<event>
 7    1  0.1020295E-005  0.3720038E+03  0.7546771E-02  0.1099091E+00
         -2   -1    0    0    0  501 -0.00000000000E+00  0.00000000000E+00  0.23959626405E+03  0.23959626405E+03  0.00000000000E+00 0.  1.
          2   -1    0    0  501    0  0.00000000000E+00 -0.00000000000E+00 -0.24184021682E+03  0.24184021682E+03  0.00000000000E+00 0. -1.
         23    2    1    2    0    0 -0.23443571477E+02  0.54935917568E+02 -0.58284819993E+01  0.10941544817E+03  0.91488868244E+02 0.  0.
          5    1    1    2  502    0 -0.35809170876E+02 -0.76450645842E+02 -0.16859249431E+03  0.18860677905E+03  0.47000000000E+01 0. -1.
         -5    1    1    2    0  502  0.59252742353E+02  0.21514728274E+02  0.17217702354E+03  0.18341425365E+03  0.47000000000E+01 0.  1.
        -11    1    3    3    0    0 -0.48719030358E+02  0.17381124019E+02  0.22072929870E+02  0.56239324536E+02  0.00000000000E+00 0. -1.
         11    1    3    3    0    0  0.25275458881E+02  0.37554793549E+02 -0.27901411870E+02  0.53176123631E+02  0.00000000000E+00 0.  1.
<mgrwt>
<rscale>  0 0.27385829E+03</rscale>
<asrwt>0</asrwt>
<pdfrwt beam="2">  1        2 0.37206187E-01 0.37200376E+03</pdfrwt>
<pdfrwt beam="1">  1       -2 0.36860964E-01 0.37200376E+03</pdfrwt>
<totfact> 0.96784899E+02</totfact>
</mgrwt>
</event>
<event>
 8    1  0.1020295E-005  0.1486749E+03  0.7546771E-02  0.1208848E+00
         -2   -1    0    0    0  501 -0.00000000000E+00  0.00000000000E+00  0.87289342730E+02  0.87289342730E+02  0.00000000000E+00 0.  1.
          2   -1    0    0  501    0  0.00000000000E+00 -0.00000000000E+00 -0.22913607736E+03  0.22913607736E+03  0.00000000000E+00 0. -1.
         23    2    1    2    0    0 -0.41631912238E+02  0.71111719192E+02 -0.44701719515E+02  0.15524969266E+03  0.12375027523E+03 0.  0.
         23    2    1    2    0    0  0.41631912238E+02 -0.71111719192E+02 -0.97145015110E+02  0.16117572743E+03  0.98743953885E+02 0.  0.
          5    1    3    3  502    0 -0.28582542588E+01  0.39347531996E+02 -0.82983834340E+02  0.92004373012E+02  0.47000000000E+01 0. -1.
         -5    1    3    3    0  502 -0.38773657979E+02  0.31764187196E+02  0.38282114825E+02  0.63245319643E+02  0.47000000000E+01 0.  1.
        -11    1    4    4    0    0 -0.16998171583E+02  0.41001622155E+01  0.79973333633E+01  0.19227753594E+02  0.00000000000E+00 0.  1.
         11    1    4    4    0    0  0.58630083821E+02 -0.75211881408E+02 -0.10514234847E+03  0.14194797384E+03  0.00000000000E+00 0. -1.
<mgrwt>
<rscale>  0 0.14338267E+03</rscale>
<asrwt>0</asrwt>
<pdfrwt beam="2">  1        2 0.35251704E-01 0.14867489E+03</pdfrwt>
<pdfrwt beam="1">  1       -2 0.13429130E-01 0.14867489E+03</pdfrwt>
<totfact> 0.57905852E+03</totfact>
</mgrwt>
</event>
<event>
 8    1  0.1020295E-005  0.1476627E+03  0.7546771E-02  0.1213187E+00
         -1   -1    0    0    0  501 -0.00000000000E+00  0.00000000000E+00  0.81893431917E+02  0.81893431917E+02  0.00000000000E+00 0.  1.
          1   -1    0    0  501    0  0.00000000000E+00 -0.00000000000E+00 -0.22811439388E+03  0.22811439388E+03  0.00000000000E+00 0. -1.
         23    2    1    2    0    0 -0.54306302812E+02 -0.56826414924E+02 -0.48255117557E+02  0.15534743175E+03  0.12500340884E+03 0.  0.
         23    2    1    2    0    0  0.54306302812E+02  0.56826414924E+02 -0.97965844402E+02  0.15466039404E+03  0.90244749753E+02 0.  0.
          5    1    3    3  502    0 -0.15707642633E+02 -0.66155212105E+02  0.24418686059E+02  0.72398925093E+02  0.47000000000E+01 0.  1.
         -5    1    3    3    0  502 -0.38598660180E+02  0.93287971814E+01 -0.72673803616E+02  0.82948506656E+02  0.47000000000E+01 0.  1.
        -11    1    4    4    0    0  0.23601553186E+02  0.76150201460E+02 -0.48502752609E+02  0.93318827178E+02  0.00000000000E+00 0.  1.
         11    1    4    4    0    0  0.30704749626E+02 -0.19323786537E+02 -0.49463091793E+02  0.61341566865E+02  0.00000000000E+00 0. -1.
<mgrwt>
<rscale>  0 0.14010561E+03</rscale>
<asrwt>0</asrwt>
<pdfrwt beam="2">  1        1 0.35094522E-01 0.14766268E+03</pdfrwt>
<pdfrwt beam="1">  1       -1 0.12598990E-01 0.14766268E+03</pdfrwt>
<totfact> 0.50610486E+03</totfact>
</mgrwt>
</event>
<event>
 8    1  0.1020295E-005  0.2642904E+03  0.7546771E-02  0.1106809E+00
          2   -1    0    0  501    0  0.00000000000E+00  0.00000000000E+00  0.85335501719E+03  0.85335501719E+03  0.00000000000E+00 0. -1.
         -2   -1    0    0    0  501 -0.00000000000E+00 -0.00000000000E+00 -0.85373940151E+02  0.85373940151E+02  0.00000000000E+00 0.  1.
         23    2    1    2    0    0  0.99922727838E+02 -0.21032510753E+03  0.25038662088E+03  0.36406438819E+03  0.12501286508E+03 0.  0.
         23    2    1    2    0    0 -0.99922727838E+02  0.21032510753E+03  0.51759445616E+03  0.57466456915E+03  0.90078541244E+02 0.  0.
          5    1    3    3  502    0  0.11522264974E+03 -0.20692223538E+03  0.25398618562E+03  0.34730986596E+03  0.47000000000E+01 0. -1.
         -5    1    3    3    0  502 -0.15299921900E+02 -0.34028721526E+01 -0.35995647354E+01  0.16754522235E+02  0.47000000000E+01 0. -1.
        -11    1    4    4    0    0 -0.28715470465E+02  0.14316980067E+03  0.24728108771E+03  0.28717608955E+03  0.00000000000E+00 0.  1.
         11    1    4    4    0    0 -0.71207257373E+02  0.67155306861E+02  0.27031336845E+03  0.28748847961E+03  0.00000000000E+00 0. -1.
<mgrwt>
<rscale>  0 0.26055706E+03</rscale>
<asrwt>0</asrwt>
<pdfrwt beam="1">  1        2 0.13128538E+00 0.26429041E+03</pdfrwt>
<pdfrwt beam="2">  1       -2 0.13134453E-01 0.26429041E+03</pdfrwt>
<totfact> 0.13915203E+03</totfact>
</mgrwt>
</event>
<event>
 8    1  0.1020295E-005  0.1776598E+03  0.7546771E-02  0.1175645E+00
          1   -1    0    0  501    0  0.00000000000E+00  0.00000000000E+00  0.32729487343E+03  0.32729487343E+03  0.00000000000E+00 0. -1.
         -1   -1    0    0    0  501 -0.00000000000E+00 -0.00000000000E+00 -0.10182053134E+03  0.10182053134E+03  0.00000000000E+00 0.  1.
         23    2    1    2    0    0 -0.10464334218E+03  0.70876590649E+02  0.32471157528E+02  0.18060282031E+03  0.12485704814E+03 0.  0.
         23    2    1    2    0    0  0.10464334218E+03 -0.70876590649E+02  0.19300318456E+03  0.24851258445E+03  0.92382656465E+02 0.  0.
          5    1    3    3  502    0 -0.10313382732E+03  0.14608976390E+02 -0.16842850040E+02  0.10562092655E+03  0.47000000000E+01 0. -1.
         -5    1    3    3    0  502 -0.15095148623E+01  0.56267614259E+02  0.49314007568E+02  0.74981893761E+02  0.47000000000E+01 0. -1.
        -11    1    4    4    0    0  0.20728923648E+02 -0.25910837679E+02 -0.13793848442E+00  0.33182507618E+02  0.00000000000E+00 0.  1.
         11    1    4    4    0    0  0.83914418532E+02 -0.44965752970E+02  0.19314112305E+03  0.21533007684E+03  0.00000000000E+00 0. -1.
<mgrwt>
<rscale>  0 0.17212976E+03</rscale>
<asrwt>0</asrwt>
<pdfrwt beam="1">  1        1 0.50353057E-01 0.17765979E+03</pdfrwt>
<pdfrwt beam="2">  1       -1 0.15664697E-01 0.17765979E+03</pdfrwt>
<totfact> 0.23151787E+03</totfact>
</mgrwt>
</event>
<event>
 8    1  0.1020295E-005  0.2063404E+03  0.7546771E-02  0.1148391E+00
          1   -1    0    0  501    0  0.00000000000E+00  0.00000000000E+00  0.68126021623E+03  0.68126021623E+03  0.00000000000E+00 0. -1.
         -1   -1    0    0    0  501 -0.00000000000E+00 -0.00000000000E+00 -0.57519814640E+02  0.57519814640E+02  0.00000000000E+00 0.  1.
         23    2    1    2    0    0  0.16286896689E+03 -0.20654349588E+02  0.29387442797E+03  0.35908012843E+03  0.12499382658E+03 0.  0.
         23    2    1    2    0    0 -0.16286896689E+03  0.20654349588E+02  0.32986597362E+03  0.37969990244E+03  0.91692708730E+02 0.  0.
          5    1    3    3  502    0  0.74409751885E+02 -0.48113290999E+02  0.22985357703E+03  0.24638680326E+03  0.47000000000E+01 0. -1.
         -5    1    3    3    0  502  0.88459215001E+02  0.27458941411E+02  0.64020850945E+02  0.11269332517E+03  0.47000000000E+01 0. -1.
        -11    1    4    4    0    0 -0.96749544472E+02  0.51290871930E+02  0.24146524049E+03  0.26513523015E+03  0.00000000000E+00 0. -1.
         11    1    4    4    0    0 -0.66119422414E+02 -0.30636522342E+02  0.88400733123E+02  0.11456467230E+03  0.00000000000E+00 0.  1.
<mgrwt>
<rscale>  0 0.20160576E+03</rscale>
<asrwt>0</asrwt>
<pdfrwt beam="1">  1        1 0.10480926E+00 0.20634040E+03</pdfrwt>
<pdfrwt beam="2">  1       -1 0.88492027E-02 0.20634040E+03</pdfrwt>
<totfact> 0.21484213E+03</totfact>
</mgrwt>
</event>
<event>
 8    1  0.1020295E-005  0.1365587E+03  0.7546771E-02  0.1230230E+00
         -1   -1    0    0    0  501 -0.00000000000E+00  0.00000000000E+00  0.52071884177E+03  0.52071884177E+03  0.00000000000E+00 0.  1.
          1   -1    0    0  501    0  0.00000000000E+00 -0.00000000000E+00 -0.42272846628E+02  0.42272846628E+02  0.00000000000E+00 0. -1.
         23    2    1    2    0    0 -0.54552326663E+02  0.66612137559E+01  0.42083564535E+03  0.44243747389E+03  0.12501179864E+03 0.  0.
         23    2    1    2    0    0  0.54552326663E+02 -0.66612137559E+01  0.57610349795E+02  0.12055421450E+03  0.90520926410E+02 0.  0.
          5    1    3    3  502    0 -0.34729495829E+01  0.31282062142E+02  0.20005395036E+02  0.37589022616E+02  0.47000000000E+01 0.  1.
         -5    1    3    3    0  502 -0.51079377080E+02 -0.24620848386E+02  0.40083025031E+03  0.40484845128E+03  0.47000000000E+01 0.  1.
        -11    1    4    4    0    0  0.30707170167E+02  0.18931171937E+01  0.80645179393E+02  0.86314304444E+02  0.00000000000E+00 0.  1.
         11    1    4    4    0    0  0.23845156496E+02 -0.85543309496E+01 -0.23034829598E+02  0.34239910060E+02  0.00000000000E+00 0. -1.
<mgrwt>
<rscale>  0 0.12814786E+03</rscale>
<asrwt>0</asrwt>
<pdfrwt beam="2">  1        1 0.65035153E-02 0.13655870E+03</pdfrwt>
<pdfrwt beam="1">  1       -1 0.80110586E-01 0.13655870E+03</pdfrwt>
<totfact> 0.18301380E+03</totfact>
</mgrwt>
</event>
<event>
 8    1  0.1020295E-005  0.1547715E+03  0.7546771E-02  0.1203376E+00
          2   -1    0    0  501    0  0.00000000000E+00  0.00000000000E+00  0.20165423726E+03  0.20165423726E+03  0.00000000000E+00 0. -1.
         -2   -1    0    0    0  501 -0.00000000000E+00 -0.00000000000E+00 -0.16238377774E+03  0.16238377774E+03  0.00000000000E+00 0.  1.
         23    2    1    2    0    0 -0.39639223880E+02  0.82234995495E+02 -0.92390080867E+02  0.18025025880E+03  0.12498146343E+03 0.  0.
         23    2    1    2    0    0  0.39639223880E+02 -0.82234995495E+02  0.13166054039E+03  0.18378775620E+03  0.90053200285E+02 0.  0.
          5    1    3    3  502    0 -0.18050848915E+02  0.10581087535E+03 -0.10030301287E+03  0.14698489337E+03  0.47000000000E+01 0. -1.
         -5    1    3    3    0  502 -0.21588374965E+02 -0.23575879850E+02  0.79129320071E+01  0.33265365431E+02  0.47000000000E+01 0. -1.
        -11    1    4    4    0    0 -0.19949777478E+02 -0.47791945935E+02  0.26681402823E+02  0.58257711715E+02  0.00000000000E+00 0.  1.
         11    1    4    4    0    0  0.59589001358E+02 -0.34443049561E+02  0.10497913756E+03  0.12553004449E+03  0.00000000000E+00 0. -1.
<mgrwt>
<rscale>  0 0.14766155E+03</rscale>
<asrwt>0</asrwt>
<pdfrwt beam="1">  1        2 0.31023729E-01 0.15477154E+03</pdfrwt>
<pdfrwt beam="2">  1       -2 0.24982120E-01 0.15477154E+03</pdfrwt>
<totfact> 0.23479354E+03</totfact>
</mgrwt>
</event>
<event>
 7    1  0.1020295E-005  0.1613266E+03  0.7546771E-02  0.1205118E+00
         -1   -1    0    0    0  501 -0.00000000000E+00  0.00000000000E+00  0.52316870330E+02  0.52316870330E+02  0.00000000000E+00 0.  1.
          1   -1    0    0  501    0  0.00000000000E+00 -0.00000000000E+00 -0.39215771006E+03  0.39215771006E+03  0.00000000000E+00 0. -1.
         23    2    1    2    0    0  0.42120441857E+02 -0.42931396597E+02 -0.21285702857E+03  0.23916707393E+03  0.90969985186E+02 0.  0.
          5    1    1    2  502    0 -0.28008847235E+02  0.67236238961E+02 -0.15121137945E+03  0.16790526682E+03  0.47000000000E+01 0. -1.
         -5    1    1    2    0  502 -0.14111594622E+02 -0.24304842364E+02  0.24227568282E+02  0.37402239639E+02  0.47000000000E+01 0.  1.
        -11    1    3    3    0    0  0.55954093023E+02 -0.62253538989E+02 -0.18105186116E+03  0.19946463364E+03  0.00000000000E+00 0.  1.
         11    1    3    3    0    0 -0.13833651165E+02  0.19322142392E+02 -0.31805167402E+02  0.39702440286E+02  0.00000000000E+00 0. -1.
<mgrwt>
<rscale>  0 0.14628169E+03</rscale>
<asrwt>0</asrwt>
<pdfrwt beam="2">  1        1 0.60331952E-01 0.16132664E+03</pdfrwt>
<pdfrwt beam="1">  1       -1 0.80487497E-02 0.16132664E+03</pdfrwt>
<totfact> 0.51433810E+03</totfact>
</mgrwt>
</event>
<event>
 8    1  0.1020295E-005  0.1350661E+03  0.7546771E-02  0.1229025E+00
          3   -1    0    0  501    0  0.00000000000E+00  0.00000000000E+00  0.31970360921E+03  0.31970360921E+03  0.00000000000E+00 0. -1.
         -3   -1    0    0    0  501 -0.00000000000E+00 -0.00000000000E+00 -0.47918208964E+02  0.47918208964E+02  0.00000000000E+00 0.  1.
         23    2    1    2    0    0  0.35578668549E+02 -0.36792847759E+02  0.15700453145E+03  0.20710690000E+03  0.12499315913E+03 0.  0.
         23    2    1    2    0    0 -0.35578668549E+02  0.36792847759E+02  0.11478086879E+03  0.16051491817E+03  0.99854072590E+02 0.  0.
          5    1    3    3  502    0  0.76997349596E+02 -0.48048369716E+02  0.94208100820E+02  0.13089879273E+03  0.47000000000E+01 0. -1.
         -5    1    3    3    0  502 -0.41418681047E+02  0.11255521957E+02  0.62796430628E+02  0.76208107271E+02  0.47000000000E+01 0. -1.
        -11    1    4    4    0    0 -0.32644800012E+02 -0.74149781423E+01 -0.40243562741E+01  0.33717359210E+02  0.00000000000E+00 0.  1.
         11    1    4    4    0    0 -0.29338685374E+01  0.44207825901E+02  0.11880522507E+03  0.12679755896E+03  0.00000000000E+00 0. -1.
<mgrwt>
<rscale>  0 0.12894800E+03</rscale>
<asrwt>0</asrwt>
<pdfrwt beam="1">  1        3 0.49185169E-01 0.13506608E+03</pdfrwt>
<pdfrwt beam="2">  1       -3 0.73720323E-02 0.13506608E+03</pdfrwt>
<totfact> 0.11595723E+03</totfact>
</mgrwt>
</event>
<event>
 8    1  0.1020295E-005  0.1691895E+03  0.7546771E-02  0.1184980E+00
         -2   -1    0    0    0  501 -0.00000000000E+00  0.00000000000E+00  0.11220778435E+03  0.11220778435E+03  0.00000000000E+00 0.  1.
          2   -1    0    0  501    0  0.00000000000E+00 -0.00000000000E+00 -0.24330587233E+03  0.24330587233E+03  0.00000000000E+00 0. -1.
         23    2    1    2    0    0  0.78108559283E+01  0.11374791364E+03 -0.18151711867E+02  0.17016046922E+03  0.12500201324E+03 0.  0.
         23    2    1    2    0    0 -0.78108559283E+01 -0.11374791364E+03 -0.11294637612E+03  0.18535318746E+03  0.92732534181E+02 0.  0.
          5    1    3    3  502    0  0.88437166730E+01 -0.17655358840E+02 -0.32049634337E+02  0.37936685167E+02  0.47000000000E+01 0. -1.
         -5    1    3    3    0  502 -0.10328607447E+01  0.13140327248E+03  0.13897922470E+02  0.13222378406E+03  0.47000000000E+01 0. -1.
        -11    1    4    4    0    0  0.23394554464E+02 -0.55502403204E+02 -0.72015192407E+01  0.60660397455E+02  0.00000000000E+00 0.  1.
         11    1    4    4    0    0 -0.31205410392E+02 -0.58245510440E+02 -0.10574485687E+03  0.12469279001E+03  0.00000000000E+00 0. -1.
<mgrwt>
<rscale>  0 0.16333684E+03</rscale>
<asrwt>0</asrwt>
<pdfrwt beam="2">  1        2 0.37431672E-01 0.16918954E+03</pdfrwt>
<pdfrwt beam="1">  1       -2 0.17262736E-01 0.16918954E+03</pdfrwt>
<totfact> 0.36191671E+03</totfact>
</mgrwt>
</event>
<event>
 8    1  0.1020295E-005  0.1394118E+03  0.7546771E-02  0.1223524E+00
         -1   -1    0    0    0  501 -0.00000000000E+00  0.00000000000E+00  0.27601054687E+03  0.27601054687E+03  0.00000000000E+00 0.  1.
          1   -1    0    0  501    0  0.00000000000E+00 -0.00000000000E+00 -0.58644433752E+02  0.58644433752E+02  0.00000000000E+00 0. -1.
         23    2    1    2    0    0  0.50231818933E+02 -0.35907427681E+02  0.13121139065E+03  0.19144733260E+03  0.12499229228E+03 0.  0.
         23    2    1    2    0    0 -0.50231818933E+02  0.35907427681E+02  0.86154722463E+02  0.14320764801E+03  0.96297535022E+02 0.  0.
          5    1    3    3  502    0 -0.14997143150E+02 -0.61079752497E+02  0.34114758620E+02  0.71704652733E+02  0.47000000000E+01 0.  1.
         -5    1    3    3    0  502  0.65228962083E+02  0.25172324816E+02  0.97096632030E+02  0.11974267987E+03  0.47000000000E+01 0.  1.
        -11    1    4    4    0    0 -0.45261996980E+01  0.53166582791E+02  0.76716914221E+02  0.93448686116E+02  0.00000000000E+00 0.  1.
         11    1    4    4    0    0 -0.45705619235E+02 -0.17259155110E+02  0.94378082426E+01  0.49758961898E+02  0.00000000000E+00 0. -1.
<mgrwt>
<rscale>  0 0.13268587E+03</rscale>
<asrwt>0</asrwt>
<pdfrwt beam="2">  1        1 0.90222208E-02 0.13941181E+03</pdfrwt>
<pdfrwt beam="1">  1       -1 0.42463160E-01 0.13941181E+03</pdfrwt>
<totfact> 0.39284937E+03</totfact>
</mgrwt>
</event>
<event>
 8    1  0.1020295E-005  0.2005310E+03  0.7546771E-02  0.1153274E+00
          1   -1    0    0  501    0  0.00000000000E+00  0.00000000000E+00  0.66998398752E+02  0.66998398752E+02  0.00000000000E+00 0. -1.
         -1   -1    0    0    0  501 -0.00000000000E+00 -0.00000000000E+00 -0.59778927088E+03  0.59778927088E+03  0.00000000000E+00 0.  1.
         23    2    1    2    0    0 -0.15086905966E+03 -0.42658982130E+02 -0.37314815919E+03  0.42361803271E+03  0.12502570539E+03 0.  0.
         23    2    1    2    0    0  0.15086905966E+03  0.42658982130E+02 -0.15764271294E+03  0.24116963692E+03  0.93436111392E+02 0.  0.
          5    1    3    3  502    0 -0.10344374256E+03  0.12958400837E+02 -0.11505199723E+03  0.15533055106E+03  0.47000000000E+01 0. -1.
         -5    1    3    3    0  502 -0.47425317105E+02 -0.55617382967E+02 -0.25809616196E+03  0.26828748165E+03  0.47000000000E+01 0. -1.
        -11    1    4    4    0    0  0.16238175574E+02 -0.21349604718E+02 -0.51835629945E+02  0.58364514042E+02  0.00000000000E+00 0.  1.
         11    1    4    4    0    0  0.13463088409E+03  0.64008586847E+02 -0.10580708299E+03  0.18280512288E+03  0.00000000000E+00 0. -1.
<mgrwt>
<rscale>  0 0.19586668E+03</rscale>
<asrwt>0</asrwt>
<pdfrwt beam="1">  1        1 0.10307446E-01 0.20053102E+03</pdfrwt>
<pdfrwt beam="2">  1       -1 0.91967582E-01 0.20053102E+03</pdfrwt>
<totfact> 0.74431851E+02</totfact>
</mgrwt>
</event>
<event>
 8    1  0.1020295E-005  0.1282745E+03  0.7546771E-02  0.1241407E+00
         -2   -1    0    0    0  501 -0.00000000000E+00  0.00000000000E+00  0.20130501392E+02  0.20130501392E+02  0.00000000000E+00 0.  1.
          2   -1    0    0  501    0  0.00000000000E+00 -0.00000000000E+00 -0.66542939134E+03  0.66542939134E+03  0.00000000000E+00 0. -1.
         23    2    1    2    0    0  0.30121008388E+02  0.33625645022E+02 -0.32026728811E+03  0.34500070354E+03  0.12006827416E+03 0.  0.
         23    2    1    2    0    0 -0.30121008388E+02 -0.33625645022E+02 -0.32503160184E+03  0.34055918919E+03  0.91088199026E+02 0.  0.
          5    1    3    3  502    0 -0.38695992865E+02  0.43597816187E+02 -0.15283860041E+03  0.16364558416E+03  0.47000000000E+01 0. -1.
         -5    1    3    3    0  502  0.68817001253E+02 -0.99721711651E+01 -0.16742868770E+03  0.18135511938E+03  0.47000000000E+01 0.  1.
        -11    1    4    4    0    0 -0.61385860861E+02 -0.33178037549E+02 -0.20639827453E+03  0.21787439918E+03  0.00000000000E+00 0. -1.
         11    1    4    4    0    0  0.31264852473E+02 -0.44760747290E+00 -0.11863332731E+03  0.12268479001E+03  0.00000000000E+00 0.  1.
<mgrwt>
<rscale>  0 0.12103032E+03</rscale>
<asrwt>0</asrwt>
<pdfrwt beam="2">  1        2 0.10237376E+00 0.12827451E+03</pdfrwt>
<pdfrwt beam="1">  1       -2 0.30970000E-02 0.12827451E+03</pdfrwt>
<totfact> 0.17000503E+04</totfact>
</mgrwt>
</event>
<event>
 8    1  0.1020295E-005  0.1265244E+03  0.7546771E-02  0.1248725E+00
         -2   -1    0    0    0  501 -0.00000000000E+00  0.00000000000E+00  0.20244221499E+02  0.20244221499E+02  0.00000000000E+00 0.  1.
          2   -1    0    0  501    0  0.00000000000E+00 -0.00000000000E+00 -0.58665579057E+03  0.58665579057E+03  0.00000000000E+00 0. -1.
         23    2    1    2    0    0 -0.11246398798E+01 -0.19716276549E+02 -0.33215136122E+03  0.35543347991E+03  0.12497373926E+03 0.  0.
         23    2    1    2    0    0  0.11246398798E+01  0.19716276549E+02 -0.23426020785E+03  0.25146653216E+03  0.89261276251E+02 0.  0.
          5    1    3    3  502    0 -0.10355342096E+02  0.25954860554E+02 -0.10235079595E+02  0.30128636720E+02  0.47000000000E+01 0. -1.
         -5    1    3    3    0  502  0.92307022162E+01 -0.45671137103E+02 -0.32191628162E+03  0.32530484318E+03  0.47000000000E+01 0. -1.
        -11    1    4    4    0    0 -0.21573811982E+02 -0.13980512108E+02 -0.17902257598E+02  0.31326903922E+02  0.00000000000E+00 0.  1.
         11    1    4    4    0    0  0.22698451861E+02  0.33696788657E+02 -0.21635795026E+03  0.22013962824E+03  0.00000000000E+00 0. -1.
<mgrwt>
<rscale>  0 0.11665163E+03</rscale>
<asrwt>0</asrwt>
<pdfrwt beam="2">  1        2 0.90254729E-01 0.12652443E+03</pdfrwt>
<pdfrwt beam="1">  1       -2 0.31144959E-02 0.12652443E+03</pdfrwt>
<totfact> 0.19459231E+04</totfact>
</mgrwt>
</event>
<event>
 8    1  0.1020295E-005  0.1871222E+03  0.7546771E-02  0.1165553E+00
         -1   -1    0    0    0  501 -0.00000000000E+00  0.00000000000E+00  0.90121701887E+02  0.90121701887E+02  0.00000000000E+00 0.  1.
          1   -1    0    0  501    0  0.00000000000E+00 -0.00000000000E+00 -0.36786979413E+03  0.36786979413E+03  0.00000000000E+00 0. -1.
         23    2    1    2    0    0 -0.13190073120E+03 -0.44590986778E+02 -0.97164811648E+02  0.21084525208E+03  0.12501424203E+03 0.  0.
         23    2    1    2    0    0  0.13190073120E+03  0.44590986778E+02 -0.18058328059E+03  0.24714624393E+03  0.95314142014E+02 0.  0.
          5    1    3    3  502    0  0.16350098787E+02 -0.32053765287E+02 -0.31882962321E+02  0.48305102068E+02  0.47000000000E+01 0.  1.
         -5    1    3    3    0  502 -0.14825082999E+03 -0.12537221491E+02 -0.65281849327E+02  0.16254015001E+03  0.47000000000E+01 0.  1.
        -11    1    4    4    0    0  0.17132571802E+02  0.19084496559E+01  0.10508487127E+02  0.20188994486E+02  0.00000000000E+00 0.  1.
         11    1    4    4    0    0  0.11476815940E+03  0.42682537122E+02 -0.19109176772E+03  0.22695724945E+03  0.00000000000E+00 0. -1.
<mgrwt>
<rscale>  0 0.18234516E+03</rscale>
<asrwt>0</asrwt>
<pdfrwt beam="2">  1        1 0.56595353E-01 0.18712221E+03</pdfrwt>
<pdfrwt beam="1">  1       -1 0.13864877E-01 0.18712221E+03</pdfrwt>
<totfact> 0.24265555E+03</totfact>
</mgrwt>
</event>
<event>
 8    1  0.1020295E-005  0.1322105E+03  0.7546771E-02  0.1226864E+00
          2   -1    0    0  501    0  0.00000000000E+00  0.00000000000E+00  0.17299115824E+03  0.17299115824E+03  0.00000000000E+00 0.  1.
         -2   -1    0    0    0  501 -0.00000000000E+00 -0.00000000000E+00 -0.98688452206E+02  0.98688452206E+02  0.00000000000E+00 0. -1.
         23    2    1    2    0    0 -0.35111009009E+02  0.24940655861E+02  0.14490734686E+02  0.13300219970E+03  0.12499913786E+03 0.  0.
         23    2    1    2    0    0  0.35111009009E+02 -0.24940655861E+02  0.59811971343E+02  0.13867741074E+03  0.11746971126E+03 0.  0.
          5    1    3    3  502    0 -0.54797894872E+02 -0.33596095111E+01 -0.40182465039E+02  0.68196896961E+02  0.47000000000E+01 0.  1.
         -5    1    3    3    0  502  0.19686885864E+02  0.28300265373E+02  0.54673199725E+02  0.64805302741E+02  0.47000000000E+01 0.  1.
        -11    1    4    4    0    0  0.70407462749E+02 -0.10549468868E+02  0.42798797318E+01  0.71321942449E+02  0.00000000000E+00 0.  1.
         11    1    4    4    0    0 -0.35296453740E+02 -0.14391186993E+02  0.55532091612E+02  0.67355468289E+02  0.00000000000E+00 0. -1.
<mgrwt>
<rscale>  0 0.13039993E+03</rscale>
<asrwt>0</asrwt>
<pdfrwt beam="1">  1        2 0.26614024E-01 0.13221045E+03</pdfrwt>
<pdfrwt beam="2">  1       -2 0.15182839E-01 0.13221045E+03</pdfrwt>
<totfact> 0.63816632E+03</totfact>
</mgrwt>
</event>
<event>
 8    1  0.1020295E-005  0.2206786E+03  0.7546771E-02  0.1136730E+00
          1   -1    0    0  501    0  0.00000000000E+00  0.00000000000E+00  0.59561329111E+03  0.59561329111E+03  0.00000000000E+00 0. -1.
         -1   -1    0    0    0  501 -0.00000000000E+00 -0.00000000000E+00 -0.90835340646E+02  0.90835340646E+02  0.00000000000E+00 0.  1.
         23    2    1    2    0    0 -0.15748616193E+03  0.90953112878E+02  0.11993714491E+03  0.25116521092E+03  0.12499873801E+03 0.  0.
         23    2    1    2    0    0  0.15748616193E+03 -0.90953112878E+02  0.38484080555E+03  0.43528342084E+03  0.91076072029E+02 0.  0.
          5    1    3    3  502    0 -0.13540704534E+03  0.10510961583E+02  0.86994581835E+02  0.16135580408E+03  0.47000000000E+01 0.  1.
         -5    1    3    3    0  502 -0.22079116589E+02  0.80442151295E+02  0.32942563078E+02  0.89809406838E+02  0.47000000000E+01 0.  1.
        -11    1    4    4    0    0  0.14101128062E+03 -0.37653619848E+02  0.25219226169E+03  0.29138104469E+03  0.00000000000E+00 0.  1.
         11    1    4    4    0    0  0.16474881310E+02 -0.53299493030E+02  0.13264854386E+03  0.14390237614E+03  0.00000000000E+00 0. -1.
<mgrwt>
<rscale>  0 0.21622446E+03</rscale>
<asrwt>0</asrwt>
<pdfrwt beam="1">  1        1 0.91632812E-01 0.22067860E+03</pdfrwt>
<pdfrwt beam="2">  1       -1 0.13974668E-01 0.22067860E+03</pdfrwt>
<totfact> 0.12777650E+03</totfact>
</mgrwt>
</event>
<event>
 8    1  0.1020295E-005  0.1575526E+03  0.7546771E-02  0.1196971E+00
         -2   -1    0    0    0  501 -0.00000000000E+00  0.00000000000E+00  0.11989889843E+03  0.11989889843E+03  0.00000000000E+00 0.  1.
          2   -1    0    0  501    0  0.00000000000E+00 -0.00000000000E+00 -0.29645426391E+03  0.29645426391E+03  0.00000000000E+00 0. -1.
         23    2    1    2    0    0  0.76280384370E+02  0.74901609906E+02  0.36364337300E+02  0.16169470682E+03  0.11573186674E+03 0.  0.
         23    2    1    2    0    0 -0.76280384370E+02 -0.74901609906E+02 -0.21291970279E+03  0.25465845552E+03  0.89928754745E+02 0.  0.
          5    1    3    3  502    0  0.34178282774E+02 -0.27183282811E+02  0.25119648417E+02  0.50598148329E+02  0.47000000000E+01 0. -1.
         -5    1    3    3    0  502  0.42102101596E+02  0.10208489272E+03  0.11244688883E+02  0.11109655849E+03  0.47000000000E+01 0.  1.
        -11    1    4    4    0    0 -0.11317122344E+02 -0.57495367730E+01  0.74589182778E+01  0.14723107455E+02  0.00000000000E+00 0.  1.
         11    1    4    4    0    0 -0.64963262026E+02 -0.69152073133E+02 -0.22037862106E+03  0.23993534807E+03  0.00000000000E+00 0. -1.
<mgrwt>
<rscale>  0 0.15288622E+03</rscale>
<asrwt>0</asrwt>
<pdfrwt beam="2">  1        2 0.45608348E-01 0.15755257E+03</pdfrwt>
<pdfrwt beam="1">  1       -2 0.18445985E-01 0.15755257E+03</pdfrwt>
<totfact> 0.26146686E+03</totfact>
</mgrwt>
</event>
<event>
 7    1  0.1020295E-005  0.1752537E+03  0.7546771E-02  0.1198883E+00
         -3   -1    0    0    0  501 -0.00000000000E+00  0.00000000000E+00  0.77346331802E+03  0.77346331802E+03  0.00000000000E+00 0.  1.
          3   -1    0    0  501    0  0.00000000000E+00 -0.00000000000E+00 -0.25120633589E+02  0.25120633589E+02  0.00000000000E+00 0. -1.
         23    2    1    2    0    0 -0.39944590631E+02 -0.71110791904E+01  0.19170944848E+03  0.21501355962E+03  0.88499606871E+02 0.  0.
          5    1    1    2  502    0  0.96513876784E+02  0.39159393620E+02  0.26570959071E+03  0.28543311496E+03  0.47000000000E+01 0. -1.
         -5    1    1    2    0  502 -0.56569286153E+02 -0.32048314429E+02  0.29092364524E+03  0.29813727703E+03  0.47000000000E+01 0.  1.
        -11    1    3    3    0    0 -0.62192695332E+02 -0.38615871961E+01  0.17820577678E+03  0.18878596899E+03  0.00000000000E+00 0. -1.
         11    1    3    3    0    0  0.22248104701E+02 -0.32494919943E+01  0.13503671694E+02  0.26227590629E+02  0.00000000000E+00 0.  1.
<mgrwt>
<rscale>  0 0.15130097E+03</rscale>
<asrwt>0</asrwt>
<pdfrwt beam="2">  1        3 0.38647135E-02 0.17525365E+03</pdfrwt>
<pdfrwt beam="1">  1       -3 0.11899434E+00 0.17525365E+03</pdfrwt>
<totfact> 0.49715495E+02</totfact>
</mgrwt>
</event>
<event>
 8    1  0.1020295E-005  0.1865441E+03  0.7546771E-02  0.1166910E+00
         -1   -1    0    0    0  501 -0.00000000000E+00  0.00000000000E+00  0.11476766027E+03  0.11476766027E+03  0.00000000000E+00 0.  1.
          1   -1    0    0  501    0  0.00000000000E+00 -0.00000000000E+00 -0.28246548286E+03  0.28246548286E+03  0.00000000000E+00 0. -1.
         23    2    1    2    0    0 -0.13670449495E+03  0.22032040897E+02 -0.45937226704E+02  0.19211698256E+03  0.12500070570E+03 0.  0.
         23    2    1    2    0    0  0.13670449495E+03 -0.22032040897E+02 -0.12176059588E+03  0.20511616057E+03  0.89852472717E+02 0.  0.
          5    1    3    3  502    0 -0.57973268852E+02 -0.14931179505E+02  0.38072835356E+02  0.71101834117E+02  0.47000000000E+01 0.  1.
         -5    1    3    3    0  502 -0.78731226098E+02  0.36963220402E+02 -0.84010062060E+02  0.12101514844E+03  0.47000000000E+01 0.  1.
        -11    1    4    4    0    0  0.65904140304E+02 -0.40620212224E+02 -0.20349699622E+02  0.80046659050E+02  0.00000000000E+00 0.  1.
         11    1    4    4    0    0  0.70800354646E+02  0.18588171327E+02 -0.10141089626E+03  0.12506950152E+03  0.00000000000E+00 0. -1.
<mgrwt>
<rscale>  0 0.18092600E+03</rscale>
<asrwt>0</asrwt>
<pdfrwt beam="2">  1        1 0.43456228E-01 0.18654411E+03</pdfrwt>
<pdfrwt beam="1">  1       -1 0.17656563E-01 0.18654411E+03</pdfrwt>
<totfact> 0.23042703E+03</totfact>
</mgrwt>
</event>
<event>
 8    1  0.1020295E-005  0.1313582E+03  0.7546771E-02  0.1238822E+00
         -2   -1    0    0    0  501 -0.00000000000E+00  0.00000000000E+00  0.20876509859E+03  0.20876509859E+03  0.00000000000E+00 0.  1.
          2   -1    0    0  501    0  0.00000000000E+00 -0.00000000000E+00 -0.69754394168E+02  0.69754394168E+02  0.00000000000E+00 0. -1.
         23    2    1    2    0    0 -0.15594832916E+02  0.37229667509E+02  0.11796955221E+03  0.17655533931E+03  0.12500290250E+03 0.  0.
         23    2    1    2    0    0  0.15594832916E+02 -0.37229667509E+02  0.21041152204E+02  0.10196415344E+03  0.91239857217E+02 0.  0.
          5    1    3    3  502    0  0.43563436983E+02  0.98826608478E+01  0.38868760695E+01  0.45084784936E+02  0.47000000000E+01 0.  1.
         -5    1    3    3    0  502 -0.59158269899E+02  0.27347006661E+02  0.11408267615E+03  0.13147055437E+03  0.47000000000E+01 0.  1.
        -11    1    4    4    0    0  0.23882597690E+02  0.30721159438E+01  0.47354144805E+02  0.53124677873E+02  0.00000000000E+00 0.  1.
         11    1    4    4    0    0 -0.82877647741E+01 -0.40301783453E+02 -0.26312992602E+02  0.48839475571E+02  0.00000000000E+00 0. -1.
<mgrwt>
<rscale>  0 0.12262876E+03</rscale>
<asrwt>0</asrwt>
<pdfrwt beam="2">  1        2 0.10731445E-01 0.13135818E+03</pdfrwt>
<pdfrwt beam="1">  1       -2 0.32117707E-01 0.13135818E+03</pdfrwt>
<totfact> 0.50211339E+03</totfact>
</mgrwt>
</event>
<event>
 8    1  0.1020295E-005  0.1783961E+03  0.7546771E-02  0.1174791E+00
          2   -1    0    0  501    0  0.00000000000E+00  0.00000000000E+00  0.18058330962E+04  0.18058330962E+04  0.00000000000E+00 0. -1.
         -2   -1    0    0    0  501 -0.00000000000E+00 -0.00000000000E+00 -0.15647070369E+02  0.15647070369E+02  0.00000000000E+00 0.  1.
         23    2    1    2    0    0 -0.12681098111E+03 -0.10931780588E+02  0.92288224707E+03  0.93996638560E+03  0.12499854138E+03 0.  0.
         23    2    1    2    0    0  0.12681098111E+03  0.10931780588E+02  0.86730377878E+03  0.88151378099E+03  0.93006304231E+02 0.  0.
          5    1    3    3  502    0  0.18132350495E+02 -0.63005044217E+01  0.28967649247E+03  0.29034985583E+03  0.47000000000E+01 0.  1.
         -5    1    3    3    0  502 -0.14494333160E+03 -0.46312761661E+01  0.63320575460E+03  0.64961652977E+03  0.47000000000E+01 0.  1.
        -11    1    4    4    0    0  0.12518952585E+03 -0.19795437574E+02  0.71144212772E+03  0.72264388036E+03  0.00000000000E+00 0.  1.
         11    1    4    4    0    0  0.16214552599E+01  0.30727218162E+02  0.15586165106E+03  0.15886990062E+03  0.00000000000E+00 0. -1.
<mgrwt>
<rscale>  0 0.17296424E+03</rscale>
<asrwt>0</asrwt>
<pdfrwt beam="1">  1        2 0.27782031E+00 0.17839609E+03</pdfrwt>
<pdfrwt beam="2">  1       -2 0.24072430E-02 0.17839609E+03</pdfrwt>
<totfact> 0.54911238E+03</totfact>
</mgrwt>
</event>
<event>
 8    1  0.1020295E-005  0.1306650E+03  0.7546771E-02  0.1241807E+00
          1   -1    0    0  501    0  0.00000000000E+00  0.00000000000E+00  0.39329816801E+03  0.39329816801E+03  0.00000000000E+00 0. -1.
         -1   -1    0    0    0  501 -0.00000000000E+00 -0.00000000000E+00 -0.32655991259E+02  0.32655991259E+02  0.00000000000E+00 0.  1.
         23    2    1    2    0    0  0.12795149267E+02 -0.35845443789E+02  0.22343610638E+03  0.25883784189E+03  0.12499889230E+03 0.  0.
         23    2    1    2    0    0 -0.12795149267E+02  0.35845443789E+02  0.13720607038E+03  0.16711631738E+03  0.87485690844E+02 0.  0.
          5    1    3    3  502    0 -0.22422911734E+02  0.31200720511E+02  0.14347343597E+03  0.14860346147E+03  0.47000000000E+01 0. -1.
         -5    1    3    3    0  502  0.35218061000E+02 -0.67046164300E+02  0.79962670403E+02  0.11023438042E+03  0.47000000000E+01 0. -1.
        -11    1    4    4    0    0 -0.36273445993E+02  0.43427920701E+02  0.46879698641E+02  0.73480972539E+02  0.00000000000E+00 0.  1.
         11    1    4    4    0    0  0.23478296726E+02 -0.75824769121E+01  0.90326371735E+02  0.93635344844E+02  0.00000000000E+00 0. -1.
<mgrwt>
<rscale>  0 0.12078517E+03</rscale>
<asrwt>0</asrwt>
<pdfrwt beam="1">  1        1 0.60507407E-01 0.13066497E+03</pdfrwt>
<pdfrwt beam="2">  1       -1 0.50239989E-02 0.13066497E+03</pdfrwt>
<totfact> 0.10235330E+04</totfact>
</mgrwt>
</event>
<event>
 8    1  0.1020295E-005  0.1711088E+03  0.7546771E-02  0.1183221E+00
          2   -1    0    0  501    0  0.00000000000E+00  0.00000000000E+00  0.33770688864E+03  0.33770688864E+03  0.00000000000E+00 0. -1.
         -2   -1    0    0    0  501 -0.00000000000E+00 -0.00000000000E+00 -0.82496569600E+02  0.82496569600E+02  0.00000000000E+00 0.  1.
         23    2    1    2    0    0  0.44297610386E+02 -0.10812522686E+03  0.74108432520E+02  0.18646793617E+03  0.12499955392E+03 0.  0.
         23    2    1    2    0    0 -0.44297610386E+02  0.10812522686E+03  0.18110188652E+03  0.23373552207E+03  0.90449201256E+02 0.  0.
          5    1    3    3  502    0  0.86272422063E+01  0.24542121379E+02 -0.63568952911E+01  0.27189063015E+02  0.47000000000E+01 0. -1.
         -5    1    3    3    0  502  0.35670368179E+02 -0.13266734824E+03  0.80465327811E+02  0.15927887316E+03  0.47000000000E+01 0. -1.
        -11    1    4    4    0    0 -0.40502703885E+02  0.10628328298E+01  0.45587552961E+02  0.60990356783E+02  0.00000000000E+00 0.  1.
         11    1    4    4    0    0 -0.37949065006E+01  0.10706239403E+03  0.13551433356E+03  0.17274516529E+03  0.00000000000E+00 0. -1.
<mgrwt>
<rscale>  0 0.16494797E+03</rscale>
<asrwt>0</asrwt>
<pdfrwt beam="1">  1        2 0.51954905E-01 0.17110883E+03</pdfrwt>
<pdfrwt beam="2">  1       -2 0.12691780E-01 0.17110883E+03</pdfrwt>
<totfact> 0.42247371E+03</totfact>
</mgrwt>
</event>
<event>
 7    1  0.1020295E-005  0.1550269E+03  0.7546771E-02  0.1208440E+00
          2   -1    0    0  501    0  0.00000000000E+00  0.00000000000E+00  0.89314993398E+03  0.89314993398E+03  0.00000000000E+00 0. -1.
         -2   -1    0    0    0  501 -0.00000000000E+00 -0.00000000000E+00 -0.28063454433E+02  0.28063454433E+02  0.00000000000E+00 0.  1.
         23    2    1    2    0    0 -0.28578960364E+02  0.61531613321E+02  0.62524576792E+03  0.63563166730E+03  0.92154488539E+02 0.  0.
          5    1    1    2  502    0 -0.91916426228E+00 -0.10296920782E+03  0.14572849709E+03  0.17850038512E+03  0.47000000000E+01 0. -1.
         -5    1    1    2    0  502  0.29498124627E+02  0.41437594498E+02  0.94112214539E+02  0.10708133600E+03  0.47000000000E+01 0.  1.
        -11    1    3    3    0    0  0.25485884939E+02 -0.61090819366E+01  0.10454957090E+03  0.10778434018E+03  0.00000000000E+00 0. -1.
         11    1    3    3    0    0 -0.54064845304E+02  0.67640695258E+02  0.52069619702E+03  0.52784732711E+03  0.00000000000E+00 0.  1.
<mgrwt>
<rscale>  0 0.14369611E+03</rscale>
<asrwt>0</asrwt>
<pdfrwt beam="1">  1        2 0.13740766E+00 0.15502694E+03</pdfrwt>
<pdfrwt beam="2">  1       -2 0.43174552E-02 0.15502694E+03</pdfrwt>
<totfact> 0.73175682E+03</totfact>
</mgrwt>
</event>
<event>
 8    1  0.1020295E-005  0.1521244E+03  0.7546771E-02  0.1206917E+00
         -1   -1    0    0    0  501 -0.00000000000E+00  0.00000000000E+00  0.65551604403E+02  0.65551604403E+02  0.00000000000E+00 0.  1.
          1   -1    0    0  501    0  0.00000000000E+00 -0.00000000000E+00 -0.29363082340E+03  0.29363082340E+03  0.00000000000E+00 0. -1.
         23    2    1    2    0    0 -0.47806163685E+02  0.72330812551E+02 -0.11804851153E+03  0.19255466280E+03  0.12499868543E+03 0.  0.
         23    2    1    2    0    0  0.47806163685E+02 -0.72330812551E+02 -0.11003070746E+03  0.16662776500E+03  0.90226823919E+02 0.  0.
          5    1    3    3  502    0  0.95077525670E+01  0.57650024312E+02  0.19834610331E+01  0.58651059494E+02  0.47000000000E+01 0.  1.
         -5    1    3    3    0  502 -0.57313916252E+02  0.14680788239E+02 -0.12003197257E+03  0.13390360330E+03  0.47000000000E+01 0.  1.
        -11    1    4    4    0    0  0.46868435144E+02 -0.91926070894E+02 -0.10298296408E+03  0.14578252163E+03  0.00000000000E+00 0. -1.
         11    1    4    4    0    0  0.93772854120E+00  0.19595258343E+02 -0.70477433810E+01  0.20845243369E+02  0.00000000000E+00 0.  1.
<mgrwt>
<rscale>  0 0.14487435E+03</rscale>
<asrwt>0</asrwt>
<pdfrwt beam="2">  1        1 0.45173972E-01 0.15212445E+03</pdfrwt>
<pdfrwt beam="1">  1       -1 0.10084862E-01 0.15212445E+03</pdfrwt>
<totfact> 0.52232251E+03</totfact>
</mgrwt>
</event>
<event>
 8    1  0.1020295E-005  0.1306934E+03  0.7546771E-02  0.1239527E+00
          2   -1    0    0  501    0  0.00000000000E+00  0.00000000000E+00  0.13274127394E+03  0.13274127394E+03  0.00000000000E+00 0. -1.
         -2   -1    0    0    0  501 -0.00000000000E+00 -0.00000000000E+00 -0.10355451015E+03  0.10355451015E+03  0.00000000000E+00 0.  1.
         23    2    1    2    0    0 -0.15728090153E+02 -0.34756938432E+02  0.37845440868E+02  0.13606268031E+03  0.12500143195E+03 0.  0.
         23    2    1    2    0    0  0.15728090153E+02  0.34756938432E+02 -0.86586770752E+01  0.10023310378E+03  0.92283719123E+02 0.  0.
          5    1    3    3  502    0  0.11166819818E+02 -0.76872355817E+02  0.36240839666E+02  0.85846056481E+02  0.47000000000E+01 0.  1.
         -5    1    3    3    0  502 -0.26894909971E+02  0.42115417384E+02  0.16046012019E+01  0.50216623829E+02  0.47000000000E+01 0.  1.
        -11    1    4    4    0    0  0.39852569542E+02  0.32941682934E+02  0.26072548741E+02  0.57906472622E+02  0.00000000000E+00 0. -1.
         11    1    4    4    0    0 -0.24124479390E+02  0.18152554985E+01 -0.34731225816E+02  0.42326631156E+02  0.00000000000E+00 0.  1.
<mgrwt>
<rscale>  0 0.12219024E+03</rscale>
<asrwt>0</asrwt>
<pdfrwt beam="1">  1        2 0.20421735E-01 0.13069344E+03</pdfrwt>
<pdfrwt beam="2">  1       -2 0.15931463E-01 0.13069344E+03</pdfrwt>
<totfact> 0.79071919E+03</totfact>
</mgrwt>
</event>
<event>
 8    1  0.1020295E-005  0.1471624E+03  0.7546771E-02  0.1214333E+00
          2   -1    0    0  501    0  0.00000000000E+00  0.00000000000E+00  0.46094785065E+03  0.46094785065E+03  0.00000000000E+00 0.  1.
         -2   -1    0    0    0  501 -0.00000000000E+00 -0.00000000000E+00 -0.45997687928E+02  0.45997687928E+02  0.00000000000E+00 0. -1.
         23    2    1    2    0    0 -0.43810576676E+02 -0.64110793844E+02  0.12211149849E+03  0.19122755047E+03  0.12500878961E+03 0.  0.
         23    2    1    2    0    0  0.43810576676E+02  0.64110793844E+02  0.29283866424E+03  0.31571798811E+03  0.88847083403E+02 0.  0.
          5    1    3    3  502    0 -0.15805940739E+02 -0.58675035601E+02  0.14307472789E+03  0.15551545044E+03  0.47000000000E+01 0. -1.
         -5    1    3    3    0  502 -0.28004635937E+02 -0.54357582437E+01 -0.20963229399E+02  0.35712100029E+02  0.47000000000E+01 0. -1.
        -11    1    4    4    0    0 -0.10129182891E+01  0.42895768660E+02  0.23777378728E+03  0.24161425225E+03  0.00000000000E+00 0.  1.
         11    1    4    4    0    0  0.44823494965E+02  0.21215025184E+02  0.55064876955E+02  0.74103735861E+02  0.00000000000E+00 0. -1.
<mgrwt>
<rscale>  0 0.13925653E+03</rscale>
<asrwt>0</asrwt>
<pdfrwt beam="1">  1        2 0.70915051E-01 0.14716235E+03</pdfrwt>
<pdfrwt beam="2">  1       -2 0.70765677E-02 0.14716235E+03</pdfrwt>
<totfact> 0.75097988E+03</totfact>
</mgrwt>
</event>
<event>
 8    1  0.1020295E-005  0.1350047E+03  0.7546771E-02  0.1233352E+00
          1   -1    0    0  501    0  0.00000000000E+00  0.00000000000E+00  0.64532703112E+02  0.64532703112E+02  0.00000000000E+00 0. -1.
         -1   -1    0    0    0  501 -0.00000000000E+00 -0.00000000000E+00 -0.21965835208E+03  0.21965835208E+03  0.00000000000E+00 0.  1.
         23    2    1    2    0    0 -0.18837908276E+02  0.47421350460E+02 -0.80537185426E+02  0.15720214144E+03  0.12499049472E+03 0.  0.
         23    2    1    2    0    0  0.18837908276E+02 -0.47421350460E+02 -0.74588463544E+02  0.12698891375E+03  0.89213754846E+02 0.  0.
          5    1    3    3  502    0  0.36411989480E+01  0.53561891457E+01 -0.10367500233E+03  0.10398337944E+03  0.47000000000E+01 0.  1.
         -5    1    3    3    0  502 -0.22479107224E+02  0.42065161314E+02  0.23137816904E+02  0.53218762003E+02  0.47000000000E+01 0.  1.
        -11    1    4    4    0    0  0.24981072092E+02 -0.36192010126E+01  0.13349029075E+02  0.28554319394E+02  0.00000000000E+00 0. -1.
         11    1    4    4    0    0 -0.61431638159E+01 -0.43802149447E+02 -0.87937492618E+02  0.98434594355E+02  0.00000000000E+00 0.  1.
<mgrwt>
<rscale>  0 0.12610544E+03</rscale>
<asrwt>0</asrwt>
<pdfrwt beam="1">  1        1 0.99281080E-02 0.13500472E+03</pdfrwt>
<pdfrwt beam="2">  1       -1 0.33793593E-01 0.13500472E+03</pdfrwt>
<totfact> 0.51343140E+03</totfact>
</mgrwt>
</event>
<event>
 8    1  0.1020295E-005  0.1610782E+03  0.7546771E-02  0.1196858E+00
          1   -1    0    0  501    0  0.00000000000E+00  0.00000000000E+00  0.80655207165E+03  0.80655207165E+03  0.00000000000E+00 0. -1.
         -1   -1    0    0    0  501 -0.00000000000E+00 -0.00000000000E+00 -0.26502389804E+02  0.26502389804E+02  0.00000000000E+00 0.  1.
         23    2    1    2    0    0  0.60722147962E+02 -0.81449074107E+02  0.44819156474E+03  0.47625818306E+03  0.12500018921E+03 0.  0.
         23    2    1    2    0    0 -0.60722147962E+02  0.81449074107E+02  0.33185811711E+03  0.35679627840E+03  0.82780694974E+02 0.  0.
          5    1    3    3  502    0 -0.27696568124E+01  0.93453593424E+01 -0.33275233869E+01  0.11321181563E+02  0.47000000000E+01 0.  1.
         -5    1    3    3    0  502  0.63491804775E+02 -0.90794433449E+02  0.45151908813E+03  0.46493700150E+03  0.47000000000E+01 0.  1.
        -11    1    4    4    0    0 -0.12240109954E+02  0.81610256458E+02  0.20458314872E+03  0.22059990705E+03  0.00000000000E+00 0.  1.
         11    1    4    4    0    0 -0.48482038008E+02 -0.16118235105E+00  0.12727496839E+03  0.13619637134E+03  0.00000000000E+00 0. -1.
<mgrwt>
<rscale>  0 0.15298038E+03</rscale>
<asrwt>0</asrwt>
<pdfrwt beam="1">  1        1 0.12408492E+00 0.16107817E+03</pdfrwt>
<pdfrwt beam="2">  1       -1 0.40772914E-02 0.16107817E+03</pdfrwt>
<totfact> 0.53200268E+03</totfact>
</mgrwt>
</event>
<event>
 7    1  0.1020295E-005  0.2591774E+03  0.7546771E-02  0.1107638E+00
         -1   -1    0    0    0  501 -0.00000000000E+00  0.00000000000E+00  0.23184212594E+02  0.23184212594E+02  0.00000000000E+00 0.  1.
          1   -1    0    0  501    0  0.00000000000E+00 -0.00000000000E+00 -0.72433903298E+03  0.72433903298E+03  0.00000000000E+00 0. -1.
         23    2    1    2    0    0  0.20692258209E+02 -0.15845810351E+02 -0.42488483427E+03  0.43536319794E+03  0.91294755973E+02 0.  0.
          5    1    1    2  502    0  0.38220068284E+02 -0.25013883595E+02 -0.20814009641E+03  0.21314515647E+03  0.47000000000E+01 0. -1.
         -5    1    1    2    0  502 -0.58912326492E+02  0.40859693945E+02 -0.68129889702E+02  0.99014891167E+02  0.47000000000E+01 0.  1.
        -11    1    3    3    0    0 -0.16681546856E+02 -0.44573240551E+02 -0.19896036218E+03  0.20457339392E+03  0.00000000000E+00 0.  1.
         11    1    3    3    0    0  0.37373805065E+02  0.28727430200E+02 -0.22592447209E+03  0.23078980402E+03  0.00000000000E+00 0. -1.
<mgrwt>
<rscale>  0 0.25917739E+03</rscale>
<asrwt>0</asrwt>
<pdfrwt beam="2">  1        1 0.11143679E+00 0.25917739E+03</pdfrwt>
<pdfrwt beam="1">  1       -1 0.35668013E-02 0.25917739E+03</pdfrwt>
<totfact> 0.77786030E+03</totfact>
</mgrwt>
</event>
<event>
 8    1  0.1020295E-005  0.1583956E+03  0.7546771E-02  0.1198235E+00
         -1   -1    0    0    0  501 -0.00000000000E+00  0.00000000000E+00  0.10090984798E+03  0.10090984798E+03  0.00000000000E+00 0.  1.
          1   -1    0    0  501    0  0.00000000000E+00 -0.00000000000E+00 -0.24674623766E+03  0.24674623766E+03  0.00000000000E+00 0. -1.
         23    2    1    2    0    0  0.63996363132E+02 -0.73262123237E+02 -0.12634664637E+02  0.15889868742E+03  0.12500513957E+03 0.  0.
         23    2    1    2    0    0 -0.63996363132E+02  0.73262123237E+02 -0.13320172505E+03  0.18875739822E+03  0.91781167089E+02 0.  0.
          5    1    3    3  502    0 -0.14747034822E+02  0.17012919689E+02 -0.29958629650E+02  0.37769352164E+02  0.47000000000E+01 0. -1.
         -5    1    3    3    0  502  0.78743397954E+02 -0.90275042926E+02  0.17323965013E+02  0.12112933526E+03  0.47000000000E+01 0. -1.
        -11    1    4    4    0    0 -0.79472308605E+02  0.77076424636E+02 -0.89894413822E+02  0.14261005822E+03  0.00000000000E+00 0.  1.
         11    1    4    4    0    0  0.15475945473E+02 -0.38143013994E+01 -0.43307311223E+02  0.46147339997E+02  0.00000000000E+00 0. -1.
<mgrwt>
<rscale>  0 0.15183554E+03</rscale>
<asrwt>0</asrwt>
<pdfrwt beam="2">  1        1 0.37960959E-01 0.15839557E+03</pdfrwt>
<pdfrwt beam="1">  1       -1 0.15524592E-01 0.15839557E+03</pdfrwt>
<totfact> 0.33240026E+03</totfact>
</mgrwt>
</event>
<event>
 8    1  0.1020295E-005  0.1281341E+03  0.7546771E-02  0.1244521E+00
          1   -1    0    0  501    0  0.00000000000E+00  0.00000000000E+00  0.13664441048E+03  0.13664441048E+03  0.00000000000E+00 0. -1.
         -1   -1    0    0    0  501 -0.00000000000E+00 -0.00000000000E+00 -0.95864778127E+02  0.95864778127E+02  0.00000000000E+00 0.  1.
         23    2    1    2    0    0 -0.26422430851E+02 -0.97332819756E+01 -0.70487516241E+00  0.12813607550E+03  0.12500190145E+03 0.  0.
         23    2    1    2    0    0  0.26422430851E+02  0.97332819756E+01  0.41484507513E+02  0.10437311310E+03  0.91541797802E+02 0.  0.
          5    1    3    3  502    0 -0.68058007550E+02 -0.21227223882E+02  0.27255804919E+02  0.76468662387E+02  0.47000000000E+01 0. -1.
         -5    1    3    3    0  502  0.41635576699E+02  0.11493941906E+02 -0.27960680082E+02  0.51667413117E+02  0.47000000000E+01 0. -1.
        -11    1    4    4    0    0  0.37971542159E+02  0.34905999744E+02  0.53383275469E+02  0.74229649951E+02  0.00000000000E+00 0. -1.
         11    1    4    4    0    0 -0.11549111308E+02 -0.25172717768E+02 -0.11898767956E+02  0.30143463150E+02  0.00000000000E+00 0.  1.
<mgrwt>
<rscale>  0 0.11914101E+03</rscale>
<asrwt>0</asrwt>
<pdfrwt beam="1">  1        1 0.21022217E-01 0.12813414E+03</pdfrwt>
<pdfrwt beam="2">  1       -1 0.14748427E-01 0.12813414E+03</pdfrwt>
<totfact> 0.74497253E+03</totfact>
</mgrwt>
</event>
<event>
 8    1  0.1020295E-005  0.2380234E+03  0.7546771E-02  0.1122063E+00
          2   -1    0    0  501    0  0.00000000000E+00  0.00000000000E+00  0.79263559832E+03  0.79263559832E+03  0.00000000000E+00 0. -1.
         -2   -1    0    0    0  501 -0.00000000000E+00 -0.00000000000E+00 -0.87042909443E+02  0.87042909443E+02  0.00000000000E+00 0.  1.
         23    2    1    2    0    0 -0.20200029744E+03 -0.15018945877E+02  0.16049136658E+03  0.28707598332E+03  0.12500181019E+03 0.  0.
         23    2    1    2    0    0  0.20200029744E+03  0.15018945877E+02  0.54510132230E+03  0.59260252445E+03  0.11407283420E+03 0.  0.
          5    1    3    3  502    0 -0.13730110695E+03 -0.19269027431E+02  0.17208766834E+03  0.22104104819E+03  0.47000000000E+01 0. -1.
         -5    1    3    3    0  502 -0.64699190491E+02  0.42500815532E+01 -0.11596301764E+02  0.66034935133E+02  0.47000000000E+01 0. -1.
        -11    1    4    4    0    0  0.17794388561E+03 -0.28869399005E+02  0.45712046495E+03  0.49138232376E+03  0.00000000000E+00 0.  1.
         11    1    4    4    0    0  0.24056411829E+02  0.43888344883E+02  0.87980857349E+02  0.10122020068E+03  0.00000000000E+00 0. -1.
<mgrwt>
<rscale>  0 0.23662274E+03</rscale>
<asrwt>0</asrwt>
<pdfrwt beam="1">  1        2 0.12194393E+00 0.23802341E+03</pdfrwt>
<pdfrwt beam="2">  1       -2 0.13391217E-01 0.23802341E+03</pdfrwt>
<totfact> 0.14822405E+03</totfact>
</mgrwt>
</event>
<event>
 8    1  0.1020295E-005  0.1274574E+03  0.7546771E-02  0.1246246E+00
         -1   -1    0    0    0  501 -0.00000000000E+00  0.00000000000E+00  0.73727891915E+02  0.73727891915E+02  0.00000000000E+00 0.  1.
          1   -1    0    0  501    0  0.00000000000E+00 -0.00000000000E+00 -0.17003619339E+03  0.17003619339E+03  0.00000000000E+00 0. -1.
         23    2    1    2    0    0  0.19732689549E+02 -0.15161233999E+02 -0.37357407882E+02  0.13281928427E+03  0.12500457710E+03 0.  0.
         23    2    1    2    0    0 -0.19732689549E+02  0.15161233999E+02 -0.58950893590E+02  0.11094480103E+03  0.90632769837E+02 0.  0.
          5    1    3    3  502    0  0.48031304882E+01 -0.36729565699E+02 -0.76696949851E+02  0.85303242467E+02  0.47000000000E+01 0. -1.
         -5    1    3    3    0  502  0.14929559060E+02  0.21568331700E+02  0.39339541969E+02  0.47516041801E+02  0.47000000000E+01 0. -1.
        -11    1    4    4    0    0 -0.32778235783E+02 -0.16951233681E+02  0.59399697534E+01  0.37377002355E+02  0.00000000000E+00 0.  1.
         11    1    4    4    0    0  0.13045546235E+02  0.32112467681E+02 -0.64890863343E+02  0.73567798679E+02  0.00000000000E+00 0. -1.
<mgrwt>
<rscale>  0 0.11811107E+03</rscale>
<asrwt>0</asrwt>
<pdfrwt beam="2">  1        1 0.26159414E-01 0.12745739E+03</pdfrwt>
<pdfrwt beam="1">  1       -1 0.11342753E-01 0.12745739E+03</pdfrwt>
<totfact> 0.84945786E+03</totfact>
</mgrwt>
</event>
<event>
 7    1  0.1020295E-005  0.4404039E+03  0.7546771E-02  0.1041453E+00
         -3   -1    0    0    0  501 -0.00000000000E+00  0.00000000000E+00  0.75973237790E+03  0.75973237790E+03  0.00000000000E+00 0.  1.
          3   -1    0    0  501    0  0.00000000000E+00 -0.00000000000E+00 -0.50831957127E+03  0.50831957127E+03  0.00000000000E+00 0. -1.
         23    2    1    2    0    0 -0.26079798359E+03 -0.16289800069E+03 -0.38066900766E+03  0.49767343821E+03  0.90656554261E+02 0.  0.
          5    1    1    2  502    0 -0.24220163387E+02  0.60512737536E+01 -0.25944123271E+02  0.36310077951E+02  0.47000000000E+01 0. -1.
         -5    1    1    2    0  502  0.28501814698E+03  0.15684672693E+03  0.65802593756E+03  0.73406843302E+03  0.47000000000E+01 0.  1.
        -11    1    3    3    0    0 -0.96528804137E+01  0.82864458885E+01 -0.35762100340E+02  0.37957490782E+02  0.00000000000E+00 0.  1.
         11    1    3    3    0    0 -0.25114510318E+03 -0.17118444658E+03 -0.34490690732E+03  0.45971594742E+03  0.00000000000E+00 0. -1.
<mgrwt>
<rscale>  0 0.40679131E+03</rscale>
<asrwt>0</asrwt>
<pdfrwt beam="2">  1        3 0.78203011E-01 0.44040394E+03</pdfrwt>
<pdfrwt beam="1">  1       -3 0.11688190E+00 0.44040394E+03</pdfrwt>
<totfact> 0.24167732E+00</totfact>
</mgrwt>
</event>
<event>
 8    1  0.1020295E-005  0.1692440E+03  0.7546771E-02  0.1185100E+00
          2   -1    0    0  501    0  0.00000000000E+00  0.00000000000E+00  0.27405545339E+03  0.27405545339E+03  0.00000000000E+00 0. -1.
         -2   -1    0    0    0  501 -0.00000000000E+00 -0.00000000000E+00 -0.93718267455E+02  0.93718267455E+02  0.00000000000E+00 0.  1.
         23    2    1    2    0    0  0.11382256990E+03  0.78097242704E+01  0.64709677397E+02  0.18119292470E+03  0.12500785736E+03 0.  0.
         23    2    1    2    0    0 -0.11382256990E+03 -0.78097242704E+01  0.11562750854E+03  0.18658079615E+03  0.91793809969E+02 0.  0.
          5    1    3    3  502    0  0.57002937563E+02 -0.56779603064E+02  0.15810300379E+02  0.82129859448E+02  0.47000000000E+01 0.  1.
         -5    1    3    3    0  502  0.56819632335E+02  0.64589327334E+02  0.48899377018E+02  0.99063065251E+02  0.47000000000E+01 0.  1.
        -11    1    4    4    0    0 -0.25398472027E+02 -0.13862824108E+01 -0.14381188324E+02  0.29220245342E+02  0.00000000000E+00 0.  1.
         11    1    4    4    0    0 -0.88424097871E+02 -0.64234418596E+01  0.13000869686E+03  0.15736055081E+03  0.00000000000E+00 0. -1.
<mgrwt>
<rscale>  0 0.16322807E+03</rscale>
<asrwt>0</asrwt>
<pdfrwt beam="1">  1        2 0.42162377E-01 0.16924401E+03</pdfrwt>
<pdfrwt beam="2">  1       -2 0.14418195E-01 0.16924401E+03</pdfrwt>
<totfact> 0.42896368E+03</totfact>
</mgrwt>
</event>
<event>
 8    1  0.1020295E-005  0.1595774E+03  0.7546771E-02  0.1196950E+00
         -2   -1    0    0    0  501 -0.00000000000E+00  0.00000000000E+00  0.75354281826E+02  0.75354281826E+02  0.00000000000E+00 0.  1.
          2   -1    0    0  501    0  0.00000000000E+00 -0.00000000000E+00 -0.34024975661E+03  0.34024975661E+03  0.00000000000E+00 0. -1.
         23    2    1    2    0    0  0.39769148210E+02  0.90874028223E+02 -0.59965064041E+02  0.17047212143E+03  0.12500104449E+03 0.  0.
         23    2    1    2    0    0 -0.39769148210E+02 -0.90874028223E+02 -0.20493041075E+03  0.24513191701E+03  0.90848826813E+02 0.  0.
          5    1    3    3  502    0 -0.35005844191E+02  0.62352248444E+02 -0.54662156643E+02  0.90129092874E+02  0.47000000000E+01 0.  1.
         -5    1    3    3    0  502  0.74774992402E+02  0.28521779780E+02 -0.53029073988E+01  0.80343028555E+02  0.47000000000E+01 0.  1.
        -11    1    4    4    0    0 -0.15229489237E+02 -0.10231604716E+03 -0.18330970577E+03  0.21048268118E+03  0.00000000000E+00 0. -1.
         11    1    4    4    0    0 -0.24539658973E+02  0.11442018933E+02 -0.21620704979E+02  0.34649235830E+02  0.00000000000E+00 0.  1.
<mgrwt>
<rscale>  0 0.15290365E+03</rscale>
<asrwt>0</asrwt>
<pdfrwt beam="2">  1        2 0.52346117E-01 0.15957736E+03</pdfrwt>
<pdfrwt beam="1">  1       -2 0.11592966E-01 0.15957736E+03</pdfrwt>
<totfact> 0.48304988E+03</totfact>
</mgrwt>
</event>
<event>
 8    1  0.1020295E-005  0.1270715E+03  0.7546771E-02  0.1247627E+00
         -1   -1    0    0    0  501 -0.00000000000E+00  0.00000000000E+00  0.14476643940E+03  0.14476643940E+03  0.00000000000E+00 0.  1.
          1   -1    0    0  501    0  0.00000000000E+00 -0.00000000000E+00 -0.83199928268E+02  0.83199928268E+02  0.00000000000E+00 0. -1.
         23    2    1    2    0    0  0.22475563830E+02 -0.42168489479E+01  0.31210936467E+02  0.13084835431E+03  0.12499694591E+03 0.  0.
         23    2    1    2    0    0 -0.22475563830E+02  0.42168489479E+01  0.30355574668E+02  0.97118013358E+02  0.89372897573E+02 0.  0.
          5    1    3    3  502    0 -0.48715445365E+02 -0.23615452706E+01 -0.76373687647E+01  0.49590230034E+02  0.47000000000E+01 0. -1.
         -5    1    3    3    0  502  0.71191009195E+02 -0.18553036773E+01  0.38848305232E+02  0.81258124279E+02  0.47000000000E+01 0. -1.
        -11    1    4    4    0    0 -0.80432803071E+01 -0.17562680264E+02  0.56769010922E+02  0.59965512566E+02  0.00000000000E+00 0.  1.
         11    1    4    4    0    0 -0.14432283523E+02  0.21779529212E+02 -0.26413436254E+02  0.37152500792E+02  0.00000000000E+00 0. -1.
<mgrwt>
<rscale>  0 0.11729519E+03</rscale>
<asrwt>0</asrwt>
<pdfrwt beam="2">  1        1 0.12799989E-01 0.12707151E+03</pdfrwt>
<pdfrwt beam="1">  1       -1 0.22271760E-01 0.12707151E+03</pdfrwt>
<totfact> 0.73138957E+03</totfact>
</mgrwt>
</event>
<event>
 8    1  0.1020295E-005  0.1839920E+03  0.7546771E-02  0.1169216E+00
          1   -1    0    0  501    0  0.00000000000E+00  0.00000000000E+00  0.76728789297E+02  0.76728789297E+02  0.00000000000E+00 0. -1.
         -1   -1    0    0    0  501 -0.00000000000E+00 -0.00000000000E+00 -0.39315843889E+03  0.39315843889E+03  0.00000000000E+00 0.  1.
         23    2    1    2    0    0 -0.12802968295E+03  0.42842640787E+02 -0.15941981658E+03  0.24344965992E+03  0.12500386958E+03 0.  0.
         23    2    1    2    0    0  0.12802968295E+03 -0.42842640787E+02 -0.15700983302E+03  0.22643756827E+03  0.91623103382E+02 0.  0.
          5    1    3    3  502    0  0.13826780799E+02  0.28903012151E+02 -0.41926133041E+01  0.32653207882E+02  0.47000000000E+01 0. -1.
         -5    1    3    3    0  502 -0.14185646375E+03  0.13939628636E+02 -0.15522720328E+03  0.21079645204E+03  0.47000000000E+01 0. -1.
        -11    1    4    4    0    0  0.49251008637E+02  0.50885436369E+01 -0.11479894667E+03  0.12502141130E+03  0.00000000000E+00 0.  1.
         11    1    4    4    0    0  0.78778674318E+02 -0.47931184424E+02 -0.42210886346E+02  0.10141615697E+03  0.00000000000E+00 0. -1.
<mgrwt>
<rscale>  0 0.17854762E+03</rscale>
<asrwt>0</asrwt>
<pdfrwt beam="1">  1        1 0.11804429E-01 0.18399201E+03</pdfrwt>
<pdfrwt beam="2">  1       -1 0.60485915E-01 0.18399201E+03</pdfrwt>
<totfact> 0.14507259E+03</totfact>
</mgrwt>
</event>
<event>
 8    1  0.1020295E-005  0.2066569E+03  0.7546771E-02  0.1147960E+00
          1   -1    0    0  501    0  0.00000000000E+00  0.00000000000E+00  0.55371204279E+03  0.55371204279E+03  0.00000000000E+00 0. -1.
         -1   -1    0    0    0  501 -0.00000000000E+00 -0.00000000000E+00 -0.72862032775E+02  0.72862032775E+02  0.00000000000E+00 0.  1.
         23    2    1    2    0    0  0.15503023049E+03  0.55228487937E+02  0.19709658406E+03  0.28557686519E+03  0.12499009656E+03 0.  0.
         23    2    1    2    0    0 -0.15503023049E+03 -0.55228487937E+02  0.28375342596E+03  0.34099721038E+03  0.93158641568E+02 0.  0.
          5    1    3    3  502    0 -0.21498819882E+02  0.57969198600E+01  0.15775468472E+02  0.27690412450E+02  0.47000000000E+01 0. -1.
         -5    1    3    3    0  502  0.17652905037E+03  0.49431568077E+02  0.18132111559E+03  0.25788645274E+03  0.47000000000E+01 0. -1.
        -11    1    4    4    0    0 -0.96070011112E+02 -0.63526462252E+02  0.11807536500E+03  0.16494499162E+03  0.00000000000E+00 0.  1.
         11    1    4    4    0    0 -0.58960219377E+02  0.82979743150E+01  0.16567806096E+03  0.17605221876E+03  0.00000000000E+00 0. -1.
<mgrwt>
<rscale>  0 0.20212352E+03</rscale>
<asrwt>0</asrwt>
<pdfrwt beam="1">  1        1 0.85186466E-01 0.20665692E+03</pdfrwt>
<pdfrwt beam="2">  1       -1 0.11209544E-01 0.20665692E+03</pdfrwt>
<totfact> 0.19915380E+03</totfact>
</mgrwt>
</event>
<event>
 8    1  0.1020295E-005  0.2145010E+03  0.7546771E-02  0.1141725E+00
         -1   -1    0    0    0  501 -0.00000000000E+00  0.00000000000E+00  0.10002851503E+03  0.10002851503E+03  0.00000000000E+00 0.  1.
          1   -1    0    0  501    0  0.00000000000E+00 -0.00000000000E+00 -0.49719176976E+03  0.49719176976E+03  0.00000000000E+00 0. -1.
         23    2    1    2    0    0 -0.17402433989E+03 -0.10049397024E+02 -0.89848255379E+02  0.23255834317E+03  0.12500085091E+03 0.  0.
         23    2    1    2    0    0  0.17402433989E+03  0.10049397024E+02 -0.30731499935E+03  0.36466194162E+03  0.90279353037E+02 0.  0.
          5    1    3    3  502    0 -0.42310194887E+02 -0.58455618081E+02 -0.16601977211E+02  0.74195198794E+02  0.47000000000E+01 0. -1.
         -5    1    3    3    0  502 -0.13171414500E+03  0.48406221057E+02 -0.73246278168E+02  0.15836314438E+03  0.47000000000E+01 0. -1.
        -11    1    4    4    0    0  0.62234679034E+02  0.43113277723E+02 -0.86420936471E+02  0.11489337775E+03  0.00000000000E+00 0.  1.
         11    1    4    4    0    0  0.11178966086E+03 -0.33063880699E+02 -0.22089406288E+03  0.24976856387E+03  0.00000000000E+00 0. -1.
<mgrwt>
<rscale>  0 0.20979979E+03</rscale>
<asrwt>0</asrwt>
<pdfrwt beam="2">  1        1 0.76491042E-01 0.21450099E+03</pdfrwt>
<pdfrwt beam="1">  1       -1 0.15389002E-01 0.21450099E+03</pdfrwt>
<totfact> 0.13996760E+03</totfact>
</mgrwt>
</event>
<event>
 8    1  0.1020295E-005  0.1759136E+03  0.7546771E-02  0.1178038E+00
          1   -1    0    0  501    0  0.00000000000E+00  0.00000000000E+00  0.39502099950E+03  0.39502099950E+03  0.00000000000E+00 0. -1.
         -1   -1    0    0    0  501 -0.00000000000E+00 -0.00000000000E+00 -0.12358996391E+03  0.12358996391E+03  0.00000000000E+00 0.  1.
         23    2    1    2    0    0 -0.68145645051E+02 -0.10322301180E+03 -0.32085186455E+02  0.17881574617E+03  0.12508714076E+03 0.  0.
         23    2    1    2    0    0  0.68145645051E+02  0.10322301180E+03  0.30351622204E+03  0.33979521724E+03  0.89665341775E+02 0.  0.
          5    1    3    3  502    0 -0.48089500943E+02  0.54296004374E+01  0.24660070296E+02  0.54518709897E+02  0.47000000000E+01 0. -1.
         -5    1    3    3    0  502 -0.20056144107E+02 -0.10865261224E+03 -0.56745256751E+02  0.12429703627E+03  0.47000000000E+01 0. -1.
        -11    1    4    4    0    0  0.15221021225E+02  0.85001724891E+02  0.24037745429E+03  0.25541787967E+03  0.00000000000E+00 0. -1.
         11    1    4    4    0    0  0.52924623825E+02  0.18221286908E+02  0.63138767744E+02  0.84377337573E+02  0.00000000000E+00 0.  1.
<mgrwt>
<rscale>  0 0.16981819E+03</rscale>
<asrwt>0</asrwt>
<pdfrwt beam="1">  1        1 0.60772461E-01 0.17591365E+03</pdfrwt>
<pdfrwt beam="2">  1       -1 0.19013841E-01 0.17591365E+03</pdfrwt>
<totfact> 0.13405278E+03</totfact>
</mgrwt>
</event>
<event>
 8    1  0.1020295E-005  0.1515308E+03  0.7546771E-02  0.1209422E+00
         -2   -1    0    0    0  501 -0.00000000000E+00  0.00000000000E+00  0.19092518230E+03  0.19092518230E+03  0.00000000000E+00 0.  1.
          2   -1    0    0  501    0  0.00000000000E+00 -0.00000000000E+00 -0.11067802634E+03  0.11067802634E+03  0.00000000000E+00 0. -1.
         23    2    1    2    0    0  0.11169942174E+02 -0.84577757836E+02  0.97772464894E+02  0.18033592409E+03  0.12523348553E+03 0.  0.
         23    2    1    2    0    0 -0.11169942174E+02  0.84577757836E+02 -0.17525308939E+02  0.12126728455E+03  0.84382777389E+02 0.  0.
          5    1    3    3  502    0  0.46205484261E+02 -0.56546200027E+02  0.11133276631E+03  0.13322722832E+03  0.47000000000E+01 0.  1.
         -5    1    3    3    0  502 -0.35035542087E+02 -0.28031557809E+02 -0.13560301414E+02  0.47108695769E+02  0.47000000000E+01 0.  1.
        -11    1    4    4    0    0 -0.46212911040E+02  0.64973665864E+02 -0.92189526723E+01  0.80263313481E+02  0.00000000000E+00 0.  1.
         11    1    4    4    0    0  0.35042968866E+02  0.19604091972E+02 -0.83063562662E+01  0.41003971068E+02  0.00000000000E+00 0. -1.
<mgrwt>
<rscale>  0 0.14294397E+03</rscale>
<asrwt>0</asrwt>
<pdfrwt beam="2">  1        2 0.17027389E-01 0.15153082E+03</pdfrwt>
<pdfrwt beam="1">  1       -2 0.29373105E-01 0.15153082E+03</pdfrwt>
<totfact> 0.34423297E+03</totfact>
</mgrwt>
</event>
<event>
 8    1  0.1020295E-005  0.1370327E+03  0.7546771E-02  0.1229819E+00
          1   -1    0    0  501    0  0.00000000000E+00  0.00000000000E+00  0.46700612798E+02  0.46700612798E+02  0.00000000000E+00 0. -1.
         -1   -1    0    0    0  501 -0.00000000000E+00 -0.00000000000E+00 -0.36829998149E+03  0.36829998149E+03  0.00000000000E+00 0.  1.
         23    2    1    2    0    0  0.21313553470E+02  0.51949987731E+02 -0.25665416103E+03  0.29094557615E+03  0.12499960449E+03 0.  0.
         23    2    1    2    0    0 -0.21313553470E+02 -0.51949987731E+02 -0.64945207665E+02  0.12405501814E+03  0.89547187226E+02 0.  0.
          5    1    3    3  502    0  0.30892802498E+02  0.86872356870E+02 -0.22271967425E+03  0.24109606992E+03  0.47000000000E+01 0. -1.
         -5    1    3    3    0  502 -0.95792490286E+01 -0.34922369139E+02 -0.33934486780E+02  0.49849506229E+02  0.47000000000E+01 0. -1.
        -11    1    4    4    0    0  0.33663344177E+02 -0.31370476729E+02 -0.20245785006E+02  0.50271456731E+02  0.00000000000E+00 0. -1.
         11    1    4    4    0    0 -0.54976897647E+02 -0.20579511002E+02 -0.44699422659E+02  0.73783561408E+02  0.00000000000E+00 0.  1.
<mgrwt>
<rscale>  0 0.12842024E+03</rscale>
<asrwt>0</asrwt>
<pdfrwt beam="1">  1        1 0.71847098E-02 0.13703273E+03</pdfrwt>
<pdfrwt beam="2">  1       -1 0.56661535E-01 0.13703273E+03</pdfrwt>
<totfact> 0.31505040E+03</totfact>
</mgrwt>
</event>
<event>
 8    1  0.1020295E-005  0.1258209E+03  0.7546771E-02  0.1247141E+00
          2   -1    0    0  501    0  0.00000000000E+00  0.00000000000E+00  0.10741589018E+03  0.10741589018E+03  0.00000000000E+00 0.  1.
         -2   -1    0    0    0  501 -0.00000000000E+00 -0.00000000000E+00 -0.11545210580E+03  0.11545210580E+03  0.00000000000E+00 0. -1.
         23    2    1    2    0    0  0.11836355926E+02 -0.80650426816E+01 -0.14689283433E+02  0.12667542834E+03  0.12500297941E+03 0.  0.
         23    2    1    2    0    0 -0.11836355926E+02  0.80650426816E+01  0.66530678159E+01  0.96192567646E+02  0.94887314874E+02 0.  0.
          5    1    3    3  502    0  0.70496980144E+01  0.10178346450E+02 -0.68340384022E+02  0.69611745179E+02  0.47000000000E+01 0. -1.
         -5    1    3    3    0  502  0.47866579114E+01 -0.18243389131E+02  0.53651100589E+02  0.57063683156E+02  0.47000000000E+01 0. -1.
        -11    1    4    4    0    0 -0.29048270095E+02  0.11217169684E+02  0.44606255123E+02  0.54399861096E+02  0.00000000000E+00 0.  1.
         11    1    4    4    0    0  0.17211914169E+02 -0.31521270027E+01 -0.37953187307E+02  0.41792706550E+02  0.00000000000E+00 0. -1.
<mgrwt>
<rscale>  0 0.11758165E+03</rscale>
<asrwt>0</asrwt>
<pdfrwt beam="1">  1        2 0.16525522E-01 0.12582086E+03</pdfrwt>
<pdfrwt beam="2">  1       -2 0.17761862E-01 0.12582086E+03</pdfrwt>
<totfact> 0.83847573E+03</totfact>
</mgrwt>
</event>
<event>
 8    1  0.1020295E-005  0.1883640E+03  0.7546771E-02  0.1164851E+00
         -2   -1    0    0    0  501 -0.00000000000E+00  0.00000000000E+00  0.12738511690E+03  0.12738511690E+03  0.00000000000E+00 0.  1.
          2   -1    0    0  501    0  0.00000000000E+00 -0.00000000000E+00 -0.38371398546E+03  0.38371398546E+03  0.00000000000E+00 0. -1.
         23    2    1    2    0    0  0.13638613184E+03  0.35418834939E+02  0.18139935409E+02  0.18923539675E+03  0.12500122920E+03 0.  0.
         23    2    1    2    0    0 -0.13638613184E+03 -0.35418834939E+02 -0.27446880397E+03  0.32186370561E+03  0.91692146952E+02 0.  0.
          5    1    3    3  502    0  0.11133769865E+03  0.74306832437E+02  0.37163183855E+02  0.13899921123E+03  0.47000000000E+01 0.  1.
         -5    1    3    3    0  502  0.25048433191E+02 -0.38887997498E+02 -0.19023248446E+02  0.50236185526E+02  0.47000000000E+01 0.  1.
        -11    1    4    4    0    0 -0.19900618012E+01 -0.21101059733E+02 -0.94198723566E+02  0.96553687601E+02  0.00000000000E+00 0. -1.
         11    1    4    4    0    0 -0.13439607004E+03 -0.14317775206E+02 -0.18027008040E+03  0.22531001801E+03  0.00000000000E+00 0.  1.
<mgrwt>
<rscale>  0 0.18308420E+03</rscale>
<asrwt>0</asrwt>
<pdfrwt beam="2">  1        2 0.59032921E-01 0.18836395E+03</pdfrwt>
<pdfrwt beam="1">  1       -2 0.19597710E-01 0.18836395E+03</pdfrwt>
<totfact> 0.18011891E+03</totfact>
</mgrwt>
</event>
<event>
 8    1  0.1020295E-005  0.1251050E+03  0.7546771E-02  0.1250835E+00
          1   -1    0    0  501    0  0.00000000000E+00  0.00000000000E+00  0.10696571162E+03  0.10696571162E+03  0.00000000000E+00 0. -1.
         -1   -1    0    0    0  501 -0.00000000000E+00 -0.00000000000E+00 -0.12564231323E+03  0.12564231323E+03  0.00000000000E+00 0.  1.
         23    2    1    2    0    0  0.16450960313E+01 -0.48459591993E+01 -0.52727626703E+02  0.13576251104E+03  0.12500026850E+03 0.  0.
         23    2    1    2    0    0 -0.16450960313E+01  0.48459591993E+01  0.34051025092E+02  0.96845513810E+02  0.90517355097E+02 0.  0.
          5    1    3    3  502    0  0.60409872608E+02 -0.17383115920E+02 -0.15475300026E+02  0.64908399599E+02  0.47000000000E+01 0. -1.
         -5    1    3    3    0  502 -0.58764776577E+02  0.12537156721E+02 -0.37252326677E+02  0.70854111438E+02  0.47000000000E+01 0. -1.
        -11    1    4    4    0    0 -0.19255078122E+02 -0.10670864210E+02 -0.24994015448E+02  0.33306548676E+02  0.00000000000E+00 0.  1.
         11    1    4    4    0    0  0.17609982091E+02  0.15516823409E+02  0.59045040540E+02  0.63538965135E+02  0.00000000000E+00 0. -1.
<mgrwt>
<rscale>  0 0.11542826E+03</rscale>
<asrwt>0</asrwt>
<pdfrwt beam="1">  1        1 0.16456263E-01 0.12510498E+03</pdfrwt>
<pdfrwt beam="2">  1       -1 0.19329587E-01 0.12510498E+03</pdfrwt>
<totfact> 0.66279373E+03</totfact>
</mgrwt>
</event>
<event>
 8    1  0.1020295E-005  0.1493141E+03  0.7546771E-02  0.1210761E+00
          2   -1    0    0  501    0  0.00000000000E+00  0.00000000000E+00  0.50015910168E+03  0.50015910168E+03  0.00000000000E+00 0. -1.
         -2   -1    0    0    0  501 -0.00000000000E+00 -0.00000000000E+00 -0.40377754666E+02  0.40377754666E+02  0.00000000000E+00 0.  1.
         23    2    1    2    0    0 -0.78246262321E+02 -0.23372574972E+02  0.17056260592E+03  0.22668548911E+03  0.12500381438E+03 0.  0.
         23    2    1    2    0    0  0.78246262321E+02  0.23372574972E+02  0.28921874109E+03  0.31385136723E+03  0.90478979231E+02 0.  0.
          5    1    3    3  502    0 -0.10715499088E+03 -0.67438447904E+01  0.15725908726E+03  0.19047357307E+03  0.47000000000E+01 0. -1.
         -5    1    3    3    0  502  0.28908728564E+02 -0.16628730182E+02  0.13303518657E+02  0.36211916040E+02  0.47000000000E+01 0. -1.
        -11    1    4    4    0    0 -0.25161744271E+01 -0.25874458591E+02  0.82923917740E+02  0.86903365151E+02  0.00000000000E+00 0. -1.
         11    1    4    4    0    0  0.80762436748E+02  0.49247033563E+02  0.20629482335E+03  0.22694800208E+03  0.00000000000E+00 0.  1.
<mgrwt>
<rscale>  0 0.14192552E+03</rscale>
<asrwt>0</asrwt>
<pdfrwt beam="1">  1        2 0.76947550E-01 0.14931413E+03</pdfrwt>
<pdfrwt beam="2">  1       -2 0.62119626E-02 0.14931413E+03</pdfrwt>
<totfact> 0.83890800E+03</totfact>
</mgrwt>
</event>
<event>
 8    1  0.1020295E-005  0.1434066E+03  0.7546771E-02  0.1218730E+00
          4   -1    0    0  501    0  0.00000000000E+00  0.00000000000E+00  0.17061568572E+03  0.17061568572E+03  0.00000000000E+00 0. -1.
         -4   -1    0    0    0  501 -0.00000000000E+00 -0.00000000000E+00 -0.11440097032E+03  0.11440097032E+03  0.00000000000E+00 0.  1.
         23    2    1    2    0    0  0.68510234195E+02 -0.15713927575E+02 -0.21799509101E+02  0.14505407835E+03  0.12499954936E+03 0.  0.
         23    2    1    2    0    0 -0.68510234195E+02  0.15713927575E+02  0.78014224496E+02  0.13996257769E+03  0.92534989167E+02 0.  0.
          5    1    3    3  502    0  0.94724034339E+02 -0.33893466666E+02 -0.39601787030E+02  0.10822107604E+03  0.47000000000E+01 0.  1.
         -5    1    3    3    0  502 -0.26213800144E+02  0.18179539091E+02  0.17802277929E+02  0.36833002308E+02  0.47000000000E+01 0.  1.
        -11    1    4    4    0    0 -0.33916914576E+02  0.22782669463E+02  0.93020124647E+02  0.10159798576E+03  0.00000000000E+00 0. -1.
         11    1    4    4    0    0 -0.34593319619E+02 -0.70687418883E+01 -0.15005900150E+02  0.38364591923E+02  0.00000000000E+00 0.  1.
<mgrwt>
<rscale>  0 0.13606047E+03</rscale>
<asrwt>0</asrwt>
<pdfrwt beam="1">  1        4 0.26248567E-01 0.14340665E+03</pdfrwt>
<pdfrwt beam="2">  1       -4 0.17600149E-01 0.14340665E+03</pdfrwt>
<totfact> 0.65018207E+02</totfact>
</mgrwt>
</event>
<event>
 8    1  0.1020295E-005  0.1745235E+03  0.7546771E-02  0.1179258E+00
         -2   -1    0    0    0  501 -0.00000000000E+00  0.00000000000E+00  0.13122867912E+03  0.13122867912E+03  0.00000000000E+00 0. -1.
          2   -1    0    0  501    0  0.00000000000E+00 -0.00000000000E+00 -0.20358026159E+03  0.20358026159E+03  0.00000000000E+00 0.  1.
         23    2    1    2    0    0  0.82013850363E+02 -0.90024544241E+02 -0.33302333502E+02  0.17767246759E+03  0.12501107994E+03 0.  0.
         23    2    1    2    0    0 -0.82013850363E+02  0.90024544241E+02 -0.39049248966E+02  0.15713647311E+03  0.91303543856E+02 0.  0.
          5    1    3    3  502    0  0.53291852220E+02 -0.11647126330E+03 -0.33063842217E+01  0.12821309942E+03  0.47000000000E+01 0.  1.
         -5    1    3    3    0  502  0.28721998143E+02  0.26446719058E+02 -0.29995949280E+02  0.49459368167E+02  0.47000000000E+01 0.  1.
        -11    1    4    4    0    0 -0.19097897498E+02  0.54782582061E+02  0.22600128446E+02  0.62262563325E+02  0.00000000000E+00 0. -1.
         11    1    4    4    0    0 -0.62915952865E+02  0.35241962180E+02 -0.61649377412E+02  0.94873909789E+02  0.00000000000E+00 0.  1.
<mgrwt>
<rscale>  0 0.16865502E+03</rscale>
<asrwt>0</asrwt>
<pdfrwt beam="2">  1        2 0.31320040E-01 0.17452352E+03</pdfrwt>
<pdfrwt beam="1">  1       -2 0.20189028E-01 0.17452352E+03</pdfrwt>
<totfact> 0.33746917E+03</totfact>
</mgrwt>
</event>
<event>
 8    1  0.1020295E-005  0.1469261E+03  0.7546771E-02  0.1214054E+00
         -1   -1    0    0    0  501 -0.00000000000E+00  0.00000000000E+00  0.16147781782E+03  0.16147781782E+03  0.00000000000E+00 0.  1.
          1   -1    0    0  501    0  0.00000000000E+00 -0.00000000000E+00 -0.11081621769E+03  0.11081621769E+03  0.00000000000E+00 0. -1.
         23    2    1    2    0    0 -0.70279387181E+02 -0.31981075656E+02  0.41493691341E+02  0.15267290239E+03  0.12500122895E+03 0.  0.
         23    2    1    2    0    0  0.70279387181E+02  0.31981075656E+02  0.91679087834E+01  0.11962113313E+03  0.90902054301E+02 0.  0.
          5    1    3    3  502    0 -0.92195420719E+02 -0.50524092755E+02  0.41269032610E+01  0.10531761904E+03  0.47000000000E+01 0.  1.
         -5    1    3    3    0  502  0.21916033538E+02  0.18543017099E+02  0.37366788080E+02  0.47355283344E+02  0.47000000000E+01 0.  1.
        -11    1    4    4    0    0  0.30584411202E+02  0.47740839198E+02 -0.27789795513E+02  0.63141639752E+02  0.00000000000E+00 0. -1.
         11    1    4    4    0    0  0.39694975978E+02 -0.15759763542E+02  0.36957704297E+02  0.56479493373E+02  0.00000000000E+00 0.  1.
<mgrwt>
<rscale>  0 0.13946218E+03</rscale>
<asrwt>0</asrwt>
<pdfrwt beam="2">  1        1 0.17048649E-01 0.14692613E+03</pdfrwt>
<pdfrwt beam="1">  1       -1 0.24842741E-01 0.14692613E+03</pdfrwt>
<totfact> 0.42619028E+03</totfact>
</mgrwt>
</event>
<event>
 8    1  0.1524629E-005  0.2341946E+03  0.7546771E-02  0.1126285E+00
          1   -1    0    0  501    0  0.00000000000E+00  0.00000000000E+00  0.99640353045E+03  0.99640353045E+03  0.00000000000E+00 0. -1.
         -1   -1    0    0    0  501 -0.00000000000E+00 -0.00000000000E+00 -0.53217261746E+02  0.53217261746E+02  0.00000000000E+00 0.  1.
         23    2    1    2    0    0 -0.18699406347E+03  0.65236384812E+02  0.39784536504E+03  0.46165795244E+03  0.12499825954E+03 0.  0.
         23    2    1    2    0    0  0.18699406347E+03 -0.65236384812E+02  0.54534090367E+03  0.58796283976E+03  0.95294459719E+02 0.  0.
          5    1    3    3  502    0 -0.72188409232E+02  0.40038534830E+01  0.44352055557E+02  0.84949350217E+02  0.47000000000E+01 0. -1.
         -5    1    3    3    0  502 -0.11480565424E+03  0.61232531329E+02  0.35349330948E+03  0.37670860222E+03  0.47000000000E+01 0. -1.
        -11    1    4    4    0    0  0.11001112343E+03  0.77569944452E+01  0.22622321137E+03  0.25167351788E+03  0.00000000000E+00 0.  1.
         11    1    4    4    0    0  0.76982940034E+02 -0.72993379257E+02  0.31911769230E+03  0.33628932188E+03  0.00000000000E+00 0. -1.
<mgrwt>
<rscale>  0 0.23050490E+03</rscale>
<asrwt>0</asrwt>
<pdfrwt beam="1">  1        1 0.15329284E+00 0.23419464E+03</pdfrwt>
<pdfrwt beam="2">  1       -1 0.81872717E-02 0.23419464E+03</pdfrwt>
<totfact> 0.13380574E+03</totfact>
</mgrwt>
</event>
<event>
 8    1  0.1020295E-005  0.1272411E+03  0.7546771E-02  0.1245179E+00
         -4   -1    0    0    0  501 -0.00000000000E+00  0.00000000000E+00  0.13844997328E+04  0.13844997328E+04  0.00000000000E+00 0.  1.
          4   -1    0    0  501    0  0.00000000000E+00 -0.00000000000E+00 -0.10440710706E+02  0.10440710706E+02  0.00000000000E+00 0. -1.
         23    2    1    2    0    0 -0.94402737377E+01 -0.21829712123E+02  0.10220224846E+04  0.10299127394E+04  0.12499854667E+03 0.  0.
         23    2    1    2    0    0  0.94402737377E+01  0.21829712123E+02  0.35203653743E+03  0.36502770403E+03  0.93540611110E+02 0.  0.
          5    1    3    3  502    0 -0.64506744548E+02 -0.23303782836E+02  0.67794975459E+03  0.68142655227E+03  0.47000000000E+01 0. -1.
         -5    1    3    3    0  502  0.55066470811E+02  0.14740707121E+01  0.34407273004E+03  0.34848618718E+03  0.47000000000E+01 0. -1.
        -11    1    4    4    0    0 -0.24274039378E+02 -0.27549767481E+02  0.13172737291E+03  0.13674911133E+03  0.00000000000E+00 0. -1.
         11    1    4    4    0    0  0.33714313116E+02  0.49379479605E+02  0.22030916452E+03  0.22827859270E+03  0.00000000000E+00 0.  1.
<mgrwt>
<rscale>  0 0.11874663E+03</rscale>
<asrwt>0</asrwt>
<pdfrwt beam="2">  1        4 0.16062643E-02 0.12724108E+03</pdfrwt>
<pdfrwt beam="1">  1       -4 0.21299981E+00 0.12724108E+03</pdfrwt>
<totfact> 0.28667034E+02</totfact>
</mgrwt>
</event>
<event>
 8    1  0.1020295E-005  0.1448323E+03  0.7546771E-02  0.1214269E+00
         -1   -1    0    0    0  501 -0.00000000000E+00  0.00000000000E+00  0.34405825143E+02  0.34405825143E+02  0.00000000000E+00 0.  1.
          1   -1    0    0  501    0  0.00000000000E+00 -0.00000000000E+00 -0.52978317976E+03  0.52978317976E+03  0.00000000000E+00 0. -1.
         23    2    1    2    0    0 -0.43739245254E+02  0.58651600335E+02 -0.23988509652E+03  0.28021642384E+03  0.12499301124E+03 0.  0.
         23    2    1    2    0    0  0.43739245254E+02 -0.58651600335E+02 -0.25549225810E+03  0.28397258106E+03  0.10005499014E+03 0.  0.
          5    1    3    3  502    0 -0.23811087184E+02  0.97185688697E+02 -0.18175565914E+03  0.20753128822E+03  0.47000000000E+01 0. -1.
         -5    1    3    3    0  502 -0.19928158070E+02 -0.38534088361E+02 -0.58129437380E+02  0.72685135619E+02  0.47000000000E+01 0. -1.
        -11    1    4    4    0    0  0.73679383961E+02 -0.39619194097E+02 -0.21159116820E+03  0.22752836004E+03  0.00000000000E+00 0. -1.
         11    1    4    4    0    0 -0.29940138707E+02 -0.19032406239E+02 -0.43901089895E+02  0.56444221024E+02  0.00000000000E+00 0.  1.
<mgrwt>
<rscale>  0 0.13930365E+03</rscale>
<asrwt>0</asrwt>
<pdfrwt beam="2">  1        1 0.81505103E-01 0.14483226E+03</pdfrwt>
<pdfrwt beam="1">  1       -1 0.52932040E-02 0.14483226E+03</pdfrwt>
<totfact> 0.65023935E+03</totfact>
</mgrwt>
</event>
<event>
 8    1  0.1020295E-005  0.1539669E+03  0.7546771E-02  0.1204518E+00
          1   -1    0    0  501    0  0.00000000000E+00  0.00000000000E+00  0.27991139161E+02  0.27991139161E+02  0.00000000000E+00 0. -1.
         -1   -1    0    0    0  501 -0.00000000000E+00 -0.00000000000E+00 -0.74134511677E+03  0.74134511677E+03  0.00000000000E+00 0.  1.
         23    2    1    2    0    0 -0.88731202133E+02 -0.14383334970E+02 -0.47337014317E+03  0.49778017106E+03  0.12500279879E+03 0.  0.
         23    2    1    2    0    0  0.88731202133E+02  0.14383334970E+02 -0.23998383444E+03  0.27155608487E+03  0.89835181741E+02 0.  0.
          5    1    3    3  502    0 -0.94273906191E+02  0.30167944547E+02 -0.39594586220E+03  0.40815792294E+03  0.47000000000E+01 0. -1.
         -5    1    3    3    0  502  0.55427040577E+01 -0.44551279518E+02 -0.77424280965E+02  0.89622248119E+02  0.47000000000E+01 0. -1.
        -11    1    4    4    0    0  0.76429725020E+02 -0.22678959360E+02 -0.11012988070E+03  0.13595745176E+03  0.00000000000E+00 0. -1.
         11    1    4    4    0    0  0.12301477113E+02  0.37062294331E+02 -0.12985395374E+03  0.13559863311E+03  0.00000000000E+00 0.  1.
<mgrwt>
<rscale>  0 0.14675525E+03</rscale>
<asrwt>0</asrwt>
<pdfrwt beam="1">  1        1 0.43063293E-02 0.15396690E+03</pdfrwt>
<pdfrwt beam="2">  1       -1 0.11405309E+00 0.15396690E+03</pdfrwt>
<totfact> 0.14997695E+03</totfact>
</mgrwt>
</event>
<event>
 8    1  0.1020295E-005  0.1348745E+03  0.7546771E-02  0.1227538E+00
          3   -1    0    0  501    0  0.00000000000E+00  0.00000000000E+00  0.47978853875E+03  0.47978853875E+03  0.00000000000E+00 0. -1.
         -3   -1    0    0    0  501 -0.00000000000E+00 -0.00000000000E+00 -0.32894934416E+02  0.32894934416E+02  0.00000000000E+00 0.  1.
         23    2    1    2    0    0  0.21278709391E+02 -0.45976774291E+02  0.24951273856E+03  0.28363310479E+03  0.12499793671E+03 0.  0.
         23    2    1    2    0    0 -0.21278709391E+02  0.45976774291E+02  0.19738086577E+03  0.22905036837E+03  0.10458593515E+03 0.  0.
          5    1    3    3  502    0  0.11051900626E+02  0.40497430675E+02  0.12239773229E+03  0.12948158660E+03  0.47000000000E+01 0.  1.
         -5    1    3    3    0  502  0.10226808765E+02 -0.86474204966E+02  0.12711500627E+03  0.15415151820E+03  0.47000000000E+01 0.  1.
        -11    1    4    4    0    0  0.41114513908E+01  0.71236337908E+02  0.84359041529E+02  0.11048967263E+03  0.00000000000E+00 0.  1.
         11    1    4    4    0    0 -0.25390160781E+02 -0.25259563617E+02  0.11302182425E+03  0.11856069574E+03  0.00000000000E+00 0. -1.
<mgrwt>
<rscale>  0 0.12994473E+03</rscale>
<asrwt>0</asrwt>
<pdfrwt beam="1">  1        3 0.73813616E-01 0.13487450E+03</pdfrwt>
<pdfrwt beam="2">  1       -3 0.50607595E-02 0.13487450E+03</pdfrwt>
<totfact> 0.91694588E+02</totfact>
</mgrwt>
</event>
<event>
 8    1  0.1020295E-005  0.1326372E+03  0.7546771E-02  0.1236222E+00
         -2   -1    0    0    0  501 -0.00000000000E+00  0.00000000000E+00  0.55307890650E+03  0.55307890650E+03  0.00000000000E+00 0.  1.
          2   -1    0    0  501    0  0.00000000000E+00 -0.00000000000E+00 -0.24950243902E+02  0.24950243902E+02  0.00000000000E+00 0. -1.
         23    2    1    2    0    0 -0.43400850053E+02 -0.91471534825E+01  0.30726094339E+03  0.33466685760E+03  0.12500125614E+03 0.  0.
         23    2    1    2    0    0  0.43400850053E+02  0.91471534825E+01  0.22086771920E+03  0.24336229280E+03  0.92061674814E+02 0.  0.
          5    1    3    3  502    0 -0.85080704120E+02 -0.97185672355E+01  0.15985026003E+03  0.18140389300E+03  0.47000000000E+01 0.  1.
         -5    1    3    3    0  502  0.41679854067E+02  0.57141375298E+00  0.14741068337E+03  0.15326296460E+03  0.47000000000E+01 0.  1.
        -11    1    4    4    0    0 -0.16735244048E+02  0.61626678720E+01  0.39804825337E+01  0.18272687537E+02  0.00000000000E+00 0. -1.
         11    1    4    4    0    0  0.60136094101E+02  0.29844856106E+01  0.21688723667E+03  0.22508960526E+03  0.00000000000E+00 0.  1.
<mgrwt>
<rscale>  0 0.12426542E+03</rscale>
<asrwt>0</asrwt>
<pdfrwt beam="2">  1        2 0.38384995E-02 0.13263717E+03</pdfrwt>
<pdfrwt beam="1">  1       -2 0.85089053E-01 0.13263717E+03</pdfrwt>
<totfact> 0.26545663E+03</totfact>
</mgrwt>
</event>
<event>
 8    1  0.1020295E-005  0.1258003E+03  0.7546771E-02  0.1249211E+00
         -1   -1    0    0    0  501 -0.00000000000E+00  0.00000000000E+00  0.26748165964E+02  0.26748165964E+02  0.00000000000E+00 0.  1.
          1   -1    0    0  501    0  0.00000000000E+00 -0.00000000000E+00 -0.44641776433E+03  0.44641776433E+03  0.00000000000E+00 0. -1.
         23    2    1    2    0    0 -0.12369148127E+02 -0.68644116767E+01 -0.22421149012E+03  0.25709239237E+03  0.12500235974E+03 0.  0.
         23    2    1    2    0    0  0.12369148127E+02  0.68644116767E+01 -0.19545810825E+03  0.21607353792E+03  0.91015304972E+02 0.  0.
          5    1    3    3  502    0 -0.19792216786E+01  0.47450349390E+02 -0.33082925019E+02  0.58069121773E+02  0.47000000000E+01 0.  1.
         -5    1    3    3    0  502 -0.10389926448E+02 -0.54314761067E+02 -0.19112856510E+03  0.19902327060E+03  0.47000000000E+01 0.  1.
        -11    1    4    4    0    0 -0.16342733912E+02  0.42539040922E+02 -0.83788414606E+02  0.95378998613E+02  0.00000000000E+00 0.  1.
         11    1    4    4    0    0  0.28711882039E+02 -0.35674629245E+02 -0.11166969364E+03  0.12069453931E+03  0.00000000000E+00 0. -1.
<mgrwt>
<rscale>  0 0.11636855E+03</rscale>
<asrwt>0</asrwt>
<pdfrwt beam="2">  1        1 0.68679648E-01 0.12580026E+03</pdfrwt>
<pdfrwt beam="1">  1       -1 0.41151029E-02 0.12580026E+03</pdfrwt>
<totfact> 0.11663044E+04</totfact>
</mgrwt>
</event>
<event>
 8    1  0.1020295E-005  0.1294704E+03  0.7546771E-02  0.1243034E+00
         -1   -1    0    0    0  501 -0.00000000000E+00  0.00000000000E+00  0.24921989814E+02  0.24921989814E+02  0.00000000000E+00 0.  1.
          1   -1    0    0  501    0  0.00000000000E+00 -0.00000000000E+00 -0.51187897491E+03  0.51187897491E+03  0.00000000000E+00 0. -1.
         23    2    1    2    0    0 -0.10906846787E+02  0.31909993844E+02 -0.25809696458E+03  0.28875011845E+03  0.12500152306E+03 0.  0.
         23    2    1    2    0    0  0.10906846787E+02 -0.31909993844E+02 -0.22886002052E+03  0.24805084627E+03  0.89527126224E+02 0.  0.
          5    1    3    3  502    0  0.55124637240E+01 -0.31886961376E+02 -0.13470552408E+02  0.35365397556E+02  0.47000000000E+01 0.  1.
         -5    1    3    3    0  502 -0.16419310511E+02  0.63796955221E+02 -0.24462641217E+03  0.25338472089E+03  0.47000000000E+01 0.  1.
        -11    1    4    4    0    0 -0.22434009623E+02 -0.40973517197E+02 -0.61871784884E+02  0.77525683899E+02  0.00000000000E+00 0.  1.
         11    1    4    4    0    0  0.33340856410E+02  0.90635233527E+01 -0.16698823563E+03  0.17052516237E+03  0.00000000000E+00 0. -1.
<mgrwt>
<rscale>  0 0.12003814E+03</rscale>
<asrwt>0</asrwt>
<pdfrwt beam="2">  1        1 0.78750612E-01 0.12947041E+03</pdfrwt>
<pdfrwt beam="1">  1       -1 0.38341522E-02 0.12947041E+03</pdfrwt>
<totfact> 0.10865883E+04</totfact>
</mgrwt>
</event>
<event>
 7    1  0.1020295E-005  0.4249046E+03  0.7546771E-02  0.1035482E+00
         -2   -1    0    0    0  501 -0.00000000000E+00  0.00000000000E+00  0.28243175140E+03  0.28243175140E+03  0.00000000000E+00 0.  1.
          2   -1    0    0  501    0  0.00000000000E+00 -0.00000000000E+00 -0.15981199122E+03  0.15981199122E+03  0.00000000000E+00 0. -1.
         23    2    1    2    0    0  0.24112924240E+02  0.82126773276E+02  0.21490706247E+02  0.14658179452E+03  0.11703901924E+03 0.  0.
          5    1    3    3  502    0 -0.20176915153E+02  0.78646927690E+01 -0.36261181271E+02  0.42496171176E+02  0.47000000000E+01 0. -1.
         -5    1    3    3    0  502  0.44289839393E+02  0.74262080507E+02  0.57751887518E+02  0.10408562334E+03  0.47000000000E+01 0.  1.
        -11    1    1    2    0    0 -0.30391511021E+02  0.82875724602E+01  0.17557242253E+03  0.17837601675E+03  0.00000000000E+00 0.  1.
         11    1    1    2    0    0  0.62785867808E+01 -0.90414345736E+02 -0.74443368593E+02  0.11728593136E+03  0.00000000000E+00 0. -1.
<mgrwt>
<rscale>  0 0.42490460E+03</rscale>
<asrwt>0</asrwt>
<pdfrwt beam="2">  1        2 0.24586460E-01 0.42490460E+03</pdfrwt>
<pdfrwt beam="1">  1       -2 0.43451039E-01 0.42490460E+03</pdfrwt>
<totfact> 0.11205152E+03</totfact>
</mgrwt>
</event>
<event>
 8    1  0.1020295E-005  0.1349506E+03  0.7546771E-02  0.1229856E+00
         -2   -1    0    0    0  501 -0.00000000000E+00  0.00000000000E+00  0.75328326045E+02  0.75328326045E+02  0.00000000000E+00 0.  1.
          2   -1    0    0  501    0  0.00000000000E+00 -0.00000000000E+00 -0.20855996643E+03  0.20855996643E+03  0.00000000000E+00 0. -1.
         23    2    1    2    0    0 -0.50756090186E+02 -0.34670971788E+01 -0.44464097324E+02  0.14208705175E+03  0.12499389134E+03 0.  0.
         23    2    1    2    0    0  0.50756090186E+02  0.34670971788E+01 -0.88767543061E+02  0.14180124072E+03  0.98182043750E+02 0.  0.
          5    1    3    3  502    0 -0.19248145814E+02 -0.48413338866E+02 -0.64873926122E+02  0.83337019313E+02  0.47000000000E+01 0. -1.
         -5    1    3    3    0  502 -0.31507944372E+02  0.44946241687E+02  0.20409828799E+02  0.58750032442E+02  0.47000000000E+01 0. -1.
        -11    1    4    4    0    0  0.16800284883E+02 -0.45552913642E+02 -0.25428137051E+02  0.54807916100E+02  0.00000000000E+00 0.  1.
         11    1    4    4    0    0  0.33955805303E+02  0.49020010821E+02 -0.63339406010E+02  0.86993324620E+02  0.00000000000E+00 0. -1.
<mgrwt>
<rscale>  0 0.12839563E+03</rscale>
<asrwt>0</asrwt>
<pdfrwt beam="2">  1        2 0.32086148E-01 0.13495064E+03</pdfrwt>
<pdfrwt beam="1">  1       -2 0.11588973E-01 0.13495064E+03</pdfrwt>
<totfact> 0.80643210E+03</totfact>
</mgrwt>
</event>
<event>
 8    1  0.1020295E-005  0.1270505E+03  0.7546771E-02  0.1249974E+00
         -3   -1    0    0    0  501 -0.00000000000E+00  0.00000000000E+00  0.11281695891E+04  0.11281695891E+04  0.00000000000E+00 0.  1.
          3   -1    0    0  501    0  0.00000000000E+00 -0.00000000000E+00 -0.14727192209E+02  0.14727192209E+02  0.00000000000E+00 0. -1.
         23    2    1    2    0    0 -0.19762055302E+02 -0.11182154253E+02  0.93828693508E+03  0.94684962099E+03  0.12500501122E+03 0.  0.
         23    2    1    2    0    0  0.19762055302E+02  0.11182154253E+02  0.17515546185E+03  0.19604716036E+03  0.85085097775E+02 0.  0.
          5    1    3    3  502    0 -0.46641530848E+02 -0.31963935255E+02  0.20347309495E+03  0.21123568809E+03  0.47000000000E+01 0. -1.
         -5    1    3    3    0  502  0.26879475546E+02  0.20781781001E+02  0.73481384013E+03  0.73561393290E+03  0.47000000000E+01 0. -1.
        -11    1    4    4    0    0 -0.22760708159E+02  0.18693999838E+02  0.21571087132E+02  0.36507906895E+02  0.00000000000E+00 0. -1.
         11    1    4    4    0    0  0.42522763461E+02 -0.75118455846E+01  0.15358437472E+03  0.15953925346E+03  0.00000000000E+00 0.  1.
<mgrwt>
<rscale>  0 0.11592588E+03</rscale>
<asrwt>0</asrwt>
<pdfrwt beam="2">  1        3 0.22657228E-02 0.12705051E+03</pdfrwt>
<pdfrwt beam="1">  1       -3 0.17356448E+00 0.12705051E+03</pdfrwt>
<totfact> 0.42774338E+02</totfact>
</mgrwt>
</event>
<event>
 8    1  0.1020295E-005  0.1298441E+03  0.7546771E-02  0.1241838E+00
          1   -1    0    0  501    0  0.00000000000E+00  0.00000000000E+00  0.27005040943E+02  0.27005040943E+02  0.00000000000E+00 0. -1.
         -1   -1    0    0    0  501 -0.00000000000E+00 -0.00000000000E+00 -0.48372058654E+03  0.48372058654E+03  0.00000000000E+00 0.  1.
         23    2    1    2    0    0  0.77212903101E+01  0.34282169222E+02 -0.29038934603E+03  0.31809661741E+03  0.12499840107E+03 0.  0.
         23    2    1    2    0    0 -0.77212903101E+01 -0.34282169222E+02 -0.16632619957E+03  0.19262901007E+03  0.90590537076E+02 0.  0.
          5    1    3    3  502    0  0.23980491246E+02 -0.15637222978E+02 -0.69964475391E+01  0.29843374157E+02  0.47000000000E+01 0.  1.
         -5    1    3    3    0  502 -0.16259200936E+02  0.49919392200E+02 -0.28339289849E+03  0.28825324326E+03  0.47000000000E+01 0.  1.
        -11    1    4    4    0    0  0.21892042699E+02 -0.55862670957E+02 -0.11275946548E+03  0.12772860523E+03  0.00000000000E+00 0.  1.
         11    1    4    4    0    0 -0.29613333009E+02  0.21580501736E+02 -0.53566734091E+02  0.64900404839E+02  0.00000000000E+00 0. -1.
<mgrwt>
<rscale>  0 0.12076662E+03</rscale>
<asrwt>0</asrwt>
<pdfrwt beam="1">  1        1 0.41546218E-02 0.12984408E+03</pdfrwt>
<pdfrwt beam="2">  1       -1 0.74418550E-01 0.12984408E+03</pdfrwt>
<totfact> 0.39045602E+03</totfact>
</mgrwt>
</event>
<event>
 8    1  0.1020295E-005  0.2105865E+03  0.7546771E-02  0.1144992E+00
          1   -1    0    0  501    0  0.00000000000E+00  0.00000000000E+00  0.86143834367E+02  0.86143834367E+02  0.00000000000E+00 0. -1.
         -1   -1    0    0    0  501 -0.00000000000E+00 -0.00000000000E+00 -0.47000868915E+03  0.47000868915E+03  0.00000000000E+00 0.  1.
         23    2    1    2    0    0  0.16892577708E+03  0.13430625258E+02 -0.20389594869E+03  0.29312155049E+03  0.12502154060E+03 0.  0.
         23    2    1    2    0    0 -0.16892577708E+03 -0.13430625258E+02 -0.17996890610E+03  0.26303097303E+03  0.89889853437E+02 0.  0.
          5    1    3    3  502    0  0.18290022245E+03 -0.96243641853E+01 -0.17660217578E+03  0.25447109511E+03  0.47000000000E+01 0. -1.
         -5    1    3    3    0  502 -0.13974445364E+02  0.23054989444E+02 -0.27293772905E+02  0.38650455377E+02  0.47000000000E+01 0. -1.
        -11    1    4    4    0    0 -0.21397528533E+02 -0.26575018283E+02 -0.61536566338E+01  0.34669198347E+02  0.00000000000E+00 0. -1.
         11    1    4    4    0    0 -0.14752824855E+03  0.13144393024E+02 -0.17381524947E+03  0.22836177468E+03  0.00000000000E+00 0.  1.
<mgrwt>
<rscale>  0 0.20573052E+03</rscale>
<asrwt>0</asrwt>
<pdfrwt beam="1">  1        1 0.13252898E-01 0.21058653E+03</pdfrwt>
<pdfrwt beam="2">  1       -1 0.72309028E-01 0.21058653E+03</pdfrwt>
<totfact> 0.87936153E+02</totfact>
</mgrwt>
</event>
<event>
 8    1  0.1020295E-005  0.1334329E+03  0.7546771E-02  0.1233174E+00
         -2   -1    0    0    0  501 -0.00000000000E+00  0.00000000000E+00  0.32722364330E+03  0.32722364330E+03  0.00000000000E+00 0.  1.
          2   -1    0    0  501    0  0.00000000000E+00 -0.00000000000E+00 -0.44149808208E+02  0.44149808208E+02  0.00000000000E+00 0. -1.
         23    2    1    2    0    0 -0.37299847637E+02 -0.28062603683E+02  0.15142585027E+03  0.20182695301E+03  0.12500216986E+03 0.  0.
         23    2    1    2    0    0  0.37299847637E+02  0.28062603683E+02  0.13164798482E+03  0.16954649850E+03  0.96104291728E+02 0.  0.
          5    1    3    3  502    0 -0.77978247953E+02  0.39310114109E+01  0.68546891274E+02  0.10400397256E+03  0.47000000000E+01 0.  1.
         -5    1    3    3    0  502  0.40678400316E+02 -0.31993615094E+02  0.82878959000E+02  0.97822980449E+02  0.47000000000E+01 0.  1.
        -11    1    4    4    0    0 -0.27972250738E+02 -0.95972492517E+01  0.23701983033E+02  0.37899050176E+02  0.00000000000E+00 0.  1.
         11    1    4    4    0    0  0.65272098375E+02  0.37659852935E+02  0.10794600179E+03  0.13164744833E+03  0.00000000000E+00 0. -1.
<mgrwt>
<rscale>  0 0.12622075E+03</rscale>
<asrwt>0</asrwt>
<pdfrwt beam="2">  1        2 0.67922784E-02 0.13343287E+03</pdfrwt>
<pdfrwt beam="1">  1       -2 0.50342097E-01 0.13343287E+03</pdfrwt>
<totfact> 0.37919583E+03</totfact>
</mgrwt>
</event>
<event>
 8    1  0.1020295E-005  0.1379648E+03  0.7546771E-02  0.1227896E+00
         -1   -1    0    0    0  501 -0.00000000000E+00  0.00000000000E+00  0.52249133412E+03  0.52249133412E+03  0.00000000000E+00 0.  1.
          1   -1    0    0  501    0  0.00000000000E+00 -0.00000000000E+00 -0.48544690458E+02  0.48544690458E+02  0.00000000000E+00 0. -1.
         23    2    1    2    0    0 -0.53696515314E+01  0.58141954078E+02  0.43514359928E+03  0.45649122869E+03  0.12499987961E+03 0.  0.
         23    2    1    2    0    0  0.53696515314E+01 -0.58141954078E+02  0.38803044382E+02  0.11454479588E+03  0.90584292392E+02 0.  0.
          5    1    3    3  502    0 -0.56945593217E+02  0.12078190899E+02  0.11557637403E+03  0.12949390532E+03  0.47000000000E+01 0.  1.
         -5    1    3    3    0  502  0.51575941686E+02  0.46063763179E+02  0.31956722525E+03  0.32699732337E+03  0.47000000000E+01 0.  1.
        -11    1    4    4    0    0  0.32641036042E+02 -0.13144648684E+02 -0.15926745514E+02  0.38624865638E+02  0.00000000000E+00 0. -1.
         11    1    4    4    0    0 -0.27271384510E+02 -0.44997305393E+02  0.54729789896E+02  0.75919930241E+02  0.00000000000E+00 0.  1.
<mgrwt>
<rscale>  0 0.12970385E+03</rscale>
<asrwt>0</asrwt>
<pdfrwt beam="2">  1        1 0.74684143E-02 0.13796481E+03</pdfrwt>
<pdfrwt beam="1">  1       -1 0.80383278E-01 0.13796481E+03</pdfrwt>
<totfact> 0.15084512E+03</totfact>
</mgrwt>
</event>
<event>
 8    1  0.1020295E-005  0.1721952E+03  0.7546771E-02  0.1180808E+00
          4   -1    0    0  501    0  0.00000000000E+00  0.00000000000E+00  0.62674074764E+02  0.62674074764E+02  0.00000000000E+00 0. -1.
         -4   -1    0    0    0  501 -0.00000000000E+00 -0.00000000000E+00 -0.90846592877E+03  0.90846592877E+03  0.00000000000E+00 0.  1.
         23    2    1    2    0    0 -0.31293891091E+02 -0.11899119603E+03 -0.78952550651E+03  0.80808521898E+03  0.12046984412E+03 0.  0.
         23    2    1    2    0    0  0.31293891091E+02  0.11899119603E+03 -0.56266347498E+02  0.16305478456E+03  0.91009606935E+02 0.  0.
          5    1    3    3  502    0 -0.33890347293E+02 -0.71469841826E+02 -0.17978314854E+03  0.19647026347E+03  0.47000000000E+01 0. -1.
         -5    1    3    3    0  502  0.25964562016E+01 -0.47521354206E+02 -0.60974235798E+03  0.61161495551E+03  0.47000000000E+01 0.  1.
        -11    1    4    4    0    0 -0.31720508401E+02  0.49868186713E+02 -0.16064575218E+02  0.61246202137E+02  0.00000000000E+00 0.  1.
         11    1    4    4    0    0  0.63014399492E+02  0.69123009319E+02 -0.40201772280E+02  0.10180858242E+03  0.00000000000E+00 0. -1.
<mgrwt>
<rscale>  0 0.16719236E+03</rscale>
<asrwt>0</asrwt>
<pdfrwt beam="1">  1        4 0.96421650E-02 0.17219523E+03</pdfrwt>
<pdfrwt beam="2">  1       -4 0.13976399E+00 0.17219523E+03</pdfrwt>
<totfact> 0.53556341E+01</totfact>
</mgrwt>
</event>
<event>
 8    1  0.1020295E-005  0.1903923E+03  0.7546771E-02  0.1162797E+00
         -2   -1    0    0    0  501 -0.00000000000E+00  0.00000000000E+00  0.10079931637E+03  0.10079931637E+03  0.00000000000E+00 0.  1.
          2   -1    0    0  501    0  0.00000000000E+00 -0.00000000000E+00 -0.32466575663E+03  0.32466575663E+03  0.00000000000E+00 0. -1.
         23    2    1    2    0    0 -0.54490692194E+02  0.13286258581E+03 -0.10485744703E+03  0.21735755309E+03  0.12501007737E+03 0.  0.
         23    2    1    2    0    0  0.54490692194E+02 -0.13286258581E+03 -0.11900899323E+03  0.20810751991E+03  0.92324954004E+02 0.  0.
          5    1    3    3  502    0 -0.75125204166E+02  0.37860649477E+02 -0.81584585159E+02  0.11728324525E+03  0.47000000000E+01 0.  1.
         -5    1    3    3    0  502  0.20634511972E+02  0.95001936332E+02 -0.23272861872E+02  0.10007430785E+03  0.47000000000E+01 0.  1.
        -11    1    4    4    0    0  0.22493952869E+02  0.90477256051E+01 -0.95702448696E+01  0.26065855849E+02  0.00000000000E+00 0. -1.
         11    1    4    4    0    0  0.31996739325E+02 -0.14191031141E+03 -0.10943874836E+03  0.18204166406E+03  0.00000000000E+00 0.  1.
<mgrwt>
<rscale>  0 0.18527151E+03</rscale>
<asrwt>0</asrwt>
<pdfrwt beam="2">  1        2 0.49948579E-01 0.19039228E+03</pdfrwt>
<pdfrwt beam="1">  1       -2 0.15507587E-01 0.19039228E+03</pdfrwt>
<totfact> 0.31917339E+03</totfact>
</mgrwt>
</event>
<event>
 8    1  0.1020295E-005  0.1332572E+03  0.7546771E-02  0.1234567E+00
          1   -1    0    0  501    0  0.00000000000E+00  0.00000000000E+00  0.20137946247E+03  0.20137946247E+03  0.00000000000E+00 0. -1.
         -1   -1    0    0    0  501 -0.00000000000E+00 -0.00000000000E+00 -0.95934177917E+02  0.95934177917E+02  0.00000000000E+00 0.  1.
         23    2    1    2    0    0 -0.28111071234E+02  0.36642720311E+02 -0.19410264081E+02  0.13466339617E+03  0.12499820254E+03 0.  0.
         23    2    1    2    0    0  0.28111071234E+02 -0.36642720311E+02  0.12485554864E+03  0.16265024422E+03  0.93451980414E+02 0.  0.
          5    1    3    3  502    0 -0.51309657005E+02  0.50217240314E+02  0.30211902532E+02  0.78033974533E+02  0.47000000000E+01 0. -1.
         -5    1    3    3    0  502  0.23198585771E+02 -0.13574520003E+02 -0.49622166613E+02  0.56629421633E+02  0.47000000000E+01 0. -1.
        -11    1    4    4    0    0  0.23918776360E+02  0.20340171247E+02  0.90935277801E+02  0.96203197336E+02  0.00000000000E+00 0. -1.
         11    1    4    4    0    0  0.41922948741E+01 -0.56982891558E+02  0.33920270834E+02  0.66447046888E+02  0.00000000000E+00 0.  1.
<mgrwt>
<rscale>  0 0.12532208E+03</rscale>
<asrwt>0</asrwt>
<pdfrwt beam="1">  1        1 0.30981456E-01 0.13325716E+03</pdfrwt>
<pdfrwt beam="2">  1       -1 0.14759104E-01 0.13325716E+03</pdfrwt>
<totfact> 0.45902883E+03</totfact>
</mgrwt>
</event>
<event>
 8    1  0.1020295E-005  0.1216860E+03  0.7546771E-02  0.1249276E+00
         -1   -1    0    0    0  501 -0.00000000000E+00  0.00000000000E+00  0.31726576803E+03  0.31726576803E+03  0.00000000000E+00 0.  1.
          1   -1    0    0  501    0  0.00000000000E+00 -0.00000000000E+00 -0.39746840809E+02  0.39746840809E+02  0.00000000000E+00 0. -1.
         23    2    1    2    0    0 -0.57956448453E+01 -0.39975304497E+02  0.16993373043E+03  0.20900947077E+03  0.11478619981E+03 0.  0.
         23    2    1    2    0    0  0.57956448453E+01  0.39975304497E+02  0.10758519679E+03  0.14800313806E+03  0.93267035115E+02 0.  0.
          5    1    3    3  502    0 -0.21940548859E+02  0.35115925294E+02  0.83251337554E+02  0.93098824364E+02  0.47000000000E+01 0. -1.
         -5    1    3    3    0  502  0.16144904013E+02 -0.75091229790E+02  0.86682392874E+02  0.11591064641E+03  0.47000000000E+01 0.  1.
        -11    1    4    4    0    0  0.23643996289E+02 -0.24829155867E+02  0.32779547944E+02  0.47434421099E+02  0.00000000000E+00 0.  1.
         11    1    4    4    0    0 -0.17848351443E+02  0.64804460364E+02  0.74805648849E+02  0.10056871696E+03  0.00000000000E+00 0. -1.
<mgrwt>
<rscale>  0 0.11633085E+03</rscale>
<asrwt>0</asrwt>
<pdfrwt beam="2">  1        1 0.61148988E-02 0.12168601E+03</pdfrwt>
<pdfrwt beam="1">  1       -1 0.48810116E-01 0.12168601E+03</pdfrwt>
<totfact> 0.51164703E+03</totfact>
</mgrwt>
</event>
<event>
 8    1  0.1020295E-005  0.1267071E+03  0.7546771E-02  0.1248273E+00
          1   -1    0    0  501    0  0.00000000000E+00  0.00000000000E+00  0.24306580837E+02  0.24306580837E+02  0.00000000000E+00 0. -1.
         -1   -1    0    0    0  501 -0.00000000000E+00 -0.00000000000E+00 -0.74086854555E+03  0.74086854555E+03  0.00000000000E+00 0.  1.
         23    2    1    2    0    0 -0.15226183697E+02 -0.14127906265E+02 -0.61633669062E+03  0.62922619866E+03  0.12499303370E+03 0.  0.
         23    2    1    2    0    0  0.15226183697E+02  0.14127906265E+02 -0.10022527409E+03  0.13594892772E+03  0.89473856389E+02 0.  0.
          5    1    3    3  502    0  0.25832479518E+02  0.43157047427E+02 -0.35233914145E+03  0.35594214184E+03  0.47000000000E+01 0. -1.
         -5    1    3    3    0  502 -0.41058663216E+02 -0.57284953693E+02 -0.26399754916E+03  0.27328405682E+03  0.47000000000E+01 0. -1.
        -11    1    4    4    0    0 -0.58844339845E+01  0.47122694382E+02 -0.31952601550E+02  0.57237606825E+02  0.00000000000E+00 0. -1.
         11    1    4    4    0    0  0.21110617682E+02 -0.32994788117E+02 -0.68272672542E+02  0.78711320900E+02  0.00000000000E+00 0.  1.
<mgrwt>
<rscale>  0 0.11691609E+03</rscale>
<asrwt>0</asrwt>
<pdfrwt beam="1">  1        1 0.37394736E-02 0.12670711E+03</pdfrwt>
<pdfrwt beam="2">  1       -1 0.11397979E+00 0.12670711E+03</pdfrwt>
<totfact> 0.18091047E+03</totfact>
</mgrwt>
</event>
<event>
 8    1  0.1020295E-005  0.1308509E+03  0.7546771E-02  0.1240174E+00
         -1   -1    0    0    0  501 -0.00000000000E+00  0.00000000000E+00  0.22152542916E+03  0.22152542916E+03  0.00000000000E+00 0.  1.
          1   -1    0    0  501    0  0.00000000000E+00 -0.00000000000E+00 -0.66913000776E+02  0.66913000776E+02  0.00000000000E+00 0. -1.
         23    2    1    2    0    0 -0.18944373614E+02 -0.33718937011E+02  0.13555709016E+03  0.18840829722E+03  0.12500442299E+03 0.  0.
         23    2    1    2    0    0  0.18944373614E+02  0.33718937011E+02  0.19055338229E+02  0.10003013271E+03  0.90261096440E+02 0.  0.
          5    1    3    3  502    0  0.12843781567E+02  0.37293581818E+01  0.13826404699E+03  0.13898887556E+03  0.47000000000E+01 0. -1.
         -5    1    3    3    0  502 -0.31788155180E+02 -0.37448295193E+02 -0.27069568383E+01  0.49419421668E+02  0.47000000000E+01 0. -1.
        -11    1    4    4    0    0  0.52903568386E+02  0.64696637855E+01  0.18716802429E+02  0.56488607619E+02  0.00000000000E+00 0. -1.
         11    1    4    4    0    0 -0.33959194773E+02  0.27249273226E+02  0.33853580010E+00  0.43541525093E+02  0.00000000000E+00 0.  1.
<mgrwt>
<rscale>  0 0.12178916E+03</rscale>
<asrwt>0</asrwt>
<pdfrwt beam="2">  1        1 0.10294308E-01 0.13085091E+03</pdfrwt>
<pdfrwt beam="1">  1       -1 0.34080835E-01 0.13085091E+03</pdfrwt>
<totfact> 0.48137388E+03</totfact>
</mgrwt>
</event>
<event>
 8    1  0.1020295E-005  0.1347293E+03  0.7546771E-02  0.1232876E+00
         -1   -1    0    0    0  501 -0.00000000000E+00  0.00000000000E+00  0.48842202120E+02  0.48842202120E+02  0.00000000000E+00 0.  1.
          1   -1    0    0  501    0  0.00000000000E+00 -0.00000000000E+00 -0.30500780052E+03  0.30500780052E+03  0.00000000000E+00 0. -1.
         23    2    1    2    0    0 -0.22860690636E+02  0.44753230989E+02 -0.10846567509E+03  0.17296466265E+03  0.12500603582E+03 0.  0.
         23    2    1    2    0    0  0.22860690636E+02 -0.44753230989E+02 -0.14769992331E+03  0.18088533999E+03  0.91535654354E+02 0.  0.
          5    1    3    3  502    0 -0.65238043525E+02  0.55333323047E+02 -0.92861745013E+02  0.12634544966E+03  0.47000000000E+01 0. -1.
         -5    1    3    3    0  502  0.42377352888E+02 -0.10580092058E+02 -0.15603930076E+02  0.46619212988E+02  0.47000000000E+01 0. -1.
        -11    1    4    4    0    0 -0.33355940755E+02 -0.29132056749E+02 -0.80600242805E+02  0.91965725433E+02  0.00000000000E+00 0. -1.
         11    1    4    4    0    0  0.56216631391E+02 -0.15621174240E+02 -0.67099680503E+02  0.88919614558E+02  0.00000000000E+00 0.  1.
<mgrwt>
<rscale>  0 0.12641420E+03</rscale>
<asrwt>0</asrwt>
<pdfrwt beam="2">  1        1 0.46924278E-01 0.13472925E+03</pdfrwt>
<pdfrwt beam="1">  1       -1 0.75141848E-02 0.13472925E+03</pdfrwt>
<totfact> 0.77280744E+03</totfact>
</mgrwt>
</event>
<event>
 8    1  0.1020295E-005  0.1410685E+03  0.7546771E-02  0.1222600E+00
          1   -1    0    0  501    0  0.00000000000E+00  0.00000000000E+00  0.90961703780E+02  0.90961703780E+02  0.00000000000E+00 0. -1.
         -1   -1    0    0    0  501 -0.00000000000E+00 -0.00000000000E+00 -0.21607935872E+03  0.21607935872E+03  0.00000000000E+00 0.  1.
         23    2    1    2    0    0  0.40128694487E+02  0.51645657987E+02 -0.13342632384E+03  0.19417235073E+03  0.12499092681E+03 0.  0.
         23    2    1    2    0    0 -0.40128694487E+02 -0.51645657987E+02  0.83086689040E+01  0.11286871177E+03  0.91611822421E+02 0.  0.
          5    1    3    3  502    0 -0.40123661213E+01 -0.28659154604E+02 -0.86047684623E+02  0.90905116762E+02  0.47000000000E+01 0.  1.
         -5    1    3    3    0  502  0.44141060608E+02  0.80304812592E+02 -0.47378639218E+02  0.10326723397E+03  0.47000000000E+01 0.  1.
        -11    1    4    4    0    0 -0.35701286275E+02  0.11180018325E+02 -0.21543601793E+02  0.43170608400E+02  0.00000000000E+00 0.  1.
         11    1    4    4    0    0 -0.44274082113E+01 -0.62825676312E+02  0.29852270697E+02  0.69698103369E+02  0.00000000000E+00 0. -1.
<mgrwt>
<rscale>  0 0.13332786E+03</rscale>
<asrwt>0</asrwt>
<pdfrwt beam="1">  1        1 0.13994108E-01 0.14106849E+03</pdfrwt>
<pdfrwt beam="2">  1       -1 0.33242978E-01 0.14106849E+03</pdfrwt>
<totfact> 0.33720069E+03</totfact>
</mgrwt>
</event>
<event>
 8    1  0.1020295E-005  0.1410583E+03  0.7546771E-02  0.1223210E+00
          2   -1    0    0  501    0  0.00000000000E+00  0.00000000000E+00  0.72344671173E+02  0.72344671173E+02  0.00000000000E+00 0. -1.
         -2   -1    0    0    0  501 -0.00000000000E+00 -0.00000000000E+00 -0.22006616600E+03  0.22006616600E+03  0.00000000000E+00 0.  1.
         23    2    1    2    0    0 -0.62698581295E+02  0.18476916318E+02 -0.87354927229E+02  0.16591666408E+03  0.12499979030E+03 0.  0.
         23    2    1    2    0    0  0.62698581295E+02 -0.18476916318E+02 -0.60366567593E+02  0.12649417309E+03  0.89911872464E+02 0.  0.
          5    1    3    3  502    0 -0.89267289765E+01 -0.46977361187E+02 -0.59805744243E+02  0.76716204278E+02  0.47000000000E+01 0.  1.
         -5    1    3    3    0  502 -0.53771852318E+02  0.65454277505E+02 -0.27549182986E+02  0.89200459800E+02  0.47000000000E+01 0.  1.
        -11    1    4    4    0    0  0.69725393182E+02 -0.44892194433E+01 -0.76780662294E+02  0.10381258906E+03  0.00000000000E+00 0.  1.
         11    1    4    4    0    0 -0.70268118876E+01 -0.13987696875E+02  0.16414094701E+02  0.22681584028E+02  0.00000000000E+00 0. -1.
<mgrwt>
<rscale>  0 0.13290358E+03</rscale>
<asrwt>0</asrwt>
<pdfrwt beam="1">  1        2 0.11129950E-01 0.14105834E+03</pdfrwt>
<pdfrwt beam="2">  1       -2 0.33856333E-01 0.14105834E+03</pdfrwt>
<totfact> 0.43832965E+03</totfact>
</mgrwt>
</event>
<event>
 8    1  0.1020295E-005  0.1291553E+03  0.7546771E-02  0.1243548E+00
          1   -1    0    0  501    0  0.00000000000E+00  0.00000000000E+00  0.68973887554E+02  0.68973887554E+02  0.00000000000E+00 0. -1.
         -1   -1    0    0    0  501 -0.00000000000E+00 -0.00000000000E+00 -0.18283153096E+03  0.18283153096E+03  0.00000000000E+00 0.  1.
         23    2    1    2    0    0  0.32497198149E+02 -0.13963290933E+00 -0.62533752892E+02  0.14349764477E+03  0.12500006567E+03 0.  0.
         23    2    1    2    0    0 -0.32497198149E+02  0.13963290933E+00 -0.51323890517E+02  0.10830777375E+03  0.89667969374E+02 0.  0.
          5    1    3    3  502    0 -0.31677968660E+02 -0.34045206615E+02 -0.52143876180E+02  0.70026020984E+02  0.47000000000E+01 0. -1.
         -5    1    3    3    0  502  0.64175166809E+02  0.33905573705E+02 -0.10389876711E+02  0.73471623783E+02  0.47000000000E+01 0. -1.
        -11    1    4    4    0    0 -0.17925390094E+02  0.89918751386E+01 -0.75839498859E+02  0.78446179102E+02  0.00000000000E+00 0.  1.
         11    1    4    4    0    0 -0.14571808055E+02 -0.88522422292E+01  0.24515608342E+02  0.29861594647E+02  0.00000000000E+00 0. -1.
<mgrwt>
<rscale>  0 0.11972730E+03</rscale>
<asrwt>0</asrwt>
<pdfrwt beam="1">  1        1 0.10611367E-01 0.12915535E+03</pdfrwt>
<pdfrwt beam="2">  1       -1 0.28127927E-01 0.12915535E+03</pdfrwt>
<totfact> 0.63853251E+03</totfact>
</mgrwt>
</event>
<event>
 8    1  0.1020295E-005  0.1376576E+03  0.7546771E-02  0.1228951E+00
         -2   -1    0    0    0  501 -0.00000000000E+00  0.00000000000E+00  0.70859910911E+02  0.70859910911E+02  0.00000000000E+00 0. -1.
          2   -1    0    0  501    0  0.00000000000E+00 -0.00000000000E+00 -0.21578140144E+03  0.21578140144E+03  0.00000000000E+00 0.  1.
         23    2    1    2    0    0 -0.83898697180E+01 -0.57048801440E+02 -0.57731953036E+02  0.14927352257E+03  0.12499860191E+03 0.  0.
         23    2    1    2    0    0  0.83898697180E+01  0.57048801440E+02 -0.87189537490E+02  0.13736778978E+03  0.89123165126E+02 0.  0.
          5    1    3    3  502    0 -0.52778092229E+02 -0.13498458286E+02  0.11731458559E+02  0.55923631099E+02  0.47000000000E+01 0. -1.
         -5    1    3    3    0  502  0.44388222511E+02 -0.43550343155E+02 -0.69463411595E+02  0.93349891467E+02  0.47000000000E+01 0. -1.
        -11    1    4    4    0    0  0.39790280475E+02  0.59268024422E+02 -0.75189232099E+02  0.10367924461E+03  0.00000000000E+00 0.  1.
         11    1    4    4    0    0 -0.31400410757E+02 -0.22192229820E+01 -0.12000305391E+02  0.33688545172E+02  0.00000000000E+00 0. -1.
<mgrwt>
<rscale>  0 0.12899724E+03</rscale>
<asrwt>0</asrwt>
<pdfrwt beam="2">  1        2 0.33197139E-01 0.13765757E+03</pdfrwt>
<pdfrwt beam="1">  1       -2 0.10901525E-01 0.13765757E+03</pdfrwt>
<totfact> 0.85788264E+03</totfact>
</mgrwt>
</event>
<event>
 8    1  0.1020295E-005  0.1384023E+03  0.7546771E-02  0.1228642E+00
          1   -1    0    0  501    0  0.00000000000E+00  0.00000000000E+00  0.18535712340E+02  0.18535712340E+02  0.00000000000E+00 0. -1.
         -1   -1    0    0    0  501 -0.00000000000E+00 -0.00000000000E+00 -0.81056974562E+03  0.81056974562E+03  0.00000000000E+00 0.  1.
         23    2    1    2    0    0 -0.85928380771E+01 -0.58793663620E+02 -0.49672290527E+03  0.51564410276E+03  0.12499865733E+03 0.  0.
         23    2    1    2    0    0  0.85928380771E+01  0.58793663620E+02 -0.29531112800E+03  0.31346135520E+03  0.86711170757E+02 0.  0.
          5    1    3    3  502    0 -0.40759710697E+02  0.15161372418E+02 -0.80136987623E+02  0.91297579458E+02  0.47000000000E+01 0.  1.
         -5    1    3    3    0  502  0.32166872620E+02 -0.73955036038E+02 -0.41658591765E+03  0.42434652330E+03  0.47000000000E+01 0.  1.
        -11    1    4    4    0    0  0.51254521189E+00 -0.18478537771E+02 -0.19303713471E+02  0.26727372009E+02  0.00000000000E+00 0. -1.
         11    1    4    4    0    0  0.80802928652E+01  0.77272201390E+02 -0.27600741453E+03  0.28673398319E+03  0.00000000000E+00 0.  1.
<mgrwt>
<rscale>  0 0.12920360E+03</rscale>
<asrwt>0</asrwt>
<pdfrwt beam="1">  1        1 0.28516479E-02 0.13840230E+03</pdfrwt>
<pdfrwt beam="2">  1       -1 0.12470304E+00 0.13840230E+03</pdfrwt>
<totfact> 0.21405030E+03</totfact>
</mgrwt>
</event>
<event>
 8    1  0.1020295E-005  0.1720649E+03  0.7546771E-02  0.1182502E+00
          2   -1    0    0  501    0  0.00000000000E+00  0.00000000000E+00  0.41098621859E+03  0.41098621859E+03  0.00000000000E+00 0.  1.
         -2   -1    0    0    0  501 -0.00000000000E+00 -0.00000000000E+00 -0.62634995500E+02  0.62634995500E+02  0.00000000000E+00 0. -1.
         23    2    1    2    0    0  0.10980154724E+03 -0.43872765384E+02  0.16739467030E+03  0.24005687037E+03  0.12500050418E+03 0.  0.
         23    2    1    2    0    0 -0.10980154724E+03  0.43872765384E+02  0.18095655279E+03  0.23356434373E+03  0.88463717667E+02 0.  0.
          5    1    3    3  502    0  0.23586636877E+02 -0.68481933721E+02  0.36268627467E+02  0.81139435688E+02  0.47000000000E+01 0.  1.
         -5    1    3    3    0  502  0.86214910365E+02  0.24609168337E+02  0.13112604284E+03  0.15891743468E+03  0.47000000000E+01 0.  1.
        -11    1    4    4    0    0 -0.11074911583E+03  0.18280073295E+02  0.17393423016E+03  0.20700880213E+03  0.00000000000E+00 0.  1.
         11    1    4    4    0    0  0.94756858472E+00  0.25592692089E+02  0.70223226294E+01  0.26555541600E+02  0.00000000000E+00 0. -1.
<mgrwt>
<rscale>  0 0.16561274E+03</rscale>
<asrwt>0</asrwt>
<pdfrwt beam="1">  1        2 0.63228647E-01 0.17206489E+03</pdfrwt>
<pdfrwt beam="2">  1       -2 0.96361534E-02 0.17206489E+03</pdfrwt>
<totfact> 0.53090615E+03</totfact>
</mgrwt>
</event>
<event>
 8    1  0.2317640E-005  0.3522950E+03  0.7546771E-02  0.1062765E+00
         -2   -1    0    0    0  501 -0.00000000000E+00  0.00000000000E+00  0.10005716242E+03  0.10005716242E+03  0.00000000000E+00 0.  1.
          2   -1    0    0  501    0  0.00000000000E+00 -0.00000000000E+00 -0.12068781083E+04  0.12068781083E+04  0.00000000000E+00 0. -1.
         23    2    1    2    0    0  0.20497199324E+02  0.32873550100E+03 -0.52797165131E+03  0.63471710355E+03  0.12499828859E+03 0.  0.
         23    2    1    2    0    0 -0.20497199324E+02 -0.32873550100E+03 -0.57884929460E+03  0.67221816719E+03  0.91233730857E+02 0.  0.
          5    1    3    3  502    0  0.63422886676E+02  0.18444326939E+03 -0.23613491311E+03  0.30630633256E+03  0.47000000000E+01 0. -1.
         -5    1    3    3    0  502 -0.42925687351E+02  0.14429223162E+03 -0.29183673820E+03  0.32841077099E+03  0.47000000000E+01 0. -1.
        -11    1    4    4    0    0  0.13633975256E+02 -0.25571911034E+03 -0.48542304163E+03  0.54882937058E+03  0.00000000000E+00 0. -1.
         11    1    4    4    0    0 -0.34131174580E+02 -0.73016390666E+02 -0.93426252969E+02  0.12338879661E+03  0.00000000000E+00 0.  1.
<mgrwt>
<rscale>  0 0.34963522E+03</rscale>
<asrwt>0</asrwt>
<pdfrwt beam="2">  1        2 0.18567355E+00 0.35229496E+03</pdfrwt>
<pdfrwt beam="1">  1       -2 0.15393410E-01 0.35229496E+03</pdfrwt>
<totfact> 0.64736373E+02</totfact>
</mgrwt>
</event>
<event>
 8    1  0.1020295E-005  0.1278621E+03  0.7546771E-02  0.1242905E+00
          2   -1    0    0  501    0  0.00000000000E+00  0.00000000000E+00  0.17285639013E+02  0.17285639013E+02  0.00000000000E+00 0. -1.
         -2   -1    0    0    0  501 -0.00000000000E+00 -0.00000000000E+00 -0.75247255116E+03  0.75247255116E+03  0.00000000000E+00 0.  1.
         23    2    1    2    0    0 -0.79788412580E+01 -0.25682532112E+02 -0.44188886763E+03  0.46001573937E+03  0.12500181908E+03 0.  0.
         23    2    1    2    0    0  0.79788412580E+01  0.25682532112E+02 -0.29329804452E+03  0.30974245081E+03  0.95882159689E+02 0.  0.
          5    1    3    3  502    0  0.23645537371E+02 -0.40084202358E+01 -0.10004512592E+02  0.26407558436E+02  0.47000000000E+01 0. -1.
         -5    1    3    3    0  502 -0.31624378629E+02 -0.21674111876E+02 -0.43188435503E+03  0.43360818093E+03  0.47000000000E+01 0. -1.
        -11    1    4    4    0    0 -0.29128159020E+01  0.55524642680E+02 -0.24959757475E+03  0.25571550551E+03  0.00000000000E+00 0.  1.
         11    1    4    4    0    0  0.10891657160E+02 -0.29842110568E+02 -0.43700469777E+02  0.54026945292E+02  0.00000000000E+00 0. -1.
<mgrwt>
<rscale>  0 0.12011628E+03</rscale>
<asrwt>0</asrwt>
<pdfrwt beam="1">  1        2 0.26593297E-02 0.12786207E+03</pdfrwt>
<pdfrwt beam="2">  1       -2 0.11576498E+00 0.12786207E+03</pdfrwt>
<totfact> 0.21336818E+03</totfact>
</mgrwt>
</event>
<event>
 8    1  0.1217420E-005  0.2074540E+03  0.7546771E-02  0.1147624E+00
          2   -1    0    0  501    0  0.00000000000E+00  0.00000000000E+00  0.13003557300E+04  0.13003557300E+04  0.00000000000E+00 0. -1.
         -2   -1    0    0    0  501 -0.00000000000E+00 -0.00000000000E+00 -0.32568892618E+02  0.32568892618E+02  0.00000000000E+00 0.  1.
         23    2    1    2    0    0  0.67058185823E+02  0.15137973311E+03  0.47996056960E+03  0.52287599904E+03  0.12499815247E+03 0.  0.
         23    2    1    2    0    0 -0.67058185823E+02 -0.15137973311E+03  0.78782626777E+03  0.81004862356E+03  0.89977333051E+02 0.  0.
          5    1    3    3  502    0  0.35445313206E+02  0.16591251526E+03  0.36219565774E+03  0.39998889664E+03  0.47000000000E+01 0.  1.
         -5    1    3    3    0  502  0.31612872617E+02 -0.14532782146E+02  0.11776491186E+03  0.12288710240E+03  0.47000000000E+01 0.  1.
        -11    1    4    4    0    0 -0.60345390570E+02 -0.46087769932E+02  0.22637857009E+03  0.23877375420E+03  0.00000000000E+00 0.  1.
         11    1    4    4    0    0 -0.67127952535E+01 -0.10529196318E+03  0.56144769768E+03  0.57127486936E+03  0.00000000000E+00 0. -1.
<mgrwt>
<rscale>  0 0.20252702E+03</rscale>
<asrwt>0</asrwt>
<pdfrwt beam="1">  1        2 0.20005469E+00 0.20745400E+03</pdfrwt>
<pdfrwt beam="2">  1       -2 0.50105999E-02 0.20745400E+03</pdfrwt>
<totfact> 0.34100434E+03</totfact>
</mgrwt>
</event>
<event>
 8    1  0.1020295E-005  0.1461641E+03  0.7546771E-02  0.1215400E+00
         -1   -1    0    0    0  501 -0.00000000000E+00  0.00000000000E+00  0.11259246469E+03  0.11259246469E+03  0.00000000000E+00 0.  1.
          1   -1    0    0  501    0  0.00000000000E+00 -0.00000000000E+00 -0.16428456196E+03  0.16428456196E+03  0.00000000000E+00 0. -1.
         23    2    1    2    0    0 -0.50640411894E+02 -0.56347914618E+02  0.48910433923E+01  0.14624592981E+03  0.12499764351E+03 0.  0.
         23    2    1    2    0    0  0.50640411894E+02  0.56347914618E+02 -0.56583140663E+02  0.13063109683E+03  0.90129311849E+02 0.  0.
          5    1    3    3  502    0  0.18970017903E+02  0.20606686000E+02 -0.25340839011E+02  0.38062385750E+02  0.47000000000E+01 0.  1.
         -5    1    3    3    0  502 -0.69610429797E+02 -0.76954600618E+02  0.30231882403E+02  0.10818354406E+03  0.47000000000E+01 0.  1.
        -11    1    4    4    0    0  0.76833605083E+02  0.39125430715E+02 -0.44568622454E+02  0.97059591521E+02  0.00000000000E+00 0.  1.
         11    1    4    4    0    0 -0.26193193190E+02  0.17222483903E+02 -0.12014518209E+02  0.33571505314E+02  0.00000000000E+00 0. -1.
<mgrwt>
<rscale>  0 0.13847203E+03</rscale>
<asrwt>0</asrwt>
<pdfrwt beam="2">  1        1 0.25274548E-01 0.14616412E+03</pdfrwt>
<pdfrwt beam="1">  1       -1 0.17321918E-01 0.14616412E+03</pdfrwt>
<totfact> 0.46235809E+03</totfact>
</mgrwt>
</event>
<event>
 8    1  0.1020295E-005  0.1452387E+03  0.7546771E-02  0.1216441E+00
          1   -1    0    0  501    0  0.00000000000E+00  0.00000000000E+00  0.23463758294E+03  0.23463758294E+03  0.00000000000E+00 0. -1.
         -1   -1    0    0    0  501 -0.00000000000E+00 -0.00000000000E+00 -0.14412655986E+03  0.14412655986E+03  0.00000000000E+00 0.  1.
         23    2    1    2    0    0 -0.73961709786E+02 -0.11677131441E+01 -0.84497159288E+02  0.16802992939E+03  0.12499035632E+03 0.  0.
         23    2    1    2    0    0  0.73961709786E+02  0.11677131441E+01  0.17500818237E+03  0.21073421341E+03  0.91155618232E+02 0.  0.
          5    1    3    3  502    0  0.34130283241E+02  0.85298324863E+01 -0.12147956140E+02  0.37513958932E+02  0.47000000000E+01 0. -1.
         -5    1    3    3    0  502 -0.10809199303E+03 -0.96975456303E+01 -0.72349203148E+02  0.13051597046E+03  0.47000000000E+01 0. -1.
        -11    1    4    4    0    0  0.23326130852E+02 -0.21723417539E+02  0.14320095148E+03  0.14670558189E+03  0.00000000000E+00 0. -1.
         11    1    4    4    0    0  0.50635578934E+02  0.22891130683E+02  0.31807230885E+02  0.64028631521E+02  0.00000000000E+00 0.  1.
<mgrwt>
<rscale>  0 0.13771210E+03</rscale>
<asrwt>0</asrwt>
<pdfrwt beam="1">  1        1 0.36098090E-01 0.14523873E+03</pdfrwt>
<pdfrwt beam="2">  1       -1 0.22173317E-01 0.14523873E+03</pdfrwt>
<totfact> 0.19935398E+03</totfact>
</mgrwt>
</event>
<event>
 8    1  0.1020295E-005  0.1285872E+03  0.7546771E-02  0.1244113E+00
          2   -1    0    0  501    0  0.00000000000E+00  0.00000000000E+00  0.14249482901E+03  0.14249482901E+03  0.00000000000E+00 0. -1.
         -2   -1    0    0    0  501 -0.00000000000E+00 -0.00000000000E+00 -0.96391288034E+02  0.96391288034E+02  0.00000000000E+00 0.  1.
         23    2    1    2    0    0  0.30144542642E+02 -0.93076923469E+00 -0.84441540413E+01  0.12886414675E+03  0.12500041919E+03 0.  0.
         23    2    1    2    0    0 -0.30144542642E+02  0.93076923469E+00  0.54547695019E+02  0.11002197030E+03  0.90663240257E+02 0.  0.
          5    1    3    3  502    0  0.13494381896E+01 -0.35354915419E+02 -0.54008453374E+02  0.64736342680E+02  0.47000000000E+01 0. -1.
         -5    1    3    3    0  502  0.28795104452E+02  0.34424146184E+02  0.45564299332E+02  0.64127804068E+02  0.47000000000E+01 0. -1.
        -11    1    4    4    0    0 -0.19944364233E+02 -0.13741864909E+01  0.80023768453E+02  0.82483147191E+02  0.00000000000E+00 0. -1.
         11    1    4    4    0    0 -0.10200178409E+02  0.23049557256E+01 -0.25476073434E+02  0.27538823106E+02  0.00000000000E+00 0.  1.
<mgrwt>
<rscale>  0 0.11938601E+03</rscale>
<asrwt>0</asrwt>
<pdfrwt beam="1">  1        2 0.21922281E-01 0.12858719E+03</pdfrwt>
<pdfrwt beam="2">  1       -2 0.14829429E-01 0.12858719E+03</pdfrwt>
<totfact> 0.82012397E+03</totfact>
</mgrwt>
</event>
<event>
 8    1  0.1020295E-005  0.1255136E+03  0.7546771E-02  0.1251389E+00
         -1   -1    0    0    0  501 -0.00000000000E+00  0.00000000000E+00  0.40375289551E+02  0.40375289551E+02  0.00000000000E+00 0.  1.
          1   -1    0    0  501    0  0.00000000000E+00 -0.00000000000E+00 -0.32246811436E+03  0.32246811436E+03  0.00000000000E+00 0. -1.
         23    2    1    2    0    0 -0.11233326214E+01  0.11301834549E+02 -0.10081932177E+03  0.16099133734E+03  0.12499872686E+03 0.  0.
         23    2    1    2    0    0  0.11233326214E+01 -0.11301834549E+02 -0.18127350305E+03  0.20185206657E+03  0.88063502837E+02 0.  0.
          5    1    3    3  502    0 -0.24087199989E+02 -0.34967916130E+02 -0.10041141395E+03  0.10912144799E+03  0.47000000000E+01 0.  1.
         -5    1    3    3    0  502  0.22963867367E+02  0.46269750678E+02 -0.40790782053E+00  0.51869889349E+02  0.47000000000E+01 0.  1.
        -11    1    4    4    0    0  0.31262991507E+02 -0.28620430564E+02 -0.47614092070E+02  0.63746415172E+02  0.00000000000E+00 0.  1.
         11    1    4    4    0    0 -0.30139658886E+02  0.17318596015E+02 -0.13365941098E+03  0.13810565140E+03  0.00000000000E+00 0. -1.
<mgrwt>
<rscale>  0 0.11510991E+03</rscale>
<asrwt>0</asrwt>
<pdfrwt beam="2">  1        1 0.49610478E-01 0.12551364E+03</pdfrwt>
<pdfrwt beam="1">  1       -1 0.62115831E-02 0.12551364E+03</pdfrwt>
<totfact> 0.95411133E+03</totfact>
</mgrwt>
</event>
<event>
 8    1  0.1020295E-005  0.1262027E+03  0.7546771E-02  0.1248907E+00
         -2   -1    0    0    0  501 -0.00000000000E+00  0.00000000000E+00  0.51902115161E+03  0.51902115161E+03  0.00000000000E+00 0.  1.
          2   -1    0    0  501    0  0.00000000000E+00 -0.00000000000E+00 -0.24838242342E+02  0.24838242342E+02  0.00000000000E+00 0. -1.
         23    2    1    2    0    0 -0.17272237406E+02 -0.18356125298E+01  0.35834046250E+03  0.37991448024E+03  0.12500170227E+03 0.  0.
         23    2    1    2    0    0  0.17272237406E+02  0.18356125298E+01  0.13584244677E+03  0.16394491371E+03  0.90128046303E+02 0.  0.
          5    1    3    3  502    0  0.43775330974E+02 -0.31979777802E+02  0.20449595093E+03  0.21161207371E+03  0.47000000000E+01 0. -1.
         -5    1    3    3    0  502 -0.61047568380E+02  0.30144165272E+02  0.15384451157E+03  0.16830240653E+03  0.47000000000E+01 0. -1.
        -11    1    4    4    0    0 -0.24019321814E+02 -0.39374228509E+01  0.11459215145E+03  0.11714859066E+03  0.00000000000E+00 0.  1.
         11    1    4    4    0    0  0.41291559220E+02  0.57730353807E+01  0.21250295314E+02  0.46796323053E+02  0.00000000000E+00 0. -1.
<mgrwt>
<rscale>  0 0.11654570E+03</rscale>
<asrwt>0</asrwt>
<pdfrwt beam="2">  1        2 0.38212685E-02 0.12620271E+03</pdfrwt>
<pdfrwt beam="1">  1       -2 0.79849399E-01 0.12620271E+03</pdfrwt>
<totfact> 0.30598069E+03</totfact>
</mgrwt>
</event>
<event>
 8    1  0.1171859E-005  0.2577804E+03  0.7546771E-02  0.1110738E+00
          1   -1    0    0  501    0  0.00000000000E+00  0.00000000000E+00  0.26207152793E+03  0.26207152793E+03  0.00000000000E+00 0. -1.
         -1   -1    0    0    0  501 -0.00000000000E+00 -0.00000000000E+00 -0.28119068941E+03  0.28119068941E+03  0.00000000000E+00 0.  1.
         23    2    1    2    0    0 -0.62106126074E+02 -0.21672248464E+03 -0.11421933433E+03  0.28195173437E+03  0.12499967173E+03 0.  0.
         23    2    1    2    0    0  0.62106126074E+02  0.21672248464E+03  0.95100172846E+02  0.26131048297E+03  0.91724148350E+02 0.  0.
          5    1    3    3  502    0  0.16125509005E+02 -0.80223297622E+02 -0.91632701467E+02  0.12294084553E+03  0.47000000000E+01 0.  1.
         -5    1    3    3    0  502 -0.78231635080E+02 -0.13649918702E+03 -0.22586632863E+02  0.15901088884E+03  0.47000000000E+01 0.  1.
        -11    1    4    4    0    0  0.64989733869E+01  0.16514665616E+03  0.48290290747E+02  0.17218480443E+03  0.00000000000E+00 0. -1.
         11    1    4    4    0    0  0.55607152687E+02  0.51575828481E+02  0.46809882099E+02  0.89125678542E+02  0.00000000000E+00 0.  1.
<mgrwt>
<rscale>  0 0.25410515E+03</rscale>
<asrwt>0</asrwt>
<pdfrwt beam="1">  1        1 0.40318696E-01 0.25778038E+03</pdfrwt>
<pdfrwt beam="2">  1       -1 0.43260106E-01 0.25778038E+03</pdfrwt>
<totfact> 0.55997870E+02</totfact>
</mgrwt>
</event>
<event>
 8    1  0.1020295E-005  0.1565696E+03  0.7546771E-02  0.1200219E+00
          1   -1    0    0  501    0  0.00000000000E+00  0.00000000000E+00  0.74020597553E+02  0.74020597553E+02  0.00000000000E+00 0. -1.
         -1   -1    0    0    0  501 -0.00000000000E+00 -0.00000000000E+00 -0.28410439467E+03  0.28410439467E+03  0.00000000000E+00 0.  1.
         23    2    1    2    0    0  0.94101408310E+02  0.57097552964E+01 -0.12720160412E+03  0.20172825655E+03  0.12500546007E+03 0.  0.
         23    2    1    2    0    0 -0.94101408310E+02 -0.57097552964E+01 -0.82882192995E+02  0.15639673567E+03  0.93288823885E+02 0.  0.
          5    1    3    3  502    0  0.11568909702E+03 -0.22126778848E+02 -0.11350097758E+03  0.16364022556E+03  0.47000000000E+01 0.  1.
         -5    1    3    3    0  502 -0.21587688706E+02  0.27836534144E+02 -0.13700626540E+02  0.38088030987E+02  0.47000000000E+01 0.  1.
        -11    1    4    4    0    0 -0.22526640259E+02 -0.45156376643E+02 -0.25515336205E+02  0.56547150720E+02  0.00000000000E+00 0. -1.
         11    1    4    4    0    0 -0.71574768051E+02  0.39446621347E+02 -0.57366856790E+02  0.99849584952E+02  0.00000000000E+00 0.  1.
<mgrwt>
<rscale>  0 0.15020705E+03</rscale>
<asrwt>0</asrwt>
<pdfrwt beam="1">  1        1 0.11387784E-01 0.15656961E+03</pdfrwt>
<pdfrwt beam="2">  1       -1 0.43708369E-01 0.15656961E+03</pdfrwt>
<totfact> 0.27561203E+03</totfact>
</mgrwt>
</event>
<event>
 8    1  0.1020295E-005  0.1538346E+03  0.7546771E-02  0.1203494E+00
         -2   -1    0    0    0  501 -0.00000000000E+00  0.00000000000E+00  0.54458801382E+03  0.54458801382E+03  0.00000000000E+00 0.  1.
          2   -1    0    0  501    0  0.00000000000E+00 -0.00000000000E+00 -0.37415629233E+02  0.37415629233E+02  0.00000000000E+00 0. -1.
         23    2    1    2    0    0  0.45752490920E+02 -0.77129076071E+02  0.30309227668E+03  0.33989708363E+03  0.12499165762E+03 0.  0.
         23    2    1    2    0    0 -0.45752490920E+02  0.77129076071E+02  0.20408010791E+03  0.24210655943E+03  0.94470687897E+02 0.  0.
          5    1    3    3  502    0 -0.11356665890E+02 -0.32574348434E+02  0.24351768840E+03  0.24599393611E+03  0.47000000000E+01 0. -1.
         -5    1    3    3    0  502  0.57109156810E+02 -0.44554727638E+02  0.59574588279E+02  0.93903147525E+02  0.47000000000E+01 0. -1.
        -11    1    4    4    0    0 -0.49127711736E+01 -0.19518032671E+02  0.63995512293E+02  0.67085874174E+02  0.00000000000E+00 0.  1.
         11    1    4    4    0    0 -0.40839719746E+02  0.96647108742E+02  0.14008459562E+03  0.17502068525E+03  0.00000000000E+00 0. -1.
<mgrwt>
<rscale>  0 0.14756757E+03</rscale>
<asrwt>0</asrwt>
<pdfrwt beam="2">  1        2 0.57562510E-02 0.15383465E+03</pdfrwt>
<pdfrwt beam="1">  1       -2 0.83782766E-01 0.15383465E+03</pdfrwt>
<totfact> 0.16288378E+03</totfact>
</mgrwt>
</event>
<event>
 8    1  0.1020295E-005  0.1485230E+03  0.7546771E-02  0.1211526E+00
          3   -1    0    0  501    0  0.00000000000E+00  0.00000000000E+00  0.46657574112E+02  0.46657574112E+02  0.00000000000E+00 0. -1.
         -3   -1    0    0    0  501 -0.00000000000E+00 -0.00000000000E+00 -0.52947216959E+03  0.52947216959E+03  0.00000000000E+00 0.  1.
         23    2    1    2    0    0 -0.20015859228E+01 -0.80083625477E+02 -0.40546992223E+03  0.43181587724E+03  0.12506678451E+03 0.  0.
         23    2    1    2    0    0  0.20015859228E+01  0.80083625477E+02 -0.77344673257E+02  0.14431386647E+03  0.91798148994E+02 0.  0.
          5    1    3    3  502    0  0.50148108878E+02 -0.68759813559E+02 -0.16807824602E+03  0.18845458755E+03  0.47000000000E+01 0. -1.
         -5    1    3    3    0  502 -0.52149694801E+02 -0.11323811918E+02 -0.23739167620E+03  0.24336128968E+03  0.47000000000E+01 0. -1.
        -11    1    4    4    0    0 -0.34826127057E+02  0.71683423426E+02 -0.69480407218E+02  0.10573031404E+03  0.00000000000E+00 0.  1.
         11    1    4    4    0    0  0.36827712980E+02  0.84002020506E+01 -0.78642660393E+01  0.38583552430E+02  0.00000000000E+00 0. -1.
<mgrwt>
<rscale>  0 0.14134821E+03</rscale>
<asrwt>0</asrwt>
<pdfrwt beam="1">  1        3 0.71780883E-02 0.14852304E+03</pdfrwt>
<pdfrwt beam="2">  1       -3 0.81457257E-01 0.14852304E+03</pdfrwt>
<totfact> 0.42913637E+02</totfact>
</mgrwt>
</event>
<event>
 8    1  0.1020295E-005  0.1347708E+03  0.7546771E-02  0.1232709E+00
         -1   -1    0    0    0  501 -0.00000000000E+00  0.00000000000E+00  0.11254181406E+03  0.11254181406E+03  0.00000000000E+00 0.  1.
          1   -1    0    0  501    0  0.00000000000E+00 -0.00000000000E+00 -0.12784185430E+03  0.12784185430E+03  0.00000000000E+00 0. -1.
         23    2    1    2    0    0 -0.48998184851E+02 -0.12168868262E+02 -0.15840218818E+02  0.13569852843E+03  0.12495709108E+03 0.  0.
         23    2    1    2    0    0  0.48998184851E+02  0.12168868262E+02  0.54017857660E+00  0.10468513993E+03  0.91704870407E+02 0.  0.
          5    1    3    3  502    0 -0.63892622072E+02 -0.51551390691E+02  0.14617738585E+02  0.83519945634E+02  0.47000000000E+01 0.  1.
         -5    1    3    3    0  502  0.14894437222E+02  0.39382522429E+02 -0.30457957403E+02  0.52178582792E+02  0.47000000000E+01 0.  1.
        -11    1    4    4    0    0  0.47954762153E+02  0.37617658633E+02 -0.27446539343E+02  0.66843548500E+02  0.00000000000E+00 0. -1.
         11    1    4    4    0    0  0.10434226975E+01 -0.25448790371E+02  0.27986717920E+02  0.37841591433E+02  0.00000000000E+00 0.  1.
<mgrwt>
<rscale>  0 0.12652221E+03</rscale>
<asrwt>0</asrwt>
<pdfrwt beam="2">  1        1 0.19667978E-01 0.13477084E+03</pdfrwt>
<pdfrwt beam="1">  1       -1 0.17314125E-01 0.13477084E+03</pdfrwt>
<totfact> 0.63212739E+03</totfact>
</mgrwt>
</event>
<event>
 8    1  0.1020295E-005  0.1267235E+03  0.7546771E-02  0.1246667E+00
          1   -1    0    0  501    0  0.00000000000E+00  0.00000000000E+00  0.91005365389E+02  0.91005365389E+02  0.00000000000E+00 0. -1.
         -1   -1    0    0    0  501 -0.00000000000E+00 -0.00000000000E+00 -0.14914076376E+03  0.14914076376E+03  0.00000000000E+00 0.  1.
         23    2    1    2    0    0  0.82663064819E+01 -0.19121490474E+02 -0.69687507581E+02  0.14462085325E+03  0.12499951704E+03 0.  0.
         23    2    1    2    0    0 -0.82663064819E+01  0.19121490474E+02  0.11552109214E+02  0.95525275894E+02  0.92507642315E+02 0.  0.
          5    1    3    3  502    0  0.17654472132E+02 -0.60726015595E+02 -0.74866787653E+00  0.63419081197E+02  0.47000000000E+01 0. -1.
         -5    1    3    3    0  502 -0.93881656500E+01  0.41604525120E+02 -0.68938839705E+02  0.81201772053E+02  0.47000000000E+01 0. -1.
        -11    1    4    4    0    0 -0.14415049239E+02  0.15940274291E+01 -0.39031638575E+02  0.41638964658E+02  0.00000000000E+00 0.  1.
         11    1    4    4    0    0  0.61487427567E+01  0.17527463045E+02  0.50583747788E+02  0.53886311236E+02  0.00000000000E+00 0. -1.
<mgrwt>
<rscale>  0 0.11786168E+03</rscale>
<asrwt>0</asrwt>
<pdfrwt beam="1">  1        1 0.14000826E-01 0.12672349E+03</pdfrwt>
<pdfrwt beam="2">  1       -1 0.22944733E-01 0.12672349E+03</pdfrwt>
<totfact> 0.62005004E+03</totfact>
</mgrwt>
</event>
<event>
 8    1  0.1020295E-005  0.1830137E+03  0.7546771E-02  0.1170029E+00
          1   -1    0    0  501    0  0.00000000000E+00  0.00000000000E+00  0.54008298368E+03  0.54008298368E+03  0.00000000000E+00 0. -1.
         -1   -1    0    0    0  501 -0.00000000000E+00 -0.00000000000E+00 -0.68412872710E+02  0.68412872710E+02  0.00000000000E+00 0.  1.
         23    2    1    2    0    0  0.13309397966E+03  0.12415327030E+02  0.11418654588E+03  0.21571414916E+03  0.12500351644E+03 0.  0.
         23    2    1    2    0    0 -0.13309397966E+03 -0.12415327030E+02  0.35748356509E+03  0.39278170723E+03  0.92816067902E+02 0.  0.
          5    1    3    3  502    0  0.50341197771E+02 -0.45038451564E+02  0.88883845840E+02  0.11173686215E+03  0.47000000000E+01 0. -1.
         -5    1    3    3    0  502  0.82752781884E+02  0.57453778594E+02  0.25302700043E+02  0.10397728701E+03  0.47000000000E+01 0. -1.
        -11    1    4    4    0    0  0.47952461248E+00 -0.24797244298E+02  0.30238663020E+02  0.39108950509E+02  0.00000000000E+00 0. -1.
         11    1    4    4    0    0 -0.13357350427E+03  0.12381917268E+02  0.32724490207E+03  0.35367275672E+03  0.00000000000E+00 0.  1.
<mgrwt>
<rscale>  0 0.17771889E+03</rscale>
<asrwt>0</asrwt>
<pdfrwt beam="1">  1        1 0.83089687E-01 0.18301373E+03</pdfrwt>
<pdfrwt beam="2">  1       -1 0.10525058E-01 0.18301373E+03</pdfrwt>
<totfact> 0.22641114E+03</totfact>
</mgrwt>
</event>
<event>
 8    1  0.1020295E-005  0.1362802E+03  0.7546771E-02  0.1226619E+00
         -1   -1    0    0    0  501 -0.00000000000E+00  0.00000000000E+00  0.68884179287E+02  0.68884179287E+02  0.00000000000E+00 0.  1.
          1   -1    0    0  501    0  0.00000000000E+00 -0.00000000000E+00 -0.23259450065E+03  0.23259450065E+03  0.00000000000E+00 0. -1.
         23    2    1    2    0    0 -0.74847865848E+01 -0.70405728967E+02 -0.10784205689E+03  0.17378778550E+03  0.11644439210E+03 0.  0.
         23    2    1    2    0    0  0.74847865848E+01  0.70405728967E+02 -0.55868264472E+02  0.12769089444E+03  0.90391995478E+02 0.  0.
          5    1    3    3  502    0  0.25469999079E+02 -0.76260643882E+02 -0.11385152335E+03  0.13945847420E+03  0.47000000000E+01 0. -1.
         -5    1    3    3    0  502 -0.32954785663E+02  0.58549149148E+01  0.60094664552E+01  0.34329311293E+02  0.47000000000E+01 0.  1.
        -11    1    4    4    0    0 -0.34836806430E+02  0.25247901049E+02  0.18501439025E+01  0.43063704231E+02  0.00000000000E+00 0.  1.
         11    1    4    4    0    0  0.42321593015E+02  0.45157827919E+02 -0.57718408374E+02  0.84627190211E+02  0.00000000000E+00 0. -1.
<mgrwt>
<rscale>  0 0.13056572E+03</rscale>
<asrwt>0</asrwt>
<pdfrwt beam="2">  1        1 0.35783770E-01 0.13628017E+03</pdfrwt>
<pdfrwt beam="1">  1       -1 0.10597566E-01 0.13628017E+03</pdfrwt>
<totfact> 0.64182034E+03</totfact>
</mgrwt>
</event>
<event>
 8    1  0.1020295E-005  0.1332185E+03  0.7546771E-02  0.1235241E+00
         -2   -1    0    0    0  501 -0.00000000000E+00  0.00000000000E+00  0.49511484174E+02  0.49511484174E+02  0.00000000000E+00 0.  1.
          2   -1    0    0  501    0  0.00000000000E+00 -0.00000000000E+00 -0.28154079979E+03  0.28154079979E+03  0.00000000000E+00 0. -1.
         23    2    1    2    0    0  0.32323479615E+02 -0.32819483513E+02 -0.13252823603E+03  0.18791196598E+03  0.12500099111E+03 0.  0.
         23    2    1    2    0    0 -0.32323479615E+02  0.32819483513E+02 -0.99501079590E+02  0.14314031799E+03  0.92014998575E+02 0.  0.
          5    1    3    3  502    0  0.63386288529E+02  0.24173788221E+02 -0.71989013975E+02  0.99028792497E+02  0.47000000000E+01 0.  1.
         -5    1    3    3    0  502 -0.31062808914E+02 -0.56993271734E+02 -0.60539222056E+02  0.88883173479E+02  0.47000000000E+01 0.  1.
        -11    1    4    4    0    0 -0.43810260741E+02  0.46853542267E+02 -0.29093484700E+02  0.70434538552E+02  0.00000000000E+00 0.  1.
         11    1    4    4    0    0  0.11486781125E+02 -0.14034058754E+02 -0.70407594890E+02  0.72705779440E+02  0.00000000000E+00 0. -1.
<mgrwt>
<rscale>  0 0.12489030E+03</rscale>
<asrwt>0</asrwt>
<pdfrwt beam="2">  1        2 0.43313969E-01 0.13321852E+03</pdfrwt>
<pdfrwt beam="1">  1       -2 0.76171515E-02 0.13321852E+03</pdfrwt>
<totfact> 0.11272841E+04</totfact>
</mgrwt>
</event>
<event>
 8    1  0.1020295E-005  0.1278524E+03  0.7546771E-02  0.1250044E+00
         -2   -1    0    0    0  501 -0.00000000000E+00  0.00000000000E+00  0.75098712272E+02  0.75098712272E+02  0.00000000000E+00 0.  1.
          2   -1    0    0  501    0  0.00000000000E+00 -0.00000000000E+00 -0.16235275841E+03  0.16235275841E+03  0.00000000000E+00 0. -1.
         23    2    1    2    0    0  0.25971882502E+02  0.68392855066E+01 -0.23099443225E+02  0.12992232284E+03  0.12499964475E+03 0.  0.
         23    2    1    2    0    0 -0.25971882502E+02 -0.68392855066E+01 -0.64154602913E+02  0.10752914784E+03  0.82008475496E+02 0.  0.
          5    1    3    3  502    0  0.72713415637E+02 -0.61312278345E+01  0.56479529337E+01  0.73340453644E+02  0.47000000000E+01 0.  1.
         -5    1    3    3    0  502 -0.46741533134E+02  0.12970513341E+02 -0.28747396159E+02  0.56581869198E+02  0.47000000000E+01 0.  1.
        -11    1    4    4    0    0 -0.72578633372E+01 -0.19281441904E+02  0.14846269701E+02  0.25394139208E+02  0.00000000000E+00 0.  1.
         11    1    4    4    0    0 -0.18714019165E+02  0.12442156397E+02 -0.79000872614E+02  0.82135008631E+02  0.00000000000E+00 0. -1.
<mgrwt>
<rscale>  0 0.11588496E+03</rscale>
<asrwt>0</asrwt>
<pdfrwt beam="2">  1        2 0.24977347E-01 0.12785236E+03</pdfrwt>
<pdfrwt beam="1">  1       -2 0.11553648E-01 0.12785236E+03</pdfrwt>
<totfact> 0.10597993E+04</totfact>
</mgrwt>
</event>
<event>
 8    1  0.1020295E-005  0.1383966E+03  0.7546771E-02  0.1226544E+00
          3   -1    0    0  501    0  0.00000000000E+00  0.00000000000E+00  0.33797127245E+02  0.33797127245E+02  0.00000000000E+00 0. -1.
         -3   -1    0    0    0  501 -0.00000000000E+00 -0.00000000000E+00 -0.49758714798E+03  0.49758714798E+03  0.00000000000E+00 0.  1.
         23    2    1    2    0    0 -0.56902252856E+02  0.17061269698E+02 -0.33299132033E+03  0.36060619335E+03  0.12499861583E+03 0.  0.
         23    2    1    2    0    0  0.56902252856E+02 -0.17061269698E+02 -0.13079870040E+03  0.17077808188E+03  0.92346629172E+02 0.  0.
          5    1    3    3  502    0 -0.75827212648E+02 -0.96536062918E+01 -0.10354903242E+03  0.12879227620E+03  0.47000000000E+01 0. -1.
         -5    1    3    3    0  502  0.18924959792E+02  0.26714875990E+02 -0.22944228791E+03  0.23181391715E+03  0.47000000000E+01 0. -1.
        -11    1    4    4    0    0  0.11300496077E+02 -0.19298680289E+01  0.14070343035E+02  0.18149384433E+02  0.00000000000E+00 0. -1.
         11    1    4    4    0    0  0.45601756779E+02 -0.15131401669E+02 -0.14486904343E+03  0.15262869744E+03  0.00000000000E+00 0.  1.
<mgrwt>
<rscale>  0 0.13061655E+03</rscale>
<asrwt>0</asrwt>
<pdfrwt beam="1">  1        3 0.51995582E-02 0.13839656E+03</pdfrwt>
<pdfrwt beam="2">  1       -3 0.76551867E-01 0.13839656E+03</pdfrwt>
<totfact> 0.81466158E+02</totfact>
</mgrwt>
</event>
<event>
 8    1  0.1020295E-005  0.1760111E+03  0.7546771E-02  0.1178300E+00
          2   -1    0    0  501    0  0.00000000000E+00  0.00000000000E+00  0.14934136024E+03  0.14934136024E+03  0.00000000000E+00 0.  1.
         -2   -1    0    0    0  501 -0.00000000000E+00 -0.00000000000E+00 -0.19217169742E+03  0.19217169742E+03  0.00000000000E+00 0. -1.
         23    2    1    2    0    0  0.11945292225E+03 -0.32965317931E+02 -0.66311090919E+02  0.18808788976E+03  0.12499672265E+03 0.  0.
         23    2    1    2    0    0 -0.11945292225E+03  0.32965317931E+02  0.23480753736E+02  0.15342516791E+03  0.87362598007E+02 0.  0.
          5    1    3    3  502    0  0.10740522410E+03 -0.75397197693E+02 -0.54588962401E+02  0.14220641476E+03  0.47000000000E+01 0.  1.
         -5    1    3    3    0  502  0.12047698157E+02  0.42431879762E+02 -0.11722128518E+02  0.45881474998E+02  0.47000000000E+01 0.  1.
        -11    1    4    4    0    0 -0.10566857404E+03 -0.10306756749E+02  0.14974211698E+02  0.10722081789E+03  0.00000000000E+00 0.  1.
         11    1    4    4    0    0 -0.13784348217E+02  0.43272074680E+02  0.85065420384E+01  0.46204350015E+02  0.00000000000E+00 0. -1.
<mgrwt>
<rscale>  0 0.16956744E+03</rscale>
<asrwt>0</asrwt>
<pdfrwt beam="1">  1        2 0.22975594E-01 0.17601106E+03</pdfrwt>
<pdfrwt beam="2">  1       -2 0.29564877E-01 0.17601106E+03</pdfrwt>
<totfact> 0.24365160E+03</totfact>
</mgrwt>
</event>
<event>
 8    1  0.1020295E-005  0.2593210E+03  0.7546771E-02  0.1109715E+00
         -4   -1    0    0    0  501 -0.00000000000E+00  0.00000000000E+00  0.22262180783E+03  0.22262180783E+03  0.00000000000E+00 0. -1.
          4   -1    0    0  501    0  0.00000000000E+00 -0.00000000000E+00 -0.29741881851E+03  0.29741881851E+03  0.00000000000E+00 0.  1.
         23    2    1    2    0    0  0.22720233447E+03 -0.12677676690E+01 -0.89203421038E+02  0.27423466012E+03  0.12499956185E+03 0.  0.
         23    2    1    2    0    0 -0.22720233447E+03  0.12677676690E+01  0.14406410361E+02  0.24580596622E+03  0.92685060009E+02 0.  0.
          5    1    3    3  502    0  0.28283632161E+02 -0.45584404587E+02 -0.31445990800E+02  0.62360581518E+02  0.47000000000E+01 0. -1.
         -5    1    3    3    0  502  0.19891870230E+03  0.44316636918E+02 -0.57757430238E+02  0.21187407860E+03  0.47000000000E+01 0. -1.
        -11    1    4    4    0    0 -0.36421535365E+02  0.48252021355E+01 -0.32787314220E+02  0.49242449043E+02  0.00000000000E+00 0.  1.
         11    1    4    4    0    0 -0.19078079910E+03 -0.35574344665E+01  0.47193724581E+02  0.19656351718E+03  0.00000000000E+00 0. -1.
<mgrwt>
<rscale>  0 0.25576412E+03</rscale>
<asrwt>0</asrwt>
<pdfrwt beam="2">  1        4 0.45756741E-01 0.25932103E+03</pdfrwt>
<pdfrwt beam="1">  1       -4 0.34249509E-01 0.25932103E+03</pdfrwt>
<totfact> 0.70211703E+01</totfact>
</mgrwt>
</event>
<event>
 7    1  0.1020295E-005  0.2096209E+03  0.7546771E-02  0.1153753E+00
         -1   -1    0    0    0  501 -0.00000000000E+00  0.00000000000E+00  0.68718799745E+02  0.68718799745E+02  0.00000000000E+00 0.  1.
          1   -1    0    0  501    0  0.00000000000E+00 -0.00000000000E+00 -0.77099167458E+03  0.77099167458E+03  0.00000000000E+00 0. -1.
         23    2    1    2    0    0  0.17299057943E+02  0.12935624499E+03 -0.57082189227E+03  0.59228311574E+03  0.89046959344E+02 0.  0.
          5    1    1    2  502    0 -0.32438246537E+02  0.26530620472E+02 -0.64434790124E+02  0.77006790865E+02  0.47000000000E+01 0. -1.
         -5    1    1    2    0  502  0.15139188593E+02 -0.15588686546E+03 -0.67016192437E+02  0.17042056772E+03  0.47000000000E+01 0.  1.
        -11    1    3    3    0    0  0.47429675364E+02  0.79367373059E+02 -0.25810644280E+03  0.27416726615E+03  0.00000000000E+00 0. -1.
         11    1    3    3    0    0 -0.30130617420E+02  0.49988871926E+02 -0.31271544947E+03  0.31811584959E+03  0.00000000000E+00 0.  1.
<mgrwt>
<rscale>  0 0.19531481E+03</rscale>
<asrwt>0</asrwt>
<pdfrwt beam="2">  1        1 0.11861410E+00 0.20962094E+03</pdfrwt>
<pdfrwt beam="1">  1       -1 0.10572123E-01 0.20962094E+03</pdfrwt>
<totfact> 0.13621210E+03</totfact>
</mgrwt>
</event>
<event>
 8    1  0.1020295E-005  0.1368553E+03  0.7546771E-02  0.1230127E+00
         -1   -1    0    0    0  501 -0.00000000000E+00  0.00000000000E+00  0.71992223257E+02  0.71992223257E+02  0.00000000000E+00 0.  1.
          1   -1    0    0  501    0  0.00000000000E+00 -0.00000000000E+00 -0.27311301579E+03  0.27311301579E+03  0.00000000000E+00 0. -1.
         23    2    1    2    0    0  0.23523077617E+02 -0.50500961841E+02 -0.23949454786E+02  0.13893509883E+03  0.12500281187E+03 0.  0.
         23    2    1    2    0    0 -0.23523077617E+02  0.50500961841E+02 -0.17717133775E+03  0.20617014021E+03  0.89514029456E+02 0.  0.
          5    1    3    3  502    0 -0.59910748598E+00  0.69145175895E+01 -0.64127843892E+02  0.64673331795E+02  0.47000000000E+01 0. -1.
         -5    1    3    3    0  502  0.24122185103E+02 -0.57415479430E+02  0.40178389106E+02  0.74261767037E+02  0.47000000000E+01 0. -1.
        -11    1    4    4    0    0 -0.40164497126E+02  0.43891766964E+02 -0.17855965192E+03  0.18821058241E+03  0.00000000000E+00 0. -1.
         11    1    4    4    0    0  0.16641419509E+02  0.66091948769E+01  0.13883141771E+01  0.17959557802E+02  0.00000000000E+00 0.  1.
<mgrwt>
<rscale>  0 0.12821595E+03</rscale>
<asrwt>0</asrwt>
<pdfrwt beam="2">  1        1 0.42017386E-01 0.13685534E+03</pdfrwt>
<pdfrwt beam="1">  1       -1 0.11075727E-01 0.13685534E+03</pdfrwt>
<totfact> 0.49191119E+03</totfact>
</mgrwt>
</event>
<event>
 8    1  0.1020295E-005  0.1455082E+03  0.7546771E-02  0.1216118E+00
          2   -1    0    0  501    0  0.00000000000E+00  0.00000000000E+00  0.11231140406E+03  0.11231140406E+03  0.00000000000E+00 0.  1.
         -2   -1    0    0    0  501 -0.00000000000E+00 -0.00000000000E+00 -0.21758373674E+03  0.21758373674E+03  0.00000000000E+00 0. -1.
         23    2    1    2    0    0 -0.72536689356E+02 -0.16904303917E+02 -0.14538980767E+03  0.20569595627E+03  0.12500121383E+03 0.  0.
         23    2    1    2    0    0  0.72536689356E+02  0.16904303917E+02  0.40117474986E+02  0.12419918453E+03  0.90932386115E+02 0.  0.
          5    1    3    3  502    0 -0.10831550304E+02 -0.60195967895E+02 -0.31281608004E+02  0.68858594468E+02  0.47000000000E+01 0. -1.
         -5    1    3    3    0  502 -0.61705139052E+02  0.43291663978E+02 -0.11410819966E+03  0.13683736181E+03  0.47000000000E+01 0. -1.
        -11    1    4    4    0    0  0.66566754861E+02 -0.27885504044E+02  0.28038292884E+02  0.77426610776E+02  0.00000000000E+00 0.  1.
         11    1    4    4    0    0  0.59699344950E+01  0.44789807961E+02  0.12079182102E+02  0.46772573751E+02  0.00000000000E+00 0. -1.
<mgrwt>
<rscale>  0 0.13794738E+03</rscale>
<asrwt>0</asrwt>
<pdfrwt beam="1">  1        2 0.17278678E-01 0.14550818E+03</pdfrwt>
<pdfrwt beam="2">  1       -2 0.33474421E-01 0.14550818E+03</pdfrwt>
<totfact> 0.26640419E+03</totfact>
</mgrwt>
</event>
<event>
 8    1  0.1020295E-005  0.2061719E+03  0.7546771E-02  0.1148979E+00
          1   -1    0    0  501    0  0.00000000000E+00  0.00000000000E+00  0.95417950385E+03  0.95417950385E+03  0.00000000000E+00 0. -1.
         -1   -1    0    0    0  501 -0.00000000000E+00 -0.00000000000E+00 -0.57060170661E+02  0.57060170661E+02  0.00000000000E+00 0.  1.
         23    2    1    2    0    0 -0.64918084826E+02 -0.15070954861E+03  0.19095451201E+03  0.28101688922E+03  0.12481642756E+03 0.  0.
         23    2    1    2    0    0  0.64918084826E+02  0.15070954861E+03  0.70616482118E+03  0.73022278529E+03  0.87343206418E+02 0.  0.
          5    1    3    3  502    0  0.75580825820E+01  0.50237363519E-01 -0.13897166136E+02  0.16502980419E+02  0.47000000000E+01 0.  1.
         -5    1    3    3    0  502 -0.72476167408E+02 -0.15075978598E+03  0.20485167815E+03  0.26451390880E+03  0.47000000000E+01 0.  1.
        -11    1    4    4    0    0  0.11393278334E+01  0.10821243089E+03  0.37480766866E+03  0.39011795236E+03  0.00000000000E+00 0. -1.
         11    1    4    4    0    0  0.63778756993E+02  0.42497117726E+02  0.33135715252E+03  0.34010483293E+03  0.00000000000E+00 0.  1.
<mgrwt>
<rscale>  0 0.20090395E+03</rscale>
<asrwt>0</asrwt>
<pdfrwt beam="1">  1        1 0.14679683E+00 0.20617193E+03</pdfrwt>
<pdfrwt beam="2">  1       -1 0.87784885E-02 0.20617193E+03</pdfrwt>
<totfact> 0.12940327E+03</totfact>
</mgrwt>
</event>
<event>
 8    1  0.1020295E-005  0.1581323E+03  0.7546771E-02  0.1198868E+00
          1   -1    0    0  501    0  0.00000000000E+00  0.00000000000E+00  0.92193872823E+02  0.92193872823E+02  0.00000000000E+00 0. -1.
         -1   -1    0    0    0  501 -0.00000000000E+00 -0.00000000000E+00 -0.46601382766E+03  0.46601382766E+03  0.00000000000E+00 0.  1.
         23    2    1    2    0    0  0.46108453786E+02 -0.85174220604E+02 -0.39359167144E+03  0.42417003352E+03  0.12500070458E+03 0.  0.
         23    2    1    2    0    0 -0.46108453786E+02  0.85174220604E+02  0.19771716600E+02  0.13403766696E+03  0.90523687629E+02 0.  0.
          5    1    3    3  502    0 -0.30140914889E+00 -0.69067197508E+02 -0.76144639764E+02  0.10290998389E+03  0.47000000000E+01 0.  1.
         -5    1    3    3    0  502  0.46409862935E+02 -0.16107023096E+02 -0.31744703168E+03  0.32126004963E+03  0.47000000000E+01 0.  1.
        -11    1    4    4    0    0  0.18809124243E+02 -0.12943065763E+01 -0.10729101138E+02  0.21692671470E+02  0.00000000000E+00 0.  1.
         11    1    4    4    0    0 -0.64917578029E+02  0.86468527180E+02  0.30500817738E+02  0.11234499549E+03  0.00000000000E+00 0. -1.
<mgrwt>
<rscale>  0 0.15131355E+03</rscale>
<asrwt>0</asrwt>
<pdfrwt beam="1">  1        1 0.14183673E-01 0.15813227E+03</pdfrwt>
<pdfrwt beam="2">  1       -1 0.71694434E-01 0.15813227E+03</pdfrwt>
<totfact> 0.81477238E+02</totfact>
</mgrwt>
</event>
<event>
 8    1  0.1020295E-005  0.1310404E+03  0.7546771E-02  0.1239699E+00
          1   -1    0    0  501    0  0.00000000000E+00  0.00000000000E+00  0.79679818116E+03  0.79679818116E+03  0.00000000000E+00 0. -1.
         -1   -1    0    0    0  501 -0.00000000000E+00 -0.00000000000E+00 -0.16572680136E+02  0.16572680136E+02  0.00000000000E+00 0.  1.
         23    2    1    2    0    0 -0.32379003929E+02 -0.22331431809E+02  0.43537053468E+03  0.45466372370E+03  0.12499802576E+03 0.  0.
         23    2    1    2    0    0  0.32379003929E+02  0.22331431809E+02  0.34485496635E+03  0.35870713759E+03  0.90547059608E+02 0.  0.
          5    1    3    3  502    0  0.25249852756E+02  0.34950316210E+02  0.91025545015E+02  0.10083064769E+03  0.47000000000E+01 0.  1.
         -5    1    3    3    0  502 -0.57628856685E+02 -0.57281748019E+02  0.34434498966E+03  0.35383307602E+03  0.47000000000E+01 0.  1.
        -11    1    4    4    0    0  0.33721323146E+02  0.53100483663E+02  0.27904537346E+03  0.28604739022E+03  0.00000000000E+00 0.  1.
         11    1    4    4    0    0 -0.13423192179E+01 -0.30769051854E+02  0.65809592889E+02  0.72659747378E+02  0.00000000000E+00 0. -1.
<mgrwt>
<rscale>  0 0.12208339E+03</rscale>
<asrwt>0</asrwt>
<pdfrwt beam="1">  1        1 0.12258431E+00 0.13104045E+03</pdfrwt>
<pdfrwt beam="2">  1       -1 0.25496437E-02 0.13104045E+03</pdfrwt>
<totfact> 0.10645167E+04</totfact>
</mgrwt>
</event>
<event>
 8    1  0.1020295E-005  0.1363742E+03  0.7546771E-02  0.1231323E+00
          3   -1    0    0  501    0  0.00000000000E+00  0.00000000000E+00  0.25036612271E+02  0.25036612271E+02  0.00000000000E+00 0. -1.
         -3   -1    0    0    0  501 -0.00000000000E+00 -0.00000000000E+00 -0.60542616774E+03  0.60542616774E+03  0.00000000000E+00 0.  1.
         23    2    1    2    0    0  0.47314957950E+02 -0.27100289533E+02 -0.39548230286E+03  0.41833499819E+03  0.12499915158E+03 0.  0.
         23    2    1    2    0    0 -0.47314957950E+02  0.27100289533E+02 -0.18490725261E+03  0.21212778182E+03  0.88511992493E+02 0.  0.
          5    1    3    3  502    0 -0.31500946733E+02 -0.12711313467E+02 -0.34897079259E+02  0.48926304540E+02  0.47000000000E+01 0.  1.
         -5    1    3    3    0  502  0.78815904684E+02 -0.14388976067E+02 -0.36058522360E+03  0.36940869365E+03  0.47000000000E+01 0.  1.
        -11    1    4    4    0    0 -0.14588658578E+02  0.63592737969E+01  0.62393894610E+01  0.17093838164E+02  0.00000000000E+00 0. -1.
         11    1    4    4    0    0 -0.32726299372E+02  0.20741015737E+02 -0.19114664207E+03  0.19503394366E+03  0.00000000000E+00 0.  1.
<mgrwt>
<rscale>  0 0.12742798E+03</rscale>
<asrwt>0</asrwt>
<pdfrwt beam="1">  1        3 0.38517865E-02 0.13637419E+03</pdfrwt>
<pdfrwt beam="2">  1       -3 0.93142488E-01 0.13637419E+03</pdfrwt>
<totfact> 0.84757756E+02</totfact>
</mgrwt>
</event>
<event>
 8    1  0.1020295E-005  0.1472608E+03  0.7546771E-02  0.1212657E+00
         -3   -1    0    0    0  501 -0.00000000000E+00  0.00000000000E+00  0.25615158716E+03  0.25615158716E+03  0.00000000000E+00 0.  1.
          3   -1    0    0  501    0  0.00000000000E+00 -0.00000000000E+00 -0.71373421238E+02  0.71373421238E+02  0.00000000000E+00 0. -1.
         23    2    1    2    0    0  0.75683557783E+02  0.18245947668E+02  0.11592682054E+03  0.18741605676E+03  0.12499934034E+03 0.  0.
         23    2    1    2    0    0 -0.75683557783E+02 -0.18245947668E+02  0.68851345381E+02  0.14010895164E+03  0.93963264327E+02 0.  0.
          5    1    3    3  502    0 -0.19362498448E+02 -0.27300492378E+02  0.57816263966E+02  0.66970393528E+02  0.47000000000E+01 0.  1.
         -5    1    3    3    0  502  0.95046056232E+02  0.45546440045E+02  0.58110556572E+02  0.12044566323E+03  0.47000000000E+01 0.  1.
        -11    1    4    4    0    0 -0.38897762150E+02 -0.93340466277E+01 -0.19122968961E+02  0.44337887507E+02  0.00000000000E+00 0. -1.
         11    1    4    4    0    0 -0.36785795634E+02 -0.89119010400E+01  0.87974314342E+02  0.95771064130E+02  0.00000000000E+00 0.  1.
<mgrwt>
<rscale>  0 0.14050031E+03</rscale>
<asrwt>0</asrwt>
<pdfrwt beam="2">  1        3 0.10980526E-01 0.14726083E+03</pdfrwt>
<pdfrwt beam="1">  1       -3 0.39407936E-01 0.14726083E+03</pdfrwt>
<totfact> 0.94238324E+02</totfact>
</mgrwt>
</event>
<event>
 8    1  0.1020295E-005  0.1302140E+03  0.7546771E-02  0.1241747E+00
          1   -1    0    0  501    0  0.00000000000E+00  0.00000000000E+00  0.74847409395E+02  0.74847409395E+02  0.00000000000E+00 0. -1.
         -1   -1    0    0    0  501 -0.00000000000E+00 -0.00000000000E+00 -0.17198935616E+03  0.17198935616E+03  0.00000000000E+00 0.  1.
         23    2    1    2    0    0 -0.35936796597E+02  0.53922424669E+01 -0.60716777463E+02  0.14367395344E+03  0.12504058622E+03 0.  0.
         23    2    1    2    0    0  0.35936796597E+02 -0.53922424669E+01 -0.36425169302E+02  0.10316281212E+03  0.89416123920E+02 0.  0.
          5    1    3    3  502    0 -0.67118085530E+02  0.10532886423E+02 -0.81003727200E+02  0.10582756220E+03  0.47000000000E+01 0. -1.
         -5    1    3    3    0  502  0.31181288933E+02 -0.51406439557E+01  0.20286949737E+02  0.37846391234E+02  0.47000000000E+01 0. -1.
        -11    1    4    4    0    0 -0.99837666911E+01  0.61012625414E+01 -0.52022699255E+02  0.53322249012E+02  0.00000000000E+00 0.  1.
         11    1    4    4    0    0  0.45920563288E+02 -0.11493505008E+02  0.15597529953E+02  0.49840563106E+02  0.00000000000E+00 0. -1.
<mgrwt>
<rscale>  0 0.12082187E+03</rscale>
<asrwt>0</asrwt>
<pdfrwt beam="1">  1        1 0.11514986E-01 0.13021397E+03</pdfrwt>
<pdfrwt beam="2">  1       -1 0.26459901E-01 0.13021397E+03</pdfrwt>
<totfact> 0.63493561E+03</totfact>
</mgrwt>
</event>
<event>
 8    1  0.1020295E-005  0.1325193E+03  0.7546771E-02  0.1234784E+00
          1   -1    0    0  501    0  0.00000000000E+00  0.00000000000E+00  0.72067926457E+03  0.72067926457E+03  0.00000000000E+00 0. -1.
         -1   -1    0    0    0  501 -0.00000000000E+00 -0.00000000000E+00 -0.19772030993E+02  0.19772030993E+02  0.00000000000E+00 0.  1.
         23    2    1    2    0    0 -0.26088260376E+02  0.35721263522E+02  0.41814412504E+03  0.43864094419E+03  0.12491902422E+03 0.  0.
         23    2    1    2    0    0  0.26088260376E+02 -0.35721263522E+02  0.28276310853E+03  0.30181035137E+03  0.95801391708E+02 0.  0.
          5    1    3    3  502    0  0.43995085601E+02  0.38305735240E+02  0.13971744483E+03  0.15147921079E+03  0.47000000000E+01 0. -1.
         -5    1    3    3    0  502 -0.70083345977E+02 -0.25844717180E+01  0.27842668021E+03  0.28716173340E+03  0.47000000000E+01 0. -1.
        -11    1    4    4    0    0  0.59212775494E+02 -0.78457914563E+01  0.13064809019E+03  0.14365456030E+03  0.00000000000E+00 0. -1.
         11    1    4    4    0    0 -0.33124515118E+02 -0.27875472065E+02  0.15211501834E+03  0.15815579107E+03  0.00000000000E+00 0.  1.
<mgrwt>
<rscale>  0 0.12518240E+03</rscale>
<asrwt>0</asrwt>
<pdfrwt beam="1">  1        1 0.11087371E+00 0.13251931E+03</pdfrwt>
<pdfrwt beam="2">  1       -1 0.30418515E-02 0.13251931E+03</pdfrwt>
<totfact> 0.95567065E+03</totfact>
</mgrwt>
</event>
<event>
 7    1  0.1020295E-005  0.1509176E+03  0.7546771E-02  0.1210762E+00
          2   -1    0    0  501    0  0.00000000000E+00  0.00000000000E+00  0.90910127272E+02  0.90910127272E+02  0.00000000000E+00 0. -1.
         -2   -1    0    0    0  501 -0.00000000000E+00 -0.00000000000E+00 -0.27908470772E+03  0.27908470772E+03  0.00000000000E+00 0.  1.
         23    2    1    2    0    0  0.62366460536E+02  0.39927374153E+02  0.12729827170E+02  0.11872070514E+03  0.91917281955E+02 0.  0.
          5    1    1    2  502    0 -0.32997867291E+02 -0.83804305875E+02 -0.85487069037E+02  0.12426644721E+03  0.47000000000E+01 0. -1.
         -5    1    1    2    0  502 -0.29368593245E+02  0.43876931723E+02 -0.11541733858E+03  0.12700768265E+03  0.47000000000E+01 0.  1.
        -11    1    3    3    0    0  0.40601737271E+02 -0.24990535680E+02  0.15678252335E+02  0.50188001945E+02  0.00000000000E+00 0. -1.
         11    1    3    3    0    0  0.21764723266E+02  0.64917909833E+02 -0.29484251652E+01  0.68532703192E+02  0.00000000000E+00 0.  1.
<mgrwt>
<rscale>  0 0.14192492E+03</rscale>
<asrwt>0</asrwt>
<pdfrwt beam="1">  1        2 0.13986174E-01 0.15091755E+03</pdfrwt>
<pdfrwt beam="2">  1       -2 0.42936108E-01 0.15091755E+03</pdfrwt>
<totfact> 0.21412061E+03</totfact>
</mgrwt>
</event>
<event>
 8    1  0.1020295E-005  0.1287396E+03  0.7546771E-02  0.1243245E+00
         -3   -1    0    0    0  501 -0.00000000000E+00  0.00000000000E+00  0.14259411767E+03  0.14259411767E+03  0.00000000000E+00 0.  1.
          3   -1    0    0  501    0  0.00000000000E+00 -0.00000000000E+00 -0.89766807764E+02  0.89766807764E+02  0.00000000000E+00 0. -1.
         23    2    1    2    0    0  0.27186318729E+02  0.14462533006E+02  0.38796801166E+02  0.13445843739E+03  0.12500247525E+03 0.  0.
         23    2    1    2    0    0 -0.27186318729E+02 -0.14462533006E+02  0.14030508741E+02  0.97902488044E+02  0.91868281810E+02 0.  0.
          5    1    3    3  502    0  0.68107310108E+02  0.14545861348E+02 -0.10095680444E+02  0.70528012421E+02  0.47000000000E+01 0.  1.
         -5    1    3    3    0  502 -0.40920991379E+02 -0.83328341721E-01  0.48892481609E+02  0.63930424971E+02  0.47000000000E+01 0.  1.
        -11    1    4    4    0    0  0.32355573068E+02 -0.15547596537E+02  0.13489919214E+02  0.38348256636E+02  0.00000000000E+00 0. -1.
         11    1    4    4    0    0 -0.59541891796E+02  0.10850635312E+01  0.54058952730E+00  0.59554231408E+02  0.00000000000E+00 0.  1.
<mgrwt>
<rscale>  0 0.11991015E+03</rscale>
<asrwt>0</asrwt>
<pdfrwt beam="2">  1        3 0.13810278E-01 0.12873958E+03</pdfrwt>
<pdfrwt beam="1">  1       -3 0.21937557E-01 0.12873958E+03</pdfrwt>
<totfact> 0.18500765E+03</totfact>
</mgrwt>
</event>
<event>
 8    1  0.1020295E-005  0.1377425E+03  0.7546771E-02  0.1223264E+00
          1   -1    0    0  501    0  0.00000000000E+00  0.00000000000E+00  0.12073328338E+03  0.12073328338E+03  0.00000000000E+00 0. -1.
         -1   -1    0    0    0  501 -0.00000000000E+00 -0.00000000000E+00 -0.13790875001E+03  0.13790875001E+03  0.00000000000E+00 0.  1.
         23    2    1    2    0    0  0.14689039215E+02  0.55941443350E+02 -0.20987445455E+02  0.13933224358E+03  0.12501115261E+03 0.  0.
         23    2    1    2    0    0 -0.14689039215E+02 -0.55941443350E+02  0.38119788208E+01  0.11930978981E+03  0.10428366029E+03 0.  0.
          5    1    3    3  502    0 -0.45061119040E+02  0.32938578488E+02 -0.43901540047E+02  0.71168037913E+02  0.47000000000E+01 0.  1.
         -5    1    3    3    0  502  0.59750158255E+02  0.23002864863E+02  0.22914094591E+02  0.68164205668E+02  0.47000000000E+01 0.  1.
        -11    1    4    4    0    0  0.39681094128E+01 -0.82112741607E+02 -0.12686792946E+02  0.83181746446E+02  0.00000000000E+00 0. -1.
         11    1    4    4    0    0 -0.18657148628E+02  0.26171298257E+02  0.16498771767E+02  0.36128043362E+02  0.00000000000E+00 0.  1.
<mgrwt>
<rscale>  0 0.13286622E+03</rscale>
<asrwt>0</asrwt>
<pdfrwt beam="1">  1        1 0.18574351E-01 0.13774252E+03</pdfrwt>
<pdfrwt beam="2">  1       -1 0.21216731E-01 0.13774252E+03</pdfrwt>
<totfact> 0.49190021E+03</totfact>
</mgrwt>
</event>
<event>
 8    1  0.1020295E-005  0.1463009E+03  0.7546771E-02  0.1214962E+00
         -1   -1    0    0    0  501 -0.00000000000E+00  0.00000000000E+00  0.36843237649E+02  0.36843237649E+02  0.00000000000E+00 0.  1.
          1   -1    0    0  501    0  0.00000000000E+00 -0.00000000000E+00 -0.47769922602E+03  0.47769922602E+03  0.00000000000E+00 0. -1.
         23    2    1    2    0    0 -0.80419117822E+01  0.75591682379E+02 -0.22739244889E+03  0.27039098023E+03  0.12500072635E+03 0.  0.
         23    2    1    2    0    0  0.80419117822E+01 -0.75591682379E+02 -0.21346353948E+03  0.24415148344E+03  0.90909237083E+02 0.  0.
          5    1    3    3  502    0  0.22506776133E+02 -0.27812962667E+02 -0.79496085768E+02  0.87303112869E+02  0.47000000000E+01 0.  1.
         -5    1    3    3    0  502 -0.30548687916E+02  0.10340464505E+03 -0.14789636312E+03  0.18308786736E+03  0.47000000000E+01 0.  1.
        -11    1    4    4    0    0 -0.33674674522E+02 -0.65379850030E+02 -0.11217069786E+03  0.13412969079E+03  0.00000000000E+00 0. -1.
         11    1    4    4    0    0  0.41716586304E+02 -0.10211832349E+02 -0.10129284162E+03  0.11002179264E+03  0.00000000000E+00 0.  1.
<mgrwt>
<rscale>  0 0.13879339E+03</rscale>
<asrwt>0</asrwt>
<pdfrwt beam="2">  1        1 0.73492185E-01 0.14630091E+03</pdfrwt>
<pdfrwt beam="1">  1       -1 0.56681907E-02 0.14630091E+03</pdfrwt>
<totfact> 0.67291896E+03</totfact>
</mgrwt>
</event>
<event>
 8    1  0.1020295E-005  0.1731633E+03  0.7546771E-02  0.1181017E+00
         -1   -1    0    0    0  501 -0.00000000000E+00  0.00000000000E+00  0.67898711484E+02  0.67898711484E+02  0.00000000000E+00 0.  1.
          1   -1    0    0  501    0  0.00000000000E+00 -0.00000000000E+00 -0.38404120707E+03  0.38404120707E+03  0.00000000000E+00 0. -1.
         23    2    1    2    0    0  0.11976104472E+03 -0.40768296432E+01 -0.17165654107E+03  0.24382680977E+03  0.12500486670E+03 0.  0.
         23    2    1    2    0    0 -0.11976104472E+03  0.40768296432E+01 -0.14448595452E+03  0.20811310879E+03  0.89864045228E+02 0.  0.
          5    1    3    3  502    0  0.74393748197E+02  0.44479509615E+02 -0.15083723790E+03  0.17403108597E+03  0.47000000000E+01 0.  1.
         -5    1    3    3    0  502  0.45367296520E+02 -0.48556339258E+02 -0.20819303162E+02  0.69795723794E+02  0.47000000000E+01 0.  1.
        -11    1    4    4    0    0 -0.45806892709E+02  0.74685822713E+01 -0.12232778187E+03  0.13083629985E+03  0.00000000000E+00 0. -1.
         11    1    4    4    0    0 -0.73954152008E+02 -0.33917526281E+01 -0.22158172653E+02  0.77276808943E+02  0.00000000000E+00 0.  1.
<mgrwt>
<rscale>  0 0.16699653E+03</rscale>
<asrwt>0</asrwt>
<pdfrwt beam="2">  1        1 0.59083264E-01 0.17316335E+03</pdfrwt>
<pdfrwt beam="1">  1       -1 0.10445955E-01 0.17316335E+03</pdfrwt>
<totfact> 0.35583800E+03</totfact>
</mgrwt>
</event>
<event>
 8    1  0.1020295E-005  0.1261402E+03  0.7546771E-02  0.1248610E+00
         -1   -1    0    0    0  501 -0.00000000000E+00  0.00000000000E+00  0.20099143596E+03  0.20099143596E+03  0.00000000000E+00 0.  1.
          1   -1    0    0  501    0  0.00000000000E+00 -0.00000000000E+00 -0.69226777354E+02  0.69226777354E+02  0.00000000000E+00 0. -1.
         23    2    1    2    0    0 -0.13390575570E+02  0.10339380673E+02  0.12486614109E+03  0.17749054984E+03  0.12500052714E+03 0.  0.
         23    2    1    2    0    0  0.13390575570E+02 -0.10339380673E+02  0.68985175152E+01  0.92727663470E+02  0.90909953921E+02 0.  0.
          5    1    3    3  502    0 -0.45443928022E+02 -0.34925817183E+01  0.13356604658E+03  0.14120668369E+03  0.47000000000E+01 0. -1.
         -5    1    3    3    0  502  0.32053352452E+02  0.13831962391E+02 -0.86999054907E+01  0.36283866147E+02  0.47000000000E+01 0. -1.
        -11    1    4    4    0    0  0.62318931398E+01 -0.44151888264E+02  0.27599849225E+02  0.52440226988E+02  0.00000000000E+00 0.  1.
         11    1    4    4    0    0  0.71586824305E+01  0.33812507591E+02 -0.20701331710E+02  0.40287436482E+02  0.00000000000E+00 0. -1.
<mgrwt>
<rscale>  0 0.11671887E+03</rscale>
<asrwt>0</asrwt>
<pdfrwt beam="2">  1        1 0.10650274E-01 0.12614017E+03</pdfrwt>
<pdfrwt beam="1">  1       -1 0.30921759E-01 0.12614017E+03</pdfrwt>
<totfact> 0.54139730E+03</totfact>
</mgrwt>
</event>
<event>
 8    1  0.1020295E-005  0.1216871E+03  0.7546771E-02  0.1241283E+00
         -1   -1    0    0    0  501 -0.00000000000E+00  0.00000000000E+00  0.80023331443E+03  0.80023331443E+03  0.00000000000E+00 0.  1.
          1   -1    0    0  501    0  0.00000000000E+00 -0.00000000000E+00 -0.39401805652E+02  0.39401805652E+02  0.00000000000E+00 0. -1.
         23    2    1    2    0    0  0.43513567815E+02 -0.10489992017E+02  0.68701305239E+03  0.69730834291E+03  0.11067303382E+03 0.  0.
         23    2    1    2    0    0 -0.43513567815E+02  0.10489992017E+02  0.73818456386E+02  0.14232677718E+03  0.11315598297E+03 0.  0.
          5    1    3    3  502    0 -0.23421878019E+02 -0.54199601124E+01  0.40710050646E+02  0.47511667632E+02  0.47000000000E+01 0. -1.
         -5    1    3    3    0  502  0.66935445835E+02 -0.50700319042E+01  0.64630300175E+03  0.64979667528E+03  0.47000000000E+01 0.  1.
        -11    1    4    4    0    0 -0.32046000953E+02 -0.11159638353E+02  0.10051748108E+03  0.10609075222E+03  0.00000000000E+00 0.  1.
         11    1    4    4    0    0 -0.11467566862E+02  0.21649630369E+02 -0.26699024691E+02  0.36236024952E+02  0.00000000000E+00 0. -1.
<mgrwt>
<rscale>  0 0.12110660E+03</rscale>
<asrwt>0</asrwt>
<pdfrwt beam="2">  1        1 0.60618169E-02 0.12168709E+03</pdfrwt>
<pdfrwt beam="1">  1       -1 0.12311281E+00 0.12168709E+03</pdfrwt>
<totfact> 0.78042432E+02</totfact>
</mgrwt>
</event>
<event>
 8    1  0.1020295E-005  0.1254574E+03  0.7546771E-02  0.1249335E+00
         -1   -1    0    0    0  501 -0.00000000000E+00  0.00000000000E+00  0.31858051129E+02  0.31858051129E+02  0.00000000000E+00 0. -1.
          1   -1    0    0  501    0  0.00000000000E+00 -0.00000000000E+00 -0.38157211531E+03  0.38157211531E+03  0.00000000000E+00 0.  1.
         23    2    1    2    0    0  0.75738162701E+01 -0.75466406689E+01 -0.17041703348E+03  0.21161643370E+03  0.12500094093E+03 0.  0.
         23    2    1    2    0    0 -0.75738162701E+01  0.75466406689E+01 -0.17929703070E+03  0.20181373273E+03  0.92016536694E+02 0.  0.
          5    1    3    3  502    0  0.14620212942E+02  0.43465030151E+02 -0.14843419551E+03  0.15542766764E+03  0.47000000000E+01 0. -1.
         -5    1    3    3    0  502 -0.70463966720E+01 -0.51011670819E+02 -0.21982837969E+02  0.56188766057E+02  0.47000000000E+01 0. -1.
        -11    1    4    4    0    0 -0.48043366571E+02  0.72080541829E+01 -0.12488156398E+03  0.13399823185E+03  0.00000000000E+00 0.  1.
         11    1    4    4    0    0  0.40469550301E+02  0.33858648606E+00 -0.54415466720E+02  0.67815500888E+02  0.00000000000E+00 0. -1.
<mgrwt>
<rscale>  0 0.11629649E+03</rscale>
<asrwt>0</asrwt>
<pdfrwt beam="2">  1        1 0.58703405E-01 0.12545736E+03</pdfrwt>
<pdfrwt beam="1">  1       -1 0.49012384E-02 0.12545736E+03</pdfrwt>
<totfact> 0.10992281E+04</totfact>
</mgrwt>
</event>
<event>
 8    1  0.1020295E-005  0.1307657E+03  0.7546771E-02  0.1238792E+00
         -2   -1    0    0    0  501 -0.00000000000E+00  0.00000000000E+00  0.93776169832E+02  0.93776169832E+02  0.00000000000E+00 0.  1.
          2   -1    0    0  501    0  0.00000000000E+00 -0.00000000000E+00 -0.14638896559E+03  0.14638896559E+03  0.00000000000E+00 0. -1.
         23    2    1    2    0    0 -0.31167810499E+02  0.22705104735E+02 -0.46494470411E+02  0.13878547364E+03  0.12495086123E+03 0.  0.
         23    2    1    2    0    0  0.31167810499E+02 -0.22705104735E+02 -0.61183253470E+01  0.10137966178E+03  0.93559861726E+02 0.  0.
          5    1    3    3  502    0 -0.66573746137E+02  0.49546625851E+02 -0.43975131443E+02  0.94036344003E+02  0.47000000000E+01 0. -1.
         -5    1    3    3    0  502  0.35405935638E+02 -0.26841521116E+02 -0.25193389681E+01  0.44749129634E+02  0.47000000000E+01 0. -1.
        -11    1    4    4    0    0 -0.26783339689E+02  0.76897438841E+01 -0.20233156977E+02  0.34436319303E+02  0.00000000000E+00 0. -1.
         11    1    4    4    0    0  0.57951150188E+02 -0.30394848619E+02  0.14114831630E+02  0.66943342482E+02  0.00000000000E+00 0.  1.
<mgrwt>
<rscale>  0 0.12264788E+03</rscale>
<asrwt>0</asrwt>
<pdfrwt beam="2">  1        2 0.22521379E-01 0.13076571E+03</pdfrwt>
<pdfrwt beam="1">  1       -2 0.14427103E-01 0.13076571E+03</pdfrwt>
<totfact> 0.83335373E+03</totfact>
</mgrwt>
</event>
<event>
 8    1  0.1020295E-005  0.1274696E+03  0.7546771E-02  0.1245788E+00
         -2   -1    0    0    0  501 -0.00000000000E+00  0.00000000000E+00  0.13150418496E+03  0.13150418496E+03  0.00000000000E+00 0.  1.
          2   -1    0    0  501    0  0.00000000000E+00 -0.00000000000E+00 -0.11435800759E+03  0.11435800759E+03  0.00000000000E+00 0. -1.
         23    2    1    2    0    0  0.24982072760E+02 -0.78032667475E+00  0.61082025063E+02  0.14134891886E+03  0.12499516074E+03 0.  0.
         23    2    1    2    0    0 -0.24982072760E+02  0.78032667475E+00 -0.43935847685E+02  0.10451327369E+03  0.91476514994E+02 0.  0.
          5    1    3    3  502    0  0.27384426477E+02 -0.47089919035E+02  0.74900952077E+02  0.92734081708E+02  0.47000000000E+01 0.  1.
         -5    1    3    3    0  502 -0.24023537172E+01  0.46309592360E+02 -0.13818927013E+02  0.48614837157E+02  0.47000000000E+01 0.  1.
        -11    1    4    4    0    0 -0.30518515028E+02  0.21895838896E+02 -0.64424944695E+02  0.74574667411E+02  0.00000000000E+00 0. -1.
         11    1    4    4    0    0  0.55364422683E+01 -0.21115512221E+02  0.20489097010E+02  0.29938606274E+02  0.00000000000E+00 0.  1.
<mgrwt>
<rscale>  0 0.11838347E+03</rscale>
<asrwt>0</asrwt>
<pdfrwt beam="2">  1        2 0.17593540E-01 0.12746962E+03</pdfrwt>
<pdfrwt beam="1">  1       -2 0.20231413E-01 0.12746962E+03</pdfrwt>
<totfact> 0.62775019E+03</totfact>
</mgrwt>
</event>
<event>
 8    1  0.1020295E-005  0.1299284E+03  0.7546771E-02  0.1241376E+00
          1   -1    0    0  501    0  0.00000000000E+00  0.00000000000E+00  0.16726832402E+03  0.16726832402E+03  0.00000000000E+00 0. -1.
         -1   -1    0    0    0  501 -0.00000000000E+00 -0.00000000000E+00 -0.16576116177E+03  0.16576116177E+03  0.00000000000E+00 0.  1.
         23    2    1    2    0    0 -0.35397738408E+02 -0.20110214637E+01 -0.12008943678E+03  0.17692616393E+03  0.12499740224E+03 0.  0.
         23    2    1    2    0    0  0.35397738408E+02  0.20110214637E+01  0.12159659902E+03  0.15610332186E+03  0.91244014112E+02 0.  0.
          5    1    3    3  502    0 -0.30320804278E+02 -0.58205007684E+02 -0.93612906083E+02  0.11442307581E+03  0.47000000000E+01 0.  1.
         -5    1    3    3    0  502 -0.50769341307E+01  0.56193986221E+02 -0.26476530693E+02  0.62503088124E+02  0.47000000000E+01 0.  1.
        -11    1    4    4    0    0  0.18471337215E+02  0.40424207000E+02  0.98798331257E+02  0.10833474544E+03  0.00000000000E+00 0. -1.
         11    1    4    4    0    0  0.16926401193E+02 -0.38413185537E+02  0.22798267763E+02  0.47768576422E+02  0.00000000000E+00 0.  1.
<mgrwt>
<rscale>  0 0.12104952E+03</rscale>
<asrwt>0</asrwt>
<pdfrwt beam="1">  1        1 0.25733588E-01 0.12992842E+03</pdfrwt>
<pdfrwt beam="2">  1       -1 0.25501717E-01 0.12992842E+03</pdfrwt>
<totfact> 0.24065422E+03</totfact>
</mgrwt>
</event>
<event>
 8    1  0.1020295E-005  0.1379951E+03  0.7546771E-02  0.1227436E+00
         -2   -1    0    0    0  501 -0.00000000000E+00  0.00000000000E+00  0.16718666708E+02  0.16718666708E+02  0.00000000000E+00 0.  1.
          2   -1    0    0  501    0  0.00000000000E+00 -0.00000000000E+00 -0.91041025761E+03  0.91041025761E+03  0.00000000000E+00 0. -1.
         23    2    1    2    0    0 -0.15922128297E+02 -0.55243551617E+02 -0.49425684955E+03  0.51315931241E+03  0.12544832569E+03 0.  0.
         23    2    1    2    0    0  0.15922128297E+02  0.55243551617E+02 -0.39943474135E+03  0.41396961191E+03  0.92289559656E+02 0.  0.
          5    1    3    3  502    0  0.16702557677E+02  0.36273953692E+02 -0.12520356543E+03  0.13150208342E+03  0.47000000000E+01 0.  1.
         -5    1    3    3    0  502 -0.32624685974E+02 -0.91517505309E+02 -0.36905328413E+03  0.38165722899E+03  0.47000000000E+01 0.  1.
        -11    1    4    4    0    0  0.51983484799E+02  0.41887348222E+02 -0.19960248031E+03  0.21047085969E+03  0.00000000000E+00 0.  1.
         11    1    4    4    0    0 -0.36061356502E+02  0.13356203395E+02 -0.19983226104E+03  0.20349875221E+03  0.00000000000E+00 0. -1.
<mgrwt>
<rscale>  0 0.13001320E+03</rscale>
<asrwt>0</asrwt>
<pdfrwt beam="2">  1        2 0.14006309E+00 0.13799510E+03</pdfrwt>
<pdfrwt beam="1">  1       -2 0.25721031E-02 0.13799510E+03</pdfrwt>
<totfact> 0.15245074E+04</totfact>
</mgrwt>
</event>
<event>
 8    1  0.1020295E-005  0.1260961E+03  0.7546771E-02  0.1250979E+00
          1   -1    0    0  501    0  0.00000000000E+00  0.00000000000E+00  0.13173943918E+02  0.13173943918E+02  0.00000000000E+00 0. -1.
         -1   -1    0    0    0  501 -0.00000000000E+00 -0.00000000000E+00 -0.87844598243E+03  0.87844598243E+03  0.00000000000E+00 0.  1.
         23    2    1    2    0    0  0.73263059206E+01  0.14889799126E+02 -0.54545824145E+03  0.55984365205E+03  0.12499936283E+03 0.  0.
         23    2    1    2    0    0 -0.73263059206E+01 -0.14889799126E+02 -0.31981379707E+03  0.33177627429E+03  0.86713612048E+02 0.  0.
          5    1    3    3  502    0 -0.28780577338E+02 -0.24875866138E+02 -0.43744364964E+03  0.43911976380E+03  0.47000000000E+01 0. -1.
         -5    1    3    3    0  502  0.36106883259E+02  0.39765665265E+02 -0.10801459181E+03  0.12072388826E+03  0.47000000000E+01 0. -1.
        -11    1    4    4    0    0  0.39320002416E+02 -0.11340492906E+02 -0.16836228878E+03  0.17326433462E+03  0.00000000000E+00 0.  1.
         11    1    4    4    0    0 -0.46646308337E+02 -0.35493062204E+01 -0.15145150829E+03  0.15851193967E+03  0.00000000000E+00 0. -1.
<mgrwt>
<rscale>  0 0.11534550E+03</rscale>
<asrwt>0</asrwt>
<pdfrwt beam="1">  1        1 0.20267598E-02 0.12609608E+03</pdfrwt>
<pdfrwt beam="2">  1       -1 0.13514559E+00 0.12609608E+03</pdfrwt>
<totfact> 0.28159466E+03</totfact>
</mgrwt>
</event>
<event>
 8    1  0.1020295E-005  0.1620280E+03  0.7546771E-02  0.1194167E+00
         -2   -1    0    0    0  501 -0.00000000000E+00  0.00000000000E+00  0.29717322497E+03  0.29717322497E+03  0.00000000000E+00 0.  1.
          2   -1    0    0  501    0  0.00000000000E+00 -0.00000000000E+00 -0.76859304931E+02  0.76859304931E+02  0.00000000000E+00 0. -1.
         23    2    1    2    0    0 -0.10016798978E+03 -0.24523695754E+02  0.90389159992E+02  0.18553510754E+03  0.12497214912E+03 0.  0.
         23    2    1    2    0    0  0.10016798978E+03  0.24523695754E+02  0.12992476005E+03  0.18849742236E+03  0.89530984211E+02 0.  0.
          5    1    3    3  502    0  0.24700204990E+02  0.43917292766E+01 -0.45955986280E+01  0.25934473955E+02  0.47000000000E+01 0. -1.
         -5    1    3    3    0  502 -0.12486819477E+03 -0.28915425030E+02  0.94984758620E+02  0.15960063358E+03  0.47000000000E+01 0. -1.
        -11    1    4    4    0    0  0.10230727857E+02 -0.13885428428E+02  0.73700378372E+02  0.75691602488E+02  0.00000000000E+00 0.  1.
         11    1    4    4    0    0  0.89937261924E+02  0.38409124182E+02  0.56224381677E+02  0.11280581988E+03  0.00000000000E+00 0. -1.
<mgrwt>
<rscale>  0 0.15524937E+03</rscale>
<asrwt>0</asrwt>
<pdfrwt beam="2">  1        2 0.11824509E-01 0.16202801E+03</pdfrwt>
<pdfrwt beam="1">  1       -2 0.45718957E-01 0.16202801E+03</pdfrwt>
<totfact> 0.23263231E+03</totfact>
</mgrwt>
</event>
<event>
 8    1  0.1020295E-005  0.1308227E+03  0.7546771E-02  0.1237414E+00
          1   -1    0    0  501    0  0.00000000000E+00  0.00000000000E+00  0.10336272380E+03  0.10336272380E+03  0.00000000000E+00 0. -1.
         -1   -1    0    0    0  501 -0.00000000000E+00 -0.00000000000E+00 -0.13775458528E+03  0.13775458528E+03  0.00000000000E+00 0.  1.
         23    2    1    2    0    0  0.14062759766E+02 -0.26554465445E+02 -0.40640983163E+02  0.13699005690E+03  0.12732511665E+03 0.  0.
         23    2    1    2    0    0 -0.14062759766E+02  0.26554465445E+02  0.62491216800E+01  0.10412725217E+03  0.99501418464E+02 0.  0.
          5    1    3    3  502    0 -0.16113593163E+02  0.46682246727E+02 -0.45434049001E+01  0.49815786375E+02  0.47000000000E+01 0. -1.
         -5    1    3    3    0  502  0.30176352929E+02 -0.73236712172E+02 -0.36097578263E+02  0.87174270529E+02  0.47000000000E+01 0.  1.
        -11    1    4    4    0    0 -0.14543932832E+02 -0.12923711856E+02 -0.39297840579E+02  0.43850525476E+02  0.00000000000E+00 0.  1.
         11    1    4    4    0    0  0.48117306560E+00  0.39478177301E+02  0.45546962259E+02  0.60276726699E+02  0.00000000000E+00 0. -1.
<mgrwt>
<rscale>  0 0.12351156E+03</rscale>
<asrwt>0</asrwt>
<pdfrwt beam="1">  1        1 0.15901957E-01 0.13082273E+03</pdfrwt>
<pdfrwt beam="2">  1       -1 0.21193013E-01 0.13082273E+03</pdfrwt>
<totfact> 0.59946786E+03</totfact>
</mgrwt>
</event>
<event>
 8    1  0.1020295E-005  0.1518628E+03  0.7546771E-02  0.1206704E+00
          1   -1    0    0  501    0  0.00000000000E+00  0.00000000000E+00  0.24207109300E+03  0.24207109300E+03  0.00000000000E+00 0. -1.
         -1   -1    0    0    0  501 -0.00000000000E+00 -0.00000000000E+00 -0.82285542697E+02  0.82285542697E+02  0.00000000000E+00 0.  1.
         23    2    1    2    0    0  0.65115266112E+02 -0.56530864001E+02  0.11427402369E+03  0.19005486976E+03  0.12500625810E+03 0.  0.
         23    2    1    2    0    0 -0.65115266112E+02  0.56530864001E+02  0.45511526616E+02  0.13430176593E+03  0.92357613723E+02 0.  0.
          5    1    3    3  502    0 -0.12615509673E+02  0.11574984355E+02  0.78666653488E+02  0.80645295697E+02  0.47000000000E+01 0.  1.
         -5    1    3    3    0  502  0.77730775785E+02 -0.68105848356E+02  0.35607370198E+02  0.10940957406E+03  0.47000000000E+01 0.  1.
        -11    1    4    4    0    0  0.86507687992E+01 -0.17776292338E+02  0.16235294540E+02  0.25581578507E+02  0.00000000000E+00 0. -1.
         11    1    4    4    0    0 -0.73766034911E+02  0.74307156339E+02  0.29276232076E+02  0.10872018743E+03  0.00000000000E+00 0.  1.
<mgrwt>
<rscale>  0 0.14503969E+03</rscale>
<asrwt>0</asrwt>
<pdfrwt beam="1">  1        1 0.37241706E-01 0.15186277E+03</pdfrwt>
<pdfrwt beam="2">  1       -1 0.12659314E-01 0.15186277E+03</pdfrwt>
<totfact> 0.46740827E+03</totfact>
</mgrwt>
</event>
<event>
 8    1  0.1020295E-005  0.1296430E+03  0.7546771E-02  0.1240947E+00
         -3   -1    0    0    0  501 -0.00000000000E+00  0.00000000000E+00  0.65392928762E+03  0.65392928762E+03  0.00000000000E+00 0.  1.
          3   -1    0    0  501    0  0.00000000000E+00 -0.00000000000E+00 -0.20091747418E+02  0.20091747418E+02  0.00000000000E+00 0. -1.
         23    2    1    2    0    0  0.33764055651E+02  0.65725626718E+01  0.34450336636E+03  0.36808951232E+03  0.12499643842E+03 0.  0.
         23    2    1    2    0    0 -0.33764055651E+02 -0.65725626718E+01  0.28933417385E+03  0.30593152272E+03  0.93255682939E+02 0.  0.
          5    1    3    3  502    0  0.67112810344E+02  0.18223535725E+02  0.10551270858E+03  0.12645650730E+03  0.47000000000E+01 0. -1.
         -5    1    3    3    0  502 -0.33348754693E+02 -0.11650973053E+02  0.23899065778E+03  0.24163300503E+03  0.47000000000E+01 0. -1.
        -11    1    4    4    0    0  0.77025775097E+01  0.36422040734E+02  0.14550418837E+03  0.15019109023E+03  0.00000000000E+00 0.  1.
         11    1    4    4    0    0 -0.41466633160E+02 -0.42994603406E+02  0.14382998548E+03  0.15574043248E+03  0.00000000000E+00 0. -1.
<mgrwt>
<rscale>  0 0.12131252E+03</rscale>
<asrwt>0</asrwt>
<pdfrwt beam="2">  1        3 0.30910386E-02 0.12964305E+03</pdfrwt>
<pdfrwt beam="1">  1       -3 0.10060449E+00 0.12964305E+03</pdfrwt>
<totfact> 0.99496279E+02</totfact>
</mgrwt>
</event>
<event>
 8    1  0.1020295E-005  0.2081007E+03  0.7546771E-02  0.1146062E+00
         -1   -1    0    0    0  501 -0.00000000000E+00  0.00000000000E+00  0.94731690686E+03  0.94731690686E+03  0.00000000000E+00 0.  1.
          1   -1    0    0  501    0  0.00000000000E+00 -0.00000000000E+00 -0.44435416127E+02  0.44435416127E+02  0.00000000000E+00 0. -1.
         23    2    1    2    0    0 -0.67792609993E+02 -0.15198128318E+03  0.56707849134E+03  0.60405621561E+03  0.12494698024E+03 0.  0.
         23    2    1    2    0    0  0.67792609993E+02  0.15198128318E+03  0.33580299940E+03  0.38769610738E+03  0.99249528288E+02 0.  0.
          5    1    3    3  502    0  0.29453279573E+02 -0.20800277542E+02  0.50268665954E+02  0.62041727895E+02  0.47000000000E+01 0.  1.
         -5    1    3    3    0  502 -0.97245889566E+02 -0.13118100564E+03  0.51680982538E+03  0.54201448771E+03  0.47000000000E+01 0.  1.
        -11    1    4    4    0    0  0.46536652096E+02  0.85439812440E+02  0.91340811759E+02  0.13344948644E+03  0.00000000000E+00 0.  1.
         11    1    4    4    0    0  0.21255957898E+02  0.66541470744E+02  0.24446218764E+03  0.25424662094E+03  0.00000000000E+00 0. -1.
<mgrwt>
<rscale>  0 0.20442010E+03</rscale>
<asrwt>0</asrwt>
<pdfrwt beam="2">  1        1 0.68362186E-02 0.20810069E+03</pdfrwt>
<pdfrwt beam="1">  1       -1 0.14574105E+00 0.20810069E+03</pdfrwt>
<totfact> 0.43989954E+02</totfact>
</mgrwt>
</event>
<event>
 8    1  0.1020295E-005  0.1854681E+03  0.7546771E-02  0.1167569E+00
          3   -1    0    0  501    0  0.00000000000E+00  0.00000000000E+00  0.52400152746E+02  0.52400152746E+02  0.00000000000E+00 0. -1.
         -3   -1    0    0    0  501 -0.00000000000E+00 -0.00000000000E+00 -0.64003293521E+03  0.64003293521E+03  0.00000000000E+00 0.  1.
         23    2    1    2    0    0  0.35951210594E+02  0.13221112661E+03 -0.40830223156E+03  0.44845193633E+03  0.12500462137E+03 0.  0.
         23    2    1    2    0    0 -0.35951210594E+02 -0.13221112661E+03 -0.17933055090E+03  0.24398115162E+03  0.92709677573E+02 0.  0.
          5    1    3    3  502    0  0.13763026772E+02 -0.20411963518E+02 -0.10750707673E+03  0.11038990311E+03  0.47000000000E+01 0.  1.
         -5    1    3    3    0  502  0.22188183822E+02  0.15262309013E+03 -0.30079515483E+03  0.33806203323E+03  0.47000000000E+01 0.  1.
        -11    1    4    4    0    0  0.39126118940E+01 -0.10262573640E+03 -0.16119098483E+03  0.19112792547E+03  0.00000000000E+00 0.  1.
         11    1    4    4    0    0 -0.39863822488E+02 -0.29585390208E+02 -0.18139566073E+02  0.52853226150E+02  0.00000000000E+00 0. -1.
<mgrwt>
<rscale>  0 0.18024203E+03</rscale>
<asrwt>0</asrwt>
<pdfrwt beam="1">  1        3 0.80615618E-02 0.18546813E+03</pdfrwt>
<pdfrwt beam="2">  1       -3 0.98466607E-01 0.18546813E+03</pdfrwt>
<totfact> 0.23925438E+02</totfact>
</mgrwt>
</event>
<event>
 8    1  0.2082874E-005  0.3471408E+03  0.7546771E-02  0.1064977E+00
         -2   -1    0    0    0  501 -0.00000000000E+00  0.00000000000E+00  0.69062443180E+02  0.69062443180E+02  0.00000000000E+00 0.  1.
          2   -1    0    0  501    0  0.00000000000E+00 -0.00000000000E+00 -0.17815812094E+04  0.17815812094E+04  0.00000000000E+00 0. -1.
         23    2    1    2    0    0  0.26986025620E+03 -0.17904556973E+03 -0.65872119991E+03  0.74459407242E+03  0.12499935824E+03 0.  0.
         23    2    1    2    0    0 -0.26986025620E+03  0.17904556973E+03 -0.10537975663E+04  0.11060495802E+04  0.89299994935E+02 0.  0.
          5    1    3    3  502    0  0.16706154907E+03 -0.14692783157E+03 -0.32492504940E+03  0.39382194783E+03  0.47000000000E+01 0.  1.
         -5    1    3    3    0  502  0.10279870713E+03 -0.32117738152E+02 -0.33379615051E+03  0.35077212459E+03  0.47000000000E+01 0.  1.
        -11    1    4    4    0    0 -0.97395864411E+02  0.11762060171E+03 -0.46262838535E+03  0.48718126328E+03  0.00000000000E+00 0.  1.
         11    1    4    4    0    0 -0.17246439179E+03  0.61424968014E+02 -0.59116918099E+03  0.61886831691E+03  0.00000000000E+00 0. -1.
<mgrwt>
<rscale>  0 0.34430630E+03</rscale>
<asrwt>0</asrwt>
<pdfrwt beam="2">  1        2 0.27408941E+00 0.34714077E+03</pdfrwt>
<pdfrwt beam="1">  1       -2 0.10624991E-01 0.34714077E+03</pdfrwt>
<totfact> 0.57811730E+02</totfact>
</mgrwt>
</event>
<event>
 8    1  0.1020295E-005  0.1301109E+03  0.7546771E-02  0.1240391E+00
          2   -1    0    0  501    0  0.00000000000E+00  0.00000000000E+00  0.28173100312E+02  0.28173100312E+02  0.00000000000E+00 0.  1.
         -2   -1    0    0    0  501 -0.00000000000E+00 -0.00000000000E+00 -0.46771341127E+03  0.46771341127E+03  0.00000000000E+00 0. -1.
         23    2    1    2    0    0  0.16369539787E+02  0.32197637994E+02 -0.25284817814E+03  0.28436078631E+03  0.12499682347E+03 0.  0.
         23    2    1    2    0    0 -0.16369539787E+02 -0.32197637994E+02 -0.18669213282E+03  0.21152572527E+03  0.92652740220E+02 0.  0.
          5    1    3    3  502    0  0.39046616152E+02 -0.38816923374E+02 -0.10065228392E+03  0.11482318595E+03  0.47000000000E+01 0. -1.
         -5    1    3    3    0  502 -0.22677076366E+02  0.71014561368E+02 -0.15219589422E+03  0.16953760036E+03  0.47000000000E+01 0. -1.
        -11    1    4    4    0    0  0.59303223791E+01 -0.54488765010E+02 -0.61302683171E+02  0.82232677202E+02  0.00000000000E+00 0.  1.
         11    1    4    4    0    0 -0.22299862166E+02  0.22291127017E+02 -0.12538944964E+03  0.12929304807E+03  0.00000000000E+00 0. -1.
<mgrwt>
<rscale>  0 0.12165512E+03</rscale>
<asrwt>0</asrwt>
<pdfrwt beam="1">  1        2 0.43343231E-02 0.13011094E+03</pdfrwt>
<pdfrwt beam="2">  1       -2 0.71955910E-01 0.13011094E+03</pdfrwt>
<totfact> 0.32514179E+03</totfact>
</mgrwt>
</event>
<event>
 8    1  0.1020295E-005  0.2825251E+03  0.7546771E-02  0.1096086E+00
         -2   -1    0    0    0  501 -0.00000000000E+00  0.00000000000E+00  0.13111554563E+03  0.13111554563E+03  0.00000000000E+00 0.  1.
          2   -1    0    0  501    0  0.00000000000E+00 -0.00000000000E+00 -0.58847164537E+03  0.58847164537E+03  0.00000000000E+00 0. -1.
         23    2    1    2    0    0 -0.22289110330E+03 -0.12048333214E+03 -0.27290437597E+03  0.39280683605E+03  0.12499493897E+03 0.  0.
         23    2    1    2    0    0  0.22289110330E+03  0.12048333214E+03 -0.18445172376E+03  0.32678035495E+03  0.92554225882E+02 0.  0.
          5    1    3    3  502    0 -0.12743088744E+02 -0.56192728232E+02 -0.29724191147E+02  0.65004819485E+02  0.47000000000E+01 0. -1.
         -5    1    3    3    0  502 -0.21014801456E+03 -0.64290603912E+02 -0.24318018483E+03  0.32780201657E+03  0.47000000000E+01 0. -1.
        -11    1    4    4    0    0  0.54499036895E+02  0.57891740684E+02 -0.10142298335E+03  0.12887288394E+03  0.00000000000E+00 0.  1.
         11    1    4    4    0    0  0.16839206641E+03  0.62591591460E+02 -0.83028740409E+02  0.19790747102E+03  0.00000000000E+00 0. -1.
<mgrwt>
<rscale>  0 0.27927466E+03</rscale>
<asrwt>0</asrwt>
<pdfrwt beam="2">  1        2 0.90534099E-01 0.28252506E+03</pdfrwt>
<pdfrwt beam="1">  1       -2 0.20171622E-01 0.28252506E+03</pdfrwt>
<totfact> 0.10708891E+03</totfact>
</mgrwt>
</event>
<event>
 8    1  0.1020295E-005  0.1949239E+03  0.7546771E-02  0.1158528E+00
         -4   -1    0    0    0  501 -0.00000000000E+00  0.00000000000E+00  0.36951267995E+02  0.36951267995E+02  0.00000000000E+00 0. -1.
          4   -1    0    0  501    0  0.00000000000E+00 -0.00000000000E+00 -0.99047453043E+03  0.99047453043E+03  0.00000000000E+00 0.  1.
         23    2    1    2    0    0  0.10976482924E+03  0.10159408442E+03 -0.37245134381E+03  0.42037520982E+03  0.12500255115E+03 0.  0.
         23    2    1    2    0    0 -0.10976482924E+03 -0.10159408442E+03 -0.58107191863E+03  0.60705058861E+03  0.92174653719E+02 0.  0.
          5    1    3    3  502    0 -0.14833900613E+02  0.62184281449E+02 -0.12724506987E+03  0.14247921698E+03  0.47000000000E+01 0.  1.
         -5    1    3    3    0  502  0.12459872985E+03  0.39409802969E+02 -0.24520627394E+03  0.27789599283E+03  0.47000000000E+01 0.  1.
        -11    1    4    4    0    0 -0.40685978619E+02 -0.96043208741E+02 -0.30210671465E+03  0.31960618555E+03  0.00000000000E+00 0. -1.
         11    1    4    4    0    0 -0.69078850623E+02 -0.55508756767E+01 -0.27896520397E+03  0.28744440306E+03  0.00000000000E+00 0.  1.
<mgrwt>
<rscale>  0 0.18992561E+03</rscale>
<asrwt>0</asrwt>
<pdfrwt beam="2">  1        4 0.15238068E+00 0.19492387E+03</pdfrwt>
<pdfrwt beam="1">  1       -4 0.56848111E-02 0.19492387E+03</pdfrwt>
<totfact> 0.10485039E+02</totfact>
</mgrwt>
</event>
<event>
 8    1  0.1020295E-005  0.1819523E+03  0.7546771E-02  0.1171219E+00
          2   -1    0    0  501    0  0.00000000000E+00  0.00000000000E+00  0.89111624832E+02  0.89111624832E+02  0.00000000000E+00 0. -1.
         -2   -1    0    0    0  501 -0.00000000000E+00 -0.00000000000E+00 -0.33076104328E+03  0.33076104328E+03  0.00000000000E+00 0.  1.
         23    2    1    2    0    0  0.13210823776E+03  0.54526494779E+01 -0.12008009547E+03  0.21800429364E+03  0.12499729936E+03 0.  0.
         23    2    1    2    0    0 -0.13210823776E+03 -0.54526494779E+01 -0.12156932298E+03  0.20186837448E+03  0.92138061912E+02 0.  0.
          5    1    3    3  502    0 -0.26735876116E+01 -0.77565402712E+01  0.20605220033E+02  0.22671062619E+02  0.47000000000E+01 0. -1.
         -5    1    3    3    0  502  0.13478182537E+03  0.13209189749E+02 -0.14068531550E+03  0.19533323102E+03  0.47000000000E+01 0. -1.
        -11    1    4    4    0    0 -0.59134721640E+02 -0.43777152099E+02 -0.32262773491E+02  0.80338290389E+02  0.00000000000E+00 0. -1.
         11    1    4    4    0    0 -0.72973516118E+02  0.38324502621E+02 -0.89306549494E+02  0.12153008409E+03  0.00000000000E+00 0.  1.
<mgrwt>
<rscale>  0 0.17651467E+03</rscale>
<asrwt>0</asrwt>
<pdfrwt beam="1">  1        2 0.13709481E-01 0.18195231E+03</pdfrwt>
<pdfrwt beam="2">  1       -2 0.50886315E-01 0.18195231E+03</pdfrwt>
<totfact> 0.15846743E+03</totfact>
</mgrwt>
</event>
<event>
 8    1  0.1020295E-005  0.1298265E+03  0.7546771E-02  0.1243140E+00
          4   -1    0    0  501    0  0.00000000000E+00  0.00000000000E+00  0.12069210889E+03  0.12069210889E+03  0.00000000000E+00 0.  1.
         -4   -1    0    0    0  501 -0.00000000000E+00 -0.00000000000E+00 -0.10734492675E+03  0.10734492675E+03  0.00000000000E+00 0. -1.
         23    2    1    2    0    0 -0.14376416769E+02 -0.31994147241E+02 -0.10954113927E+02  0.13028784291E+03  0.12499849032E+03 0.  0.
         23    2    1    2    0    0  0.14376416769E+02  0.31994147241E+02  0.24301296069E+02  0.97749192718E+02  0.87943418570E+02 0.  0.
          5    1    3    3  502    0  0.30340747143E+02 -0.46256932947E+02 -0.45530810203E+02  0.71801180078E+02  0.47000000000E+01 0.  1.
         -5    1    3    3    0  502 -0.44717163912E+02  0.14262785706E+02  0.34576696276E+02  0.58486662837E+02  0.47000000000E+01 0.  1.
        -11    1    4    4    0    0 -0.25694693542E+02 -0.11358528726E+02 -0.95806979013E+01  0.29682035363E+02  0.00000000000E+00 0. -1.
         11    1    4    4    0    0  0.40071110311E+02  0.43352675967E+02  0.33881993971E+02  0.68067157355E+02  0.00000000000E+00 0.  1.
<mgrwt>
<rscale>  0 0.11997409E+03</rscale>
<asrwt>0</asrwt>
<pdfrwt beam="1">  1        4 0.18568017E-01 0.12982654E+03</pdfrwt>
<pdfrwt beam="2">  1       -4 0.16514604E-01 0.12982654E+03</pdfrwt>
<totfact> 0.13385493E+03</totfact>
</mgrwt>
</event>
<event>
 8    1  0.1020295E-005  0.1379729E+03  0.7546771E-02  0.1226360E+00
          2   -1    0    0  501    0  0.00000000000E+00  0.00000000000E+00  0.52597472965E+03  0.52597472965E+03  0.00000000000E+00 0. -1.
         -2   -1    0    0    0  501 -0.00000000000E+00 -0.00000000000E+00 -0.29599675999E+02  0.29599675999E+02  0.00000000000E+00 0.  1.
         23    2    1    2    0    0 -0.56217930175E+02  0.16124026622E+02  0.28900388286E+03  0.32024954697E+03  0.12496434738E+03 0.  0.
         23    2    1    2    0    0  0.56217930175E+02 -0.16124026622E+02  0.20737117079E+03  0.23532485868E+03  0.94628466810E+02 0.  0.
          5    1    3    3  502    0 -0.41965937594E+02  0.54980043933E+02  0.26101880707E+03  0.27006823729E+03  0.47000000000E+01 0.  1.
         -5    1    3    3    0  502 -0.14251992581E+02 -0.38856017311E+02  0.27985075788E+02  0.50181309675E+02  0.47000000000E+01 0.  1.
        -11    1    4    4    0    0  0.48990119939E+02  0.17090769366E+02  0.19037793768E+03  0.19732178137E+03  0.00000000000E+00 0. -1.
         11    1    4    4    0    0  0.72278102351E+01 -0.33214795988E+02  0.16993233110E+02  0.38003077308E+02  0.00000000000E+00 0.  1.
<mgrwt>
<rscale>  0 0.13074151E+03</rscale>
<asrwt>0</asrwt>
<pdfrwt beam="1">  1        2 0.80919182E-01 0.13797292E+03</pdfrwt>
<pdfrwt beam="2">  1       -2 0.45537967E-02 0.13797292E+03</pdfrwt>
<totfact> 0.12608967E+04</totfact>
</mgrwt>
</event>
<event>
 8    1  0.1020295E-005  0.1598186E+03  0.7546771E-02  0.1195559E+00
         -2   -1    0    0    0  501 -0.00000000000E+00  0.00000000000E+00  0.32524868415E+03  0.32524868415E+03  0.00000000000E+00 0.  1.
          2   -1    0    0  501    0  0.00000000000E+00 -0.00000000000E+00 -0.68195416969E+02  0.68195416969E+02  0.00000000000E+00 0. -1.
         23    2    1    2    0    0 -0.96486628307E+02 -0.24635236743E+02  0.13933478514E+03  0.21202868862E+03  0.12500167246E+03 0.  0.
         23    2    1    2    0    0  0.96486628307E+02  0.24635236743E+02  0.11771848204E+03  0.18141541249E+03  0.95589468794E+02 0.  0.
          5    1    3    3  502    0 -0.47228490620E+01  0.40629089032E+02  0.65257703636E+02  0.77160132599E+02  0.47000000000E+01 0. -1.
         -5    1    3    3    0  502 -0.91763779245E+02 -0.65264325775E+02  0.74077081503E+02  0.13486855602E+03  0.47000000000E+01 0. -1.
        -11    1    4    4    0    0  0.73610639086E+02 -0.70110910066E+01  0.20628758935E+02  0.76767358161E+02  0.00000000000E+00 0. -1.
         11    1    4    4    0    0  0.22875989221E+02  0.31646327749E+02  0.97089723103E+02  0.10464805433E+03  0.00000000000E+00 0.  1.
<mgrwt>
<rscale>  0 0.15407015E+03</rscale>
<asrwt>0</asrwt>
<pdfrwt beam="2">  1        2 0.10491603E-01 0.15981859E+03</pdfrwt>
<pdfrwt beam="1">  1       -2 0.50038258E-01 0.15981859E+03</pdfrwt>
<totfact> 0.22520053E+03</totfact>
</mgrwt>
</event>
<event>
 8    1  0.1020295E-005  0.1377460E+03  0.7546771E-02  0.1227397E+00
         -1   -1    0    0    0  501 -0.00000000000E+00  0.00000000000E+00  0.21134821647E+02  0.21134821647E+02  0.00000000000E+00 0.  1.
          1   -1    0    0  501    0  0.00000000000E+00 -0.00000000000E+00 -0.77125351704E+03  0.77125351704E+03  0.00000000000E+00 0. -1.
         23    2    1    2    0    0  0.28613093850E+02 -0.50309665582E+02 -0.31643843347E+03  0.34511915588E+03  0.12499671193E+03 0.  0.
         23    2    1    2    0    0 -0.28613093850E+02  0.50309665582E+02 -0.43368026193E+03  0.44726918280E+03  0.92851390461E+02 0.  0.
          5    1    3    3  502    0  0.44306545393E+02  0.23935060781E+02 -0.19815281422E+03  0.20450570868E+03  0.47000000000E+01 0.  1.
         -5    1    3    3    0  502 -0.15693451543E+02 -0.74244726364E+02 -0.11828561925E+03  0.14061344721E+03  0.47000000000E+01 0.  1.
        -11    1    4    4    0    0 -0.17555465214E+02  0.76053992319E+02 -0.26420834315E+03  0.27549673809E+03  0.00000000000E+00 0.  1.
         11    1    4    4    0    0 -0.11057628636E+02 -0.25744326736E+02 -0.16947191878E+03  0.17177244472E+03  0.00000000000E+00 0. -1.
<mgrwt>
<rscale>  0 0.13003976E+03</rscale>
<asrwt>0</asrwt>
<pdfrwt beam="2">  1        1 0.11865436E+00 0.13774596E+03</pdfrwt>
<pdfrwt beam="1">  1       -1 0.32515117E-02 0.13774596E+03</pdfrwt>
<totfact> 0.78707629E+03</totfact>
</mgrwt>
</event>
<event>
 8    1  0.1020295E-005  0.1719824E+03  0.7546771E-02  0.1182174E+00
          1   -1    0    0  501    0  0.00000000000E+00  0.00000000000E+00  0.10835202355E+04  0.10835202355E+04  0.00000000000E+00 0. -1.
         -1   -1    0    0    0  501 -0.00000000000E+00 -0.00000000000E+00 -0.26582891246E+02  0.26582891246E+02  0.00000000000E+00 0.  1.
         23    2    1    2    0    0 -0.22578106569E+02 -0.11593566897E+03  0.38214353336E+03  0.41906039767E+03  0.12500834600E+03 0.  0.
         23    2    1    2    0    0  0.22578106569E+02  0.11593566897E+03  0.67479381087E+03  0.69104272905E+03  0.90788302946E+02 0.  0.
          5    1    3    3  502    0 -0.63422942774E+01  0.10842406504E+02 -0.25592773517E+01  0.13653657974E+02  0.47000000000E+01 0. -1.
         -5    1    3    3    0  502 -0.16235812291E+02 -0.12677807547E+03  0.38470281071E+03  0.40540673969E+03  0.47000000000E+01 0. -1.
        -11    1    4    4    0    0  0.50899041464E+02  0.10657611156E+03  0.50310139774E+03  0.51677867253E+03  0.00000000000E+00 0. -1.
         11    1    4    4    0    0 -0.28320934895E+02  0.93595574128E+01  0.17169241313E+03  0.17426405652E+03  0.00000000000E+00 0.  1.
<mgrwt>
<rscale>  0 0.16591699E+03</rscale>
<asrwt>0</asrwt>
<pdfrwt beam="1">  1        1 0.16669539E+00 0.17198237E+03</pdfrwt>
<pdfrwt beam="2">  1       -1 0.40896764E-02 0.17198237E+03</pdfrwt>
<totfact> 0.32686459E+03</totfact>
</mgrwt>
</event>
<event>
 8    1  0.1020295E-005  0.1321305E+03  0.7546771E-02  0.1244839E+00
         -1   -1    0    0    0  501 -0.00000000000E+00  0.00000000000E+00  0.11372226070E+03  0.11372226070E+03  0.00000000000E+00 0.  1.
          1   -1    0    0  501    0  0.00000000000E+00 -0.00000000000E+00 -0.15550564794E+03  0.15550564794E+03  0.00000000000E+00 0. -1.
         23    2    1    2    0    0 -0.27382252180E+01 -0.42290187380E+02  0.51504177139E+02  0.14181375305E+03  0.12514991996E+03 0.  0.
         23    2    1    2    0    0  0.27382252180E+01  0.42290187380E+02 -0.93287564382E+02  0.12741415559E+03  0.75735325651E+02 0.  0.
          5    1    3    3  502    0 -0.28097368298E+01  0.42075379547E+02 -0.80203087852E+00  0.42437783149E+02  0.47000000000E+01 0. -1.
         -5    1    3    3    0  502  0.71511611748E-01 -0.84365566928E+02  0.52306208017E+02  0.99375969903E+02  0.47000000000E+01 0. -1.
        -11    1    4    4    0    0  0.38398757836E+02  0.28831718522E+02 -0.59670717941E+02  0.76591952422E+02  0.00000000000E+00 0. -1.
         11    1    4    4    0    0 -0.35660532618E+02  0.13458468859E+02 -0.33616846441E+02  0.50822203172E+02  0.00000000000E+00 0.  1.
<mgrwt>
<rscale>  0 0.11895003E+03</rscale>
<asrwt>0</asrwt>
<pdfrwt beam="2">  1        1 0.23923946E-01 0.13213047E+03</pdfrwt>
<pdfrwt beam="1">  1       -1 0.17495732E-01 0.13213047E+03</pdfrwt>
<totfact> 0.48473969E+03</totfact>
</mgrwt>
</event>
<event>
 8    1  0.1020295E-005  0.1294927E+03  0.7546771E-02  0.1245600E+00
         -1   -1    0    0    0  501 -0.00000000000E+00  0.00000000000E+00  0.11539508826E+03  0.11539508826E+03  0.00000000000E+00 0.  1.
          1   -1    0    0  501    0  0.00000000000E+00 -0.00000000000E+00 -0.11095068607E+03  0.11095068607E+03  0.00000000000E+00 0. -1.
         23    2    1    2    0    0 -0.15668324727E+02  0.29911075235E+02  0.28126448767E+02  0.13251207057E+03  0.12501273097E+03 0.  0.
         23    2    1    2    0    0  0.15668324727E+02 -0.29911075235E+02 -0.23682046574E+02  0.93833703756E+02  0.84283781412E+02 0.  0.
          5    1    3    3  502    0  0.11093928217E+02  0.72261351984E+02  0.35925746978E+02  0.81593673344E+02  0.47000000000E+01 0. -1.
         -5    1    3    3    0  502 -0.26762252944E+02 -0.42350276749E+02 -0.77992982107E+01  0.50918397224E+02  0.47000000000E+01 0. -1.
        -11    1    4    4    0    0  0.24611563708E+02  0.15305832587E+02  0.15917732736E+02  0.33066172969E+02  0.00000000000E+00 0.  1.
         11    1    4    4    0    0 -0.89432389811E+01 -0.45216907823E+02 -0.39599779310E+02  0.60767530787E+02  0.00000000000E+00 0. -1.
<mgrwt>
<rscale>  0 0.11849517E+03</rscale>
<asrwt>0</asrwt>
<pdfrwt beam="2">  1        1 0.17069336E-01 0.12949267E+03</pdfrwt>
<pdfrwt beam="1">  1       -1 0.17753090E-01 0.12949267E+03</pdfrwt>
<totfact> 0.72597701E+03</totfact>
</mgrwt>
</event>
<event>
 7    1  0.1020295E-005  0.1694244E+03  0.7546771E-02  0.1193779E+00
          1   -1    0    0  501    0  0.00000000000E+00  0.00000000000E+00  0.13280647264E+03  0.13280647264E+03  0.00000000000E+00 0. -1.
         -1   -1    0    0    0  501 -0.00000000000E+00 -0.00000000000E+00 -0.16164333968E+03  0.16164333968E+03  0.00000000000E+00 0.  1.
         23    2    1    2    0    0 -0.58274988802E+02  0.54702103853E+02  0.91488014271E+01  0.12081929871E+03  0.90140489718E+02 0.  0.
          5    1    1    2  502    0  0.10881412381E+03 -0.41649538218E+02 -0.20597140363E+02  0.11841254058E+03  0.47000000000E+01 0. -1.
         -5    1    1    2    0  502 -0.50539135008E+02 -0.13052565636E+02 -0.17388528099E+02  0.55217973039E+02  0.47000000000E+01 0.  1.
        -11    1    3    3    0    0  0.22847480267E+02  0.12950687350E+02  0.13400939040E+02  0.29484111391E+02  0.00000000000E+00 0. -1.
         11    1    3    3    0    0 -0.81122469068E+02  0.41751416504E+02 -0.42521376127E+01  0.91335187316E+02  0.00000000000E+00 0.  1.
<mgrwt>
<rscale>  0 0.15558007E+03</rscale>
<asrwt>0</asrwt>
<pdfrwt beam="1">  1        1 0.20431765E-01 0.16942445E+03</pdfrwt>
<pdfrwt beam="2">  1       -1 0.24868206E-01 0.16942445E+03</pdfrwt>
<totfact> 0.33987919E+03</totfact>
</mgrwt>
</event>
<event>
 8    1  0.1020295E-005  0.1384231E+03  0.7546771E-02  0.1226638E+00
         -1   -1    0    0    0  501 -0.00000000000E+00  0.00000000000E+00  0.21640053092E+03  0.21640053092E+03  0.00000000000E+00 0.  1.
          1   -1    0    0  501    0  0.00000000000E+00 -0.00000000000E+00 -0.73133559328E+02  0.73133559328E+02  0.00000000000E+00 0. -1.
         23    2    1    2    0    0 -0.59027455059E+02 -0.72305748028E+01  0.55318599056E+02  0.14906743742E+03  0.12499772732E+03 0.  0.
         23    2    1    2    0    0  0.59027455059E+02  0.72305748028E+01  0.87948372539E+02  0.14046665283E+03  0.91975228530E+02 0.  0.
          5    1    3    3  502    0 -0.52001726510E+02 -0.40397563608E+02  0.82284415873E+02  0.10549387566E+03  0.47000000000E+01 0. -1.
         -5    1    3    3    0  502 -0.70257285493E+01  0.33166988805E+02 -0.26965816817E+02  0.43573561762E+02  0.47000000000E+01 0. -1.
        -11    1    4    4    0    0  0.33769523328E+02  0.23920754140E+02  0.99734293468E+02  0.10797922244E+03  0.00000000000E+00 0.  1.
         11    1    4    4    0    0  0.25257931732E+02 -0.16690179337E+02 -0.11785920929E+02  0.32487430397E+02  0.00000000000E+00 0. -1.
<mgrwt>
<rscale>  0 0.13055269E+03</rscale>
<asrwt>0</asrwt>
<pdfrwt beam="2">  1        1 0.11251317E-01 0.13842310E+03</pdfrwt>
<pdfrwt beam="1">  1       -1 0.33292389E-01 0.13842310E+03</pdfrwt>
<totfact> 0.44709837E+03</totfact>
</mgrwt>
</event>
<event>
 8    1  0.1020295E-005  0.1499958E+03  0.7546771E-02  0.1209556E+00
         -1   -1    0    0    0  501 -0.00000000000E+00  0.00000000000E+00  0.83980056160E+02  0.83980056160E+02  0.00000000000E+00 0.  1.
          1   -1    0    0  501    0  0.00000000000E+00 -0.00000000000E+00 -0.22326702672E+03  0.22326702672E+03  0.00000000000E+00 0. -1.
         23    2    1    2    0    0  0.80022191027E+02  0.21680885487E+02 -0.85679295025E+02  0.17274168617E+03  0.12500054677E+03 0.  0.
         23    2    1    2    0    0 -0.80022191027E+02 -0.21680885487E+02 -0.53607675535E+02  0.13450539671E+03  0.91347178480E+02 0.  0.
          5    1    3    3  502    0  0.19832944802E+02  0.22923868874E+02 -0.10496194186E+03  0.10935240602E+03  0.47000000000E+01 0. -1.
         -5    1    3    3    0  502  0.60189246224E+02 -0.12429833871E+01  0.19282646833E+02  0.63389280148E+02  0.47000000000E+01 0. -1.
        -11    1    4    4    0    0 -0.16614811404E+02  0.17478940015E+02 -0.54906426082E+02  0.59968999718E+02  0.00000000000E+00 0. -1.
         11    1    4    4    0    0 -0.63407379623E+02 -0.39159825501E+02  0.12987505477E+01  0.74536396994E+02  0.00000000000E+00 0.  1.
<mgrwt>
<rscale>  0 0.14284130E+03</rscale>
<asrwt>0</asrwt>
<pdfrwt beam="2">  1        1 0.34348773E-01 0.14999583E+03</pdfrwt>
<pdfrwt beam="1">  1       -1 0.12920009E-01 0.14999583E+03</pdfrwt>
<totfact> 0.50032842E+03</totfact>
</mgrwt>
</event>
<event>
 8    1  0.1020295E-005  0.1469360E+03  0.7546771E-02  0.1213657E+00
         -2   -1    0    0    0  501 -0.00000000000E+00  0.00000000000E+00  0.22268996036E+02  0.22268996036E+02  0.00000000000E+00 0. -1.
          2   -1    0    0  501    0  0.00000000000E+00 -0.00000000000E+00 -0.81517077552E+03  0.81517077552E+03  0.00000000000E+00 0.  1.
         23    2    1    2    0    0 -0.42095072401E+02 -0.64753828875E+02 -0.38133729969E+03  0.40866653677E+03  0.12500059466E+03 0.  0.
         23    2    1    2    0    0  0.42095072401E+02  0.64753828875E+02 -0.41156447979E+03  0.42877323479E+03  0.92174358520E+02 0.  0.
          5    1    3    3  502    0 -0.37223617564E+02 -0.93122293231E+02 -0.18786819372E+03  0.21301151944E+03  0.47000000000E+01 0.  1.
         -5    1    3    3    0  502 -0.48714548372E+01  0.28368464355E+02 -0.19346910597E+03  0.19565501733E+03  0.47000000000E+01 0.  1.
        -11    1    4    4    0    0  0.31614397102E+02 -0.10811108442E+02 -0.56794587530E+02  0.65893666938E+02  0.00000000000E+00 0. -1.
         11    1    4    4    0    0  0.10480675300E+02  0.75564937317E+02 -0.35476989226E+03  0.36287956785E+03  0.00000000000E+00 0.  1.
<mgrwt>
<rscale>  0 0.13975639E+03</rscale>
<asrwt>0</asrwt>
<pdfrwt beam="2">  1        2 0.12541088E+00 0.14693605E+03</pdfrwt>
<pdfrwt beam="1">  1       -2 0.34259997E-02 0.14693605E+03</pdfrwt>
<totfact> 0.11571727E+04</totfact>
</mgrwt>
</event>
<event>
 8    1  0.1258102E-005  0.2723910E+03  0.7546771E-02  0.1101625E+00
         -1   -1    0    0    0  501 -0.00000000000E+00  0.00000000000E+00  0.12669286202E+03  0.12669286202E+03  0.00000000000E+00 0.  1.
          1   -1    0    0  501    0  0.00000000000E+00 -0.00000000000E+00 -0.63523400823E+03  0.63523400823E+03  0.00000000000E+00 0. -1.
         23    2    1    2    0    0  0.71715064717E+01 -0.24190971320E+03 -0.12866942444E+03  0.30125181291E+03  0.12500037659E+03 0.  0.
         23    2    1    2    0    0 -0.71715064717E+01  0.24190971320E+03 -0.37987172176E+03  0.46067505734E+03  0.96681144027E+02 0.  0.
          5    1    3    3  502    0  0.16934624082E+02 -0.21058664737E+03 -0.15235503041E+03  0.26051422770E+03  0.47000000000E+01 0.  1.
         -5    1    3    3    0  502 -0.97631176101E+01 -0.31323065833E+02  0.23685605966E+02  0.40737585209E+02  0.47000000000E+01 0.  1.
        -11    1    4    4    0    0 -0.32750108507E+02  0.14439685025E+03 -0.29003523217E+03  0.32564314190E+03  0.00000000000E+00 0. -1.
         11    1    4    4    0    0  0.25578602035E+02  0.97512862952E+02 -0.89836489597E+02  0.13503191544E+03  0.00000000000E+00 0.  1.
<mgrwt>
<rscale>  0 0.26939741E+03</rscale>
<asrwt>0</asrwt>
<pdfrwt beam="2">  1        1 0.97728307E-01 0.27239096E+03</pdfrwt>
<pdfrwt beam="1">  1       -1 0.19491210E-01 0.27239096E+03</pdfrwt>
<totfact> 0.68505398E+02</totfact>
</mgrwt>
</event>
<event>
 8    1  0.1020295E-005  0.1314066E+03  0.7546771E-02  0.1238457E+00
         -2   -1    0    0    0  501 -0.00000000000E+00  0.00000000000E+00  0.24484590471E+02  0.24484590471E+02  0.00000000000E+00 0.  1.
          2   -1    0    0  501    0  0.00000000000E+00 -0.00000000000E+00 -0.54990375534E+03  0.54990375534E+03  0.00000000000E+00 0. -1.
         23    2    1    2    0    0 -0.16536405995E+02  0.37021286496E+02 -0.28425987283E+03  0.31316349461E+03  0.12499468258E+03 0.  0.
         23    2    1    2    0    0  0.16536405995E+02 -0.37021286496E+02 -0.24115929204E+03  0.26122485121E+03  0.91850913850E+02 0.  0.
          5    1    3    3  502    0  0.68326581833E+01  0.68123071217E+02 -0.81008705384E+02  0.10616938541E+03  0.47000000000E+01 0. -1.
         -5    1    3    3    0  502 -0.23369064178E+02 -0.31101784720E+02 -0.20325116745E+03  0.20699410920E+03  0.47000000000E+01 0. -1.
        -11    1    4    4    0    0 -0.28039001849E+02 -0.66300918020E+01 -0.24103766518E+02  0.37565080891E+02  0.00000000000E+00 0.  1.
         11    1    4    4    0    0  0.44575407844E+02 -0.30391194694E+02 -0.21705552552E+03  0.22365977031E+03  0.00000000000E+00 0. -1.
<mgrwt>
<rscale>  0 0.12285669E+03</rscale>
<asrwt>0</asrwt>
<pdfrwt beam="2">  1        2 0.84600573E-01 0.13140662E+03</pdfrwt>
<pdfrwt beam="1">  1       -2 0.37668603E-02 0.13140662E+03</pdfrwt>
<totfact> 0.15856128E+04</totfact>
</mgrwt>
</event>
<event>
 8    1  0.1020295E-005  0.1319262E+03  0.7546771E-02  0.1237827E+00
          1   -1    0    0  501    0  0.00000000000E+00  0.00000000000E+00  0.10395647333E+03  0.10395647333E+03  0.00000000000E+00 0. -1.
         -1   -1    0    0    0  501 -0.00000000000E+00 -0.00000000000E+00 -0.13981042398E+03  0.13981042398E+03  0.00000000000E+00 0.  1.
         23    2    1    2    0    0  0.35217292861E+02  0.23226343378E+02 -0.52324633601E+02  0.14192385054E+03  0.12499916530E+03 0.  0.
         23    2    1    2    0    0 -0.35217292861E+02 -0.23226343378E+02  0.16470682948E+02  0.10184304678E+03  0.91219526624E+02 0.  0.
          5    1    3    3  502    0  0.63483954497E+02  0.15408090195E+02  0.16000388371E+02  0.67421985658E+02  0.47000000000E+01 0.  1.
         -5    1    3    3    0  502 -0.28266661636E+02  0.78182531831E+01 -0.68325021972E+02  0.74501864878E+02  0.47000000000E+01 0.  1.
        -11    1    4    4    0    0 -0.22674166141E+02 -0.49560689679E+02  0.37262946572E+02  0.66022018743E+02  0.00000000000E+00 0. -1.
         11    1    4    4    0    0 -0.12543126720E+02  0.26334346301E+02 -0.20792263624E+02  0.35821028037E+02  0.00000000000E+00 0.  1.
<mgrwt>
<rscale>  0 0.12325151E+03</rscale>
<asrwt>0</asrwt>
<pdfrwt beam="1">  1        1 0.15993304E-01 0.13192616E+03</pdfrwt>
<pdfrwt beam="2">  1       -1 0.21509296E-01 0.13192616E+03</pdfrwt>
<totfact> 0.58134316E+03</totfact>
</mgrwt>
</event>
<event>
 7    1  0.1020295E-005  0.2403207E+03  0.7546771E-02  0.1157599E+00
          1   -1    0    0  501    0  0.00000000000E+00  0.00000000000E+00  0.39986377913E+03  0.39986377913E+03  0.00000000000E+00 0. -1.
         -1   -1    0    0    0  501 -0.00000000000E+00 -0.00000000000E+00 -0.73986532345E+02  0.73986532345E+02  0.00000000000E+00 0.  1.
         23    2    1    2    0    0  0.15443166967E+02 -0.25598097038E+02  0.14180398412E+03  0.17113423735E+03  0.91020894869E+02 0.  0.
          5    1    1    2  502    0 -0.11923619488E+03 -0.10357726611E+02  0.51220438648E+02  0.13026962810E+03  0.47000000000E+01 0. -1.
         -5    1    1    2    0  502  0.10379302791E+03  0.35955823649E+02  0.13285282401E+03  0.17244644602E+03  0.47000000000E+01 0.  1.
        -11    1    3    3    0    0 -0.31340631450E+02  0.73068817552E+01  0.83374023197E+02  0.89369197404E+02  0.00000000000E+00 0. -1.
         11    1    3    3    0    0  0.46783798417E+02 -0.32904978793E+02  0.58429960923E+02  0.81765039945E+02  0.00000000000E+00 0.  1.
<mgrwt>
<rscale>  0 0.19095905E+03</rscale>
<asrwt>0</asrwt>
<pdfrwt beam="1">  1        1 0.61517503E-01 0.24032073E+03</pdfrwt>
<pdfrwt beam="2">  1       -1 0.11382544E-01 0.24032073E+03</pdfrwt>
<totfact> 0.29943180E+03</totfact>
</mgrwt>
</event>
<event>
 8    1  0.1020295E-005  0.1490502E+03  0.7546771E-02  0.1210523E+00
         -1   -1    0    0    0  501 -0.00000000000E+00  0.00000000000E+00  0.15325730865E+03  0.15325730865E+03  0.00000000000E+00 0.  1.
          1   -1    0    0  501    0  0.00000000000E+00 -0.00000000000E+00 -0.12834384804E+03  0.12834384804E+03  0.00000000000E+00 0. -1.
         23    2    1    2    0    0 -0.27501465674E+02  0.76382746615E+02  0.47412000331E+02  0.15640925545E+03  0.12500121127E+03 0.  0.
         23    2    1    2    0    0  0.27501465674E+02 -0.76382746615E+02 -0.22498539717E+02  0.12519190125E+03  0.92607630646E+02 0.  0.
          5    1    3    3  502    0 -0.57637272476E+02  0.28178793775E+02 -0.20689557493E+02  0.67574014135E+02  0.47000000000E+01 0. -1.
         -5    1    3    3    0  502  0.30135806802E+02  0.48203952840E+02  0.68101557825E+02  0.88835241313E+02  0.47000000000E+01 0. -1.
        -11    1    4    4    0    0  0.49643169058E+02 -0.37584547497E+02 -0.43373509062E+02  0.75883487881E+02  0.00000000000E+00 0.  1.
         11    1    4    4    0    0 -0.22141703384E+02 -0.38798199118E+02  0.20874969345E+02  0.49308413366E+02  0.00000000000E+00 0. -1.
<mgrwt>
<rscale>  0 0.14210561E+03</rscale>
<asrwt>0</asrwt>
<pdfrwt beam="2">  1        1 0.19745207E-01 0.14905018E+03</pdfrwt>
<pdfrwt beam="1">  1       -1 0.23578048E-01 0.14905018E+03</pdfrwt>
<totfact> 0.38500352E+03</totfact>
</mgrwt>
</event>
<event>
 8    1  0.1020295E-005  0.1287001E+03  0.7546771E-02  0.1245472E+00
         -2   -1    0    0    0  501 -0.00000000000E+00  0.00000000000E+00  0.10358416254E+02  0.10358416254E+02  0.00000000000E+00 0. -1.
          2   -1    0    0  501    0  0.00000000000E+00 -0.00000000000E+00 -0.11893342433E+04  0.11893342433E+04  0.00000000000E+00 0.  1.
         23    2    1    2    0    0  0.30305055816E+02 -0.39542948595E+01 -0.72697317786E+03  0.73827753356E+03  0.12501872807E+03 0.  0.
         23    2    1    2    0    0 -0.30305055816E+02  0.39542948595E+01 -0.45200264914E+03  0.46141512595E+03  0.87541366064E+02 0.  0.
          5    1    3    3  502    0  0.82419581683E+01  0.45612877284E+02 -0.11785104504E+03  0.12672577980E+03  0.47000000000E+01 0.  1.
         -5    1    3    3    0  502  0.22063097648E+02 -0.49567172143E+02 -0.60912213282E+03  0.61155175375E+03  0.47000000000E+01 0.  1.
        -11    1    4    4    0    0 -0.58821361320E+02  0.16899472385E+02 -0.28416652154E+03  0.29068222628E+03  0.00000000000E+00 0. -1.
         11    1    4    4    0    0  0.28516305504E+02 -0.12945177525E+02 -0.16783612760E+03  0.17073289967E+03  0.00000000000E+00 0.  1.
<mgrwt>
<rscale>  0 0.11857164E+03</rscale>
<asrwt>0</asrwt>
<pdfrwt beam="2">  1        2 0.18297450E+00 0.12870010E+03</pdfrwt>
<pdfrwt beam="1">  1       -2 0.15936025E-02 0.12870010E+03</pdfrwt>
<totfact> 0.20868834E+04</totfact>
</mgrwt>
</event>
<event>
 8    1  0.1020295E-005  0.1785273E+03  0.7546771E-02  0.1173403E+00
         -2   -1    0    0    0  501 -0.00000000000E+00  0.00000000000E+00  0.45421556755E+03  0.45421556755E+03  0.00000000000E+00 0.  1.
          2   -1    0    0  501    0  0.00000000000E+00 -0.00000000000E+00 -0.64668732375E+02  0.64668732375E+02  0.00000000000E+00 0. -1.
         23    2    1    2    0    0  0.19277189020E+02 -0.13302225576E+03  0.23127467253E+03  0.29216426697E+03  0.11749661353E+03 0.  0.
         23    2    1    2    0    0 -0.19277189020E+02  0.13302225576E+03  0.15827216264E+03  0.22672003296E+03  0.91023982194E+02 0.  0.
          5    1    3    3  502    0 -0.79029518475E+01 -0.14311620588E+03  0.15884730364E+03  0.21400761881E+03  0.47000000000E+01 0. -1.
         -5    1    3    3    0  502  0.27180140868E+02  0.10093950121E+02  0.72427368893E+02  0.78156648159E+02  0.47000000000E+01 0.  1.
        -11    1    4    4    0    0 -0.21819074379E+02  0.14727742975E+02  0.81568539911E+02  0.85711172685E+02  0.00000000000E+00 0. -1.
         11    1    4    4    0    0  0.25418853587E+01  0.11829451278E+03  0.76703622729E+02  0.14100886027E+03  0.00000000000E+00 0.  1.
<mgrwt>
<rscale>  0 0.17433312E+03</rscale>
<asrwt>0</asrwt>
<pdfrwt beam="2">  1        2 0.99490360E-02 0.17852727E+03</pdfrwt>
<pdfrwt beam="1">  1       -2 0.69879316E-01 0.17852727E+03</pdfrwt>
<totfact> 0.12153984E+03</totfact>
</mgrwt>
</event>
<event>
 8    1  0.1020295E-005  0.1935124E+03  0.7546771E-02  0.1159832E+00
          2   -1    0    0  501    0  0.00000000000E+00  0.00000000000E+00  0.13064551228E+03  0.13064551228E+03  0.00000000000E+00 0. -1.
         -2   -1    0    0    0  501 -0.00000000000E+00 -0.00000000000E+00 -0.38941549917E+03  0.38941549917E+03  0.00000000000E+00 0.  1.
         23    2    1    2    0    0  0.10752426878E+03 -0.10129888793E+03 -0.28441107236E+03  0.34400104283E+03  0.12499650521E+03 0.  0.
         23    2    1    2    0    0 -0.10752426878E+03  0.10129888793E+03  0.25641085465E+02  0.17605996862E+03  0.92286045615E+02 0.  0.
          5    1    3    3  502    0  0.93591052070E+02 -0.70518916819E+02 -0.28675277232E+03  0.30980872339E+03  0.47000000000E+01 0. -1.
         -5    1    3    3    0  502  0.13933216712E+02 -0.30779971113E+02  0.23416999630E+01  0.34192319435E+02  0.47000000000E+01 0. -1.
        -11    1    4    4    0    0  0.27079320419E+00  0.16144672948E+02  0.34820122326E+02  0.38381827892E+02  0.00000000000E+00 0. -1.
         11    1    4    4    0    0 -0.10779506199E+03  0.85154214984E+02 -0.91790368611E+01  0.13767814073E+03  0.00000000000E+00 0.  1.
<mgrwt>
<rscale>  0 0.18848768E+03</rscale>
<asrwt>0</asrwt>
<pdfrwt beam="1">  1        2 0.20099310E-01 0.19351243E+03</pdfrwt>
<pdfrwt beam="2">  1       -2 0.59910077E-01 0.19351243E+03</pdfrwt>
<totfact> 0.72915520E+02</totfact>
</mgrwt>
</event>
<event>
 7    1  0.1020295E-005  0.1442573E+03  0.7546771E-02  0.1208606E+00
          1   -1    0    0  501    0  0.00000000000E+00  0.00000000000E+00  0.81805212333E+03  0.81805212333E+03  0.00000000000E+00 0. -1.
         -1   -1    0    0    0  501 -0.00000000000E+00 -0.00000000000E+00 -0.25549203170E+02  0.25549203170E+02  0.00000000000E+00 0.  1.
         23    2    1    2    0    0  0.10497216143E+02 -0.65516099766E+02  0.32843662221E+03  0.35763044502E+03  0.12500547797E+03 0.  0.
          5    1    3    3  502    0 -0.50772677337E+02 -0.29416032252E+02  0.22099065645E+03  0.22869658492E+03  0.47000000000E+01 0.  1.
         -5    1    3    3    0  502  0.61269893480E+02 -0.36100067514E+02  0.10744596576E+03  0.12893386010E+03  0.47000000000E+01 0.  1.
        -11    1    1    2    0    0  0.51438720279E+02  0.30983466481E+01  0.23553699090E+03  0.24110830715E+03  0.00000000000E+00 0.  1.
         11    1    1    2    0    0 -0.61935936421E+02  0.62417753118E+02  0.22852930704E+03  0.24486257432E+03  0.00000000000E+00 0. -1.
<mgrwt>
<rscale>  0 0.14356896E+03</rscale>
<asrwt>0</asrwt>
<pdfrwt beam="1">  1        1 0.12585415E+00 0.14425730E+03</pdfrwt>
<pdfrwt beam="2">  1       -1 0.39306473E-02 0.14425730E+03</pdfrwt>
<totfact> 0.54685290E+03</totfact>
</mgrwt>
</event>
<event>
 7    1  0.1020295E-005  0.1538076E+03  0.7546771E-02  0.1216584E+00
         -2   -1    0    0    0  501 -0.00000000000E+00  0.00000000000E+00  0.44165085622E+03  0.44165085622E+03  0.00000000000E+00 0.  1.
          2   -1    0    0  501    0  0.00000000000E+00 -0.00000000000E+00 -0.57707888768E+02  0.57707888768E+02  0.00000000000E+00 0. -1.
         23    2    1    2    0    0  0.37762238693E+02 -0.12843014998E+01  0.15055201634E+02  0.99690168921E+02  0.91015573292E+02 0.  0.
          5    1    1    2  502    0  0.19904568485E+02  0.64705635682E+02  0.15576518108E+03  0.16990554074E+03  0.47000000000E+01 0. -1.
         -5    1    1    2    0  502 -0.57666807178E+02 -0.63421334182E+02  0.21312258474E+03  0.22976303533E+03  0.47000000000E+01 0.  1.
        -11    1    3    3    0    0 -0.11540165188E+02  0.17095069534E+02  0.37253723744E+02  0.42582352539E+02  0.00000000000E+00 0.  1.
         11    1    3    3    0    0  0.49302403881E+02 -0.18379371034E+02 -0.22198522111E+02  0.57107816382E+02  0.00000000000E+00 0. -1.
<mgrwt>
<rscale>  0 0.13760811E+03</rscale>
<asrwt>0</asrwt>
<pdfrwt beam="2">  1        2 0.88781370E-02 0.15380763E+03</pdfrwt>
<pdfrwt beam="1">  1       -2 0.67946283E-01 0.15380763E+03</pdfrwt>
<totfact> 0.14768986E+03</totfact>
</mgrwt>
</event>
<event>
 8    1  0.1020295E-005  0.1839279E+03  0.7546771E-02  0.1169136E+00
          2   -1    0    0  501    0  0.00000000000E+00  0.00000000000E+00  0.54766333406E+03  0.54766333406E+03  0.00000000000E+00 0. -1.
         -2   -1    0    0    0  501 -0.00000000000E+00 -0.00000000000E+00 -0.65345677815E+02  0.65345677815E+02  0.00000000000E+00 0.  1.
         23    2    1    2    0    0 -0.10388741055E+03 -0.86095421949E+02  0.13210340649E+03  0.22645263682E+03  0.12499788384E+03 0.  0.
         23    2    1    2    0    0  0.10388741055E+03  0.86095421949E+02  0.35021424975E+03  0.38655637505E+03  0.92578586159E+02 0.  0.
          5    1    3    3  502    0 -0.69934422113E+02 -0.11631538643E+03  0.81991353092E+02  0.15863405844E+03  0.47000000000E+01 0.  1.
         -5    1    3    3    0  502 -0.33952988438E+02  0.30219964478E+02  0.50112053400E+02  0.67818578375E+02  0.47000000000E+01 0.  1.
        -11    1    4    4    0    0  0.10589583331E+03  0.51007660425E+02  0.31743389888E+03  0.33849666039E+03  0.00000000000E+00 0. -1.
         11    1    4    4    0    0 -0.20084227573E+01  0.35087761524E+02  0.32780350866E+02  0.48059714664E+02  0.00000000000E+00 0.  1.
<mgrwt>
<rscale>  0 0.17862967E+03</rscale>
<asrwt>0</asrwt>
<pdfrwt beam="1">  1        2 0.84255894E-01 0.18392794E+03</pdfrwt>
<pdfrwt beam="2">  1       -2 0.10053182E-01 0.18392794E+03</pdfrwt>
<totfact> 0.36296863E+03</totfact>
</mgrwt>
</event>
<event>
 8    1  0.1020295E-005  0.1389039E+03  0.7546771E-02  0.1226694E+00
         -2   -1    0    0    0  501 -0.00000000000E+00  0.00000000000E+00  0.15448929992E+03  0.15448929992E+03  0.00000000000E+00 0.  1.
          2   -1    0    0  501    0  0.00000000000E+00 -0.00000000000E+00 -0.10069062630E+03  0.10069062630E+03  0.00000000000E+00 0. -1.
         23    2    1    2    0    0 -0.25868609015E+02 -0.54777552373E+02  0.47228033124E+02  0.14671322859E+03  0.12499807660E+03 0.  0.
         23    2    1    2    0    0  0.25868609015E+02  0.54777552373E+02  0.65706404969E+01  0.10846669764E+03  0.89733416312E+02 0.  0.
          5    1    3    3  502    0  0.17475630262E+02  0.27802624305E+02  0.41535915925E+02  0.53157369038E+02  0.47000000000E+01 0. -1.
         -5    1    3    3    0  502 -0.43344239276E+02 -0.82580176678E+02  0.56921171986E+01  0.93555859553E+02  0.47000000000E+01 0. -1.
        -11    1    4    4    0    0  0.38636490431E+02 -0.35585260746E+01  0.24776669491E+02  0.46036125507E+02  0.00000000000E+00 0.  1.
         11    1    4    4    0    0 -0.12767881416E+02  0.58336078448E+02 -0.18206028994E+02  0.62430572128E+02  0.00000000000E+00 0. -1.
<mgrwt>
<rscale>  0 0.13051496E+03</rscale>
<asrwt>0</asrwt>
<pdfrwt beam="2">  1        2 0.15490866E-01 0.13890387E+03</pdfrwt>
<pdfrwt beam="1">  1       -2 0.23767585E-01 0.13890387E+03</pdfrwt>
<totfact> 0.55526645E+03</totfact>
</mgrwt>
</event>
<event>
 8    1  0.1020295E-005  0.1977795E+03  0.7546771E-02  0.1156061E+00
          1   -1    0    0  501    0  0.00000000000E+00  0.00000000000E+00  0.33923584461E+03  0.33923584461E+03  0.00000000000E+00 0. -1.
         -1   -1    0    0    0  501 -0.00000000000E+00 -0.00000000000E+00 -0.11012025944E+03  0.11012025944E+03  0.00000000000E+00 0.  1.
         23    2    1    2    0    0 -0.83535444914E+02 -0.12850572144E+03  0.68023690330E+02  0.20915055438E+03  0.12499936380E+03 0.  0.
         23    2    1    2    0    0  0.83535444914E+02  0.12850572144E+03  0.16109189484E+03  0.24020554968E+03  0.90863724969E+02 0.  0.
          5    1    3    3  502    0  0.13835588612E+01  0.22045925241E+02  0.18751478643E+02  0.29353790320E+02  0.47000000000E+01 0.  1.
         -5    1    3    3    0  502 -0.84919003775E+02 -0.15055164668E+03  0.49272211687E+02  0.17979676406E+03  0.47000000000E+01 0.  1.
        -11    1    4    4    0    0  0.32551328017E+02  0.12068343153E+03  0.12808087356E+03  0.17896588997E+03  0.00000000000E+00 0.  1.
         11    1    4    4    0    0  0.50984116897E+02  0.78222899053E+01  0.33011021278E+02  0.61239659706E+02  0.00000000000E+00 0. -1.
<mgrwt>
<rscale>  0 0.19268624E+03</rscale>
<asrwt>0</asrwt>
<pdfrwt beam="1">  1        1 0.52190130E-01 0.19777950E+03</pdfrwt>
<pdfrwt beam="2">  1       -1 0.16941579E-01 0.19777950E+03</pdfrwt>
<totfact> 0.19601850E+03</totfact>
</mgrwt>
</event>
<event>
 8    1  0.1020295E-005  0.1272385E+03  0.7546771E-02  0.1246517E+00
          2   -1    0    0  501    0  0.00000000000E+00  0.00000000000E+00  0.32790595146E+03  0.32790595146E+03  0.00000000000E+00 0. -1.
         -2   -1    0    0    0  501 -0.00000000000E+00 -0.00000000000E+00 -0.37459705752E+02  0.37459705752E+02  0.00000000000E+00 0.  1.
         23    2    1    2    0    0  0.22769219074E+02 -0.68616019811E+01  0.17863689393E+03  0.21931889157E+03  0.12499646957E+03 0.  0.
         23    2    1    2    0    0 -0.22769219074E+02  0.68616019811E+01  0.11180935178E+03  0.14604676564E+03  0.90899987302E+02 0.  0.
          5    1    3    3  502    0  0.20774861656E+02 -0.48936898560E+02  0.16706582843E+03  0.17538385315E+03  0.47000000000E+01 0.  1.
         -5    1    3    3    0  502  0.19943574181E+01  0.42075296579E+02  0.11571065500E+02  0.43935038415E+02  0.47000000000E+01 0.  1.
        -11    1    4    4    0    0  0.25274400027E+02  0.12361892112E+02  0.87521277496E+02  0.91932506154E+02  0.00000000000E+00 0. -1.
         11    1    4    4    0    0 -0.48043619101E+02 -0.55002901311E+01  0.24288074280E+02  0.54114259490E+02  0.00000000000E+00 0.  1.
<mgrwt>
<rscale>  0 0.11795021E+03</rscale>
<asrwt>0</asrwt>
<pdfrwt beam="1">  1        2 0.50447067E-01 0.12723850E+03</pdfrwt>
<pdfrwt beam="2">  1       -2 0.57630319E-02 0.12723850E+03</pdfrwt>
<totfact> 0.14619288E+04</totfact>
</mgrwt>
</event>
<event>
 8    1  0.1020295E-005  0.1707480E+03  0.7546771E-02  0.1184034E+00
         -2   -1    0    0    0  501 -0.00000000000E+00  0.00000000000E+00  0.70465750782E+02  0.70465750782E+02  0.00000000000E+00 0.  1.
          2   -1    0    0  501    0  0.00000000000E+00 -0.00000000000E+00 -0.63681091277E+03  0.63681091277E+03  0.00000000000E+00 0. -1.
         23    2    1    2    0    0  0.88738610896E+02 -0.75198397601E+02 -0.61097839637E+02  0.18134999128E+03  0.12500213304E+03 0.  0.
         23    2    1    2    0    0 -0.88738610896E+02  0.75198397601E+02 -0.50524732235E+03  0.52592667227E+03  0.88287415839E+02 0.  0.
          5    1    3    3  502    0  0.87685935855E+02 -0.21136434603E+02 -0.83148764413E+02  0.12276554581E+03  0.47000000000E+01 0. -1.
         -5    1    3    3    0  502  0.10526750416E+01 -0.54061962998E+02  0.22050924776E+02  0.58584445474E+02  0.47000000000E+01 0. -1.
        -11    1    4    4    0    0 -0.14971930189E+02  0.54770780172E+02 -0.32770034809E+03  0.33258309517E+03  0.00000000000E+00 0.  1.
         11    1    4    4    0    0 -0.73766680707E+02  0.20427617429E+02 -0.17754697426E+03  0.19334357710E+03  0.00000000000E+00 0. -1.
<mgrwt>
<rscale>  0 0.16420081E+03</rscale>
<asrwt>0</asrwt>
<pdfrwt beam="2">  1        2 0.97970911E-01 0.17074798E+03</pdfrwt>
<pdfrwt beam="1">  1       -2 0.10840885E-01 0.17074798E+03</pdfrwt>
<totfact> 0.27025084E+03</totfact>
</mgrwt>
</event>
<event>
 7    1  0.1020295E-005  0.1519390E+03  0.7546771E-02  0.1221316E+00
         -2   -1    0    0    0  501 -0.00000000000E+00  0.00000000000E+00  0.40262509367E+02  0.40262509367E+02  0.00000000000E+00 0.  1.
          2   -1    0    0  501    0  0.00000000000E+00 -0.00000000000E+00 -0.41023466891E+03  0.41023466891E+03  0.00000000000E+00 0. -1.
         23    2    1    2    0    0  0.26973283628E+02  0.14903185921E+02 -0.21198513433E+03  0.23130465180E+03  0.87260998085E+02 0.  0.
          5    1    1    2  502    0 -0.37761039990E+02 -0.73541583591E+02 -0.12758988200E+03  0.15210367729E+03  0.47000000000E+01 0. -1.
         -5    1    1    2    0  502  0.10787756361E+02  0.58638397670E+02 -0.30397143209E+02  0.67088849177E+02  0.47000000000E+01 0.  1.
        -11    1    3    3    0    0  0.34302833302E+02  0.47572506143E+02 -0.14517064106E+03  0.15657056792E+03  0.00000000000E+00 0.  1.
         11    1    3    3    0    0 -0.73295496737E+01 -0.32669320222E+02 -0.66814493268E+02  0.74734083876E+02  0.00000000000E+00 0. -1.
<mgrwt>
<rscale>  0 0.13422626E+03</rscale>
<asrwt>0</asrwt>
<pdfrwt beam="2">  1        2 0.63113025E-01 0.15193901E+03</pdfrwt>
<pdfrwt beam="1">  1       -2 0.61942323E-02 0.15193901E+03</pdfrwt>
<totfact> 0.10464252E+04</totfact>
</mgrwt>
</event>
<event>
 8    1  0.1020295E-005  0.2022983E+03  0.7546771E-02  0.1154348E+00
         -2   -1    0    0    0  501 -0.00000000000E+00  0.00000000000E+00  0.46681100045E+02  0.46681100045E+02  0.00000000000E+00 0. -1.
          2   -1    0    0  501    0  0.00000000000E+00 -0.00000000000E+00 -0.76921533717E+03  0.76921533717E+03  0.00000000000E+00 0.  1.
         23    2    1    2    0    0 -0.13818812434E+03 -0.78751970028E+02 -0.33463499869E+03  0.39103091483E+03  0.12500705386E+03 0.  0.
         23    2    1    2    0    0  0.13818812434E+03  0.78751970028E+02 -0.38789923844E+03  0.42486552239E+03  0.68898929155E+02 0.  0.
          5    1    3    3  502    0 -0.10847039616E+03 -0.10335830315E+03 -0.19425110699E+03  0.24536574382E+03  0.47000000000E+01 0. -1.
         -5    1    3    3    0  502 -0.29717728177E+02  0.24606333118E+02 -0.14038389170E+03  0.14566517101E+03  0.47000000000E+01 0. -1.
        -11    1    4    4    0    0  0.75759740614E+02  0.48167590066E+01 -0.15237932435E+03  0.17024158703E+03  0.00000000000E+00 0. -1.
         11    1    4    4    0    0  0.62428383726E+02  0.73935211021E+02 -0.23551991409E+03  0.25462393535E+03  0.00000000000E+00 0.  1.
<mgrwt>
<rscale>  0 0.19463255E+03</rscale>
<asrwt>0</asrwt>
<pdfrwt beam="2">  1        2 0.11834081E+00 0.20229828E+03</pdfrwt>
<pdfrwt beam="1">  1       -2 0.71817082E-02 0.20229828E+03</pdfrwt>
<totfact> 0.41273163E+03</totfact>
</mgrwt>
</event>
<event>
 8    1  0.1020295E-005  0.1659066E+03  0.7546771E-02  0.1188988E+00
          2   -1    0    0  501    0  0.00000000000E+00  0.00000000000E+00  0.10212837653E+04  0.10212837653E+04  0.00000000000E+00 0. -1.
         -2   -1    0    0    0  501 -0.00000000000E+00 -0.00000000000E+00 -0.23736856487E+02  0.23736856487E+02  0.00000000000E+00 0.  1.
         23    2    1    2    0    0  0.10907088702E+03 -0.93006610400E+00  0.60674298934E+03  0.62901673890E+03  0.12501071665E+03 0.  0.
         23    2    1    2    0    0 -0.10907088702E+03  0.93006610400E+00  0.39080391946E+03  0.41600388288E+03  0.91837920743E+02 0.  0.
          5    1    3    3  502    0  0.87458655981E+02 -0.54329049270E+02  0.45765766717E+03  0.46911969946E+03  0.47000000000E+01 0. -1.
         -5    1    3    3    0  502  0.21612231042E+02  0.53398983166E+02  0.14908532217E+03  0.15989703944E+03  0.47000000000E+01 0. -1.
        -11    1    4    4    0    0 -0.50383469639E+02  0.13294552984E+02  0.58546987871E+02  0.78377222078E+02  0.00000000000E+00 0.  1.
         11    1    4    4    0    0 -0.58687417384E+02 -0.12364486880E+02  0.33225693159E+03  0.33762666080E+03  0.00000000000E+00 0. -1.
<mgrwt>
<rscale>  0 0.15974196E+03</rscale>
<asrwt>0</asrwt>
<pdfrwt beam="1">  1        2 0.15712055E+00 0.16590661E+03</pdfrwt>
<pdfrwt beam="2">  1       -2 0.36518249E-02 0.16590661E+03</pdfrwt>
<totfact> 0.78582501E+03</totfact>
</mgrwt>
</event>
<event>
 7    1  0.1020295E-005  0.1771200E+03  0.7546771E-02  0.1198549E+00
         -1   -1    0    0    0  501 -0.00000000000E+00  0.00000000000E+00  0.20049583239E+03  0.20049583239E+03  0.00000000000E+00 0.  1.
          1   -1    0    0  501    0  0.00000000000E+00 -0.00000000000E+00 -0.11989659564E+03  0.11989659564E+03  0.00000000000E+00 0. -1.
         23    2    1    2    0    0 -0.79744934369E+01  0.21216096664E+02 -0.43134344609E+02  0.10433344165E+03  0.92256057031E+02 0.  0.
          5    1    1    2  502    0  0.71657022740E+02  0.13560111373E+02  0.12331874349E+03  0.14334646150E+03  0.47000000000E+01 0. -1.
         -5    1    1    2    0  502 -0.63682529303E+02 -0.34776208036E+02  0.41483787282E+00  0.72712524879E+02  0.47000000000E+01 0.  1.
        -11    1    3    3    0    0  0.39894531898E+02  0.59566312714E+01 -0.37811096377E+01  0.40513601686E+02  0.00000000000E+00 0.  1.
         11    1    3    3    0    0 -0.47869025335E+02  0.15259465392E+02 -0.39353234971E+02  0.63819839966E+02  0.00000000000E+00 0. -1.
<mgrwt>
<rscale>  0 0.15157617E+03</rscale>
<asrwt>0</asrwt>
<pdfrwt beam="2">  1        1 0.18445630E-01 0.17711998E+03</pdfrwt>
<pdfrwt beam="1">  1       -1 0.30845513E-01 0.17711998E+03</pdfrwt>
<totfact> 0.27077462E+03</totfact>
</mgrwt>
</event>
<event>
 8    1  0.1020295E-005  0.1329806E+03  0.7546771E-02  0.1235648E+00
          2   -1    0    0  501    0  0.00000000000E+00  0.00000000000E+00  0.62747559816E+03  0.62747559816E+03  0.00000000000E+00 0. -1.
         -2   -1    0    0    0  501 -0.00000000000E+00 -0.00000000000E+00 -0.22267471440E+02  0.22267471440E+02  0.00000000000E+00 0.  1.
         23    2    1    2    0    0  0.26709877931E+02 -0.36679299123E+02  0.36838305017E+03  0.39165025425E+03  0.12500024575E+03 0.  0.
         23    2    1    2    0    0 -0.26709877931E+02  0.36679299123E+02  0.23682507655E+03  0.25809281535E+03  0.92016280570E+02 0.  0.
          5    1    3    3  502    0 -0.27686517031E+02  0.12277754280E+02  0.25356994092E+03  0.25541552696E+03  0.47000000000E+01 0.  1.
         -5    1    3    3    0  502  0.54396394962E+02 -0.48957053403E+02  0.11481310925E+03  0.13623472729E+03  0.47000000000E+01 0.  1.
        -11    1    4    4    0    0  0.24362624042E+02 -0.15768621362E+02  0.77457430479E+02  0.82715418190E+02  0.00000000000E+00 0.  1.
         11    1    4    4    0    0 -0.51072501973E+02  0.52447920486E+02  0.15936764607E+03  0.17537739716E+03  0.00000000000E+00 0. -1.
<mgrwt>
<rscale>  0 0.12463015E+03</rscale>
<asrwt>0</asrwt>
<pdfrwt beam="1">  1        2 0.96534694E-01 0.13298064E+03</pdfrwt>
<pdfrwt beam="2">  1       -2 0.34257653E-02 0.13298064E+03</pdfrwt>
<totfact> 0.15729398E+04</totfact>
</mgrwt>
</event>
<event>
 8    1  0.1020295E-005  0.2019397E+03  0.7546771E-02  0.1152518E+00
          1   -1    0    0  501    0  0.00000000000E+00  0.00000000000E+00  0.89155013262E+02  0.89155013262E+02  0.00000000000E+00 0. -1.
         -1   -1    0    0    0  501 -0.00000000000E+00 -0.00000000000E+00 -0.58399014310E+03  0.58399014310E+03  0.00000000000E+00 0.  1.
         23    2    1    2    0    0 -0.66224476372E+00 -0.15858634905E+03 -0.43837152736E+03  0.48264814678E+03  0.12501827434E+03 0.  0.
         23    2    1    2    0    0  0.66224476372E+00  0.15858634905E+03 -0.56463602476E+02  0.19049700958E+03  0.89167839377E+02 0.  0.
          5    1    3    3  502    0 -0.52707564976E+02 -0.25191541674E+02 -0.13297884806E+03  0.14532090424E+03  0.47000000000E+01 0.  1.
         -5    1    3    3    0  502  0.52045320212E+02 -0.13339480738E+03 -0.30539267930E+03  0.33732724254E+03  0.47000000000E+01 0.  1.
        -11    1    4    4    0    0  0.32456015065E+02  0.79608786066E+02 -0.60723623644E+02  0.10525355197E+03  0.00000000000E+00 0.  1.
         11    1    4    4    0    0 -0.31793770301E+02  0.78977562987E+02  0.42600211674E+01  0.85243457613E+02  0.00000000000E+00 0. -1.
<mgrwt>
<rscale>  0 0.19674167E+03</rscale>
<asrwt>0</asrwt>
<pdfrwt beam="1">  1        1 0.13716157E-01 0.20193969E+03</pdfrwt>
<pdfrwt beam="2">  1       -1 0.89844633E-01 0.20193969E+03</pdfrwt>
<totfact> 0.53565900E+02</totfact>
</mgrwt>
</event>
<event>
 8    1  0.1020295E-005  0.1270551E+03  0.7546771E-02  0.1247612E+00
          2   -1    0    0  501    0  0.00000000000E+00  0.00000000000E+00  0.62473790725E+03  0.62473790725E+03  0.00000000000E+00 0. -1.
         -2   -1    0    0    0  501 -0.00000000000E+00 -0.00000000000E+00 -0.23978177045E+02  0.23978177045E+02  0.00000000000E+00 0.  1.
         23    2    1    2    0    0 -0.21583144733E+02  0.71985481084E+01  0.19611953244E+03  0.23367899727E+03  0.12500140611E+03 0.  0.
         23    2    1    2    0    0  0.21583144733E+02 -0.71985481084E+01  0.40464019776E+03  0.41503708702E+03  0.89467551266E+02 0.  0.
          5    1    3    3  502    0  0.22729967659E+02  0.51850988833E+02  0.13211693714E+03  0.14381290467E+03  0.47000000000E+01 0. -1.
         -5    1    3    3    0  502 -0.44313112392E+02 -0.44652440724E+02  0.64002595304E+02  0.89866092594E+02  0.47000000000E+01 0. -1.
        -11    1    4    4    0    0  0.34994671211E+02 -0.41866236881E+02  0.26297487233E+03  0.26857623179E+03  0.00000000000E+00 0.  1.
         11    1    4    4    0    0 -0.13411526478E+02  0.34667688772E+02  0.14166532543E+03  0.14646085524E+03  0.00000000000E+00 0. -1.
<mgrwt>
<rscale>  0 0.11730389E+03</rscale>
<asrwt>0</asrwt>
<pdfrwt beam="1">  1        2 0.96113512E-01 0.12705512E+03</pdfrwt>
<pdfrwt beam="2">  1       -2 0.36889508E-02 0.12705512E+03</pdfrwt>
<totfact> 0.14121145E+04</totfact>
</mgrwt>
</event>
<event>
 8    1  0.1020295E-005  0.1253342E+03  0.7546771E-02  0.1250879E+00
         -2   -1    0    0    0  501 -0.00000000000E+00  0.00000000000E+00  0.53253746428E+02  0.53253746428E+02  0.00000000000E+00 0.  1.
          2   -1    0    0  501    0  0.00000000000E+00 -0.00000000000E+00 -0.38688414828E+03  0.38688414828E+03  0.00000000000E+00 0. -1.
         23    2    1    2    0    0 -0.89926883368E+01  0.51404994968E+00 -0.37823049203E+02  0.13091692265E+03  0.12501009917E+03 0.  0.
         23    2    1    2    0    0  0.89926883368E+01 -0.51404994968E+00 -0.29580735265E+03  0.30922097206E+03  0.89635299909E+02 0.  0.
          5    1    3    3  502    0 -0.13919109856E+02  0.61814946893E+02 -0.16333590402E+02  0.65602632981E+02  0.47000000000E+01 0.  1.
         -5    1    3    3    0  502  0.49264215192E+01 -0.61300896944E+02 -0.21489458800E+02  0.65314289666E+02  0.47000000000E+01 0.  1.
        -11    1    4    4    0    0  0.29595799613E+02 -0.36637897905E+02 -0.12969094739E+03  0.13797821840E+03  0.00000000000E+00 0.  1.
         11    1    4    4    0    0 -0.20603111276E+02  0.36123847955E+02 -0.16611640526E+03  0.17124275366E+03  0.00000000000E+00 0. -1.
<mgrwt>
<rscale>  0 0.11540307E+03</rscale>
<asrwt>0</asrwt>
<pdfrwt beam="2">  1        2 0.59520638E-01 0.12533418E+03</pdfrwt>
<pdfrwt beam="1">  1       -2 0.81928841E-02 0.12533418E+03</pdfrwt>
<totfact> 0.71624139E+03</totfact>
</mgrwt>
</event>
<event>
 8    1  0.1020295E-005  0.2428511E+03  0.7546771E-02  0.1120597E+00
         -1   -1    0    0    0  501 -0.00000000000E+00  0.00000000000E+00  0.43000640756E+03  0.43000640756E+03  0.00000000000E+00 0.  1.
          1   -1    0    0  501    0  0.00000000000E+00 -0.00000000000E+00 -0.12845670895E+03  0.12845670895E+03  0.00000000000E+00 0. -1.
         23    2    1    2    0    0 -0.10935384843E+02 -0.20792696170E+03  0.16330869338E+03  0.29265405839E+03  0.12499385791E+03 0.  0.
         23    2    1    2    0    0  0.10935384843E+02  0.20792696170E+03  0.13824100522E+03  0.26580905813E+03  0.90502352546E+02 0.  0.
          5    1    3    3  502    0 -0.18939525285E+02  0.10434646975E+02  0.27656636406E+02  0.35419867487E+02  0.47000000000E+01 0. -1.
         -5    1    3    3    0  502  0.80041404423E+01 -0.21836160867E+03  0.13565205698E+03  0.25723419090E+03  0.47000000000E+01 0. -1.
        -11    1    4    4    0    0  0.37512993165E+02  0.18965766528E+03  0.12841569110E+03  0.23209447296E+03  0.00000000000E+00 0.  1.
         11    1    4    4    0    0 -0.26577608322E+02  0.18269296411E+02  0.98253141191E+01  0.33714585168E+02  0.00000000000E+00 0. -1.
<mgrwt>
<rscale>  0 0.23879610E+03</rscale>
<asrwt>0</asrwt>
<pdfrwt beam="2">  1        1 0.19762571E-01 0.24285112E+03</pdfrwt>
<pdfrwt beam="1">  1       -1 0.66154831E-01 0.24285112E+03</pdfrwt>
<totfact> 0.62354962E+02</totfact>
</mgrwt>
</event>
<event>
 8    1  0.1020295E-005  0.1295365E+03  0.7546771E-02  0.1241942E+00
          3   -1    0    0  501    0  0.00000000000E+00  0.00000000000E+00  0.11432594653E+03  0.11432594653E+03  0.00000000000E+00 0. -1.
         -3   -1    0    0    0  501 -0.00000000000E+00 -0.00000000000E+00 -0.12390341444E+03  0.12390341444E+03  0.00000000000E+00 0.  1.
         23    2    1    2    0    0 -0.32838722614E+02 -0.87795501396E+01 -0.40625037790E+02  0.13575746209E+03  0.12499693042E+03 0.  0.
         23    2    1    2    0    0  0.32838722614E+02  0.87795501396E+01  0.31047569875E+02  0.10247189889E+03  0.91548218238E+02 0.  0.
          5    1    3    3  502    0 -0.44940701665E+02  0.51009666186E+02 -0.25250849846E+02  0.72672884410E+02  0.47000000000E+01 0. -1.
         -5    1    3    3    0  502  0.12101979051E+02 -0.59789216325E+02 -0.15374187943E+02  0.63084577677E+02  0.47000000000E+01 0. -1.
        -11    1    4    4    0    0 -0.23001454918E+02  0.60470120534E+01 -0.16609738035E+02  0.29008906921E+02  0.00000000000E+00 0.  1.
         11    1    4    4    0    0  0.55840177532E+02  0.27325380863E+01  0.47657307911E+02  0.73462991966E+02  0.00000000000E+00 0. -1.
<mgrwt>
<rscale>  0 0.12070295E+03</rscale>
<asrwt>0</asrwt>
<pdfrwt beam="1">  1        3 0.17588607E-01 0.12953646E+03</pdfrwt>
<pdfrwt beam="2">  1       -3 0.19062064E-01 0.12953646E+03</pdfrwt>
<totfact> 0.15673731E+03</totfact>
</mgrwt>
</event>
<event>
 8    1  0.1020295E-005  0.1381101E+03  0.7546771E-02  0.1224107E+00
         -1   -1    0    0    0  501 -0.00000000000E+00  0.00000000000E+00  0.79916621092E+02  0.79916621092E+02  0.00000000000E+00 0.  1.
          1   -1    0    0  501    0  0.00000000000E+00 -0.00000000000E+00 -0.20660099312E+03  0.20660099312E+03  0.00000000000E+00 0. -1.
         23    2    1    2    0    0  0.58102873061E+02 -0.83282203696E+01 -0.48261259328E+02  0.14629953901E+03  0.12501641033E+03 0.  0.
         23    2    1    2    0    0 -0.58102873061E+02  0.83282203696E+01 -0.78423112704E+02  0.14021807520E+03  0.10032756797E+03 0.  0.
          5    1    3    3  502    0  0.30846615976E+02  0.22908866805E+02  0.35626778568E+02  0.52608813393E+02  0.47000000000E+01 0.  1.
         -5    1    3    3    0  502  0.27256257085E+02 -0.31237087175E+02 -0.83888037896E+02  0.93690725622E+02  0.47000000000E+01 0.  1.
        -11    1    4    4    0    0 -0.15869086154E+01 -0.41114291014E+02 -0.27499976619E+02  0.49488907025E+02  0.00000000000E+00 0. -1.
         11    1    4    4    0    0 -0.56515964445E+02  0.49442511384E+02 -0.50923136085E+02  0.90729168176E+02  0.00000000000E+00 0.  1.
<mgrwt>
<rscale>  0 0.13228322E+03</rscale>
<asrwt>0</asrwt>
<pdfrwt beam="2">  1        1 0.31784768E-01 0.13811012E+03</pdfrwt>
<pdfrwt beam="1">  1       -1 0.12294865E-01 0.13811012E+03</pdfrwt>
<totfact> 0.59201147E+03</totfact>
</mgrwt>
</event>
<event>
 8    1  0.1020295E-005  0.1513176E+03  0.7546771E-02  0.1207808E+00
          4   -1    0    0  501    0  0.00000000000E+00  0.00000000000E+00  0.51066445443E+02  0.51066445443E+02  0.00000000000E+00 0. -1.
         -4   -1    0    0    0  501 -0.00000000000E+00 -0.00000000000E+00 -0.40830048339E+03  0.40830048339E+03  0.00000000000E+00 0.  1.
         23    2    1    2    0    0 -0.80749804292E+02 -0.27401875567E+02 -0.26150908337E+03  0.30213242747E+03  0.12500243744E+03 0.  0.
         23    2    1    2    0    0  0.80749804292E+02  0.27401875567E+02 -0.95724954569E+02  0.15723450136E+03  0.91038606160E+02 0.  0.
          5    1    3    3  502    0 -0.10919634094E+03 -0.21912586099E+02 -0.24322561595E+03  0.26755334526E+03  0.47000000000E+01 0. -1.
         -5    1    3    3    0  502  0.28446536644E+02 -0.54892894674E+01 -0.18283467422E+02  0.34579082216E+02  0.47000000000E+01 0. -1.
        -11    1    4    4    0    0  0.53658973111E+02  0.36338063533E+02 -0.83748593617E+01  0.65344307525E+02  0.00000000000E+00 0. -1.
         11    1    4    4    0    0  0.27090831181E+02 -0.89361879661E+01 -0.87350095208E+02  0.91890193830E+02  0.00000000000E+00 0.  1.
<mgrwt>
<rscale>  0 0.14418370E+03</rscale>
<asrwt>0</asrwt>
<pdfrwt beam="1">  1        4 0.78563765E-02 0.15131756E+03</pdfrwt>
<pdfrwt beam="2">  1       -4 0.62815456E-01 0.15131756E+03</pdfrwt>
<totfact> 0.46443206E+02</totfact>
</mgrwt>
</event>
<event>
 8    1  0.1020295E-005  0.1358419E+03  0.7546771E-02  0.1231391E+00
          1   -1    0    0  501    0  0.00000000000E+00  0.00000000000E+00  0.25416443134E+03  0.25416443134E+03  0.00000000000E+00 0. -1.
         -1   -1    0    0    0  501 -0.00000000000E+00 -0.00000000000E+00 -0.57423393219E+02  0.57423393219E+02  0.00000000000E+00 0.  1.
         23    2    1    2    0    0 -0.26388810794E+01  0.53098410212E+02  0.12295402712E+03  0.18322315294E+03  0.12500650433E+03 0.  0.
         23    2    1    2    0    0  0.26388810794E+01 -0.53098410212E+02  0.73787010994E+02  0.12836467162E+03  0.90590071577E+02 0.  0.
          5    1    3    3  502    0  0.78585913637E+01 -0.18869297402E+02  0.10645039700E+03  0.10849693482E+03  0.47000000000E+01 0.  1.
         -5    1    3    3    0  502 -0.10497472443E+02  0.71967707614E+02  0.16503630118E+02  0.74726218116E+02  0.47000000000E+01 0.  1.
        -11    1    4    4    0    0 -0.34119319698E+02 -0.35891963182E+02  0.72448986055E+02  0.87756575697E+02  0.00000000000E+00 0. -1.
         11    1    4    4    0    0  0.36758200778E+02 -0.17206447030E+02  0.13380249398E+01  0.40608095924E+02  0.00000000000E+00 0.  1.
<mgrwt>
<rscale>  0 0.12738313E+03</rscale>
<asrwt>0</asrwt>
<pdfrwt beam="1">  1        1 0.39102220E-01 0.13584193E+03</pdfrwt>
<pdfrwt beam="2">  1       -1 0.88343683E-02 0.13584193E+03</pdfrwt>
<totfact> 0.75871371E+03</totfact>
</mgrwt>
</event>
<event>
 8    1  0.1020295E-005  0.1468588E+03  0.7546771E-02  0.1214611E+00
         -4   -1    0    0    0  501 -0.00000000000E+00  0.00000000000E+00  0.73259767335E+02  0.73259767335E+02  0.00000000000E+00 0.  1.
          4   -1    0    0  501    0  0.00000000000E+00 -0.00000000000E+00 -0.32314781404E+03  0.32314781404E+03  0.00000000000E+00 0. -1.
         23    2    1    2    0    0  0.21045848979E+02 -0.74161650395E+02 -0.34589657022E+02  0.15087729919E+03  0.12499854755E+03 0.  0.
         23    2    1    2    0    0 -0.21045848979E+02  0.74161650395E+02 -0.21529838969E+03  0.24553028219E+03  0.89380337439E+02 0.  0.
          5    1    3    3  502    0  0.74514601709E+00 -0.21193140621E+02  0.46779134138E+02  0.51575981258E+02  0.47000000000E+01 0.  1.
         -5    1    3    3    0  502  0.20300702962E+02 -0.52968509774E+02 -0.81368791160E+02  0.99301317934E+02  0.47000000000E+01 0.  1.
        -11    1    4    4    0    0 -0.51284299320E+02  0.57842299390E+02 -0.10764716787E+03  0.13252819967E+03  0.00000000000E+00 0.  1.
         11    1    4    4    0    0  0.30238450341E+02  0.16319351004E+02 -0.10765122181E+03  0.11300208252E+03  0.00000000000E+00 0. -1.
<mgrwt>
<rscale>  0 0.13905149E+03</rscale>
<asrwt>0</asrwt>
<pdfrwt beam="2">  1        4 0.49715049E-01 0.14685883E+03</pdfrwt>
<pdfrwt beam="1">  1       -4 0.11270733E-01 0.14685883E+03</pdfrwt>
<totfact> 0.40956224E+02</totfact>
</mgrwt>
</event>
<event>
 8    1  0.1020295E-005  0.1230910E+03  0.7546771E-02  0.1253587E+00
          3   -1    0    0  501    0  0.00000000000E+00  0.00000000000E+00  0.12534721623E+03  0.12534721623E+03  0.00000000000E+00 0. -1.
         -3   -1    0    0    0  501 -0.00000000000E+00 -0.00000000000E+00 -0.11077722399E+03  0.11077722399E+03  0.00000000000E+00 0.  1.
         23    2    1    2    0    0  0.15908705888E+02  0.32160521422E-01 -0.41610998001E+02  0.12993409767E+03  0.12205861963E+03 0.  0.
         23    2    1    2    0    0 -0.15908705888E+02 -0.32160521422E-01  0.56180990234E+02  0.10619034254E+03  0.88696094775E+02 0.  0.
          5    1    3    3  502    0 -0.38436416417E+02 -0.10139873796E+02  0.21875907204E+02  0.45616011044E+02  0.47000000000E+01 0. -1.
         -5    1    3    3    0  502  0.54345122305E+02  0.10172034317E+02 -0.63486905205E+02  0.84318086631E+02  0.47000000000E+01 0.  1.
        -11    1    4    4    0    0  0.32993797168E+02  0.10479420527E+02  0.56255933613E+01  0.35072157145E+02  0.00000000000E+00 0.  1.
         11    1    4    4    0    0 -0.48902503056E+02 -0.10511581048E+02  0.50555396873E+02  0.71118185398E+02  0.00000000000E+00 0. -1.
<mgrwt>
<rscale>  0 0.11385833E+03</rscale>
<asrwt>0</asrwt>
<pdfrwt beam="1">  1        3 0.19284187E-01 0.12309100E+03</pdfrwt>
<pdfrwt beam="2">  1       -3 0.17042650E-01 0.12309100E+03</pdfrwt>
<totfact> 0.16076955E+03</totfact>
</mgrwt>
</event>
<event>
 8    1  0.1020295E-005  0.2012927E+03  0.7546771E-02  0.1153151E+00
          1   -1    0    0  501    0  0.00000000000E+00  0.00000000000E+00  0.29754086664E+03  0.29754086664E+03  0.00000000000E+00 0. -1.
         -1   -1    0    0    0  501 -0.00000000000E+00 -0.00000000000E+00 -0.12486070229E+03  0.12486070229E+03  0.00000000000E+00 0.  1.
         23    2    1    2    0    0 -0.50898846152E+02  0.14934497353E+03  0.63620366692E+02  0.21110730564E+03  0.12499651906E+03 0.  0.
         23    2    1    2    0    0  0.50898846152E+02 -0.14934497353E+03  0.10905979766E+03  0.21129426329E+03  0.88637534801E+02 0.  0.
          5    1    3    3  502    0  0.11524450463E+02  0.75005138655E+02  0.82405734047E+02  0.11212216011E+03  0.47000000000E+01 0.  1.
         -5    1    3    3    0  502 -0.62423296615E+02  0.74339834878E+02 -0.18785367355E+02  0.98985145535E+02  0.47000000000E+01 0.  1.
        -11    1    4    4    0    0  0.51868566175E+02 -0.42598841112E+02  0.71653713000E+02  0.98179753554E+02  0.00000000000E+00 0. -1.
         11    1    4    4    0    0 -0.96972002351E+00 -0.10674613242E+03  0.37406084656E+02  0.11311450974E+03  0.00000000000E+00 0.  1.
<mgrwt>
<rscale>  0 0.19600829E+03</rscale>
<asrwt>0</asrwt>
<pdfrwt beam="1">  1        1 0.45775518E-01 0.20129268E+03</pdfrwt>
<pdfrwt beam="2">  1       -1 0.19209339E-01 0.20129268E+03</pdfrwt>
<totfact> 0.18897823E+03</totfact>
</mgrwt>
</event>
<event>
 8    1  0.1020295E-005  0.1339725E+03  0.7546771E-02  0.1234177E+00
          1   -1    0    0  501    0  0.00000000000E+00  0.00000000000E+00  0.88136789857E+03  0.88136789857E+03  0.00000000000E+00 0. -1.
         -1   -1    0    0    0  501 -0.00000000000E+00 -0.00000000000E+00 -0.16188588558E+02  0.16188588558E+02  0.00000000000E+00 0.  1.
         23    2    1    2    0    0  0.26392061715E+02 -0.40344680007E+02  0.43740954354E+03  0.45746664127E+03  0.12499753987E+03 0.  0.
         23    2    1    2    0    0 -0.26392061715E+02  0.40344680007E+02  0.42776976647E+03  0.44008984585E+03  0.91476036142E+02 0.  0.
          5    1    3    3  502    0 -0.37829245004E+02  0.18297155890E+02  0.92093823850E+02  0.10133706174E+03  0.47000000000E+01 0.  1.
         -5    1    3    3    0  502  0.64221306718E+02 -0.58641835897E+02  0.34531571969E+03  0.35612957953E+03  0.47000000000E+01 0.  1.
        -11    1    4    4    0    0  0.26707167406E+02  0.41194187591E+02  0.17224795412E+03  0.17910776527E+03  0.00000000000E+00 0.  1.
         11    1    4    4    0    0 -0.53099229121E+02 -0.84950758394E+00  0.25552181235E+03  0.26098208058E+03  0.00000000000E+00 0. -1.
<mgrwt>
<rscale>  0 0.12557249E+03</rscale>
<asrwt>0</asrwt>
<pdfrwt beam="1">  1        1 0.13559502E+00 0.13397246E+03</pdfrwt>
<pdfrwt beam="2">  1       -1 0.24905528E-02 0.13397246E+03</pdfrwt>
<totfact> 0.94439190E+03</totfact>
</mgrwt>
</event>
<event>
 8    1  0.1020295E-005  0.2431917E+03  0.7546771E-02  0.1120991E+00
          2   -1    0    0  501    0  0.00000000000E+00  0.00000000000E+00  0.65804243688E+02  0.65804243688E+02  0.00000000000E+00 0. -1.
         -2   -1    0    0    0  501 -0.00000000000E+00 -0.00000000000E+00 -0.16798072705E+04  0.16798072705E+04  0.00000000000E+00 0.  1.
         23    2    1    2    0    0 -0.10361323669E+03  0.18123529784E+03 -0.14444581571E+04  0.14647872150E+04  0.12474085736E+03 0.  0.
         23    2    1    2    0    0  0.10361323669E+03 -0.18123529784E+03 -0.16954486976E+03  0.28082429928E+03  0.80838655388E+02 0.  0.
          5    1    3    3  502    0 -0.11458528947E+03  0.78776618631E+02 -0.89123093293E+03  0.90202561494E+03  0.47000000000E+01 0. -1.
         -5    1    3    3    0  502  0.10972052783E+02  0.10245867920E+03 -0.55322722417E+03  0.56276160001E+03  0.47000000000E+01 0. -1.
        -11    1    4    4    0    0 -0.36728383481E+01 -0.46756969763E+02 -0.14120075318E+02  0.48980409247E+02  0.00000000000E+00 0. -1.
         11    1    4    4    0    0  0.10728607504E+03 -0.13447832807E+03 -0.15542479444E+03  0.23184389003E+03  0.00000000000E+00 0.  1.
<mgrwt>
<rscale>  0 0.23820976E+03</rscale>
<asrwt>0</asrwt>
<pdfrwt beam="1">  1        2 0.10123732E-01 0.24319173E+03</pdfrwt>
<pdfrwt beam="2">  1       -2 0.25843182E+00 0.24319173E+03</pdfrwt>
<totfact> 0.40544848E+01</totfact>
</mgrwt>
</event>
<event>
 8    1  0.1020295E-005  0.1740860E+03  0.7546771E-02  0.1176510E+00
          1   -1    0    0  501    0  0.00000000000E+00  0.00000000000E+00  0.11460854310E+04  0.11460854310E+04  0.00000000000E+00 0. -1.
         -1   -1    0    0    0  501 -0.00000000000E+00 -0.00000000000E+00 -0.27454017983E+02  0.27454017983E+02  0.00000000000E+00 0.  1.
         23    2    1    2    0    0  0.65714745059E+02  0.11759633978E+03  0.39368682810E+03  0.43045933967E+03  0.11026603121E+03 0.  0.
         23    2    1    2    0    0 -0.65714745059E+02 -0.11759633978E+03  0.72494458490E+03  0.74308010930E+03  0.92065578878E+02 0.  0.
          5    1    3    3  502    0 -0.13983518370E+02  0.58177550467E+02  0.23978908641E+03  0.24718629033E+03  0.47000000000E+01 0. -1.
         -5    1    3    3    0  502  0.79698263429E+02  0.59418789313E+02  0.15389774169E+03  0.18327304934E+03  0.47000000000E+01 0.  1.
        -11    1    4    4    0    0 -0.54271371205E+02 -0.10553042480E+03  0.71248779941E+03  0.72230251045E+03  0.00000000000E+00 0. -1.
         11    1    4    4    0    0 -0.11443373853E+02 -0.12065914976E+02  0.12456785492E+02  0.20777598854E+02  0.00000000000E+00 0.  1.
<mgrwt>
<rscale>  0 0.17128951E+03</rscale>
<asrwt>0</asrwt>
<pdfrwt beam="1">  1        1 0.17632080E+00 0.17408597E+03</pdfrwt>
<pdfrwt beam="2">  1       -1 0.42236960E-02 0.17408597E+03</pdfrwt>
<totfact> 0.28150373E+03</totfact>
</mgrwt>
</event>
<event>
 8    1  0.1020295E-005  0.1740559E+03  0.7546771E-02  0.1178347E+00
         -1   -1    0    0    0  501 -0.00000000000E+00  0.00000000000E+00  0.18302617356E+03  0.18302617356E+03  0.00000000000E+00 0.  1.
          1   -1    0    0  501    0  0.00000000000E+00 -0.00000000000E+00 -0.15921271435E+03  0.15921271435E+03  0.00000000000E+00 0. -1.
         23    2    1    2    0    0  0.38321674587E+02 -0.11489974327E+03  0.55014117805E+02  0.18254316371E+03  0.12499980684E+03 0.  0.
         23    2    1    2    0    0 -0.38321674587E+02  0.11489974327E+03 -0.31200658601E+02  0.15969572421E+03  0.99291195407E+02 0.  0.
          5    1    3    3  502    0 -0.16679843009E+02 -0.90895701726E+01 -0.30139008015E+02  0.35934485566E+02  0.47000000000E+01 0.  1.
         -5    1    3    3    0  502  0.55001517596E+02 -0.10581017310E+03  0.85153125820E+02  0.14660867814E+03  0.47000000000E+01 0.  1.
        -11    1    4    4    0    0 -0.36169446383E+02  0.96148071392E+01  0.20183511266E+02  0.42521141741E+02  0.00000000000E+00 0.  1.
         11    1    4    4    0    0 -0.21522282046E+01  0.10528493613E+03 -0.51384169867E+02  0.11717458247E+03  0.00000000000E+00 0. -1.
<mgrwt>
<rscale>  0 0.16952239E+03</rscale>
<asrwt>0</asrwt>
<pdfrwt beam="2">  1        1 0.24494264E-01 0.17405589E+03</pdfrwt>
<pdfrwt beam="1">  1       -1 0.28157873E-01 0.17405589E+03</pdfrwt>
<totfact> 0.21975117E+03</totfact>
</mgrwt>
</event>
<event>
 8    1  0.1020295E-005  0.1333454E+03  0.7546771E-02  0.1236030E+00
          2   -1    0    0  501    0  0.00000000000E+00  0.00000000000E+00  0.13073801314E+03  0.13073801314E+03  0.00000000000E+00 0. -1.
         -2   -1    0    0    0  501 -0.00000000000E+00 -0.00000000000E+00 -0.10529089574E+03  0.10529089574E+03  0.00000000000E+00 0.  1.
         23    2    1    2    0    0  0.15835443240E+02 -0.43646456941E+02  0.20800814744E+02  0.13495798021E+03  0.12500083224E+03 0.  0.
         23    2    1    2    0    0 -0.15835443240E+02  0.43646456941E+02  0.46463026547E+01  0.10107092867E+03  0.89654726741E+02 0.  0.
          5    1    3    3  502    0 -0.54746025517E+01 -0.79680403477E+02  0.39074797612E+02  0.89038574673E+02  0.47000000000E+01 0.  1.
         -5    1    3    3    0  502  0.21310045792E+02  0.36033946536E+02 -0.18273982868E+02  0.45919405532E+02  0.47000000000E+01 0.  1.
        -11    1    4    4    0    0 -0.93382446747E+01  0.16652635788E+02 -0.42367585424E+02  0.46470693851E+02  0.00000000000E+00 0.  1.
         11    1    4    4    0    0 -0.64971985658E+01  0.26993821153E+02  0.47013888079E+02  0.54600234816E+02  0.00000000000E+00 0. -1.
<mgrwt>
<rscale>  0 0.12438704E+03</rscale>
<asrwt>0</asrwt>
<pdfrwt beam="1">  1        2 0.20113540E-01 0.13334535E+03</pdfrwt>
<pdfrwt beam="2">  1       -2 0.16198599E-01 0.13334535E+03</pdfrwt>
<totfact> 0.78388666E+03</totfact>
</mgrwt>
</event>
<event>
 8    1  0.1020295E-005  0.1316272E+03  0.7546771E-02  0.1238688E+00
         -4   -1    0    0    0  501 -0.00000000000E+00  0.00000000000E+00  0.61653199588E+02  0.61653199588E+02  0.00000000000E+00 0. -1.
          4   -1    0    0  501    0  0.00000000000E+00 -0.00000000000E+00 -0.22297220463E+03  0.22297220463E+03  0.00000000000E+00 0.  1.
         23    2    1    2    0    0 -0.14686940900E+00  0.41211039188E+02 -0.67526269294E+02  0.14793756884E+03  0.12500942328E+03 0.  0.
         23    2    1    2    0    0  0.14686940900E+00 -0.41211039188E+02 -0.93792735752E+02  0.13668783538E+03  0.90488207741E+02 0.  0.
          5    1    3    3  502    0 -0.32737929130E+02  0.64415527796E+02 -0.37531546061E+01  0.72507298905E+02  0.47000000000E+01 0.  1.
         -5    1    3    3    0  502  0.32591059721E+02 -0.23204488609E+02 -0.63773114688E+02  0.75430269934E+02  0.47000000000E+01 0.  1.
        -11    1    4    4    0    0  0.23407892177E+02 -0.30464583491E+02 -0.10262837659E+03  0.10958377592E+03  0.00000000000E+00 0.  1.
         11    1    4    4    0    0 -0.23261022768E+02 -0.10746455697E+02  0.88356408387E+01  0.27104059462E+02  0.00000000000E+00 0. -1.
<mgrwt>
<rscale>  0 0.12271271E+03</rscale>
<asrwt>0</asrwt>
<pdfrwt beam="2">  1        4 0.34303417E-01 0.13162723E+03</pdfrwt>
<pdfrwt beam="1">  1       -4 0.94851074E-02 0.13162723E+03</pdfrwt>
<totfact> 0.11181003E+03</totfact>
</mgrwt>
</event>
<event>
 8    1  0.1020295E-005  0.1309479E+03  0.7546771E-02  0.1239591E+00
         -1   -1    0    0    0  501 -0.00000000000E+00  0.00000000000E+00  0.41305526025E+03  0.41305526025E+03  0.00000000000E+00 0.  1.
          1   -1    0    0  501    0  0.00000000000E+00 -0.00000000000E+00 -0.33980855421E+02  0.33980855421E+02  0.00000000000E+00 0. -1.
         23    2    1    2    0    0  0.39023398089E+02 -0.20540488027E+01  0.26711175805E+03  0.29748284291E+03  0.12498122186E+03 0.  0.
         23    2    1    2    0    0 -0.39023398089E+02  0.20540488027E+01  0.11196264678E+03  0.14955327277E+03  0.91123555722E+02 0.  0.
          5    1    3    3  502    0  0.62851939467E+02  0.43576501487E+02  0.18759991639E+03  0.20264524768E+03  0.47000000000E+01 0. -1.
         -5    1    3    3    0  502 -0.23828541378E+02 -0.45630550289E+02  0.79511841664E+02  0.94837595228E+02  0.47000000000E+01 0. -1.
        -11    1    4    4    0    0 -0.12068292051E+02 -0.22107463430E+02 -0.62262536388E+01  0.25945131465E+02  0.00000000000E+00 0. -1.
         11    1    4    4    0    0 -0.26955106038E+02  0.24161512233E+02  0.11818890042E+03  0.12360814130E+03  0.00000000000E+00 0.  1.
<mgrwt>
<rscale>  0 0.12215074E+03</rscale>
<asrwt>0</asrwt>
<pdfrwt beam="2">  1        1 0.52278242E-02 0.13094789E+03</pdfrwt>
<pdfrwt beam="1">  1       -1 0.63546959E-01 0.13094789E+03</pdfrwt>
<totfact> 0.38893063E+03</totfact>
</mgrwt>
</event>
<event>
 8    1  0.1020295E-005  0.1264126E+03  0.7546771E-02  0.1249029E+00
         -1   -1    0    0    0  501 -0.00000000000E+00  0.00000000000E+00  0.71854305144E+03  0.71854305144E+03  0.00000000000E+00 0.  1.
          1   -1    0    0  501    0  0.00000000000E+00 -0.00000000000E+00 -0.16819931995E+02  0.16819931995E+02  0.00000000000E+00 0. -1.
         23    2    1    2    0    0  0.62336094104E+01  0.17682494977E+02  0.45954263715E+03  0.47661260978E+03  0.12501446287E+03 0.  0.
         23    2    1    2    0    0 -0.62336094104E+01 -0.17682494977E+02  0.24218048229E+03  0.25875037365E+03  0.89156274865E+02 0.  0.
          5    1    3    3  502    0 -0.55507040389E+02  0.30008882533E+02  0.22816022240E+03  0.23677149670E+03  0.47000000000E+01 0. -1.
         -5    1    3    3    0  502  0.61740649799E+02 -0.12326387556E+02  0.23138241475E+03  0.23984111308E+03  0.47000000000E+01 0. -1.
        -11    1    4    4    0    0 -0.37378911979E+02  0.70297706161E+00  0.46059550196E+02  0.59322503334E+02  0.00000000000E+00 0. -1.
         11    1    4    4    0    0  0.31145302569E+02 -0.18385472039E+02  0.19612093209E+03  0.19942787032E+03  0.00000000000E+00 0.  1.
<mgrwt>
<rscale>  0 0.11647426E+03</rscale>
<asrwt>0</asrwt>
<pdfrwt beam="2">  1        1 0.25876824E-02 0.12641260E+03</pdfrwt>
<pdfrwt beam="1">  1       -1 0.11054506E+00 0.12641260E+03</pdfrwt>
<totfact> 0.32259536E+03</totfact>
</mgrwt>
</event>
<event>
 8    1  0.1020295E-005  0.1353871E+03  0.7546771E-02  0.1230832E+00
          1   -1    0    0  501    0  0.00000000000E+00  0.00000000000E+00  0.94225118354E+02  0.94225118354E+02  0.00000000000E+00 0. -1.
         -1   -1    0    0    0  501 -0.00000000000E+00 -0.00000000000E+00 -0.18818492959E+03  0.18818492959E+03  0.00000000000E+00 0.  1.
         23    2    1    2    0    0 -0.17761796195E+02 -0.48867741425E+02 -0.10928507620E+03  0.17399111476E+03  0.12500457023E+03 0.  0.
         23    2    1    2    0    0  0.17761796195E+02  0.48867741425E+02  0.15325264963E+02  0.10841893318E+03  0.93894961370E+02 0.  0.
          5    1    3    3  502    0  0.26004737325E+02  0.16047015784E+02  0.88788885471E+01  0.32166407023E+02  0.47000000000E+01 0.  1.
         -5    1    3    3    0  502 -0.43766533520E+02 -0.64914757209E+02 -0.11816396474E+03  0.14182470773E+03  0.47000000000E+01 0.  1.
        -11    1    4    4    0    0 -0.98544895766E+01 -0.18370753735E+02  0.27716540114E+02  0.34681438169E+02  0.00000000000E+00 0. -1.
         11    1    4    4    0    0  0.27616285771E+02  0.67238495160E+02 -0.12391275151E+02  0.73737495015E+02  0.00000000000E+00 0.  1.
<mgrwt>
<rscale>  0 0.12775082E+03</rscale>
<asrwt>0</asrwt>
<pdfrwt beam="1">  1        1 0.14496172E-01 0.13538715E+03</pdfrwt>
<pdfrwt beam="2">  1       -1 0.28951527E-01 0.13538715E+03</pdfrwt>
<totfact> 0.40584246E+03</totfact>
</mgrwt>
</event>
<event>
 7    1  0.1020295E-005  0.1805500E+03  0.7546771E-02  0.1189615E+00
         -1   -1    0    0    0  501 -0.00000000000E+00  0.00000000000E+00  0.87791925086E+03  0.87791925086E+03  0.00000000000E+00 0.  1.
          1   -1    0    0  501    0  0.00000000000E+00 -0.00000000000E+00 -0.27369031234E+02  0.27369031234E+02  0.00000000000E+00 0. -1.
         23    2    1    2    0    0 -0.19085052613E+02 -0.53750204498E+02  0.17672972299E+03  0.20769788494E+03  0.93014475765E+02 0.  0.
          5    1    1    2  502    0  0.59221453173E+02 -0.44365605494E+02  0.25782613223E+03  0.26827577588E+03  0.47000000000E+01 0. -1.
         -5    1    1    2    0  502 -0.40136400560E+02  0.98115809992E+02  0.41599436440E+03  0.42931462127E+03  0.47000000000E+01 0.  1.
        -11    1    3    3    0    0  0.13162082475E+02  0.21599726605E+02  0.26955114654E+02  0.36964399231E+02  0.00000000000E+00 0.  1.
         11    1    3    3    0    0 -0.32247135088E+02 -0.75349931103E+02  0.14977460834E+03  0.17073348571E+03  0.00000000000E+00 0. -1.
<mgrwt>
<rscale>  0 0.15918948E+03</rscale>
<asrwt>0</asrwt>
<pdfrwt beam="2">  1        1 0.42106209E-02 0.18054999E+03</pdfrwt>
<pdfrwt beam="1">  1       -1 0.13506448E+00 0.18054999E+03</pdfrwt>
<totfact> 0.10372387E+03</totfact>
</mgrwt>
</event>
<event>
 8    1  0.1020295E-005  0.1491694E+03  0.7546771E-02  0.1210664E+00
         -4   -1    0    0    0  501 -0.00000000000E+00  0.00000000000E+00  0.92725971077E+02  0.92725971077E+02  0.00000000000E+00 0.  1.
          4   -1    0    0  501    0  0.00000000000E+00 -0.00000000000E+00 -0.20191806348E+03  0.20191806348E+03  0.00000000000E+00 0. -1.
         23    2    1    2    0    0  0.72905921587E+02  0.36206533271E+02 -0.42166282021E+02  0.15501453774E+03  0.12500130046E+03 0.  0.
         23    2    1    2    0    0 -0.72905921587E+02 -0.36206533271E+02 -0.67025810379E+02  0.13962949682E+03  0.91530053372E+02 0.  0.
          5    1    3    3  502    0  0.77641444167E+02  0.32678613532E+02  0.24553293228E+02  0.87869447723E+02  0.47000000000E+01 0.  1.
         -5    1    3    3    0  502 -0.47355225801E+01  0.35279197391E+01 -0.66719575249E+02  0.67145090016E+02  0.47000000000E+01 0.  1.
        -11    1    4    4    0    0 -0.84096946686E+02 -0.98847114135E+01 -0.24084260997E+02  0.88034400034E+02  0.00000000000E+00 0.  1.
         11    1    4    4    0    0  0.11191025098E+02 -0.26321821858E+02 -0.42941549382E+02  0.51595096783E+02  0.00000000000E+00 0. -1.
<mgrwt>
<rscale>  0 0.14199906E+03</rscale>
<asrwt>0</asrwt>
<pdfrwt beam="2">  1        4 0.31064317E-01 0.14916941E+03</pdfrwt>
<pdfrwt beam="1">  1       -4 0.14265534E-01 0.14916941E+03</pdfrwt>
<totfact> 0.69055002E+02</totfact>
</mgrwt>
</event>
<event>
 8    1  0.1020295E-005  0.1559106E+03  0.7546771E-02  0.1201551E+00
         -3   -1    0    0    0  501 -0.00000000000E+00  0.00000000000E+00  0.54081851582E+02  0.54081851582E+02  0.00000000000E+00 0.  1.
          3   -1    0    0  501    0  0.00000000000E+00 -0.00000000000E+00 -0.40301088817E+03  0.40301088817E+03  0.00000000000E+00 0. -1.
         23    2    1    2    0    0  0.88163883484E+02 -0.30181952933E+02 -0.13366425401E+03  0.20536371485E+03  0.12499720774E+03 0.  0.
         23    2    1    2    0    0 -0.88163883484E+02  0.30181952933E+02 -0.21526478258E+03  0.25172902491E+03  0.91349629049E+02 0.  0.
          5    1    3    3  502    0  0.85036290641E+02 -0.65571590452E+02 -0.13096558384E+03  0.16942514085E+03  0.47000000000E+01 0. -1.
         -5    1    3    3    0  502  0.31275928425E+01  0.35389637520E+02 -0.26986701748E+01  0.35938574004E+02  0.47000000000E+01 0. -1.
        -11    1    4    4    0    0 -0.48094442096E+02  0.23907533514E+02 -0.28877197206E+02  0.60979816642E+02  0.00000000000E+00 0.  1.
         11    1    4    4    0    0 -0.40069441388E+02  0.62744194191E+01 -0.18638758537E+03  0.19074920826E+03  0.00000000000E+00 0. -1.
<mgrwt>
<rscale>  0 0.14912624E+03</rscale>
<asrwt>0</asrwt>
<pdfrwt beam="2">  1        3 0.62001673E-01 0.15591062E+03</pdfrwt>
<pdfrwt beam="1">  1       -3 0.83202851E-02 0.15591062E+03</pdfrwt>
<totfact> 0.60800132E+02</totfact>
</mgrwt>
</event>
<event>
 8    1  0.1020295E-005  0.1700172E+03  0.7546771E-02  0.1185010E+00
         -1   -1    0    0    0  501 -0.00000000000E+00  0.00000000000E+00  0.41212285983E+02  0.41212285983E+02  0.00000000000E+00 0.  1.
          1   -1    0    0  501    0  0.00000000000E+00 -0.00000000000E+00 -0.60367368485E+03  0.60367368485E+03  0.00000000000E+00 0. -1.
         23    2    1    2    0    0  0.84742530298E+02 -0.78081218929E+02 -0.28220145186E+03  0.32945942236E+03  0.12501151291E+03 0.  0.
         23    2    1    2    0    0 -0.84742530298E+02  0.78081218929E+02 -0.28025994701E+03  0.31542654847E+03  0.87580228328E+02 0.  0.
          5    1    3    3  502    0  0.99194114941E+02 -0.11316913235E+02 -0.18911451106E+03  0.21390169064E+03  0.47000000000E+01 0. -1.
         -5    1    3    3    0  502 -0.14451584643E+02 -0.66764305694E+02 -0.93086940796E+02  0.11555773172E+03  0.47000000000E+01 0. -1.
        -11    1    4    4    0    0  0.14911248898E+02  0.29071391002E+02 -0.80403389952E+02  0.86788226357E+02  0.00000000000E+00 0. -1.
         11    1    4    4    0    0 -0.99653779197E+02  0.49009827927E+02 -0.19985655706E+03  0.22863832212E+03  0.00000000000E+00 0.  1.
<mgrwt>
<rscale>  0 0.16331015E+03</rscale>
<asrwt>0</asrwt>
<pdfrwt beam="2">  1        1 0.92872864E-01 0.17001721E+03</pdfrwt>
<pdfrwt beam="1">  1       -1 0.63403524E-02 0.17001721E+03</pdfrwt>
<totfact> 0.41972955E+03</totfact>
</mgrwt>
</event>
<event>
 7    1  0.1020295E-005  0.1652369E+03  0.7546771E-02  0.1197001E+00
          4   -1    0    0  501    0  0.00000000000E+00  0.00000000000E+00  0.26354548408E+03  0.26354548408E+03  0.00000000000E+00 0. -1.
         -4   -1    0    0    0  501 -0.00000000000E+00 -0.00000000000E+00 -0.87541505039E+02  0.87541505039E+02  0.00000000000E+00 0.  1.
         23    2    1    2    0    0  0.45847591277E+02  0.86486314989E+02  0.13406634735E+03  0.18061115534E+03  0.71166843649E+02 0.  0.
          5    1    1    2  502    0  0.79901507447E+00 -0.10348645714E+03  0.57179661315E+02  0.11832873237E+03  0.47000000000E+01 0. -1.
         -5    1    1    2    0  502 -0.46646606352E+02  0.17000142153E+02 -0.15242029629E+02  0.52147101401E+02  0.47000000000E+01 0.  1.
        -11    1    3    3    0    0  0.36198368782E+02  0.98643520195E+02  0.11136627828E+03  0.15311209592E+03  0.00000000000E+00 0. -1.
         11    1    3    3    0    0  0.96492224947E+01 -0.12157205206E+02  0.22700069070E+02  0.27499059419E+02  0.00000000000E+00 0.  1.
<mgrwt>
<rscale>  0 0.15286127E+03</rscale>
<asrwt>0</asrwt>
<pdfrwt beam="1">  1        4 0.40545459E-01 0.16523694E+03</pdfrwt>
<pdfrwt beam="2">  1       -4 0.13467924E-01 0.16523694E+03</pdfrwt>
<totfact> 0.46399412E+02</totfact>
</mgrwt>
</event>
<event>
 8    1  0.1020295E-005  0.1739321E+03  0.7546771E-02  0.1179812E+00
         -2   -1    0    0    0  501 -0.00000000000E+00  0.00000000000E+00  0.37599663633E+03  0.37599663633E+03  0.00000000000E+00 0.  1.
          2   -1    0    0  501    0  0.00000000000E+00 -0.00000000000E+00 -0.83981985150E+02  0.83981985150E+02  0.00000000000E+00 0. -1.
         23    2    1    2    0    0  0.11750305930E+03  0.28640521786E+02  0.24604438822E+03  0.30131413294E+03  0.12500046920E+03 0.  0.
         23    2    1    2    0    0 -0.11750305930E+03 -0.28640521786E+02  0.45970262960E+02  0.15866448854E+03  0.91836302265E+02 0.  0.
          5    1    3    3  502    0  0.12707341805E+03  0.22527367767E+02  0.25518251788E+03  0.28599885193E+03  0.47000000000E+01 0.  1.
         -5    1    3    3    0  502 -0.95703587464E+01  0.61131540196E+01 -0.91381296625E+01  0.15315281007E+02  0.47000000000E+01 0.  1.
        -11    1    4    4    0    0 -0.96892482093E+02 -0.56269663553E+02  0.52244846574E+02  0.12362828202E+03  0.00000000000E+00 0.  1.
         11    1    4    4    0    0 -0.20610577210E+02  0.27629141766E+02 -0.62745836140E+01  0.35036206518E+02  0.00000000000E+00 0. -1.
<mgrwt>
<rscale>  0 0.16812987E+03</rscale>
<asrwt>0</asrwt>
<pdfrwt beam="2">  1        2 0.12920306E-01 0.17393207E+03</pdfrwt>
<pdfrwt beam="1">  1       -2 0.57845635E-01 0.17393207E+03</pdfrwt>
<totfact> 0.13106388E+03</totfact>
</mgrwt>
</event>
<event>
 8    1  0.1020295E-005  0.2469918E+03  0.7546771E-02  0.1117755E+00
         -2   -1    0    0    0  501 -0.00000000000E+00  0.00000000000E+00  0.92069114486E+02  0.92069114486E+02  0.00000000000E+00 0.  1.
          2   -1    0    0  501    0  0.00000000000E+00 -0.00000000000E+00 -0.62590067412E+03  0.62590067412E+03  0.00000000000E+00 0. -1.
         23    2    1    2    0    0  0.18923276196E+03  0.97828635356E+02 -0.24810391673E+03  0.35008640990E+03  0.12500184321E+03 0.  0.
         23    2    1    2    0    0 -0.18923276196E+03 -0.97828635356E+02 -0.28572764290E+03  0.36788337870E+03  0.91205341456E+02 0.  0.
          5    1    3    3  502    0 -0.11175504535E+02 -0.82850324532E+01 -0.10764130308E+01  0.14723529787E+02  0.47000000000E+01 0.  1.
         -5    1    3    3    0  502  0.20040826650E+03  0.10611366781E+03 -0.24702750370E+03  0.33536288012E+03  0.47000000000E+01 0.  1.
        -11    1    4    4    0    0 -0.61269604966E+02 -0.19882274823E+02 -0.29025080232E+02  0.70652138165E+02  0.00000000000E+00 0.  1.
         11    1    4    4    0    0 -0.12796315700E+03 -0.77946360533E+02 -0.25670256267E+03  0.29723124053E+03  0.00000000000E+00 0. -1.
<mgrwt>
<rscale>  0 0.24308409E+03</rscale>
<asrwt>0</asrwt>
<pdfrwt beam="2">  1        2 0.96292414E-01 0.24699178E+03</pdfrwt>
<pdfrwt beam="1">  1       -2 0.14164479E-01 0.24699178E+03</pdfrwt>
<totfact> 0.18033846E+03</totfact>
</mgrwt>
</event>
<event>
 7    1  0.1020295E-005  0.1662027E+03  0.7546771E-02  0.1207359E+00
         -1   -1    0    0    0  501 -0.00000000000E+00  0.00000000000E+00  0.48623703563E+03  0.48623703563E+03  0.00000000000E+00 0.  1.
          1   -1    0    0  501    0  0.00000000000E+00 -0.00000000000E+00 -0.42361134545E+02  0.42361134545E+02  0.00000000000E+00 0. -1.
         23    2    1    2    0    0  0.10957897764E+02  0.27604834480E+02  0.65786575781E+02  0.11559105272E+03  0.90284636052E+02 0.  0.
          5    1    1    2  502    0 -0.71753237405E+02 -0.27859278225E+02  0.89925941623E+02  0.11846278503E+03  0.47000000000E+01 0. -1.
         -5    1    1    2    0  502  0.60795339641E+02  0.25444374492E+00  0.28816338368E+03  0.29454433241E+03  0.47000000000E+01 0.  1.
        -11    1    3    3    0    0  0.37596681868E+02  0.48109313888E+02  0.47234065764E+02  0.77195035714E+02  0.00000000000E+00 0. -1.
         11    1    3    3    0    0 -0.26638784104E+02 -0.20504479409E+02  0.18552510018E+02  0.38396017011E+02  0.00000000000E+00 0.  1.
<mgrwt>
<rscale>  0 0.14453069E+03</rscale>
<asrwt>0</asrwt>
<pdfrwt beam="2">  1        1 0.65170980E-02 0.16620271E+03</pdfrwt>
<pdfrwt beam="1">  1       -1 0.74805694E-01 0.16620271E+03</pdfrwt>
<totfact> 0.21151909E+03</totfact>
</mgrwt>
</event>
<event>
 8    1  0.1020295E-005  0.1268658E+03  0.7546771E-02  0.1247777E+00
         -2   -1    0    0    0  501 -0.00000000000E+00  0.00000000000E+00  0.19136529532E+02  0.19136529532E+02  0.00000000000E+00 0.  1.
          2   -1    0    0  501    0  0.00000000000E+00 -0.00000000000E+00 -0.69748570917E+03  0.69748570917E+03  0.00000000000E+00 0. -1.
         23    2    1    2    0    0 -0.14966345275E+02 -0.15656480920E+02 -0.27550248808E+03  0.30330932987E+03  0.12500324700E+03 0.  0.
         23    2    1    2    0    0  0.14966345275E+02  0.15656480920E+02 -0.40284669155E+03  0.41331290883E+03  0.89849801476E+02 0.  0.
          5    1    3    3  502    0 -0.56933226439E+02 -0.88060598774E+01 -0.58906687139E+02  0.82528944940E+02  0.47000000000E+01 0. -1.
         -5    1    3    3    0  502  0.41966881164E+02 -0.68504210422E+01 -0.21659580095E+03  0.22078038493E+03  0.47000000000E+01 0. -1.
        -11    1    4    4    0    0 -0.36402395177E+02  0.12298201408E+02 -0.22120961937E+03  0.22452188275E+03  0.00000000000E+00 0. -1.
         11    1    4    4    0    0  0.51368740452E+02  0.33582795121E+01 -0.18163707218E+03  0.18879102608E+03  0.00000000000E+00 0.  1.
<mgrwt>
<rscale>  0 0.11720712E+03</rscale>
<asrwt>0</asrwt>
<pdfrwt beam="2">  1        2 0.10730550E+00 0.12686579E+03</pdfrwt>
<pdfrwt beam="1">  1       -2 0.29440814E-02 0.12686579E+03</pdfrwt>
<totfact> 0.17312486E+04</totfact>
</mgrwt>
</event>
<event>
 8    1  0.1020295E-005  0.1269229E+03  0.7546771E-02  0.1245039E+00
          1   -1    0    0  501    0  0.00000000000E+00  0.00000000000E+00  0.19271905577E+03  0.19271905577E+03  0.00000000000E+00 0. -1.
         -1   -1    0    0    0  501 -0.00000000000E+00 -0.00000000000E+00 -0.11562458801E+03  0.11562458801E+03  0.00000000000E+00 0.  1.
         23    2    1    2    0    0  0.21931774057E+02  0.15192460074E+01 -0.59768219453E+02  0.14029134611E+03  0.12500444358E+03 0.  0.
         23    2    1    2    0    0 -0.21931774057E+02 -0.15192460074E+01  0.13686268722E+03  0.16805229767E+03  0.95009835161E+02 0.  0.
          5    1    3    3  502    0  0.58803953294E+02 -0.28693379699E+02 -0.64699746206E+02  0.92137734510E+02  0.47000000000E+01 0.  1.
         -5    1    3    3    0  502 -0.36872179237E+02  0.30212625706E+02  0.49315267529E+01  0.48153611597E+02  0.47000000000E+01 0.  1.
        -11    1    4    4    0    0  0.61168399112E+01  0.79270272668E+01 -0.12369189675E+02  0.15913841303E+02  0.00000000000E+00 0.  1.
         11    1    4    4    0    0 -0.28048613969E+02 -0.94462732742E+01  0.14923187689E+03  0.15213845636E+03  0.00000000000E+00 0. -1.
<mgrwt>
<rscale>  0 0.11883068E+03</rscale>
<asrwt>0</asrwt>
<pdfrwt beam="1">  1        1 0.29649085E-01 0.12692290E+03</pdfrwt>
<pdfrwt beam="2">  1       -1 0.17788398E-01 0.12692290E+03</pdfrwt>
<totfact> 0.36029553E+03</totfact>
</mgrwt>
</event>
<event>
 8    1  0.1020295E-005  0.1417599E+03  0.7546771E-02  0.1221212E+00
          1   -1    0    0  501    0  0.00000000000E+00  0.00000000000E+00  0.99979269846E+02  0.99979269846E+02  0.00000000000E+00 0. -1.
         -1   -1    0    0    0  501 -0.00000000000E+00 -0.00000000000E+00 -0.17655962837E+03  0.17655962837E+03  0.00000000000E+00 0.  1.
         23    2    1    2    0    0  0.24788461412E+02 -0.62098462548E+02 -0.79067380809E+02  0.16231917973E+03  0.12500071412E+03 0.  0.
         23    2    1    2    0    0 -0.24788461412E+02  0.62098462548E+02  0.24870222837E+01  0.11421971849E+03  0.92570362111E+02 0.  0.
          5    1    3    3  502    0 -0.40164400395E+02 -0.64038220163E+02 -0.33510577880E+02  0.82819813635E+02  0.47000000000E+01 0. -1.
         -5    1    3    3    0  502  0.64952861806E+02  0.19397576146E+01 -0.45556802929E+02  0.79499366095E+02  0.47000000000E+01 0. -1.
        -11    1    4    4    0    0 -0.14825832756E+02 -0.12367358576E+02 -0.27269364441E+02  0.33412200048E+02  0.00000000000E+00 0.  1.
         11    1    4    4    0    0 -0.99626286559E+01  0.74465821124E+02  0.29756386724E+02  0.80807518439E+02  0.00000000000E+00 0. -1.
<mgrwt>
<rscale>  0 0.13429955E+03</rscale>
<asrwt>0</asrwt>
<pdfrwt beam="1">  1        1 0.15381426E-01 0.14175989E+03</pdfrwt>
<pdfrwt beam="2">  1       -1 0.27163019E-01 0.14175989E+03</pdfrwt>
<totfact> 0.41908899E+03</totfact>
</mgrwt>
</event>
<event>
 8    1  0.1020295E-005  0.1948821E+03  0.7546771E-02  0.1158499E+00
          2   -1    0    0  501    0  0.00000000000E+00  0.00000000000E+00  0.79270348465E+03  0.79270348465E+03  0.00000000000E+00 0. -1.
         -2   -1    0    0    0  501 -0.00000000000E+00 -0.00000000000E+00 -0.47437339792E+02  0.47437339792E+02  0.00000000000E+00 0.  1.
         23    2    1    2    0    0 -0.14926752159E+03 -0.84470337453E+01  0.26708589531E+03  0.33062653135E+03  0.12500752930E+03 0.  0.
         23    2    1    2    0    0  0.14926752159E+03  0.84470337453E+01  0.47818024955E+03  0.50951429308E+03  0.92716333074E+02 0.  0.
          5    1    3    3  502    0 -0.91035103807E+01 -0.38145945984E+02  0.11515838031E+03  0.12174370477E+03  0.47000000000E+01 0. -1.
         -5    1    3    3    0  502 -0.14016401121E+03  0.29698912239E+02  0.15192751500E+03  0.20888282658E+03  0.47000000000E+01 0. -1.
        -11    1    4    4    0    0  0.68126023666E+02  0.50218924556E+02  0.22585842642E+03  0.24119519951E+03  0.00000000000E+00 0.  1.
         11    1    4    4    0    0  0.81141497928E+02 -0.41771890811E+02  0.25232182313E+03  0.26831909357E+03  0.00000000000E+00 0. -1.
<mgrwt>
<rscale>  0 0.18995854E+03</rscale>
<asrwt>0</asrwt>
<pdfrwt beam="1">  1        2 0.12195437E+00 0.19488209E+03</pdfrwt>
<pdfrwt beam="2">  1       -2 0.72980529E-02 0.19488209E+03</pdfrwt>
<totfact> 0.38727644E+03</totfact>
</mgrwt>
</event>
<event>
 8    1  0.1020295E-005  0.1286276E+03  0.7546771E-02  0.1242301E+00
          2   -1    0    0  501    0  0.00000000000E+00  0.00000000000E+00  0.25809427818E+03  0.25809427818E+03  0.00000000000E+00 0.  1.
         -2   -1    0    0    0  501 -0.00000000000E+00 -0.00000000000E+00 -0.53629478934E+02  0.53629478934E+02  0.00000000000E+00 0. -1.
         23    2    1    2    0    0 -0.26578183605E+02  0.14619135976E+02  0.75559784643E+02  0.14917885025E+03  0.12499971731E+03 0.  0.
         23    2    1    2    0    0  0.26578183605E+02 -0.14619135976E+02  0.12890501460E+03  0.16254490686E+03  0.94256166783E+02 0.  0.
          5    1    3    3  502    0 -0.84786367141E+01 -0.19818125272E+02 -0.29621624222E+02  0.36934753166E+02  0.47000000000E+01 0. -1.
         -5    1    3    3    0  502 -0.18099546891E+02  0.34437261249E+02  0.10518140887E+03  0.11224409709E+03  0.47000000000E+01 0. -1.
        -11    1    4    4    0    0  0.49976650648E+02  0.20062038638E+02  0.51273686419E+02  0.74358200108E+02  0.00000000000E+00 0. -1.
         11    1    4    4    0    0 -0.23398467042E+02 -0.34681174615E+02  0.77631328184E+02  0.88186706754E+02  0.00000000000E+00 0.  1.
<mgrwt>
<rscale>  0 0.12048357E+03</rscale>
<asrwt>0</asrwt>
<pdfrwt beam="1">  1        2 0.39706811E-01 0.12862756E+03</pdfrwt>
<pdfrwt beam="2">  1       -2 0.82506892E-02 0.12862756E+03</pdfrwt>
<totfact> 0.10897691E+04</totfact>
</mgrwt>
</event>
<event>
 8    1  0.1020295E-005  0.2447539E+03  0.7546771E-02  0.1119410E+00
         -2   -1    0    0    0  501 -0.00000000000E+00  0.00000000000E+00  0.44504396934E+02  0.44504396934E+02  0.00000000000E+00 0.  1.
          2   -1    0    0  501    0  0.00000000000E+00 -0.00000000000E+00 -0.14659623437E+04  0.14659623437E+04  0.00000000000E+00 0. -1.
         23    2    1    2    0    0 -0.15927197747E+01 -0.21042524604E+03 -0.44736678199E+03  0.50994265586E+03  0.12499261460E+03 0.  0.
         23    2    1    2    0    0  0.15927197747E+01  0.21042524604E+03 -0.97409116477E+03  0.10005240848E+04  0.88958001319E+02 0.  0.
          5    1    3    3  502    0 -0.59752659872E+01 -0.38268457505E+02 -0.10604547156E+02  0.40431733376E+02  0.47000000000E+01 0. -1.
         -5    1    3    3    0  502  0.43825462125E+01 -0.17215678854E+03 -0.43676223484E+03  0.46951092248E+03  0.47000000000E+01 0. -1.
        -11    1    4    4    0    0 -0.11402214087E+02  0.14041245719E+03 -0.80205930171E+03  0.81433702610E+03  0.00000000000E+00 0.  1.
         11    1    4    4    0    0  0.12994933862E+02  0.70012788849E+02 -0.17203186306E+03  0.18618705867E+03  0.00000000000E+00 0. -1.
<mgrwt>
<rscale>  0 0.24057510E+03</rscale>
<asrwt>0</asrwt>
<pdfrwt beam="2">  1        2 0.22553268E+00 0.24475391E+03</pdfrwt>
<pdfrwt beam="1">  1       -2 0.68468300E-02 0.24475391E+03</pdfrwt>
<totfact> 0.17190089E+03</totfact>
</mgrwt>
</event>
<event>
 8    1  0.1020295E-005  0.1510899E+03  0.7546771E-02  0.1207968E+00
          4   -1    0    0  501    0  0.00000000000E+00  0.00000000000E+00  0.19503026402E+03  0.19503026402E+03  0.00000000000E+00 0. -1.
         -4   -1    0    0    0  501 -0.00000000000E+00 -0.00000000000E+00 -0.13813313217E+03  0.13813313217E+03  0.00000000000E+00 0.  1.
         23    2    1    2    0    0 -0.21042112692E+02  0.82225860016E+02 -0.59568122449E+02  0.16240845449E+03  0.12499712923E+03 0.  0.
         23    2    1    2    0    0  0.21042112692E+02 -0.82225860016E+02  0.11646525430E+03  0.17075494171E+03  0.91592751330E+02 0.  0.
          5    1    3    3  502    0  0.23457064333E+02  0.58296821920E+02 -0.84870824282E+02  0.10570667021E+03  0.47000000000E+01 0. -1.
         -5    1    3    3    0  502 -0.44499177025E+02  0.23929038096E+02  0.25302701833E+02  0.56701784277E+02  0.47000000000E+01 0. -1.
        -11    1    4    4    0    0  0.44799182562E+02 -0.30987344733E+02  0.96572703478E+02  0.11087591871E+03  0.00000000000E+00 0. -1.
         11    1    4    4    0    0 -0.23757069870E+02 -0.51238515283E+02  0.19892550821E+02  0.59879023000E+02  0.00000000000E+00 0.  1.
<mgrwt>
<rscale>  0 0.14405987E+03</rscale>
<asrwt>0</asrwt>
<pdfrwt beam="1">  1        4 0.30004656E-01 0.15108986E+03</pdfrwt>
<pdfrwt beam="2">  1       -4 0.21251251E-01 0.15108986E+03</pdfrwt>
<totfact> 0.36417527E+02</totfact>
</mgrwt>
</event>
<event>
 8    1  0.1020295E-005  0.1388260E+03  0.7546771E-02  0.1225692E+00
         -4   -1    0    0    0  501 -0.00000000000E+00  0.00000000000E+00  0.94146071656E+02  0.94146071656E+02  0.00000000000E+00 0.  1.
          4   -1    0    0  501    0  0.00000000000E+00 -0.00000000000E+00 -0.16618429336E+03  0.16618429336E+03  0.00000000000E+00 0. -1.
         23    2    1    2    0    0 -0.53816196227E+02  0.27385440593E+02 -0.31043008342E+02  0.14225441341E+03  0.12500601759E+03 0.  0.
         23    2    1    2    0    0  0.53816196227E+02 -0.27385440593E+02 -0.40995213360E+02  0.11807595161E+03  0.92817980463E+02 0.  0.
          5    1    3    3  502    0  0.91156150315E+01  0.49370282502E+02 -0.51788187406E+02  0.72281571556E+02  0.47000000000E+01 0. -1.
         -5    1    3    3    0  502 -0.62931811259E+02 -0.21984841909E+02  0.20745179064E+02  0.69972841849E+02  0.47000000000E+01 0. -1.
        -11    1    4    4    0    0  0.68792099233E+02  0.10754984020E+02 -0.23055451076E+02  0.73345595795E+02  0.00000000000E+00 0.  1.
         11    1    4    4    0    0 -0.14975903006E+02 -0.38140424614E+02 -0.17939762284E+02  0.44730355815E+02  0.00000000000E+00 0. -1.
<mgrwt>
<rscale>  0 0.13119588E+03</rscale>
<asrwt>0</asrwt>
<pdfrwt beam="2">  1        4 0.25566814E-01 0.13882597E+03</pdfrwt>
<pdfrwt beam="1">  1       -4 0.14484011E-01 0.13882597E+03</pdfrwt>
<totfact> 0.95549769E+02</totfact>
</mgrwt>
</event>
<event>
 8    1  0.1020295E-005  0.1316927E+03  0.7546771E-02  0.1239640E+00
         -1   -1    0    0    0  501 -0.00000000000E+00  0.00000000000E+00  0.44927960001E+02  0.44927960001E+02  0.00000000000E+00 0.  1.
          1   -1    0    0  501    0  0.00000000000E+00 -0.00000000000E+00 -0.29289089975E+03  0.29289089975E+03  0.00000000000E+00 0. -1.
         23    2    1    2    0    0  0.37029947264E+02 -0.18617439683E+02 -0.15176533511E+03  0.20093704663E+03  0.12500061486E+03 0.  0.
         23    2    1    2    0    0 -0.37029947264E+02  0.18617439683E+02 -0.96197604637E+02  0.13688181311E+03  0.88118247648E+02 0.  0.
          5    1    3    3  502    0  0.17731021111E+02 -0.39420553191E+02  0.29418200408E+01  0.43578818579E+02  0.47000000000E+01 0. -1.
         -5    1    3    3    0  502  0.19298926152E+02  0.20803113508E+02 -0.15470715515E+03  0.15735822806E+03  0.47000000000E+01 0. -1.
        -11    1    4    4    0    0 -0.50238736299E+02  0.23323121107E+02 -0.10611928361E+03  0.11970464050E+03  0.00000000000E+00 0. -1.
         11    1    4    4    0    0  0.13208789035E+02 -0.47056814234E+01  0.99216789722E+01  0.17177172615E+02  0.00000000000E+00 0.  1.
<mgrwt>
<rscale>  0 0.12212023E+03</rscale>
<asrwt>0</asrwt>
<pdfrwt beam="2">  1        1 0.45060139E-01 0.13169275E+03</pdfrwt>
<pdfrwt beam="1">  1       -1 0.69119938E-02 0.13169275E+03</pdfrwt>
<totfact> 0.91956906E+03</totfact>
</mgrwt>
</event>
<event>
 8    1  0.1020295E-005  0.2607030E+03  0.7546771E-02  0.1108455E+00
          1   -1    0    0  501    0  0.00000000000E+00  0.00000000000E+00  0.81190218594E+03  0.81190218594E+03  0.00000000000E+00 0. -1.
         -1   -1    0    0    0  501 -0.00000000000E+00 -0.00000000000E+00 -0.81902418052E+02  0.81902418052E+02  0.00000000000E+00 0.  1.
         23    2    1    2    0    0  0.20429895575E+03 -0.10296633778E+03  0.30699849647E+03  0.40275812580E+03  0.12500360404E+03 0.  0.
         23    2    1    2    0    0 -0.20429895575E+03  0.10296633778E+03  0.42300127141E+03  0.49104647819E+03  0.99279595522E+02 0.  0.
          5    1    3    3  502    0  0.11380699848E+03 -0.37757373179E+02  0.65516349617E+02  0.13671918007E+03  0.47000000000E+01 0. -1.
         -5    1    3    3    0  502  0.90491957279E+02 -0.65208964602E+02  0.24148214686E+03  0.26603894573E+03  0.47000000000E+01 0. -1.
        -11    1    4    4    0    0 -0.50399500479E+02  0.26973612011E+02  0.20922134982E+03  0.21688996891E+03  0.00000000000E+00 0. -1.
         11    1    4    4    0    0 -0.15389945528E+03  0.75992725770E+02  0.21377992159E+03  0.27415650928E+03  0.00000000000E+00 0.  1.
<mgrwt>
<rscale>  0 0.25782811E+03</rscale>
<asrwt>0</asrwt>
<pdfrwt beam="1">  1        1 0.12490802E+00 0.26070296E+03</pdfrwt>
<pdfrwt beam="2">  1       -1 0.12600373E-01 0.26070296E+03</pdfrwt>
<totfact> 0.95710422E+02</totfact>
</mgrwt>
</event>
<event>
 8    1  0.1020295E-005  0.1177019E+03  0.7546771E-02  0.1257715E+00
          2   -1    0    0  501    0  0.00000000000E+00  0.00000000000E+00  0.78132528329E+03  0.78132528329E+03  0.00000000000E+00 0. -1.
         -2   -1    0    0    0  501 -0.00000000000E+00 -0.00000000000E+00 -0.15992002895E+02  0.15992002895E+02  0.00000000000E+00 0.  1.
         23    2    1    2    0    0 -0.74432206913E+01 -0.26210063739E+02  0.29744416377E+03  0.31988554294E+03  0.11450485162E+03 0.  0.
         23    2    1    2    0    0  0.74432206913E+01  0.26210063739E+02  0.46788911662E+03  0.47743174324E+03  0.90986125472E+02 0.  0.
          5    1    3    3  502    0 -0.10597771771E+02 -0.12513721184E+02  0.30342508730E+03  0.30390422766E+03  0.47000000000E+01 0. -1.
         -5    1    3    3    0  502  0.31545510796E+01 -0.13696342554E+02 -0.59809235301E+01  0.15981315282E+02  0.47000000000E+01 0.  1.
        -11    1    4    4    0    0  0.16556845868E+02 -0.31200511028E+02  0.13727867687E+03  0.14174990708E+03  0.00000000000E+00 0.  1.
         11    1    4    4    0    0 -0.91136251767E+01  0.57410574766E+02  0.33061043975E+03  0.33568183616E+03  0.00000000000E+00 0. -1.
<mgrwt>
<rscale>  0 0.11155612E+03</rscale>
<asrwt>0</asrwt>
<pdfrwt beam="1">  1        2 0.12020386E+00 0.11770187E+03</pdfrwt>
<pdfrwt beam="2">  1       -2 0.24603088E-02 0.11770187E+03</pdfrwt>
<totfact> 0.19511058E+04</totfact>
</mgrwt>
</event>
<event>
 8    1  0.1020295E-005  0.1334689E+03  0.7546771E-02  0.1235419E+00
          2   -1    0    0  501    0  0.00000000000E+00  0.00000000000E+00  0.63733599745E+03  0.63733599745E+03  0.00000000000E+00 0. -1.
         -2   -1    0    0    0  501 -0.00000000000E+00 -0.00000000000E+00 -0.25999484679E+02  0.25999484679E+02  0.00000000000E+00 0.  1.
         23    2    1    2    0    0 -0.44582173474E+02 -0.14244289126E+02  0.20665064390E+03  0.24600494182E+03  0.12499389109E+03 0.  0.
         23    2    1    2    0    0  0.44582173474E+02  0.14244289126E+02  0.40468586887E+03  0.41733054031E+03  0.90574044001E+02 0.  0.
          5    1    3    3  502    0 -0.45607678372E+02 -0.55194390017E+02  0.59583191458E+02  0.93266970145E+02  0.47000000000E+01 0. -1.
         -5    1    3    3    0  502  0.10255048976E+01  0.40950100891E+02  0.14706745244E+03  0.15273797167E+03  0.47000000000E+01 0. -1.
        -11    1    4    4    0    0  0.37884108683E+02  0.49204288114E+02  0.31036244925E+03  0.31651400848E+03  0.00000000000E+00 0.  1.
         11    1    4    4    0    0  0.66980647907E+01 -0.34959998988E+02  0.94323419627E+02  0.10081653184E+03  0.00000000000E+00 0. -1.
<mgrwt>
<rscale>  0 0.12477671E+03</rscale>
<asrwt>0</asrwt>
<pdfrwt beam="1">  1        2 0.98051680E-01 0.13346888E+03</pdfrwt>
<pdfrwt beam="2">  1       -2 0.39999212E-02 0.13346888E+03</pdfrwt>
<totfact> 0.12285453E+04</totfact>
</mgrwt>
</event>
<event>
 8    1  0.1020295E-005  0.1986574E+03  0.7546771E-02  0.1155403E+00
         -4   -1    0    0    0  501 -0.00000000000E+00  0.00000000000E+00  0.38881048908E+03  0.38881048908E+03  0.00000000000E+00 0.  1.
          4   -1    0    0  501    0  0.00000000000E+00 -0.00000000000E+00 -0.93153943352E+02  0.93153943352E+02  0.00000000000E+00 0. -1.
         23    2    1    2    0    0  0.21697472315E+02  0.15286990106E+03  0.18770615379E+03  0.27330998196E+03  0.12499903644E+03 0.  0.
         23    2    1    2    0    0 -0.21697472315E+02 -0.15286990106E+03  0.10795039193E+03  0.20865445048E+03  0.89685035715E+02 0.  0.
          5    1    3    3  502    0  0.51931922485E+02  0.65226966986E+02  0.15280618849E+03  0.17413587522E+03  0.47000000000E+01 0. -1.
         -5    1    3    3    0  502 -0.30234450170E+02  0.87642934071E+02  0.34899965300E+02  0.99174106739E+02  0.47000000000E+01 0. -1.
        -11    1    4    4    0    0 -0.36439282250E+02 -0.17933654353E+02  0.11737808139E+02  0.42275446648E+02  0.00000000000E+00 0. -1.
         11    1    4    4    0    0  0.14741809935E+02 -0.13493624670E+03  0.96212583795E+02  0.16637900383E+03  0.00000000000E+00 0.  1.
<mgrwt>
<rscale>  0 0.19343010E+03</rscale>
<asrwt>0</asrwt>
<pdfrwt beam="2">  1        4 0.14331376E-01 0.19865736E+03</pdfrwt>
<pdfrwt beam="1">  1       -4 0.59816997E-01 0.19865736E+03</pdfrwt>
<totfact> 0.19368655E+02</totfact>
</mgrwt>
</event>
<event>
 8    1  0.1020295E-005  0.1419100E+03  0.7546771E-02  0.1220788E+00
         -2   -1    0    0    0  501 -0.00000000000E+00  0.00000000000E+00  0.29934717276E+02  0.29934717276E+02  0.00000000000E+00 0.  1.
          2   -1    0    0  501    0  0.00000000000E+00 -0.00000000000E+00 -0.55058776932E+03  0.55058776932E+03  0.00000000000E+00 0. -1.
         23    2    1    2    0    0 -0.57270415898E+02  0.35119017811E+02 -0.28572526112E+03  0.31902565403E+03  0.12500078856E+03 0.  0.
         23    2    1    2    0    0  0.57270415898E+02 -0.35119017811E+02 -0.23492779093E+03  0.26149683256E+03  0.93146554108E+02 0.  0.
          5    1    3    3  502    0 -0.35949826731E+02  0.63835245337E+02 -0.73956444549E+02  0.10420640230E+03  0.47000000000E+01 0. -1.
         -5    1    3    3    0  502 -0.21320589168E+02 -0.28716227526E+02 -0.21176881657E+03  0.21481925174E+03  0.47000000000E+01 0. -1.
        -11    1    4    4    0    0 -0.38442735653E+00 -0.50092529281E+02 -0.69504452645E+02  0.85675423615E+02  0.00000000000E+00 0.  1.
         11    1    4    4    0    0  0.57654843255E+02  0.14973511471E+02 -0.16542333828E+03  0.17582140895E+03  0.00000000000E+00 0. -1.
<mgrwt>
<rscale>  0 0.13459792E+03</rscale>
<asrwt>0</asrwt>
<pdfrwt beam="2">  1        2 0.84705812E-01 0.14190998E+03</pdfrwt>
<pdfrwt beam="1">  1       -2 0.46053410E-02 0.14190998E+03</pdfrwt>
<totfact> 0.11806621E+04</totfact>
</mgrwt>
</event>
<event>
 8    1  0.1020295E-005  0.2755130E+03  0.7546771E-02  0.1100110E+00
          2   -1    0    0  501    0  0.00000000000E+00  0.00000000000E+00  0.44068870241E+03  0.44068870241E+03  0.00000000000E+00 0. -1.
         -2   -1    0    0    0  501 -0.00000000000E+00 -0.00000000000E+00 -0.16386529468E+03  0.16386529468E+03  0.00000000000E+00 0.  1.
         23    2    1    2    0    0  0.73381308286E+02  0.23429967029E+03  0.14070565432E+03  0.30936303117E+03  0.12500500787E+03 0.  0.
         23    2    1    2    0    0 -0.73381308286E+02 -0.23429967029E+03  0.13611775341E+03  0.29519096591E+03  0.91260679696E+02 0.  0.
          5    1    3    3  502    0  0.82971579324E+02  0.22400721156E+03  0.15810399188E+03  0.28650039451E+03  0.47000000000E+01 0. -1.
         -5    1    3    3    0  502 -0.95902710382E+01  0.10292458733E+02 -0.17398337559E+02  0.22862636663E+02  0.47000000000E+01 0. -1.
        -11    1    4    4    0    0 -0.32392993014E+01 -0.10646205022E+03  0.19062810576E+02  0.10820375198E+03  0.00000000000E+00 0.  1.
         11    1    4    4    0    0 -0.70142008984E+02 -0.12783762008E+03  0.11705494284E+03  0.18698721393E+03  0.00000000000E+00 0. -1.
<mgrwt>
<rscale>  0 0.27205375E+03</rscale>
<asrwt>0</asrwt>
<pdfrwt beam="1">  1        2 0.67798261E-01 0.27551298E+03</pdfrwt>
<pdfrwt beam="2">  1       -2 0.25210046E-01 0.27551298E+03</pdfrwt>
<totfact> 0.10061329E+03</totfact>
</mgrwt>
</event>
<event>
 7    1  0.1020295E-005  0.1440309E+03  0.7546771E-02  0.1228240E+00
         -3   -1    0    0    0  501 -0.00000000000E+00  0.00000000000E+00  0.76552188158E+02  0.76552188158E+02  0.00000000000E+00 0.  1.
          3   -1    0    0  501    0  0.00000000000E+00 -0.00000000000E+00 -0.19207311382E+03  0.19207311382E+03  0.00000000000E+00 0. -1.
         23    2    1    2    0    0 -0.14514026135E+02 -0.12815971771E+02 -0.71101516584E+02  0.11790043458E+03  0.92033584770E+02 0.  0.
          5    1    1    2  502    0 -0.17474173301E+02 -0.28687798394E+02  0.39259084313E+02  0.51881617268E+02  0.47000000000E+01 0. -1.
         -5    1    1    2    0  502  0.31988199436E+02  0.41503770164E+02 -0.83678493389E+02  0.98843250133E+02  0.47000000000E+01 0.  1.
        -11    1    3    3    0    0  0.29342069471E+02  0.18982539811E+02 -0.47103362448E+02  0.58651688914E+02  0.00000000000E+00 0.  1.
         11    1    3    3    0    0 -0.43856095606E+02 -0.31798511582E+02 -0.23998154136E+02  0.59248745662E+02  0.00000000000E+00 0. -1.
<mgrwt>
<rscale>  0 0.12947310E+03</rscale>
<asrwt>0</asrwt>
<pdfrwt beam="2">  1        3 0.29549710E-01 0.14403091E+03</pdfrwt>
<pdfrwt beam="1">  1       -3 0.11777260E-01 0.14403091E+03</pdfrwt>
<totfact> 0.14377094E+03</totfact>
</mgrwt>
</event>
<event>
 7    1  0.1020295E-005  0.1730627E+03  0.7546771E-02  0.1196464E+00
         -1   -1    0    0    0  501 -0.00000000000E+00  0.00000000000E+00  0.58951815166E+02  0.58951815166E+02  0.00000000000E+00 0.  1.
          1   -1    0    0  501    0  0.00000000000E+00 -0.00000000000E+00 -0.34817134945E+03  0.34817134945E+03  0.00000000000E+00 0. -1.
         23    2    1    2    0    0  0.45980540708E+02  0.28706268307E+02 -0.15502797886E+03  0.18812986065E+03  0.91765517900E+02 0.  0.
          5    1    1    2  502    0 -0.23381444682E+02 -0.83364295587E+02 -0.13406430977E+03  0.15966097484E+03  0.47000000000E+01 0. -1.
         -5    1    1    2    0  502 -0.22599096026E+02  0.54658027280E+02 -0.12724565461E+00  0.59332329120E+02  0.47000000000E+01 0.  1.
        -11    1    3    3    0    0  0.73443017809E+02  0.21964400792E+02 -0.97490352487E+02  0.12401887193E+03  0.00000000000E+00 0. -1.
         11    1    3    3    0    0 -0.27462477101E+02  0.67418675149E+01 -0.57537626370E+02  0.64110988718E+02  0.00000000000E+00 0.  1.
<mgrwt>
<rscale>  0 0.15331015E+03</rscale>
<asrwt>0</asrwt>
<pdfrwt beam="2">  1        1 0.53564823E-01 0.17306269E+03</pdfrwt>
<pdfrwt beam="1">  1       -1 0.90695101E-02 0.17306269E+03</pdfrwt>
<totfact> 0.50008091E+03</totfact>
</mgrwt>
</event>
<event>
 8    1  0.1020295E-005  0.1681886E+03  0.7546771E-02  0.1186363E+00
         -1   -1    0    0    0  501 -0.00000000000E+00  0.00000000000E+00  0.45336953046E+03  0.45336953046E+03  0.00000000000E+00 0.  1.
          1   -1    0    0  501    0  0.00000000000E+00 -0.00000000000E+00 -0.64444736165E+02  0.64444736165E+02  0.00000000000E+00 0. -1.
         23    2    1    2    0    0 -0.10714118271E+03 -0.34414132587E+02  0.30994577914E+03  0.35263834327E+03  0.12499539823E+03 0.  0.
         23    2    1    2    0    0  0.10714118271E+03  0.34414132587E+02  0.78979015148E+02  0.16517592335E+03  0.91552363529E+02 0.  0.
          5    1    3    3  502    0 -0.84821878693E+01 -0.63186420568E+02  0.14135522903E+03  0.15513820299E+03  0.47000000000E+01 0. -1.
         -5    1    3    3    0  502 -0.98658994843E+02  0.28772287981E+02  0.16859055012E+03  0.19750014027E+03  0.47000000000E+01 0. -1.
        -11    1    4    4    0    0  0.96611876764E+02  0.52277669185E+02  0.32938085548E+02  0.11468097884E+03  0.00000000000E+00 0. -1.
         11    1    4    4    0    0  0.10529305948E+02 -0.17863536598E+02  0.46040929600E+02  0.50494944519E+02  0.00000000000E+00 0.  1.
<mgrwt>
<rscale>  0 0.16208474E+03</rscale>
<asrwt>0</asrwt>
<pdfrwt beam="2">  1        1 0.99145751E-02 0.16818863E+03</pdfrwt>
<pdfrwt beam="1">  1       -1 0.69749156E-01 0.16818863E+03</pdfrwt>
<totfact> 0.13823417E+03</totfact>
</mgrwt>
</event>
<event>
 8    1  0.1020295E-005  0.1371602E+03  0.7546771E-02  0.1228761E+00
          2   -1    0    0  501    0  0.00000000000E+00  0.00000000000E+00  0.68829306046E+02  0.68829306046E+02  0.00000000000E+00 0. -1.
         -2   -1    0    0    0  501 -0.00000000000E+00 -0.00000000000E+00 -0.21804956717E+03  0.21804956717E+03  0.00000000000E+00 0.  1.
         23    2    1    2    0    0  0.32372688519E+02 -0.46266859933E+02 -0.88077463559E+02  0.16300481234E+03  0.12499726385E+03 0.  0.
         23    2    1    2    0    0 -0.32372688519E+02  0.46266859933E+02 -0.61142797559E+02  0.12387406087E+03  0.91748176947E+02 0.  0.
          5    1    3    3  502    0 -0.44148270736E+02 -0.40279858157E+02 -0.44084760893E+02  0.74411645091E+02  0.47000000000E+01 0. -1.
         -5    1    3    3    0  502  0.76520959255E+02 -0.59870017765E+01 -0.43992702667E+02  0.88593167251E+02  0.47000000000E+01 0. -1.
        -11    1    4    4    0    0  0.16836814448E+02 -0.99171989566E+01 -0.42676820321E+02  0.46937619759E+02  0.00000000000E+00 0.  1.
         11    1    4    4    0    0 -0.49209502967E+02  0.56184058890E+02 -0.18465977238E+02  0.76936441112E+02  0.00000000000E+00 0. -1.
<mgrwt>
<rscale>  0 0.12912433E+03</rscale>
<asrwt>0</asrwt>
<pdfrwt beam="1">  1        2 0.10589124E-01 0.13716023E+03</pdfrwt>
<pdfrwt beam="2">  1       -2 0.33546087E-01 0.13716023E+03</pdfrwt>
<totfact> 0.47277620E+03</totfact>
</mgrwt>
</event>
<event>
 8    1  0.1020295E-005  0.3896139E+03  0.7546771E-02  0.1048380E+00
         -2   -1    0    0    0  501 -0.00000000000E+00  0.00000000000E+00  0.61789914833E+03  0.61789914833E+03  0.00000000000E+00 0. -1.
          2   -1    0    0  501    0  0.00000000000E+00 -0.00000000000E+00 -0.23917334838E+03  0.23917334838E+03  0.00000000000E+00 0.  1.
         23    2    1    2    0    0  0.36898371643E+03  0.52087841695E+01  0.19455243430E+03  0.43548778804E+03  0.12499139738E+03 0.  0.
         23    2    1    2    0    0 -0.36898371643E+03 -0.52087841695E+01  0.18417336565E+03  0.42158470866E+03  0.87394070393E+02 0.  0.
          5    1    3    3  502    0  0.50453647197E+02  0.24400435545E+02  0.77069445455E+02  0.95408286815E+02  0.47000000000E+01 0. -1.
         -5    1    3    3    0  502  0.31853006923E+03 -0.19191651375E+02  0.11748298885E+03  0.34007950123E+03  0.47000000000E+01 0. -1.
        -11    1    4    4    0    0 -0.16881715227E+03 -0.27947858413E+02  0.45646219095E+02  0.17709853474E+03  0.00000000000E+00 0. -1.
         11    1    4    4    0    0 -0.20016656416E+03  0.22739074243E+02  0.13852714655E+03  0.24448617392E+03  0.00000000000E+00 0.  1.
<mgrwt>
<rscale>  0 0.38699102E+03</rscale>
<asrwt>0</asrwt>
<pdfrwt beam="2">  1        2 0.36795900E-01 0.38961387E+03</pdfrwt>
<pdfrwt beam="1">  1       -2 0.95061407E-01 0.38961387E+03</pdfrwt>
<totfact> 0.13495962E+02</totfact>
</mgrwt>
</event>
<event>
 8    1  0.1020295E-005  0.1583191E+03  0.7546771E-02  0.1198136E+00
         -2   -1    0    0    0  501 -0.00000000000E+00  0.00000000000E+00  0.36880565490E+03  0.36880565490E+03  0.00000000000E+00 0.  1.
          2   -1    0    0  501    0  0.00000000000E+00 -0.00000000000E+00 -0.70532657925E+02  0.70532657925E+02  0.00000000000E+00 0. -1.
         23    2    1    2    0    0 -0.39163600937E+02 -0.88913799973E+02  0.25152879063E+03  0.29720645188E+03  0.12500196422E+03 0.  0.
         23    2    1    2    0    0  0.39163600937E+02  0.88913799973E+02  0.46744206344E+02  0.14213186095E+03  0.92612059717E+02 0.  0.
          5    1    3    3  502    0 -0.81100879263E+02 -0.81613192511E+02  0.19174975425E+03  0.22366967623E+03  0.47000000000E+01 0.  1.
         -5    1    3    3    0  502  0.41937278326E+02 -0.73006074620E+01  0.59779036384E+02  0.73536775655E+02  0.47000000000E+01 0.  1.
        -11    1    4    4    0    0 -0.96549950615E+01  0.74775229039E+01 -0.21827476590E+02  0.25011417647E+02  0.00000000000E+00 0. -1.
         11    1    4    4    0    0  0.48818595998E+02  0.81436277069E+02  0.68571682934E+02  0.11712044330E+03  0.00000000000E+00 0.  1.
<mgrwt>
<rscale>  0 0.15191780E+03</rscale>
<asrwt>0</asrwt>
<pdfrwt beam="2">  1        2 0.10851178E-01 0.15831912E+03</pdfrwt>
<pdfrwt beam="1">  1       -2 0.56739330E-01 0.15831912E+03</pdfrwt>
<totfact> 0.16778730E+03</totfact>
</mgrwt>
</event>
<event>
 8    1  0.1020295E-005  0.1345144E+03  0.7546771E-02  0.1233207E+00
          1   -1    0    0  501    0  0.00000000000E+00  0.00000000000E+00  0.26928929929E+02  0.26928929929E+02  0.00000000000E+00 0. -1.
         -1   -1    0    0    0  501 -0.00000000000E+00 -0.00000000000E+00 -0.54416955962E+03  0.54416955962E+03  0.00000000000E+00 0.  1.
         23    2    1    2    0    0 -0.85475561514E+01 -0.48982136102E+02 -0.24337057186E+03  0.27807079151E+03  0.12498727722E+03 0.  0.
         23    2    1    2    0    0  0.85475561514E+01  0.48982136102E+02 -0.27387005783E+03  0.29302769804E+03  0.91586641336E+02 0.  0.
          5    1    3    3  502    0  0.15006248391E+02 -0.80315383868E+02 -0.99249958938E+02  0.12864055630E+03  0.47000000000E+01 0. -1.
         -5    1    3    3    0  502 -0.23553804542E+02  0.31333247766E+02 -0.14412061292E+03  0.14943023520E+03  0.47000000000E+01 0. -1.
        -11    1    4    4    0    0  0.31113535320E+02  0.67545528035E+02 -0.18144754754E+03  0.19609605540E+03  0.00000000000E+00 0.  1.
         11    1    4    4    0    0 -0.22565979168E+02 -0.18563391933E+02 -0.92422510294E+02  0.96931642640E+02  0.00000000000E+00 0. -1.
<mgrwt>
<rscale>  0 0.12619946E+03</rscale>
<asrwt>0</asrwt>
<pdfrwt beam="1">  1        1 0.41429126E-02 0.13451442E+03</pdfrwt>
<pdfrwt beam="2">  1       -1 0.83718387E-01 0.13451442E+03</pdfrwt>
<totfact> 0.30902966E+03</totfact>
</mgrwt>
</event>
<event>
 8    1  0.1020295E-005  0.1621112E+03  0.7546771E-02  0.1194176E+00
          1   -1    0    0  501    0  0.00000000000E+00  0.00000000000E+00  0.24395990111E+03  0.24395990111E+03  0.00000000000E+00 0. -1.
         -1   -1    0    0    0  501 -0.00000000000E+00 -0.00000000000E+00 -0.92741533653E+02  0.92741533653E+02  0.00000000000E+00 0.  1.
         23    2    1    2    0    0 -0.49246171676E+02  0.90720069954E+02  0.60933242983E+02  0.17318458845E+03  0.12499890023E+03 0.  0.
         23    2    1    2    0    0  0.49246171676E+02 -0.90720069954E+02  0.90285124473E+02  0.16351684631E+03  0.89056379943E+02 0.  0.
          5    1    3    3  502    0 -0.69480020021E+02  0.10136235657E+03  0.17962299430E+02  0.12428408873E+03  0.47000000000E+01 0. -1.
         -5    1    3    3    0  502  0.20233848345E+02 -0.10642286612E+02  0.42970943553E+02  0.48900499721E+02  0.47000000000E+01 0. -1.
        -11    1    4    4    0    0  0.40007946139E+02 -0.41985201267E+02 -0.27764855986E+01  0.58061189722E+02  0.00000000000E+00 0.  1.
         11    1    4    4    0    0  0.92382255368E+01 -0.48734868687E+02  0.93061610071E+02  0.10545565659E+03  0.00000000000E+00 0. -1.
<mgrwt>
<rscale>  0 0.15524194E+03</rscale>
<asrwt>0</asrwt>
<pdfrwt beam="1">  1        1 0.37532292E-01 0.16211120E+03</pdfrwt>
<pdfrwt beam="2">  1       -1 0.14267928E-01 0.16211120E+03</pdfrwt>
<totfact> 0.38540652E+03</totfact>
</mgrwt>
</event>
<event>
 8    1  0.1020295E-005  0.1695506E+03  0.7546771E-02  0.1183818E+00
          1   -1    0    0  501    0  0.00000000000E+00  0.00000000000E+00  0.42975718130E+03  0.42975718130E+03  0.00000000000E+00 0. -1.
         -1   -1    0    0    0  501 -0.00000000000E+00 -0.00000000000E+00 -0.61350943172E+02  0.61350943172E+02  0.00000000000E+00 0.  1.
         23    2    1    2    0    0  0.68061146263E+01 -0.11435253587E+03  0.15092623055E+03  0.22699371656E+03  0.12499837853E+03 0.  0.
         23    2    1    2    0    0 -0.68061146263E+01  0.11435253587E+03  0.21748000758E+03  0.26411440791E+03  0.96623191383E+02 0.  0.
          5    1    3    3  502    0  0.60258537336E+02 -0.28533696801E+02  0.45552305945E+02  0.80884891989E+02  0.47000000000E+01 0. -1.
         -5    1    3    3    0  502 -0.53452422710E+02 -0.85818839066E+02  0.10537392460E+03  0.14610882457E+03  0.47000000000E+01 0. -1.
        -11    1    4    4    0    0 -0.46897880224E+02  0.82406890359E+02  0.16775612844E+03  0.19269775654E+03  0.00000000000E+00 0. -1.
         11    1    4    4    0    0  0.40091765597E+02  0.31945645508E+02  0.49723879147E+02  0.71416651371E+02  0.00000000000E+00 0.  1.
<mgrwt>
<rscale>  0 0.16439858E+03</rscale>
<asrwt>0</asrwt>
<pdfrwt beam="1">  1        1 0.66116488E-01 0.16955064E+03</pdfrwt>
<pdfrwt beam="2">  1       -1 0.94386069E-02 0.16955064E+03</pdfrwt>
<totfact> 0.35997793E+03</totfact>
</mgrwt>
</event>
<event>
 8    1  0.1020295E-005  0.1292608E+03  0.7546771E-02  0.1234808E+00
          1   -1    0    0  501    0  0.00000000000E+00  0.00000000000E+00  0.21585221362E+02  0.21585221362E+02  0.00000000000E+00 0. -1.
         -1   -1    0    0    0  501 -0.00000000000E+00 -0.00000000000E+00 -0.72275438895E+03  0.72275438895E+03  0.00000000000E+00 0.  1.
         23    2    1    2    0    0  0.19170644064E+02 -0.64465098318E+02 -0.45856372020E+03  0.47643366316E+03  0.11038608340E+03 0.  0.
         23    2    1    2    0    0 -0.19170644064E+02  0.64465098318E+02 -0.24260544739E+03  0.26790594716E+03  0.91612940819E+02 0.  0.
          5    1    3    3  502    0  0.39859901093E+02 -0.83667179591E+02 -0.26525344269E+03  0.28101688119E+03  0.47000000000E+01 0. -1.
         -5    1    3    3    0  502 -0.20689257029E+02  0.19202081273E+02 -0.19331027751E+03  0.19541678197E+03  0.47000000000E+01 0.  1.
        -11    1    4    4    0    0 -0.28345919065E+02 -0.13857188143E+02 -0.43376124897E+02  0.53637682668E+02  0.00000000000E+00 0. -1.
         11    1    4    4    0    0  0.91752750015E+01  0.78322286460E+02 -0.19922932249E+03  0.21426826449E+03  0.00000000000E+00 0.  1.
<mgrwt>
<rscale>  0 0.12516759E+03</rscale>
<asrwt>0</asrwt>
<pdfrwt beam="1">  1        1 0.33208036E-02 0.12926078E+03</pdfrwt>
<pdfrwt beam="2">  1       -1 0.11119297E+00 0.12926078E+03</pdfrwt>
<totfact> 0.22571904E+03</totfact>
</mgrwt>
</event>
<event>
 8    1  0.1020295E-005  0.1255840E+03  0.7546771E-02  0.1250376E+00
         -1   -1    0    0    0  501 -0.00000000000E+00  0.00000000000E+00  0.38162422992E+02  0.38162422992E+02  0.00000000000E+00 0.  1.
          1   -1    0    0  501    0  0.00000000000E+00 -0.00000000000E+00 -0.32057828874E+03  0.32057828874E+03  0.00000000000E+00 0. -1.
         23    2    1    2    0    0  0.74630829956E+01  0.95134718418E+01 -0.12502034504E+03  0.17720446963E+03  0.12500053451E+03 0.  0.
         23    2    1    2    0    0 -0.74630829956E+01 -0.95134718418E+01 -0.15739552071E+03  0.18153624210E+03  0.89642922216E+02 0.  0.
          5    1    3    3  502    0 -0.37203673497E+02 -0.27370168733E+02 -0.87847125629E+01  0.47249345318E+02  0.47000000000E+01 0. -1.
         -5    1    3    3    0  502  0.44666756493E+02  0.36883640575E+02 -0.11623563247E+03  0.12995512431E+03  0.47000000000E+01 0. -1.
        -11    1    4    4    0    0  0.23873296312E+02 -0.31441948078E+02 -0.33192844151E+02  0.51578050356E+02  0.00000000000E+00 0.  1.
         11    1    4    4    0    0 -0.31336379307E+02  0.21928476236E+02 -0.12420267656E+03  0.12995819175E+03  0.00000000000E+00 0. -1.
<mgrwt>
<rscale>  0 0.11569338E+03</rscale>
<asrwt>0</asrwt>
<pdfrwt beam="2">  1        1 0.49319736E-01 0.12558399E+03</pdfrwt>
<pdfrwt beam="1">  1       -1 0.58711420E-02 0.12558399E+03</pdfrwt>
<totfact> 0.10451443E+04</totfact>
</mgrwt>
</event>
<event>
 8    1  0.1020295E-005  0.1578580E+03  0.7546771E-02  0.1198743E+00
         -2   -1    0    0    0  501 -0.00000000000E+00  0.00000000000E+00  0.31368993632E+03  0.31368993632E+03  0.00000000000E+00 0.  1.
          2   -1    0    0  501    0  0.00000000000E+00 -0.00000000000E+00 -0.87720977979E+02  0.87720977979E+02  0.00000000000E+00 0. -1.
         23    2    1    2    0    0  0.93711094866E+02  0.22627250860E+02  0.21583208375E+03  0.26739976764E+03  0.12500154228E+03 0.  0.
         23    2    1    2    0    0 -0.93711094866E+02 -0.22627250860E+02  0.10136874590E+02  0.13401114666E+03  0.92533612387E+02 0.  0.
          5    1    3    3  502    0  0.71120646422E+02  0.12632437643E+02  0.22817940929E+03  0.23938600137E+03  0.47000000000E+01 0. -1.
         -5    1    3    3    0  502  0.22590448444E+02  0.99948132168E+01 -0.12347325541E+02  0.28013766262E+02  0.47000000000E+01 0. -1.
        -11    1    4    4    0    0 -0.13586994802E+01  0.26755379200E+02  0.11795494398E+02  0.29271659818E+02  0.00000000000E+00 0.  1.
         11    1    4    4    0    0 -0.92352395385E+02 -0.49382630061E+02 -0.16586198073E+01  0.10473948685E+03  0.00000000000E+00 0. -1.
<mgrwt>
<rscale>  0 0.15141666E+03</rscale>
<asrwt>0</asrwt>
<pdfrwt beam="2">  1        2 0.13495535E-01 0.15785800E+03</pdfrwt>
<pdfrwt beam="1">  1       -2 0.48259990E-01 0.15785800E+03</pdfrwt>
<totfact> 0.17832607E+03</totfact>
</mgrwt>
</event>
<event>
 8    1  0.1020295E-005  0.1346934E+03  0.7546771E-02  0.1232041E+00
          3   -1    0    0  501    0  0.00000000000E+00  0.00000000000E+00  0.44774895772E+02  0.44774895772E+02  0.00000000000E+00 0. -1.
         -3   -1    0    0    0  501 -0.00000000000E+00 -0.00000000000E+00 -0.32861181857E+03  0.32861181857E+03  0.00000000000E+00 0.  1.
         23    2    1    2    0    0  0.20636163729E+02  0.45743301728E+02 -0.17960429831E+03  0.22449945948E+03  0.12499600964E+03 0.  0.
         23    2    1    2    0    0 -0.20636163729E+02 -0.45743301728E+02 -0.10423262449E+03  0.14888725487E+03  0.93726590399E+02 0.  0.
          5    1    3    3  502    0  0.32970624842E+02  0.70828583290E+02 -0.52433494216E+02  0.94207810871E+02  0.47000000000E+01 0. -1.
         -5    1    3    3    0  502 -0.12334461113E+02 -0.25085281562E+02 -0.12717080409E+03  0.13029164860E+03  0.47000000000E+01 0. -1.
        -11    1    4    4    0    0  0.83489513320E+01 -0.23830895747E+02  0.11381574507E+02  0.27697595901E+02  0.00000000000E+00 0. -1.
         11    1    4    4    0    0 -0.28985115061E+02 -0.21912405982E+02 -0.11561419900E+03  0.12118965897E+03  0.00000000000E+00 0.  1.
<mgrwt>
<rscale>  0 0.12695761E+03</rscale>
<asrwt>0</asrwt>
<pdfrwt beam="1">  1        3 0.68884454E-02 0.13469337E+03</pdfrwt>
<pdfrwt beam="2">  1       -3 0.50555665E-01 0.13469337E+03</pdfrwt>
<totfact> 0.12236061E+03</totfact>
</mgrwt>
</event>
<event>
 8    1  0.1020295E-005  0.1617644E+03  0.7546771E-02  0.1193829E+00
          2   -1    0    0  501    0  0.00000000000E+00  0.00000000000E+00  0.52321152860E+03  0.52321152860E+03  0.00000000000E+00 0. -1.
         -2   -1    0    0    0  501 -0.00000000000E+00 -0.00000000000E+00 -0.43018468455E+02  0.43018468455E+02  0.00000000000E+00 0.  1.
         23    2    1    2    0    0  0.60128026202E+02  0.83255923009E+02  0.25491532336E+03  0.30190981562E+03  0.12498314461E+03 0.  0.
         23    2    1    2    0    0 -0.60128026202E+02 -0.83255923009E+02  0.22527773678E+03  0.26432018143E+03  0.92564417403E+02 0.  0.
          5    1    3    3  502    0  0.18805292038E+02  0.10834004154E+03  0.20232762592E+03  0.23032533907E+03  0.47000000000E+01 0. -1.
         -5    1    3    3    0  502  0.41322734164E+02 -0.25084118527E+02  0.52587697436E+02  0.71584476548E+02  0.47000000000E+01 0. -1.
        -11    1    4    4    0    0 -0.43375592445E+02 -0.10331768436E+03  0.18583298765E+03  0.21700203967E+03  0.00000000000E+00 0.  1.
         11    1    4    4    0    0 -0.16752433757E+02  0.20061761352E+02  0.39444749131E+02  0.47318141757E+02  0.00000000000E+00 0. -1.
<mgrwt>
<rscale>  0 0.15553719E+03</rscale>
<asrwt>0</asrwt>
<pdfrwt beam="1">  1        2 0.80494077E-01 0.16176438E+03</pdfrwt>
<pdfrwt beam="2">  1       -2 0.66182263E-02 0.16176438E+03</pdfrwt>
<totfact> 0.72792484E+03</totfact>
</mgrwt>
</event>
<event>
 8    1  0.1020295E-005  0.1579553E+03  0.7546771E-02  0.1198922E+00
          1   -1    0    0  501    0  0.00000000000E+00  0.00000000000E+00  0.24026078009E+03  0.24026078009E+03  0.00000000000E+00 0. -1.
         -1   -1    0    0    0  501 -0.00000000000E+00 -0.00000000000E+00 -0.96109667164E+02  0.96109667164E+02  0.00000000000E+00 0.  1.
         23    2    1    2    0    0  0.83532741802E+02  0.48440443967E+02  0.29091635496E+02  0.16061196206E+03  0.12500273412E+03 0.  0.
         23    2    1    2    0    0 -0.83532741802E+02 -0.48440443967E+02  0.11505947743E+03  0.17575848519E+03  0.91258787005E+02 0.  0.
          5    1    3    3  502    0  0.99000947281E+02  0.41077205118E+01  0.47470357696E+02  0.10997084064E+03  0.47000000000E+01 0.  1.
         -5    1    3    3    0  502 -0.15468205479E+02  0.44332723455E+02 -0.18378722200E+02  0.50641121427E+02  0.47000000000E+01 0.  1.
        -11    1    4    4    0    0 -0.48751014381E+02  0.16903350630E+02  0.20145974007E+02  0.55391740669E+02  0.00000000000E+00 0.  1.
         11    1    4    4    0    0 -0.34781727421E+02 -0.65343794596E+02  0.94913503426E+02  0.12036674452E+03  0.00000000000E+00 0. -1.
<mgrwt>
<rscale>  0 0.15126938E+03</rscale>
<asrwt>0</asrwt>
<pdfrwt beam="1">  1        1 0.36963197E-01 0.15795531E+03</pdfrwt>
<pdfrwt beam="2">  1       -1 0.14786103E-01 0.15795531E+03</pdfrwt>
<totfact> 0.37093997E+03</totfact>
</mgrwt>
</event>
<event>
 8    1  0.1020295E-005  0.1726614E+03  0.7546771E-02  0.1181219E+00
         -1   -1    0    0    0  501 -0.00000000000E+00  0.00000000000E+00  0.49189135471E+02  0.49189135471E+02  0.00000000000E+00 0.  1.
          1   -1    0    0  501    0  0.00000000000E+00 -0.00000000000E+00 -0.76089145401E+03  0.76089145401E+03  0.00000000000E+00 0. -1.
         23    2    1    2    0    0 -0.74175335901E+02  0.93198522586E+02 -0.15041711161E+03  0.22899182152E+03  0.12499600709E+03 0.  0.
         23    2    1    2    0    0  0.74175335901E+02 -0.93198522586E+02 -0.56128520693E+03  0.58108876796E+03  0.91842951104E+02 0.  0.
          5    1    3    3  502    0 -0.33668803188E+02  0.69439398281E+02 -0.16277715105E+03  0.18020518651E+03  0.47000000000E+01 0. -1.
         -5    1    3    3    0  502 -0.40506532713E+02  0.23759124305E+02  0.12360039441E+02  0.48786635005E+02  0.47000000000E+01 0. -1.
        -11    1    4    4    0    0 -0.12950907038E+02  0.49217071037E+01 -0.21456561136E+02  0.25540814586E+02  0.00000000000E+00 0.  1.
         11    1    4    4    0    0  0.87126242939E+02 -0.98120229690E+02 -0.53982864579E+03  0.55554795338E+03  0.00000000000E+00 0. -1.
<mgrwt>
<rscale>  0 0.16680740E+03</rscale>
<asrwt>0</asrwt>
<pdfrwt beam="2">  1        1 0.11706022E+00 0.17266136E+03</pdfrwt>
<pdfrwt beam="1">  1       -1 0.75675593E-02 0.17266136E+03</pdfrwt>
<totfact> 0.23111826E+03</totfact>
</mgrwt>
</event>
<event>
 7    1  0.1020295E-005  0.1786393E+03  0.7546771E-02  0.1180256E+00
         -3   -1    0    0    0  501 -0.00000000000E+00  0.00000000000E+00  0.19772640436E+03  0.19772640436E+03  0.00000000000E+00 0.  1.
          3   -1    0    0  501    0  0.00000000000E+00 -0.00000000000E+00 -0.12746703879E+03  0.12746703879E+03  0.00000000000E+00 0. -1.
         23    2    1    2    0    0  0.84354105371E+02  0.59110719502E+02  0.26768260844E+02  0.14133618677E+03  0.93003686212E+02 0.  0.
          5    1    1    2  502    0 -0.14479736524E+02  0.46685182652E+02 -0.18082019669E+01  0.49137853467E+02  0.47000000000E+01 0. -1.
         -5    1    1    2    0  502 -0.69874368846E+02 -0.10579590215E+03  0.45299306690E+02  0.13471940291E+03  0.47000000000E+01 0.  1.
        -11    1    3    3    0    0  0.57881401246E+02  0.37042762592E+02  0.61634953631E+02  0.92310835657E+02  0.00000000000E+00 0.  1.
         11    1    3    3    0    0  0.26472704125E+02  0.22067956910E+02 -0.34866692787E+02  0.49025351113E+02  0.00000000000E+00 0. -1.
<mgrwt>
<rscale>  0 0.16771160E+03</rscale>
<asrwt>0</asrwt>
<pdfrwt beam="2">  1        3 0.19610314E-01 0.17863934E+03</pdfrwt>
<pdfrwt beam="1">  1       -3 0.30419447E-01 0.17863934E+03</pdfrwt>
<totfact> 0.58496747E+02</totfact>
</mgrwt>
</event>
<event>
 8    1  0.1020295E-005  0.1263947E+03  0.7546771E-02  0.1258732E+00
         -1   -1    0    0    0  501 -0.00000000000E+00  0.00000000000E+00  0.15637202237E+03  0.15637202237E+03  0.00000000000E+00 0.  1.
          1   -1    0    0  501    0  0.00000000000E+00 -0.00000000000E+00 -0.66009514130E+02  0.66009514130E+02  0.00000000000E+00 0. -1.
         23    2    1    2    0    0  0.14011082015E+02  0.12445080668E+02  0.70055329484E+02  0.14451081009E+03  0.12499773834E+03 0.  0.
         23    2    1    2    0    0 -0.14011082015E+02 -0.12445080668E+02  0.20307178756E+02  0.77870726412E+02  0.72803008666E+02 0.  0.
          5    1    3    3  502    0  0.35897800102E+02  0.31870126317E+02  0.94496448193E+02  0.10609441891E+03  0.47000000000E+01 0.  1.
         -5    1    3    3    0  502 -0.21886718087E+02 -0.19425045649E+02 -0.24441118709E+02  0.38416391174E+02  0.47000000000E+01 0.  1.
        -11    1    4    4    0    0  0.18363797841E+02 -0.48209833643E+01  0.36299751766E+02  0.40965142866E+02  0.00000000000E+00 0.  1.
         11    1    4    4    0    0 -0.32374879856E+02 -0.76240973033E+01 -0.15992573010E+02  0.36905583546E+02  0.00000000000E+00 0. -1.
<mgrwt>
<rscale>  0 0.11099844E+03</rscale>
<asrwt>0</asrwt>
<pdfrwt beam="2">  1        1 0.10155310E-01 0.12639472E+03</pdfrwt>
<pdfrwt beam="1">  1       -1 0.24057234E-01 0.12639472E+03</pdfrwt>
<totfact> 0.87400767E+03</totfact>
</mgrwt>
</event>
<event>
 7    1  0.1020295E-005  0.1794008E+03  0.7546771E-02  0.1196456E+00
          1   -1    0    0  501    0  0.00000000000E+00  0.00000000000E+00  0.84934293564E+02  0.84934293564E+02  0.00000000000E+00 0. -1.
         -1   -1    0    0    0  501 -0.00000000000E+00 -0.00000000000E+00 -0.27426012166E+03  0.27426012166E+03  0.00000000000E+00 0.  1.
         23    2    1    2    0    0 -0.12814401902E+02 -0.27702900466E+02  0.35798382299E+01  0.95760836737E+02  0.90695441012E+02 0.  0.
          5    1    1    2  502    0  0.57021856806E+02 -0.20274145931E+02 -0.10234761121E+01  0.60709724511E+02  0.47000000000E+01 0.  1.
         -5    1    1    2    0  502 -0.44207454904E+02  0.47977046397E+02 -0.19188219021E+03  0.20272385397E+03  0.47000000000E+01 0. -1.
        -11    1    3    3    0    0 -0.25268923379E+02 -0.55355973457E+02  0.16108336689E+02  0.62946650404E+02  0.00000000000E+00 0.  1.
         11    1    3    3    0    0  0.12454521477E+02  0.27653072991E+02 -0.12528498459E+02  0.32814186333E+02  0.00000000000E+00 0. -1.
<mgrwt>
<rscale>  0 0.15331667E+03</rscale>
<asrwt>0</asrwt>
<pdfrwt beam="1">  1        1 0.13066814E-01 0.17940082E+03</pdfrwt>
<pdfrwt beam="2">  1       -1 0.42193865E-01 0.17940082E+03</pdfrwt>
<totfact> 0.24628116E+03</totfact>
</mgrwt>
</event>
<event>
 8    1  0.1020295E-005  0.1459954E+03  0.7546771E-02  0.1215262E+00
         -2   -1    0    0    0  501 -0.00000000000E+00  0.00000000000E+00  0.25608812299E+03  0.25608812299E+03  0.00000000000E+00 0.  1.
          2   -1    0    0  501    0  0.00000000000E+00 -0.00000000000E+00 -0.12493959050E+03  0.12493959050E+03  0.00000000000E+00 0. -1.
         23    2    1    2    0    0  0.17441082065E+02 -0.73381536193E+02  0.19720476651E+03  0.24536581523E+03  0.12500248857E+03 0.  0.
         23    2    1    2    0    0 -0.17441082065E+02  0.73381536193E+02 -0.66056234017E+02  0.13566189826E+03  0.91387545047E+02 0.  0.
          5    1    3    3  502    0 -0.33811923695E+02 -0.85133899015E+02  0.10783749507E+03  0.14156992014E+03  0.47000000000E+01 0.  1.
         -5    1    3    3    0  502  0.51253005760E+02  0.11752362822E+02  0.89367271447E+02  0.10379589509E+03  0.47000000000E+01 0.  1.
        -11    1    4    4    0    0  0.24265039009E+02  0.66571732340E+02 -0.21029505416E+02  0.73910944811E+02  0.00000000000E+00 0.  1.
         11    1    4    4    0    0 -0.41706121073E+02  0.68098038530E+01 -0.45026728602E+02  0.61750953451E+02  0.00000000000E+00 0. -1.
<mgrwt>
<rscale>  0 0.13857284E+03</rscale>
<asrwt>0</asrwt>
<pdfrwt beam="2">  1        2 0.19221475E-01 0.14599542E+03</pdfrwt>
<pdfrwt beam="1">  1       -2 0.39398173E-01 0.14599542E+03</pdfrwt>
<totfact> 0.17411906E+03</totfact>
</mgrwt>
</event>
<event>
 7    1  0.1020295E-005  0.1342582E+03  0.7546771E-02  0.1237567E+00
         -2   -1    0    0    0  501 -0.00000000000E+00  0.00000000000E+00  0.26370092472E+02  0.26370092472E+02  0.00000000000E+00 0.  1.
          2   -1    0    0  501    0  0.00000000000E+00 -0.00000000000E+00 -0.50267334973E+03  0.50267334973E+03  0.00000000000E+00 0. -1.
         23    2    1    2    0    0 -0.26421767485E+02  0.55992448212E+01 -0.20769166167E+03  0.22874783732E+03  0.91979809805E+02 0.  0.
          5    1    1    2  502    0  0.29061222351E+02  0.60699779034E+02 -0.14491399108E+03  0.15984734164E+03  0.47000000000E+01 0. -1.
         -5    1    1    2    0  502 -0.26394548661E+01 -0.66299023855E+02 -0.12369760450E+03  0.14044826323E+03  0.47000000000E+01 0.  1.
        -11    1    3    3    0    0 -0.45898061131E+02 -0.23282529834E+02 -0.16910477178E+03  0.17676292612E+03  0.00000000000E+00 0.  1.
         11    1    3    3    0    0  0.19476293646E+02  0.28881774655E+02 -0.38586889895E+02  0.51984911207E+02  0.00000000000E+00 0. -1.
<mgrwt>
<rscale>  0 0.12341517E+03</rscale>
<asrwt>0</asrwt>
<pdfrwt beam="2">  1        2 0.77334364E-01 0.13425819E+03</pdfrwt>
<pdfrwt beam="1">  1       -2 0.40569371E-02 0.13425819E+03</pdfrwt>
<totfact> 0.15714430E+04</totfact>
</mgrwt>
</event>
<event>
 8    1  0.1020295E-005  0.1499936E+03  0.7546771E-02  0.1213786E+00
         -2   -1    0    0    0  501 -0.00000000000E+00  0.00000000000E+00  0.19755152495E+03  0.19755152495E+03  0.00000000000E+00 0.  1.
          2   -1    0    0  501    0  0.00000000000E+00 -0.00000000000E+00 -0.91871966196E+02  0.91871966196E+02  0.00000000000E+00 0. -1.
         23    2    1    2    0    0  0.76843498964E+02 -0.31114702892E+02  0.91741593961E+02  0.17582548494E+03  0.12500013209E+03 0.  0.
         23    2    1    2    0    0 -0.76843498964E+02  0.31114702892E+02  0.13937964794E+02  0.11359800621E+03  0.76401518853E+02 0.  0.
          5    1    3    3  502    0  0.85485909235E+02  0.23710441595E+02  0.32722828171E+02  0.94672589496E+02  0.47000000000E+01 0. -1.
         -5    1    3    3    0  502 -0.86424102714E+01 -0.54825144487E+02  0.59018765791E+02  0.81152895443E+02  0.47000000000E+01 0. -1.
        -11    1    4    4    0    0 -0.60245522129E+02  0.45582376673E+02 -0.15216010420E+02  0.77063629378E+02  0.00000000000E+00 0. -1.
         11    1    4    4    0    0 -0.16597976835E+02 -0.14467673781E+02  0.29153975214E+02  0.36534376831E+02  0.00000000000E+00 0.  1.
<mgrwt>
<rscale>  0 0.13966056E+03</rscale>
<asrwt>0</asrwt>
<pdfrwt beam="2">  1        2 0.14134149E-01 0.14999360E+03</pdfrwt>
<pdfrwt beam="1">  1       -2 0.30392542E-01 0.14999360E+03</pdfrwt>
<totfact> 0.40224966E+03</totfact>
</mgrwt>
</event>
<event>
 8    1  0.1020295E-005  0.2504502E+03  0.7546771E-02  0.1115228E+00
         -1   -1    0    0    0  501 -0.00000000000E+00  0.00000000000E+00  0.48125307950E+02  0.48125307950E+02  0.00000000000E+00 0.  1.
          1   -1    0    0  501    0  0.00000000000E+00 -0.00000000000E+00 -0.13280854853E+04  0.13280854853E+04  0.00000000000E+00 0. -1.
         23    2    1    2    0    0 -0.17655502714E+02  0.21630788312E+03 -0.47309248545E+03  0.53529599973E+03  0.12499796184E+03 0.  0.
         23    2    1    2    0    0  0.17655502714E+02 -0.21630788312E+03 -0.80686769192E+03  0.84091479354E+03  0.94875711579E+02 0.  0.
          5    1    3    3  502    0 -0.12916384443E+02  0.98817389455E+02 -0.89402304397E+02  0.13396481433E+03  0.47000000000E+01 0.  1.
         -5    1    3    3    0  502 -0.47391182711E+01  0.11749049367E+03 -0.38369018105E+03  0.40133118540E+03  0.47000000000E+01 0.  1.
        -11    1    4    4    0    0  0.48059425299E+02 -0.57746430819E+02 -0.23754633769E+03  0.24914377612E+03  0.00000000000E+00 0.  1.
         11    1    4    4    0    0 -0.30403922584E+02 -0.15856145230E+03 -0.56932135423E+03  0.59177101742E+03  0.00000000000E+00 0. -1.
<mgrwt>
<rscale>  0 0.24698100E+03</rscale>
<asrwt>0</asrwt>
<pdfrwt beam="2">  1        1 0.20432086E+00 0.25045021E+03</pdfrwt>
<pdfrwt beam="1">  1       -1 0.74038928E-02 0.25045021E+03</pdfrwt>
<totfact> 0.90768870E+02</totfact>
</mgrwt>
</event>
<event>
 8    1  0.1020295E-005  0.1205807E+03  0.7546771E-02  0.1252218E+00
          1   -1    0    0  501    0  0.00000000000E+00  0.00000000000E+00  0.21065683652E+03  0.21065683652E+03  0.00000000000E+00 0. -1.
         -1   -1    0    0    0  501 -0.00000000000E+00 -0.00000000000E+00 -0.95756887812E+02  0.95756887812E+02  0.00000000000E+00 0.  1.
         23    2    1    2    0    0  0.21700301282E+02 -0.31692573863E+02 -0.36328431073E+02  0.12593434188E+03  0.11429952427E+03 0.  0.
         23    2    1    2    0    0 -0.21700301282E+02  0.31692573863E+02  0.15122837978E+03  0.18047938245E+03  0.90705359949E+02 0.  0.
          5    1    3    3  502    0  0.42109226262E+02  0.31169499713E+02 -0.56032826764E+01  0.52898123081E+02  0.47000000000E+01 0. -1.
         -5    1    3    3    0  502 -0.20408924980E+02 -0.62862073576E+02 -0.30725148397E+02  0.73036218804E+02  0.47000000000E+01 0.  1.
        -11    1    4    4    0    0 -0.32854449449E+02 -0.23450353889E+02  0.46338360229E+02  0.61453865418E+02  0.00000000000E+00 0.  1.
         11    1    4    4    0    0  0.11154148167E+02  0.55142927752E+02  0.10489001955E+03  0.11902551703E+03  0.00000000000E+00 0. -1.
<mgrwt>
<rscale>  0 0.11463583E+03</rscale>
<asrwt>0</asrwt>
<pdfrwt beam="1">  1        1 0.32408744E-01 0.12058069E+03</pdfrwt>
<pdfrwt beam="2">  1       -1 0.14731829E-01 0.12058069E+03</pdfrwt>
<totfact> 0.43279269E+03</totfact>
</mgrwt>
</event>
<event>
 8    1  0.1020295E-005  0.1307293E+03  0.7546771E-02  0.1239316E+00
          1   -1    0    0  501    0  0.00000000000E+00  0.00000000000E+00  0.25153927272E+03  0.25153927272E+03  0.00000000000E+00 0. -1.
         -1   -1    0    0    0  501 -0.00000000000E+00 -0.00000000000E+00 -0.65986614238E+02  0.65986614238E+02  0.00000000000E+00 0.  1.
         23    2    1    2    0    0 -0.27075095102E+02 -0.27064822464E+02  0.32701574401E+02  0.13475734355E+03  0.12499833312E+03 0.  0.
         23    2    1    2    0    0  0.27075095102E+02  0.27064822464E+02  0.15285108408E+03  0.18276854340E+03  0.92603029995E+02 0.  0.
          5    1    3    3  502    0  0.48920258787E+02 -0.21303729383E+02  0.61576308096E+01  0.53917038333E+02  0.47000000000E+01 0.  1.
         -5    1    3    3    0  502 -0.75995353890E+02 -0.57610930816E+01  0.26543943591E+02  0.80840305218E+02  0.47000000000E+01 0.  1.
        -11    1    4    4    0    0  0.33832481813E+02  0.17261919619E+02  0.16285001315E+03  0.16722062515E+03  0.00000000000E+00 0. -1.
         11    1    4    4    0    0 -0.67573867105E+01  0.98029028451E+01 -0.99989290702E+01  0.15547918250E+02  0.00000000000E+00 0.  1.
<mgrwt>
<rscale>  0 0.12232105E+03</rscale>
<asrwt>0</asrwt>
<pdfrwt beam="1">  1        1 0.38698349E-01 0.13072930E+03</pdfrwt>
<pdfrwt beam="2">  1       -1 0.10151787E-01 0.13072930E+03</pdfrwt>
<totfact> 0.62046659E+03</totfact>
</mgrwt>
</event>
<event>
 8    1  0.1020295E-005  0.1339806E+03  0.7546771E-02  0.1233443E+00
          2   -1    0    0  501    0  0.00000000000E+00  0.00000000000E+00  0.69110894636E+03  0.69110894636E+03  0.00000000000E+00 0. -1.
         -2   -1    0    0    0  501 -0.00000000000E+00 -0.00000000000E+00 -0.20718131172E+02  0.20718131172E+02  0.00000000000E+00 0.  1.
         23    2    1    2    0    0  0.39415230645E+02  0.27801877208E+02  0.35571441053E+03  0.38010990699E+03  0.12499717895E+03 0.  0.
         23    2    1    2    0    0 -0.39415230645E+02 -0.27801877208E+02  0.31467640465E+03  0.33171717054E+03  0.93212321099E+02 0.  0.
          5    1    3    3  502    0  0.50194748272E+02  0.61777472533E+02  0.31864060510E+03  0.32846597097E+03  0.47000000000E+01 0.  1.
         -5    1    3    3    0  502 -0.10779517628E+02 -0.33975595326E+02  0.37073805433E+02  0.51643936017E+02  0.47000000000E+01 0.  1.
        -11    1    4    4    0    0  0.69900440688E+01  0.29674969438E+02  0.76625731712E+02  0.82467977347E+02  0.00000000000E+00 0.  1.
         11    1    4    4    0    0 -0.46405274714E+02 -0.57476846645E+02  0.23805067294E+03  0.24924919319E+03  0.00000000000E+00 0. -1.
<mgrwt>
<rscale>  0 0.12604618E+03</rscale>
<asrwt>0</asrwt>
<pdfrwt beam="1">  1        2 0.10632444E+00 0.13398059E+03</pdfrwt>
<pdfrwt beam="2">  1       -2 0.31874053E-02 0.13398059E+03</pdfrwt>
<totfact> 0.15640253E+04</totfact>
</mgrwt>
</event>
<event>
 8    1  0.1020295E-005  0.1355390E+03  0.7546771E-02  0.1230724E+00
         -2   -1    0    0    0  501 -0.00000000000E+00  0.00000000000E+00  0.26493282193E+02  0.26493282193E+02  0.00000000000E+00 0.  1.
          2   -1    0    0  501    0  0.00000000000E+00 -0.00000000000E+00 -0.55869322249E+03  0.55869322249E+03  0.00000000000E+00 0. -1.
         23    2    1    2    0    0 -0.43484751402E+01  0.52220713388E+02 -0.27700911567E+03  0.30839079332E+03  0.12499967639E+03 0.  0.
         23    2    1    2    0    0  0.43484751402E+01 -0.52220713388E+02 -0.25519082464E+03  0.27679571137E+03  0.93528587670E+02 0.  0.
          5    1    3    3  502    0 -0.51077376704E+02  0.65953049704E+02 -0.20456681645E+03  0.22097143609E+03  0.47000000000E+01 0. -1.
         -5    1    3    3    0  502  0.46728901564E+02 -0.13732336315E+02 -0.72442299214E+02  0.87419357224E+02  0.47000000000E+01 0. -1.
        -11    1    4    4    0    0  0.32523797626E+02 -0.35848836662E+02 -0.23150323104E+03  0.23650937082E+03  0.00000000000E+00 0. -1.
         11    1    4    4    0    0 -0.28175322486E+02 -0.16371876727E+02 -0.23687593593E+02  0.40286340551E+02  0.00000000000E+00 0.  1.
<mgrwt>
<rscale>  0 0.12782179E+03</rscale>
<asrwt>0</asrwt>
<pdfrwt beam="2">  1        2 0.85952800E-01 0.13553904E+03</pdfrwt>
<pdfrwt beam="1">  1       -2 0.40758897E-02 0.13553904E+03</pdfrwt>
<totfact> 0.13890713E+04</totfact>
</mgrwt>
</event>
<event>
 8    1  0.1020295E-005  0.2002107E+03  0.7546771E-02  0.1153576E+00
          3   -1    0    0  501    0  0.00000000000E+00  0.00000000000E+00  0.16542888920E+03  0.16542888920E+03  0.00000000000E+00 0. -1.
         -3   -1    0    0    0  501 -0.00000000000E+00 -0.00000000000E+00 -0.22259750101E+03  0.22259750101E+03  0.00000000000E+00 0.  1.
         23    2    1    2    0    0 -0.64801042891E+02  0.14233732585E+03 -0.46990582053E+02  0.20565126894E+03  0.12500096049E+03 0.  0.
         23    2    1    2    0    0  0.64801042891E+02 -0.14233732585E+03 -0.10178029764E+02  0.18237512127E+03  0.93263085286E+02 0.  0.
          5    1    3    3  502    0 -0.28132500906E+02  0.30306370558E+02 -0.73749450605E+02  0.84681669612E+02  0.47000000000E+01 0.  1.
         -5    1    3    3    0  502 -0.36668541985E+02  0.11203095530E+03  0.26758868552E+02  0.12096959933E+03  0.47000000000E+01 0.  1.
        -11    1    4    4    0    0 -0.11611776072E+02 -0.86125936024E+02 -0.10303834787E+02  0.87513880104E+02  0.00000000000E+00 0.  1.
         11    1    4    4    0    0  0.76412818963E+02 -0.56211389831E+02  0.12580502276E+00  0.94861241165E+02  0.00000000000E+00 0. -1.
<mgrwt>
<rscale>  0 0.19551836E+03</rscale>
<asrwt>0</asrwt>
<pdfrwt beam="1">  1        3 0.25450598E-01 0.20021071E+03</pdfrwt>
<pdfrwt beam="2">  1       -3 0.34245769E-01 0.20021071E+03</pdfrwt>
<totfact> 0.29720654E+02</totfact>
</mgrwt>
</event>
<event>
 7    1  0.1020295E-005  0.1320013E+03  0.7546771E-02  0.1241308E+00
         -2   -1    0    0    0  501 -0.00000000000E+00  0.00000000000E+00  0.10570328086E+03  0.10570328086E+03  0.00000000000E+00 0.  1.
          2   -1    0    0  501    0  0.00000000000E+00 -0.00000000000E+00 -0.19333008005E+03  0.19333008005E+03  0.00000000000E+00 0. -1.
         23    2    1    2    0    0 -0.39679140548E+01 -0.25709085388E+02 -0.13024883767E+03  0.16032147227E+03  0.89785930652E+02 0.  0.
          5    1    1    2  502    0  0.28044662952E+02 -0.66447861866E+01 -0.38307336625E+02  0.48168437206E+02  0.47000000000E+01 0. -1.
         -5    1    1    2    0  502 -0.24076748897E+02  0.32353871575E+02  0.80929375102E+02  0.90543451435E+02  0.47000000000E+01 0.  1.
        -11    1    3    3    0    0 -0.31795456727E+02 -0.45119000456E+02 -0.10279604233E+03  0.11667776819E+03  0.00000000000E+00 0.  1.
         11    1    3    3    0    0  0.27827542672E+02  0.19409915068E+02 -0.27452795344E+02  0.43643704086E+02  0.00000000000E+00 0. -1.
<mgrwt>
<rscale>  0 0.12109091E+03</rscale>
<asrwt>0</asrwt>
<pdfrwt beam="2">  1        2 0.29743089E-01 0.13200133E+03</pdfrwt>
<pdfrwt beam="1">  1       -2 0.16262043E-01 0.13200133E+03</pdfrwt>
<totfact> 0.50511348E+03</totfact>
</mgrwt>
</event>
<event>
 8    1  0.1020295E-005  0.1831910E+03  0.7546771E-02  0.1170197E+00
         -2   -1    0    0    0  501 -0.00000000000E+00  0.00000000000E+00  0.34002288824E+02  0.34002288824E+02  0.00000000000E+00 0.  1.
          2   -1    0    0  501    0  0.00000000000E+00 -0.00000000000E+00 -0.87459485762E+03  0.87459485762E+03  0.00000000000E+00 0. -1.
         23    2    1    2    0    0  0.13289056786E+03  0.16658464849E+02 -0.45521319276E+03  0.49069134663E+03  0.12498615651E+03 0.  0.
         23    2    1    2    0    0 -0.13289056786E+03 -0.16658464849E+02 -0.38537937604E+03  0.41790579982E+03  0.90501859478E+02 0.  0.
          5    1    3    3  502    0  0.95382509607E+02  0.13724153547E+01 -0.43465953206E+03  0.44502888162E+03  0.47000000000E+01 0. -1.
         -5    1    3    3    0  502  0.37508058248E+02  0.15286049494E+02 -0.20553660695E+02  0.45662465008E+02  0.47000000000E+01 0. -1.
        -11    1    4    4    0    0 -0.29962580411E+02 -0.44873971108E+02 -0.10868144975E+03  0.12133872847E+03  0.00000000000E+00 0.  1.
         11    1    4    4    0    0 -0.10292798744E+03  0.28215506259E+02 -0.27669792629E+03  0.29656707134E+03  0.00000000000E+00 0. -1.
<mgrwt>
<rscale>  0 0.17754824E+03</rscale>
<asrwt>0</asrwt>
<pdfrwt beam="2">  1        2 0.13455305E+00 0.18319101E+03</pdfrwt>
<pdfrwt beam="1">  1       -2 0.52311215E-02 0.18319101E+03</pdfrwt>
<totfact> 0.56732466E+03</totfact>
</mgrwt>
</event>
<event>
 8    1  0.1020295E-005  0.1317660E+03  0.7546771E-02  0.1237677E+00
         -1   -1    0    0    0  501 -0.00000000000E+00  0.00000000000E+00  0.23770663293E+02  0.23770663293E+02  0.00000000000E+00 0.  1.
          1   -1    0    0  501    0  0.00000000000E+00 -0.00000000000E+00 -0.57964200211E+03  0.57964200211E+03  0.00000000000E+00 0. -1.
         23    2    1    2    0    0  0.27407305844E+02 -0.31431739127E+02 -0.27670132790E+03  0.30647332283E+03  0.12499263221E+03 0.  0.
         23    2    1    2    0    0 -0.27407305844E+02  0.31431739127E+02 -0.27917001092E+03  0.29693934257E+03  0.92184399624E+02 0.  0.
          5    1    3    3  502    0  0.21802181881E+02 -0.74538361198E+02 -0.22856421861E+03  0.24144356371E+03  0.47000000000E+01 0.  1.
         -5    1    3    3    0  502  0.56051239629E+01  0.43106622071E+02 -0.48137109283E+02  0.65029759119E+02  0.47000000000E+01 0.  1.
        -11    1    4    4    0    0 -0.42711721733E+02  0.53841871380E+02 -0.15065455460E+03  0.16558995473E+03  0.00000000000E+00 0.  1.
         11    1    4    4    0    0  0.15304415889E+02 -0.22410132253E+02 -0.12851545632E+03  0.13134938784E+03  0.00000000000E+00 0. -1.
<mgrwt>
<rscale>  0 0.12334583E+03</rscale>
<asrwt>0</asrwt>
<pdfrwt beam="2">  1        1 0.89175693E-01 0.13176598E+03</pdfrwt>
<pdfrwt beam="1">  1       -1 0.36570251E-02 0.13176598E+03</pdfrwt>
<totfact> 0.98866254E+03</totfact>
</mgrwt>
</event>
<event>
 8    1  0.1020295E-005  0.1260877E+03  0.7546771E-02  0.1253667E+00
         -1   -1    0    0    0  501 -0.00000000000E+00  0.00000000000E+00  0.60034612080E+03  0.60034612080E+03  0.00000000000E+00 0.  1.
          1   -1    0    0  501    0  0.00000000000E+00 -0.00000000000E+00 -0.25363061510E+02  0.25363061510E+02  0.00000000000E+00 0. -1.
         23    2    1    2    0    0 -0.33611000182E+01 -0.16227426459E+02  0.49177865520E+03  0.50768529717E+03  0.12499395543E+03 0.  0.
         23    2    1    2    0    0  0.33611000182E+01  0.16227426459E+02  0.83204404092E+02  0.11802388514E+03  0.82048999017E+02 0.  0.
          5    1    3    3  502    0  0.19319194111E+02 -0.57355430021E+02  0.39898398178E+03  0.40357550017E+03  0.47000000000E+01 0. -1.
         -5    1    3    3    0  502 -0.22680294130E+02  0.41128003562E+02  0.92794673412E+02  0.10410979700E+03  0.47000000000E+01 0. -1.
        -11    1    4    4    0    0  0.17492191981E+02 -0.10109991102E+02  0.85682642957E+02  0.88032403151E+02  0.00000000000E+00 0.  1.
         11    1    4    4    0    0 -0.14131091963E+02  0.26337417561E+02 -0.24782388648E+01  0.29991481986E+02  0.00000000000E+00 0. -1.
<mgrwt>
<rscale>  0 0.11381344E+03</rscale>
<asrwt>0</asrwt>
<pdfrwt beam="2">  1        1 0.39020099E-02 0.12608773E+03</pdfrwt>
<pdfrwt beam="1">  1       -1 0.92360931E-01 0.12608773E+03</pdfrwt>
<totfact> 0.27185147E+03</totfact>
</mgrwt>
</event>
<event>
 8    1  0.1020295E-005  0.1310256E+03  0.7546771E-02  0.1239213E+00
          1   -1    0    0  501    0  0.00000000000E+00  0.00000000000E+00  0.59412695890E+02  0.59412695890E+02  0.00000000000E+00 0. -1.
         -1   -1    0    0    0  501 -0.00000000000E+00 -0.00000000000E+00 -0.23505756610E+03  0.23505756610E+03  0.00000000000E+00 0.  1.
         23    2    1    2    0    0 -0.14547100672E+02  0.36477526104E+02 -0.13072833222E+03  0.18508813290E+03  0.12500196818E+03 0.  0.
         23    2    1    2    0    0  0.14547100672E+02 -0.36477526104E+02 -0.44916537995E+02  0.10938212909E+03  0.91677296701E+02 0.  0.
          5    1    3    3  502    0  0.38086314255E+02  0.42486701533E+02 -0.17296752472E+02  0.59807648230E+02  0.47000000000E+01 0.  1.
         -5    1    3    3    0  502 -0.52633414927E+02 -0.60091754295E+01 -0.11343157974E+03  0.12528048467E+03  0.47000000000E+01 0.  1.
        -11    1    4    4    0    0 -0.31199634904E+02 -0.11879401523E+02 -0.46705957998E+02  0.57410660257E+02  0.00000000000E+00 0.  1.
         11    1    4    4    0    0  0.45746735576E+02 -0.24598124581E+02  0.17894200035E+01  0.51971468833E+02  0.00000000000E+00 0. -1.
<mgrwt>
<rscale>  0 0.12238509E+03</rscale>
<asrwt>0</asrwt>
<pdfrwt beam="1">  1        1 0.91404148E-02 0.13102565E+03</pdfrwt>
<pdfrwt beam="2">  1       -1 0.36162702E-01 0.13102565E+03</pdfrwt>
<totfact> 0.50914968E+03</totfact>
</mgrwt>
</event>
<event>
 8    1  0.1020295E-005  0.1260797E+03  0.7546771E-02  0.1248307E+00
          4   -1    0    0  501    0  0.00000000000E+00  0.00000000000E+00  0.18933375193E+03  0.18933375193E+03  0.00000000000E+00 0. -1.
         -4   -1    0    0    0  501 -0.00000000000E+00 -0.00000000000E+00 -0.82118958002E+02  0.82118958002E+02  0.00000000000E+00 0.  1.
         23    2    1    2    0    0  0.16024112250E+02 -0.37687543897E+01 -0.42838041578E+01  0.12615247361E+03  0.12500047975E+03 0.  0.
         23    2    1    2    0    0 -0.16024112250E+02  0.37687543897E+01  0.11149859808E+03  0.14530023632E+03  0.91701938997E+02 0.  0.
          5    1    3    3  502    0  0.31417802546E+02  0.52151413802E+02  0.18277133693E+02  0.63741602540E+02  0.47000000000E+01 0. -1.
         -5    1    3    3    0  502 -0.15393690296E+02 -0.55920168192E+02 -0.22560937851E+02  0.62410871074E+02  0.47000000000E+01 0. -1.
        -11    1    4    4    0    0 -0.39227673642E+02 -0.24502303421E+02  0.27808678562E+02  0.53967544466E+02  0.00000000000E+00 0.  1.
         11    1    4    4    0    0  0.23203561392E+02  0.28271057811E+02  0.83689919521E+02  0.91332691850E+02  0.00000000000E+00 0. -1.
<mgrwt>
<rscale>  0 0.11689617E+03</rscale>
<asrwt>0</asrwt>
<pdfrwt beam="1">  1        4 0.29128269E-01 0.12607972E+03</pdfrwt>
<pdfrwt beam="2">  1       -4 0.12633686E-01 0.12607972E+03</pdfrwt>
<totfact> 0.92970372E+02</totfact>
</mgrwt>
</event>
<event>
 8    1  0.1020295E-005  0.1385374E+03  0.7546771E-02  0.1226514E+00
         -2   -1    0    0    0  501 -0.00000000000E+00  0.00000000000E+00  0.52222295393E+03  0.52222295393E+03  0.00000000000E+00 0.  1.
          2   -1    0    0  501    0  0.00000000000E+00 -0.00000000000E+00 -0.29680390933E+02  0.29680390933E+02  0.00000000000E+00 0. -1.
         23    2    1    2    0    0 -0.56109530335E+02 -0.20490581772E+02  0.29840187146E+03  0.32899282605E+03  0.12499783743E+03 0.  0.
         23    2    1    2    0    0  0.56109530335E+02  0.20490581772E+02  0.19414069154E+03  0.22291051882E+03  0.91816926291E+02 0.  0.
          5    1    3    3  502    0 -0.23009073198E+01  0.47530380610E+02  0.71321935845E+02  0.85868153515E+02  0.47000000000E+01 0. -1.
         -5    1    3    3    0  502 -0.53808623016E+02 -0.68020962382E+02  0.22707993562E+03  0.24312467253E+03  0.47000000000E+01 0. -1.
        -11    1    4    4    0    0  0.47283463724E+02 -0.30802805579E+02  0.11636447665E+03  0.12932606156E+03  0.00000000000E+00 0. -1.
         11    1    4    4    0    0  0.88260666118E+01  0.51293387351E+02  0.77776214891E+02  0.93584457259E+02  0.00000000000E+00 0.  1.
<mgrwt>
<rscale>  0 0.13063695E+03</rscale>
<asrwt>0</asrwt>
<pdfrwt beam="2">  1        2 0.45662144E-02 0.13853737E+03</pdfrwt>
<pdfrwt beam="1">  1       -2 0.80341986E-01 0.13853737E+03</pdfrwt>
<totfact> 0.24023030E+03</totfact>
</mgrwt>
</event>
<event>
 7    1  0.1020295E-005  0.1773198E+03  0.7546771E-02  0.1189193E+00
          4   -1    0    0  501    0  0.00000000000E+00  0.00000000000E+00  0.19274774436E+02  0.19274774436E+02  0.00000000000E+00 0. -1.
         -4   -1    0    0    0  501 -0.00000000000E+00 -0.00000000000E+00 -0.16362831907E+04  0.16362831907E+04  0.00000000000E+00 0.  1.
         23    2    1    2    0    0  0.47448748876E+02  0.31316645057E+02 -0.23464322638E+03  0.26186652957E+03  0.10141262050E+03 0.  0.
          5    1    1    2  502    0  0.56049040119E+02  0.16979027071E+02 -0.33566435645E+03  0.34076741694E+03  0.47000000000E+01 0. -1.
         -5    1    1    2    0  502 -0.10349778900E+03 -0.48295672128E+02 -0.10467008335E+04  0.10529240186E+04  0.47000000000E+01 0.  1.
        -11    1    3    3    0    0 -0.16385490814E+02  0.45934799925E+02 -0.12470113709E+03  0.13389870704E+03  0.00000000000E+00 0.  1.
         11    1    3    3    0    0  0.63834239690E+02 -0.14618154868E+02 -0.10994208928E+03  0.12796782253E+03  0.00000000000E+00 0. -1.
<mgrwt>
<rscale>  0 0.15956089E+03</rscale>
<asrwt>0</asrwt>
<pdfrwt beam="1">  1        4 0.29653500E-02 0.17731977E+03</pdfrwt>
<pdfrwt beam="2">  1       -4 0.25173586E+00 0.17731977E+03</pdfrwt>
<totfact> 0.68481475E+01</totfact>
</mgrwt>
</event>
<event>
 8    1  0.1020295E-005  0.2862019E+03  0.7546771E-02  0.1094093E+00
         -2   -1    0    0    0  501 -0.00000000000E+00  0.00000000000E+00  0.88615895036E+02  0.88615895036E+02  0.00000000000E+00 0.  1.
          2   -1    0    0  501    0  0.00000000000E+00 -0.00000000000E+00 -0.13303127987E+04  0.13303127987E+04  0.00000000000E+00 0. -1.
         23    2    1    2    0    0 -0.16496979698E+03 -0.19766355020E+03 -0.21915457109E+03  0.36047222571E+03  0.12500234591E+03 0.  0.
         23    2    1    2    0    0  0.16496979698E+03  0.19766355020E+03 -0.10225423325E+04  0.10584564680E+04  0.91931277689E+02 0.  0.
          5    1    3    3  502    0 -0.15541636273E+03 -0.93578838793E+02 -0.14354582710E+03  0.23138439738E+03  0.47000000000E+01 0. -1.
         -5    1    3    3    0  502 -0.95534342507E+01 -0.10408471140E+03 -0.75608743988E+02  0.12908782832E+03  0.47000000000E+01 0. -1.
        -11    1    4    4    0    0  0.34186794193E+02  0.46742805127E+02 -0.10994209152E+03  0.12426137862E+03  0.00000000000E+00 0.  1.
         11    1    4    4    0    0  0.13078300279E+03  0.15092074507E+03 -0.91260024102E+03  0.93419508938E+03  0.00000000000E+00 0. -1.
<mgrwt>
<rscale>  0 0.28294139E+03</rscale>
<asrwt>0</asrwt>
<pdfrwt beam="2">  1        2 0.20466348E+00 0.28620185E+03</pdfrwt>
<pdfrwt beam="1">  1       -2 0.13633216E-01 0.28620185E+03</pdfrwt>
<totfact> 0.67834130E+02</totfact>
</mgrwt>
</event>
<event>
 8    1  0.1020295E-005  0.1546093E+03  0.7546771E-02  0.1202087E+00
         -2   -1    0    0    0  501 -0.00000000000E+00  0.00000000000E+00  0.20581693615E+02  0.20581693615E+02  0.00000000000E+00 0.  1.
          2   -1    0    0  501    0  0.00000000000E+00 -0.00000000000E+00 -0.10193471022E+04  0.10193471022E+04  0.00000000000E+00 0. -1.
         23    2    1    2    0    0  0.50927662034E+02  0.81433723404E+02 -0.60950304076E+03  0.62880678823E+03  0.12115668434E+03 0.  0.
         23    2    1    2    0    0 -0.50927662034E+02 -0.81433723404E+02 -0.38926236785E+03  0.41112200761E+03  0.90945236543E+02 0.  0.
          5    1    3    3  502    0  0.29723625047E+02  0.23950621903E+02 -0.51274301429E+03  0.51418344478E+03  0.47000000000E+01 0. -1.
         -5    1    3    3    0  502  0.21204036987E+02  0.57483101501E+02 -0.96760026469E+02  0.11462334346E+03  0.47000000000E+01 0.  1.
        -11    1    4    4    0    0 -0.43351766476E+01 -0.76652358024E+02 -0.16453691346E+03  0.18156754567E+03  0.00000000000E+00 0. -1.
         11    1    4    4    0    0 -0.46592485386E+02 -0.47813653806E+01 -0.22472545439E+03  0.22955446194E+03  0.00000000000E+00 0.  1.
<mgrwt>
<rscale>  0 0.14869429E+03</rscale>
<asrwt>0</asrwt>
<pdfrwt beam="2">  1        2 0.15682263E+00 0.15460925E+03</pdfrwt>
<pdfrwt beam="1">  1       -2 0.31664145E-02 0.15460925E+03</pdfrwt>
<totfact> 0.97019960E+03</totfact>
</mgrwt>
</event>
<event>
 8    1  0.1020295E-005  0.1386670E+03  0.7546771E-02  0.1226716E+00
          1   -1    0    0  501    0  0.00000000000E+00  0.00000000000E+00  0.25169602857E+03  0.25169602857E+03  0.00000000000E+00 0. -1.
         -1   -1    0    0    0  501 -0.00000000000E+00 -0.00000000000E+00 -0.66881350468E+02  0.66881350468E+02  0.00000000000E+00 0.  1.
         23    2    1    2    0    0  0.59228837598E+02  0.97714647375E+01  0.54899789400E+02  0.14913926659E+03  0.12499998894E+03 0.  0.
         23    2    1    2    0    0 -0.59228837598E+02 -0.97714647375E+01  0.12991488871E+03  0.16943811245E+03  0.90707546092E+02 0.  0.
          5    1    3    3  502    0  0.64536842068E+02  0.20137955316E+02  0.89538965158E+02  0.11229362186E+03  0.47000000000E+01 0.  1.
         -5    1    3    3    0  502 -0.53080044705E+01 -0.10366490579E+02 -0.34639175758E+02  0.36845644730E+02  0.47000000000E+01 0.  1.
        -11    1    4    4    0    0 -0.76920039543E+02  0.35615461626E+01  0.64740550954E+02  0.10060176953E+03  0.00000000000E+00 0.  1.
         11    1    4    4    0    0  0.17691201945E+02 -0.13333010900E+02  0.65174337753E+02  0.68836342926E+02  0.00000000000E+00 0. -1.
<mgrwt>
<rscale>  0 0.13049964E+03</rscale>
<asrwt>0</asrwt>
<pdfrwt beam="1">  1        1 0.38722465E-01 0.13866699E+03</pdfrwt>
<pdfrwt beam="2">  1       -1 0.10289439E-01 0.13866699E+03</pdfrwt>
<totfact> 0.60964499E+03</totfact>
</mgrwt>
</event>
<event>
 7    1  0.1020295E-005  0.1335119E+03  0.7546771E-02  0.1238639E+00
          1   -1    0    0  501    0  0.00000000000E+00  0.00000000000E+00  0.32222749730E+02  0.32222749730E+02  0.00000000000E+00 0. -1.
         -1   -1    0    0    0  501 -0.00000000000E+00 -0.00000000000E+00 -0.48557067958E+03  0.48557067958E+03  0.00000000000E+00 0.  1.
         23    2    1    2    0    0 -0.65240503630E+01  0.25195337588E+02 -0.91779672884E+02  0.13236244904E+03  0.91754788926E+02 0.  0.
          5    1    1    2  502    0 -0.47517545558E+02 -0.19907549578E+02 -0.29450025349E+03  0.29900956000E+03  0.47000000000E+01 0. -1.
         -5    1    1    2    0  502  0.54041595921E+02 -0.52877880101E+01 -0.67068003480E+02  0.86421420276E+02  0.47000000000E+01 0.  1.
        -11    1    3    3    0    0 -0.10849696649E+02  0.41757564816E+02 -0.10315208704E+03  0.11181128386E+03  0.00000000000E+00 0.  1.
         11    1    3    3    0    0  0.43256462858E+01 -0.16562227227E+02  0.11372414157E+02  0.20551165180E+02  0.00000000000E+00 0. -1.
<mgrwt>
<rscale>  0 0.12274342E+03</rscale>
<asrwt>0</asrwt>
<pdfrwt beam="1">  1        1 0.49573461E-02 0.13351193E+03</pdfrwt>
<pdfrwt beam="2">  1       -1 0.74703181E-01 0.13351193E+03</pdfrwt>
<totfact> 0.30472302E+03</totfact>
</mgrwt>
</event>
<event>
 8    1  0.1020295E-005  0.1850485E+03  0.7546771E-02  0.1168108E+00
          1   -1    0    0  501    0  0.00000000000E+00  0.00000000000E+00  0.15507739277E+03  0.15507739277E+03  0.00000000000E+00 0. -1.
         -1   -1    0    0    0  501 -0.00000000000E+00 -0.00000000000E+00 -0.20000356163E+03  0.20000356163E+03  0.00000000000E+00 0.  1.
         23    2    1    2    0    0 -0.86619398958E+02  0.10542718958E+03 -0.19926741683E+01  0.18505922923E+03  0.12500053997E+03 0.  0.
         23    2    1    2    0    0  0.86619398958E+02 -0.10542718958E+03 -0.42933494689E+02  0.17002172517E+03  0.91903696803E+02 0.  0.
          5    1    3    3  502    0 -0.32462968732E+02  0.10276264604E+02 -0.53801876993E+02  0.63844952197E+02  0.47000000000E+01 0.  1.
         -5    1    3    3    0  502 -0.54156430227E+02  0.95150924978E+02  0.51809202824E+02  0.12121427703E+03  0.47000000000E+01 0.  1.
        -11    1    4    4    0    0  0.31748828270E+02 -0.10334678616E+03 -0.39141752200E+02  0.11498096830E+03  0.00000000000E+00 0. -1.
         11    1    4    4    0    0  0.54870570688E+02 -0.20804034214E+01 -0.37917424889E+01  0.55040756873E+02  0.00000000000E+00 0.  1.
<mgrwt>
<rscale>  0 0.17968564E+03</rscale>
<asrwt>0</asrwt>
<pdfrwt beam="1">  1        1 0.23858060E-01 0.18504850E+03</pdfrwt>
<pdfrwt beam="2">  1       -1 0.30769779E-01 0.18504850E+03</pdfrwt>
<totfact> 0.19603079E+03</totfact>
</mgrwt>
</event>
<event>
 8    1  0.1020295E-005  0.1848295E+03  0.7546771E-02  0.1168452E+00
         -4   -1    0    0    0  501 -0.00000000000E+00  0.00000000000E+00  0.95828822145E+03  0.95828822145E+03  0.00000000000E+00 0. -1.
          4   -1    0    0  501    0  0.00000000000E+00 -0.00000000000E+00 -0.32779615404E+02  0.32779615404E+02  0.00000000000E+00 0.  1.
         23    2    1    2    0    0  0.60643416701E+02 -0.12190219616E+03  0.57921549305E+03  0.60799055940E+03  0.12499665399E+03 0.  0.
         23    2    1    2    0    0 -0.60643416701E+02  0.12190219616E+03  0.34629311299E+03  0.38307727746E+03  0.91057734316E+02 0.  0.
          5    1    3    3  502    0  0.63568847470E+02 -0.45662659312E+02  0.12622972304E+03  0.14860050405E+03  0.47000000000E+01 0.  1.
         -5    1    3    3    0  502 -0.29254307693E+01 -0.76239536845E+02  0.45298577001E+03  0.45939005535E+03  0.47000000000E+01 0.  1.
        -11    1    4    4    0    0 -0.84052567985E+02  0.84627836092E+02  0.23910647162E+03  0.26720518258E+03  0.00000000000E+00 0. -1.
         11    1    4    4    0    0  0.23409151284E+02  0.37274360065E+02  0.10718664137E+03  0.11587209487E+03  0.00000000000E+00 0.  1.
<mgrwt>
<rscale>  0 0.17933066E+03</rscale>
<asrwt>0</asrwt>
<pdfrwt beam="2">  1        4 0.50430185E-02 0.18482947E+03</pdfrwt>
<pdfrwt beam="1">  1       -4 0.14742894E+00 0.18482947E+03</pdfrwt>
<totfact> 0.13767927E+02</totfact>
</mgrwt>
</event>
<event>
 8    1  0.1020295E-005  0.1626385E+03  0.7546771E-02  0.1192652E+00
         -2   -1    0    0    0  501 -0.00000000000E+00  0.00000000000E+00  0.25869113973E+02  0.25869113973E+02  0.00000000000E+00 0. -1.
          2   -1    0    0  501    0  0.00000000000E+00 -0.00000000000E+00 -0.89692441564E+03  0.89692441564E+03  0.00000000000E+00 0.  1.
         23    2    1    2    0    0  0.81594392226E+02  0.64570823041E+02 -0.52589531221E+03  0.55046993099E+03  0.12499691794E+03 0.  0.
         23    2    1    2    0    0 -0.81594392226E+02 -0.64570823041E+02 -0.34515998946E+03  0.37232359862E+03  0.93072056687E+02 0.  0.
          5    1    3    3  502    0  0.12075116148E+02 -0.20278133770E+02 -0.28172429005E+03  0.28275020203E+03  0.47000000000E+01 0. -1.
         -5    1    3    3    0  502  0.69519276078E+02  0.84848956811E+02 -0.24417102216E+03  0.26771972897E+03  0.47000000000E+01 0. -1.
        -11    1    4    4    0    0 -0.16804522688E+02 -0.69931811367E+02 -0.21715579303E+03  0.22875639591E+03  0.00000000000E+00 0.  1.
         11    1    4    4    0    0 -0.64789869538E+02  0.53609883260E+01 -0.12800419643E+03  0.14356720271E+03  0.00000000000E+00 0. -1.
<mgrwt>
<rscale>  0 0.15654614E+03</rscale>
<asrwt>0</asrwt>
<pdfrwt beam="2">  1        2 0.13798839E+00 0.16263845E+03</pdfrwt>
<pdfrwt beam="1">  1       -2 0.39798632E-02 0.16263845E+03</pdfrwt>
<totfact> 0.82375867E+03</totfact>
</mgrwt>
</event>
<event>
 8    1  0.1020295E-005  0.1459723E+03  0.7546771E-02  0.1215502E+00
          2   -1    0    0  501    0  0.00000000000E+00  0.00000000000E+00  0.43672132312E+03  0.43672132312E+03  0.00000000000E+00 0. -1.
         -2   -1    0    0    0  501 -0.00000000000E+00 -0.00000000000E+00 -0.41347982127E+02  0.41347982127E+02  0.00000000000E+00 0.  1.
         23    2    1    2    0    0  0.75281976100E+02  0.39170448930E+01  0.17304277366E+03  0.22638841092E+03  0.12500076766E+03 0.  0.
         23    2    1    2    0    0 -0.75281976100E+02 -0.39170448930E+01  0.22233056733E+03  0.25168089433E+03  0.90717540937E+02 0.  0.
          5    1    3    3  502    0  0.56721450639E+02  0.98647537295E+01  0.19095662183E+03  0.19950227505E+03  0.47000000000E+01 0.  1.
         -5    1    3    3    0  502  0.18560525461E+02 -0.59477088365E+01 -0.17913848169E+02  0.26886135870E+02  0.47000000000E+01 0.  1.
        -11    1    4    4    0    0 -0.24716704508E+02 -0.10027122495E+02  0.33826330653E+01  0.26886815983E+02  0.00000000000E+00 0. -1.
         11    1    4    4    0    0 -0.50565271592E+02  0.61100776021E+01  0.21894793427E+03  0.22479407835E+03  0.00000000000E+00 0.  1.
<mgrwt>
<rscale>  0 0.13839744E+03</rscale>
<asrwt>0</asrwt>
<pdfrwt beam="1">  1        2 0.67187893E-01 0.14597230E+03</pdfrwt>
<pdfrwt beam="2">  1       -2 0.63612283E-02 0.14597230E+03</pdfrwt>
<totfact> 0.93673103E+03</totfact>
</mgrwt>
</event>
<event>
 8    1  0.1020295E-005  0.1484170E+03  0.7546771E-02  0.1212113E+00
         -2   -1    0    0    0  501 -0.00000000000E+00  0.00000000000E+00  0.13487464022E+02  0.13487464022E+02  0.00000000000E+00 0.  1.
          2   -1    0    0  501    0  0.00000000000E+00 -0.00000000000E+00 -0.13415734713E+04  0.13415734713E+04  0.00000000000E+00 0. -1.
         23    2    1    2    0    0 -0.77052023661E+02  0.21631302625E+02 -0.72262309618E+03  0.73770708599E+03  0.12499071161E+03 0.  0.
         23    2    1    2    0    0  0.77052023661E+02 -0.21631302625E+02 -0.60546291112E+03  0.61735384935E+03  0.90197067365E+02 0.  0.
          5    1    3    3  502    0 -0.18996283459E+02 -0.34664817192E+02 -0.73839671898E+02  0.83886205554E+02  0.47000000000E+01 0.  1.
         -5    1    3    3    0  502 -0.58055740202E+02  0.56296119817E+02 -0.64878342428E+03  0.65382088044E+03  0.47000000000E+01 0.  1.
        -11    1    4    4    0    0 -0.18613048970E+02  0.73955158853E+01 -0.80295124991E+02  0.82755340277E+02  0.00000000000E+00 0.  1.
         11    1    4    4    0    0  0.95665072630E+02 -0.29026818510E+02 -0.52516778613E+03  0.53459850907E+03  0.00000000000E+00 0. -1.
<mgrwt>
<rscale>  0 0.14090776E+03</rscale>
<asrwt>0</asrwt>
<pdfrwt beam="2">  1        2 0.20639589E+00 0.14841700E+03</pdfrwt>
<pdfrwt beam="1">  1       -2 0.20749948E-02 0.14841700E+03</pdfrwt>
<totfact> 0.11862729E+04</totfact>
</mgrwt>
</event>
<event>
 8    1  0.1020295E-005  0.1671376E+03  0.7546771E-02  0.1187481E+00
         -1   -1    0    0    0  501 -0.00000000000E+00  0.00000000000E+00  0.44439001971E+03  0.44439001971E+03  0.00000000000E+00 0.  1.
          1   -1    0    0  501    0  0.00000000000E+00 -0.00000000000E+00 -0.93707267728E+02  0.93707267728E+02  0.00000000000E+00 0. -1.
         23    2    1    2    0    0 -0.13448772437E+02  0.11013676100E+03  0.35654735897E+03  0.39377785079E+03  0.12499600386E+03 0.  0.
         23    2    1    2    0    0  0.13448772437E+02 -0.11013676100E+03 -0.58646069843E+01  0.14431943665E+03  0.92101740363E+02 0.  0.
          5    1    3    3  502    0  0.20273275446E+02  0.39494892047E+02  0.21267716096E+02  0.49449549472E+02  0.47000000000E+01 0. -1.
         -5    1    3    3    0  502 -0.33722047883E+02  0.70641868949E+02  0.33527964287E+03  0.34432830132E+03  0.47000000000E+01 0. -1.
        -11    1    4    4    0    0 -0.94645009056E+01 -0.31830454000E+02  0.38988303681E+02  0.51213693512E+02  0.00000000000E+00 0.  1.
         11    1    4    4    0    0  0.22913273343E+02 -0.78306306996E+02 -0.44852910665E+02  0.93105743141E+02  0.00000000000E+00 0. -1.
<mgrwt>
<rscale>  0 0.16108203E+03</rscale>
<asrwt>0</asrwt>
<pdfrwt beam="2">  1        1 0.14416503E-01 0.16713760E+03</pdfrwt>
<pdfrwt beam="1">  1       -1 0.68367694E-01 0.16713760E+03</pdfrwt>
<totfact> 0.87717876E+02</totfact>
</mgrwt>
</event>
<event>
 8    1  0.1020295E-005  0.1379010E+03  0.7546771E-02  0.1228887E+00
          1   -1    0    0  501    0  0.00000000000E+00  0.00000000000E+00  0.57584247938E+03  0.57584247938E+03  0.00000000000E+00 0. -1.
         -1   -1    0    0    0  501 -0.00000000000E+00 -0.00000000000E+00 -0.29151233168E+02  0.29151233168E+02  0.00000000000E+00 0.  1.
         23    2    1    2    0    0  0.53642972010E+01  0.58006016181E+02  0.20301529468E+03  0.24542185773E+03  0.12499281892E+03 0.  0.
         23    2    1    2    0    0 -0.53642972010E+01 -0.58006016181E+02  0.34367595153E+03  0.35957185481E+03  0.88234264987E+02 0.  0.
          5    1    3    3  502    0 -0.20340617455E+02 -0.35001787225E+02  0.70447828440E+02  0.81387052774E+02  0.47000000000E+01 0.  1.
         -5    1    3    3    0  502  0.25704914656E+02  0.93007803406E+02  0.13256746624E+03  0.16403480496E+03  0.47000000000E+01 0.  1.
        -11    1    4    4    0    0  0.29074500280E+02  0.26798735998E+01  0.51710651645E+02  0.59384339540E+02  0.00000000000E+00 0.  1.
         11    1    4    4    0    0 -0.34438797481E+02 -0.60685889781E+02  0.29196529988E+03  0.30018751527E+03  0.00000000000E+00 0. -1.
<mgrwt>
<rscale>  0 0.12904010E+03</rscale>
<asrwt>0</asrwt>
<pdfrwt beam="1">  1        1 0.88591143E-01 0.13790097E+03</pdfrwt>
<pdfrwt beam="2">  1       -1 0.44848055E-02 0.13790097E+03</pdfrwt>
<totfact> 0.74132756E+03</totfact>
</mgrwt>
</event>
<event>
 8    1  0.1020295E-005  0.1285091E+03  0.7546771E-02  0.1244606E+00
          2   -1    0    0  501    0  0.00000000000E+00  0.00000000000E+00  0.27472424156E+02  0.27472424156E+02  0.00000000000E+00 0. -1.
         -2   -1    0    0    0  501 -0.00000000000E+00 -0.00000000000E+00 -0.66259504211E+03  0.66259504211E+03  0.00000000000E+00 0.  1.
         23    2    1    2    0    0  0.20687642295E+02 -0.21427274415E+02 -0.54262804188E+03  0.55763768794E+03  0.12500996977E+03 0.  0.
         23    2    1    2    0    0 -0.20687642295E+02  0.21427274415E+02 -0.92494576078E+02  0.13242977833E+03  0.89973845939E+02 0.  0.
          5    1    3    3  502    0  0.47431217948E+02 -0.60045075574E+02 -0.25900447296E+03  0.27011208516E+03  0.47000000000E+01 0. -1.
         -5    1    3    3    0  502 -0.26743575653E+02  0.38617801160E+02 -0.28362356891E+03  0.28752560277E+03  0.47000000000E+01 0. -1.
        -11    1    4    4    0    0  0.19091687431E+02  0.33157480020E+02 -0.80702763479E+02  0.89313196356E+02  0.00000000000E+00 0.  1.
         11    1    4    4    0    0 -0.39779329727E+02 -0.11730205605E+02 -0.11791812599E+02  0.43116581977E+02  0.00000000000E+00 0. -1.
<mgrwt>
<rscale>  0 0.11908980E+03</rscale>
<asrwt>0</asrwt>
<pdfrwt beam="1">  1        2 0.42265269E-02 0.12850914E+03</pdfrwt>
<pdfrwt beam="2">  1       -2 0.10193770E+00 0.12850914E+03</pdfrwt>
<totfact> 0.15499034E+03</totfact>
</mgrwt>
</event>
<event>
 8    1  0.1020295E-005  0.1321444E+03  0.7546771E-02  0.1238179E+00
          2   -1    0    0  501    0  0.00000000000E+00  0.00000000000E+00  0.52136717188E+03  0.52136717188E+03  0.00000000000E+00 0. -1.
         -2   -1    0    0    0  501 -0.00000000000E+00 -0.00000000000E+00 -0.25789462896E+02  0.25789462896E+02  0.00000000000E+00 0.  1.
         23    2    1    2    0    0  0.19828953387E+02  0.37945169534E+02  0.26548920848E+03  0.29655803360E+03  0.12501649568E+03 0.  0.
         23    2    1    2    0    0 -0.19828953387E+02 -0.37945169534E+02  0.23008850051E+03  0.25059860118E+03  0.89587485515E+02 0.  0.
          5    1    3    3  502    0  0.13669229038E+02  0.62000415425E+02  0.53758655876E+02  0.83324560706E+02  0.47000000000E+01 0.  1.
         -5    1    3    3    0  502  0.61597243493E+01 -0.24055245890E+02  0.21173055260E+03  0.21323347290E+03  0.47000000000E+01 0.  1.
        -11    1    4    4    0    0 -0.36691930915E+02 -0.76916905664E+01  0.31366006884E+02  0.48880326164E+02  0.00000000000E+00 0.  1.
         11    1    4    4    0    0  0.16862977528E+02 -0.30253478968E+02  0.19872249363E+03  0.20171827501E+03  0.00000000000E+00 0. -1.
<mgrwt>
<rscale>  0 0.12303124E+03</rscale>
<asrwt>0</asrwt>
<pdfrwt beam="1">  1        2 0.80210326E-01 0.13214442E+03</pdfrwt>
<pdfrwt beam="2">  1       -2 0.39676101E-02 0.13214442E+03</pdfrwt>
<totfact> 0.15582740E+04</totfact>
</mgrwt>
</event>
<event>
 8    1  0.1020295E-005  0.1303674E+03  0.7546771E-02  0.1245650E+00
          1   -1    0    0  501    0  0.00000000000E+00  0.00000000000E+00  0.84462377409E+02  0.84462377409E+02  0.00000000000E+00 0. -1.
         -1   -1    0    0    0  501 -0.00000000000E+00 -0.00000000000E+00 -0.20701298960E+03  0.20701298960E+03  0.00000000000E+00 0.  1.
         23    2    1    2    0    0 -0.31090256072E+02  0.20119655826E+02 -0.14972045834E+03  0.19852423457E+03  0.12499700594E+03 0.  0.
         23    2    1    2    0    0  0.31090256072E+02 -0.20119655826E+02  0.27169846142E+02  0.92951132442E+02  0.80810320564E+02 0.  0.
          5    1    3    3  502    0 -0.12052623219E+02 -0.45571270488E+02 -0.19239337400E+02  0.51129722510E+02  0.47000000000E+01 0.  1.
         -5    1    3    3    0  502 -0.19037632853E+02  0.65690926314E+02 -0.13048112094E+03  0.14739451206E+03  0.47000000000E+01 0.  1.
        -11    1    4    4    0    0 -0.20847936235E+02 -0.19884582648E+02  0.29136456367E+02  0.40975189590E+02  0.00000000000E+00 0.  1.
         11    1    4    4    0    0  0.51938192307E+02 -0.23507317774E+00 -0.19666102254E+01  0.51975942852E+02  0.00000000000E+00 0. -1.
<mgrwt>
<rscale>  0 0.11846550E+03</rscale>
<asrwt>0</asrwt>
<pdfrwt beam="1">  1        1 0.12994212E-01 0.13036739E+03</pdfrwt>
<pdfrwt beam="2">  1       -1 0.31848152E-01 0.13036739E+03</pdfrwt>
<totfact> 0.39767664E+03</totfact>
</mgrwt>
</event>
<event>
 8    1  0.1020295E-005  0.1549111E+03  0.7546771E-02  0.1203211E+00
          2   -1    0    0  501    0  0.00000000000E+00  0.00000000000E+00  0.26084173117E+03  0.26084173117E+03  0.00000000000E+00 0. -1.
         -2   -1    0    0    0  501 -0.00000000000E+00 -0.00000000000E+00 -0.86226265556E+02  0.86226265556E+02  0.00000000000E+00 0.  1.
         23    2    1    2    0    0  0.69334859644E+02  0.59705631752E+02  0.37756969518E+02  0.15944602909E+03  0.12500144888E+03 0.  0.
         23    2    1    2    0    0 -0.69334859644E+02 -0.59705631752E+02  0.13685849610E+03  0.18762196764E+03  0.89998164202E+02 0.  0.
          5    1    3    3  502    0  0.23695240327E+02 -0.25865832001E+01 -0.41880212420E+02  0.48416908401E+02  0.47000000000E+01 0. -1.
         -5    1    3    3    0  502  0.45639619316E+02  0.62292214952E+02  0.79637181938E+02  0.11102912069E+03  0.47000000000E+01 0. -1.
        -11    1    4    4    0    0 -0.23125630465E+02 -0.18601289779E+02 -0.74674636448E+01  0.30603362219E+02  0.00000000000E+00 0.  1.
         11    1    4    4    0    0 -0.46209229179E+02 -0.41104341973E+02  0.14432595975E+03  0.15701860542E+03  0.00000000000E+00 0. -1.
<mgrwt>
<rscale>  0 0.14779317E+03</rscale>
<asrwt>0</asrwt>
<pdfrwt beam="1">  1        2 0.40129497E-01 0.15491110E+03</pdfrwt>
<pdfrwt beam="2">  1       -2 0.13265579E-01 0.15491110E+03</pdfrwt>
<totfact> 0.51539877E+03</totfact>
</mgrwt>
</event>
<event>
 8    1  0.1020295E-005  0.1584932E+03  0.7546771E-02  0.1198139E+00
         -2   -1    0    0    0  501 -0.00000000000E+00  0.00000000000E+00  0.22919061497E+03  0.22919061497E+03  0.00000000000E+00 0.  1.
          2   -1    0    0  501    0  0.00000000000E+00 -0.00000000000E+00 -0.14091595782E+03  0.14091595782E+03  0.00000000000E+00 0. -1.
         23    2    1    2    0    0  0.90606187714E+02  0.35840279339E+02  0.15405933540E+03  0.22103023888E+03  0.12500432314E+03 0.  0.
         23    2    1    2    0    0 -0.90606187714E+02 -0.35840279339E+02 -0.65784678241E+02  0.14907633391E+03  0.91663092712E+02 0.  0.
          5    1    3    3  502    0 -0.73137116920E+01 -0.24650144993E+02  0.79809824136E+02  0.83981057719E+02  0.47000000000E+01 0. -1.
         -5    1    3    3    0  502  0.97919899406E+02  0.60490424331E+02  0.74249511259E+02  0.13704918116E+03  0.47000000000E+01 0. -1.
        -11    1    4    4    0    0 -0.97775691010E+02 -0.24077527999E+02 -0.80500374078E+02  0.12891905729E+03  0.00000000000E+00 0. -1.
         11    1    4    4    0    0  0.71695032962E+01 -0.11762751339E+02  0.14715695837E+02  0.20157276615E+02  0.00000000000E+00 0.  1.
<mgrwt>
<rscale>  0 0.15191576E+03</rscale>
<asrwt>0</asrwt>
<pdfrwt beam="2">  1        2 0.21679378E-01 0.15849318E+03</pdfrwt>
<pdfrwt beam="1">  1       -2 0.35260094E-01 0.15849318E+03</pdfrwt>
<totfact> 0.18765765E+03</totfact>
</mgrwt>
</event>
<event>
 8    1  0.1020295E-005  0.2278062E+03  0.7546771E-02  0.1131417E+00
          1   -1    0    0  501    0  0.00000000000E+00  0.00000000000E+00  0.13906946251E+04  0.13906946251E+04  0.00000000000E+00 0. -1.
         -1   -1    0    0    0  501 -0.00000000000E+00 -0.00000000000E+00 -0.40432105261E+02  0.40432105261E+02  0.00000000000E+00 0.  1.
         23    2    1    2    0    0  0.16282125662E+03 -0.98788623159E+02  0.42472427138E+03  0.48196097624E+03  0.12500288894E+03 0.  0.
         23    2    1    2    0    0 -0.16282125662E+03  0.98788623159E+02  0.92553824843E+03  0.94916575409E+03  0.89580275498E+02 0.  0.
          5    1    3    3  502    0  0.80323695277E+02 -0.10734260112E+03  0.18701854690E+03  0.23015724390E+03  0.47000000000E+01 0. -1.
         -5    1    3    3    0  502  0.82497561348E+02  0.85539779563E+01  0.23770572448E+03  0.25180373233E+03  0.47000000000E+01 0. -1.
        -11    1    4    4    0    0 -0.68601694687E+02  0.92928968949E+02  0.47482705616E+03  0.48867445099E+03  0.00000000000E+00 0.  1.
         11    1    4    4    0    0 -0.94219561938E+02  0.58596542104E+01  0.45071119227E+03  0.46049130310E+03  0.00000000000E+00 0. -1.
<mgrwt>
<rscale>  0 0.22334077E+03</rscale>
<asrwt>0</asrwt>
<pdfrwt beam="1">  1        1 0.21395298E+00 0.22780622E+03</pdfrwt>
<pdfrwt beam="2">  1       -1 0.62203250E-02 0.22780622E+03</pdfrwt>
<totfact> 0.10744137E+03</totfact>
</mgrwt>
</event>
<event>
 8    1  0.1020295E-005  0.1777641E+03  0.7546771E-02  0.1175982E+00
          1   -1    0    0  501    0  0.00000000000E+00  0.00000000000E+00  0.73666758921E+03  0.73666758921E+03  0.00000000000E+00 0. -1.
         -1   -1    0    0    0  501 -0.00000000000E+00 -0.00000000000E+00 -0.37598078933E+02  0.37598078933E+02  0.00000000000E+00 0.  1.
         23    2    1    2    0    0  0.47152475425E+02  0.11726534338E+03  0.37311070243E+03  0.41329369974E+03  0.12500227710E+03 0.  0.
         23    2    1    2    0    0 -0.47152475425E+02 -0.11726534338E+03  0.32595880785E+03  0.36097196841E+03  0.89872692538E+02 0.  0.
          5    1    3    3  502    0  0.35633525706E+02  0.13807673742E+03  0.25027467675E+03  0.28808755161E+03  0.47000000000E+01 0.  1.
         -5    1    3    3    0  502  0.11518949720E+02 -0.20811394041E+02  0.12283602568E+03  0.12520614812E+03  0.47000000000E+01 0.  1.
        -11    1    4    4    0    0 -0.50223402157E+02 -0.13137395251E+03  0.29546814280E+03  0.32723528070E+03  0.00000000000E+00 0.  1.
         11    1    4    4    0    0  0.30709267317E+01  0.14108609130E+02  0.30490665049E+02  0.33736687711E+02  0.00000000000E+00 0. -1.
<mgrwt>
<rscale>  0 0.17180118E+03</rscale>
<asrwt>0</asrwt>
<pdfrwt beam="1">  1        1 0.11333346E+00 0.17776413E+03</pdfrwt>
<pdfrwt beam="2">  1       -1 0.57843204E-02 0.17776413E+03</pdfrwt>
<totfact> 0.36361930E+03</totfact>
</mgrwt>
</event>
<event>
 8    1  0.1020295E-005  0.1428693E+03  0.7546771E-02  0.1220214E+00
          1   -1    0    0  501    0  0.00000000000E+00  0.00000000000E+00  0.18790288388E+03  0.18790288388E+03  0.00000000000E+00 0. -1.
         -1   -1    0    0    0  501 -0.00000000000E+00 -0.00000000000E+00 -0.12301468820E+03  0.12301468820E+03  0.00000000000E+00 0.  1.
         23    2    1    2    0    0  0.53675878792E+02  0.43661873703E+02 -0.47831062234E+02  0.15066339112E+03  0.12499675088E+03 0.  0.
         23    2    1    2    0    0 -0.53675878792E+02 -0.43661873703E+02  0.11271925791E+03  0.16025418097E+03  0.90489293475E+02 0.  0.
          5    1    3    3  502    0  0.70603890936E+02  0.70418551672E+02 -0.88438901128E+01  0.10021968982E+03  0.47000000000E+01 0.  1.
         -5    1    3    3    0  502 -0.16928012144E+02 -0.26756677969E+02 -0.38987172121E+02  0.50443701302E+02  0.47000000000E+01 0.  1.
        -11    1    4    4    0    0  0.40670510482E+01 -0.45852965197E+02  0.18260553198E+02  0.49522551678E+02  0.00000000000E+00 0.  1.
         11    1    4    4    0    0 -0.57742929840E+02  0.21910914942E+01  0.94458704715E+02  0.11073162929E+03  0.00000000000E+00 0. -1.
<mgrwt>
<rscale>  0 0.13500378E+03</rscale>
<asrwt>0</asrwt>
<pdfrwt beam="1">  1        1 0.28908136E-01 0.14286934E+03</pdfrwt>
<pdfrwt beam="2">  1       -1 0.18925337E-01 0.14286934E+03</pdfrwt>
<totfact> 0.33894563E+03</totfact>
</mgrwt>
</event>
<event>
 8    1  0.1020295E-005  0.1521684E+03  0.7546771E-02  0.1206623E+00
         -2   -1    0    0    0  501 -0.00000000000E+00  0.00000000000E+00  0.24146281006E+02  0.24146281006E+02  0.00000000000E+00 0. -1.
          2   -1    0    0  501    0  0.00000000000E+00 -0.00000000000E+00 -0.80084380297E+03  0.80084380297E+03  0.00000000000E+00 0.  1.
         23    2    1    2    0    0 -0.24247588669E+02  0.83320739949E+02 -0.43786455827E+03  0.46355215946E+03  0.12499976756E+03 0.  0.
         23    2    1    2    0    0  0.24247588669E+02 -0.83320739949E+02 -0.33883296369E+03  0.36143792451E+03  0.91100519921E+02 0.  0.
          5    1    3    3  502    0  0.19211437025E+02  0.76135316807E+02 -0.12587085041E+03  0.14842919781E+03  0.47000000000E+01 0. -1.
         -5    1    3    3    0  502 -0.43459025694E+02  0.71854231415E+01 -0.31199370785E+03  0.31512296165E+03  0.47000000000E+01 0. -1.
        -11    1    4    4    0    0  0.16963359540E+02  0.10375312569E+02 -0.16989960054E+02  0.26154567869E+02  0.00000000000E+00 0. -1.
         11    1    4    4    0    0  0.72842291287E+01 -0.93696052518E+02 -0.32184300364E+03  0.33528335665E+03  0.00000000000E+00 0.  1.
<mgrwt>
<rscale>  0 0.14510326E+03</rscale>
<asrwt>0</asrwt>
<pdfrwt beam="2">  1        2 0.12320672E+00 0.15216844E+03</pdfrwt>
<pdfrwt beam="1">  1       -2 0.37148130E-02 0.15216844E+03</pdfrwt>
<totfact> 0.10516165E+04</totfact>
</mgrwt>
</event>
<event>
 8    1  0.1020295E-005  0.1365310E+03  0.7546771E-02  0.1229603E+00
         -1   -1    0    0    0  501 -0.00000000000E+00  0.00000000000E+00  0.21890255452E+03  0.21890255452E+03  0.00000000000E+00 0.  1.
          1   -1    0    0  501    0  0.00000000000E+00 -0.00000000000E+00 -0.68980926921E+02  0.68980926921E+02  0.00000000000E+00 0. -1.
         23    2    1    2    0    0 -0.43813883966E+02 -0.33108146380E+02  0.10148570890E+03  0.17011778071E+03  0.12499961767E+03 0.  0.
         23    2    1    2    0    0  0.43813883966E+02  0.33108146380E+02  0.48435918697E+02  0.11776570073E+03  0.92232945650E+02 0.  0.
          5    1    3    3  502    0 -0.34857956775E+02 -0.12179043332E+02 -0.22817850305E+02  0.43659483959E+02  0.47000000000E+01 0.  1.
         -5    1    3    3    0  502 -0.89559271910E+01 -0.20929103048E+02  0.12430355921E+03  0.12645829675E+03  0.47000000000E+01 0.  1.
        -11    1    4    4    0    0  0.21281532855E+02  0.57068264917E+02  0.57381866619E+02  0.83680159643E+02  0.00000000000E+00 0.  1.
         11    1    4    4    0    0  0.22532351111E+02 -0.23960118537E+02 -0.89459479220E+01  0.34085541086E+02  0.00000000000E+00 0. -1.
<mgrwt>
<rscale>  0 0.12856354E+03</rscale>
<asrwt>0</asrwt>
<pdfrwt beam="2">  1        1 0.10612450E-01 0.13653099E+03</pdfrwt>
<pdfrwt beam="1">  1       -1 0.33677316E-01 0.13653099E+03</pdfrwt>
<totfact> 0.47317748E+03</totfact>
</mgrwt>
</event>
<event>
 8    1  0.1358887E-005  0.2548889E+03  0.7546771E-02  0.1112394E+00
          2   -1    0    0  501    0  0.00000000000E+00  0.00000000000E+00  0.58349416859E+03  0.58349416859E+03  0.00000000000E+00 0. -1.
         -2   -1    0    0    0  501 -0.00000000000E+00 -0.00000000000E+00 -0.12706371776E+03  0.12706371776E+03  0.00000000000E+00 0.  1.
         23    2    1    2    0    0  0.21307365468E+03 -0.62799517783E+02  0.87145754565E+02  0.26937466551E+03  0.12499666446E+03 0.  0.
         23    2    1    2    0    0 -0.21307365468E+03  0.62799517783E+02  0.36928469627E+03  0.44118322085E+03  0.94484314600E+02 0.  0.
          5    1    3    3  502    0  0.14611218182E+03  0.19270385627E+02  0.64579728119E+02  0.16097437288E+03  0.47000000000E+01 0. -1.
         -5    1    3    3    0  502  0.66961472859E+02 -0.82069903411E+02  0.22566026446E+02  0.10840029263E+03  0.47000000000E+01 0. -1.
        -11    1    4    4    0    0 -0.11511935615E+03 -0.97271738344E+01  0.21975889217E+03  0.24827616631E+03  0.00000000000E+00 0. -1.
         11    1    4    4    0    0 -0.97954298530E+02  0.72526691618E+02  0.14952580410E+03  0.19290705453E+03  0.00000000000E+00 0.  1.
<mgrwt>
<rscale>  0 0.25144622E+03</rscale>
<asrwt>0</asrwt>
<pdfrwt beam="1">  1        2 0.89768332E-01 0.25488885E+03</pdfrwt>
<pdfrwt beam="2">  1       -2 0.19548265E-01 0.25488885E+03</pdfrwt>
<totfact> 0.11408191E+03</totfact>
</mgrwt>
</event>
<event>
 7    1  0.1020295E-005  0.1834179E+03  0.7546771E-02  0.1172479E+00
         -2   -1    0    0    0  501 -0.00000000000E+00  0.00000000000E+00  0.17141291536E+03  0.17141291536E+03  0.00000000000E+00 0.  1.
          2   -1    0    0  501    0  0.00000000000E+00 -0.00000000000E+00 -0.17873338775E+03  0.17873338775E+03  0.00000000000E+00 0. -1.
         23    2    1    2    0    0 -0.94568576589E+02 -0.77098842351E+02 -0.51807655369E+02  0.16141038327E+03  0.92096859354E+02 0.  0.
          5    1    1    2  502    0  0.88108239476E+02  0.24500783260E+01  0.66484059135E+02  0.11050468255E+03  0.47000000000E+01 0. -1.
         -5    1    1    2    0  502  0.64603371123E+01  0.74648764025E+02 -0.21996876158E+02  0.78231237283E+02  0.47000000000E+01 0.  1.
        -11    1    3    3    0    0  0.10167788905E+02  0.41723357935E+01  0.10255565370E+02  0.15032263245E+02  0.00000000000E+00 0.  1.
         11    1    3    3    0    0 -0.10473636549E+03 -0.81271178145E+02 -0.62063220739E+02  0.14637812003E+03  0.00000000000E+00 0. -1.
<mgrwt>
<rscale>  0 0.17525161E+03</rscale>
<asrwt>0</asrwt>
<pdfrwt beam="2">  1        2 0.27497444E-01 0.18341793E+03</pdfrwt>
<pdfrwt beam="1">  1       -2 0.26371218E-01 0.18341793E+03</pdfrwt>
<totfact> 0.24520502E+03</totfact>
</mgrwt>
</event>
<event>
 8    1  0.1020295E-005  0.1665824E+03  0.7546771E-02  0.1188301E+00
          2   -1    0    0  501    0  0.00000000000E+00  0.00000000000E+00  0.29229519957E+02  0.29229519957E+02  0.00000000000E+00 0.  1.
         -2   -1    0    0    0  501 -0.00000000000E+00 -0.00000000000E+00 -0.85589658530E+03  0.85589658530E+03  0.00000000000E+00 0. -1.
         23    2    1    2    0    0  0.25540305895E+02 -0.10709969084E+03 -0.53403893402E+03  0.55941690623E+03  0.12500816346E+03 0.  0.
         23    2    1    2    0    0 -0.25540305895E+02  0.10709969084E+03 -0.29262813133E+03  0.32570919903E+03  0.91283120460E+02 0.  0.
          5    1    3    3  502    0  0.71201926200E+02 -0.82477933682E+02 -0.28879316795E+03  0.30870035260E+03  0.47000000000E+01 0. -1.
         -5    1    3    3    0  502 -0.45661620305E+02 -0.24621757159E+02 -0.24524576606E+03  0.25071655364E+03  0.47000000000E+01 0. -1.
        -11    1    4    4    0    0  0.11390843231E+02  0.71331960083E+02 -0.83758347238E+02  0.11060497534E+03  0.00000000000E+00 0.  1.
         11    1    4    4    0    0 -0.36931149125E+02  0.35767730759E+02 -0.20886978409E+03  0.21510422368E+03  0.00000000000E+00 0. -1.
<mgrwt>
<rscale>  0 0.16035128E+03</rscale>
<asrwt>0</asrwt>
<pdfrwt beam="1">  1        2 0.44968496E-02 0.16658239E+03</pdfrwt>
<pdfrwt beam="2">  1       -2 0.13167639E+00 0.16658239E+03</pdfrwt>
<totfact> 0.78534303E+02</totfact>
</mgrwt>
</event>
<event>
 8    1  0.1020295E-005  0.1352301E+03  0.7546771E-02  0.1231780E+00
          1   -1    0    0  501    0  0.00000000000E+00  0.00000000000E+00  0.33121596961E+03  0.33121596961E+03  0.00000000000E+00 0. -1.
         -1   -1    0    0    0  501 -0.00000000000E+00 -0.00000000000E+00 -0.46859043066E+02  0.46859043066E+02  0.00000000000E+00 0.  1.
         23    2    1    2    0    0  0.50999493167E+02 -0.78281090151E+01  0.20658669394E+03  0.24691141759E+03  0.12499983372E+03 0.  0.
         23    2    1    2    0    0 -0.50999493167E+02  0.78281090151E+01  0.77770232609E+02  0.13116359509E+03  0.92159926229E+02 0.  0.
          5    1    3    3  502    0  0.17348251808E+02  0.14309573771E+02  0.20504576261E+03  0.20632881647E+03  0.47000000000E+01 0.  1.
         -5    1    3    3    0  502  0.33651241358E+02 -0.22137682786E+02  0.15409313262E+01  0.40582601117E+02  0.47000000000E+01 0.  1.
        -11    1    4    4    0    0 -0.11557923050E+02 -0.27450276652E+02  0.72019247543E+02  0.77935070990E+02  0.00000000000E+00 0. -1.
         11    1    4    4    0    0 -0.39441570116E+02  0.35278385667E+02  0.57509850663E+01  0.53228524099E+02  0.00000000000E+00 0.  1.
<mgrwt>
<rscale>  0 0.12712825E+03</rscale>
<asrwt>0</asrwt>
<pdfrwt beam="1">  1        1 0.50956301E-01 0.13523012E+03</pdfrwt>
<pdfrwt beam="2">  1       -1 0.72090838E-02 0.13523012E+03</pdfrwt>
<totfact> 0.74270710E+03</totfact>
</mgrwt>
</event>
<event>
 8    1  0.1020295E-005  0.1361590E+03  0.7546771E-02  0.1231008E+00
          1   -1    0    0  501    0  0.00000000000E+00  0.00000000000E+00  0.22797235378E+03  0.22797235378E+03  0.00000000000E+00 0. -1.
         -1   -1    0    0    0  501 -0.00000000000E+00 -0.00000000000E+00 -0.64991220953E+02  0.64991220953E+02  0.00000000000E+00 0.  1.
         23    2    1    2    0    0 -0.15001792030E+02 -0.51839219336E+02  0.72511312598E+02  0.15426327162E+03  0.12500763213E+03 0.  0.
         23    2    1    2    0    0  0.15001792030E+02  0.51839219336E+02  0.90469820231E+02  0.13870030311E+03  0.90225424830E+02 0.  0.
          5    1    3    3  502    0 -0.66285477354E+01 -0.77290784732E+02  0.96787017112E+00  0.77722775441E+02  0.47000000000E+01 0.  1.
         -5    1    3    3    0  502 -0.83732442948E+01  0.25451565396E+02  0.71543442427E+02  0.76540496179E+02  0.47000000000E+01 0.  1.
        -11    1    4    4    0    0  0.18873883013E+01 -0.12236489857E+02 -0.11931283081E+02  0.17194459415E+02  0.00000000000E+00 0.  1.
         11    1    4    4    0    0  0.13114403729E+02  0.64075709193E+02  0.10240110331E+03  0.12150584370E+03  0.00000000000E+00 0. -1.
<mgrwt>
<rscale>  0 0.12763496E+03</rscale>
<asrwt>0</asrwt>
<pdfrwt beam="1">  1        1 0.35072670E-01 0.13615898E+03</pdfrwt>
<pdfrwt beam="2">  1       -1 0.99986495E-02 0.13615898E+03</pdfrwt>
<totfact> 0.71913077E+03</totfact>
</mgrwt>
</event>
<event>
 8    1  0.1020295E-005  0.1355750E+03  0.7546771E-02  0.1233962E+00
         -2   -1    0    0    0  501 -0.00000000000E+00  0.00000000000E+00  0.37286384323E+02  0.37286384323E+02  0.00000000000E+00 0. -1.
          2   -1    0    0  501    0  0.00000000000E+00 -0.00000000000E+00 -0.50255255395E+03  0.50255255395E+03  0.00000000000E+00 0.  1.
         23    2    1    2    0    0  0.30475336547E+02  0.42740558272E+02 -0.12249681874E+03  0.18271848368E+03  0.12500028887E+03 0.  0.
         23    2    1    2    0    0 -0.30475336547E+02 -0.42740558272E+02 -0.34276935089E+03  0.35712045460E+03  0.85373823407E+02 0.  0.
          5    1    3    3  502    0 -0.32853761405E+02  0.59728982899E+02 -0.48819326247E+02  0.83978197479E+02  0.47000000000E+01 0. -1.
         -5    1    3    3    0  502  0.63329097952E+02 -0.16988424627E+02 -0.73677492491E+02  0.98740286198E+02  0.47000000000E+01 0. -1.
        -11    1    4    4    0    0 -0.57898287786E+02 -0.13086174745E+02 -0.18668378362E+03  0.19589358020E+03  0.00000000000E+00 0.  1.
         11    1    4    4    0    0  0.27422951239E+02 -0.29654383527E+02 -0.15608556728E+03  0.16122687440E+03  0.00000000000E+00 0. -1.
<mgrwt>
<rscale>  0 0.12571121E+03</rscale>
<asrwt>0</asrwt>
<pdfrwt beam="2">  1        2 0.77315771E-01 0.13557497E+03</pdfrwt>
<pdfrwt beam="1">  1       -2 0.57363673E-02 0.13557497E+03</pdfrwt>
<totfact> 0.93590899E+03</totfact>
</mgrwt>
</event>
<event>
 7    1  0.1020295E-005  0.1877960E+03  0.7546771E-02  0.1165930E+00
          1   -1    0    0  501    0  0.00000000000E+00  0.00000000000E+00  0.41025211474E+03  0.41025211474E+03  0.00000000000E+00 0. -1.
         -1   -1    0    0    0  501 -0.00000000000E+00 -0.00000000000E+00 -0.77620741778E+02  0.77620741778E+02  0.00000000000E+00 0.  1.
         23    2    1    2    0    0  0.78222995375E+02  0.11160489992E+03  0.19062646310E+03  0.25243125303E+03  0.93854133546E+02 0.  0.
          5    1    1    2  502    0 -0.10451255487E+03 -0.10150838776E+03  0.14635136929E+03  0.20656146834E+03  0.47000000000E+01 0. -1.
         -5    1    1    2    0  502  0.26289559495E+02 -0.10096512160E+02 -0.43464594237E+01  0.28880135141E+02  0.47000000000E+01 0.  1.
        -11    1    3    3    0    0  0.39751031934E+02  0.39898255499E+02  0.14111137357E+02  0.58061515044E+02  0.00000000000E+00 0.  1.
         11    1    3    3    0    0  0.38471963441E+02  0.71706644421E+02  0.17651532574E+03  0.19436973799E+03  0.00000000000E+00 0. -1.
<mgrwt>
<rscale>  0 0.18194919E+03</rscale>
<asrwt>0</asrwt>
<pdfrwt beam="1">  1        1 0.63115709E-01 0.18779604E+03</pdfrwt>
<pdfrwt beam="2">  1       -1 0.11941653E-01 0.18779604E+03</pdfrwt>
<totfact> 0.26680673E+03</totfact>
</mgrwt>
</event>
<event>
 8    1  0.1020295E-005  0.1292100E+03  0.7546771E-02  0.1241624E+00
          1   -1    0    0  501    0  0.00000000000E+00  0.00000000000E+00  0.21833344926E+03  0.21833344926E+03  0.00000000000E+00 0. -1.
         -1   -1    0    0    0  501 -0.00000000000E+00 -0.00000000000E+00 -0.73574351585E+02  0.73574351585E+02  0.00000000000E+00 0.  1.
         23    2    1    2    0    0  0.21968909363E+02 -0.33228046123E+02  0.17095866451E+02  0.13033608020E+03  0.12291659418E+03 0.  0.
         23    2    1    2    0    0 -0.21968909363E+02  0.33228046123E+02  0.12766323123E+03  0.16157172065E+03  0.90668540725E+02 0.  0.
          5    1    3    3  502    0 -0.19925658668E+02  0.17555484893E+02  0.49832266768E+02  0.56661907261E+02  0.47000000000E+01 0. -1.
         -5    1    3    3    0  502  0.41894568031E+02 -0.50783531016E+02 -0.32736400317E+02  0.73674172942E+02  0.47000000000E+01 0.  1.
        -11    1    4    4    0    0  0.32794115756E+02  0.27987407949E+02  0.67058263412E+02  0.79721764429E+02  0.00000000000E+00 0.  1.
         11    1    4    4    0    0 -0.54763025119E+02  0.52406381744E+01  0.60604967817E+02  0.81849956217E+02  0.00000000000E+00 0. -1.
<mgrwt>
<rscale>  0 0.12089741E+03</rscale>
<asrwt>0</asrwt>
<pdfrwt beam="1">  1        1 0.33589761E-01 0.12921000E+03</pdfrwt>
<pdfrwt beam="2">  1       -1 0.11319131E-01 0.12921000E+03</pdfrwt>
<totfact> 0.62521880E+03</totfact>
</mgrwt>
</event>
<event>
 8    1  0.1020295E-005  0.2075593E+03  0.7546771E-02  0.1147394E+00
         -2   -1    0    0    0  501 -0.00000000000E+00  0.00000000000E+00  0.63683690449E+02  0.63683690449E+02  0.00000000000E+00 0. -1.
          2   -1    0    0  501    0  0.00000000000E+00 -0.00000000000E+00 -0.67998822668E+03  0.67998822668E+03  0.00000000000E+00 0.  1.
         23    2    1    2    0    0  0.87833835405E+02 -0.14050636380E+03 -0.20888878324E+03  0.29447476862E+03  0.12499617866E+03 0.  0.
         23    2    1    2    0    0 -0.87833835405E+02  0.14050636380E+03 -0.40741575299E+03  0.44919714851E+03  0.91288890536E+02 0.  0.
          5    1    3    3  502    0  0.98143465402E+02 -0.47839155256E+02 -0.80498145209E+02  0.13573049016E+03  0.47000000000E+01 0. -1.
         -5    1    3    3    0  502 -0.10309629997E+02 -0.92667208542E+02 -0.12839063803E+03  0.15874427846E+03  0.47000000000E+01 0. -1.
        -11    1    4    4    0    0 -0.73339249427E+02  0.10004639388E+03 -0.37607525306E+03  0.39600571006E+03  0.00000000000E+00 0.  1.
         11    1    4    4    0    0 -0.14494585978E+02  0.40459969917E+02 -0.31340499922E+02  0.53191438444E+02  0.00000000000E+00 0. -1.
<mgrwt>
<rscale>  0 0.20280451E+03</rscale>
<asrwt>0</asrwt>
<pdfrwt beam="2">  1        2 0.10461356E+00 0.20755931E+03</pdfrwt>
<pdfrwt beam="1">  1       -2 0.97974922E-02 0.20755931E+03</pdfrwt>
<totfact> 0.29524933E+03</totfact>
</mgrwt>
</event>
<event>
 8    1  0.1020295E-005  0.1558489E+03  0.7546771E-02  0.1204447E+00
         -1   -1    0    0    0  501 -0.00000000000E+00  0.00000000000E+00  0.19829565893E+02  0.19829565893E+02  0.00000000000E+00 0.  1.
          1   -1    0    0  501    0  0.00000000000E+00 -0.00000000000E+00 -0.98202906413E+03  0.98202906413E+03  0.00000000000E+00 0. -1.
         23    2    1    2    0    0 -0.88836436648E+02  0.27798501753E+02 -0.50772549909E+03  0.53110645126E+03  0.12499684385E+03 0.  0.
         23    2    1    2    0    0  0.88836436648E+02 -0.27798501753E+02 -0.45447399915E+03  0.47075217876E+03  0.79977051273E+02 0.  0.
          5    1    3    3  502    0 -0.55070174508E+02 -0.41975419659E+02 -0.32896819251E+03  0.33620949073E+03  0.47000000000E+01 0. -1.
         -5    1    3    3    0  502 -0.33766262140E+02  0.69773921412E+02 -0.17875730658E+03  0.19489696053E+03  0.47000000000E+01 0. -1.
        -11    1    4    4    0    0  0.33561706509E+02  0.26571100876E+02 -0.20846505035E+03  0.21281468174E+03  0.00000000000E+00 0. -1.
         11    1    4    4    0    0  0.55274730138E+02 -0.54369602629E+02 -0.24600894880E+03  0.25793749703E+03  0.00000000000E+00 0.  1.
<mgrwt>
<rscale>  0 0.14681131E+03</rscale>
<asrwt>0</asrwt>
<pdfrwt beam="2">  1        1 0.15108139E+00 0.15584890E+03</pdfrwt>
<pdfrwt beam="1">  1       -1 0.30507026E-02 0.15584890E+03</pdfrwt>
<totfact> 0.59420800E+03</totfact>
</mgrwt>
</event>
<event>
 8    1  0.1020295E-005  0.1362979E+03  0.7546771E-02  0.1230698E+00
          2   -1    0    0  501    0  0.00000000000E+00  0.00000000000E+00  0.26289272217E+03  0.26289272217E+03  0.00000000000E+00 0. -1.
         -2   -1    0    0    0  501 -0.00000000000E+00 -0.00000000000E+00 -0.60241983879E+02  0.60241983879E+02  0.00000000000E+00 0.  1.
         23    2    1    2    0    0 -0.30672631052E+02 -0.44842438649E+02  0.68690319699E+02  0.15262853339E+03  0.12500181832E+03 0.  0.
         23    2    1    2    0    0  0.30672631052E+02  0.44842438649E+02  0.13396041859E+03  0.17050617266E+03  0.90417401901E+02 0.  0.
          5    1    3    3  502    0 -0.23401639908E+02 -0.88508014844E+02  0.43312679163E+02  0.10138729515E+03  0.47000000000E+01 0. -1.
         -5    1    3    3    0  502 -0.72709911442E+01  0.43665576195E+02  0.25377640536E+02  0.51241238235E+02  0.47000000000E+01 0. -1.
        -11    1    4    4    0    0  0.32827099650E+02 -0.76762411739E+01  0.89285119999E+01  0.34874940524E+02  0.00000000000E+00 0.  1.
         11    1    4    4    0    0 -0.21544685975E+01  0.52518679823E+02  0.12503190659E+03  0.13563123213E+03  0.00000000000E+00 0. -1.
<mgrwt>
<rscale>  0 0.12783915E+03</rscale>
<asrwt>0</asrwt>
<pdfrwt beam="1">  1        2 0.40445034E-01 0.13629787E+03</pdfrwt>
<pdfrwt beam="2">  1       -2 0.92679977E-02 0.13629787E+03</pdfrwt>
<totfact> 0.89601473E+03</totfact>
</mgrwt>
</event>
<event>
 8    1  0.1020295E-005  0.1872013E+03  0.7546771E-02  0.1165874E+00
          1   -1    0    0  501    0  0.00000000000E+00  0.00000000000E+00  0.42483490850E+03  0.42483490850E+03  0.00000000000E+00 0. -1.
         -1   -1    0    0    0  501 -0.00000000000E+00 -0.00000000000E+00 -0.92441033127E+02  0.92441033127E+02  0.00000000000E+00 0.  1.
         23    2    1    2    0    0  0.46581926383E+02  0.13133604929E+03  0.58118201028E+02  0.19601540403E+03  0.12500111846E+03 0.  0.
         23    2    1    2    0    0 -0.46581926383E+02 -0.13133604929E+03  0.27427567435E+03  0.32126053760E+03  0.92531906765E+02 0.  0.
          5    1    3    3  502    0  0.25394649203E+02  0.53477149506E+02  0.91076004823E+02  0.10872728444E+03  0.47000000000E+01 0. -1.
         -5    1    3    3    0  502  0.21187277179E+02  0.77858899789E+02 -0.32957803795E+02  0.87288119590E+02  0.47000000000E+01 0. -1.
        -11    1    4    4    0    0  0.11517445878E+02 -0.12494657066E+02  0.27111592545E+00  0.16995338143E+02  0.00000000000E+00 0.  1.
         11    1    4    4    0    0 -0.58099372260E+02 -0.11884139223E+03  0.27400455842E+03  0.30426519945E+03  0.00000000000E+00 0. -1.
<mgrwt>
<rscale>  0 0.18200774E+03</rscale>
<asrwt>0</asrwt>
<pdfrwt beam="1">  1        1 0.65359216E-01 0.18720126E+03</pdfrwt>
<pdfrwt beam="2">  1       -1 0.14221698E-01 0.18720126E+03</pdfrwt>
<totfact> 0.19410749E+03</totfact>
</mgrwt>
</event>
<event>
 8    1  0.1020295E-005  0.1556334E+03  0.7546771E-02  0.1201743E+00
          2   -1    0    0  501    0  0.00000000000E+00  0.00000000000E+00  0.98822191226E+03  0.98822191226E+03  0.00000000000E+00 0. -1.
         -2   -1    0    0    0  501 -0.00000000000E+00 -0.00000000000E+00 -0.20968986333E+02  0.20968986333E+02  0.00000000000E+00 0.  1.
         23    2    1    2    0    0 -0.65155166197E+02  0.65957514355E+02  0.47209021872E+03  0.49708243196E+03  0.12500472058E+03 0.  0.
         23    2    1    2    0    0  0.65155166197E+02 -0.65957514355E+02  0.49516270720E+03  0.51210846663E+03  0.92050994611E+02 0.  0.
          5    1    3    3  502    0  0.10365853298E+02  0.40540796556E+02  0.41377045827E+02  0.59035218483E+02  0.47000000000E+01 0.  1.
         -5    1    3    3    0  502 -0.75521019495E+02  0.25416717799E+02  0.43071317290E+03  0.43804721348E+03  0.47000000000E+01 0.  1.
        -11    1    4    4    0    0 -0.83793913429E+01  0.17455348327E+02  0.80338506547E+02  0.82638846911E+02  0.00000000000E+00 0.  1.
         11    1    4    4    0    0  0.73534557540E+02 -0.83412862681E+02  0.41482420065E+03  0.42946961972E+03  0.00000000000E+00 0. -1.
<mgrwt>
<rscale>  0 0.14897148E+03</rscale>
<asrwt>0</asrwt>
<pdfrwt beam="1">  1        2 0.15203410E+00 0.15563345E+03</pdfrwt>
<pdfrwt beam="2">  1       -2 0.32259987E-02 0.15563345E+03</pdfrwt>
<totfact> 0.98562707E+03</totfact>
</mgrwt>
</event>
<event>
 8    1  0.1020295E-005  0.1796249E+03  0.7546771E-02  0.1173836E+00
          2   -1    0    0  501    0  0.00000000000E+00  0.00000000000E+00  0.28629101550E+03  0.28629101550E+03  0.00000000000E+00 0. -1.
         -2   -1    0    0    0  501 -0.00000000000E+00 -0.00000000000E+00 -0.19162445936E+03  0.19162445936E+03  0.00000000000E+00 0.  1.
         23    2    1    2    0    0  0.87556478233E+02  0.94727887272E+02 -0.11664629226E+03  0.21417625990E+03  0.12500241317E+03 0.  0.
         23    2    1    2    0    0 -0.87556478233E+02 -0.94727887272E+02  0.21131284841E+03  0.26373921496E+03  0.90916137716E+02 0.  0.
          5    1    3    3  502    0 -0.22397044754E+02 -0.68778284641E+01 -0.38287945146E+02  0.45133013212E+02  0.47000000000E+01 0. -1.
         -5    1    3    3    0  502  0.10995352299E+03  0.10160571574E+03 -0.78358347117E+02  0.16904324669E+03  0.47000000000E+01 0. -1.
        -11    1    4    4    0    0 -0.44640134438E+02 -0.21685368495E+02  0.15311681702E+03  0.16095886575E+03  0.00000000000E+00 0. -1.
         11    1    4    4    0    0 -0.42916343795E+02 -0.73042518777E+02  0.58196031389E+02  0.10278034921E+03  0.00000000000E+00 0.  1.
<mgrwt>
<rscale>  0 0.17390470E+03</rscale>
<asrwt>0</asrwt>
<pdfrwt beam="1">  1        2 0.44044772E-01 0.17962492E+03</pdfrwt>
<pdfrwt beam="2">  1       -2 0.29480686E-01 0.17962492E+03</pdfrwt>
<totfact> 0.12058234E+03</totfact>
</mgrwt>
</event>
<event>
 8    1  0.1020295E-005  0.1286628E+03  0.7546771E-02  0.1244839E+00
          2   -1    0    0  501    0  0.00000000000E+00  0.00000000000E+00  0.37757585802E+03  0.37757585802E+03  0.00000000000E+00 0. -1.
         -2   -1    0    0    0  501 -0.00000000000E+00 -0.00000000000E+00 -0.67129757515E+02  0.67129757515E+02  0.00000000000E+00 0.  1.
         23    2    1    2    0    0 -0.13359603737E+02  0.20471206825E+02  0.90361308751E+01  0.12897971464E+03  0.12631930100E+03 0.  0.
         23    2    1    2    0    0  0.13359603737E+02 -0.20471206825E+02  0.30140996963E+03  0.31572590090E+03  0.90759712347E+02 0.  0.
          5    1    3    3  502    0 -0.60880032163E+02  0.32283351965E+02  0.30256246087E+02  0.75406389368E+02  0.47000000000E+01 0. -1.
         -5    1    3    3    0  502  0.47520428426E+02 -0.11812145139E+02 -0.21220115212E+02  0.53573325267E+02  0.47000000000E+01 0.  1.
        -11    1    4    4    0    0 -0.12954405868E+02  0.27464747133E+02  0.18034703819E+03  0.18288571063E+03  0.00000000000E+00 0.  1.
         11    1    4    4    0    0  0.26314009606E+02 -0.47935953959E+02  0.12106293144E+03  0.13284019027E+03  0.00000000000E+00 0. -1.
<mgrwt>
<rscale>  0 0.11895009E+03</rscale>
<asrwt>0</asrwt>
<pdfrwt beam="1">  1        2 0.58088593E-01 0.12866280E+03</pdfrwt>
<pdfrwt beam="2">  1       -2 0.10327655E-01 0.12866280E+03</pdfrwt>
<totfact> 0.51322244E+03</totfact>
</mgrwt>
</event>
<event>
 7    1  0.1020295E-005  0.1659840E+03  0.7546771E-02  0.1208485E+00
         -2   -1    0    0    0  501 -0.00000000000E+00  0.00000000000E+00  0.34467007870E+02  0.34467007870E+02  0.00000000000E+00 0.  1.
          2   -1    0    0  501    0  0.00000000000E+00 -0.00000000000E+00 -0.50087791238E+03  0.50087791238E+03  0.00000000000E+00 0. -1.
         23    2    1    2    0    0 -0.78856236901E+01  0.51984029590E+01 -0.21219427960E+03  0.23173864694E+03  0.92667047742E+02 0.  0.
          5    1    1    2  502    0  0.18121300848E+02 -0.53813476197E+02 -0.24663513595E+03  0.25313089904E+03  0.47000000000E+01 0. -1.
         -5    1    1    2    0  502 -0.10235677158E+02  0.48615073238E+02 -0.75814889644E+01  0.50475374270E+02  0.47000000000E+01 0.  1.
        -11    1    3    3    0    0  0.20189681584E+02  0.30519846611E+02 -0.17470176782E+03  0.17849311460E+03  0.00000000000E+00 0. -1.
         11    1    3    3    0    0 -0.28075305274E+02 -0.25321443652E+02 -0.37492511774E+02  0.53245532338E+02  0.00000000000E+00 0.  1.
<mgrwt>
<rscale>  0 0.14366202E+03</rscale>
<asrwt>0</asrwt>
<pdfrwt beam="2">  1        2 0.77058140E-01 0.16598397E+03</pdfrwt>
<pdfrwt beam="1">  1       -2 0.53026166E-02 0.16598397E+03</pdfrwt>
<totfact> 0.10722941E+04</totfact>
</mgrwt>
</event>
<event>
 8    1  0.1020295E-005  0.1307627E+03  0.7546771E-02  0.1240562E+00
          1   -1    0    0  501    0  0.00000000000E+00  0.00000000000E+00  0.12245669739E+03  0.12245669739E+03  0.00000000000E+00 0. -1.
         -1   -1    0    0    0  501 -0.00000000000E+00 -0.00000000000E+00 -0.11252743046E+03  0.11252743046E+03  0.00000000000E+00 0.  1.
         23    2    1    2    0    0  0.34942527125E+02 -0.13529854624E+02 -0.21296516098E+02  0.13248552420E+03  0.12527903000E+03 0.  0.
         23    2    1    2    0    0 -0.34942527125E+02  0.13529854624E+02  0.31225783032E+02  0.10249860364E+03  0.90149193314E+02 0.  0.
          5    1    3    3  502    0  0.44264583419E+02  0.72602907223E+01  0.44097081194E+02  0.63076998474E+02  0.47000000000E+01 0. -1.
         -5    1    3    3    0  502 -0.93220562943E+01 -0.20790145347E+02 -0.65393597292E+02  0.69408525729E+02  0.47000000000E+01 0. -1.
        -11    1    4    4    0    0  0.16036124369E+01  0.47593044810E+02  0.16831166541E+02  0.50507005992E+02  0.00000000000E+00 0.  1.
         11    1    4    4    0    0 -0.36546139562E+02 -0.34063190186E+02  0.14394616490E+02  0.51991597652E+02  0.00000000000E+00 0. -1.
<mgrwt>
<rscale>  0 0.12154990E+03</rscale>
<asrwt>0</asrwt>
<pdfrwt beam="1">  1        1 0.18839492E-01 0.13076266E+03</pdfrwt>
<pdfrwt beam="2">  1       -1 0.17311912E-01 0.13076266E+03</pdfrwt>
<totfact> 0.66645731E+03</totfact>
</mgrwt>
</event>
<event>
 8    1  0.1020295E-005  0.1360941E+03  0.7546771E-02  0.1227773E+00
          1   -1    0    0  501    0  0.00000000000E+00  0.00000000000E+00  0.30589287305E+03  0.30589287305E+03  0.00000000000E+00 0. -1.
         -1   -1    0    0    0  501 -0.00000000000E+00 -0.00000000000E+00 -0.17850793948E+03  0.17850793948E+03  0.00000000000E+00 0.  1.
         23    2    1    2    0    0  0.65240117345E+02  0.30097754370E+01 -0.13941450986E+03  0.19482812538E+03  0.11939958634E+03 0.  0.
         23    2    1    2    0    0 -0.65240117345E+02 -0.30097754370E+01  0.26679944343E+03  0.28957268715E+03  0.91679149567E+02 0.  0.
          5    1    3    3  502    0  0.62352992004E+02 -0.48884634210E+02 -0.58726901697E+02  0.98734705431E+02  0.47000000000E+01 0. -1.
         -5    1    3    3    0  502  0.28871253408E+01  0.51894409647E+02 -0.80687608168E+02  0.96093419947E+02  0.47000000000E+01 0.  1.
        -11    1    4    4    0    0 -0.27801833391E+02  0.31089761228E+02  0.42190198824E+02  0.59325610573E+02  0.00000000000E+00 0.  1.
         11    1    4    4    0    0 -0.37438283954E+02 -0.34099536665E+02  0.22460924461E+03  0.23024707657E+03  0.00000000000E+00 0. -1.
<mgrwt>
<rscale>  0 0.12978609E+03</rscale>
<asrwt>0</asrwt>
<pdfrwt beam="1">  1        1 0.47060442E-01 0.13609406E+03</pdfrwt>
<pdfrwt beam="2">  1       -1 0.27462760E-01 0.13609406E+03</pdfrwt>
<totfact> 0.10087529E+03</totfact>
</mgrwt>
</event>
<event>
 8    1  0.1020295E-005  0.1356595E+03  0.7546771E-02  0.1230700E+00
          2   -1    0    0  501    0  0.00000000000E+00  0.00000000000E+00  0.32945668247E+03  0.32945668247E+03  0.00000000000E+00 0. -1.
         -2   -1    0    0    0  501 -0.00000000000E+00 -0.00000000000E+00 -0.45863288399E+02  0.45863288399E+02  0.00000000000E+00 0.  1.
         23    2    1    2    0    0  0.54421358108E+02  0.14664592325E+02  0.12810321057E+03  0.18658495172E+03  0.12339682801E+03 0.  0.
         23    2    1    2    0    0 -0.54421358108E+02 -0.14664592325E+02  0.15549018349E+03  0.18873501915E+03  0.90922911318E+02 0.  0.
          5    1    3    3  502    0  0.52661279482E+02 -0.47659426998E+02  0.83819820473E+02  0.10996582943E+03  0.47000000000E+01 0. -1.
         -5    1    3    3    0  502  0.17600786264E+01  0.62324019324E+02  0.44283390101E+02  0.76619122288E+02  0.47000000000E+01 0.  1.
        -11    1    4    4    0    0  0.23425821858E+02 -0.14810351734E+02  0.55297131197E+02  0.61853765987E+02  0.00000000000E+00 0. -1.
         11    1    4    4    0    0 -0.77847179966E+02  0.14575940866E+00  0.10019305230E+03  0.12688125316E+03  0.00000000000E+00 0.  1.
<mgrwt>
<rscale>  0 0.12783760E+03</rscale>
<asrwt>0</asrwt>
<pdfrwt beam="1">  1        2 0.50685642E-01 0.13565954E+03</pdfrwt>
<pdfrwt beam="2">  1       -2 0.70558907E-02 0.13565954E+03</pdfrwt>
<totfact> 0.10748345E+04</totfact>
</mgrwt>
</event>
<event>
 8    1  0.1020295E-005  0.2478863E+03  0.7546771E-02  0.1117228E+00
          1   -1    0    0  501    0  0.00000000000E+00  0.00000000000E+00  0.76389550183E+02  0.76389550183E+02  0.00000000000E+00 0. -1.
         -1   -1    0    0    0  501 -0.00000000000E+00 -0.00000000000E+00 -0.76178407239E+03  0.76178407239E+03  0.00000000000E+00 0.  1.
         23    2    1    2    0    0  0.19427503887E+03 -0.89884911928E+02 -0.39452202672E+03  0.46593483335E+03  0.12500220493E+03 0.  0.
         23    2    1    2    0    0 -0.19427503887E+03  0.89884911928E+02 -0.29087249548E+03  0.37223878923E+03  0.90182145985E+02 0.  0.
          5    1    3    3  502    0  0.12133183871E+03 -0.11705218176E+03 -0.24729983099E+03  0.29933580599E+03  0.47000000000E+01 0. -1.
         -5    1    3    3    0  502  0.72943200165E+02  0.27167269836E+02 -0.14722219573E+03  0.16659902735E+03  0.47000000000E+01 0. -1.
        -11    1    4    4    0    0 -0.13637948258E+03  0.91150255343E+02 -0.25776575007E+03  0.30553381847E+03  0.00000000000E+00 0.  1.
         11    1    4    4    0    0 -0.57895556286E+02 -0.12653434151E+01 -0.33106745413E+02  0.66704970755E+02  0.00000000000E+00 0. -1.
<mgrwt>
<rscale>  0 0.24388962E+03</rscale>
<asrwt>0</asrwt>
<pdfrwt beam="1">  1        1 0.11752238E-01 0.24788634E+03</pdfrwt>
<pdfrwt beam="2">  1       -1 0.11719755E+00 0.24788634E+03</pdfrwt>
<totfact> 0.36180980E+02</totfact>
</mgrwt>
</event>
<event>
 8    1  0.1020295E-005  0.1472669E+03  0.7546771E-02  0.1213780E+00
         -1   -1    0    0    0  501 -0.00000000000E+00  0.00000000000E+00  0.16562274837E+03  0.16562274837E+03  0.00000000000E+00 0.  1.
          1   -1    0    0  501    0  0.00000000000E+00 -0.00000000000E+00 -0.11994004546E+03  0.11994004546E+03  0.00000000000E+00 0. -1.
         23    2    1    2    0    0 -0.16554726744E+02  0.76098792807E+02  0.71431116154E+02  0.16367635460E+03  0.12498983741E+03 0.  0.
         23    2    1    2    0    0  0.16554726744E+02 -0.76098792807E+02 -0.25748413246E+02  0.12188643923E+03  0.90156741509E+02 0.  0.
          5    1    3    3  502    0 -0.98702399593E+01  0.95111458199E+02  0.93220796977E+02  0.13362566410E+03  0.47000000000E+01 0.  1.
         -5    1    3    3    0  502 -0.66844867843E+01 -0.19012665392E+02 -0.21789680823E+02  0.30050690496E+02  0.47000000000E+01 0.  1.
        -11    1    4    4    0    0  0.38658376492E+02 -0.15921445060E+02 -0.38139691610E+02  0.56591506093E+02  0.00000000000E+00 0. -1.
         11    1    4    4    0    0 -0.22103649748E+02 -0.60177347747E+02  0.12391278364E+02  0.65294933138E+02  0.00000000000E+00 0.  1.
<mgrwt>
<rscale>  0 0.13966559E+03</rscale>
<asrwt>0</asrwt>
<pdfrwt beam="2">  1        1 0.18452315E-01 0.14726692E+03</pdfrwt>
<pdfrwt beam="1">  1       -1 0.25480423E-01 0.14726692E+03</pdfrwt>
<totfact> 0.36932761E+03</totfact>
</mgrwt>
</event>
<event>
 8    1  0.1020295E-005  0.1306469E+03  0.7546771E-02  0.1240355E+00
          1   -1    0    0  501    0  0.00000000000E+00  0.00000000000E+00  0.55949749370E+03  0.55949749370E+03  0.00000000000E+00 0.  1.
         -1   -1    0    0    0  501 -0.00000000000E+00 -0.00000000000E+00 -0.23517478027E+02  0.23517478027E+02  0.00000000000E+00 0. -1.
         23    2    1    2    0    0 -0.61114631567E+00 -0.37996058076E+02  0.28718960424E+03  0.31550989082E+03  0.12499819397E+03 0.  0.
         23    2    1    2    0    0  0.61114631567E+00  0.37996058076E+02  0.24879041143E+03  0.26750508090E+03  0.90654429342E+02 0.  0.
          5    1    3    3  502    0  0.40066479122E+02  0.30441507210E+02  0.10022361987E+03  0.11224469738E+03  0.47000000000E+01 0.  1.
         -5    1    3    3    0  502 -0.40677625438E+02 -0.68437565286E+02  0.18696598437E+03  0.20326519344E+03  0.47000000000E+01 0.  1.
        -11    1    4    4    0    0 -0.33988021236E+02 -0.83617699244E+01  0.54374559754E+02  0.64666046208E+02  0.00000000000E+00 0. -1.
         11    1    4    4    0    0  0.34599167551E+02  0.46357828000E+02  0.19441585168E+03  0.20283903469E+03  0.00000000000E+00 0.  1.
<mgrwt>
<rscale>  0 0.12167728E+03</rscale>
<asrwt>0</asrwt>
<pdfrwt beam="1">  1        1 0.86076528E-01 0.13064694E+03</pdfrwt>
<pdfrwt beam="2">  1       -1 0.36180740E-02 0.13064694E+03</pdfrwt>
<totfact> 0.10524157E+04</totfact>
</mgrwt>
</event>
<event>
 8    1  0.1020295E-005  0.1257798E+03  0.7546771E-02  0.1250113E+00
          2   -1    0    0  501    0  0.00000000000E+00  0.00000000000E+00  0.12382488284E+03  0.12382488284E+03  0.00000000000E+00 0. -1.
         -2   -1    0    0    0  501 -0.00000000000E+00 -0.00000000000E+00 -0.11436355251E+03  0.11436355251E+03  0.00000000000E+00 0.  1.
         23    2    1    2    0    0  0.80447122379E+00 -0.14067161297E+02 -0.43783585234E+02  0.13318240281E+03  0.12498807096E+03 0.  0.
         23    2    1    2    0    0 -0.80447122379E+00  0.14067161297E+02  0.53244915564E+02  0.10500603253E+03  0.89401977791E+02 0.  0.
          5    1    3    3  502    0 -0.34239801703E+02 -0.21051715738E+02 -0.75182765003E+02  0.85381947212E+02  0.47000000000E+01 0. -1.
         -5    1    3    3    0  502  0.35044272927E+02  0.69845544408E+01  0.31399179768E+02  0.47800455603E+02  0.47000000000E+01 0. -1.
        -11    1    4    4    0    0 -0.68001471387E+01  0.38273781834E+02 -0.72762113951E+01  0.39548294897E+02  0.00000000000E+00 0.  1.
         11    1    4    4    0    0  0.59956759149E+01 -0.24206620537E+02  0.60521126959E+02  0.65457737632E+02  0.00000000000E+00 0. -1.
<mgrwt>
<rscale>  0 0.11584488E+03</rscale>
<asrwt>0</asrwt>
<pdfrwt beam="1">  1        2 0.19049982E-01 0.12577977E+03</pdfrwt>
<pdfrwt beam="2">  1       -2 0.17594393E-01 0.12577977E+03</pdfrwt>
<totfact> 0.72383832E+03</totfact>
</mgrwt>
</event>
<event>
 8    1  0.1020295E-005  0.2236746E+03  0.7546771E-02  0.1134372E+00
          3   -1    0    0  501    0  0.00000000000E+00  0.00000000000E+00  0.20438300942E+03  0.20438300942E+03  0.00000000000E+00 0. -1.
         -3   -1    0    0    0  501 -0.00000000000E+00 -0.00000000000E+00 -0.22939726939E+03  0.22939726939E+03  0.00000000000E+00 0.  1.
         23    2    1    2    0    0 -0.12761974512E+03  0.13460430232E+03 -0.36374658689E+02  0.22661300973E+03  0.12500089134E+03 0.  0.
         23    2    1    2    0    0  0.12761974512E+03 -0.13460430232E+03  0.11360398722E+02  0.20716726908E+03  0.91564737588E+02 0.  0.
          5    1    3    3  502    0 -0.38196230724E+02 -0.20323737452E+02  0.21254776570E+01  0.43573088034E+02  0.47000000000E+01 0.  1.
         -5    1    3    3    0  502 -0.89423514397E+02  0.15492803978E+03 -0.38500136346E+02  0.18303992170E+03  0.47000000000E+01 0.  1.
        -11    1    4    4    0    0  0.12164503808E+03 -0.78413240751E+02 -0.13653798011E+02  0.14537048467E+03  0.00000000000E+00 0.  1.
         11    1    4    4    0    0  0.59747070463E+01 -0.56191061573E+02  0.25014196733E+02  0.61796784408E+02  0.00000000000E+00 0. -1.
<mgrwt>
<rscale>  0 0.21934581E+03</rscale>
<asrwt>0</asrwt>
<pdfrwt beam="1">  1        3 0.31443540E-01 0.22367463E+03</pdfrwt>
<pdfrwt beam="2">  1       -3 0.35291888E-01 0.22367463E+03</pdfrwt>
<totfact> 0.19190056E+02</totfact>
</mgrwt>
</event>
<event>
 8    1  0.1020295E-005  0.1726655E+03  0.7546771E-02  0.1181382E+00
         -1   -1    0    0    0  501 -0.00000000000E+00  0.00000000000E+00  0.63927548470E+02  0.63927548470E+02  0.00000000000E+00 0.  1.
          1   -1    0    0  501    0  0.00000000000E+00 -0.00000000000E+00 -0.42640078195E+03  0.42640078195E+03  0.00000000000E+00 0. -1.
         23    2    1    2    0    0  0.93605779947E+02  0.73661703329E+02 -0.14099611161E+03  0.22291992780E+03  0.12500120858E+03 0.  0.
         23    2    1    2    0    0 -0.93605779947E+02 -0.73661703329E+02 -0.22147712187E+03  0.26740840261E+03  0.90923317693E+02 0.  0.
          5    1    3    3  502    0  0.10381888054E+03  0.20632098626E+02 -0.50366056601E+02  0.11731527227E+03  0.47000000000E+01 0.  1.
         -5    1    3    3    0  502 -0.10213100598E+02  0.53029604703E+02 -0.90630055005E+02  0.10560465553E+03  0.47000000000E+01 0.  1.
        -11    1    4    4    0    0 -0.62420389663E+02 -0.50007523150E+02 -0.21277555025E+03  0.22731144318E+03  0.00000000000E+00 0. -1.
         11    1    4    4    0    0 -0.31185390284E+02 -0.23654180179E+02 -0.87015716202E+01  0.40096959433E+02  0.00000000000E+00 0.  1.
<mgrwt>
<rscale>  0 0.16665515E+03</rscale>
<asrwt>0</asrwt>
<pdfrwt beam="2">  1        1 0.65600118E-01 0.17266555E+03</pdfrwt>
<pdfrwt beam="1">  1       -1 0.98350078E-02 0.17266555E+03</pdfrwt>
<totfact> 0.34165051E+03</totfact>
</mgrwt>
</event>
<event>
 8    1  0.1020295E-005  0.2687594E+03  0.7546771E-02  0.1103661E+00
          4   -1    0    0  501    0  0.00000000000E+00  0.00000000000E+00  0.92696258202E+02  0.92696258202E+02  0.00000000000E+00 0. -1.
         -4   -1    0    0    0  501 -0.00000000000E+00 -0.00000000000E+00 -0.96905501086E+03  0.96905501086E+03  0.00000000000E+00 0.  1.
         23    2    1    2    0    0  0.22897876915E+03 -0.64617493697E+02 -0.69969164559E+03  0.74953318866E+03  0.12499961917E+03 0.  0.
         23    2    1    2    0    0 -0.22897876915E+03  0.64617493697E+02 -0.17666710707E+03  0.31221808040E+03  0.98296316288E+02 0.  0.
          5    1    3    3  502    0  0.20719545966E+03 -0.75629079940E+02 -0.47804082841E+03  0.52649296279E+03  0.47000000000E+01 0. -1.
         -5    1    3    3    0  502  0.21783309483E+02  0.11011586243E+02 -0.22165081718E+03  0.22304022588E+03  0.47000000000E+01 0. -1.
        -11    1    4    4    0    0 -0.61838761731E+02  0.40526170133E+01 -0.10210520360E+03  0.11944006346E+03  0.00000000000E+00 0.  1.
         11    1    4    4    0    0 -0.16714000741E+03  0.60564876684E+02 -0.74561903472E+02  0.19277801694E+03  0.00000000000E+00 0. -1.
<mgrwt>
<rscale>  0 0.26588045E+03</rscale>
<asrwt>0</asrwt>
<pdfrwt beam="1">  1        4 0.14260963E-01 0.26875938E+03</pdfrwt>
<pdfrwt beam="2">  1       -4 0.14908538E+00 0.26875938E+03</pdfrwt>
<totfact> 0.24231668E+01</totfact>
</mgrwt>
</event>
<event>
 8    1  0.1020295E-005  0.1273865E+03  0.7546771E-02  0.1246103E+00
          2   -1    0    0  501    0  0.00000000000E+00  0.00000000000E+00  0.10437349645E+03  0.10437349645E+03  0.00000000000E+00 0. -1.
         -2   -1    0    0    0  501 -0.00000000000E+00 -0.00000000000E+00 -0.12809301373E+03  0.12809301373E+03  0.00000000000E+00 0.  1.
         23    2    1    2    0    0 -0.20648131466E+02 -0.13273007296E+02 -0.46035681467E+02  0.13544961173E+03  0.12499918118E+03 0.  0.
         23    2    1    2    0    0  0.20648131466E+02  0.13273007296E+02  0.22316164185E+02  0.97016898444E+02  0.91168795890E+02 0.  0.
          5    1    3    3  502    0 -0.99931792503E+01  0.56010512092E+02 -0.22374344563E+02  0.61316738261E+02  0.47000000000E+01 0.  1.
         -5    1    3    3    0  502 -0.10654952216E+02 -0.69283519388E+02 -0.23661336904E+02  0.74132873474E+02  0.47000000000E+01 0.  1.
        -11    1    4    4    0    0 -0.11877743877E+02 -0.34542930284E+02  0.69930192443E+01  0.37191358544E+02  0.00000000000E+00 0.  1.
         11    1    4    4    0    0  0.32525875343E+02  0.47815937580E+02  0.15323144941E+02  0.59825539900E+02  0.00000000000E+00 0. -1.
<mgrwt>
<rscale>  0 0.11819611E+03</rscale>
<asrwt>0</asrwt>
<pdfrwt beam="1">  1        2 0.16057461E-01 0.12738647E+03</pdfrwt>
<pdfrwt beam="2">  1       -2 0.19706618E-01 0.12738647E+03</pdfrwt>
<totfact> 0.72909445E+03</totfact>
</mgrwt>
</event>
<event>
 8    1  0.1020295E-005  0.1467165E+03  0.7546771E-02  0.1214018E+00
         -2   -1    0    0    0  501 -0.00000000000E+00  0.00000000000E+00  0.53609413168E+02  0.53609413168E+02  0.00000000000E+00 0.  1.
          2   -1    0    0  501    0  0.00000000000E+00 -0.00000000000E+00 -0.33188178354E+03  0.33188178354E+03  0.00000000000E+00 0. -1.
         23    2    1    2    0    0  0.45953729191E+02 -0.61559884920E+02 -0.14601549018E+03  0.20699336761E+03  0.12499746479E+03 0.  0.
         23    2    1    2    0    0 -0.45953729191E+02  0.61559884920E+02 -0.13225688019E+03  0.17849782910E+03  0.92022975264E+02 0.  0.
          5    1    3    3  502    0  0.12245890871E+02 -0.55417617083E+01 -0.14049509283E+03  0.14121485076E+03  0.47000000000E+01 0. -1.
         -5    1    3    3    0  502  0.33707838319E+02 -0.56018123212E+02 -0.55203973523E+01  0.65778516852E+02  0.47000000000E+01 0. -1.
        -11    1    4    4    0    0 -0.99396513435E+00  0.12209671335E+02  0.13469836314E+02  0.18207156042E+02  0.00000000000E+00 0.  1.
         11    1    4    4    0    0 -0.44959764056E+02  0.49350213585E+02 -0.14572671651E+03  0.16029067306E+03  0.00000000000E+00 0. -1.
<mgrwt>
<rscale>  0 0.13948894E+03</rscale>
<asrwt>0</asrwt>
<pdfrwt beam="2">  1        2 0.51058735E-01 0.14671650E+03</pdfrwt>
<pdfrwt beam="1">  1       -2 0.82476023E-02 0.14671650E+03</pdfrwt>
<totfact> 0.84322455E+03</totfact>
</mgrwt>
</event>
<event>
 8    1  0.1020295E-005  0.1492677E+03  0.7546771E-02  0.1210742E+00
         -3   -1    0    0    0  501 -0.00000000000E+00  0.00000000000E+00  0.12521448190E+04  0.12521448190E+04  0.00000000000E+00 0.  1.
          3   -1    0    0  501    0  0.00000000000E+00 -0.00000000000E+00 -0.16149817300E+02  0.16149817300E+02  0.00000000000E+00 0. -1.
         23    2    1    2    0    0  0.72799801291E+02  0.36886066919E+02  0.86374553618E+03  0.87654845093E+03  0.12498176890E+03 0.  0.
         23    2    1    2    0    0 -0.72799801291E+02 -0.36886066919E+02  0.37224946556E+03  0.39174618541E+03  0.90746989881E+02 0.  0.
          5    1    3    3  502    0  0.68624181547E+02 -0.28811149777E+02  0.30808812512E+03  0.31698539949E+03  0.47000000000E+01 0. -1.
         -5    1    3    3    0  502  0.41756197443E+01  0.65697216696E+02  0.55565741106E+03  0.55956305145E+03  0.47000000000E+01 0. -1.
        -11    1    4    4    0    0 -0.68946286551E+01  0.28208495361E+02  0.10254184502E+03  0.10657431724E+03  0.00000000000E+00 0.  1.
         11    1    4    4    0    0 -0.65905172636E+02 -0.65094562280E+02  0.26970762054E+03  0.28517186817E+03  0.00000000000E+00 0. -1.
<mgrwt>
<rscale>  0 0.14194035E+03</rscale>
<asrwt>0</asrwt>
<pdfrwt beam="2">  1        3 0.24845883E-02 0.14926766E+03</pdfrwt>
<pdfrwt beam="1">  1       -3 0.19263759E+00 0.14926766E+03</pdfrwt>
<totfact> 0.28718208E+02</totfact>
</mgrwt>
</event>
<event>
 8    1  0.1020295E-005  0.1546379E+03  0.7546771E-02  0.1203770E+00
          1   -1    0    0  501    0  0.00000000000E+00  0.00000000000E+00  0.21811617431E+03  0.21811617431E+03  0.00000000000E+00 0. -1.
         -1   -1    0    0    0  501 -0.00000000000E+00 -0.00000000000E+00 -0.91484888322E+02  0.91484888322E+02  0.00000000000E+00 0.  1.
         23    2    1    2    0    0  0.17174750467E+02 -0.89403209047E+02  0.61155523988E+02  0.16629157397E+03  0.12499993447E+03 0.  0.
         23    2    1    2    0    0 -0.17174750467E+02  0.89403209047E+02  0.65475761999E+02  0.14330948866E+03  0.89233560337E+02 0.  0.
          5    1    3    3  502    0 -0.14368167434E+02 -0.46076950594E+02 -0.32434913020E+02  0.58340750716E+02  0.47000000000E+01 0.  1.
         -5    1    3    3    0  502  0.31542917901E+02 -0.43326258453E+02  0.93590437009E+02  0.10795082325E+03  0.47000000000E+01 0.  1.
        -11    1    4    4    0    0 -0.13126413465E+02  0.45095233597E+02 -0.16711905240E+02  0.49851485438E+02  0.00000000000E+00 0.  1.
         11    1    4    4    0    0 -0.40483370023E+01  0.44307975450E+02  0.82187667239E+02  0.93458003226E+02  0.00000000000E+00 0. -1.
<mgrwt>
<rscale>  0 0.14734842E+03</rscale>
<asrwt>0</asrwt>
<pdfrwt beam="1">  1        1 0.33556334E-01 0.15463793E+03</pdfrwt>
<pdfrwt beam="2">  1       -1 0.14074598E-01 0.15463793E+03</pdfrwt>
<totfact> 0.45147196E+03</totfact>
</mgrwt>
</event>
<event>
 7    1  0.1020295E-005  0.1530726E+03  0.7546771E-02  0.1210385E+00
          1   -1    0    0  501    0  0.00000000000E+00  0.00000000000E+00  0.34161994198E+03  0.34161994198E+03  0.00000000000E+00 0. -1.
         -1   -1    0    0    0  501 -0.00000000000E+00 -0.00000000000E+00 -0.11497426765E+03  0.11497426765E+03  0.00000000000E+00 0.  1.
         23    2    1    2    0    0 -0.56742274339E+02  0.40079685576E+02  0.27365650579E+03  0.29646538293E+03  0.90431041265E+02 0.  0.
          5    1    1    2  502    0  0.46137599452E+02  0.45236314957E+02 -0.69255227096E+01  0.65154087660E+02  0.47000000000E+01 0. -1.
         -5    1    1    2    0  502  0.10604674888E+02 -0.85316000533E+02 -0.40085308748E+02  0.94974739030E+02  0.47000000000E+01 0.  1.
        -11    1    3    3    0    0 -0.81715279831E+02  0.31031610526E+02  0.20560785450E+03  0.22341651157E+03  0.00000000000E+00 0. -1.
         11    1    3    3    0    0  0.24973005491E+02  0.90480750497E+01  0.68048651293E+02  0.73048871368E+02  0.00000000000E+00 0.  1.
<mgrwt>
<rscale>  0 0.14221063E+03</rscale>
<asrwt>0</asrwt>
<pdfrwt beam="1">  1        1 0.52556914E-01 0.15307261E+03</pdfrwt>
<pdfrwt beam="2">  1       -1 0.17688349E-01 0.15307261E+03</pdfrwt>
<totfact> 0.18013284E+03</totfact>
</mgrwt>
</event>
<event>
 8    1  0.1020295E-005  0.1263782E+03  0.7546771E-02  0.1247343E+00
          2   -1    0    0  501    0  0.00000000000E+00  0.00000000000E+00  0.44506734420E+03  0.44506734420E+03  0.00000000000E+00 0. -1.
         -2   -1    0    0    0  501 -0.00000000000E+00 -0.00000000000E+00 -0.27434477650E+02  0.27434477650E+02  0.00000000000E+00 0.  1.
         23    2    1    2    0    0  0.14300390541E+02 -0.11927877472E+02  0.25138486113E+03  0.28136415790E+03  0.12499866205E+03 0.  0.
         23    2    1    2    0    0 -0.14300390541E+02  0.11927877472E+02  0.16624800542E+03  0.19113766395E+03  0.92457730034E+02 0.  0.
          5    1    3    3  502    0  0.47784497653E+02 -0.15428709997E+02  0.32820364048E+02  0.60172000169E+02  0.47000000000E+01 0.  1.
         -5    1    3    3    0  502 -0.33484107113E+02  0.35008325245E+01  0.21856449708E+03  0.22119215773E+03  0.47000000000E+01 0.  1.
        -11    1    4    4    0    0 -0.38052385375E+02 -0.23540534829E+02  0.48976873871E+02  0.66339090941E+02  0.00000000000E+00 0.  1.
         11    1    4    4    0    0  0.23751994835E+02  0.35468412301E+02  0.11727113155E+03  0.12479857301E+03  0.00000000000E+00 0. -1.
<mgrwt>
<rscale>  0 0.11746231E+03</rscale>
<asrwt>0</asrwt>
<pdfrwt beam="1">  1        2 0.68471894E-01 0.12637817E+03</pdfrwt>
<pdfrwt beam="2">  1       -2 0.42206892E-02 0.12637817E+03</pdfrwt>
<totfact> 0.16828171E+04</totfact>
</mgrwt>
</event>
<event>
 8    1  0.1020295E-005  0.1325438E+03  0.7546771E-02  0.1236248E+00
          1   -1    0    0  501    0  0.00000000000E+00  0.00000000000E+00  0.46474898243E+03  0.46474898243E+03  0.00000000000E+00 0. -1.
         -1   -1    0    0    0  501 -0.00000000000E+00 -0.00000000000E+00 -0.34996997913E+02  0.34996997913E+02  0.00000000000E+00 0.  1.
         23    2    1    2    0    0  0.43700568151E+02  0.53366402481E+01  0.14159095488E+03  0.19394810561E+03  0.12501859773E+03 0.  0.
         23    2    1    2    0    0 -0.43700568151E+02 -0.53366402481E+01  0.28816102964E+03  0.30579787474E+03  0.92397737017E+02 0.  0.
          5    1    3    3  502    0 -0.10100333217E+02 -0.31509791398E+01 -0.20138290038E+02  0.23228993226E+02  0.47000000000E+01 0. -1.
         -5    1    3    3    0  502  0.53800901368E+02  0.84876193879E+01  0.16172924492E+03  0.17071911238E+03  0.47000000000E+01 0. -1.
        -11    1    4    4    0    0 -0.62368311797E+02  0.19307961088E+02  0.14041092499E+03  0.15484776891E+03  0.00000000000E+00 0.  1.
         11    1    4    4    0    0  0.18667743646E+02 -0.24644601336E+02  0.14775010465E+03  0.15095010583E+03  0.00000000000E+00 0. -1.
<mgrwt>
<rscale>  0 0.12424869E+03</rscale>
<asrwt>0</asrwt>
<pdfrwt beam="1">  1        1 0.71499839E-01 0.13254384E+03</pdfrwt>
<pdfrwt beam="2">  1       -1 0.53841539E-02 0.13254384E+03</pdfrwt>
<totfact> 0.74808014E+03</totfact>
</mgrwt>
</event>
<event>
 8    1  0.1020295E-005  0.1576489E+03  0.7546771E-02  0.1199508E+00
          1   -1    0    0  501    0  0.00000000000E+00  0.00000000000E+00  0.30978237997E+03  0.30978237997E+03  0.00000000000E+00 0. -1.
         -1   -1    0    0    0  501 -0.00000000000E+00 -0.00000000000E+00 -0.76496127345E+02  0.76496127345E+02  0.00000000000E+00 0.  1.
         23    2    1    2    0    0 -0.43563025429E+02 -0.85607686374E+02  0.60467881508E+02  0.16884766295E+03  0.12500702156E+03 0.  0.
         23    2    1    2    0    0  0.43563025429E+02  0.85607686374E+02  0.17281837111E+03  0.21743084436E+03  0.90463083819E+02 0.  0.
          5    1    3    3  502    0 -0.45810036631E+02 -0.37790905168E+01  0.72503351609E+02  0.85974804308E+02  0.47000000000E+01 0.  1.
         -5    1    3    3    0  502  0.22470112017E+01 -0.81828595858E+02 -0.12035470100E+02  0.82872858644E+02  0.47000000000E+01 0.  1.
        -11    1    4    4    0    0  0.22148405616E+02  0.67991631127E+02  0.17556177238E+03  0.18956621455E+03  0.00000000000E+00 0. -1.
         11    1    4    4    0    0  0.21414619813E+02  0.17616055247E+02 -0.27434012696E+01  0.27864629815E+02  0.00000000000E+00 0.  1.
<mgrwt>
<rscale>  0 0.15078841E+03</rscale>
<asrwt>0</asrwt>
<pdfrwt beam="1">  1        1 0.47658827E-01 0.15764888E+03</pdfrwt>
<pdfrwt beam="2">  1       -1 0.11768635E-01 0.15764888E+03</pdfrwt>
<totfact> 0.38605382E+03</totfact>
</mgrwt>
</event>
<event>
 8    1  0.1678525E-005  0.4397011E+03  0.7546771E-02  0.1031536E+00
         -4   -1    0    0    0  501 -0.00000000000E+00  0.00000000000E+00  0.24935993433E+03  0.24935993433E+03  0.00000000000E+00 0.  1.
          4   -1    0    0  501    0  0.00000000000E+00 -0.00000000000E+00 -0.92886733440E+03  0.92886733440E+03  0.00000000000E+00 0. -1.
         23    2    1    2    0    0  0.41854937288E+03  0.50280956465E+02 -0.91129496742E+02  0.44904530344E+03  0.12500138895E+03 0.  0.
         23    2    1    2    0    0 -0.41854937288E+03 -0.50280956465E+02 -0.58837790333E+03  0.72918196529E+03  0.88351735956E+02 0.  0.
          5    1    3    3  502    0  0.10323627981E+03 -0.10009561026E+02  0.26432404318E+02  0.10713861479E+03  0.47000000000E+01 0. -1.
         -5    1    3    3    0  502  0.31531309307E+03  0.60290517492E+02 -0.11756190106E+03  0.34190668865E+03  0.47000000000E+01 0. -1.
        -11    1    4    4    0    0 -0.27245278753E+03 -0.74272274559E+02 -0.37363798513E+03  0.46835054834E+03  0.00000000000E+00 0.  1.
         11    1    4    4    0    0 -0.14609658536E+03  0.23991318093E+02 -0.21473991820E+03  0.26083141695E+03  0.00000000000E+00 0. -1.
<mgrwt>
<rscale>  0 0.43743788E+03</rscale>
<asrwt>0</asrwt>
<pdfrwt beam="2">  1        4 0.14290266E+00 0.43970115E+03</pdfrwt>
<pdfrwt beam="1">  1       -4 0.38363067E-01 0.43970115E+03</pdfrwt>
<totfact> 0.43781860E+00</totfact>
</mgrwt>
</event>
<event>
 8    1  0.1020295E-005  0.1640632E+03  0.7546771E-02  0.1191254E+00
          1   -1    0    0  501    0  0.00000000000E+00  0.00000000000E+00  0.71012115343E+03  0.71012115343E+03  0.00000000000E+00 0. -1.
         -1   -1    0    0    0  501 -0.00000000000E+00 -0.00000000000E+00 -0.32848665849E+02  0.32848665849E+02  0.00000000000E+00 0.  1.
         23    2    1    2    0    0  0.21951191470E+02 -0.10400426184E+03  0.33288877982E+03  0.37112217401E+03  0.12497194495E+03 0.  0.
         23    2    1    2    0    0 -0.21951191470E+02  0.10400426184E+03  0.34438370776E+03  0.37184764527E+03  0.91497496313E+02 0.  0.
          5    1    3    3  502    0 -0.27817587736E+02  0.16773613308E+02  0.55525205620E+02  0.64500470929E+02  0.47000000000E+01 0.  1.
         -5    1    3    3    0  502  0.49768779206E+02 -0.12077787515E+03  0.27736357420E+03  0.30662170308E+03  0.47000000000E+01 0.  1.
        -11    1    4    4    0    0  0.30337053539E+02  0.11024205449E+02  0.60293016227E+02  0.68389456271E+02  0.00000000000E+00 0.  1.
         11    1    4    4    0    0 -0.52288245009E+02  0.92980056393E+02  0.28409069154E+03  0.30345818900E+03  0.00000000000E+00 0. -1.
<mgrwt>
<rscale>  0 0.15775581E+03</rscale>
<asrwt>0</asrwt>
<pdfrwt beam="1">  1        1 0.10924940E+00 0.16406318E+03</pdfrwt>
<pdfrwt beam="2">  1       -1 0.50536414E-02 0.16406318E+03</pdfrwt>
<totfact> 0.46788598E+03</totfact>
</mgrwt>
</event>
<event>
 8    1  0.1020295E-005  0.1728544E+03  0.7546771E-02  0.1181075E+00
          3   -1    0    0  501    0  0.00000000000E+00  0.00000000000E+00  0.20784594028E+03  0.20784594028E+03  0.00000000000E+00 0. -1.
         -3   -1    0    0    0  501 -0.00000000000E+00 -0.00000000000E+00 -0.12606096301E+03  0.12606096301E+03  0.00000000000E+00 0.  1.
         23    2    1    2    0    0 -0.87987752127E+02  0.80692954032E+02  0.34564114588E+02  0.17627627942E+03  0.12500180525E+03 0.  0.
         23    2    1    2    0    0  0.87987752127E+02 -0.80692954032E+02  0.47220862679E+02  0.15763062387E+03  0.91457128500E+02 0.  0.
          5    1    3    3  502    0 -0.11650619117E+03  0.65432387687E+02  0.46380338834E+02  0.14152143219E+03  0.47000000000E+01 0.  1.
         -5    1    3    3    0  502  0.28518439042E+02  0.15260566345E+02 -0.11816224246E+02  0.34754847230E+02  0.47000000000E+01 0.  1.
        -11    1    4    4    0    0  0.25403292741E+02  0.11370827516E+02 -0.13381740069E+02  0.30881935946E+02  0.00000000000E+00 0.  1.
         11    1    4    4    0    0  0.62584459386E+02 -0.92063781548E+02  0.60602602748E+02  0.12674868792E+03  0.00000000000E+00 0. -1.
<mgrwt>
<rscale>  0 0.16694222E+03</rscale>
<asrwt>0</asrwt>
<pdfrwt beam="1">  1        3 0.31976299E-01 0.17285441E+03</pdfrwt>
<pdfrwt beam="2">  1       -3 0.19393994E-01 0.17285441E+03</pdfrwt>
<totfact> 0.54114325E+02</totfact>
</mgrwt>
</event>
<event>
 8    1  0.1020295E-005  0.1777279E+03  0.7546771E-02  0.1175536E+00
         -1   -1    0    0    0  501 -0.00000000000E+00  0.00000000000E+00  0.93832301743E+02  0.93832301743E+02  0.00000000000E+00 0.  1.
          1   -1    0    0  501    0  0.00000000000E+00 -0.00000000000E+00 -0.38854995927E+03  0.38854995927E+03  0.00000000000E+00 0. -1.
         23    2    1    2    0    0  0.82614416596E+02  0.95591456249E+02 -0.38242523868E+02  0.18179574218E+03  0.12499733160E+03 0.  0.
         23    2    1    2    0    0 -0.82614416596E+02 -0.95591456249E+02 -0.25647513366E+03  0.30058651883E+03  0.92789507912E+02 0.  0.
          5    1    3    3  502    0  0.87712371840E+02  0.98019125412E+02 -0.70086395531E+02  0.14911539813E+03  0.47000000000E+01 0.  1.
         -5    1    3    3    0  502 -0.50979552441E+01 -0.24276691632E+01  0.31843871663E+02  0.32680344057E+02  0.47000000000E+01 0.  1.
        -11    1    4    4    0    0 -0.56002085187E+02 -0.70333020497E+02 -0.24676502465E+03  0.26263271827E+03  0.00000000000E+00 0. -1.
         11    1    4    4    0    0 -0.26612331408E+02 -0.25258435751E+02 -0.97101090105E+01  0.37953800555E+02  0.00000000000E+00 0.  1.
<mgrwt>
<rscale>  0 0.17223580E+03</rscale>
<asrwt>0</asrwt>
<pdfrwt beam="2">  1        1 0.59776916E-01 0.17772789E+03</pdfrwt>
<pdfrwt beam="1">  1       -1 0.14435739E-01 0.17772789E+03</pdfrwt>
<totfact> 0.21217347E+03</totfact>
</mgrwt>
</event>
<event>
 8    1  0.1020295E-005  0.1259717E+03  0.7546771E-02  0.1246430E+00
          4   -1    0    0  501    0  0.00000000000E+00  0.00000000000E+00  0.16438532995E+03  0.16438532995E+03  0.00000000000E+00 0.  1.
         -4   -1    0    0    0  501 -0.00000000000E+00 -0.00000000000E+00 -0.80016212710E+02  0.80016212710E+02  0.00000000000E+00 0. -1.
         23    2    1    2    0    0 -0.15465299658E+02 -0.20792237505E+01  0.18902554509E+02  0.12738204535E+03  0.12500152097E+03 0.  0.
         23    2    1    2    0    0  0.15465299658E+02  0.20792237505E+01  0.65466562735E+02  0.11701949731E+03  0.95729792909E+02 0.  0.
          5    1    3    3  502    0 -0.15466518735E+02 -0.60143566278E+02 -0.87642068166E+01  0.62891677410E+02  0.47000000000E+01 0.  1.
         -5    1    3    3    0  502  0.12190766193E-02  0.58064342527E+02  0.27666761325E+02  0.64490367939E+02  0.47000000000E+01 0.  1.
        -11    1    4    4    0    0  0.30912667152E+02 -0.13565900420E+02  0.82543848462E+02  0.89180230789E+02  0.00000000000E+00 0.  1.
         11    1    4    4    0    0 -0.15447367494E+02  0.15645124170E+02 -0.17077285727E+02  0.27839266525E+02  0.00000000000E+00 0. -1.
<mgrwt>
<rscale>  0 0.11800223E+03</rscale>
<asrwt>0</asrwt>
<pdfrwt beam="1">  1        4 0.25290051E-01 0.12597174E+03</pdfrwt>
<pdfrwt beam="2">  1       -4 0.12310187E-01 0.12597174E+03</pdfrwt>
<totfact> 0.12643198E+03</totfact>
</mgrwt>
</event>
<event>
 8    1  0.1020295E-005  0.1301796E+03  0.7546771E-02  0.1240906E+00
         -2   -1    0    0    0  501 -0.00000000000E+00  0.00000000000E+00  0.34067204023E+02  0.34067204023E+02  0.00000000000E+00 0.  1.
          2   -1    0    0  501    0  0.00000000000E+00 -0.00000000000E+00 -0.39507050649E+03  0.39507050649E+03  0.00000000000E+00 0. -1.
         23    2    1    2    0    0  0.36275103936E+02 -0.20429396273E+01 -0.16771096214E+03  0.21230564860E+03  0.12500665917E+03 0.  0.
         23    2    1    2    0    0 -0.36275103936E+02  0.20429396273E+01 -0.19329234033E+03  0.21683206192E+03  0.91291606833E+02 0.  0.
          5    1    3    3  502    0  0.12395578951E+02  0.26275971023E+02  0.97152693122E+01  0.30992797366E+02  0.47000000000E+01 0. -1.
         -5    1    3    3    0  502  0.23879524985E+02 -0.28318910650E+02 -0.17742623145E+03  0.18131285123E+03  0.47000000000E+01 0. -1.
        -11    1    4    4    0    0 -0.58281553244E+02 -0.20610830520E+02 -0.15694019553E+03  0.16867652699E+03  0.00000000000E+00 0. -1.
         11    1    4    4    0    0  0.22006449308E+02  0.22653770147E+02 -0.36352144793E+02  0.48155534926E+02  0.00000000000E+00 0.  1.
<mgrwt>
<rscale>  0 0.12133798E+03</rscale>
<asrwt>0</asrwt>
<pdfrwt beam="2">  1        2 0.60780074E-01 0.13017957E+03</pdfrwt>
<pdfrwt beam="1">  1       -2 0.52411086E-02 0.13017957E+03</pdfrwt>
<totfact> 0.13866910E+04</totfact>
</mgrwt>
</event>
<event>
 8    1  0.1020295E-005  0.3190040E+03  0.7546771E-02  0.1077390E+00
          2   -1    0    0  501    0  0.00000000000E+00  0.00000000000E+00  0.13079426075E+04  0.13079426075E+04  0.00000000000E+00 0. -1.
         -2   -1    0    0    0  501 -0.00000000000E+00 -0.00000000000E+00 -0.78288775153E+02  0.78288775153E+02  0.00000000000E+00 0.  1.
         23    2    1    2    0    0  0.22550220138E+03  0.18783077927E+03  0.48678080551E+03  0.58199577907E+03  0.12502755607E+03 0.  0.
         23    2    1    2    0    0 -0.22550220138E+03 -0.18783077927E+03  0.74287302684E+03  0.80423560358E+03  0.93823918018E+02 0.  0.
          5    1    3    3  502    0  0.20609631020E+03  0.13322100461E+03  0.45171930889E+03  0.51409721763E+03  0.47000000000E+01 0. -1.
         -5    1    3    3    0  502  0.19405891182E+02  0.54609774661E+02  0.35061496614E+02  0.67898561442E+02  0.47000000000E+01 0. -1.
        -11    1    4    4    0    0 -0.16432851033E+03 -0.16004916271E+03  0.46696743527E+03  0.52026741143E+03  0.00000000000E+00 0. -1.
         11    1    4    4    0    0 -0.61173691049E+02 -0.27781616565E+02  0.27590559157E+03  0.28396819215E+03  0.00000000000E+00 0.  1.
<mgrwt>
<rscale>  0 0.31624606E+03</rscale>
<asrwt>0</asrwt>
<pdfrwt beam="1">  1        2 0.20122192E+00 0.31900397E+03</pdfrwt>
<pdfrwt beam="2">  1       -2 0.12044428E-01 0.31900397E+03</pdfrwt>
<totfact> 0.85263716E+02</totfact>
</mgrwt>
</event>
<event>
 8    1  0.1020295E-005  0.2472274E+03  0.7546771E-02  0.1117692E+00
         -2   -1    0    0    0  501 -0.00000000000E+00  0.00000000000E+00  0.19796106078E+03  0.19796106078E+03  0.00000000000E+00 0.  1.
          2   -1    0    0  501    0  0.00000000000E+00 -0.00000000000E+00 -0.30108746254E+03  0.30108746254E+03  0.00000000000E+00 0. -1.
         23    2    1    2    0    0  0.72323355919E+01 -0.21318038679E+03 -0.39466675661E+01  0.24725892513E+03  0.12499286331E+03 0.  0.
         23    2    1    2    0    0 -0.72323355919E+01  0.21318038679E+03 -0.99179734201E+02  0.25178959820E+03  0.89795312190E+02 0.  0.
          5    1    3    3  502    0 -0.98766041763E+00 -0.21020250877E+03 -0.36343769290E+02  0.21337532597E+03  0.47000000000E+01 0. -1.
         -5    1    3    3    0  502  0.82199960096E+01 -0.29778780275E+01  0.32397101724E+02  0.33883599161E+02  0.47000000000E+01 0. -1.
        -11    1    4    4    0    0 -0.46824507336E+02  0.13824964944E+03 -0.72246622390E+02  0.16286520348E+03  0.00000000000E+00 0. -1.
         11    1    4    4    0    0  0.39592171744E+02  0.74930737358E+02 -0.26933111812E+02  0.88924394719E+02  0.00000000000E+00 0.  1.
<mgrwt>
<rscale>  0 0.24318062E+03</rscale>
<asrwt>0</asrwt>
<pdfrwt beam="2">  1        2 0.46321148E-01 0.24722743E+03</pdfrwt>
<pdfrwt beam="1">  1       -2 0.30455548E-01 0.24722743E+03</pdfrwt>
<totfact> 0.10828316E+03</totfact>
</mgrwt>
</event>
<event>
 8    1  0.1020295E-005  0.1701495E+03  0.7546771E-02  0.1184291E+00
          1   -1    0    0  501    0  0.00000000000E+00  0.00000000000E+00  0.13757516366E+03  0.13757516366E+03  0.00000000000E+00 0. -1.
         -1   -1    0    0    0  501 -0.00000000000E+00 -0.00000000000E+00 -0.35022434231E+03  0.35022434231E+03  0.00000000000E+00 0.  1.
         23    2    1    2    0    0 -0.31649219843E+02 -0.11101751572E+03 -0.27897983382E+03  0.32677300541E+03  0.12499714985E+03 0.  0.
         23    2    1    2    0    0  0.31649219843E+02  0.11101751572E+03  0.66330655166E+02  0.16102650056E+03  0.90571607887E+02 0.  0.
          5    1    3    3  502    0 -0.15157079989E+01 -0.11708244346E+03 -0.13188133025E+03  0.17642383968E+03  0.47000000000E+01 0. -1.
         -5    1    3    3    0  502 -0.30133511844E+02  0.60649277337E+01 -0.14709850357E+03  0.15034916573E+03  0.47000000000E+01 0. -1.
        -11    1    4    4    0    0  0.38401209891E+02  0.45429315724E+02  0.73666440548E+02  0.94684846259E+02  0.00000000000E+00 0.  1.
         11    1    4    4    0    0 -0.67519900480E+01  0.65588199999E+02 -0.73357853817E+01  0.66341654304E+02  0.00000000000E+00 0. -1.
<mgrwt>
<rscale>  0 0.16396567E+03</rscale>
<asrwt>0</asrwt>
<pdfrwt beam="1">  1        1 0.21165410E-01 0.17014949E+03</pdfrwt>
<pdfrwt beam="2">  1       -1 0.53880668E-01 0.17014949E+03</pdfrwt>
<totfact> 0.84366269E+02</totfact>
</mgrwt>
</event>
<event>
 8    1  0.1020295E-005  0.1516586E+03  0.7546771E-02  0.1207432E+00
         -1   -1    0    0    0  501 -0.00000000000E+00  0.00000000000E+00  0.39418353129E+02  0.39418353129E+02  0.00000000000E+00 0.  1.
          1   -1    0    0  501    0  0.00000000000E+00 -0.00000000000E+00 -0.50282674513E+03  0.50282674513E+03  0.00000000000E+00 0. -1.
         23    2    1    2    0    0 -0.28843916688E+02  0.80892687554E+02 -0.20263537371E+03  0.25310355938E+03  0.12499887464E+03 0.  0.
         23    2    1    2    0    0  0.28843916688E+02 -0.80892687554E+02 -0.26077301829E+03  0.28914153888E+03  0.90689933340E+02 0.  0.
          5    1    3    3  502    0  0.44155998154E+02  0.12707306608E+02 -0.98150319785E+02  0.10847489612E+03  0.47000000000E+01 0. -1.
         -5    1    3    3    0  502 -0.72999914842E+02  0.68185380946E+02 -0.10448505393E+03  0.14462866326E+03  0.47000000000E+01 0. -1.
        -11    1    4    4    0    0 -0.87174961963E+01 -0.28638874615E+02 -0.12121158055E+02  0.32297095097E+02  0.00000000000E+00 0.  1.
         11    1    4    4    0    0  0.37561412884E+02 -0.52253812939E+02 -0.24865186024E+03  0.25684444378E+03  0.00000000000E+00 0. -1.
<mgrwt>
<rscale>  0 0.14447466E+03</rscale>
<asrwt>0</asrwt>
<pdfrwt beam="2">  1        1 0.77357958E-01 0.15165855E+03</pdfrwt>
<pdfrwt beam="1">  1       -1 0.60643622E-02 0.15165855E+03</pdfrwt>
<totfact> 0.57023299E+03</totfact>
</mgrwt>
</event>
<event>
 8    1  0.1020295E-005  0.1447418E+03  0.7546771E-02  0.1217024E+00
          2   -1    0    0  501    0  0.00000000000E+00  0.00000000000E+00  0.21432980139E+03  0.21432980139E+03  0.00000000000E+00 0. -1.
         -2   -1    0    0    0  501 -0.00000000000E+00 -0.00000000000E+00 -0.87533616730E+02  0.87533616730E+02  0.00000000000E+00 0.  1.
         23    2    1    2    0    0 -0.28987371885E+02 -0.66977360870E+02  0.25463904229E+02  0.14696464103E+03  0.12499584271E+03 0.  0.
         23    2    1    2    0    0  0.28987371885E+02  0.66977360870E+02  0.10133228043E+03  0.15489877709E+03  0.91646961158E+02 0.  0.
          5    1    3    3  502    0  0.13828103596E+02  0.51334859678E+01  0.55608991985E+02  0.57723644349E+02  0.47000000000E+01 0. -1.
         -5    1    3    3    0  502 -0.42815475480E+02 -0.72110846838E+02 -0.30145087757E+02  0.89240996679E+02  0.47000000000E+01 0. -1.
        -11    1    4    4    0    0  0.31824800837E+02  0.43782310434E+02  0.34179469282E+01  0.54234592434E+02  0.00000000000E+00 0.  1.
         11    1    4    4    0    0 -0.28374289524E+01  0.23195050436E+02  0.97914333501E+02  0.10066418466E+03  0.00000000000E+00 0. -1.
<mgrwt>
<rscale>  0 0.13728913E+03</rscale>
<asrwt>0</asrwt>
<pdfrwt beam="1">  1        2 0.32973815E-01 0.14474182E+03</pdfrwt>
<pdfrwt beam="2">  1       -2 0.13466710E-01 0.14474182E+03</pdfrwt>
<totfact> 0.61834112E+03</totfact>
</mgrwt>
</event>
<event>
 8    1  0.1020295E-005  0.1440286E+03  0.7546771E-02  0.1217992E+00
          2   -1    0    0  501    0  0.00000000000E+00  0.00000000000E+00  0.56048130905E+03  0.56048130905E+03  0.00000000000E+00 0. -1.
         -2   -1    0    0    0  501 -0.00000000000E+00 -0.00000000000E+00 -0.36826530292E+02  0.36826530292E+02  0.00000000000E+00 0.  1.
         23    2    1    2    0    0 -0.13187707710E+02 -0.70332263705E+02  0.15919124492E+03  0.21467669814E+03  0.12499475713E+03 0.  0.
         23    2    1    2    0    0  0.13187707710E+02  0.70332263705E+02  0.36446353384E+03  0.38263114121E+03  0.91936824892E+02 0.  0.
          5    1    3    3  502    0 -0.28440111622E+02 -0.68448469771E+02  0.23301740573E+02  0.77840182919E+02  0.47000000000E+01 0.  1.
         -5    1    3    3    0  502  0.15252403912E+02 -0.18837939340E+01  0.13588950435E+03  0.13683651522E+03  0.47000000000E+01 0.  1.
        -11    1    4    4    0    0  0.51046554584E+02  0.46119322993E+02  0.17807864075E+03  0.19090506798E+03  0.00000000000E+00 0.  1.
         11    1    4    4    0    0 -0.37858846874E+02  0.24212940713E+02  0.18638489308E+03  0.19172607322E+03  0.00000000000E+00 0. -1.
<mgrwt>
<rscale>  0 0.13659056E+03</rscale>
<asrwt>0</asrwt>
<pdfrwt beam="1">  1        2 0.86227887E-01 0.14402858E+03</pdfrwt>
<pdfrwt beam="2">  1       -2 0.56656205E-02 0.14402858E+03</pdfrwt>
<totfact> 0.84808214E+03</totfact>
</mgrwt>
</event>
<event>
 8    1  0.1020295E-005  0.1359530E+03  0.7546771E-02  0.1228883E+00
         -2   -1    0    0    0  501 -0.00000000000E+00  0.00000000000E+00  0.14594762510E+03  0.14594762510E+03  0.00000000000E+00 0.  1.
          2   -1    0    0  501    0  0.00000000000E+00 -0.00000000000E+00 -0.12153597458E+03  0.12153597458E+03  0.00000000000E+00 0. -1.
         23    2    1    2    0    0  0.38941030874E+02 -0.36648398406E+02  0.63978988092E+02  0.15025485976E+03  0.12499481178E+03 0.  0.
         23    2    1    2    0    0 -0.38941030874E+02  0.36648398406E+02 -0.39567337578E+02  0.11722873992E+03  0.96527168550E+02 0.  0.
          5    1    3    3  502    0  0.73174875869E+02  0.12051219250E+02  0.22833695918E+02  0.77738420444E+02  0.47000000000E+01 0. -1.
         -5    1    3    3    0  502 -0.34233844995E+02 -0.48699617656E+02  0.41145292174E+02  0.72516439316E+02  0.47000000000E+01 0. -1.
        -11    1    4    4    0    0 -0.56030484494E+02  0.46419711989E+02 -0.55815423435E+02  0.91703687750E+02  0.00000000000E+00 0. -1.
         11    1    4    4    0    0  0.17089453620E+02 -0.97713135821E+01  0.16248085857E+02  0.25525052168E+02  0.00000000000E+00 0.  1.
<mgrwt>
<rscale>  0 0.12904289E+03</rscale>
<asrwt>0</asrwt>
<pdfrwt beam="2">  1        2 0.18697842E-01 0.13595298E+03</pdfrwt>
<pdfrwt beam="1">  1       -2 0.22453481E-01 0.13595298E+03</pdfrwt>
<totfact> 0.49235824E+03</totfact>
</mgrwt>
</event>
<event>
 8    1  0.1020295E-005  0.1692241E+03  0.7546771E-02  0.1185153E+00
          2   -1    0    0  501    0  0.00000000000E+00  0.00000000000E+00  0.61270233203E+03  0.61270233203E+03  0.00000000000E+00 0. -1.
         -2   -1    0    0    0  501 -0.00000000000E+00 -0.00000000000E+00 -0.40759880050E+02  0.40759880050E+02  0.00000000000E+00 0.  1.
         23    2    1    2    0    0 -0.22958694954E+02  0.11172621640E+03  0.28786101653E+03  0.33391728266E+03  0.12500775063E+03 0.  0.
         23    2    1    2    0    0  0.22958694954E+02 -0.11172621640E+03  0.28408143545E+03  0.31954492942E+03  0.91634332250E+02 0.  0.
          5    1    3    3  502    0 -0.58879672371E+02  0.51300522458E+02  0.70111239249E+02  0.10505348777E+03  0.47000000000E+01 0. -1.
         -5    1    3    3    0  502  0.35920977417E+02  0.60425693938E+02  0.21774977728E+03  0.22886379489E+03  0.47000000000E+01 0. -1.
        -11    1    4    4    0    0  0.47428202251E+02 -0.11136639868E+03  0.24776714342E+03  0.27575435895E+03  0.00000000000E+00 0. -1.
         11    1    4    4    0    0 -0.24469507297E+02 -0.35981771540E+00  0.36314292032E+02  0.43790570468E+02  0.00000000000E+00 0.  1.
<mgrwt>
<rscale>  0 0.16317940E+03</rscale>
<asrwt>0</asrwt>
<pdfrwt beam="1">  1        2 0.94261891E-01 0.16922407E+03</pdfrwt>
<pdfrwt beam="2">  1       -2 0.62707512E-02 0.16922407E+03</pdfrwt>
<totfact> 0.66267855E+03</totfact>
</mgrwt>
</event>
<event>
 8    1  0.1020295E-005  0.2245016E+03  0.7546771E-02  0.1133785E+00
          2   -1    0    0  501    0  0.00000000000E+00  0.00000000000E+00  0.62483357317E+03  0.62483357317E+03  0.00000000000E+00 0. -1.
         -2   -1    0    0    0  501 -0.00000000000E+00 -0.00000000000E+00 -0.77540661789E+02  0.77540661789E+02  0.00000000000E+00 0.  1.
         23    2    1    2    0    0  0.13251795801E+03 -0.13120225226E+03  0.21657668654E+03  0.31193977128E+03  0.12500367819E+03 0.  0.
         23    2    1    2    0    0 -0.13251795801E+03  0.13120225226E+03  0.33071622484E+03  0.39043446368E+03  0.91053878902E+02 0.  0.
          5    1    3    3  502    0  0.63856133244E+02 -0.11972368088E+03  0.19739261059E+03  0.23957733246E+03  0.47000000000E+01 0. -1.
         -5    1    3    3    0  502  0.68661824767E+02 -0.11478571377E+02  0.19184075953E+02  0.72362438816E+02  0.47000000000E+01 0. -1.
        -11    1    4    4    0    0 -0.98897986034E+02  0.90687315283E+02  0.30199253156E+03  0.33046102632E+03  0.00000000000E+00 0. -1.
         11    1    4    4    0    0 -0.33619971976E+02  0.40514936975E+02  0.28723693283E+02  0.59973437367E+02  0.00000000000E+00 0.  1.
<mgrwt>
<rscale>  0 0.22013099E+03</rscale>
<asrwt>0</asrwt>
<pdfrwt beam="1">  1        2 0.96128239E-01 0.22450158E+03</pdfrwt>
<pdfrwt beam="2">  1       -2 0.11929333E-01 0.22450158E+03</pdfrwt>
<totfact> 0.23866374E+03</totfact>
</mgrwt>
</event>
<event>
 8    1  0.1020295E-005  0.1564504E+03  0.7546771E-02  0.1200708E+00
          3   -1    0    0  501    0  0.00000000000E+00  0.00000000000E+00  0.62635782733E+02  0.62635782733E+02  0.00000000000E+00 0. -1.
         -3   -1    0    0    0  501 -0.00000000000E+00 -0.00000000000E+00 -0.47803711898E+03  0.47803711898E+03  0.00000000000E+00 0.  1.
         23    2    1    2    0    0 -0.88154536092E+02  0.32848343113E+02 -0.36968431160E+03  0.40142647100E+03  0.12500594184E+03 0.  0.
         23    2    1    2    0    0  0.88154536092E+02 -0.32848343113E+02 -0.45717024648E+02  0.13924643072E+03  0.91919999160E+02 0.  0.
          5    1    3    3  502    0 -0.14996520934E+02  0.39227801634E+02 -0.28960445664E+03  0.29267139827E+03  0.47000000000E+01 0.  1.
         -5    1    3    3    0  502 -0.73158015157E+02 -0.63794585214E+01 -0.80079854956E+02  0.10875507272E+03  0.47000000000E+01 0.  1.
        -11    1    4    4    0    0  0.37323827503E+02 -0.81337485773E+01 -0.68400090674E+02  0.78344102328E+02  0.00000000000E+00 0.  1.
         11    1    4    4    0    0  0.50830708589E+02 -0.24714594536E+02  0.22683066026E+02  0.60902328388E+02  0.00000000000E+00 0. -1.
<mgrwt>
<rscale>  0 0.14980859E+03</rscale>
<asrwt>0</asrwt>
<pdfrwt beam="1">  1        3 0.96362742E-02 0.15645038E+03</pdfrwt>
<pdfrwt beam="2">  1       -3 0.73544172E-01 0.15645038E+03</pdfrwt>
<totfact> 0.33299452E+02</totfact>
</mgrwt>
</event>
<event>
 8    1  0.1020295E-005  0.1502441E+03  0.7546771E-02  0.1209463E+00
          1   -1    0    0  501    0  0.00000000000E+00  0.00000000000E+00  0.40478555519E+03  0.40478555519E+03  0.00000000000E+00 0. -1.
         -1   -1    0    0    0  501 -0.00000000000E+00 -0.00000000000E+00 -0.48485206934E+02  0.48485206934E+02  0.00000000000E+00 0.  1.
         23    2    1    2    0    0  0.80317918120E+02 -0.20188043002E+02  0.14512571840E+03  0.20888933763E+03  0.12535851061E+03 0.  0.
         23    2    1    2    0    0 -0.80317918120E+02  0.20188043002E+02  0.21117462986E+03  0.24438142450E+03  0.90934214089E+02 0.  0.
          5    1    3    3  502    0  0.50178169670E+02  0.42885801859E+02  0.11488044196E+03  0.13257694617E+03  0.47000000000E+01 0. -1.
         -5    1    3    3    0  502  0.30139748450E+02 -0.63073844861E+02  0.30245276438E+02  0.76312391451E+02  0.47000000000E+01 0. -1.
        -11    1    4    4    0    0 -0.38811870250E+02 -0.76589844501E+01  0.15606813083E+02  0.42527566704E+02  0.00000000000E+00 0.  1.
         11    1    4    4    0    0 -0.41506047870E+02  0.27847027452E+02  0.19556781678E+03  0.20185385780E+03  0.00000000000E+00 0. -1.
<mgrwt>
<rscale>  0 0.14291213E+03</rscale>
<asrwt>0</asrwt>
<pdfrwt beam="1">  1        1 0.62274699E-01 0.15024407E+03</pdfrwt>
<pdfrwt beam="2">  1       -1 0.74592629E-02 0.15024407E+03</pdfrwt>
<totfact> 0.55218000E+03</totfact>
</mgrwt>
</event>
<event>
 7    1  0.1020295E-005  0.1671216E+03  0.7546771E-02  0.1198206E+00
          1   -1    0    0  501    0  0.00000000000E+00  0.00000000000E+00  0.44598759863E+02  0.44598759863E+02  0.00000000000E+00 0. -1.
         -1   -1    0    0    0  501 -0.00000000000E+00 -0.00000000000E+00 -0.54341367690E+03  0.54341367690E+03  0.00000000000E+00 0.  1.
         23    2    1    2    0    0  0.43639181420E+02  0.51828022459E+02 -0.86308527687E+02  0.14293813184E+03  0.91605815944E+02 0.  0.
          5    1    1    2  502    0 -0.17584829464E+02  0.13672683437E+02  0.35691354367E+01  0.23043377083E+02  0.47000000000E+01 0. -1.
         -5    1    1    2    0  502 -0.26054351956E+02 -0.65500705896E+02 -0.41607552479E+03  0.42203092784E+03  0.47000000000E+01 0.  1.
        -11    1    3    3    0    0  0.40054684579E+02  0.12492836849E+02 -0.93781204711E+02  0.10273929670E+03  0.00000000000E+00 0.  1.
         11    1    3    3    0    0  0.35844968409E+01  0.39335185609E+02  0.74726770247E+01  0.40198835138E+02  0.00000000000E+00 0. -1.
<mgrwt>
<rscale>  0 0.15185975E+03</rscale>
<asrwt>0</asrwt>
<pdfrwt beam="1">  1        1 0.68613480E-02 0.16712156E+03</pdfrwt>
<pdfrwt beam="2">  1       -1 0.83602100E-01 0.16712156E+03</pdfrwt>
<totfact> 0.15705671E+03</totfact>
</mgrwt>
</event>
<event>
 8    1  0.1020295E-005  0.1527081E+03  0.7546771E-02  0.1206179E+00
          1   -1    0    0  501    0  0.00000000000E+00  0.00000000000E+00  0.42487561540E+02  0.42487561540E+02  0.00000000000E+00 0. -1.
         -1   -1    0    0    0  501 -0.00000000000E+00 -0.00000000000E+00 -0.47344328499E+03  0.47344328499E+03  0.00000000000E+00 0.  1.
         23    2    1    2    0    0  0.72337012517E+02  0.49601053084E+02 -0.28491075349E+03  0.32325518639E+03  0.12500748069E+03 0.  0.
         23    2    1    2    0    0 -0.72337012517E+02 -0.49601053084E+02 -0.14604496997E+03  0.19267566015E+03  0.90010382253E+02 0.  0.
          5    1    3    3  502    0  0.59608451081E+02  0.82215371135E+02 -0.13362158919E+03  0.16789685461E+03  0.47000000000E+01 0.  1.
         -5    1    3    3    0  502  0.12728561436E+02 -0.32614318051E+02 -0.15128916430E+03  0.15535833178E+03  0.47000000000E+01 0.  1.
        -11    1    4    4    0    0 -0.84998490262E+02 -0.53275348132E+02 -0.14855710425E+03  0.17925462138E+03  0.00000000000E+00 0.  1.
         11    1    4    4    0    0  0.12661477745E+02  0.36742950487E+01  0.25121342812E+01  0.13421038761E+02  0.00000000000E+00 0. -1.
<mgrwt>
<rscale>  0 0.14544903E+03</rscale>
<asrwt>0</asrwt>
<pdfrwt beam="1">  1        1 0.65365483E-02 0.15270815E+03</pdfrwt>
<pdfrwt beam="2">  1       -1 0.72837424E-01 0.15270815E+03</pdfrwt>
<totfact> 0.22143531E+03</totfact>
</mgrwt>
</event>
<event>
 8    1  0.1020295E-005  0.1420289E+03  0.7546771E-02  0.1220915E+00
         -1   -1    0    0    0  501 -0.00000000000E+00  0.00000000000E+00  0.27000149159E+03  0.27000149159E+03  0.00000000000E+00 0.  1.
          1   -1    0    0  501    0  0.00000000000E+00 -0.00000000000E+00 -0.80764045090E+02  0.80764045090E+02  0.00000000000E+00 0. -1.
         23    2    1    2    0    0 -0.50054729778E+02  0.45079472618E+02  0.18911776958E+03  0.23651158771E+03  0.12503825625E+03 0.  0.
         23    2    1    2    0    0  0.50054729778E+02 -0.45079472618E+02  0.11967691753E+00  0.11425394897E+03  0.92283886498E+02 0.  0.
          5    1    3    3  502    0 -0.23979605581E+02  0.67331661122E+02  0.18877748230E+03  0.20190988558E+03  0.47000000000E+01 0. -1.
         -5    1    3    3    0  502 -0.26075124198E+02 -0.22252188504E+02  0.34028728790E+00  0.34601702134E+02  0.47000000000E+01 0. -1.
        -11    1    4    4    0    0  0.62896729451E+02 -0.52885368801E+02  0.24379970736E+02  0.85716064900E+02  0.00000000000E+00 0.  1.
         11    1    4    4    0    0 -0.12841999673E+02  0.78058961833E+01 -0.24260293819E+02  0.28537884066E+02  0.00000000000E+00 0. -1.
<mgrwt>
<rscale>  0 0.13450865E+03</rscale>
<asrwt>0</asrwt>
<pdfrwt beam="2">  1        1 0.12425238E-01 0.14202887E+03</pdfrwt>
<pdfrwt beam="1">  1       -1 0.41538690E-01 0.14202887E+03</pdfrwt>
<totfact> 0.26773432E+03</totfact>
</mgrwt>
</event>
<event>
 8    1  0.1020295E-005  0.1575945E+03  0.7546771E-02  0.1199653E+00
          2   -1    0    0  501    0  0.00000000000E+00  0.00000000000E+00  0.41681882907E+02  0.41681882907E+02  0.00000000000E+00 0. -1.
         -2   -1    0    0    0  501 -0.00000000000E+00 -0.00000000000E+00 -0.53883504234E+03  0.53883504234E+03  0.00000000000E+00 0.  1.
         23    2    1    2    0    0 -0.66213211657E+02  0.69460468889E+02 -0.34508513575E+03  0.37936761469E+03  0.12500835981E+03 0.  0.
         23    2    1    2    0    0  0.66213211657E+02 -0.69460468889E+02 -0.15206802368E+03  0.20114931056E+03  0.90152177872E+02 0.  0.
          5    1    3    3  502    0 -0.99754933625E+02  0.67706671633E+02 -0.29657057672E+03  0.32017407318E+03  0.47000000000E+01 0.  1.
         -5    1    3    3    0  502  0.33541721968E+02  0.17537972555E+01 -0.48514559035E+02  0.59193541504E+02  0.47000000000E+01 0.  1.
        -11    1    4    4    0    0 -0.13486794026E+02 -0.42427943928E+02 -0.73979177074E+02  0.86342009935E+02  0.00000000000E+00 0.  1.
         11    1    4    4    0    0  0.79700005684E+02 -0.27032524960E+02 -0.78088846606E+02  0.11480730062E+03  0.00000000000E+00 0. -1.
<mgrwt>
<rscale>  0 0.15066959E+03</rscale>
<asrwt>0</asrwt>
<pdfrwt beam="1">  1        2 0.64125970E-02 0.15759453E+03</pdfrwt>
<pdfrwt beam="2">  1       -2 0.82897703E-01 0.15759453E+03</pdfrwt>
<totfact> 0.14523273E+03</totfact>
</mgrwt>
</event>
<event>
 8    1  0.1020295E-005  0.1410953E+03  0.7546771E-02  0.1223059E+00
          1   -1    0    0  501    0  0.00000000000E+00  0.00000000000E+00  0.57445187940E+02  0.57445187940E+02  0.00000000000E+00 0. -1.
         -1   -1    0    0    0  501 -0.00000000000E+00 -0.00000000000E+00 -0.28410167971E+03  0.28410167971E+03  0.00000000000E+00 0.  1.
         23    2    1    2    0    0  0.22867256369E+01 -0.65418432301E+02 -0.15217625488E+03  0.20752230810E+03  0.12499238141E+03 0.  0.
         23    2    1    2    0    0 -0.22867256369E+01  0.65418432301E+02 -0.74480236887E+02  0.13402455955E+03  0.90169154797E+02 0.  0.
          5    1    3    3  502    0  0.49754165533E+02 -0.75424941098E+02 -0.82179367371E+02  0.12222903562E+03  0.47000000000E+01 0.  1.
         -5    1    3    3    0  502 -0.47467439897E+02  0.10006508797E+02 -0.69996887509E+02  0.85293272476E+02  0.47000000000E+01 0.  1.
        -11    1    4    4    0    0 -0.39597982657E+02  0.52414643312E+02 -0.66960467716E+02  0.93802981300E+02  0.00000000000E+00 0.  1.
         11    1    4    4    0    0  0.37311257020E+02  0.13003788989E+02 -0.75197691709E+01  0.40221578249E+02  0.00000000000E+00 0. -1.
<mgrwt>
<rscale>  0 0.13300840E+03</rscale>
<asrwt>0</asrwt>
<pdfrwt beam="1">  1        1 0.88377214E-02 0.14109534E+03</pdfrwt>
<pdfrwt beam="2">  1       -1 0.43707950E-01 0.14109534E+03</pdfrwt>
<totfact> 0.38389468E+03</totfact>
</mgrwt>
</event>
<event>
 8    1  0.1020295E-005  0.1334388E+03  0.7546771E-02  0.1235236E+00
          3   -1    0    0  501    0  0.00000000000E+00  0.00000000000E+00  0.42457238861E+03  0.42457238861E+03  0.00000000000E+00 0. -1.
         -3   -1    0    0    0  501 -0.00000000000E+00 -0.00000000000E+00 -0.34002571000E+02  0.34002571000E+02  0.00000000000E+00 0.  1.
         23    2    1    2    0    0  0.54894085523E+01  0.46389432953E+02  0.17642120815E+03  0.22120207867E+03  0.12499521521E+03 0.  0.
         23    2    1    2    0    0 -0.54894085523E+01 -0.46389432953E+02  0.21414860946E+03  0.23737288095E+03  0.91127079273E+02 0.  0.
          5    1    3    3  502    0 -0.30171864779E+02 -0.19358327423E+02  0.12547845746E+03  0.13058338160E+03  0.47000000000E+01 0.  1.
         -5    1    3    3    0  502  0.35661273331E+02  0.65747760376E+02  0.50942750692E+02  0.90618697067E+02  0.47000000000E+01 0.  1.
        -11    1    4    4    0    0  0.40786521759E+02 -0.65691694565E+01  0.89705662259E+02  0.98761329405E+02  0.00000000000E+00 0.  1.
         11    1    4    4    0    0 -0.46275930312E+02 -0.39820263497E+02  0.12444294721E+03  0.13861155154E+03  0.00000000000E+00 0. -1.
<mgrwt>
<rscale>  0 0.12489332E+03</rscale>
<asrwt>0</asrwt>
<pdfrwt beam="1">  1        3 0.65318825E-01 0.13343881E+03</pdfrwt>
<pdfrwt beam="2">  1       -3 0.52311651E-02 0.13343881E+03</pdfrwt>
<totfact> 0.11245021E+03</totfact>
</mgrwt>
</event>
<event>
 8    1  0.1020295E-005  0.1420341E+03  0.7546771E-02  0.1221289E+00
         -2   -1    0    0    0  501 -0.00000000000E+00  0.00000000000E+00  0.21716655662E+02  0.21716655662E+02  0.00000000000E+00 0.  1.
          2   -1    0    0  501    0  0.00000000000E+00 -0.00000000000E+00 -0.76623794310E+03  0.76623794310E+03  0.00000000000E+00 0. -1.
         23    2    1    2    0    0 -0.99018767682E+01  0.66718334385E+02 -0.35769171064E+03  0.38485977503E+03  0.12499721305E+03 0.  0.
         23    2    1    2    0    0  0.99018767682E+01 -0.66718334385E+02 -0.38682957680E+03  0.40309482373E+03  0.91098474880E+02 0.  0.
          5    1    3    3  502    0 -0.44683306240E+02 -0.17362779655E+02 -0.89876381408E+02  0.10197018147E+03  0.47000000000E+01 0. -1.
         -5    1    3    3    0  502  0.34781429472E+02  0.84081114040E+02 -0.26781532923E+03  0.28288959356E+03  0.47000000000E+01 0. -1.
        -11    1    4    4    0    0 -0.26388053573E+02 -0.10380509398E+02 -0.35519439502E+02  0.45450136735E+02  0.00000000000E+00 0.  1.
         11    1    4    4    0    0  0.36289930341E+02 -0.56337824987E+02 -0.35131013730E+03  0.35764468700E+03  0.00000000000E+00 0. -1.
<mgrwt>
<rscale>  0 0.13424566E+03</rscale>
<asrwt>0</asrwt>
<pdfrwt beam="2">  1        2 0.11788275E+00 0.14203410E+03</pdfrwt>
<pdfrwt beam="1">  1       -2 0.33410241E-02 0.14203410E+03</pdfrwt>
<totfact> 0.12940546E+04</totfact>
</mgrwt>
</event>
<event>
 8    1  0.1020295E-005  0.2798436E+03  0.7546771E-02  0.1097803E+00
         -2   -1    0    0    0  501 -0.00000000000E+00  0.00000000000E+00  0.84296630674E+03  0.84296630674E+03  0.00000000000E+00 0.  1.
          2   -1    0    0  501    0  0.00000000000E+00 -0.00000000000E+00 -0.10077079743E+03  0.10077079743E+03  0.00000000000E+00 0. -1.
         23    2    1    2    0    0 -0.25034026744E+03  0.42248198936E+01  0.54648440499E+03  0.61396876925E+03  0.12499738441E+03 0.  0.
         23    2    1    2    0    0  0.25034026744E+03 -0.42248198936E+01  0.19571110433E+03  0.32976833492E+03  0.88069403044E+02 0.  0.
          5    1    3    3  502    0 -0.17740302021E+03  0.47952741676E+02  0.44503320841E+03  0.48150591232E+03  0.47000000000E+01 0. -1.
         -5    1    3    3    0  502 -0.72937247235E+02 -0.43727921782E+02  0.10145119658E+03  0.13246285693E+03  0.47000000000E+01 0. -1.
        -11    1    4    4    0    0  0.19467762946E+03 -0.31004144818E+02  0.17776442731E+03  0.26544458560E+03  0.00000000000E+00 0.  1.
         11    1    4    4    0    0  0.55662637984E+02  0.26779324924E+02  0.17946677020E+02  0.64323749322E+02  0.00000000000E+00 0. -1.
<mgrwt>
<rscale>  0 0.27616414E+03</rscale>
<asrwt>0</asrwt>
<pdfrwt beam="2">  1        2 0.15503200E-01 0.27984361E+03</pdfrwt>
<pdfrwt beam="1">  1       -2 0.12968712E+00 0.27984361E+03</pdfrwt>
<totfact> 0.17228645E+02</totfact>
</mgrwt>
</event>
<event>
 8    1  0.1020295E-005  0.1395769E+03  0.7546771E-02  0.1225268E+00
          2   -1    0    0  501    0  0.00000000000E+00  0.00000000000E+00  0.49721323233E+03  0.49721323233E+03  0.00000000000E+00 0. -1.
         -2   -1    0    0    0  501 -0.00000000000E+00 -0.00000000000E+00 -0.32180204334E+02  0.32180204334E+02  0.00000000000E+00 0.  1.
         23    2    1    2    0    0 -0.28331220266E+01  0.62027935398E+02  0.30291758223E+03  0.33352775856E+03  0.12500485093E+03 0.  0.
         23    2    1    2    0    0  0.28331220266E+01 -0.62027935398E+02  0.16211544576E+03  0.19586567810E+03  0.90699805693E+02 0.  0.
          5    1    3    3  502    0 -0.23553516569E+02  0.89102577580E+02  0.14478969866E+03  0.17169794499E+03  0.47000000000E+01 0.  1.
         -5    1    3    3    0  502  0.20720394542E+02 -0.27074642182E+02  0.15812788357E+03  0.16182981357E+03  0.47000000000E+01 0.  1.
        -11    1    4    4    0    0  0.27842439229E+02  0.12841643856E+02  0.52275877990E+02  0.60604262711E+02  0.00000000000E+00 0. -1.
         11    1    4    4    0    0 -0.25009317202E+02 -0.74869579254E+02  0.10983956777E+03  0.13526141539E+03  0.00000000000E+00 0.  1.
<mgrwt>
<rscale>  0 0.13148530E+03</rscale>
<asrwt>0</asrwt>
<pdfrwt beam="1">  1        2 0.76494338E-01 0.13957688E+03</pdfrwt>
<pdfrwt beam="2">  1       -2 0.49508010E-02 0.13957688E+03</pdfrwt>
<totfact> 0.11846316E+04</totfact>
</mgrwt>
</event>
<event>
 8    1  0.1020295E-005  0.1856937E+03  0.7546771E-02  0.1167173E+00
         -2   -1    0    0    0  501 -0.00000000000E+00  0.00000000000E+00  0.46016280670E+02  0.46016280670E+02  0.00000000000E+00 0.  1.
          2   -1    0    0  501    0  0.00000000000E+00 -0.00000000000E+00 -0.68890229619E+03  0.68890229619E+03  0.00000000000E+00 0. -1.
         23    2    1    2    0    0 -0.12538272746E+03 -0.55995971932E+02 -0.28344740126E+03  0.33885774289E+03  0.12500305363E+03 0.  0.
         23    2    1    2    0    0  0.12538272746E+03  0.55995971932E+02 -0.35943861426E+03  0.39606083397E+03  0.93870600111E+02 0.  0.
          5    1    3    3  502    0 -0.77499858431E+02 -0.13723407243E+02 -0.42554740132E+02  0.89596628680E+02  0.47000000000E+01 0.  1.
         -5    1    3    3    0  502 -0.47882869028E+02 -0.42272564689E+02 -0.24089266113E+03  0.24926111421E+03  0.47000000000E+01 0.  1.
        -11    1    4    4    0    0  0.24919231546E+02 -0.17080416419E+02 -0.14607074115E+03  0.14916222761E+03  0.00000000000E+00 0.  1.
         11    1    4    4    0    0  0.10046349591E+03  0.73076388352E+02 -0.21336787311E+03  0.24689860636E+03  0.00000000000E+00 0. -1.
<mgrwt>
<rscale>  0 0.18065300E+03</rscale>
<asrwt>0</asrwt>
<pdfrwt beam="2">  1        2 0.10598497E+00 0.18569367E+03</pdfrwt>
<pdfrwt beam="1">  1       -2 0.70794279E-02 0.18569367E+03</pdfrwt>
<totfact> 0.48130437E+03</totfact>
</mgrwt>
</event>
<event>
 8    1  0.1020295E-005  0.1477756E+03  0.7546771E-02  0.1212743E+00
         -2   -1    0    0    0  501 -0.00000000000E+00  0.00000000000E+00  0.48291744462E+02  0.48291744462E+02  0.00000000000E+00 0. -1.
          2   -1    0    0  501    0  0.00000000000E+00 -0.00000000000E+00 -0.38139304682E+03  0.38139304682E+03  0.00000000000E+00 0.  1.
         23    2    1    2    0    0  0.43842277001E+02 -0.65498738576E+02 -0.15077042422E+03  0.21111452513E+03  0.12500156757E+03 0.  0.
         23    2    1    2    0    0 -0.43842277001E+02  0.65498738576E+02 -0.18233087814E+03  0.21857026615E+03  0.91193103439E+02 0.  0.
          5    1    3    3  502    0 -0.70837131662E+01 -0.69962642804E+02 -0.14268938417E+03  0.15914553319E+03  0.47000000000E+01 0. -1.
         -5    1    3    3    0  502  0.50925990167E+02  0.44639042271E+01 -0.80810400554E+01  0.51968991945E+02  0.47000000000E+01 0. -1.
        -11    1    4    4    0    0 -0.38722870271E+01  0.47491443524E+02 -0.16446860546E+03  0.17123187202E+03  0.00000000000E+00 0.  1.
         11    1    4    4    0    0 -0.39969989974E+02  0.18007295053E+02 -0.17862272685E+02  0.47338394133E+02  0.00000000000E+00 0. -1.
<mgrwt>
<rscale>  0 0.14043627E+03</rscale>
<asrwt>0</asrwt>
<pdfrwt beam="2">  1        2 0.58675852E-01 0.14777558E+03</pdfrwt>
<pdfrwt beam="1">  1       -2 0.74294993E-02 0.14777558E+03</pdfrwt>
<totfact> 0.85481691E+03</totfact>
</mgrwt>
</event>
<event>
 8    1  0.1020295E-005  0.1407099E+03  0.7546771E-02  0.1219806E+00
         -1   -1    0    0    0  501 -0.00000000000E+00  0.00000000000E+00  0.37536578030E+02  0.37536578030E+02  0.00000000000E+00 0.  1.
          1   -1    0    0  501    0  0.00000000000E+00 -0.00000000000E+00 -0.58569511045E+03  0.58569511045E+03  0.00000000000E+00 0. -1.
         23    2    1    2    0    0  0.20519834462E+02  0.61262313180E+02 -0.14307717067E+03  0.20067477131E+03  0.12500060981E+03 0.  0.
         23    2    1    2    0    0 -0.20519834462E+02 -0.61262313180E+02 -0.40508136175E+03  0.42255691716E+03  0.10143620647E+03 0.  0.
          5    1    3    3  502    0  0.47719746176E+02  0.32688826447E+02 -0.64519837064E+01  0.58390509874E+02  0.47000000000E+01 0. -1.
         -5    1    3    3    0  502 -0.27199911714E+02  0.28573486733E+02 -0.13662518696E+03  0.14228426144E+03  0.47000000000E+01 0. -1.
        -11    1    4    4    0    0 -0.58031261242E+02 -0.39609102694E+02 -0.31312373699E+03  0.32090961806E+03  0.00000000000E+00 0. -1.
         11    1    4    4    0    0  0.37511426780E+02 -0.21653210485E+02 -0.91957624762E+02  0.10164729910E+03  0.00000000000E+00 0.  1.
<mgrwt>
<rscale>  0 0.13529369E+03</rscale>
<asrwt>0</asrwt>
<pdfrwt beam="2">  1        1 0.90106939E-01 0.14070994E+03</pdfrwt>
<pdfrwt beam="1">  1       -1 0.57748582E-02 0.14070994E+03</pdfrwt>
<totfact> 0.49874986E+03</totfact>
</mgrwt>
</event>
<event>
 8    1  0.1020295E-005  0.1286433E+03  0.7546771E-02  0.1243546E+00
         -1   -1    0    0    0  501 -0.00000000000E+00  0.00000000000E+00  0.86177155965E+02  0.86177155965E+02  0.00000000000E+00 0.  1.
          1   -1    0    0  501    0  0.00000000000E+00 -0.00000000000E+00 -0.21314243378E+03  0.21314243378E+03  0.00000000000E+00 0. -1.
         23    2    1    2    0    0  0.17920880271E+02 -0.24554766421E+02  0.13001050849E+02  0.12929858696E+03  0.12500001105E+03 0.  0.
         23    2    1    2    0    0 -0.17920880271E+02  0.24554766421E+02 -0.13996632867E+03  0.17002100279E+03  0.91610445508E+02 0.  0.
          5    1    3    3  502    0  0.71144287329E+02 -0.62750403714E+01  0.13440187934E+02  0.72825918483E+02  0.47000000000E+01 0.  1.
         -5    1    3    3    0  502 -0.53223407057E+02 -0.18279726049E+02 -0.43913708451E+00  0.56472668474E+02  0.47000000000E+01 0.  1.
        -11    1    4    4    0    0 -0.33616285063E+02 -0.26681430173E+02 -0.63884323706E+02  0.76962069572E+02  0.00000000000E+00 0.  1.
         11    1    4    4    0    0  0.15695404792E+02  0.51236196594E+02 -0.76082004962E+02  0.93058933220E+02  0.00000000000E+00 0. -1.
<mgrwt>
<rscale>  0 0.11972845E+03</rscale>
<asrwt>0</asrwt>
<pdfrwt beam="2">  1        1 0.32791143E-01 0.12864329E+03</pdfrwt>
<pdfrwt beam="1">  1       -1 0.13258024E-01 0.12864329E+03</pdfrwt>
<totfact> 0.50454112E+03</totfact>
</mgrwt>
</event>
<event>
 8    1  0.1020295E-005  0.1538289E+03  0.7546771E-02  0.1204466E+00
          1   -1    0    0  501    0  0.00000000000E+00  0.00000000000E+00  0.28229764690E+02  0.28229764690E+02  0.00000000000E+00 0. -1.
         -1   -1    0    0    0  501 -0.00000000000E+00 -0.00000000000E+00 -0.70125040874E+03  0.70125040874E+03  0.00000000000E+00 0.  1.
         23    2    1    2    0    0 -0.72862566564E+02  0.52247310266E+02 -0.36863125633E+03  0.39944002833E+03  0.12499839220E+03 0.  0.
         23    2    1    2    0    0  0.72862566564E+02 -0.52247310266E+02 -0.30438938772E+03  0.33004014510E+03  0.90746145848E+02 0.  0.
          5    1    3    3  502    0  0.29482641486E+02 -0.47065002459E+01 -0.37439698532E+02  0.48116507768E+02  0.47000000000E+01 0. -1.
         -5    1    3    3    0  502 -0.10234520805E+03  0.56953810512E+02 -0.33119155780E+03  0.35132352056E+03  0.47000000000E+01 0. -1.
        -11    1    4    4    0    0 -0.33772366905E+01 -0.50373909777E+02 -0.10336493529E+03  0.11503584815E+03  0.00000000000E+00 0. -1.
         11    1    4    4    0    0  0.76239803255E+02 -0.18734004886E+01 -0.20102445243E+03  0.21500429695E+03  0.00000000000E+00 0.  1.
<mgrwt>
<rscale>  0 0.14679590E+03</rscale>
<asrwt>0</asrwt>
<pdfrwt beam="1">  1        1 0.43430411E-02 0.15382891E+03</pdfrwt>
<pdfrwt beam="2">  1       -1 0.10788467E+00 0.15382891E+03</pdfrwt>
<totfact> 0.16832294E+03</totfact>
</mgrwt>
</event>
<event>
 8    1  0.1020295E-005  0.2180687E+03  0.7546771E-02  0.1138839E+00
         -1   -1    0    0    0  501 -0.00000000000E+00  0.00000000000E+00  0.50684981770E+02  0.50684981770E+02  0.00000000000E+00 0.  1.
          1   -1    0    0  501    0  0.00000000000E+00 -0.00000000000E+00 -0.10391830487E+04  0.10391830487E+04  0.00000000000E+00 0. -1.
         23    2    1    2    0    0  0.14088907941E+03  0.10990524965E+03 -0.28767234361E+03  0.36098386928E+03  0.12500032002E+03 0.  0.
         23    2    1    2    0    0 -0.14088907941E+03 -0.10990524965E+03 -0.70082572329E+03  0.72888416117E+03  0.90479441703E+02 0.  0.
          5    1    3    3  502    0  0.15178081870E+03  0.12542764753E+03 -0.24741769297E+03  0.31623901797E+03  0.47000000000E+01 0.  1.
         -5    1    3    3    0  502 -0.10891739299E+02 -0.15522397875E+02 -0.40254650640E+02  0.44744851312E+02  0.47000000000E+01 0.  1.
        -11    1    4    4    0    0 -0.82081744810E+02 -0.66242349039E+02 -0.56309776456E+03  0.57289139816E+03  0.00000000000E+00 0. -1.
         11    1    4    4    0    0 -0.58807334595E+02 -0.43662900613E+02 -0.13772795874E+03  0.15599276301E+03  0.00000000000E+00 0.  1.
<mgrwt>
<rscale>  0 0.21348088E+03</rscale>
<asrwt>0</asrwt>
<pdfrwt beam="2">  1        1 0.15987432E+00 0.21806874E+03</pdfrwt>
<pdfrwt beam="1">  1       -1 0.77976895E-02 0.21806874E+03</pdfrwt>
<totfact> 0.13401912E+03</totfact>
</mgrwt>
</event>
<event>
 8    1  0.1020295E-005  0.1402779E+03  0.7546771E-02  0.1223699E+00
         -1   -1    0    0    0  501 -0.00000000000E+00  0.00000000000E+00  0.49739169945E+02  0.49739169945E+02  0.00000000000E+00 0.  1.
          1   -1    0    0  501    0  0.00000000000E+00 -0.00000000000E+00 -0.34984448677E+03  0.34984448677E+03  0.00000000000E+00 0. -1.
         23    2    1    2    0    0  0.32228462802E+02  0.54890799615E+02 -0.10706716789E+03  0.17646892393E+03  0.12500491581E+03 0.  0.
         23    2    1    2    0    0 -0.32228462802E+02 -0.54890799615E+02 -0.19303814893E+03  0.22311473278E+03  0.92004257208E+02 0.  0.
          5    1    3    3  502    0  0.10892986802E+02  0.80786998261E+02 -0.21497535690E+02  0.84435953777E+02  0.47000000000E+01 0. -1.
         -5    1    3    3    0  502  0.21335476000E+02 -0.25896198646E+02 -0.85569632197E+02  0.92032970151E+02  0.47000000000E+01 0. -1.
        -11    1    4    4    0    0  0.21529870427E+02 -0.19050583628E+02 -0.12471687490E+02  0.31336927833E+02  0.00000000000E+00 0.  1.
         11    1    4    4    0    0 -0.53758333229E+02 -0.35840215987E+02 -0.18056646144E+03  0.19177780495E+03  0.00000000000E+00 0. -1.
<mgrwt>
<rscale>  0 0.13256450E+03</rscale>
<asrwt>0</asrwt>
<pdfrwt beam="2">  1        1 0.53822229E-01 0.14027795E+03</pdfrwt>
<pdfrwt beam="1">  1       -1 0.76521800E-02 0.14027795E+03</pdfrwt>
<totfact> 0.63571336E+03</totfact>
</mgrwt>
</event>
<event>
 7    1  0.1020295E-005  0.1558786E+03  0.7546771E-02  0.1217627E+00
         -4   -1    0    0    0  501 -0.00000000000E+00  0.00000000000E+00  0.32766757527E+03  0.32766757527E+03  0.00000000000E+00 0.  1.
          4   -1    0    0  501    0  0.00000000000E+00 -0.00000000000E+00 -0.53585196494E+02  0.53585196494E+02  0.00000000000E+00 0. -1.
         23    2    1    2    0    0 -0.55861202354E+01 -0.20646680069E+02  0.42019331298E+02  0.10169704071E+03  0.90106457871E+02 0.  0.
          5    1    1    2  502    0 -0.34105800682E+02  0.78409647869E+02  0.12717246597E+03  0.15331733307E+03  0.47000000000E+01 0. -1.
         -5    1    1    2    0  502  0.39691920917E+02 -0.57762967799E+02  0.10489058151E+03  0.12623839798E+03  0.47000000000E+01 0.  1.
        -11    1    3    3    0    0  0.15194660494E+02  0.15002912060E+01  0.62974621526E+02  0.64799163093E+02  0.00000000000E+00 0. -1.
         11    1    3    3    0    0 -0.20780780730E+02 -0.22146971275E+02 -0.20955290228E+02  0.36897877621E+02  0.00000000000E+00 0.  1.
<mgrwt>
<rscale>  0 0.13685313E+03</rscale>
<asrwt>0</asrwt>
<pdfrwt beam="2">  1        4 0.82438766E-02 0.15587863E+03</pdfrwt>
<pdfrwt beam="1">  1       -4 0.50410395E-01 0.15587863E+03</pdfrwt>
<totfact> 0.68178208E+02</totfact>
</mgrwt>
</event>
<event>
 8    1  0.1020295E-005  0.1564611E+03  0.7546771E-02  0.1200814E+00
          1   -1    0    0  501    0  0.00000000000E+00  0.00000000000E+00  0.98833255284E+03  0.98833255284E+03  0.00000000000E+00 0. -1.
         -1   -1    0    0    0  501 -0.00000000000E+00 -0.00000000000E+00 -0.22337399383E+02  0.22337399383E+02  0.00000000000E+00 0.  1.
         23    2    1    2    0    0 -0.93439043955E+02  0.11228194923E+02  0.39641847687E+03  0.42617800872E+03  0.12499263587E+03 0.  0.
         23    2    1    2    0    0  0.93439043955E+02 -0.11228194923E+02  0.56957667659E+03  0.58449194350E+03  0.91412877664E+02 0.  0.
          5    1    3    3  502    0  0.28871382735E+02 -0.10684410264E+02  0.61812635352E+02  0.69214198347E+02  0.47000000000E+01 0.  1.
         -5    1    3    3    0  502 -0.12231042669E+03  0.21912605187E+02  0.33460584151E+03  0.35696381038E+03  0.47000000000E+01 0.  1.
        -11    1    4    4    0    0  0.34455003277E+02  0.38289840369E+02  0.17295846052E+03  0.18046575351E+03  0.00000000000E+00 0.  1.
         11    1    4    4    0    0  0.58984040679E+02 -0.49518035292E+02  0.39661821608E+03  0.40402618999E+03  0.00000000000E+00 0. -1.
<mgrwt>
<rscale>  0 0.14972271E+03</rscale>
<asrwt>0</asrwt>
<pdfrwt beam="1">  1        1 0.15205113E+00 0.15646113E+03</pdfrwt>
<pdfrwt beam="2">  1       -1 0.34365237E-02 0.15646113E+03</pdfrwt>
<totfact> 0.49385073E+03</totfact>
</mgrwt>
</event>
<event>
 7    1  0.1020295E-005  0.1990387E+03  0.7546771E-02  0.1164553E+00
         -1   -1    0    0    0  501 -0.00000000000E+00  0.00000000000E+00  0.15874093806E+03  0.15874093806E+03  0.00000000000E+00 0.  1.
          1   -1    0    0  501    0  0.00000000000E+00 -0.00000000000E+00 -0.18483533777E+03  0.18483533777E+03  0.00000000000E+00 0. -1.
         23    2    1    2    0    0 -0.70467326341E+02 -0.79913909973E+02 -0.14304500725E+02  0.14418874108E+03  0.96093169506E+02 0.  0.
          5    1    1    2  502    0 -0.51206523588E+02  0.52704986743E+02  0.33154418314E+01  0.73708926462E+02  0.47000000000E+01 0. -1.
         -5    1    1    2    0  502  0.12167384993E+03  0.27208923229E+02 -0.15105340812E+02  0.12567860829E+03  0.47000000000E+01 0.  1.
        -11    1    3    3    0    0 -0.66075341885E+02 -0.35652314598E+02 -0.47362059952E+02  0.88770507852E+02  0.00000000000E+00 0. -1.
         11    1    3    3    0    0 -0.43919844568E+01 -0.44261595374E+02  0.33057559227E+02  0.55418233232E+02  0.00000000000E+00 0.  1.
<mgrwt>
<rscale>  0 0.18339985E+03</rscale>
<asrwt>0</asrwt>
<pdfrwt beam="2">  1        1 0.28436206E-01 0.19903866E+03</pdfrwt>
<pdfrwt beam="1">  1       -1 0.24421683E-01 0.19903866E+03</pdfrwt>
<totfact> 0.23176843E+03</totfact>
</mgrwt>
</event>
<event>
 8    1  0.1020295E-005  0.1278783E+03  0.7546771E-02  0.1244716E+00
         -2   -1    0    0    0  501 -0.00000000000E+00  0.00000000000E+00  0.20523402333E+02  0.20523402333E+02  0.00000000000E+00 0.  1.
          2   -1    0    0  501    0  0.00000000000E+00 -0.00000000000E+00 -0.61554233791E+03  0.61554233791E+03  0.00000000000E+00 0. -1.
         23    2    1    2    0    0 -0.10876747921E+02 -0.30744443394E+02 -0.31075183550E+03  0.33603507028E+03  0.12365007380E+03 0.  0.
         23    2    1    2    0    0  0.10876747921E+02  0.30744443394E+02 -0.28426710008E+03  0.30003066996E+03  0.90261255720E+02 0.  0.
          5    1    3    3  502    0  0.31182511751E+02 -0.50173154788E+02 -0.26199220626E+03  0.26861068601E+03  0.47000000000E+01 0. -1.
         -5    1    3    3    0  502 -0.42059259672E+02  0.19428711394E+02 -0.48759629239E+02  0.67424384270E+02  0.47000000000E+01 0.  1.
        -11    1    4    4    0    0 -0.36213062671E+02  0.86158136976E+01 -0.67261347806E+02  0.76874619104E+02  0.00000000000E+00 0.  1.
         11    1    4    4    0    0  0.47089810592E+02  0.22128629697E+02 -0.21700575227E+03  0.22315605085E+03  0.00000000000E+00 0. -1.
<mgrwt>
<rscale>  0 0.11902380E+03</rscale>
<asrwt>0</asrwt>
<pdfrwt beam="2">  1        2 0.94698821E-01 0.12787832E+03</pdfrwt>
<pdfrwt beam="1">  1       -2 0.31574465E-02 0.12787832E+03</pdfrwt>
<totfact> 0.18074869E+04</totfact>
</mgrwt>
</event>
<event>
 8    1  0.1020295E-005  0.2076216E+03  0.7546771E-02  0.1147789E+00
         -1   -1    0    0    0  501 -0.00000000000E+00  0.00000000000E+00  0.37368765533E+02  0.37368765533E+02  0.00000000000E+00 0.  1.
          1   -1    0    0  501    0  0.00000000000E+00 -0.00000000000E+00 -0.11204015006E+04  0.11204015006E+04  0.00000000000E+00 0. -1.
         23    2    1    2    0    0 -0.28122378415E+02  0.16335262334E+03 -0.41568473232E+03  0.46465097456E+03  0.12502713209E+03 0.  0.
         23    2    1    2    0    0  0.28122378415E+02 -0.16335262334E+03 -0.66734800279E+03  0.69311929162E+03  0.87097921085E+02 0.  0.
          5    1    3    3  502    0  0.12299780578E+02  0.35659081313E+02 -0.24353182367E+03  0.24648061551E+03  0.47000000000E+01 0. -1.
         -5    1    3    3    0  502 -0.40422158993E+02  0.12769354203E+03 -0.17215290865E+03  0.21817035906E+03  0.47000000000E+01 0. -1.
        -11    1    4    4    0    0  0.38262176003E+02 -0.34946930581E+02 -0.11807196808E+03  0.12894290099E+03  0.00000000000E+00 0.  1.
         11    1    4    4    0    0 -0.10139797588E+02 -0.12840569276E+03 -0.54927603472E+03  0.56417639063E+03  0.00000000000E+00 0. -1.
<mgrwt>
<rscale>  0 0.20232868E+03</rscale>
<asrwt>0</asrwt>
<pdfrwt beam="2">  1        1 0.17236941E+00 0.20762161E+03</pdfrwt>
<pdfrwt beam="1">  1       -1 0.57490425E-02 0.20762161E+03</pdfrwt>
<totfact> 0.18570215E+03</totfact>
</mgrwt>
</event>
<event>
 8    1  0.1020295E-005  0.1605518E+03  0.7546771E-02  0.1195271E+00
          2   -1    0    0  501    0  0.00000000000E+00  0.00000000000E+00  0.68691040700E+03  0.68691040700E+03  0.00000000000E+00 0. -1.
         -2   -1    0    0    0  501 -0.00000000000E+00 -0.00000000000E+00 -0.32971768670E+02  0.32971768670E+02  0.00000000000E+00 0.  1.
         23    2    1    2    0    0  0.20394436973E+02  0.98671791019E+02  0.40621879112E+03  0.43679580217E+03  0.12499924453E+03 0.  0.
         23    2    1    2    0    0 -0.20394436973E+02 -0.98671791019E+02  0.24771984721E+03  0.28308637350E+03  0.92847815030E+02 0.  0.
          5    1    3    3  502    0 -0.49221999296E+02  0.41779253979E+02  0.22965357133E+03  0.23860252325E+03  0.47000000000E+01 0.  1.
         -5    1    3    3    0  502  0.69616436269E+02  0.56892537041E+02  0.17656521979E+03  0.19819327892E+03  0.47000000000E+01 0.  1.
        -11    1    4    4    0    0 -0.21755584478E+02 -0.31287862861E+02  0.19168787927E+03  0.19543919483E+03  0.00000000000E+00 0. -1.
         11    1    4    4    0    0  0.13611475046E+01 -0.67383928159E+02  0.56031967944E+02  0.87647178667E+02  0.00000000000E+00 0.  1.
<mgrwt>
<rscale>  0 0.15431294E+03</rscale>
<asrwt>0</asrwt>
<pdfrwt beam="1">  1        2 0.10567851E+00 0.16055176E+03</pdfrwt>
<pdfrwt beam="2">  1       -2 0.50725803E-02 0.16055176E+03</pdfrwt>
<totfact> 0.79769310E+03</totfact>
</mgrwt>
</event>
<event>
 8    1  0.1020295E-005  0.1286460E+03  0.7546771E-02  0.1242473E+00
         -2   -1    0    0    0  501 -0.00000000000E+00  0.00000000000E+00  0.40499881266E+02  0.40499881266E+02  0.00000000000E+00 0. -1.
          2   -1    0    0  501    0  0.00000000000E+00 -0.00000000000E+00 -0.34483512550E+03  0.34483512550E+03  0.00000000000E+00 0.  1.
         23    2    1    2    0    0  0.29977135520E+02 -0.47000801957E+01 -0.11829695891E+03  0.17476829062E+03  0.12501626099E+03 0.  0.
         23    2    1    2    0    0 -0.29977135520E+02  0.47000801957E+01 -0.18603828533E+03  0.21056671614E+03  0.93847636800E+02 0.  0.
          5    1    3    3  502    0 -0.35015692850E+02 -0.38110449437E+02 -0.29809517750E+02  0.59909952850E+02  0.47000000000E+01 0.  1.
         -5    1    3    3    0  502  0.64992828370E+02  0.33410369242E+02 -0.88487441155E+02  0.11485833777E+03  0.47000000000E+01 0.  1.
        -11    1    4    4    0    0 -0.32606826427E+02 -0.19968812485E+02 -0.18132729985E+03  0.18531472762E+03  0.00000000000E+00 0.  1.
         11    1    4    4    0    0  0.26296909064E+01  0.24668892681E+02 -0.47109854772E+01  0.25251988527E+02  0.00000000000E+00 0. -1.
<mgrwt>
<rscale>  0 0.12037897E+03</rscale>
<asrwt>0</asrwt>
<pdfrwt beam="2">  1        2 0.53051559E-01 0.12864597E+03</pdfrwt>
<pdfrwt beam="1">  1       -2 0.62307508E-02 0.12864597E+03</pdfrwt>
<totfact> 0.12327517E+04</totfact>
</mgrwt>
</event>
<event>
 8    1  0.1020295E-005  0.1625302E+03  0.7546771E-02  0.1192917E+00
          2   -1    0    0  501    0  0.00000000000E+00  0.00000000000E+00  0.26889512642E+02  0.26889512642E+02  0.00000000000E+00 0. -1.
         -2   -1    0    0    0  501 -0.00000000000E+00 -0.00000000000E+00 -0.85392215306E+03  0.85392215306E+03  0.00000000000E+00 0.  1.
         23    2    1    2    0    0  0.21964451221E+02 -0.10154970432E+03 -0.48840561478E+03  0.51473888070E+03  0.12498516387E+03 0.  0.
         23    2    1    2    0    0 -0.21964451221E+02  0.10154970432E+03 -0.33862702564E+03  0.36607278501E+03  0.92445886148E+02 0.  0.
          5    1    3    3  502    0  0.19339773311E+02 -0.10122731374E+03 -0.49533159935E+03  0.50596094631E+03  0.47000000000E+01 0.  1.
         -5    1    3    3    0  502  0.26246779096E+01 -0.32239057502E+00  0.69259845688E+01  0.87779343845E+01  0.47000000000E+01 0.  1.
        -11    1    4    4    0    0  0.23550055241E+02  0.73141257700E+02 -0.25821057799E+03  0.26940109737E+03  0.00000000000E+00 0.  1.
         11    1    4    4    0    0 -0.45514506462E+02  0.28408446618E+02 -0.80416447650E+02  0.96671687636E+02  0.00000000000E+00 0. -1.
<mgrwt>
<rscale>  0 0.15631855E+03</rscale>
<asrwt>0</asrwt>
<pdfrwt beam="1">  1        2 0.41368491E-02 0.16253021E+03</pdfrwt>
<pdfrwt beam="2">  1       -2 0.13137261E+00 0.16253021E+03</pdfrwt>
<totfact> 0.88129118E+02</totfact>
</mgrwt>
</event>
<event>
 8    1  0.1020295E-005  0.1591692E+03  0.7546771E-02  0.1197476E+00
         -4   -1    0    0    0  501 -0.00000000000E+00  0.00000000000E+00  0.91727668843E+03  0.91727668843E+03  0.00000000000E+00 0. -1.
          4   -1    0    0  501    0  0.00000000000E+00 -0.00000000000E+00 -0.23437148116E+02  0.23437148116E+02  0.00000000000E+00 0.  1.
         23    2    1    2    0    0 -0.20410542874E+02  0.96405520619E+02  0.47446025391E+03  0.50044718227E+03  0.12499694009E+03 0.  0.
         23    2    1    2    0    0  0.20410542874E+02 -0.96405520619E+02  0.41937928641E+03  0.44026665428E+03  0.90802678039E+02 0.  0.
          5    1    3    3  502    0 -0.65774640255E+02  0.50379024615E+02  0.17005835122E+03  0.18922547990E+03  0.47000000000E+01 0. -1.
         -5    1    3    3    0  502  0.45364097381E+02  0.46026496004E+02  0.30440190269E+03  0.31122170237E+03  0.47000000000E+01 0. -1.
        -11    1    4    4    0    0  0.32019474368E+02 -0.97535898207E+02  0.41547059249E+03  0.42796531565E+03  0.00000000000E+00 0. -1.
         11    1    4    4    0    0 -0.11608931494E+02  0.11303775884E+01  0.39086939161E+01  0.12301338628E+02  0.00000000000E+00 0.  1.
<mgrwt>
<rscale>  0 0.15246487E+03</rscale>
<asrwt>0</asrwt>
<pdfrwt beam="2">  1        4 0.36057158E-02 0.15916925E+03</pdfrwt>
<pdfrwt beam="1">  1       -4 0.14111946E+00 0.15916925E+03</pdfrwt>
<totfact> 0.25746321E+02</totfact>
</mgrwt>
</event>
<event>
 8    1  0.1020295E-005  0.1845573E+03  0.7546771E-02  0.1168727E+00
         -1   -1    0    0    0  501 -0.00000000000E+00  0.00000000000E+00  0.40877540900E+03  0.40877540900E+03  0.00000000000E+00 0.  1.
          1   -1    0    0  501    0  0.00000000000E+00 -0.00000000000E+00 -0.74575723163E+02  0.74575723163E+02  0.00000000000E+00 0. -1.
         23    2    1    2    0    0 -0.59815769071E+02  0.12189848967E+03  0.15759473117E+03  0.24268803332E+03  0.12499685680E+03 0.  0.
         23    2    1    2    0    0  0.59815769071E+02 -0.12189848967E+03  0.17660495467E+03  0.24066309885E+03  0.91061787375E+02 0.  0.
          5    1    3    3  502    0 -0.83802044313E+02  0.13073610026E+03  0.11701198326E+03  0.19449577057E+03  0.47000000000E+01 0.  1.
         -5    1    3    3    0  502  0.23986275241E+02 -0.88376105960E+01  0.40582747908E+02  0.48192262748E+02  0.47000000000E+01 0.  1.
        -11    1    4    4    0    0  0.82233630578E+02 -0.74406568510E+02  0.11642284494E+03  0.16078863847E+03  0.00000000000E+00 0.  1.
         11    1    4    4    0    0 -0.22417861507E+02 -0.47491921157E+02  0.60182109728E+02  0.79874460381E+02  0.00000000000E+00 0. -1.
<mgrwt>
<rscale>  0 0.17904906E+03</rscale>
<asrwt>0</asrwt>
<pdfrwt beam="2">  1        1 0.11473188E-01 0.18455726E+03</pdfrwt>
<pdfrwt beam="1">  1       -1 0.62888523E-01 0.18455726E+03</pdfrwt>
<totfact> 0.13977382E+03</totfact>
</mgrwt>
</event>
<event>
 8    1  0.1020295E-005  0.1275293E+03  0.7546771E-02  0.1244570E+00
         -1   -1    0    0    0  501 -0.00000000000E+00  0.00000000000E+00  0.75571887818E+02  0.75571887818E+02  0.00000000000E+00 0.  1.
          1   -1    0    0  501    0  0.00000000000E+00 -0.00000000000E+00 -0.16686715249E+03  0.16686715249E+03  0.00000000000E+00 0. -1.
         23    2    1    2    0    0 -0.25097692148E+02 -0.33495869665E+01 -0.50412199736E+02  0.13713176282E+03  0.12499046607E+03 0.  0.
         23    2    1    2    0    0  0.25097692148E+02  0.33495869665E+01 -0.40883064938E+02  0.10530727749E+03  0.93686091865E+02 0.  0.
          5    1    3    3  502    0  0.10168869076E+02  0.55380816005E+02 -0.35917364458E+02  0.66952130282E+02  0.47000000000E+01 0. -1.
         -5    1    3    3    0  502 -0.35266561224E+02 -0.58730402972E+02 -0.14494835278E+02  0.70179632541E+02  0.47000000000E+01 0. -1.
        -11    1    4    4    0    0 -0.19537374891E+01 -0.36217017128E+02 -0.44302223184E+02  0.57255361311E+02  0.00000000000E+00 0. -1.
         11    1    4    4    0    0  0.27051429637E+02  0.39566604095E+02  0.34191582464E+01  0.48051916175E+02  0.00000000000E+00 0.  1.
<mgrwt>
<rscale>  0 0.11911146E+03</rscale>
<asrwt>0</asrwt>
<pdfrwt beam="2">  1        1 0.25671869E-01 0.12752933E+03</pdfrwt>
<pdfrwt beam="1">  1       -1 0.11626444E-01 0.12752933E+03</pdfrwt>
<totfact> 0.83733319E+03</totfact>
</mgrwt>
</event>
<event>
 8    1  0.1020295E-005  0.1364069E+03  0.7546771E-02  0.1230787E+00
         -1   -1    0    0    0  501 -0.00000000000E+00  0.00000000000E+00  0.42085661567E+02  0.42085661567E+02  0.00000000000E+00 0.  1.
          1   -1    0    0  501    0  0.00000000000E+00 -0.00000000000E+00 -0.35277999228E+03  0.35277999228E+03  0.00000000000E+00 0. -1.
         23    2    1    2    0    0 -0.22779336622E+01  0.54562400572E+02 -0.14860365191E+03  0.20171733509E+03  0.12499837350E+03 0.  0.
         23    2    1    2    0    0  0.22779336622E+01 -0.54562400572E+02 -0.16209067880E+03  0.19314831875E+03  0.89725360650E+02 0.  0.
          5    1    3    3  502    0 -0.45459510945E+02 -0.73211168169E+01 -0.10424672513E+03  0.11405978953E+03  0.47000000000E+01 0.  1.
         -5    1    3    3    0  502  0.43181577283E+02  0.61883517389E+02 -0.44356926773E+02  0.87657545562E+02  0.47000000000E+01 0.  1.
        -11    1    4    4    0    0 -0.20903662231E+02 -0.37580085232E+02 -0.18676129149E+02  0.46883085443E+02  0.00000000000E+00 0.  1.
         11    1    4    4    0    0  0.23181595893E+02 -0.16982315341E+02 -0.14341454965E+03  0.14626523331E+03  0.00000000000E+00 0. -1.
<mgrwt>
<rscale>  0 0.12778014E+03</rscale>
<asrwt>0</asrwt>
<pdfrwt beam="2">  1        1 0.54273844E-01 0.13640688E+03</pdfrwt>
<pdfrwt beam="1">  1       -1 0.64747173E-02 0.13640688E+03</pdfrwt>
<totfact> 0.80692581E+03</totfact>
</mgrwt>
</event>
<event>
 8    1  0.1020295E-005  0.1263003E+03  0.7546771E-02  0.1250598E+00
         -1   -1    0    0    0  501 -0.00000000000E+00  0.00000000000E+00  0.40094344134E+03  0.40094344134E+03  0.00000000000E+00 0.  1.
          1   -1    0    0  501    0  0.00000000000E+00 -0.00000000000E+00 -0.46375874861E+02  0.46375874861E+02  0.00000000000E+00 0. -1.
         23    2    1    2    0    0  0.71728391947E+01 -0.16217213482E+02  0.33307489124E+03  0.35621714006E+03  0.12504927054E+03 0.  0.
         23    2    1    2    0    0 -0.71728391947E+01  0.16217213482E+02  0.21492675238E+02  0.91102176141E+02  0.86736519261E+02 0.  0.
          5    1    3    3  502    0  0.28983506360E+02  0.33498995028E+02  0.26643717569E+03  0.27013530850E+03  0.47000000000E+01 0. -1.
         -5    1    3    3    0  502 -0.21810667166E+02 -0.49716208510E+02  0.66637715549E+02  0.86081831558E+02  0.47000000000E+01 0. -1.
        -11    1    4    4    0    0  0.29852129597E+02  0.35804844901E+02  0.10203737149E+02  0.47720570110E+02  0.00000000000E+00 0. -1.
         11    1    4    4    0    0 -0.37024968791E+02 -0.19587631419E+02  0.11288938089E+02  0.43381606031E+02  0.00000000000E+00 0.  1.
<mgrwt>
<rscale>  0 0.11556510E+03</rscale>
<asrwt>0</asrwt>
<pdfrwt beam="2">  1        1 0.71347503E-02 0.12630031E+03</pdfrwt>
<pdfrwt beam="1">  1       -1 0.61683604E-01 0.12630031E+03</pdfrwt>
<totfact> 0.26962034E+03</totfact>
</mgrwt>
</event>
<event>
 6    1  0.1020295E-005  0.1720232E+03  0.7546771E-02  0.1251443E+00
          2   -1    0    0  501    0  0.00000000000E+00  0.00000000000E+00  0.50413946629E+02  0.50413946629E+02  0.00000000000E+00 0. -1.
         -2   -1    0    0    0  501 -0.00000000000E+00 -0.00000000000E+00 -0.34923623886E+03  0.34923623886E+03  0.00000000000E+00 0.  1.
          5    1    1    2  502    0 -0.73850019683E+02  0.26757990849E+02 -0.90254669628E+02  0.11974059826E+03  0.47000000000E+01 0. -1.
         -5    1    1    2    0  502  0.80129153313E+02 -0.13742936659E+02 -0.22676670930E+03  0.24094559545E+03  0.47000000000E+01 0.  1.
        -11    1    1    2    0    0  0.11229346501E+02  0.16602426258E+01  0.83205082480E+01  0.14074284562E+02  0.00000000000E+00 0.  1.
         11    1    1    2    0    0 -0.17508480131E+02 -0.14675296816E+02  0.98785784541E+01  0.24889707218E+02  0.00000000000E+00 0. -1.
<mgrwt>
<rscale>  0 0.11507896E+03</rscale>
<asrwt>0</asrwt>
<pdfrwt beam="1">  1        2 0.77559919E-02 0.17202318E+03</pdfrwt>
<pdfrwt beam="2">  1       -2 0.53728651E-01 0.17202318E+03</pdfrwt>
<totfact> 0.28580040E+03</totfact>
</mgrwt>
</event>
<event>
 8    1  0.1020295E-005  0.2175846E+03  0.7546771E-02  0.1139197E+00
         -2   -1    0    0    0  501 -0.00000000000E+00  0.00000000000E+00  0.21744742437E+03  0.21744742437E+03  0.00000000000E+00 0.  1.
          2   -1    0    0  501    0  0.00000000000E+00 -0.00000000000E+00 -0.21678049981E+03  0.21678049981E+03  0.00000000000E+00 0. -1.
         23    2    1    2    0    0  0.23856590627E+02 -0.17649279175E+03  0.60018561706E+02  0.22571066097E+03  0.12499692904E+03 0.  0.
         23    2    1    2    0    0 -0.23856590627E+02  0.17649279175E+03 -0.59351637152E+02  0.20851726321E+03  0.90763372400E+02 0.  0.
          5    1    3    3  502    0  0.12492298175E+02 -0.13079860029E+03 -0.19759488316E+02  0.13295434829E+03  0.47000000000E+01 0.  1.
         -5    1    3    3    0  502  0.11364292452E+02 -0.45694191457E+02  0.79778050022E+02  0.92756312675E+02  0.47000000000E+01 0.  1.
        -11    1    4    4    0    0 -0.13189394864E+01  0.16722614258E+03 -0.70790835430E+02  0.18159753508E+03  0.00000000000E+00 0. -1.
         11    1    4    4    0    0 -0.22537651140E+02  0.92666491643E+01  0.11439198278E+02  0.26919728136E+02  0.00000000000E+00 0.  1.
<mgrwt>
<rscale>  0 0.21301984E+03</rscale>
<asrwt>0</asrwt>
<pdfrwt beam="2">  1        2 0.33350846E-01 0.21758464E+03</pdfrwt>
<pdfrwt beam="1">  1       -2 0.33453450E-01 0.21758464E+03</pdfrwt>
<totfact> 0.12974379E+03</totfact>
</mgrwt>
</event>
<event>
 8    1  0.1020295E-005  0.1412995E+03  0.7546771E-02  0.1222186E+00
          4   -1    0    0  501    0  0.00000000000E+00  0.00000000000E+00  0.15268245741E+03  0.15268245741E+03  0.00000000000E+00 0. -1.
         -4   -1    0    0    0  501 -0.00000000000E+00 -0.00000000000E+00 -0.12368601294E+03  0.12368601294E+03  0.00000000000E+00 0.  1.
         23    2    1    2    0    0 -0.65303642290E+01 -0.65542755142E+02 -0.36279808816E+02  0.14588269427E+03  0.12500814994E+03 0.  0.
         23    2    1    2    0    0  0.65303642290E+01  0.65542755142E+02  0.65276253282E+02  0.13048577608E+03  0.91798965725E+02 0.  0.
          5    1    3    3  502    0  0.46564815149E+02 -0.31577403171E+02  0.21339228183E+02  0.60356168371E+02  0.47000000000E+01 0. -1.
         -5    1    3    3    0  502 -0.53095179378E+02 -0.33965351971E+02 -0.57619036999E+02  0.85526525900E+02  0.47000000000E+01 0. -1.
        -11    1    4    4    0    0 -0.15380490687E+02 -0.19451179379E+02  0.98765385198E+01  0.26691831824E+02  0.00000000000E+00 0.  1.
         11    1    4    4    0    0  0.21910854916E+02  0.84993934521E+02  0.55399714762E+02  0.10379394426E+03  0.00000000000E+00 0. -1.
<mgrwt>
<rscale>  0 0.13361656E+03</rscale>
<asrwt>0</asrwt>
<pdfrwt beam="1">  1        4 0.23489609E-01 0.14129945E+03</pdfrwt>
<pdfrwt beam="2">  1       -4 0.19028617E-01 0.14129945E+03</pdfrwt>
<totfact> 0.69246462E+02</totfact>
</mgrwt>
</event>
<event>
 8    1  0.1020295E-005  0.1315530E+03  0.7546771E-02  0.1238115E+00
         -2   -1    0    0    0  501 -0.00000000000E+00  0.00000000000E+00  0.54407492125E+02  0.54407492125E+02  0.00000000000E+00 0.  1.
          2   -1    0    0  501    0  0.00000000000E+00 -0.00000000000E+00 -0.25057141625E+03  0.25057141625E+03  0.00000000000E+00 0. -1.
         23    2    1    2    0    0 -0.34944059136E+02  0.21453974603E+02 -0.95641573305E+02  0.16264530710E+03  0.12499930033E+03 0.  0.
         23    2    1    2    0    0  0.34944059136E+02 -0.21453974603E+02 -0.10052235082E+03  0.14233360128E+03  0.92047546098E+02 0.  0.
          5    1    3    3  502    0  0.41432218646E+02 -0.71186553918E+01 -0.83869608717E+01  0.43124646192E+02  0.47000000000E+01 0. -1.
         -5    1    3    3    0  502 -0.76376277782E+02  0.28572629994E+02 -0.87254612433E+02  0.11952066091E+03  0.47000000000E+01 0. -1.
        -11    1    4    4    0    0 -0.16898493742E+02 -0.41522499841E+02 -0.39045796063E+02  0.59449569165E+02  0.00000000000E+00 0.  1.
         11    1    4    4    0    0  0.51842552878E+02  0.20068525238E+02 -0.61476554758E+02  0.82884032111E+02  0.00000000000E+00 0. -1.
<mgrwt>
<rscale>  0 0.12307100E+03</rscale>
<asrwt>0</asrwt>
<pdfrwt beam="2">  1        2 0.38549448E-01 0.13155298E+03</pdfrwt>
<pdfrwt beam="1">  1       -2 0.83703835E-02 0.13155298E+03</pdfrwt>
<totfact> 0.11018140E+04</totfact>
</mgrwt>
</event>
<event>
 8    1  0.1020295E-005  0.1305647E+03  0.7546771E-02  0.1239733E+00
          2   -1    0    0  501    0  0.00000000000E+00  0.00000000000E+00  0.38909360172E+02  0.38909360172E+02  0.00000000000E+00 0. -1.
         -2   -1    0    0    0  501 -0.00000000000E+00 -0.00000000000E+00 -0.43690755498E+03  0.43690755498E+03  0.00000000000E+00 0.  1.
         23    2    1    2    0    0  0.37697862335E+02 -0.11149678188E+01 -0.33058946191E+03  0.35543849876E+03  0.12499904839E+03 0.  0.
         23    2    1    2    0    0 -0.37697862335E+02  0.11149678188E+01 -0.67408732896E+02  0.12037841639E+03  0.92329052218E+02 0.  0.
          5    1    3    3  502    0  0.28057808461E+02  0.28921830051E+02 -0.31889954634E+03  0.32146963079E+03  0.47000000000E+01 0.  1.
         -5    1    3    3    0  502  0.96400538737E+01 -0.30036797870E+02 -0.11689915573E+02  0.33968867969E+02  0.47000000000E+01 0.  1.
        -11    1    4    4    0    0  0.28255585302E+01 -0.34963495152E+02 -0.54160702297E+02  0.64527602215E+02  0.00000000000E+00 0.  1.
         11    1    4    4    0    0 -0.40523420865E+02  0.36078462971E+02 -0.13248030599E+02  0.55850814172E+02  0.00000000000E+00 0. -1.
<mgrwt>
<rscale>  0 0.12206212E+03</rscale>
<asrwt>0</asrwt>
<pdfrwt beam="1">  1        2 0.59860554E-02 0.13056467E+03</pdfrwt>
<pdfrwt beam="2">  1       -2 0.67216547E-01 0.13056467E+03</pdfrwt>
<totfact> 0.24679774E+03</totfact>
</mgrwt>
</event>
<event>
 8    1  0.1020295E-005  0.2354432E+03  0.7546771E-02  0.1125853E+00
          4   -1    0    0  501    0  0.00000000000E+00  0.00000000000E+00  0.53457374469E+02  0.53457374469E+02  0.00000000000E+00 0. -1.
         -4   -1    0    0    0  501 -0.00000000000E+00 -0.00000000000E+00 -0.97492630251E+03  0.97492630251E+03  0.00000000000E+00 0.  1.
         23    2    1    2    0    0 -0.19951925530E+03 -0.76194801993E+00 -0.42374573049E+03  0.48476174752E+03  0.12499997577E+03 0.  0.
         23    2    1    2    0    0  0.19951925530E+03  0.76194801993E+00 -0.49772319754E+03  0.54362192946E+03  0.89375091693E+02 0.  0.
          5    1    3    3  502    0 -0.93770997163E+01 -0.26982955503E+02 -0.13458139238E+03  0.13765991088E+03  0.47000000000E+01 0. -1.
         -5    1    3    3    0  502 -0.19014215558E+03  0.26221007483E+02 -0.28916433811E+03  0.34710183664E+03  0.47000000000E+01 0. -1.
        -11    1    4    4    0    0  0.10552170444E+03 -0.37547110981E+02 -0.31892769235E+03  0.33802291135E+03  0.00000000000E+00 0.  1.
         11    1    4    4    0    0  0.93997550861E+02  0.38309059001E+02 -0.17879550520E+03  0.20559901811E+03  0.00000000000E+00 0. -1.
<mgrwt>
<rscale>  0 0.23112081E+03</rscale>
<asrwt>0</asrwt>
<pdfrwt beam="1">  1        4 0.82242119E-02 0.23544322E+03</pdfrwt>
<pdfrwt beam="2">  1       -4 0.14998865E+00 0.23544322E+03</pdfrwt>
<totfact> 0.60635147E+01</totfact>
</mgrwt>
</event>
<event>
 8    1  0.1020295E-005  0.1322701E+03  0.7546771E-02  0.1238376E+00
         -2   -1    0    0    0  501 -0.00000000000E+00  0.00000000000E+00  0.33236888215E+02  0.33236888215E+02  0.00000000000E+00 0.  1.
          2   -1    0    0  501    0  0.00000000000E+00 -0.00000000000E+00 -0.40854192112E+03  0.40854192112E+03  0.00000000000E+00 0. -1.
         23    2    1    2    0    0 -0.22292593456E+02 -0.37034232119E+02 -0.18472669852E+03  0.22719885619E+03  0.12500749193E+03 0.  0.
         23    2    1    2    0    0  0.22292593456E+02  0.37034232119E+02 -0.19057833439E+03  0.21457995315E+03  0.88633857424E+02 0.  0.
          5    1    3    3  502    0 -0.47247472359E+02 -0.73395537950E+02 -0.11294518273E+03  0.14282133222E+03  0.47000000000E+01 0.  1.
         -5    1    3    3    0  502  0.24954878903E+02  0.36361305831E+02 -0.71781515781E+02  0.84377523966E+02  0.47000000000E+01 0.  1.
        -11    1    4    4    0    0 -0.22632406329E+02  0.37894897481E+02 -0.14063335203E+03  0.14739738388E+03  0.00000000000E+00 0.  1.
         11    1    4    4    0    0  0.44924999784E+02 -0.86066536195E+00 -0.49944982365E+02  0.67182569272E+02  0.00000000000E+00 0. -1.
<mgrwt>
<rscale>  0 0.12290776E+03</rscale>
<asrwt>0</asrwt>
<pdfrwt beam="2">  1        2 0.62852601E-01 0.13227005E+03</pdfrwt>
<pdfrwt beam="1">  1       -2 0.51133676E-02 0.13227005E+03</pdfrwt>
<totfact> 0.13902840E+04</totfact>
</mgrwt>
</event>
<event>
 8    1  0.1020295E-005  0.1568661E+03  0.7546771E-02  0.1203623E+00
          2   -1    0    0  501    0  0.00000000000E+00  0.00000000000E+00  0.99467305415E+03  0.99467305415E+03  0.00000000000E+00 0. -1.
         -2   -1    0    0    0  501 -0.00000000000E+00 -0.00000000000E+00 -0.20670649871E+02  0.20670649871E+02  0.00000000000E+00 0.  1.
         23    2    1    2    0    0  0.86925682291E+02 -0.37754314709E+02  0.65762175100E+03  0.67607199768E+03  0.12500206450E+03 0.  0.
         23    2    1    2    0    0 -0.86925682291E+02  0.37754314709E+02  0.31638065327E+03  0.33927170634E+03  0.77634466811E+02 0.  0.
          5    1    3    3  502    0 -0.20177369113E+02 -0.10136414329E+02  0.31857564476E+03  0.31940946222E+03  0.47000000000E+01 0. -1.
         -5    1    3    3    0  502  0.10710305140E+03 -0.27617900380E+02  0.33904610624E+03  0.35666253545E+03  0.47000000000E+01 0. -1.
        -11    1    4    4    0    0 -0.22902209713E+02  0.34839101824E+02  0.49094413931E+02  0.64409127496E+02  0.00000000000E+00 0.  1.
         11    1    4    4    0    0 -0.64023472579E+02  0.29152128845E+01  0.26728623934E+03  0.27486257885E+03  0.00000000000E+00 0. -1.
<mgrwt>
<rscale>  0 0.14746511E+03</rscale>
<asrwt>0</asrwt>
<pdfrwt beam="1">  1        2 0.15302659E+00 0.15686612E+03</pdfrwt>
<pdfrwt beam="2">  1       -2 0.31801008E-02 0.15686612E+03</pdfrwt>
<totfact> 0.99815846E+03</totfact>
</mgrwt>
</event>
<event>
 8    1  0.1020295E-005  0.1674881E+03  0.7546771E-02  0.1187361E+00
         -2   -1    0    0    0  501 -0.00000000000E+00  0.00000000000E+00  0.14827233432E+02  0.14827233432E+02  0.00000000000E+00 0.  1.
          2   -1    0    0  501    0  0.00000000000E+00 -0.00000000000E+00 -0.16347628151E+04  0.16347628151E+04  0.00000000000E+00 0. -1.
         23    2    1    2    0    0 -0.17874986881E+02 -0.11002944424E+03 -0.90227262878E+03  0.91768630345E+03  0.12500504445E+03 0.  0.
         23    2    1    2    0    0  0.17874986881E+02  0.11002944424E+03 -0.71766295289E+03  0.73190374508E+03  0.90647583322E+02 0.  0.
          5    1    3    3  502    0 -0.18804731723E+02  0.23516599868E+02 -0.25115303772E+03  0.25299523071E+03  0.47000000000E+01 0. -1.
         -5    1    3    3    0  502  0.92974484203E+00 -0.13354604411E+03 -0.65111959106E+03  0.66469107274E+03  0.47000000000E+01 0. -1.
        -11    1    4    4    0    0  0.51302785890E+02  0.39695603366E+02 -0.36809928537E+03  0.37377105380E+03  0.00000000000E+00 0. -1.
         11    1    4    4    0    0 -0.33427799010E+02  0.70333840872E+02 -0.34956366752E+03  0.35813269129E+03  0.00000000000E+00 0.  1.
<mgrwt>
<rscale>  0 0.16118865E+03</rscale>
<asrwt>0</asrwt>
<pdfrwt beam="2">  1        2 0.25150210E+00 0.16748807E+03</pdfrwt>
<pdfrwt beam="1">  1       -2 0.22811117E-02 0.16748807E+03</pdfrwt>
<totfact> 0.72758996E+03</totfact>
</mgrwt>
</event>
<event>
 7    1  0.1020295E-005  0.2413684E+03  0.7546771E-02  0.1128180E+00
         -2   -1    0    0    0  501 -0.00000000000E+00  0.00000000000E+00  0.46512006469E+02  0.46512006469E+02  0.00000000000E+00 0.  1.
          2   -1    0    0  501    0  0.00000000000E+00 -0.00000000000E+00 -0.13258410255E+04  0.13258410255E+04  0.00000000000E+00 0. -1.
         23    2    1    2    0    0  0.14053405286E+03 -0.93701424543E+02 -0.91829370100E+03  0.93806599899E+03  0.90414159213E+02 0.  0.
          5    1    1    2  502    0 -0.61065619370E+02  0.77510604649E+00 -0.28210027361E+03  0.28867328423E+03  0.47000000000E+01 0. -1.
         -5    1    1    2    0  502 -0.79468433492E+02  0.92926318497E+02 -0.78935044454E+02  0.14561374878E+03  0.47000000000E+01 0.  1.
        -11    1    3    3    0    0  0.25748723709E+01  0.14926737136E+02 -0.52284119020E+02  0.54434056903E+02  0.00000000000E+00 0.  1.
         11    1    3    3    0    0  0.13795918049E+03 -0.10862816168E+03 -0.86600958198E+03  0.88363194208E+03  0.00000000000E+00 0. -1.
<mgrwt>
<rscale>  0 0.22782442E+03</rscale>
<asrwt>0</asrwt>
<pdfrwt beam="2">  1        2 0.20397554E+00 0.24136844E+03</pdfrwt>
<pdfrwt beam="1">  1       -2 0.71556933E-02 0.24136844E+03</pdfrwt>
<totfact> 0.19125125E+03</totfact>
</mgrwt>
</event>
<event>
 8    1  0.1020295E-005  0.1761178E+03  0.7546771E-02  0.1177775E+00
         -1   -1    0    0    0  501 -0.00000000000E+00  0.00000000000E+00  0.86800840460E+02  0.86800840460E+02  0.00000000000E+00 0.  1.
          1   -1    0    0  501    0  0.00000000000E+00 -0.00000000000E+00 -0.33138106592E+03  0.33138106592E+03  0.00000000000E+00 0. -1.
         23    2    1    2    0    0  0.19361875903E+02  0.12254336006E+03 -0.80200842713E+02  0.19351912064E+03  0.12500287015E+03 0.  0.
         23    2    1    2    0    0 -0.19361875903E+02 -0.12254336006E+03 -0.16437938274E+03  0.22466278574E+03  0.89783230567E+02 0.  0.
          5    1    3    3  502    0  0.48083630024E+02  0.48020508138E+02 -0.90048876972E+02  0.11291100443E+03  0.47000000000E+01 0.  1.
         -5    1    3    3    0  502 -0.28721754121E+02  0.74522851926E+02  0.98480342595E+01  0.80608116203E+02  0.47000000000E+01 0.  1.
        -11    1    4    4    0    0 -0.34234940847E+02 -0.41493676233E+02 -0.11899274925E+03  0.13058725327E+03  0.00000000000E+00 0. -1.
         11    1    4    4    0    0  0.14873064944E+02 -0.81049683831E+02 -0.45386633493E+02  0.94075532471E+02  0.00000000000E+00 0.  1.
<mgrwt>
<rscale>  0 0.17006961E+03</rscale>
<asrwt>0</asrwt>
<pdfrwt beam="2">  1        1 0.50981702E-01 0.17611779E+03</pdfrwt>
<pdfrwt beam="1">  1       -1 0.13353976E-01 0.17611779E+03</pdfrwt>
<totfact> 0.29291791E+03</totfact>
</mgrwt>
</event>
<event>
 7    1  0.1020295E-005  0.4389640E+03  0.7546771E-02  0.1031065E+00
         -1   -1    0    0    0  501 -0.00000000000E+00  0.00000000000E+00  0.13224853133E+03  0.13224853133E+03  0.00000000000E+00 0.  1.
          1   -1    0    0  501    0  0.00000000000E+00 -0.00000000000E+00 -0.36425622437E+03  0.36425622437E+03  0.00000000000E+00 0. -1.
         23    2    1    2    0    0  0.54015779709E+02  0.56011519220E+02 -0.19766695468E+03  0.23139499589E+03  0.91741072642E+02 0.  0.
          5    1    1    2  502    0 -0.12584477344E+01  0.64185052930E+02 -0.99484926063E+02  0.11849322860E+03  0.47000000000E+01 0. -1.
         -5    1    1    2    0  502 -0.52757331975E+02 -0.12019657215E+03  0.65144187693E+02  0.14661653121E+03  0.47000000000E+01 0.  1.
        -11    1    3    3    0    0  0.45212069125E+02  0.29167300711E+02 -0.19582728433E+03  0.20308418922E+03  0.00000000000E+00 0. -1.
         11    1    3    3    0    0  0.88037105841E+01  0.26844218508E+02 -0.18396703526E+01  0.28310806671E+02  0.00000000000E+00 0.  1.
<mgrwt>
<rscale>  0 0.43896401E+03</rscale>
<asrwt>0</asrwt>
<pdfrwt beam="2">  1        1 0.56039418E-01 0.43896401E+03</pdfrwt>
<pdfrwt beam="1">  1       -1 0.20345928E-01 0.43896401E+03</pdfrwt>
<totfact> 0.13463056E+03</totfact>
</mgrwt>
</event>
<event>
 8    1  0.1020295E-005  0.1439136E+03  0.7546771E-02  0.1218473E+00
          1   -1    0    0  501    0  0.00000000000E+00  0.00000000000E+00  0.19160560069E+03  0.19160560069E+03  0.00000000000E+00 0. -1.
         -1   -1    0    0    0  501 -0.00000000000E+00 -0.00000000000E+00 -0.88505962282E+02  0.88505962282E+02  0.00000000000E+00 0.  1.
         23    2    1    2    0    0 -0.42950682887E+02  0.56915669949E+02  0.45376132065E+02  0.15089766795E+03  0.12500783250E+03 0.  0.
         23    2    1    2    0    0  0.42950682887E+02 -0.56915669949E+02  0.57723506344E+02  0.12921389502E+03  0.90994905549E+02 0.  0.
          5    1    3    3  502    0  0.28985517866E+02 -0.19200847451E+02  0.27434354760E+02  0.44537249690E+02  0.47000000000E+01 0.  1.
         -5    1    3    3    0  502 -0.71936200753E+02  0.76116517400E+02  0.17941777304E+02  0.10636041826E+03  0.47000000000E+01 0.  1.
        -11    1    4    4    0    0 -0.11345604783E+02  0.38382347716E+01 -0.15552948083E+02  0.19630307897E+02  0.00000000000E+00 0. -1.
         11    1    4    4    0    0  0.54296287671E+02 -0.60753904720E+02  0.73276454427E+02  0.10958358712E+03  0.00000000000E+00 0.  1.
<mgrwt>
<rscale>  0 0.13624459E+03</rscale>
<asrwt>0</asrwt>
<pdfrwt beam="1">  1        1 0.29477785E-01 0.14391356E+03</pdfrwt>
<pdfrwt beam="2">  1       -1 0.13616302E-01 0.14391356E+03</pdfrwt>
<totfact> 0.55635092E+03</totfact>
</mgrwt>
</event>
<event>
 7    1  0.1686513E-005  0.1211420E+03  0.7546771E-02  0.1298804E+00
         -1   -1    0    0    0  501 -0.00000000000E+00  0.00000000000E+00  0.75609713898E+02  0.75609713898E+02  0.00000000000E+00 0.  1.
          1   -1    0    0  501    0  0.00000000000E+00 -0.00000000000E+00 -0.16287711985E+03  0.16287711985E+03  0.00000000000E+00 0. -1.
         23    2    1    2    0    0 -0.15821461288E+02 -0.34668887319E+02  0.21180813489E+02  0.12297971406E+03  0.11499188157E+03 0.  0.
          5    1    3    3  502    0  0.25355638526E+02 -0.50467880027E+02 -0.22266480691E+02  0.60891719321E+02  0.47000000000E+01 0. -1.
         -5    1    3    3    0  502 -0.41177099815E+02  0.15798992709E+02  0.43447294179E+02  0.62087994743E+02  0.47000000000E+01 0.  1.
        -11    1    1    2    0    0  0.24019494909E+01  0.17700923458E+02 -0.55730090880E+02  0.58522944920E+02  0.00000000000E+00 0. -1.
         11    1    1    2    0    0  0.13419511797E+02  0.16967963861E+02 -0.52718128565E+02  0.56984174767E+02  0.00000000000E+00 0.  1.
<mgrwt>
<rscale>  0 0.91692402E+02</rscale>
<asrwt>0</asrwt>
<pdfrwt beam="2">  1        1 0.25058018E-01 0.12114200E+03</pdfrwt>
<pdfrwt beam="1">  1       -1 0.11632264E-01 0.12114200E+03</pdfrwt>
<totfact> 0.85896044E+03</totfact>
</mgrwt>
</event>
<event>
 8    1  0.1020295E-005  0.1301056E+03  0.7546771E-02  0.1241425E+00
         -4   -1    0    0    0  501 -0.00000000000E+00  0.00000000000E+00  0.27627473211E+02  0.27627473211E+02  0.00000000000E+00 0.  1.
          4   -1    0    0  501    0  0.00000000000E+00 -0.00000000000E+00 -0.66047023244E+03  0.66047023244E+03  0.00000000000E+00 0. -1.
         23    2    1    2    0    0 -0.29633187419E+02  0.20578405950E+02 -0.16448551824E+03  0.20972112762E+03  0.12500347623E+03 0.  0.
         23    2    1    2    0    0  0.29633187419E+02 -0.20578405950E+02 -0.46835724099E+03  0.47837657803E+03  0.90465731829E+02 0.  0.
          5    1    3    3  502    0  0.41869329292E+02 -0.13140791014E+02 -0.29067602343E+02  0.52846349257E+02  0.47000000000E+01 0. -1.
         -5    1    3    3    0  502 -0.71502516711E+02  0.33719196964E+02 -0.13541791590E+03  0.15687477836E+03  0.47000000000E+01 0. -1.
        -11    1    4    4    0    0  0.60989424620E+02 -0.21760480104E+01 -0.29040958018E+03  0.29675270742E+03  0.00000000000E+00 0.  1.
         11    1    4    4    0    0 -0.31356237201E+02 -0.18402357940E+02 -0.17794766081E+03  0.18162387062E+03  0.00000000000E+00 0. -1.
<mgrwt>
<rscale>  0 0.12101950E+03</rscale>
<asrwt>0</asrwt>
<pdfrwt beam="2">  1        4 0.10161080E+00 0.13010559E+03</pdfrwt>
<pdfrwt beam="1">  1       -4 0.42503807E-02 0.13010559E+03</pdfrwt>
<totfact> 0.42197296E+02</totfact>
</mgrwt>
</event>
<event>
 8    1  0.1020295E-005  0.1455407E+03  0.7546771E-02  0.1216456E+00
         -1   -1    0    0    0  501 -0.00000000000E+00  0.00000000000E+00  0.17695317157E+03  0.17695317157E+03  0.00000000000E+00 0.  1.
          1   -1    0    0  501    0  0.00000000000E+00 -0.00000000000E+00 -0.13877728119E+03  0.13877728119E+03  0.00000000000E+00 0. -1.
         23    2    1    2    0    0 -0.67319103137E+02 -0.32010833678E+02  0.10669975054E+03  0.18046312259E+03  0.12500218690E+03 0.  0.
         23    2    1    2    0    0  0.67319103137E+02  0.32010833678E+02 -0.68523860162E+02  0.13526733016E+03  0.89694905524E+02 0.  0.
          5    1    3    3  502    0 -0.95044264577E+02  0.19523259633E+01  0.46744827848E+02  0.10603958099E+03  0.47000000000E+01 0. -1.
         -5    1    3    3    0  502  0.27725161440E+02 -0.33963159641E+02  0.59954922695E+02  0.74423541605E+02  0.47000000000E+01 0. -1.
        -11    1    4    4    0    0  0.35279066508E+02  0.50760398917E+02 -0.75412821021E+02  0.97510636375E+02  0.00000000000E+00 0. -1.
         11    1    4    4    0    0  0.32040036629E+02 -0.18749565239E+02  0.68889608589E+01  0.37756693785E+02  0.00000000000E+00 0.  1.
<mgrwt>
<rscale>  0 0.13770118E+03</rscale>
<asrwt>0</asrwt>
<pdfrwt beam="2">  1        1 0.21350351E-01 0.14554072E+03</pdfrwt>
<pdfrwt beam="1">  1       -1 0.27223565E-01 0.14554072E+03</pdfrwt>
<totfact> 0.27468494E+03</totfact>
</mgrwt>
</event>
<event>
 8    1  0.1020295E-005  0.1369348E+03  0.7546771E-02  0.1229024E+00
         -4   -1    0    0    0  501 -0.00000000000E+00  0.00000000000E+00  0.42076811689E+02  0.42076811689E+02  0.00000000000E+00 0.  1.
          4   -1    0    0  501    0  0.00000000000E+00 -0.00000000000E+00 -0.35626872460E+03  0.35626872460E+03  0.00000000000E+00 0. -1.
         23    2    1    2    0    0 -0.47355487376E+02  0.29758904692E+02 -0.16674735733E+03  0.21576797417E+03  0.12499201137E+03 0.  0.
         23    2    1    2    0    0  0.47355487376E+02 -0.29758904692E+02 -0.14744455558E+03  0.18257756212E+03  0.92013774115E+02 0.  0.
          5    1    3    3  502    0 -0.87475398494E+01  0.74854476615E+02 -0.11062348116E+03  0.13393788376E+03  0.47000000000E+01 0. -1.
         -5    1    3    3    0  502 -0.38607947527E+02 -0.45095571923E+02 -0.56123876169E+02  0.81830090404E+02  0.47000000000E+01 0. -1.
        -11    1    4    4    0    0  0.50527921755E+01 -0.18110283693E+02  0.84590923291E+01  0.20617209492E+02  0.00000000000E+00 0.  1.
         11    1    4    4    0    0  0.42302695201E+02 -0.11648620999E+02 -0.15590364791E+03  0.16196035263E+03  0.00000000000E+00 0. -1.
<mgrwt>
<rscale>  0 0.12894890E+03</rscale>
<asrwt>0</asrwt>
<pdfrwt beam="2">  1        4 0.54810573E-01 0.13693479E+03</pdfrwt>
<pdfrwt beam="1">  1       -4 0.64733556E-02 0.13693479E+03</pdfrwt>
<totfact> 0.83349707E+02</totfact>
</mgrwt>
</event>
<event>
 8    1  0.1020295E-005  0.1735925E+03  0.7546771E-02  0.1180117E+00
          4   -1    0    0  501    0  0.00000000000E+00  0.00000000000E+00  0.13123527128E+03  0.13123527128E+03  0.00000000000E+00 0.  1.
         -4   -1    0    0    0  501 -0.00000000000E+00 -0.00000000000E+00 -0.40579967566E+03  0.40579967566E+03  0.00000000000E+00 0. -1.
         23    2    1    2    0    0 -0.10403946941E+03 -0.60765217401E+02 -0.33214089717E+03  0.37476915320E+03  0.12497087569E+03 0.  0.
         23    2    1    2    0    0  0.10403946941E+03  0.60765217401E+02  0.57576492792E+02  0.16226579374E+03  0.92187376877E+02 0.  0.
          5    1    3    3  502    0 -0.79178128896E+02 -0.56107313050E+01 -0.70773639164E+02  0.10645024378E+03  0.47000000000E+01 0. -1.
         -5    1    3    3    0  502 -0.24861340512E+02 -0.55154486096E+02 -0.26136725801E+03  0.26831890941E+03  0.47000000000E+01 0. -1.
        -11    1    4    4    0    0  0.17967485515E+02  0.27032728630E+02  0.61711451429E+02  0.69727341770E+02  0.00000000000E+00 0.  1.
         11    1    4    4    0    0  0.86071983894E+02  0.33732488771E+02 -0.41349586371E+01  0.92538451970E+02  0.00000000000E+00 0. -1.
<mgrwt>
<rscale>  0 0.16784169E+03</rscale>
<asrwt>0</asrwt>
<pdfrwt beam="1">  1        4 0.20190042E-01 0.17359246E+03</pdfrwt>
<pdfrwt beam="2">  1       -4 0.62430719E-01 0.17359246E+03</pdfrwt>
<totfact> 0.94234868E+01</totfact>
</mgrwt>
</event>
<event>
 8    1  0.1020295E-005  0.2221616E+03  0.7546771E-02  0.1135549E+00
         -1   -1    0    0    0  501 -0.00000000000E+00  0.00000000000E+00  0.21940661253E+04  0.21940661253E+04  0.00000000000E+00 0.  1.
          1   -1    0    0  501    0  0.00000000000E+00 -0.00000000000E+00 -0.21002227323E+02  0.21002227323E+02  0.00000000000E+00 0. -1.
         23    2    1    2    0    0 -0.71909246504E+02 -0.16896362050E+03  0.12365989167E+04  0.12563966963E+04  0.12504452364E+03 0.  0.
         23    2    1    2    0    0  0.71909246504E+02  0.16896362050E+03  0.93646498131E+03  0.95867165636E+03  0.91460585540E+02 0.  0.
          5    1    3    3  502    0 -0.45136381710E+02  0.48187705909E+01  0.21848512916E+03  0.22320025799E+03  0.47000000000E+01 0. -1.
         -5    1    3    3    0  502 -0.26772864794E+02 -0.17378239109E+03  0.10181137876E+04  0.10331964383E+04  0.47000000000E+01 0. -1.
        -11    1    4    4    0    0  0.30737191450E+02  0.34475037763E+02  0.96162868121E+02  0.10667989676E+03  0.00000000000E+00 0. -1.
         11    1    4    4    0    0  0.41172055054E+02  0.13448858274E+03  0.84030211319E+03  0.85199175960E+03  0.00000000000E+00 0.  1.
<mgrwt>
<rscale>  0 0.21777963E+03</rscale>
<asrwt>0</asrwt>
<pdfrwt beam="2">  1        1 0.32311136E-02 0.22216160E+03</pdfrwt>
<pdfrwt beam="1">  1       -1 0.33754845E+00 0.22216160E+03</pdfrwt>
<totfact> 0.69326238E+01</totfact>
</mgrwt>
</event>
<event>
 8    1  0.1020295E-005  0.3347091E+03  0.7546771E-02  0.1070222E+00
          1   -1    0    0  501    0  0.00000000000E+00  0.00000000000E+00  0.22058661382E+03  0.22058661382E+03  0.00000000000E+00 0. -1.
         -1   -1    0    0    0  501 -0.00000000000E+00 -0.00000000000E+00 -0.74151390398E+03  0.74151390398E+03  0.00000000000E+00 0.  1.
         23    2    1    2    0    0 -0.30816805576E+03 -0.37904339842E+02 -0.54210198281E+03  0.63710653814E+03  0.12500356635E+03 0.  0.
         23    2    1    2    0    0  0.30816805576E+03  0.37904339842E+02  0.21174692648E+02  0.32499397967E+03  0.93639893426E+02 0.  0.
          5    1    3    3  502    0 -0.44083385736E+02  0.28485111924E+02 -0.40954990107E+02  0.66739401510E+02  0.47000000000E+01 0.  1.
         -5    1    3    3    0  502 -0.26408467003E+03 -0.66389451766E+02 -0.50114699270E+03  0.57036713663E+03  0.47000000000E+01 0.  1.
        -11    1    4    4    0    0  0.13267180816E+03  0.62986498339E+02  0.45197550619E+01  0.14693378045E+03  0.00000000000E+00 0.  1.
         11    1    4    4    0    0  0.17549624761E+03 -0.25082158497E+02  0.16654937586E+02  0.17806019921E+03  0.00000000000E+00 0. -1.
<mgrwt>
<rscale>  0 0.33207679E+03</rscale>
<asrwt>0</asrwt>
<pdfrwt beam="1">  1        1 0.33936403E-01 0.33470910E+03</pdfrwt>
<pdfrwt beam="2">  1       -1 0.11407906E+00 0.33470910E+03</pdfrwt>
<totfact> 0.96458825E+01</totfact>
</mgrwt>
</event>
<event>
 8    1  0.1020295E-005  0.1418155E+03  0.7546771E-02  0.1217492E+00
          1   -1    0    0  501    0  0.00000000000E+00  0.00000000000E+00  0.21537088643E+03  0.21537088643E+03  0.00000000000E+00 0. -1.
         -1   -1    0    0    0  501 -0.00000000000E+00 -0.00000000000E+00 -0.10837102421E+03  0.10837102421E+03  0.00000000000E+00 0.  1.
         23    2    1    2    0    0 -0.45671245722E+02  0.68341894755E+02 -0.23984531962E+02  0.14382937027E+03  0.11556449591E+03 0.  0.
         23    2    1    2    0    0  0.45671245722E+02 -0.68341894755E+02  0.13098439418E+03  0.17991254037E+03  0.91951799334E+02 0.  0.
          5    1    3    3  502    0 -0.38418827126E+01 -0.28163238152E+02 -0.25586640527E+02  0.38531730035E+02  0.47000000000E+01 0. -1.
         -5    1    3    3    0  502 -0.41829363010E+02  0.96505132907E+02  0.16021085653E+01  0.10529764023E+03  0.47000000000E+01 0.  1.
        -11    1    4    4    0    0 -0.83928082827E+01 -0.61185035409E+02  0.99017604452E+02  0.11669847377E+03  0.00000000000E+00 0. -1.
         11    1    4    4    0    0  0.54064054005E+02 -0.71568593452E+01  0.31966789728E+02  0.63214066604E+02  0.00000000000E+00 0.  1.
<mgrwt>
<rscale>  0 0.13695082E+03</rscale>
<asrwt>0</asrwt>
<pdfrwt beam="1">  1        1 0.33133982E-01 0.14181548E+03</pdfrwt>
<pdfrwt beam="2">  1       -1 0.16672465E-01 0.14181548E+03</pdfrwt>
<totfact> 0.34976916E+03</totfact>
</mgrwt>
</event>
<event>
 8    1  0.1020295E-005  0.1330410E+03  0.7546771E-02  0.1235589E+00
          1   -1    0    0  501    0  0.00000000000E+00  0.00000000000E+00  0.12114296391E+03  0.12114296391E+03  0.00000000000E+00 0. -1.
         -1   -1    0    0    0  501 -0.00000000000E+00 -0.00000000000E+00 -0.12944473624E+03  0.12944473624E+03  0.00000000000E+00 0.  1.
         23    2    1    2    0    0  0.44873013566E+02 -0.78346869402E+01 -0.46783325587E+02  0.14102693743E+03  0.12499979145E+03 0.  0.
         23    2    1    2    0    0 -0.44873013566E+02  0.78346869402E+01  0.38481553260E+02  0.10956076272E+03  0.91911702846E+02 0.  0.
          5    1    3    3  502    0  0.11238717332E+01 -0.23369159314E+02  0.37639321907E+02  0.44566683165E+02  0.47000000000E+01 0.  1.
         -5    1    3    3    0  502  0.43749141832E+02  0.15534472374E+02 -0.84422647495E+02  0.96460254266E+02  0.47000000000E+01 0.  1.
        -11    1    4    4    0    0 -0.50447544651E+02  0.28796214123E+02  0.56745824746E+02  0.81205081954E+02  0.00000000000E+00 0. -1.
         11    1    4    4    0    0  0.55745310851E+01 -0.20961527183E+02 -0.18264271486E+02  0.28355680764E+02  0.00000000000E+00 0.  1.
<mgrwt>
<rscale>  0 0.12466808E+03</rscale>
<asrwt>0</asrwt>
<pdfrwt beam="1">  1        1 0.18637379E-01 0.13304104E+03</pdfrwt>
<pdfrwt beam="2">  1       -1 0.19914575E-01 0.13304104E+03</pdfrwt>
<totfact> 0.54117641E+03</totfact>
</mgrwt>
</event>
<event>
 8    1  0.1020295E-005  0.2218512E+03  0.7546771E-02  0.1135929E+00
         -1   -1    0    0    0  501 -0.00000000000E+00  0.00000000000E+00  0.79765802167E+02  0.79765802167E+02  0.00000000000E+00 0.  1.
          1   -1    0    0  501    0  0.00000000000E+00 -0.00000000000E+00 -0.59381131858E+03  0.59381131858E+03  0.00000000000E+00 0. -1.
         23    2    1    2    0    0  0.82262890658E+02  0.16378212418E+03 -0.19806118450E+03  0.29739905540E+03  0.12500479178E+03 0.  0.
         23    2    1    2    0    0 -0.82262890658E+02 -0.16378212418E+03 -0.31598433192E+03  0.37617806535E+03  0.89844707437E+02 0.  0.
          5    1    3    3  502    0 -0.30631476226E+02  0.53982200742E+02 -0.75101458040E+02  0.97543243397E+02  0.47000000000E+01 0.  1.
         -5    1    3    3    0  502  0.11289436688E+03  0.10979992343E+03 -0.12295972646E+03  0.19985581200E+03  0.47000000000E+01 0.  1.
        -11    1    4    4    0    0  0.64367817978E+01 -0.30238670849E+02 -0.11501670780E+03  0.11909933857E+03  0.00000000000E+00 0.  1.
         11    1    4    4    0    0 -0.88699672456E+02 -0.13354345333E+03 -0.20096762412E+03  0.25707872679E+03  0.00000000000E+00 0. -1.
<mgrwt>
<rscale>  0 0.21727826E+03</rscale>
<asrwt>0</asrwt>
<pdfrwt beam="2">  1        1 0.91355587E-01 0.22185122E+03</pdfrwt>
<pdfrwt beam="1">  1       -1 0.12271662E-01 0.22185122E+03</pdfrwt>
<totfact> 0.15737432E+03</totfact>
</mgrwt>
</event>
<event>
 8    1  0.1020295E-005  0.1263968E+03  0.7546771E-02  0.1247953E+00
         -1   -1    0    0    0  501 -0.00000000000E+00  0.00000000000E+00  0.21006332709E+03  0.21006332709E+03  0.00000000000E+00 0.  1.
          1   -1    0    0  501    0  0.00000000000E+00 -0.00000000000E+00 -0.59452517641E+02  0.59452517641E+02  0.00000000000E+00 0. -1.
         23    2    1    2    0    0 -0.12060083606E+00  0.18762272946E+02  0.11136344926E+03  0.16845764016E+03  0.12499648502E+03 0.  0.
         23    2    1    2    0    0  0.12060083606E+00 -0.18762272946E+02  0.39247360190E+02  0.10105820457E+03  0.91216051210E+02 0.  0.
          5    1    3    3  502    0  0.55623050878E+02 -0.18568168118E+02  0.57909593108E+02  0.82548843906E+02  0.47000000000E+01 0.  1.
         -5    1    3    3    0  502 -0.55743651714E+02  0.37330441064E+02  0.53453856150E+02  0.85908796254E+02  0.47000000000E+01 0.  1.
        -11    1    4    4    0    0 -0.33018068219E+02 -0.34173165565E+02  0.12157174595E+00  0.47518552727E+02  0.00000000000E+00 0. -1.
         11    1    4    4    0    0  0.33138669055E+02  0.15410892618E+02  0.39125788444E+02  0.53539651842E+02  0.00000000000E+00 0.  1.
<mgrwt>
<rscale>  0 0.11710342E+03</rscale>
<asrwt>0</asrwt>
<pdfrwt beam="2">  1        1 0.91465413E-02 0.12639683E+03</pdfrwt>
<pdfrwt beam="1">  1       -1 0.32317435E-01 0.12639683E+03</pdfrwt>
<totfact> 0.61478345E+03</totfact>
</mgrwt>
</event>
<event>
 8    1  0.1020295E-005  0.2079305E+03  0.7546771E-02  0.1146923E+00
          2   -1    0    0  501    0  0.00000000000E+00  0.00000000000E+00  0.11912036806E+03  0.11912036806E+03  0.00000000000E+00 0. -1.
         -2   -1    0    0    0  501 -0.00000000000E+00 -0.00000000000E+00 -0.35869174682E+03  0.35869174682E+03  0.00000000000E+00 0.  1.
         23    2    1    2    0    0  0.13813847383E+03 -0.92352195633E+02 -0.18880799304E+03  0.28086216718E+03  0.12499573083E+03 0.  0.
         23    2    1    2    0    0 -0.13813847383E+03  0.92352195633E+02 -0.50763385716E+02  0.19694994771E+03  0.92742625496E+02 0.  0.
          5    1    3    3  502    0  0.78475540967E+02 -0.11159512397E+03 -0.16375352108E+03  0.21318815138E+03  0.47000000000E+01 0. -1.
         -5    1    3    3    0  502  0.59662932861E+02  0.19242928338E+02 -0.25054471968E+02  0.67674015798E+02  0.47000000000E+01 0. -1.
        -11    1    4    4    0    0 -0.25860127144E+02  0.67092922854E+02 -0.19210035487E+01  0.71929804168E+02  0.00000000000E+00 0. -1.
         11    1    4    4    0    0 -0.11227834668E+03  0.25259272779E+02 -0.48842382167E+02  0.12502014354E+03  0.00000000000E+00 0.  1.
<mgrwt>
<rscale>  0 0.20337416E+03</rscale>
<asrwt>0</asrwt>
<pdfrwt beam="1">  1        2 0.18326211E-01 0.20793051E+03</pdfrwt>
<pdfrwt beam="2">  1       -2 0.55183345E-01 0.20793051E+03</pdfrwt>
<totfact> 0.96095920E+02</totfact>
</mgrwt>
</event>
<event>
 8    1  0.1020295E-005  0.1319587E+03  0.7546771E-02  0.1237573E+00
          1   -1    0    0  501    0  0.00000000000E+00  0.00000000000E+00  0.40971387631E+02  0.40971387631E+02  0.00000000000E+00 0. -1.
         -1   -1    0    0    0  501 -0.00000000000E+00 -0.00000000000E+00 -0.59988343414E+03  0.59988343414E+03  0.00000000000E+00 0.  1.
         23    2    1    2    0    0  0.47674708760E+01  0.42026751091E+02 -0.51345602076E+03  0.53014166750E+03  0.12499650308E+03 0.  0.
         23    2    1    2    0    0 -0.47674708760E+01 -0.42026751091E+02 -0.45456025751E+02  0.11071315427E+03  0.91663382360E+02 0.  0.
          5    1    3    3  502    0  0.61230804243E+02  0.16467619590E+02 -0.33979325717E+03  0.34569052851E+03  0.47000000000E+01 0. -1.
         -5    1    3    3    0  502 -0.56463333367E+02  0.25559131501E+02 -0.17366276360E+03  0.18445113900E+03  0.47000000000E+01 0. -1.
        -11    1    4    4    0    0  0.33180775674E+02 -0.28886824217E+02 -0.54003530160E+02  0.69654818623E+02  0.00000000000E+00 0.  1.
         11    1    4    4    0    0 -0.37948246550E+02 -0.13139926874E+02  0.85475044097E+01  0.41058335647E+02  0.00000000000E+00 0. -1.
<mgrwt>
<rscale>  0 0.12341174E+03</rscale>
<asrwt>0</asrwt>
<pdfrwt beam="1">  1        1 0.63032909E-02 0.13195871E+03</pdfrwt>
<pdfrwt beam="2">  1       -1 0.92289752E-01 0.13195871E+03</pdfrwt>
<totfact> 0.14182080E+03</totfact>
</mgrwt>
</event>
<event>
 8    1  0.1020295E-005  0.1153264E+03  0.7546771E-02  0.1267132E+00
          2   -1    0    0  501    0  0.00000000000E+00  0.00000000000E+00  0.57474787431E+02  0.57474787431E+02  0.00000000000E+00 0. -1.
         -2   -1    0    0    0  501 -0.00000000000E+00 -0.00000000000E+00 -0.18321761258E+03  0.18321761258E+03  0.00000000000E+00 0.  1.
         23    2    1    2    0    0  0.17232202301E+02 -0.72632038487E+00 -0.10060625783E+03  0.15304185378E+03  0.11402944161E+03 0.  0.
         23    2    1    2    0    0 -0.17232202301E+02  0.72632038487E+00 -0.25136567312E+02  0.87650546232E+02  0.82178433309E+02 0.  0.
          5    1    3    3  502    0  0.47691446964E+02  0.20555761556E+02 -0.74960799347E+01  0.52681065489E+02  0.47000000000E+01 0. -1.
         -5    1    3    3    0  502 -0.30459244663E+02 -0.21282081941E+02 -0.93110177899E+02  0.10036078829E+03  0.47000000000E+01 0.  1.
        -11    1    4    4    0    0 -0.10051346576E+02  0.40230323667E+02 -0.23055303979E+02  0.47445290092E+02  0.00000000000E+00 0. -1.
         11    1    4    4    0    0 -0.71808557251E+01 -0.39504003282E+02 -0.20812633326E+01  0.40205256140E+02  0.00000000000E+00 0.  1.
<mgrwt>
<rscale>  0 0.10653106E+03</rscale>
<asrwt>0</asrwt>
<pdfrwt beam="1">  1        2 0.88422750E-02 0.11532645E+03</pdfrwt>
<pdfrwt beam="2">  1       -2 0.28187325E-01 0.11532645E+03</pdfrwt>
<totfact> 0.79668250E+03</totfact>
</mgrwt>
</event>
<event>
 8    1  0.1020295E-005  0.1419495E+03  0.7546771E-02  0.1214998E+00
         -1   -1    0    0    0  501 -0.00000000000E+00  0.00000000000E+00  0.36040031344E+02  0.36040031344E+02  0.00000000000E+00 0.  1.
          1   -1    0    0  501    0  0.00000000000E+00 -0.00000000000E+00 -0.56549401456E+03  0.56549401456E+03  0.00000000000E+00 0. -1.
         23    2    1    2    0    0 -0.51432183543E+00 -0.67260879694E+02 -0.18286877583E+03  0.23149654353E+03  0.12500148011E+03 0.  0.
         23    2    1    2    0    0  0.51432183543E+00  0.67260879694E+02 -0.34658520738E+03  0.37003750237E+03  0.11082489215E+03 0.  0.
          5    1    3    3  502    0 -0.40501864261E+02 -0.47518412846E+02 -0.25063858009E+02  0.67443958561E+02  0.47000000000E+01 0. -1.
         -5    1    3    3    0  502  0.39987542426E+02 -0.19742466848E+02 -0.15780491783E+03  0.16405258497E+03  0.47000000000E+01 0. -1.
        -11    1    4    4    0    0  0.16059912503E+02  0.93928317121E+02 -0.29405127790E+03  0.30910613643E+03  0.00000000000E+00 0.  1.
         11    1    4    4    0    0 -0.15545590668E+02 -0.26667437427E+02 -0.52533929486E+02  0.60931365940E+02  0.00000000000E+00 0. -1.
<mgrwt>
<rscale>  0 0.13876658E+03</rscale>
<asrwt>0</asrwt>
<pdfrwt beam="2">  1        1 0.86999069E-01 0.14194950E+03</pdfrwt>
<pdfrwt beam="1">  1       -1 0.55446209E-02 0.14194950E+03</pdfrwt>
<totfact> 0.55578975E+03</totfact>
</mgrwt>
</event>
<event>
 8    1  0.1020295E-005  0.1782130E+03  0.7546771E-02  0.1175320E+00
          1   -1    0    0  501    0  0.00000000000E+00  0.00000000000E+00  0.75326110639E+03  0.75326110639E+03  0.00000000000E+00 0. -1.
         -1   -1    0    0    0  501 -0.00000000000E+00 -0.00000000000E+00 -0.39347830368E+02  0.39347830368E+02  0.00000000000E+00 0.  1.
         23    2    1    2    0    0 -0.10990025208E+03 -0.63651622327E+02  0.28508653649E+03  0.33620558282E+03  0.12502106302E+03 0.  0.
         23    2    1    2    0    0  0.10990025208E+03  0.63651622327E+02  0.42882673954E+03  0.45640335395E+03  0.91005793871E+02 0.  0.
          5    1    3    3  502    0 -0.20209014298E+02  0.27282928316E+02  0.15021261076E+02  0.37423130825E+02  0.47000000000E+01 0. -1.
         -5    1    3    3    0  502 -0.89691237780E+02 -0.90934550643E+02  0.27006527541E+03  0.29878245199E+03  0.47000000000E+01 0. -1.
        -11    1    4    4    0    0  0.31428853117E+02  0.68592607079E+02  0.24796740997E+03  0.25919211979E+03  0.00000000000E+00 0. -1.
         11    1    4    4    0    0  0.78471398961E+02 -0.49409847521E+01  0.18085932957E+03  0.19721123416E+03  0.00000000000E+00 0.  1.
<mgrwt>
<rscale>  0 0.17244639E+03</rscale>
<asrwt>0</asrwt>
<pdfrwt beam="1">  1        1 0.11588631E+00 0.17821296E+03</pdfrwt>
<pdfrwt beam="2">  1       -1 0.60535129E-02 0.17821296E+03</pdfrwt>
<totfact> 0.32868570E+03</totfact>
</mgrwt>
</event>
<event>
 8    1  0.1020295E-005  0.1263058E+03  0.7546771E-02  0.1248500E+00
          2   -1    0    0  501    0  0.00000000000E+00  0.00000000000E+00  0.80347205558E+02  0.80347205558E+02  0.00000000000E+00 0.  1.
         -2   -1    0    0    0  501 -0.00000000000E+00 -0.00000000000E+00 -0.18737035241E+03  0.18737035241E+03  0.00000000000E+00 0. -1.
         23    2    1    2    0    0  0.85620498372E+01  0.15819926058E+02 -0.12033515102E+03  0.17445256997E+03  0.12501828603E+03 0.  0.
         23    2    1    2    0    0 -0.85620498372E+01 -0.15819926058E+02  0.13312004166E+02  0.93264987996E+02  0.90540431703E+02 0.  0.
          5    1    3    3  502    0 -0.12574016891E+02 -0.44092848006E+02 -0.95568483029E+02  0.10610235669E+03  0.47000000000E+01 0.  1.
         -5    1    3    3    0  502  0.21136066728E+02  0.59912774063E+02 -0.24766667988E+02  0.68350213284E+02  0.47000000000E+01 0.  1.
        -11    1    4    4    0    0  0.36971855627E+01 -0.29428127954E+02 -0.32456810845E+02  0.43967356825E+02  0.00000000000E+00 0. -1.
         11    1    4    4    0    0 -0.12259235400E+02  0.13608201896E+02  0.45768815011E+02  0.49297631170E+02  0.00000000000E+00 0.  1.
<mgrwt>
<rscale>  0 0.11678302E+03</rscale>
<asrwt>0</asrwt>
<pdfrwt beam="1">  1        2 0.12361109E-01 0.12630578E+03</pdfrwt>
<pdfrwt beam="2">  1       -2 0.28826208E-01 0.12630578E+03</pdfrwt>
<totfact> 0.51295380E+03</totfact>
</mgrwt>
</event>
<event>
 7    1  0.1020295E-005  0.2918385E+03  0.7546771E-02  0.1119884E+00
          2   -1    0    0  501    0  0.00000000000E+00  0.00000000000E+00  0.17440892931E+03  0.17440892931E+03  0.00000000000E+00 0. -1.
         -2   -1    0    0    0  501 -0.00000000000E+00 -0.00000000000E+00 -0.29853159768E+03  0.29853159768E+03  0.00000000000E+00 0.  1.
         23    2    1    2    0    0 -0.47346319994E+02 -0.89439100762E+02  0.38789723354E+02  0.13870985820E+03  0.86572255154E+02 0.  0.
          5    1    1    2  502    0 -0.10672176906E+03  0.85169928650E+01 -0.20044770073E+02  0.10902274059E+03  0.47000000000E+01 0. -1.
         -5    1    1    2    0  502  0.15406808905E+03  0.80922107897E+02 -0.14286762165E+03  0.22520792820E+03  0.47000000000E+01 0.  1.
        -11    1    3    3    0    0  0.23710492896E+02 -0.36406641052E+02  0.46335968320E+01  0.43693262704E+02  0.00000000000E+00 0. -1.
         11    1    3    3    0    0 -0.71056812891E+02 -0.53032459710E+02  0.34156126522E+02  0.95016595499E+02  0.00000000000E+00 0.  1.
<mgrwt>
<rscale>  0 0.23986297E+03</rscale>
<asrwt>0</asrwt>
<pdfrwt beam="1">  1        2 0.26832143E-01 0.29183847E+03</pdfrwt>
<pdfrwt beam="2">  1       -2 0.45927938E-01 0.29183847E+03</pdfrwt>
<totfact> 0.90557713E+02</totfact>
</mgrwt>
</event>
<event>
 8    1  0.1020295E-005  0.1282195E+03  0.7546771E-02  0.1243764E+00
          1   -1    0    0  501    0  0.00000000000E+00  0.00000000000E+00  0.47909956667E+03  0.47909956667E+03  0.00000000000E+00 0. -1.
         -1   -1    0    0    0  501 -0.00000000000E+00 -0.00000000000E+00 -0.30818655008E+02  0.30818655008E+02  0.00000000000E+00 0.  1.
         23    2    1    2    0    0  0.22294981194E+02  0.17814530209E+02  0.15592415602E+03  0.20187270466E+03  0.12500329108E+03 0.  0.
         23    2    1    2    0    0 -0.22294981194E+02 -0.17814530209E+02  0.29235675564E+03  0.30804551702E+03  0.92763917100E+02 0.  0.
          5    1    3    3  502    0  0.19449689088E+02 -0.46949877443E+02  0.27586461881E+02  0.58014517810E+02  0.47000000000E+01 0.  1.
         -5    1    3    3    0  502  0.28452921061E+01  0.64764407652E+02  0.12833769414E+03  0.14385818685E+03  0.47000000000E+01 0.  1.
        -11    1    4    4    0    0 -0.18394513893E+02 -0.48688115582E+02  0.25071662215E+03  0.25606193658E+03  0.00000000000E+00 0. -1.
         11    1    4    4    0    0 -0.39004673007E+01  0.30873585373E+02  0.41640133490E+02  0.51983580446E+02  0.00000000000E+00 0.  1.
<mgrwt>
<rscale>  0 0.11959678E+03</rscale>
<asrwt>0</asrwt>
<pdfrwt beam="1">  1        1 0.73707620E-01 0.12821952E+03</pdfrwt>
<pdfrwt beam="2">  1       -1 0.47413319E-02 0.12821952E+03</pdfrwt>
<totfact> 0.86614498E+03</totfact>
</mgrwt>
</event>
<event>
 8    1  0.1020295E-005  0.1263376E+03  0.7546771E-02  0.1249917E+00
         -1   -1    0    0    0  501 -0.00000000000E+00  0.00000000000E+00  0.11179343410E+03  0.11179343410E+03  0.00000000000E+00 0. -1.
          1   -1    0    0  501    0  0.00000000000E+00 -0.00000000000E+00 -0.10434182775E+03  0.10434182775E+03  0.00000000000E+00 0.  1.
         23    2    1    2    0    0 -0.18108988281E+02 -0.28889605932E+01  0.51923598624E+01  0.12644426102E+03  0.12499963598E+03 0.  0.
         23    2    1    2    0    0  0.18108988281E+02  0.28889605932E+01  0.22592464910E+01  0.89691000824E+02  0.87767248357E+02 0.  0.
          5    1    3    3  502    0 -0.22370503395E+01 -0.27095354178E+02 -0.53857594398E+02  0.60513577705E+02  0.47000000000E+01 0.  1.
         -5    1    3    3    0  502 -0.15871937941E+02  0.24206393585E+02  0.59049954261E+02  0.65930683317E+02  0.47000000000E+01 0.  1.
        -11    1    4    4    0    0  0.23860436743E+02  0.15589816333E+02 -0.37761815445E+02  0.47310860493E+02  0.00000000000E+00 0.  1.
         11    1    4    4    0    0 -0.57514484624E+01 -0.12700855740E+02  0.40021061936E+02  0.42380140331E+02  0.00000000000E+00 0. -1.
<mgrwt>
<rscale>  0 0.11595841E+03</rscale>
<asrwt>0</asrwt>
<pdfrwt beam="2">  1        1 0.16052589E-01 0.12633761E+03</pdfrwt>
<pdfrwt beam="1">  1       -1 0.17198990E-01 0.12633761E+03</pdfrwt>
<totfact> 0.82442850E+03</totfact>
</mgrwt>
</event>
<event>
 8    1  0.1020295E-005  0.1332636E+03  0.7546771E-02  0.1235720E+00
          1   -1    0    0  501    0  0.00000000000E+00  0.00000000000E+00  0.12254306597E+02  0.12254306597E+02  0.00000000000E+00 0. -1.
         -1   -1    0    0    0  501 -0.00000000000E+00 -0.00000000000E+00 -0.11607483551E+04  0.11607483551E+04  0.00000000000E+00 0.  1.
         23    2    1    2    0    0 -0.12181058812E+02 -0.44533244212E+02 -0.74775530565E+03  0.75953748332E+03  0.12501041322E+03 0.  0.
         23    2    1    2    0    0  0.12181058812E+02  0.44533244212E+02 -0.40073874284E+03  0.41346517836E+03  0.90721142351E+02 0.  0.
          5    1    3    3  502    0 -0.55305487041E+02 -0.33471347381E+02 -0.63377322505E+03  0.63707897374E+03  0.47000000000E+01 0. -1.
         -5    1    3    3    0  502  0.43124428229E+02 -0.11061896831E+02 -0.11398208060E+03  0.12245850959E+03  0.47000000000E+01 0. -1.
        -11    1    4    4    0    0  0.14803200138E+01 -0.22063903686E+02 -0.33887130576E+02  0.40464117584E+02  0.00000000000E+00 0. -1.
         11    1    4    4    0    0  0.10700738798E+02  0.66597147898E+02 -0.36685161226E+03  0.37300106078E+03  0.00000000000E+00 0.  1.
<mgrwt>
<rscale>  0 0.12458441E+03</rscale>
<asrwt>0</asrwt>
<pdfrwt beam="1">  1        1 0.18852783E-02 0.13326362E+03</pdfrwt>
<pdfrwt beam="2">  1       -1 0.17857664E+00 0.13326362E+03</pdfrwt>
<totfact> 0.14983948E+03</totfact>
</mgrwt>
</event>
<event>
 8    1  0.1020295E-005  0.1266017E+03  0.7546771E-02  0.1246446E+00
          2   -1    0    0  501    0  0.00000000000E+00  0.00000000000E+00  0.21060446814E+03  0.21060446814E+03  0.00000000000E+00 0. -1.
         -2   -1    0    0    0  501 -0.00000000000E+00 -0.00000000000E+00 -0.59021572155E+02  0.59021572155E+02  0.00000000000E+00 0.  1.
         23    2    1    2    0    0  0.20319712249E+02  0.22257298294E+01  0.74615490137E+02  0.14695390461E+03  0.12494052238E+03 0.  0.
         23    2    1    2    0    0 -0.20319712249E+02 -0.22257298294E+01  0.76967405851E+02  0.12267213569E+03  0.93309306778E+02 0.  0.
          5    1    3    3  502    0  0.61843751296E+02 -0.23252877166E+02  0.72155666688E+02  0.97948333860E+02  0.47000000000E+01 0. -1.
         -5    1    3    3    0  502 -0.41524039047E+02  0.25478606996E+02  0.24598234487E+01  0.49005570751E+02  0.47000000000E+01 0. -1.
        -11    1    4    4    0    0  0.26924732361E+02 -0.73777627045E+01  0.69066492064E+02  0.74495321472E+02  0.00000000000E+00 0. -1.
         11    1    4    4    0    0 -0.47244444610E+02  0.51520328751E+01  0.79009137873E+01  0.48176814215E+02  0.00000000000E+00 0.  1.
<mgrwt>
<rscale>  0 0.11799280E+03</rscale>
<asrwt>0</asrwt>
<pdfrwt beam="1">  1        2 0.32400687E-01 0.12660165E+03</pdfrwt>
<pdfrwt beam="2">  1       -2 0.90802420E-02 0.12660165E+03</pdfrwt>
<totfact> 0.11655615E+04</totfact>
</mgrwt>
</event>
<event>
 8    1  0.1020295E-005  0.1778469E+03  0.7546771E-02  0.1175424E+00
          2   -1    0    0  501    0  0.00000000000E+00  0.00000000000E+00  0.47543610415E+02  0.47543610415E+02  0.00000000000E+00 0. -1.
         -2   -1    0    0    0  501 -0.00000000000E+00 -0.00000000000E+00 -0.65280178124E+03  0.65280178124E+03  0.00000000000E+00 0.  1.
         23    2    1    2    0    0 -0.12645101690E+03  0.39276759206E+01 -0.42903166665E+03  0.46443265220E+03  0.12499692446E+03 0.  0.
         23    2    1    2    0    0  0.12645101690E+03 -0.39276759206E+01 -0.17622650418E+03  0.23591273946E+03  0.92702500245E+02 0.  0.
          5    1    3    3  502    0 -0.42423859360E+02 -0.49950892895E+02 -0.93074449690E+02  0.11392900741E+03  0.47000000000E+01 0. -1.
         -5    1    3    3    0  502 -0.84027157542E+02  0.53878568816E+02 -0.33595721696E+03  0.35050364479E+03  0.47000000000E+01 0. -1.
        -11    1    4    4    0    0  0.80371717083E+02 -0.13838236439E+02 -0.38193961860E+02  0.90054918895E+02  0.00000000000E+00 0. -1.
         11    1    4    4    0    0  0.46079299819E+02  0.99105605181E+01 -0.13803254232E+03  0.14585782057E+03  0.00000000000E+00 0.  1.
<mgrwt>
<rscale>  0 0.17234531E+03</rscale>
<asrwt>0</asrwt>
<pdfrwt beam="1">  1        2 0.73144022E-02 0.17784689E+03</pdfrwt>
<pdfrwt beam="2">  1       -2 0.10043104E+00 0.17784689E+03</pdfrwt>
<totfact> 0.79921214E+02</totfact>
</mgrwt>
</event>
<event>
 8    1  0.1020295E-005  0.1287776E+03  0.7546771E-02  0.1242707E+00
         -1   -1    0    0    0  501 -0.00000000000E+00  0.00000000000E+00  0.66793710777E+02  0.66793710777E+02  0.00000000000E+00 0.  1.
          1   -1    0    0  501    0  0.00000000000E+00 -0.00000000000E+00 -0.20151184086E+03  0.20151184086E+03  0.00000000000E+00 0. -1.
         23    2    1    2    0    0 -0.22123025953E+02  0.21659009133E+02 -0.47634929670E+02  0.13730533113E+03  0.12500050591E+03 0.  0.
         23    2    1    2    0    0  0.22123025953E+02 -0.21659009133E+02 -0.87083200416E+02  0.13100022051E+03  0.92838747428E+02 0.  0.
          5    1    3    3  502    0 -0.17638931048E+02  0.37170580449E+02  0.34232596384E+02  0.53728433763E+02  0.47000000000E+01 0.  1.
         -5    1    3    3    0  502 -0.44840949054E+01 -0.15511571316E+02 -0.81867526055E+02  0.83576897371E+02  0.47000000000E+01 0.  1.
        -11    1    4    4    0    0 -0.13580288847E+02  0.64252458286E+01 -0.84149778224E+02  0.85480367362E+02  0.00000000000E+00 0. -1.
         11    1    4    4    0    0  0.35703314800E+02 -0.28084254962E+02 -0.29334221912E+01  0.45519853144E+02  0.00000000000E+00 0.  1.
<mgrwt>
<rscale>  0 0.12023673E+03</rscale>
<asrwt>0</asrwt>
<pdfrwt beam="2">  1        1 0.31001821E-01 0.12877759E+03</pdfrwt>
<pdfrwt beam="1">  1       -1 0.10275956E-01 0.12877759E+03</pdfrwt>
<totfact> 0.80046998E+03</totfact>
</mgrwt>
</event>
<event>
 8    1  0.1020295E-005  0.1256594E+03  0.7546771E-02  0.1249829E+00
          1   -1    0    0  501    0  0.00000000000E+00  0.00000000000E+00  0.19726072352E+03  0.19726072352E+03  0.00000000000E+00 0.  1.
         -1   -1    0    0    0  501 -0.00000000000E+00 -0.00000000000E+00 -0.66119673319E+02  0.66119673319E+02  0.00000000000E+00 0. -1.
         23    2    1    2    0    0  0.22231044547E+01  0.12693415846E+02  0.34209339725E+02  0.13023273226E+03  0.12499688248E+03 0.  0.
         23    2    1    2    0    0 -0.22231044547E+01 -0.12693415846E+02  0.96931710473E+02  0.13314766457E+03  0.90368573559E+02 0.  0.
          5    1    3    3  502    0  0.42049808885E+02 -0.14991412464E+02 -0.26699345580E+02  0.52229052541E+02  0.47000000000E+01 0.  1.
         -5    1    3    3    0  502 -0.39826704430E+02  0.27684828310E+02  0.60908685305E+02  0.78003679720E+02  0.47000000000E+01 0.  1.
        -11    1    4    4    0    0 -0.22678446353E+02 -0.10436770129E+02  0.10725642974E+03  0.11012347534E+03  0.00000000000E+00 0.  1.
         11    1    4    4    0    0  0.20455341898E+02 -0.22566457162E+01 -0.10324719267E+02  0.23024189237E+02  0.00000000000E+00 0. -1.
<mgrwt>
<rscale>  0 0.11600947E+03</rscale>
<asrwt>0</asrwt>
<pdfrwt beam="1">  1        1 0.30347803E-01 0.12565940E+03</pdfrwt>
<pdfrwt beam="2">  1       -1 0.10172258E-01 0.12565940E+03</pdfrwt>
<totfact> 0.83318967E+03</totfact>
</mgrwt>
</event>
<event>
 8    1  0.1020295E-005  0.1593621E+03  0.7546771E-02  0.1197063E+00
          2   -1    0    0  501    0  0.00000000000E+00  0.00000000000E+00  0.41429968188E+02  0.41429968188E+02  0.00000000000E+00 0. -1.
         -2   -1    0    0    0  501 -0.00000000000E+00 -0.00000000000E+00 -0.52496552116E+03  0.52496552116E+03  0.00000000000E+00 0.  1.
         23    2    1    2    0    0  0.29617745237E+02  0.94300940567E+02 -0.28352899078E+03  0.32524599574E+03  0.12500556352E+03 0.  0.
         23    2    1    2    0    0 -0.29617745237E+02 -0.94300940567E+02 -0.20000656219E+03  0.24114949360E+03  0.91545481159E+02 0.  0.
          5    1    3    3  502    0 -0.39512353816E+02  0.55323848094E+01 -0.38797161141E+02  0.55849289148E+02  0.47000000000E+01 0.  1.
         -5    1    3    3    0  502  0.69130099053E+02  0.88768555757E+02 -0.24473182964E+03  0.26939670659E+03  0.47000000000E+01 0.  1.
        -11    1    4    4    0    0  0.27220617151E+02 -0.62176518801E+02 -0.83600966192E+02  0.10768473911E+03  0.00000000000E+00 0.  1.
         11    1    4    4    0    0 -0.56838362388E+02 -0.32124421766E+02 -0.11640559600E+03  0.13346475450E+03  0.00000000000E+00 0. -1.
<mgrwt>
<rscale>  0 0.15280925E+03</rscale>
<asrwt>0</asrwt>
<pdfrwt beam="1">  1        2 0.63738412E-02 0.15936207E+03</pdfrwt>
<pdfrwt beam="2">  1       -2 0.80763927E-01 0.15936207E+03</pdfrwt>
<totfact> 0.15512104E+03</totfact>
</mgrwt>
</event>
<event>
 8    1  0.1020295E-005  0.1642427E+03  0.7546771E-02  0.1187764E+00
         -1   -1    0    0    0  501 -0.00000000000E+00  0.00000000000E+00  0.42677685725E+03  0.42677685725E+03  0.00000000000E+00 0.  1.
          1   -1    0    0  501    0  0.00000000000E+00 -0.00000000000E+00 -0.96640000513E+02  0.96640000513E+02  0.00000000000E+00 0. -1.
         23    2    1    2    0    0  0.95313966431E+02  0.75401539213E+02  0.33417301225E+03  0.37235367692E+03  0.11047856937E+03 0.  0.
         23    2    1    2    0    0 -0.95313966431E+02 -0.75401539213E+02 -0.40361555144E+01  0.15106318084E+03  0.89630629482E+02 0.  0.
          5    1    3    3  502    0  0.18988010825E+02 -0.19372801953E+02  0.16399303584E+02  0.32044924226E+02  0.47000000000E+01 0. -1.
         -5    1    3    3    0  502  0.76325955606E+02  0.94774341166E+02  0.31777370867E+03  0.34030875270E+03  0.47000000000E+01 0.  1.
        -11    1    4    4    0    0 -0.82823948310E+02 -0.26741952554E+02  0.28063314290E+02  0.91446640447E+02  0.00000000000E+00 0. -1.
         11    1    4    4    0    0 -0.12490018121E+02 -0.48659586659E+02 -0.32099469805E+02  0.59616540392E+02  0.00000000000E+00 0.  1.
<mgrwt>
<rscale>  0 0.16082939E+03</rscale>
<asrwt>0</asrwt>
<pdfrwt beam="2">  1        1 0.14867693E-01 0.16424268E+03</pdfrwt>
<pdfrwt beam="1">  1       -1 0.65657977E-01 0.16424268E+03</pdfrwt>
<totfact> 0.91189544E+02</totfact>
</mgrwt>
</event>
<event>
 8    1  0.1020295E-005  0.1438099E+03  0.7546771E-02  0.1218372E+00
          2   -1    0    0  501    0  0.00000000000E+00  0.00000000000E+00  0.61446885364E+02  0.61446885364E+02  0.00000000000E+00 0. -1.
         -2   -1    0    0    0  501 -0.00000000000E+00 -0.00000000000E+00 -0.28497310111E+03  0.28497310111E+03  0.00000000000E+00 0.  1.
         23    2    1    2    0    0  0.66704402708E+02 -0.24642071624E+02 -0.15572246034E+03  0.21196879627E+03  0.12499830760E+03 0.  0.
         23    2    1    2    0    0 -0.66704402708E+02  0.24642071624E+02 -0.67803755404E+02  0.13445119020E+03  0.91777253529E+02 0.  0.
          5    1    3    3  502    0 -0.31185611242E+02 -0.18429704525E+01 -0.80083621254E+02  0.86089577079E+02  0.47000000000E+01 0. -1.
         -5    1    3    3    0  502  0.97890013950E+02 -0.22799101171E+02 -0.75638839083E+02  0.12587921919E+03  0.47000000000E+01 0. -1.
        -11    1    4    4    0    0 -0.15932540443E+02 -0.16844167478E+02 -0.64792690406E+02  0.68816164911E+02  0.00000000000E+00 0.  1.
         11    1    4    4    0    0 -0.50771862264E+02  0.41486239102E+02 -0.30110649987E+01  0.65635025291E+02  0.00000000000E+00 0. -1.
<mgrwt>
<rscale>  0 0.13631759E+03</rscale>
<asrwt>0</asrwt>
<pdfrwt beam="1">  1        2 0.94533670E-02 0.14380990E+03</pdfrwt>
<pdfrwt beam="2">  1       -2 0.43842016E-01 0.14380990E+03</pdfrwt>
<totfact> 0.32960900E+03</totfact>
</mgrwt>
</event>
<event>
 8    1  0.1020295E-005  0.2574362E+03  0.7546771E-02  0.1110680E+00
         -3   -1    0    0    0  501 -0.00000000000E+00  0.00000000000E+00  0.14398528237E+03  0.14398528237E+03  0.00000000000E+00 0.  1.
          3   -1    0    0  501    0  0.00000000000E+00 -0.00000000000E+00 -0.95102147774E+03  0.95102147774E+03  0.00000000000E+00 0. -1.
         23    2    1    2    0    0 -0.21878500289E+03  0.52718685722E+02 -0.60916849087E+01  0.25750822262E+03  0.12500895479E+03 0.  0.
         23    2    1    2    0    0  0.21878500289E+03 -0.52718685722E+02 -0.80094451046E+03  0.83749853750E+03  0.96153804676E+02 0.  0.
          5    1    3    3  502    0 -0.20467253968E+03  0.74207543052E+02 -0.32711162182E+02  0.22020381032E+03  0.47000000000E+01 0.  1.
         -5    1    3    3    0  502 -0.14112463211E+02 -0.21488857329E+02  0.26619477273E+02  0.37304412306E+02  0.47000000000E+01 0.  1.
        -11    1    4    4    0    0  0.13133472494E+03  0.76329373987E+01 -0.53903602022E+03  0.55485755181E+03  0.00000000000E+00 0.  1.
         11    1    4    4    0    0  0.87450277959E+02 -0.60351623121E+02 -0.26190849024E+03  0.28264098569E+03  0.00000000000E+00 0. -1.
<mgrwt>
<rscale>  0 0.25419850E+03</rscale>
<asrwt>0</asrwt>
<pdfrwt beam="2">  1        3 0.14631100E+00 0.25743616E+03</pdfrwt>
<pdfrwt beam="1">  1       -3 0.22151581E-01 0.25743616E+03</pdfrwt>
<totfact> 0.16905736E+01</totfact>
</mgrwt>
</event>
<event>
 7    1  0.1020295E-005  0.3997282E+03  0.7546771E-02  0.1061002E+00
          2   -1    0    0  501    0  0.00000000000E+00  0.00000000000E+00  0.11748732455E+04  0.11748732455E+04  0.00000000000E+00 0. -1.
         -2   -1    0    0    0  501 -0.00000000000E+00 -0.00000000000E+00 -0.93036388973E+02  0.93036388973E+02  0.00000000000E+00 0.  1.
         23    2    1    2    0    0 -0.22083677200E+03  0.56949470110E+02  0.55167088778E+03  0.60393779776E+03  0.91585878366E+02 0.  0.
          5    1    1    2  502    0  0.93441323180E+02  0.11721305833E+03  0.35711866472E+03  0.38733191530E+03  0.47000000000E+01 0. -1.
         -5    1    1    2    0  502  0.12739544882E+03 -0.17416252844E+03  0.17304730404E+03  0.27663992143E+03  0.47000000000E+01 0.  1.
        -11    1    3    3    0    0 -0.64177976212E+02 -0.17369202947E+02  0.99579049887E+02  0.11973507848E+03  0.00000000000E+00 0. -1.
         11    1    3    3    0    0 -0.15665879579E+03  0.74318673058E+02  0.45209183790E+03  0.48420271928E+03  0.00000000000E+00 0.  1.
<mgrwt>
<rscale>  0 0.35395928E+03</rscale>
<asrwt>0</asrwt>
<pdfrwt beam="1">  1        2 0.18074972E+00 0.39972821E+03</pdfrwt>
<pdfrwt beam="2">  1       -2 0.14313291E-01 0.39972821E+03</pdfrwt>
<totfact> 0.76042612E+02</totfact>
</mgrwt>
</event>
<event>
 7    1  0.1020295E-005  0.2657608E+03  0.7546771E-02  0.1143287E+00
          1   -1    0    0  501    0  0.00000000000E+00  0.00000000000E+00  0.20556299105E+03  0.20556299105E+03  0.00000000000E+00 0. -1.
         -1   -1    0    0    0  501 -0.00000000000E+00 -0.00000000000E+00 -0.25314287172E+03  0.25314287172E+03  0.00000000000E+00 0.  1.
         23    2    1    2    0    0  0.17641240904E+02 -0.37765009212E+02  0.11117276978E+03  0.14913970309E+03  0.90254401531E+02 0.  0.
          5    1    1    2  502    0  0.55280457258E+02 -0.23381237666E+02  0.51182061553E+02  0.79020912766E+02  0.47000000000E+01 0. -1.
         -5    1    1    2    0  502 -0.72921698162E+02  0.61146246877E+02 -0.20993471201E+03  0.23054524692E+03  0.47000000000E+01 0.  1.
        -11    1    3    3    0    0 -0.25079902958E+02 -0.71985943118E+00  0.77408141538E+00  0.25102169867E+02  0.00000000000E+00 0.  1.
         11    1    3    3    0    0  0.42721143862E+02 -0.37045149780E+02  0.11039868837E+03  0.12403753323E+03  0.00000000000E+00 0. -1.
<mgrwt>
<rscale>  0 0.20784078E+03</rscale>
<asrwt>0</asrwt>
<pdfrwt beam="1">  1        1 0.31625076E-01 0.26576080E+03</pdfrwt>
<pdfrwt beam="2">  1       -1 0.38945057E-01 0.26576080E+03</pdfrwt>
<totfact> 0.91816204E+02</totfact>
</mgrwt>
</event>
<event>
 8    1  0.1020295E-005  0.1477977E+03  0.7546771E-02  0.1212473E+00
         -2   -1    0    0    0  501 -0.00000000000E+00  0.00000000000E+00  0.37197914048E+02  0.37197914048E+02  0.00000000000E+00 0.  1.
          2   -1    0    0  501    0  0.00000000000E+00 -0.00000000000E+00 -0.52719730558E+03  0.52719730558E+03  0.00000000000E+00 0. -1.
         23    2    1    2    0    0 -0.56521204196E+02 -0.54966616078E+02 -0.18904704962E+03  0.23996444479E+03  0.12501268889E+03 0.  0.
         23    2    1    2    0    0  0.56521204196E+02  0.54966616078E+02 -0.30095234191E+03  0.32443077484E+03  0.92016521104E+02 0.  0.
          5    1    3    3  502    0 -0.83353951842E+02 -0.54057167650E+02 -0.80227809173E+02  0.12778360625E+03  0.47000000000E+01 0. -1.
         -5    1    3    3    0  502  0.26832747647E+02 -0.90944842777E+00 -0.10881924045E+03  0.11218083853E+03  0.47000000000E+01 0. -1.
        -11    1    4    4    0    0 -0.18960996695E+02  0.20063105170E+02 -0.28959776891E+02  0.40008952277E+02  0.00000000000E+00 0.  1.
         11    1    4    4    0    0  0.75482200891E+02  0.34903510908E+02 -0.27199256502E+03  0.28442182256E+03  0.00000000000E+00 0. -1.
<mgrwt>
<rscale>  0 0.14063796E+03</rscale>
<asrwt>0</asrwt>
<pdfrwt beam="2">  1        2 0.81107279E-01 0.14779766E+03</pdfrwt>
<pdfrwt beam="1">  1       -2 0.57227559E-02 0.14779766E+03</pdfrwt>
<totfact> 0.89586175E+03</totfact>
</mgrwt>
</event>
<event>
 8    1  0.1020295E-005  0.1450319E+03  0.7546771E-02  0.1215487E+00
          2   -1    0    0  501    0  0.00000000000E+00  0.00000000000E+00  0.78905728520E+03  0.78905728520E+03  0.00000000000E+00 0. -1.
         -2   -1    0    0    0  501 -0.00000000000E+00 -0.00000000000E+00 -0.22934994507E+02  0.22934994507E+02  0.00000000000E+00 0.  1.
         23    2    1    2    0    0 -0.73450645154E+02  0.28519731994E+01  0.35078113218E+03  0.37958090551E+03  0.12502451804E+03 0.  0.
         23    2    1    2    0    0  0.73450645154E+02 -0.28519731994E+01  0.41534115851E+03  0.43241137419E+03  0.95227031630E+02 0.  0.
          5    1    3    3  502    0 -0.74436392755E+02  0.10413559181E+02  0.84654429610E+02  0.11330349171E+03  0.47000000000E+01 0.  1.
         -5    1    3    3    0  502  0.98574760137E+00 -0.75615859813E+01  0.26612670257E+03  0.26627741380E+03  0.47000000000E+01 0.  1.
        -11    1    4    4    0    0  0.29636070121E+02  0.45654300835E+02  0.16922299103E+03  0.17776116710E+03  0.00000000000E+00 0.  1.
         11    1    4    4    0    0  0.43814575033E+02 -0.48506274035E+02  0.24611816748E+03  0.25465020709E+03  0.00000000000E+00 0. -1.
<mgrwt>
<rscale>  0 0.13840801E+03</rscale>
<asrwt>0</asrwt>
<pdfrwt beam="1">  1        2 0.12139341E+00 0.14503193E+03</pdfrwt>
<pdfrwt beam="2">  1       -2 0.35284613E-02 0.14503193E+03</pdfrwt>
<totfact> 0.11528097E+04</totfact>
</mgrwt>
</event>
<event>
 8    1  0.1020295E-005  0.1398330E+03  0.7546771E-02  0.1225349E+00
         -2   -1    0    0    0  501 -0.00000000000E+00  0.00000000000E+00  0.17655377954E+02  0.17655377954E+02  0.00000000000E+00 0. -1.
          2   -1    0    0  501    0  0.00000000000E+00 -0.00000000000E+00 -0.89537178539E+03  0.89537178539E+03  0.00000000000E+00 0.  1.
         23    2    1    2    0    0  0.24160990022E+02  0.57816800103E+02 -0.42822651883E+03  0.45047888163E+03  0.12500694202E+03 0.  0.
         23    2    1    2    0    0 -0.24160990022E+02 -0.57816800103E+02 -0.44948988861E+03  0.46254828172E+03  0.89348850826E+02 0.  0.
          5    1    3    3  502    0  0.60317866704E+02 -0.10281670771E+02 -0.16052117052E+03  0.17185195368E+03  0.47000000000E+01 0.  1.
         -5    1    3    3    0  502 -0.36156876682E+02  0.68098470874E+02 -0.26770534831E+03  0.27862692795E+03  0.47000000000E+01 0.  1.
        -11    1    4    4    0    0 -0.34013615337E+02 -0.78867455015E+02 -0.35358478731E+03  0.36386701321E+03  0.00000000000E+00 0. -1.
         11    1    4    4    0    0  0.98526253151E+01  0.21050654912E+02 -0.95905101302E+02  0.98681268504E+02  0.00000000000E+00 0.  1.
<mgrwt>
<rscale>  0 0.13143019E+03</rscale>
<asrwt>0</asrwt>
<pdfrwt beam="2">  1        2 0.13774952E+00 0.13983301E+03</pdfrwt>
<pdfrwt beam="1">  1       -2 0.27162117E-02 0.13983301E+03</pdfrwt>
<totfact> 0.14398547E+04</totfact>
</mgrwt>
</event>
<event>
 8    1  0.1020295E-005  0.1322956E+03  0.7546771E-02  0.1237489E+00
         -3   -1    0    0    0  501 -0.00000000000E+00  0.00000000000E+00  0.18250338688E+03  0.18250338688E+03  0.00000000000E+00 0.  1.
          3   -1    0    0  501    0  0.00000000000E+00 -0.00000000000E+00 -0.82581844555E+02  0.82581844555E+02  0.00000000000E+00 0. -1.
         23    2    1    2    0    0 -0.41065727727E+02 -0.13837858402E+02  0.98130923961E+02  0.16471731456E+03  0.12499694060E+03 0.  0.
         23    2    1    2    0    0  0.41065727727E+02  0.13837858402E+02  0.17906183601E+01  0.10036791687E+03  0.90513159837E+02 0.  0.
          5    1    3    3  502    0  0.11681058441E+02  0.74435636425E+00  0.10815100249E+03  0.10888402331E+03  0.47000000000E+01 0. -1.
         -5    1    3    3    0  502 -0.52746786167E+02 -0.14582214767E+02 -0.10020078527E+02  0.55833291253E+02  0.47000000000E+01 0. -1.
        -11    1    4    4    0    0  0.63672530275E+02  0.66810942522E+01  0.23519312793E+02  0.68205470502E+02  0.00000000000E+00 0.  1.
         11    1    4    4    0    0 -0.22606802549E+02  0.71567641503E+01 -0.21728694433E+02  0.32162446368E+02  0.00000000000E+00 0. -1.
<mgrwt>
<rscale>  0 0.12346402E+03</rscale>
<asrwt>0</asrwt>
<pdfrwt beam="2">  1        3 0.12704899E-01 0.13229556E+03</pdfrwt>
<pdfrwt beam="1">  1       -3 0.28077444E-01 0.13229556E+03</pdfrwt>
<totfact> 0.13713840E+03</totfact>
</mgrwt>
</event>
<event>
 8    1  0.1020295E-005  0.1904796E+03  0.7546771E-02  0.1161694E+00
         -1   -1    0    0    0  501 -0.00000000000E+00  0.00000000000E+00  0.86345100641E+02  0.86345100641E+02  0.00000000000E+00 0.  1.
          1   -1    0    0  501    0  0.00000000000E+00 -0.00000000000E+00 -0.44697702909E+03  0.44697702909E+03  0.00000000000E+00 0. -1.
         23    2    1    2    0    0 -0.62433598690E+02 -0.12944018137E+03 -0.88985725551E+02  0.21024019715E+03  0.12501906393E+03 0.  0.
         23    2    1    2    0    0  0.62433598690E+02  0.12944018137E+03 -0.27164620290E+03  0.32308193258E+03  0.99687315213E+02 0.  0.
          5    1    3    3  502    0 -0.16596458164E+02  0.13730650189E+02  0.15635398790E+02  0.27028297644E+02  0.47000000000E+01 0. -1.
         -5    1    3    3    0  502 -0.45837140526E+02 -0.14317083156E+03 -0.10462112434E+03  0.18321189950E+03  0.47000000000E+01 0. -1.
        -11    1    4    4    0    0 -0.88664634620E+01  0.76005019539E+02 -0.74788029534E+02  0.10699825480E+03  0.00000000000E+00 0.  1.
         11    1    4    4    0    0  0.71300062152E+02  0.53435161832E+02 -0.19685817336E+03  0.21608367778E+03  0.00000000000E+00 0. -1.
<mgrwt>
<rscale>  0 0.18645940E+03</rscale>
<asrwt>0</asrwt>
<pdfrwt beam="2">  1        1 0.68765696E-01 0.19047961E+03</pdfrwt>
<pdfrwt beam="1">  1       -1 0.13283862E-01 0.19047961E+03</pdfrwt>
<totfact> 0.20244763E+03</totfact>
</mgrwt>
</event>
<event>
 8    1  0.1020295E-005  0.1444555E+03  0.7546771E-02  0.1217585E+00
          1   -1    0    0  501    0  0.00000000000E+00  0.00000000000E+00  0.91628552950E+02  0.91628552950E+02  0.00000000000E+00 0. -1.
         -1   -1    0    0    0  501 -0.00000000000E+00 -0.00000000000E+00 -0.18597636172E+03  0.18597636172E+03  0.00000000000E+00 0.  1.
         23    2    1    2    0    0  0.52245981161E+02 -0.50131273648E+02 -0.57015303432E+02  0.15530017302E+03  0.12499844707E+03 0.  0.
         23    2    1    2    0    0 -0.52245981161E+02  0.50131273648E+02 -0.37332505339E+02  0.12230474165E+03  0.91224704602E+02 0.  0.
          5    1    3    3  502    0 -0.67622679196E+01  0.26254802505E+02 -0.51639262523E+02  0.58512787969E+02  0.47000000000E+01 0.  1.
         -5    1    3    3    0  502  0.59008249081E+02 -0.76386076153E+02 -0.53760409093E+01  0.96787385054E+02  0.47000000000E+01 0.  1.
        -11    1    4    4    0    0 -0.15966282488E+02  0.18887860186E+01 -0.56681459869E+02  0.58917549015E+02  0.00000000000E+00 0.  1.
         11    1    4    4    0    0 -0.36279698673E+02  0.48242487629E+02  0.19348954530E+02  0.63387192633E+02  0.00000000000E+00 0. -1.
<mgrwt>
<rscale>  0 0.13688379E+03</rscale>
<asrwt>0</asrwt>
<pdfrwt beam="1">  1        1 0.14096701E-01 0.14445553E+03</pdfrwt>
<pdfrwt beam="2">  1       -1 0.28611747E-01 0.14445553E+03</pdfrwt>
<totfact> 0.43085667E+03</totfact>
</mgrwt>
</event>
<event>
 8    1  0.1020295E-005  0.2143365E+03  0.7546771E-02  0.1141782E+00
          1   -1    0    0  501    0  0.00000000000E+00  0.00000000000E+00  0.38954186074E+03  0.38954186074E+03  0.00000000000E+00 0. -1.
         -1   -1    0    0    0  501 -0.00000000000E+00 -0.00000000000E+00 -0.10887741360E+03  0.10887741360E+03  0.00000000000E+00 0.  1.
         23    2    1    2    0    0 -0.65628645929E+02 -0.16127255614E+03  0.12854815694E+03  0.24992955766E+03  0.12499679439E+03 0.  0.
         23    2    1    2    0    0  0.65628645929E+02  0.16127255614E+03  0.15211629019E+03  0.24848971669E+03  0.91059414825E+02 0.  0.
          5    1    3    3  502    0 -0.97956410032E+02 -0.11882009662E+03  0.66074553601E+02  0.16763534908E+03  0.47000000000E+01 0.  1.
         -5    1    3    3    0  502  0.32327764102E+02 -0.42452459517E+02  0.62473603344E+02  0.82294208580E+02  0.47000000000E+01 0.  1.
        -11    1    4    4    0    0  0.52744056618E+02  0.12433127648E+03  0.58795122739E+02  0.14729924738E+03  0.00000000000E+00 0.  1.
         11    1    4    4    0    0  0.12884589311E+02  0.36941279656E+02  0.93321167456E+02  0.10119046931E+03  0.00000000000E+00 0. -1.
<mgrwt>
<rscale>  0 0.20972805E+03</rscale>
<asrwt>0</asrwt>
<pdfrwt beam="1">  1        1 0.59929516E-01 0.21433655E+03</pdfrwt>
<pdfrwt beam="2">  1       -1 0.16750372E-01 0.21433655E+03</pdfrwt>
<totfact> 0.16781623E+03</totfact>
</mgrwt>
</event>
<event>
 8    1  0.1020295E-005  0.1772642E+03  0.7546771E-02  0.1175742E+00
         -2   -1    0    0    0  501 -0.00000000000E+00  0.00000000000E+00  0.51067193567E+02  0.51067193567E+02  0.00000000000E+00 0. -1.
          2   -1    0    0  501    0  0.00000000000E+00 -0.00000000000E+00 -0.63226343675E+03  0.63226343675E+03  0.00000000000E+00 0.  1.
         23    2    1    2    0    0  0.47945648120E+01  0.12560396484E+03 -0.18099247523E+03  0.25333943207E+03  0.12499299146E+03 0.  0.
         23    2    1    2    0    0 -0.47945648120E+01 -0.12560396484E+03 -0.40020376795E+03  0.42999119825E+03  0.94498840491E+02 0.  0.
          5    1    3    3  502    0 -0.17971106971E+02  0.98261731741E+02 -0.39756312506E+02  0.10761497570E+03  0.47000000000E+01 0. -1.
         -5    1    3    3    0  502  0.22765671783E+02  0.27342233097E+02 -0.14123616273E+03  0.14572445637E+03  0.47000000000E+01 0. -1.
        -11    1    4    4    0    0  0.43416174015E+02 -0.78472991117E+02 -0.21904496492E+03  0.23669320049E+03  0.00000000000E+00 0.  1.
         11    1    4    4    0    0 -0.48210738827E+02 -0.47130973722E+02 -0.18115880303E+03  0.19329799776E+03  0.00000000000E+00 0. -1.
<mgrwt>
<rscale>  0 0.17203523E+03</rscale>
<asrwt>0</asrwt>
<pdfrwt beam="2">  1        2 0.97271300E-01 0.17726419E+03</pdfrwt>
<pdfrwt beam="1">  1       -2 0.78564912E-02 0.17726419E+03</pdfrwt>
<totfact> 0.45247320E+03</totfact>
</mgrwt>
</event>
<event>
 8    1  0.1020295E-005  0.1422108E+03  0.7546771E-02  0.1221343E+00
          2   -1    0    0  501    0  0.00000000000E+00  0.00000000000E+00  0.40043962409E+02  0.40043962409E+02  0.00000000000E+00 0. -1.
         -2   -1    0    0    0  501 -0.00000000000E+00 -0.00000000000E+00 -0.55115892891E+03  0.55115892891E+03  0.00000000000E+00 0.  1.
         23    2    1    2    0    0  0.37786350418E+02 -0.56307078549E+02 -0.42822845332E+03  0.45122448302E+03  0.12500252185E+03 0.  0.
         23    2    1    2    0    0 -0.37786350418E+02  0.56307078549E+02 -0.82886513178E+02  0.13997840830E+03  0.90141474085E+02 0.  0.
          5    1    3    3  502    0  0.36357549853E+02  0.42621068753E+01 -0.35109324328E+03  0.35302775028E+03  0.47000000000E+01 0. -1.
         -5    1    3    3    0  502  0.14288005657E+01 -0.60569185424E+02 -0.77135210042E+02  0.98196732747E+02  0.47000000000E+01 0. -1.
        -11    1    4    4    0    0 -0.37370769470E+02 -0.14515357109E+02 -0.42601159918E+02  0.58498964342E+02  0.00000000000E+00 0. -1.
         11    1    4    4    0    0 -0.41558094823E+00  0.70822435657E+02 -0.40285353261E+02  0.81479443956E+02  0.00000000000E+00 0.  1.
<mgrwt>
<rscale>  0 0.13420743E+03</rscale>
<asrwt>0</asrwt>
<pdfrwt beam="1">  1        2 0.61606099E-02 0.14221085E+03</pdfrwt>
<pdfrwt beam="2">  1       -2 0.84793677E-01 0.14221085E+03</pdfrwt>
<totfact> 0.14470017E+03</totfact>
</mgrwt>
</event>
<event>
 8    1  0.1020295E-005  0.1331472E+03  0.7546771E-02  0.1235963E+00
          4   -1    0    0  501    0  0.00000000000E+00  0.00000000000E+00  0.20372734720E+03  0.20372734720E+03  0.00000000000E+00 0. -1.
         -4   -1    0    0    0  501 -0.00000000000E+00 -0.00000000000E+00 -0.70012227518E+02  0.70012227518E+02  0.00000000000E+00 0.  1.
         23    2    1    2    0    0  0.58161327962E+01  0.45495677427E+02  0.50348819275E+02  0.14234877504E+03  0.12499794434E+03 0.  0.
         23    2    1    2    0    0 -0.58161327962E+01 -0.45495677427E+02  0.83366300403E+02  0.13139079967E+03  0.90608598541E+02 0.  0.
          5    1    3    3  502    0 -0.44557505323E+02  0.61354060039E+02  0.12000349468E+02  0.76914175229E+02  0.47000000000E+01 0.  1.
         -5    1    3    3    0  502  0.50373638119E+02 -0.15858382612E+02  0.38348469807E+02  0.65434599815E+02  0.47000000000E+01 0.  1.
        -11    1    4    4    0    0 -0.57149034662E+01 -0.68949255785E+02  0.82839977841E+02  0.10793109804E+03  0.00000000000E+00 0.  1.
         11    1    4    4    0    0 -0.10122932994E+00  0.23453578358E+02  0.52632256173E+00  0.23459701631E+02  0.00000000000E+00 0. -1.
<mgrwt>
<rscale>  0 0.12443005E+03</rscale>
<asrwt>0</asrwt>
<pdfrwt beam="1">  1        4 0.31342669E-01 0.13314717E+03</pdfrwt>
<pdfrwt beam="2">  1       -4 0.10771112E-01 0.13314717E+03</pdfrwt>
<totfact> 0.10750273E+03</totfact>
</mgrwt>
</event>
<event>
 7    1  0.1020295E-005  0.2331418E+03  0.7546771E-02  0.1162862E+00
         -4   -1    0    0    0  501 -0.00000000000E+00  0.00000000000E+00  0.14617538958E+03  0.14617538958E+03  0.00000000000E+00 0.  1.
          4   -1    0    0  501    0  0.00000000000E+00 -0.00000000000E+00 -0.44454782408E+03  0.44454782408E+03  0.00000000000E+00 0. -1.
         23    2    1    2    0    0 -0.22784258230E+02  0.14066727618E+02 -0.34126643844E+03  0.35366839329E+03  0.88890692190E+02 0.  0.
          5    1    1    2  502    0  0.93872070505E+02 -0.48526540306E+02 -0.48322650396E+02  0.11629255899E+03  0.47000000000E+01 0. -1.
         -5    1    1    2    0  502 -0.71087812275E+02  0.34459812688E+02  0.91216654343E+02  0.12076226138E+03  0.47000000000E+01 0.  1.
        -11    1    3    3    0    0  0.30387318834E+02  0.68282184372E+01 -0.63036656066E+02  0.70310978666E+02  0.00000000000E+00 0.  1.
         11    1    3    3    0    0 -0.53171577065E+02  0.72385091804E+01 -0.27822978237E+03  0.28335741462E+03  0.00000000000E+00 0. -1.
<mgrwt>
<rscale>  0 0.18520144E+03</rscale>
<asrwt>0</asrwt>
<pdfrwt beam="2">  1        4 0.68391973E-01 0.23314179E+03</pdfrwt>
<pdfrwt beam="1">  1       -4 0.22488522E-01 0.23314179E+03</pdfrwt>
<totfact> 0.66119552E+01</totfact>
</mgrwt>
</event>
<event>
 8    1  0.1020295E-005  0.1598416E+03  0.7546771E-02  0.1196933E+00
         -1   -1    0    0    0  501 -0.00000000000E+00  0.00000000000E+00  0.22640332071E+03  0.22640332071E+03  0.00000000000E+00 0.  1.
          1   -1    0    0  501    0  0.00000000000E+00 -0.00000000000E+00 -0.95476682357E+02  0.95476682357E+02  0.00000000000E+00 0. -1.
         23    2    1    2    0    0 -0.97055748070E+02  0.22405270365E+02  0.78630795739E+02  0.17813520702E+03  0.12501014186E+03 0.  0.
         23    2    1    2    0    0  0.97055748070E+02 -0.22405270365E+02  0.52295842615E+02  0.14374479605E+03  0.89475677492E+02 0.  0.
          5    1    3    3  502    0  0.21177744018E+02  0.76218873468E+01 -0.14191615444E+02  0.27020028818E+02  0.47000000000E+01 0. -1.
         -5    1    3    3    0  502 -0.11823349209E+03  0.14783383019E+02  0.92822411183E+02  0.15111517820E+03  0.47000000000E+01 0. -1.
        -11    1    4    4    0    0  0.72106421522E+02 -0.39947954651E+02 -0.88644198941E+00  0.82437618142E+02  0.00000000000E+00 0. -1.
         11    1    4    4    0    0  0.24949326548E+02  0.17542684286E+02  0.53182284604E+02  0.61307177907E+02  0.00000000000E+00 0.  1.
<mgrwt>
<rscale>  0 0.15291780E+03</rscale>
<asrwt>0</asrwt>
<pdfrwt beam="2">  1        1 0.14688720E-01 0.15984164E+03</pdfrwt>
<pdfrwt beam="1">  1       -1 0.34831280E-01 0.15984164E+03</pdfrwt>
<totfact> 0.29411905E+03</totfact>
</mgrwt>
</event>
<event>
 8    1  0.1020295E-005  0.1403889E+03  0.7546771E-02  0.1223822E+00
         -1   -1    0    0    0  501 -0.00000000000E+00  0.00000000000E+00  0.15010750318E+04  0.15010750318E+04  0.00000000000E+00 0.  1.
          1   -1    0    0  501    0  0.00000000000E+00 -0.00000000000E+00 -0.12253098733E+02  0.12253098733E+02  0.00000000000E+00 0. -1.
         23    2    1    2    0    0  0.62267859476E+02  0.14355757096E+02  0.10986962745E+04  0.11076292476E+04  0.12500269052E+03 0.  0.
         23    2    1    2    0    0 -0.62267859476E+02 -0.14355757096E+02  0.39012565862E+03  0.40569888291E+03  0.91160188624E+02 0.  0.
          5    1    3    3  502    0  0.28589691374E+02 -0.50462997235E+02  0.30037454055E+03  0.30595888474E+03  0.47000000000E+01 0.  1.
         -5    1    3    3    0  502  0.33678168102E+02  0.64818754331E+02  0.79832173391E+03  0.80167036290E+03  0.47000000000E+01 0.  1.
        -11    1    4    4    0    0  0.19112186247E+02  0.11306684329E+02  0.13144896007E+03  0.13331146191E+03  0.00000000000E+00 0.  1.
         11    1    4    4    0    0 -0.81380045722E+02 -0.25662441425E+02  0.25867669856E+03  0.27238742100E+03  0.00000000000E+00 0. -1.
<mgrwt>
<rscale>  0 0.13247963E+03</rscale>
<asrwt>0</asrwt>
<pdfrwt beam="2">  1        1 0.18850933E-02 0.14038891E+03</pdfrwt>
<pdfrwt beam="1">  1       -1 0.23093447E+00 0.14038891E+03</pdfrwt>
<totfact> 0.68175181E+02</totfact>
</mgrwt>
</event>
<event>
 8    1  0.1020295E-005  0.2615275E+03  0.7546771E-02  0.1108790E+00
          3   -1    0    0  501    0  0.00000000000E+00  0.00000000000E+00  0.37610135815E+03  0.37610135815E+03  0.00000000000E+00 0. -1.
         -3   -1    0    0    0  501 -0.00000000000E+00 -0.00000000000E+00 -0.27291090873E+03  0.27291090873E+03  0.00000000000E+00 0.  1.
         23    2    1    2    0    0  0.22719241761E+03  0.34038846278E+02 -0.14606295262E+03  0.29955135247E+03  0.12498635513E+03 0.  0.
         23    2    1    2    0    0 -0.22719241761E+03 -0.34038846278E+02  0.24925340204E+03  0.34946091441E+03  0.84974317283E+02 0.  0.
          5    1    3    3  502    0  0.47877594300E+02 -0.48209699522E+01  0.19729607366E+02  0.52219279907E+02  0.47000000000E+01 0. -1.
         -5    1    3    3    0  502  0.17931482331E+03  0.38859816230E+02 -0.16579255998E+03  0.24733207257E+03  0.47000000000E+01 0. -1.
        -11    1    4    4    0    0 -0.80290010051E+02  0.28597195969E+02  0.88311075100E+02  0.12273194905E+03  0.00000000000E+00 0.  1.
         11    1    4    4    0    0 -0.14690240756E+03 -0.62636042248E+02  0.16094232694E+03  0.22672896536E+03  0.00000000000E+00 0. -1.
<mgrwt>
<rscale>  0 0.25727820E+03</rscale>
<asrwt>0</asrwt>
<pdfrwt beam="1">  1        3 0.57861748E-01 0.26152749E+03</pdfrwt>
<pdfrwt beam="2">  1       -3 0.41986293E-01 0.26152749E+03</pdfrwt>
<totfact> 0.41713858E+01</totfact>
</mgrwt>
</event>
<event>
 8    1  0.1020295E-005  0.1263685E+03  0.7546771E-02  0.1250623E+00
          2   -1    0    0  501    0  0.00000000000E+00  0.00000000000E+00  0.62254962842E+02  0.62254962842E+02  0.00000000000E+00 0.  1.
         -2   -1    0    0    0  501 -0.00000000000E+00 -0.00000000000E+00 -0.21408893817E+03  0.21408893817E+03  0.00000000000E+00 0. -1.
         23    2    1    2    0    0  0.22671164278E+00  0.18535684641E+02 -0.13766794063E+03  0.18687284283E+03  0.12500149801E+03 0.  0.
         23    2    1    2    0    0 -0.22671164278E+00 -0.18535684641E+02 -0.14166034697E+02  0.89471058186E+02  0.86375753025E+02 0.  0.
          5    1    3    3  502    0  0.57540543816E+02  0.32762563800E+02 -0.82835062414E+02  0.10615101193E+03  0.47000000000E+01 0. -1.
         -5    1    3    3    0  502 -0.57313832174E+02 -0.14226879159E+02 -0.54832878218E+02  0.80721830893E+02  0.47000000000E+01 0. -1.
        -11    1    4    4    0    0  0.16435787266E+02 -0.36033644693E+02  0.22507177411E+02  0.45553613336E+02  0.00000000000E+00 0.  1.
         11    1    4    4    0    0 -0.16662498909E+02  0.17497960053E+02 -0.36673212108E+02  0.43917444851E+02  0.00000000000E+00 0. -1.
<mgrwt>
<rscale>  0 0.11555042E+03</rscale>
<asrwt>0</asrwt>
<pdfrwt beam="1">  1        2 0.95776865E-02 0.12636850E+03</pdfrwt>
<pdfrwt beam="2">  1       -2 0.32936760E-01 0.12636850E+03</pdfrwt>
<totfact> 0.54961763E+03</totfact>
</mgrwt>
</event>
<event>
 8    1  0.1020295E-005  0.1444184E+03  0.7546771E-02  0.1217708E+00
          1   -1    0    0  501    0  0.00000000000E+00  0.00000000000E+00  0.42680379622E+03  0.42680379622E+03  0.00000000000E+00 0. -1.
         -1   -1    0    0    0  501 -0.00000000000E+00 -0.00000000000E+00 -0.40863772031E+02  0.40863772031E+02  0.00000000000E+00 0.  1.
         23    2    1    2    0    0  0.70186096215E+02  0.17540030137E+02  0.17580186004E+03  0.22751479270E+03  0.12499178431E+03 0.  0.
         23    2    1    2    0    0 -0.70186096215E+02 -0.17540030137E+02  0.21013816415E+03  0.24015277555E+03  0.91003114311E+02 0.  0.
          5    1    3    3  502    0 -0.14047137507E+02 -0.35568956521E+02  0.22404556880E+02  0.44570471269E+02  0.47000000000E+01 0. -1.
         -5    1    3    3    0  502  0.84233233721E+02  0.53108986658E+02  0.15339730316E+03  0.18294432143E+03  0.47000000000E+01 0. -1.
        -11    1    4    4    0    0 -0.80161349706E+02  0.14482526855E+02  0.16394709170E+03  0.18306893359E+03  0.00000000000E+00 0. -1.
         11    1    4    4    0    0  0.99752534916E+01 -0.32022556993E+02  0.46191072452E+02  0.57083841960E+02  0.00000000000E+00 0.  1.
<mgrwt>
<rscale>  0 0.13679500E+03</rscale>
<asrwt>0</asrwt>
<pdfrwt beam="1">  1        1 0.65662119E-01 0.14441844E+03</pdfrwt>
<pdfrwt beam="2">  1       -1 0.62867345E-02 0.14441844E+03</pdfrwt>
<totfact> 0.66583241E+03</totfact>
</mgrwt>
</event>
<event>
 8    1  0.1020295E-005  0.1288021E+03  0.7546771E-02  0.1242893E+00
          2   -1    0    0  501    0  0.00000000000E+00  0.00000000000E+00  0.91391236420E+02  0.91391236420E+02  0.00000000000E+00 0. -1.
         -2   -1    0    0    0  501 -0.00000000000E+00 -0.00000000000E+00 -0.15277061565E+03  0.15277061565E+03  0.00000000000E+00 0.  1.
         23    2    1    2    0    0  0.30814087120E+02  0.39534468321E+01 -0.69544328661E+02  0.14637760019E+03  0.12499940192E+03 0.  0.
         23    2    1    2    0    0 -0.30814087120E+02 -0.39534468321E+01  0.81649494324E+01  0.97784251882E+02  0.92357759880E+02 0.  0.
          5    1    3    3  502    0  0.79336170760E+02  0.29535770488E+01 -0.36712127954E+02  0.87594645653E+02  0.47000000000E+01 0. -1.
         -5    1    3    3    0  502 -0.48522083640E+02  0.99986978332E+00 -0.32832200706E+02  0.58782954533E+02  0.47000000000E+01 0. -1.
        -11    1    4    4    0    0 -0.37839407160E+02 -0.41987328023E+02  0.15067136133E+02  0.58495940372E+02  0.00000000000E+00 0. -1.
         11    1    4    4    0    0  0.70253200403E+01  0.38033881191E+02 -0.69021867004E+01  0.39288311510E+02  0.00000000000E+00 0.  1.
<mgrwt>
<rscale>  0 0.12012397E+03</rscale>
<asrwt>0</asrwt>
<pdfrwt beam="1">  1        2 0.14060190E-01 0.12880213E+03</pdfrwt>
<pdfrwt beam="2">  1       -2 0.23503171E-01 0.12880213E+03</pdfrwt>
<totfact> 0.63086758E+03</totfact>
</mgrwt>
</event>
<event>
 8    1  0.1020295E-005  0.1707390E+03  0.7546771E-02  0.1183509E+00
         -2   -1    0    0    0  501 -0.00000000000E+00  0.00000000000E+00  0.25859205372E+03  0.25859205372E+03  0.00000000000E+00 0.  1.
          2   -1    0    0  501    0  0.00000000000E+00 -0.00000000000E+00 -0.10837297986E+03  0.10837297986E+03  0.00000000000E+00 0. -1.
         23    2    1    2    0    0 -0.18780227304E+02  0.11477373480E+03  0.13642712076E+03  0.21855012345E+03  0.12500436009E+03 0.  0.
         23    2    1    2    0    0  0.18780227304E+02 -0.11477373480E+03  0.13791953108E+02  0.14841491013E+03  0.91165017639E+02 0.  0.
          5    1    3    3  502    0 -0.42118363259E+02  0.11776325450E+03  0.14636508806E+03  0.19257977474E+03  0.47000000000E+01 0. -1.
         -5    1    3    3    0  502  0.23338135955E+02 -0.29895196998E+01 -0.99379673051E+01  0.25970348708E+02  0.47000000000E+01 0. -1.
        -11    1    4    4    0    0  0.59720194771E+01 -0.12598437006E+03 -0.59594229026E+00  0.12612724393E+03  0.00000000000E+00 0. -1.
         11    1    4    4    0    0  0.12808207827E+02  0.11210635255E+02  0.14387895399E+02  0.22287666198E+02  0.00000000000E+00 0.  1.
<mgrwt>
<rscale>  0 0.16468272E+03</rscale>
<asrwt>0</asrwt>
<pdfrwt beam="2">  1        2 0.16672766E-01 0.17073897E+03</pdfrwt>
<pdfrwt beam="1">  1       -2 0.39783393E-01 0.17073897E+03</pdfrwt>
<totfact> 0.20265458E+03</totfact>
</mgrwt>
</event>
<event>
 8    1  0.1020295E-005  0.1878313E+03  0.7546771E-02  0.1165484E+00
         -2   -1    0    0    0  501 -0.00000000000E+00  0.00000000000E+00  0.27493886786E+03  0.27493886786E+03  0.00000000000E+00 0.  1.
          2   -1    0    0  501    0  0.00000000000E+00 -0.00000000000E+00 -0.12139845801E+03  0.12139845801E+03  0.00000000000E+00 0. -1.
         23    2    1    2    0    0  0.13570282017E+03  0.35214784076E+02  0.12801000671E+03  0.22730407646E+03  0.12500097975E+03 0.  0.
         23    2    1    2    0    0 -0.13570282017E+03 -0.35214784076E+02  0.25530403148E+02  0.16903324941E+03  0.90912603647E+02 0.  0.
          5    1    3    3  502    0  0.86416507578E+02  0.35896428409E+01  0.17823819181E+00  0.86618820626E+02  0.47000000000E+01 0. -1.
         -5    1    3    3    0  502  0.49286312588E+02  0.31625141235E+02  0.12783176852E+03  0.14068525583E+03  0.47000000000E+01 0. -1.
        -11    1    4    4    0    0 -0.11780131510E+03 -0.31931197164E+02  0.55414663822E+02  0.13404303845E+03  0.00000000000E+00 0.  1.
         11    1    4    4    0    0 -0.17901505071E+02 -0.32835869125E+01 -0.29884260674E+02  0.34990210957E+02  0.00000000000E+00 0. -1.
<mgrwt>
<rscale>  0 0.18241736E+03</rscale>
<asrwt>0</asrwt>
<pdfrwt beam="2">  1        2 0.18676686E-01 0.18783126E+03</pdfrwt>
<pdfrwt beam="1">  1       -2 0.42298287E-01 0.18783126E+03</pdfrwt>
<totfact> 0.15863865E+03</totfact>
</mgrwt>
</event>
<event>
 8    1  0.1020295E-005  0.1938378E+03  0.7546771E-02  0.1159592E+00
          2   -1    0    0  501    0  0.00000000000E+00  0.00000000000E+00  0.24459562500E+04  0.24459562500E+04  0.00000000000E+00 0. -1.
         -2   -1    0    0    0  501 -0.00000000000E+00 -0.00000000000E+00 -0.15536114085E+02  0.15536114085E+02  0.00000000000E+00 0.  1.
         23    2    1    2    0    0  0.12299400325E+03  0.82591322854E+02  0.16776273795E+04  0.16887885407E+04  0.12499703779E+03 0.  0.
         23    2    1    2    0    0 -0.12299400325E+03 -0.82591322854E+02  0.75279275637E+03  0.77270382330E+03  0.91790048732E+02 0.  0.
          5    1    3    3  502    0  0.78088312748E+02 -0.65988940758E+01  0.42587733578E+03  0.43305302808E+03  0.47000000000E+01 0. -1.
         -5    1    3    3    0  502  0.44905690499E+02  0.89190216930E+02  0.12517500437E+04  0.12557355127E+04  0.47000000000E+01 0. -1.
        -11    1    4    4    0    0 -0.90538423324E+02 -0.19992196503E+02  0.55559418207E+03  0.56327771940E+03  0.00000000000E+00 0. -1.
         11    1    4    4    0    0 -0.32455579923E+02 -0.62599126351E+02  0.19719857431E+03  0.20942610390E+03  0.00000000000E+00 0.  1.
<mgrwt>
<rscale>  0 0.18875226E+03</rscale>
<asrwt>0</asrwt>
<pdfrwt beam="1">  1        2 0.37630066E+00 0.19383785E+03</pdfrwt>
<pdfrwt beam="2">  1       -2 0.23901733E-02 0.19383785E+03</pdfrwt>
<totfact> 0.25641581E+03</totfact>
</mgrwt>
</event>
<event>
 8    1  0.1020295E-005  0.1252167E+03  0.7546771E-02  0.1251190E+00
         -1   -1    0    0    0  501 -0.00000000000E+00  0.00000000000E+00  0.24188728200E+02  0.24188728200E+02  0.00000000000E+00 0.  1.
          1   -1    0    0  501    0  0.00000000000E+00 -0.00000000000E+00 -0.49831557889E+03  0.49831557889E+03  0.00000000000E+00 0. -1.
         23    2    1    2    0    0 -0.14199212431E+01  0.71866677573E+01 -0.22213883782E+03  0.25499976597E+03  0.12500221202E+03 0.  0.
         23    2    1    2    0    0  0.14199212431E+01 -0.71866677573E+01 -0.25198801287E+03  0.26750454112E+03  0.89482157538E+02 0.  0.
          5    1    3    3  502    0  0.38955688951E+02 -0.36414954841E+02 -0.51636791193E+02  0.74377703934E+02  0.47000000000E+01 0.  1.
         -5    1    3    3    0  502 -0.40375610194E+02  0.43601622599E+02 -0.17050204663E+03  0.18062206204E+03  0.47000000000E+01 0.  1.
        -11    1    4    4    0    0 -0.29257474665E+02  0.20521232276E+02 -0.50783270152E+02  0.62097192571E+02  0.00000000000E+00 0.  1.
         11    1    4    4    0    0  0.30677395908E+02 -0.27707900033E+02 -0.20120474272E+03  0.20540734855E+03  0.00000000000E+00 0. -1.
<mgrwt>
<rscale>  0 0.11522411E+03</rscale>
<asrwt>0</asrwt>
<pdfrwt beam="2">  1        1 0.76663933E-01 0.12521668E+03</pdfrwt>
<pdfrwt beam="1">  1       -1 0.37213429E-02 0.12521668E+03</pdfrwt>
<totfact> 0.11725978E+04</totfact>
</mgrwt>
</event>
<event>
 8    1  0.1020295E-005  0.2017873E+03  0.7546771E-02  0.1152488E+00
         -2   -1    0    0    0  501 -0.00000000000E+00  0.00000000000E+00  0.16560169144E+03  0.16560169144E+03  0.00000000000E+00 0.  1.
          2   -1    0    0  501    0  0.00000000000E+00 -0.00000000000E+00 -0.23699216707E+03  0.23699216707E+03  0.00000000000E+00 0. -1.
         23    2    1    2    0    0  0.11661736034E+03  0.10720975133E+03  0.11623412337E+02  0.20212177707E+03  0.12499827815E+03 0.  0.
         23    2    1    2    0    0 -0.11661736034E+03 -0.10720975133E+03 -0.83013887962E+02  0.20047208143E+03  0.90577096043E+02 0.  0.
          5    1    3    3  502    0  0.36938407964E+02  0.75618315302E+02  0.60115203748E+02  0.10353020484E+03  0.47000000000E+01 0. -1.
         -5    1    3    3    0  502  0.79678952373E+02  0.31591436029E+02 -0.48491791412E+02  0.98591572236E+02  0.47000000000E+01 0. -1.
        -11    1    4    4    0    0 -0.84376171760E+02 -0.17871609607E+02 -0.51237263410E+02  0.10031943955E+03  0.00000000000E+00 0.  1.
         11    1    4    4    0    0 -0.32241188578E+02 -0.89338141724E+02 -0.31776624552E+02  0.10015264188E+03  0.00000000000E+00 0. -1.
<mgrwt>
<rscale>  0 0.19677604E+03</rscale>
<asrwt>0</asrwt>
<pdfrwt beam="2">  1        2 0.36460333E-01 0.20178729E+03</pdfrwt>
<pdfrwt beam="1">  1       -2 0.25477184E-01 0.20178729E+03</pdfrwt>
<totfact> 0.19226823E+03</totfact>
</mgrwt>
</event>
<event>
 8    1  0.1020295E-005  0.1354560E+03  0.7546771E-02  0.1231697E+00
         -2   -1    0    0    0  501 -0.00000000000E+00  0.00000000000E+00  0.17766319606E+03  0.17766319606E+03  0.00000000000E+00 0.  1.
          2   -1    0    0  501    0  0.00000000000E+00 -0.00000000000E+00 -0.85425458387E+02  0.85425458387E+02  0.00000000000E+00 0. -1.
         23    2    1    2    0    0 -0.52175858524E+02  0.11006192565E+01  0.79463844263E+02  0.15704402224E+03  0.12499916320E+03 0.  0.
         23    2    1    2    0    0  0.52175858524E+02 -0.11006192565E+01  0.12773893414E+02  0.10604463221E+03  0.91426254938E+02 0.  0.
          5    1    3    3  502    0 -0.46822457747E+02 -0.19316332895E+02  0.10908923788E+03  0.12036617086E+03  0.47000000000E+01 0. -1.
         -5    1    3    3    0  502 -0.53534007774E+01  0.20416952151E+02 -0.29625393617E+02  0.36677851382E+02  0.47000000000E+01 0. -1.
        -11    1    4    4    0    0 -0.85914030731E+01 -0.22063644817E+02  0.31206855213E+02  0.39172495984E+02  0.00000000000E+00 0.  1.
         11    1    4    4    0    0  0.60767261598E+02  0.20963025560E+02 -0.18432961799E+02  0.66872136226E+02  0.00000000000E+00 0. -1.
<mgrwt>
<rscale>  0 0.12718249E+03</rscale>
<asrwt>0</asrwt>
<pdfrwt beam="2">  1        2 0.13142378E-01 0.13545598E+03</pdfrwt>
<pdfrwt beam="1">  1       -2 0.27332799E-01 0.13545598E+03</pdfrwt>
<totfact> 0.52667112E+03</totfact>
</mgrwt>
</event>
<event>
 8    1  0.1020295E-005  0.1410740E+03  0.7546771E-02  0.1220184E+00
         -3   -1    0    0    0  501 -0.00000000000E+00  0.00000000000E+00  0.10661747177E+03  0.10661747177E+03  0.00000000000E+00 0.  1.
          3   -1    0    0  501    0  0.00000000000E+00 -0.00000000000E+00 -0.20964568353E+03  0.20964568353E+03  0.00000000000E+00 0. -1.
         23    2    1    2    0    0 -0.53087124159E+02  0.38353233409E+02  0.23460689752E+02  0.14301147368E+03  0.12495064776E+03 0.  0.
         23    2    1    2    0    0  0.53087124159E+02 -0.38353233409E+02 -0.12648890151E+03  0.17325168162E+03  0.98628037163E+02 0.  0.
          5    1    3    3  502    0 -0.62072914517E+02  0.40023359652E+02 -0.36260408514E+02  0.82412518832E+02  0.47000000000E+01 0.  1.
         -5    1    3    3    0  502  0.89857903586E+01 -0.16701262436E+01  0.59721098266E+02  0.60598954844E+02  0.47000000000E+01 0.  1.
        -11    1    4    4    0    0  0.39073195965E+01 -0.45816080987E+02 -0.10672166877E+02  0.47204613856E+02  0.00000000000E+00 0.  1.
         11    1    4    4    0    0  0.49179804562E+02  0.74628475780E+01 -0.11581673464E+03  0.12604706777E+03  0.00000000000E+00 0. -1.
<mgrwt>
<rscale>  0 0.13502557E+03</rscale>
<asrwt>0</asrwt>
<pdfrwt beam="2">  1        3 0.32253182E-01 0.14107401E+03</pdfrwt>
<pdfrwt beam="1">  1       -3 0.16402688E-01 0.14107401E+03</pdfrwt>
<totfact> 0.69341547E+02</totfact>
</mgrwt>
</event>
<event>
 8    1  0.1020295E-005  0.1497637E+03  0.7546771E-02  0.1210664E+00
          2   -1    0    0  501    0  0.00000000000E+00  0.00000000000E+00  0.79447354174E+03  0.79447354174E+03  0.00000000000E+00 0. -1.
         -2   -1    0    0    0  501 -0.00000000000E+00 -0.00000000000E+00 -0.23078181091E+02  0.23078181091E+02  0.00000000000E+00 0.  1.
         23    2    1    2    0    0 -0.69102646875E+02 -0.45052155976E+02  0.42276554830E+03  0.44850851256E+03  0.12499721775E+03 0.  0.
         23    2    1    2    0    0  0.69102646875E+02  0.45052155976E+02  0.34862981235E+03  0.36904321027E+03  0.88573542473E+02 0.  0.
          5    1    3    3  502    0 -0.71159047858E+01 -0.63470145771E+02  0.32465034591E+03  0.33090638042E+03  0.47000000000E+01 0.  1.
         -5    1    3    3    0  502 -0.61986742089E+02  0.18417989795E+02  0.98115202392E+02  0.11760213214E+03  0.47000000000E+01 0.  1.
        -11    1    4    4    0    0  0.80015612441E+02  0.55897263532E+02  0.33340304182E+03  0.34739687765E+03  0.00000000000E+00 0. -1.
         11    1    4    4    0    0 -0.10912965567E+02 -0.10845107556E+02  0.15226770531E+02  0.21646332626E+02  0.00000000000E+00 0.  1.
<mgrwt>
<rscale>  0 0.14199899E+03</rscale>
<asrwt>0</asrwt>
<pdfrwt beam="1">  1        2 0.12222668E+00 0.14976374E+03</pdfrwt>
<pdfrwt beam="2">  1       -2 0.35504900E-02 0.14976374E+03</pdfrwt>
<totfact> 0.11348202E+04</totfact>
</mgrwt>
</event>
<event>
 8    1  0.1020295E-005  0.1980373E+03  0.7546771E-02  0.1155958E+00
          2   -1    0    0  501    0  0.00000000000E+00  0.00000000000E+00  0.82730407711E+03  0.82730407711E+03  0.00000000000E+00 0. -1.
         -2   -1    0    0    0  501 -0.00000000000E+00 -0.00000000000E+00 -0.91098170592E+02  0.91098170592E+02  0.00000000000E+00 0.  1.
         23    2    1    2    0    0 -0.36553509640E+02 -0.14919098116E+03  0.42897169521E+02  0.20263010102E+03  0.12499873103E+03 0.  0.
         23    2    1    2    0    0  0.36553509640E+02  0.14919098116E+03  0.69330873699E+03  0.71577214668E+03  0.89770001915E+02 0.  0.
          5    1    3    3  502    0  0.18626885605E+01 -0.15642925125E+02 -0.38254719125E+02  0.41637534155E+02  0.47000000000E+01 0. -1.
         -5    1    3    3    0  502 -0.38416198201E+02 -0.13354805604E+03  0.81151888646E+02  0.16099256686E+03  0.47000000000E+01 0. -1.
        -11    1    4    4    0    0 -0.87519881674E+01  0.10866822663E+03  0.53916724524E+03  0.55007881173E+03  0.00000000000E+00 0.  1.
         11    1    4    4    0    0  0.45305497807E+02  0.40522754529E+02  0.15414149175E+03  0.16569333495E+03  0.00000000000E+00 0. -1.
<mgrwt>
<rscale>  0 0.19280211E+03</rscale>
<asrwt>0</asrwt>
<pdfrwt beam="1">  1        2 0.12727755E+00 0.19803735E+03</pdfrwt>
<pdfrwt beam="2">  1       -2 0.14015104E-01 0.19803735E+03</pdfrwt>
<totfact> 0.13016266E+03</totfact>
</mgrwt>
</event>
<event>
 8    1  0.1020295E-005  0.1328324E+03  0.7546771E-02  0.1237370E+00
         -2   -1    0    0    0  501 -0.00000000000E+00  0.00000000000E+00  0.16886716324E+03  0.16886716324E+03  0.00000000000E+00 0.  1.
          2   -1    0    0  501    0  0.00000000000E+00 -0.00000000000E+00 -0.89204478481E+02  0.89204478481E+02  0.00000000000E+00 0. -1.
         23    2    1    2    0    0 -0.41808529327E+02 -0.16457018895E+02  0.86403335148E+02  0.15846131370E+03  0.12500266005E+03 0.  0.
         23    2    1    2    0    0  0.41808529327E+02  0.16457018895E+02 -0.67406503845E+01  0.99610328023E+02  0.88645329746E+02 0.  0.
          5    1    3    3  502    0  0.25064659835E+02 -0.40537182170E+02  0.70904197086E+02  0.85562815962E+02  0.47000000000E+01 0.  1.
         -5    1    3    3    0  502 -0.66873189163E+02  0.24080163276E+02  0.15499138062E+02  0.72898497741E+02  0.47000000000E+01 0.  1.
        -11    1    4    4    0    0 -0.25201675851E+02 -0.33749037510E+01 -0.14544603418E+02  0.29292659995E+02  0.00000000000E+00 0. -1.
         11    1    4    4    0    0  0.67010205179E+02  0.19831922646E+02  0.78039530331E+01  0.70317668028E+02  0.00000000000E+00 0.  1.
<mgrwt>
<rscale>  0 0.12353926E+03</rscale>
<asrwt>0</asrwt>
<pdfrwt beam="2">  1        2 0.13723766E-01 0.13283242E+03</pdfrwt>
<pdfrwt beam="1">  1       -2 0.25979564E-01 0.13283242E+03</pdfrwt>
<totfact> 0.54645255E+03</totfact>
</mgrwt>
</event>
<event>
 8    1  0.1020295E-005  0.1323192E+03  0.7546771E-02  0.1237198E+00
          2   -1    0    0  501    0  0.00000000000E+00  0.00000000000E+00  0.47702104913E+03  0.47702104913E+03  0.00000000000E+00 0. -1.
         -2   -1    0    0    0  501 -0.00000000000E+00 -0.00000000000E+00 -0.28932588677E+02  0.28932588677E+02  0.00000000000E+00 0.  1.
         23    2    1    2    0    0  0.28539467381E+02  0.32736931110E+02  0.28427024620E+03  0.31355694187E+03  0.12498869973E+03 0.  0.
         23    2    1    2    0    0 -0.28539467381E+02 -0.32736931110E+02  0.16381821425E+03  0.19239669594E+03  0.91070705669E+02 0.  0.
          5    1    3    3  502    0  0.57126294046E+02  0.15170175171E+02  0.27060444651E+03  0.27702419417E+03  0.47000000000E+01 0.  1.
         -5    1    3    3    0  502 -0.28586826665E+02  0.17566755939E+02  0.13665799694E+02  0.36532747697E+02  0.47000000000E+01 0.  1.
        -11    1    4    4    0    0 -0.24517487075E+02  0.25035465103E+02  0.10124241524E+03  0.10713500049E+03  0.00000000000E+00 0. -1.
         11    1    4    4    0    0 -0.40219803054E+01 -0.57772396213E+02  0.62575799011E+02  0.85261695454E+02  0.00000000000E+00 0.  1.
<mgrwt>
<rscale>  0 0.12364774E+03</rscale>
<asrwt>0</asrwt>
<pdfrwt beam="1">  1        2 0.73387848E-01 0.13231925E+03</pdfrwt>
<pdfrwt beam="2">  1       -2 0.44511678E-02 0.13231925E+03</pdfrwt>
<totfact> 0.14477683E+04</totfact>
</mgrwt>
</event>
<event>
 8    1  0.1020295E-005  0.1313502E+03  0.7546771E-02  0.1238632E+00
         -2   -1    0    0    0  501 -0.00000000000E+00  0.00000000000E+00  0.10522573517E+03  0.10522573517E+03  0.00000000000E+00 0.  1.
          2   -1    0    0  501    0  0.00000000000E+00 -0.00000000000E+00 -0.12776687642E+03  0.12776687642E+03  0.00000000000E+00 0. -1.
         23    2    1    2    0    0  0.40164900067E+02  0.35616392641E+01 -0.62275230704E+01  0.13149770654E+03  0.12500784100E+03 0.  0.
         23    2    1    2    0    0 -0.40164900067E+02 -0.35616392641E+01 -0.16313618181E+02  0.10149490504E+03  0.91701565637E+02 0.  0.
          5    1    3    3  502    0  0.33773382862E+02  0.19391943057E+02  0.55115707446E+02  0.67649981913E+02  0.47000000000E+01 0. -1.
         -5    1    3    3    0  502  0.63915172056E+01 -0.15830303793E+02 -0.61343230517E+02  0.63847724631E+02  0.47000000000E+01 0. -1.
        -11    1    4    4    0    0  0.95668140841E+01 -0.38009784425E+02 -0.11292890276E+02  0.40789667988E+02  0.00000000000E+00 0. -1.
         11    1    4    4    0    0 -0.49731714152E+02  0.34448145161E+02 -0.50207279053E+01  0.60705237057E+02  0.00000000000E+00 0.  1.
<mgrwt>
<rscale>  0 0.12274762E+03</rscale>
<asrwt>0</asrwt>
<pdfrwt beam="2">  1        2 0.19656442E-01 0.13135016E+03</pdfrwt>
<pdfrwt beam="1">  1       -2 0.16188575E-01 0.13135016E+03</pdfrwt>
<totfact> 0.80442074E+03</totfact>
</mgrwt>
</event>
<event>
 8    1  0.1020295E-005  0.1288955E+03  0.7546771E-02  0.1243254E+00
         -2   -1    0    0    0  501 -0.00000000000E+00  0.00000000000E+00  0.49669098911E+02  0.49669098911E+02  0.00000000000E+00 0.  1.
          2   -1    0    0  501    0  0.00000000000E+00 -0.00000000000E+00 -0.38954103471E+03  0.38954103471E+03  0.00000000000E+00 0. -1.
         23    2    1    2    0    0  0.31018909850E+02 -0.51269150509E+01 -0.58138552016E+02  0.14140066971E+03  0.12500240053E+03 0.  0.
         23    2    1    2    0    0 -0.31018909850E+02  0.51269150509E+01 -0.28173338378E+03  0.29780946390E+03  0.91259625399E+02 0.  0.
          5    1    3    3  502    0  0.38862245403E+02 -0.56118760755E+02 -0.57840465332E+02  0.89594636315E+02  0.47000000000E+01 0. -1.
         -5    1    3    3    0  502 -0.78433355535E+01  0.50991845704E+02 -0.29808668419E+00  0.51806033400E+02  0.47000000000E+01 0. -1.
        -11    1    4    4    0    0  0.71752318414E+01  0.33185069030E+02 -0.20371296592E+03  0.20652289278E+03  0.00000000000E+00 0. -1.
         11    1    4    4    0    0 -0.38194141691E+02 -0.28058153979E+02 -0.78020417859E+02  0.91286571121E+02  0.00000000000E+00 0.  1.
<mgrwt>
<rscale>  0 0.11990481E+03</rscale>
<asrwt>0</asrwt>
<pdfrwt beam="2">  1        2 0.59929390E-01 0.12889553E+03</pdfrwt>
<pdfrwt beam="1">  1       -2 0.76413999E-02 0.12889553E+03</pdfrwt>
<totfact> 0.79312526E+03</totfact>
</mgrwt>
</event>
<event>
 8    1  0.1020295E-005  0.1299205E+03  0.7546771E-02  0.1242822E+00
          4   -1    0    0  501    0  0.00000000000E+00  0.00000000000E+00  0.45759023420E+02  0.45759023420E+02  0.00000000000E+00 0. -1.
         -4   -1    0    0    0  501 -0.00000000000E+00 -0.00000000000E+00 -0.29197537103E+03  0.29197537103E+03  0.00000000000E+00 0.  1.
         23    2    1    2    0    0 -0.24915324101E+02  0.25163965008E+02 -0.17947719623E+03  0.22156579579E+03  0.12500135754E+03 0.  0.
         23    2    1    2    0    0  0.24915324101E+02 -0.25163965008E+02 -0.66739151384E+02  0.11616859866E+03  0.88244152655E+02 0.  0.
          5    1    3    3  502    0 -0.11554766436E+02 -0.30296860275E+02  0.43500303614E+00  0.32767233596E+02  0.47000000000E+01 0. -1.
         -5    1    3    3    0  502 -0.13360557666E+02  0.55460825283E+02 -0.17991219927E+03  0.18879856220E+03  0.47000000000E+01 0. -1.
        -11    1    4    4    0    0 -0.24219381186E+02 -0.33306462548E+02 -0.47272969672E+02  0.62694756831E+02  0.00000000000E+00 0.  1.
         11    1    4    4    0    0  0.49134705287E+02  0.81424975398E+01 -0.19466181712E+02  0.53473841832E+02  0.00000000000E+00 0. -1.
<mgrwt>
<rscale>  0 0.12016708E+03</rscale>
<asrwt>0</asrwt>
<pdfrwt beam="1">  1        4 0.70398497E-02 0.12992051E+03</pdfrwt>
<pdfrwt beam="2">  1       -4 0.44919288E-01 0.12992051E+03</pdfrwt>
<totfact> 0.10771861E+03</totfact>
</mgrwt>
</event>
<event>
 8    1  0.1020295E-005  0.1530334E+03  0.7546771E-02  0.1204978E+00
         -2   -1    0    0    0  501 -0.00000000000E+00  0.00000000000E+00  0.17899040440E+02  0.17899040440E+02  0.00000000000E+00 0.  1.
          2   -1    0    0  501    0  0.00000000000E+00 -0.00000000000E+00 -0.11124100495E+04  0.11124100495E+04  0.00000000000E+00 0. -1.
         23    2    1    2    0    0 -0.81390077627E+02  0.34227434512E+02 -0.54721681637E+03  0.56821250838E+03  0.12499339405E+03 0.  0.
         23    2    1    2    0    0  0.81390077627E+02 -0.34227434512E+02 -0.54729419271E+03  0.56209658158E+03  0.92875032373E+02 0.  0.
          5    1    3    3  502    0 -0.87174218132E+02  0.53787994455E-01 -0.18782123591E+03  0.20711893651E+03  0.47000000000E+01 0. -1.
         -5    1    3    3    0  502  0.57841405053E+01  0.34173646517E+02 -0.35939558046E+03  0.36109357187E+03  0.47000000000E+01 0. -1.
        -11    1    4    4    0    0  0.88953042307E+02  0.41243433755E+01 -0.37744034042E+03  0.38780261025E+03  0.00000000000E+00 0. -1.
         11    1    4    4    0    0 -0.75629646805E+01 -0.38351777887E+02 -0.16985385229E+03  0.17429397133E+03  0.00000000000E+00 0.  1.
<mgrwt>
<rscale>  0 0.14639176E+03</rscale>
<asrwt>0</asrwt>
<pdfrwt beam="2">  1        2 0.17113997E+00 0.15303336E+03</pdfrwt>
<pdfrwt beam="1">  1       -2 0.27536991E-02 0.15303336E+03</pdfrwt>
<totfact> 0.10512316E+04</totfact>
</mgrwt>
</event>
<event>
 8    1  0.1020295E-005  0.1464740E+03  0.7546771E-02  0.1214817E+00
          2   -1    0    0  501    0  0.00000000000E+00  0.00000000000E+00  0.36435653940E+03  0.36435653940E+03  0.00000000000E+00 0. -1.
         -2   -1    0    0    0  501 -0.00000000000E+00 -0.00000000000E+00 -0.49374063589E+02  0.49374063589E+02  0.00000000000E+00 0.  1.
         23    2    1    2    0    0 -0.92486133437E+01 -0.75792675664E+02  0.14142303537E+03  0.20360528922E+03  0.12499828932E+03 0.  0.
         23    2    1    2    0    0  0.92486133437E+01  0.75792675664E+02  0.17355944044E+03  0.21012531377E+03  0.90552203657E+02 0.  0.
          5    1    3    3  502    0 -0.63043284221E+02 -0.59607987949E+02  0.64381728978E+02  0.10814187412E+03  0.47000000000E+01 0. -1.
         -5    1    3    3    0  502  0.53794670877E+02 -0.16184687716E+02  0.77041306394E+02  0.95463415098E+02  0.47000000000E+01 0. -1.
        -11    1    4    4    0    0  0.26889308516E+02  0.38757026443E+02  0.20096122990E+02  0.51273737629E+02  0.00000000000E+00 0.  1.
         11    1    4    4    0    0 -0.17640695172E+02  0.37035649221E+02  0.15346331745E+03  0.15885157614E+03  0.00000000000E+00 0. -1.
<mgrwt>
<rscale>  0 0.13889985E+03</rscale>
<asrwt>0</asrwt>
<pdfrwt beam="1">  1        2 0.56054850E-01 0.14647402E+03</pdfrwt>
<pdfrwt beam="2">  1       -2 0.75960100E-02 0.14647402E+03</pdfrwt>
<totfact> 0.86690658E+03</totfact>
</mgrwt>
</event>
<event>
 8    1  0.4395679E-005  0.2600074E+03  0.7546771E-02  0.1109460E+00
         -1   -1    0    0    0  501 -0.00000000000E+00  0.00000000000E+00  0.34267852137E+02  0.34267852137E+02  0.00000000000E+00 0.  1.
          1   -1    0    0  501    0  0.00000000000E+00 -0.00000000000E+00 -0.19172336918E+04  0.19172336918E+04  0.00000000000E+00 0. -1.
         23    2    1    2    0    0 -0.61085963827E+02  0.21965322922E+03 -0.80127936852E+03  0.84240874777E+03  0.12499934330E+03 0.  0.
         23    2    1    2    0    0  0.61085963827E+02 -0.21965322922E+03 -0.10816864711E+04  0.11090927961E+04  0.89789601621E+02 0.  0.
          5    1    3    3  502    0 -0.63875897924E+01  0.19657872798E+03 -0.54872238290E+03  0.58292567373E+03  0.47000000000E+01 0. -1.
         -5    1    3    3    0  502 -0.54698374035E+02  0.23074501239E+02 -0.25255698562E+03  0.25948307404E+03  0.47000000000E+01 0. -1.
        -11    1    4    4    0    0 -0.22078271728E+02 -0.30761916946E+02 -0.20214697922E+03  0.20566270159E+03  0.00000000000E+00 0. -1.
         11    1    4    4    0    0  0.83164235555E+02 -0.18889131228E+03 -0.87953949190E+03  0.90343009455E+03  0.00000000000E+00 0.  1.
<mgrwt>
<rscale>  0 0.25618017E+03</rscale>
<asrwt>0</asrwt>
<pdfrwt beam="2">  1        1 0.29495912E+00 0.26000745E+03</pdfrwt>
<pdfrwt beam="1">  1       -1 0.52719756E-02 0.26000745E+03</pdfrwt>
<totfact> 0.62123149E+02</totfact>
</mgrwt>
</event>
<event>
 8    1  0.1020295E-005  0.1270060E+03  0.7546771E-02  0.1244801E+00
         -2   -1    0    0    0  501 -0.00000000000E+00  0.00000000000E+00  0.42108320945E+02  0.42108320945E+02  0.00000000000E+00 0.  1.
          2   -1    0    0  501    0  0.00000000000E+00 -0.00000000000E+00 -0.30008844689E+03  0.30008844689E+03  0.00000000000E+00 0. -1.
         23    2    1    2    0    0  0.34966492159E+01  0.22231565419E+02 -0.14351359346E+03  0.19164208307E+03  0.12499626970E+03 0.  0.
         23    2    1    2    0    0 -0.34966492159E+01 -0.22231565419E+02 -0.11446653248E+03  0.15055468476E+03  0.95171723685E+02 0.  0.
          5    1    3    3  502    0  0.14077647655E+02  0.71573170157E+02 -0.10522939328E+03  0.12812577438E+03  0.47000000000E+01 0. -1.
         -5    1    3    3    0  502 -0.10580998439E+02 -0.49341604738E+02 -0.38284200179E+02  0.63516308689E+02  0.47000000000E+01 0. -1.
        -11    1    4    4    0    0 -0.16948867419E+02 -0.27041725256E+02 -0.12736775604E+03  0.13130523330E+03  0.00000000000E+00 0. -1.
         11    1    4    4    0    0  0.13452218203E+02  0.48101598370E+01  0.12901223564E+02  0.19249451465E+02  0.00000000000E+00 0.  1.
<mgrwt>
<rscale>  0 0.11897315E+03</rscale>
<asrwt>0</asrwt>
<pdfrwt beam="2">  1        2 0.46167453E-01 0.12700605E+03</pdfrwt>
<pdfrwt beam="1">  1       -2 0.64782032E-02 0.12700605E+03</pdfrwt>
<totfact> 0.13445602E+04</totfact>
</mgrwt>
</event>
<event>
 8    1  0.1020295E-005  0.1358956E+03  0.7546771E-02  0.1230723E+00
          1   -1    0    0  501    0  0.00000000000E+00  0.00000000000E+00  0.27860132895E+02  0.27860132895E+02  0.00000000000E+00 0. -1.
         -1   -1    0    0    0  501 -0.00000000000E+00 -0.00000000000E+00 -0.54065460363E+03  0.54065460363E+03  0.00000000000E+00 0.  1.
         23    2    1    2    0    0 -0.48381557278E+02 -0.22429552067E+02 -0.33222717565E+03  0.35894639887E+03  0.12499504442E+03 0.  0.
         23    2    1    2    0    0  0.48381557278E+02  0.22429552067E+02 -0.18056729508E+03  0.20956833765E+03  0.92035211756E+02 0.  0.
          5    1    3    3  502    0 -0.66090248256E+02 -0.25928919996E+02 -0.84273393099E+02  0.11029199695E+03  0.47000000000E+01 0. -1.
         -5    1    3    3    0  502  0.17708690978E+02  0.34993679287E+01 -0.24795378255E+03  0.24865440192E+03  0.47000000000E+01 0. -1.
        -11    1    4    4    0    0  0.26384988173E+01 -0.33780949205E+02 -0.59122410022E+02  0.68143771337E+02  0.00000000000E+00 0.  1.
         11    1    4    4    0    0  0.45743058461E+02  0.56210501272E+02 -0.12144488506E+03  0.14142456632E+03  0.00000000000E+00 0. -1.
<mgrwt>
<rscale>  0 0.12782263E+03</rscale>
<asrwt>0</asrwt>
<pdfrwt beam="1">  1        1 0.42861746E-02 0.13589563E+03</pdfrwt>
<pdfrwt beam="2">  1       -1 0.83177626E-01 0.13589563E+03</pdfrwt>
<totfact> 0.29908908E+03</totfact>
</mgrwt>
</event>
<event>
 8    1  0.1020295E-005  0.1352986E+03  0.7546771E-02  0.1229811E+00
         -1   -1    0    0    0  501 -0.00000000000E+00  0.00000000000E+00  0.56380135243E+02  0.56380135243E+02  0.00000000000E+00 0.  1.
          1   -1    0    0  501    0  0.00000000000E+00 -0.00000000000E+00 -0.26652507480E+03  0.26652507480E+03  0.00000000000E+00 0. -1.
         23    2    1    2    0    0 -0.17001103720E+02 -0.48907850158E+02 -0.11317577491E+03  0.17639295552E+03  0.12499881357E+03 0.  0.
         23    2    1    2    0    0  0.17001103720E+02  0.48907850158E+02 -0.96969164648E+02  0.14651225453E+03  0.96859725887E+02 0.  0.
          5    1    3    3  502    0 -0.60427973828E+02 -0.54367064666E+02 -0.39331262920E+02  0.90423204899E+02  0.47000000000E+01 0. -1.
         -5    1    3    3    0  502  0.43426870107E+02  0.54592145082E+01 -0.73844511989E+02  0.85969750617E+02  0.47000000000E+01 0. -1.
        -11    1    4    4    0    0  0.13362452885E+02 -0.28837951917E+02 -0.24022267509E+02  0.39840330748E+02  0.00000000000E+00 0. -1.
         11    1    4    4    0    0  0.36386508354E+01  0.77745802075E+02 -0.72946897139E+02  0.10667192378E+03  0.00000000000E+00 0.  1.
<mgrwt>
<rscale>  0 0.12842547E+03</rscale>
<asrwt>0</asrwt>
<pdfrwt beam="2">  1        1 0.41003857E-01 0.13529863E+03</pdfrwt>
<pdfrwt beam="1">  1       -1 0.86738670E-02 0.13529863E+03</pdfrwt>
<totfact> 0.73543995E+03</totfact>
</mgrwt>
</event>
<event>
 8    1  0.1020295E-005  0.1273867E+03  0.7546771E-02  0.1246916E+00
         -2   -1    0    0    0  501 -0.00000000000E+00  0.00000000000E+00  0.44798516315E+02  0.44798516315E+02  0.00000000000E+00 0.  1.
          2   -1    0    0  501    0  0.00000000000E+00 -0.00000000000E+00 -0.27411865363E+03  0.27411865363E+03  0.00000000000E+00 0. -1.
         23    2    1    2    0    0  0.22795698582E+02  0.91425713395E+01 -0.11498224926E+03  0.17160500573E+03  0.12499651939E+03 0.  0.
         23    2    1    2    0    0 -0.22795698582E+02 -0.91425713395E+01 -0.11433788805E+03  0.14731216422E+03  0.89579521085E+02 0.  0.
          5    1    3    3  502    0  0.40014374116E+01  0.32129294640E+02 -0.13272496515E+03  0.13669787654E+03  0.47000000000E+01 0. -1.
         -5    1    3    3    0  502  0.18794261170E+02 -0.22986723300E+02  0.17742715889E+02  0.34907129188E+02  0.47000000000E+01 0. -1.
        -11    1    4    4    0    0 -0.55825574949E+02  0.23465474075E+01 -0.54795360256E+02  0.78259393103E+02  0.00000000000E+00 0.  1.
         11    1    4    4    0    0  0.33029876367E+02 -0.11489118747E+02 -0.59542527793E+02  0.69052771114E+02  0.00000000000E+00 0. -1.
<mgrwt>
<rscale>  0 0.11771450E+03</rscale>
<asrwt>0</asrwt>
<pdfrwt beam="2">  1        2 0.42172101E-01 0.12738666E+03</pdfrwt>
<pdfrwt beam="1">  1       -2 0.68920794E-02 0.12738666E+03</pdfrwt>
<totfact> 0.13467329E+04</totfact>
</mgrwt>
</event>
<event>
 8    1  0.1020295E-005  0.1362835E+03  0.7546771E-02  0.1229831E+00
          3   -1    0    0  501    0  0.00000000000E+00  0.00000000000E+00  0.46544681779E+03  0.46544681779E+03  0.00000000000E+00 0. -1.
         -3   -1    0    0    0  501 -0.00000000000E+00 -0.00000000000E+00 -0.33434422401E+02  0.33434422401E+02  0.00000000000E+00 0.  1.
         23    2    1    2    0    0  0.40909471968E+02 -0.35728271729E+02  0.18734578900E+03  0.23167139429E+03  0.12499238368E+03 0.  0.
         23    2    1    2    0    0 -0.40909471968E+02  0.35728271729E+02  0.24466660639E+03  0.26720984591E+03  0.92678256173E+02 0.  0.
          5    1    3    3  502    0  0.51387536640E+02 -0.12681557781E+02  0.12039735536E+02  0.54484365294E+02  0.47000000000E+01 0.  1.
         -5    1    3    3    0  502 -0.10478064672E+02 -0.23046713947E+02  0.17530605346E+03  0.17718702899E+03  0.47000000000E+01 0.  1.
        -11    1    4    4    0    0 -0.54058698421E+01 -0.30760509397E+02  0.87423296666E+02  0.92834611903E+02  0.00000000000E+00 0. -1.
         11    1    4    4    0    0 -0.35503602126E+02  0.66488781126E+02  0.15724330973E+03  0.17437523400E+03  0.00000000000E+00 0.  1.
<mgrwt>
<rscale>  0 0.12841186E+03</rscale>
<asrwt>0</asrwt>
<pdfrwt beam="1">  1        3 0.71607198E-01 0.13628349E+03</pdfrwt>
<pdfrwt beam="2">  1       -3 0.51437576E-02 0.13628349E+03</pdfrwt>
<totfact> 0.95482936E+02</totfact>
</mgrwt>
</event>
<event>
 8    1  0.1020295E-005  0.1316275E+03  0.7546771E-02  0.1230695E+00
         -1   -1    0    0    0  501 -0.00000000000E+00  0.00000000000E+00  0.18917671592E+03  0.18917671592E+03  0.00000000000E+00 0.  1.
          1   -1    0    0  501    0  0.00000000000E+00 -0.00000000000E+00 -0.21955596228E+03  0.21955596228E+03  0.00000000000E+00 0. -1.
         23    2    1    2    0    0 -0.31664362109E+02  0.61789943359E+02  0.14627478568E+03  0.19677934251E+03  0.11182650752E+03 0.  0.
         23    2    1    2    0    0  0.31664362109E+02 -0.61789943359E+02 -0.17665403204E+03  0.21195333570E+03  0.94323594875E+02 0.  0.
          5    1    3    3  502    0  0.33410275885E+02  0.14534375883E+01  0.12158022291E+02  0.35892429864E+02  0.47000000000E+01 0. -1.
         -5    1    3    3    0  502 -0.65074637994E+02  0.60336505771E+02  0.13411676339E+03  0.16088691264E+03  0.47000000000E+01 0.  1.
        -11    1    4    4    0    0  0.62213836536E+02 -0.55390053883E+02 -0.14666239062E+03  0.16866676125E+03  0.00000000000E+00 0. -1.
         11    1    4    4    0    0 -0.30549474427E+02 -0.63998894763E+01 -0.29991641415E+02  0.43286574452E+02  0.00000000000E+00 0.  1.
<mgrwt>
<rscale>  0 0.12784084E+03</rscale>
<asrwt>0</asrwt>
<pdfrwt beam="2">  1        1 0.33777840E-01 0.13162749E+03</pdfrwt>
<pdfrwt beam="1">  1       -1 0.29104110E-01 0.13162749E+03</pdfrwt>
<totfact> 0.13788776E+03</totfact>
</mgrwt>
</event>
<event>
 8    1  0.1020295E-005  0.1377535E+03  0.7546771E-02  0.1229754E+00
          1   -1    0    0  501    0  0.00000000000E+00  0.00000000000E+00  0.65816702786E+02  0.65816702786E+02  0.00000000000E+00 0. -1.
         -1   -1    0    0    0  501 -0.00000000000E+00 -0.00000000000E+00 -0.22265633225E+03  0.22265633225E+03  0.00000000000E+00 0.  1.
         23    2    1    2    0    0 -0.57198396770E+02 -0.90411308271E+01 -0.94679041561E+02  0.16715308709E+03  0.12499053953E+03 0.  0.
         23    2    1    2    0    0  0.57198396770E+02  0.90411308271E+01 -0.62160587906E+02  0.12131994795E+03  0.86609424674E+02 0.  0.
          5    1    3    3  502    0  0.11971415172E+02 -0.34159548070E+02  0.11151864788E+02  0.38166000495E+02  0.47000000000E+01 0. -1.
         -5    1    3    3    0  502 -0.69169811942E+02  0.25118417243E+02 -0.10583090635E+03  0.12898708659E+03  0.47000000000E+01 0. -1.
        -11    1    4    4    0    0 -0.14510878911E+02  0.36122656367E+01  0.11129036956E+02  0.18640534686E+02  0.00000000000E+00 0. -1.
         11    1    4    4    0    0  0.71709275681E+02  0.54288651904E+01 -0.73289624862E+02  0.10267941327E+03  0.00000000000E+00 0.  1.
<mgrwt>
<rscale>  0 0.12846320E+03</rscale>
<asrwt>0</asrwt>
<pdfrwt beam="1">  1        1 0.10125647E-01 0.13775352E+03</pdfrwt>
<pdfrwt beam="2">  1       -1 0.34254820E-01 0.13775352E+03</pdfrwt>
<totfact> 0.48937328E+03</totfact>
</mgrwt>
</event>
<event>
 8    1  0.1020295E-005  0.1676499E+03  0.7546771E-02  0.1191748E+00
         -1   -1    0    0    0  501 -0.00000000000E+00  0.00000000000E+00  0.21828324958E+03  0.21828324958E+03  0.00000000000E+00 0.  1.
          1   -1    0    0  501    0  0.00000000000E+00 -0.00000000000E+00 -0.10844966807E+03  0.10844966807E+03  0.00000000000E+00 0. -1.
         23    2    1    2    0    0 -0.11088279977E+03 -0.13674768250E+02  0.10251233491E+03  0.19650768736E+03  0.12499799123E+03 0.  0.
         23    2    1    2    0    0  0.11088279977E+03  0.13674768250E+02  0.73212465915E+01  0.13022523029E+03  0.66505754501E+02 0.  0.
          5    1    3    3  502    0 -0.10388590079E+03  0.41033598547E+02  0.75607802554E+02  0.13496172198E+03  0.47000000000E+01 0.  1.
         -5    1    3    3    0  502 -0.69968989765E+01 -0.54708366798E+02  0.26904532361E+02  0.61545965380E+02  0.47000000000E+01 0.  1.
        -11    1    4    4    0    0  0.54315429225E+02  0.27497620159E+02 -0.22372136512E+02  0.64859829312E+02  0.00000000000E+00 0.  1.
         11    1    4    4    0    0  0.56567370542E+02 -0.13822851909E+02  0.29693383104E+02  0.65365400979E+02  0.00000000000E+00 0. -1.
<mgrwt>
<rscale>  0 0.15732742E+03</rscale>
<asrwt>0</asrwt>
<pdfrwt beam="2">  1        1 0.16684564E-01 0.16764991E+03</pdfrwt>
<pdfrwt beam="1">  1       -1 0.33582038E-01 0.16764991E+03</pdfrwt>
<totfact> 0.26599583E+03</totfact>
</mgrwt>
</event>
<event>
 8    1  0.1020295E-005  0.2229149E+03  0.7546771E-02  0.1134929E+00
          1   -1    0    0  501    0  0.00000000000E+00  0.00000000000E+00  0.29283683872E+03  0.29283683872E+03  0.00000000000E+00 0. -1.
         -1   -1    0    0    0  501 -0.00000000000E+00 -0.00000000000E+00 -0.16022553694E+03  0.16022553694E+03  0.00000000000E+00 0.  1.
         23    2    1    2    0    0 -0.43132562165E+02  0.17945402457E+03  0.37604598487E+02  0.22606453087E+03  0.12500760552E+03 0.  0.
         23    2    1    2    0    0  0.43132562165E+02 -0.17945402457E+03  0.95006703298E+02  0.22699784479E+03  0.91856317228E+02 0.  0.
          5    1    3    3  502    0 -0.30210086326E+02  0.72838490070E+01 -0.27223870696E+02  0.41580439005E+02  0.47000000000E+01 0.  1.
         -5    1    3    3    0  502 -0.12922475839E+02  0.17217017556E+03  0.64828469183E+02  0.18448409187E+03  0.47000000000E+01 0.  1.
        -11    1    4    4    0    0  0.15077742061E+02 -0.12837664932E+03  0.10664265034E+03  0.16757254330E+03  0.00000000000E+00 0.  1.
         11    1    4    4    0    0  0.28054820104E+02 -0.51077375253E+02 -0.11635947045E+02  0.59425301492E+02  0.00000000000E+00 0. -1.
<mgrwt>
<rscale>  0 0.21860255E+03</rscale>
<asrwt>0</asrwt>
<pdfrwt beam="1">  1        1 0.45051821E-01 0.22291493E+03</pdfrwt>
<pdfrwt beam="2">  1       -1 0.24650083E-01 0.22291493E+03</pdfrwt>
<totfact> 0.12844782E+03</totfact>
</mgrwt>
</event>
<event>
 8    1  0.1020295E-005  0.2224829E+03  0.7546771E-02  0.1135430E+00
          2   -1    0    0  501    0  0.00000000000E+00  0.00000000000E+00  0.28975229872E+03  0.28975229872E+03  0.00000000000E+00 0. -1.
         -2   -1    0    0    0  501 -0.00000000000E+00 -0.00000000000E+00 -0.17928026066E+03  0.17928026066E+03  0.00000000000E+00 0.  1.
         23    2    1    2    0    0 -0.23543851983E+02 -0.18252945975E+03 -0.24322814218E+02  0.22380846288E+03  0.12500924814E+03 0.  0.
         23    2    1    2    0    0  0.23543851983E+02  0.18252945975E+03  0.13479485229E+03  0.24522409650E+03  0.89966041697E+02 0.  0.
          5    1    3    3  502    0  0.31894773817E+02 -0.73736225494E+02 -0.55427817840E+02  0.97717145565E+02  0.47000000000E+01 0. -1.
         -5    1    3    3    0  502 -0.55438625800E+02 -0.10879323426E+03  0.31105003622E+02  0.12609131731E+03  0.47000000000E+01 0. -1.
        -11    1    4    4    0    0  0.15340197053E+01  0.61151843334E+02  0.99703333681E+02  0.11697288535E+03  0.00000000000E+00 0. -1.
         11    1    4    4    0    0  0.22009832278E+02  0.12137761642E+03  0.35091518605E+02  0.12825121115E+03  0.00000000000E+00 0.  1.
<mgrwt>
<rscale>  0 0.21793832E+03</rscale>
<asrwt>0</asrwt>
<pdfrwt beam="1">  1        2 0.44577277E-01 0.22248287E+03</pdfrwt>
<pdfrwt beam="2">  1       -2 0.27581579E-01 0.22248287E+03</pdfrwt>
<totfact> 0.13476900E+03</totfact>
</mgrwt>
</event>
<event>
 8    1  0.1020295E-005  0.1832059E+03  0.7546771E-02  0.1170217E+00
         -1   -1    0    0    0  501 -0.00000000000E+00  0.00000000000E+00  0.55626562420E+02  0.55626562420E+02  0.00000000000E+00 0.  1.
          1   -1    0    0  501    0  0.00000000000E+00 -0.00000000000E+00 -0.74122251190E+03  0.74122251190E+03  0.00000000000E+00 0. -1.
         23    2    1    2    0    0  0.13393439966E+03 -0.89601454691E+00 -0.14801934311E+03  0.23552949539E+03  0.12500076403E+03 0.  0.
         23    2    1    2    0    0 -0.13393439966E+03  0.89601454691E+00 -0.53757660637E+03  0.56131957894E+03  0.90287516974E+02 0.  0.
          5    1    3    3  502    0  0.45014801455E+02 -0.29180016392E+02 -0.12954599573E+03  0.14029276787E+03  0.47000000000E+01 0.  1.
         -5    1    3    3    0  502  0.88919598203E+02  0.28284001845E+02 -0.18473347378E+02  0.95236727518E+02  0.47000000000E+01 0.  1.
        -11    1    4    4    0    0 -0.62095885459E+02  0.45424746098E+02 -0.24789104098E+03  0.25955591835E+03  0.00000000000E+00 0.  1.
         11    1    4    4    0    0 -0.71838514199E+02 -0.44528731551E+02 -0.28968556539E+03  0.30176366059E+03  0.00000000000E+00 0. -1.
<mgrwt>
<rscale>  0 0.17752770E+03</rscale>
<asrwt>0</asrwt>
<pdfrwt beam="2">  1        1 0.11403422E+00 0.18320594E+03</pdfrwt>
<pdfrwt beam="1">  1       -1 0.85579333E-02 0.18320594E+03</pdfrwt>
<totfact> 0.19954695E+03</totfact>
</mgrwt>
</event>
<event>
 8    1  0.1020295E-005  0.2042193E+03  0.7546771E-02  0.1149482E+00
         -1   -1    0    0    0  501 -0.00000000000E+00  0.00000000000E+00  0.61775249041E+02  0.61775249041E+02  0.00000000000E+00 0.  1.
          1   -1    0    0  501    0  0.00000000000E+00 -0.00000000000E+00 -0.86906380434E+03  0.86906380434E+03  0.00000000000E+00 0. -1.
         23    2    1    2    0    0 -0.13921416093E+02  0.16432424844E+03 -0.16876204651E+03  0.26492668006E+03  0.12045436071E+03 0.  0.
         23    2    1    2    0    0  0.13921416093E+02 -0.16432424844E+03 -0.63852650879E+03  0.66591237332E+03  0.92341334482E+02 0.  0.
          5    1    3    3  502    0 -0.49839487009E+02  0.19680488048E+02 -0.31960239756E+02  0.62568706239E+02  0.47000000000E+01 0. -1.
         -5    1    3    3    0  502  0.35918070916E+02  0.14464376040E+03 -0.13680180675E+03  0.20235797382E+03  0.47000000000E+01 0.  1.
        -11    1    4    4    0    0 -0.39484580278E+01  0.10538304974E+02 -0.67925797119E+02  0.68851725517E+02  0.00000000000E+00 0.  1.
         11    1    4    4    0    0  0.17869874121E+02 -0.17486255342E+03 -0.57060071167E+03  0.59706064780E+03  0.00000000000E+00 0. -1.
<mgrwt>
<rscale>  0 0.20030479E+03</rscale>
<asrwt>0</asrwt>
<pdfrwt beam="2">  1        1 0.13370212E+00 0.20421929E+03</pdfrwt>
<pdfrwt beam="1">  1       -1 0.95038848E-02 0.20421929E+03</pdfrwt>
<totfact> 0.13337491E+03</totfact>
</mgrwt>
</event>
<event>
 8    1  0.1020295E-005  0.1325464E+03  0.7546771E-02  0.1237027E+00
          2   -1    0    0  501    0  0.00000000000E+00  0.00000000000E+00  0.11233170432E+04  0.11233170432E+04  0.00000000000E+00 0. -1.
         -2   -1    0    0    0  501 -0.00000000000E+00 -0.00000000000E+00 -0.12127885249E+02  0.12127885249E+02  0.00000000000E+00 0.  1.
         23    2    1    2    0    0 -0.25150270863E+02  0.36237164970E+02  0.65234499222E+03  0.66567448807E+03  0.12499146750E+03 0.  0.
         23    2    1    2    0    0  0.25150270863E+02 -0.36237164970E+02  0.45884416573E+03  0.46977044037E+03  0.90557329777E+02 0.  0.
          5    1    3    3  502    0  0.25681787758E+01  0.23579067273E+02  0.62181274600E+03  0.62228269222E+03  0.47000000000E+01 0.  1.
         -5    1    3    3    0  502 -0.27718449639E+02  0.12658097697E+02  0.30532246222E+02  0.43391795849E+02  0.47000000000E+01 0.  1.
        -11    1    4    4    0    0  0.58321922630E+02 -0.11992419269E+02  0.26115749215E+03  0.26785910566E+03  0.00000000000E+00 0.  1.
         11    1    4    4    0    0 -0.33171651768E+02 -0.24244745701E+02  0.19768667357E+03  0.20191133471E+03  0.00000000000E+00 0. -1.
<mgrwt>
<rscale>  0 0.12375544E+03</rscale>
<asrwt>0</asrwt>
<pdfrwt beam="1">  1        2 0.17281792E+00 0.13254635E+03</pdfrwt>
<pdfrwt beam="2">  1       -2 0.18658294E-02 0.13254635E+03</pdfrwt>
<totfact> 0.18129881E+04</totfact>
</mgrwt>
</event>
<event>
 8    1  0.1020295E-005  0.1826138E+03  0.7546771E-02  0.1165578E+00
          2   -1    0    0  501    0  0.00000000000E+00  0.00000000000E+00  0.38221213307E+03  0.38221213307E+03  0.00000000000E+00 0. -1.
         -2   -1    0    0    0  501 -0.00000000000E+00 -0.00000000000E+00 -0.92983631890E+02  0.92983631890E+02  0.00000000000E+00 0.  1.
         23    2    1    2    0    0 -0.87399151750E+02  0.10044203765E+03  0.83222783030E+02  0.20068345228E+03  0.12498240577E+03 0.  0.
         23    2    1    2    0    0  0.87399151750E+02 -0.10044203765E+03  0.20600571815E+03  0.27451231268E+03  0.12325355674E+03 0.  0.
          5    1    3    3  502    0 -0.69896584062E+02  0.11706042562E+03  0.26652536129E+02  0.13900044385E+03  0.47000000000E+01 0. -1.
         -5    1    3    3    0  502 -0.17502567688E+02 -0.16618387970E+02  0.56570246901E+02  0.61683008429E+02  0.47000000000E+01 0. -1.
        -11    1    4    4    0    0 -0.31529793465E+02 -0.21942061202E+02  0.35564557813E+02  0.52349018121E+02  0.00000000000E+00 0.  1.
         11    1    4    4    0    0  0.11892894522E+03 -0.78499976445E+02  0.17044116034E+03  0.22216329456E+03  0.00000000000E+00 0. -1.
<mgrwt>
<rscale>  0 0.18231841E+03</rscale>
<asrwt>0</asrwt>
<pdfrwt beam="1">  1        2 0.58801866E-01 0.18261385E+03</pdfrwt>
<pdfrwt beam="2">  1       -2 0.14305174E-01 0.18261385E+03</pdfrwt>
<totfact> 0.30538055E+03</totfact>
</mgrwt>
</event>
<event>
 8    1  0.1020295E-005  0.1211456E+03  0.7546771E-02  0.1255127E+00
         -1   -1    0    0    0  501 -0.00000000000E+00  0.00000000000E+00  0.10069009903E+03  0.10069009903E+03  0.00000000000E+00 0.  1.
          1   -1    0    0  501    0  0.00000000000E+00 -0.00000000000E+00 -0.14785672730E+03  0.14785672730E+03  0.00000000000E+00 0. -1.
         23    2    1    2    0    0 -0.13111991463E+02 -0.20329138750E+01  0.34292635540E+02  0.12590569894E+03  0.12041678917E+03 0.  0.
         23    2    1    2    0    0  0.13111991463E+02  0.20329138750E+01 -0.81459263814E+02  0.12264112740E+03  0.90714813615E+02 0.  0.
          5    1    3    3  502    0 -0.26557630738E+02 -0.48234259564E+02 -0.14586747732E+02  0.57155181353E+02  0.47000000000E+01 0. -1.
         -5    1    3    3    0  502  0.13445639275E+02  0.46201345689E+02  0.48879383273E+02  0.68750517584E+02  0.47000000000E+01 0.  1.
        -11    1    4    4    0    0  0.13237766240E+02  0.45056157512E+02 -0.54176052330E+02  0.71696167477E+02  0.00000000000E+00 0.  1.
         11    1    4    4    0    0 -0.12577477757E+00 -0.43023243637E+02 -0.27283211484E+02  0.50944959920E+02  0.00000000000E+00 0. -1.
<mgrwt>
<rscale>  0 0.11299247E+03</rscale>
<asrwt>0</asrwt>
<pdfrwt beam="2">  1        1 0.22747189E-01 0.12114562E+03</pdfrwt>
<pdfrwt beam="1">  1       -1 0.15490785E-01 0.12114562E+03</pdfrwt>
<totfact> 0.62202131E+03</totfact>
</mgrwt>
</event>
<event>
 8    1  0.1020295E-005  0.2333534E+03  0.7546771E-02  0.1127251E+00
         -3   -1    0    0    0  501 -0.00000000000E+00  0.00000000000E+00  0.43651634832E+03  0.43651634832E+03  0.00000000000E+00 0.  1.
          3   -1    0    0  501    0  0.00000000000E+00 -0.00000000000E+00 -0.14317564022E+03  0.14317564022E+03  0.00000000000E+00 0. -1.
         23    2    1    2    0    0 -0.19334612058E+02 -0.19609890927E+03  0.27693825233E+03  0.36214445589E+03  0.12500080754E+03 0.  0.
         23    2    1    2    0    0  0.19334612058E+02  0.19609890927E+03  0.16402455769E+02  0.21754753266E+03  0.90715373387E+02 0.  0.
          5    1    3    3  502    0  0.29548400513E+02 -0.13017510280E+02  0.88414194443E+01  0.33805683614E+02  0.47000000000E+01 0. -1.
         -5    1    3    3    0  502 -0.48883012571E+02 -0.18308139899E+03  0.26809683289E+03  0.32833877227E+03  0.47000000000E+01 0. -1.
        -11    1    4    4    0    0 -0.77170054149E+01  0.17345043474E+03 -0.93407494691E+01  0.17387310052E+03  0.00000000000E+00 0.  1.
         11    1    4    4    0    0  0.27051617473E+02  0.22648474533E+02  0.25743205239E+02  0.43674432137E+02  0.00000000000E+00 0. -1.
<mgrwt>
<rscale>  0 0.22913407E+03</rscale>
<asrwt>0</asrwt>
<pdfrwt beam="2">  1        3 0.22027022E-01 0.23335340E+03</pdfrwt>
<pdfrwt beam="1">  1       -3 0.67156361E-01 0.23335340E+03</pdfrwt>
<totfact> 0.10160187E+02</totfact>
</mgrwt>
</event>
<event>
 8    1  0.1020295E-005  0.1418470E+03  0.7546771E-02  0.1221361E+00
          1   -1    0    0  501    0  0.00000000000E+00  0.00000000000E+00  0.56399795937E+02  0.56399795937E+02  0.00000000000E+00 0. -1.
         -1   -1    0    0    0  501 -0.00000000000E+00 -0.00000000000E+00 -0.93947413727E+03  0.93947413727E+03  0.00000000000E+00 0.  1.
         23    2    1    2    0    0 -0.67049006893E+02 -0.22131759432E-01 -0.87001069235E+03  0.88149826360E+03  0.12500005648E+03 0.  0.
         23    2    1    2    0    0  0.67049006893E+02  0.22131759432E-01 -0.13063648984E+02  0.11437566960E+03  0.91736388948E+02 0.  0.
          5    1    3    3  502    0 -0.77837188761E+01  0.50045812970E+02 -0.17765151940E+03  0.18478994026E+03  0.47000000000E+01 0. -1.
         -5    1    3    3    0  502 -0.59265288017E+02 -0.50067944729E+02 -0.69235917295E+03  0.69670832334E+03  0.47000000000E+01 0. -1.
        -11    1    4    4    0    0  0.18829213247E+02  0.35950922933E+02  0.20545181146E+02  0.45487499377E+02  0.00000000000E+00 0. -1.
         11    1    4    4    0    0  0.48219793646E+02 -0.35928791173E+02 -0.33608830130E+02  0.68888170226E+02  0.00000000000E+00 0.  1.
<mgrwt>
<rscale>  0 0.13419483E+03</rscale>
<asrwt>0</asrwt>
<pdfrwt beam="1">  1        1 0.86768920E-02 0.14184704E+03</pdfrwt>
<pdfrwt beam="2">  1       -1 0.14453448E+00 0.14184704E+03</pdfrwt>
<totfact> 0.32546164E+02</totfact>
</mgrwt>
</event>
<event>
 8    1  0.1020295E-005  0.1449620E+03  0.7546771E-02  0.1217088E+00
          1   -1    0    0  501    0  0.00000000000E+00  0.00000000000E+00  0.37356557159E+02  0.37356557159E+02  0.00000000000E+00 0. -1.
         -1   -1    0    0    0  501 -0.00000000000E+00 -0.00000000000E+00 -0.56685967871E+03  0.56685967871E+03  0.00000000000E+00 0.  1.
         23    2    1    2    0    0  0.18064256924E+02 -0.71171805377E+02 -0.42017205205E+03  0.44447558093E+03  0.12498898134E+03 0.  0.
         23    2    1    2    0    0 -0.18064256924E+02  0.71171805377E+02 -0.10933106950E+03  0.15974065494E+03  0.90399396152E+02 0.  0.
          5    1    3    3  502    0  0.41243133279E+02 -0.11277108123E+02 -0.39513581605E+02  0.58408752269E+02  0.47000000000E+01 0. -1.
         -5    1    3    3    0  502 -0.23178876355E+02 -0.59894697253E+02 -0.38065847045E+03  0.38606682866E+03  0.47000000000E+01 0. -1.
        -11    1    4    4    0    0  0.24752515173E+02  0.38517536097E+02 -0.10168244824E+02  0.46900754762E+02  0.00000000000E+00 0. -1.
         11    1    4    4    0    0 -0.42816772098E+02  0.32654269279E+02 -0.99162824677E+02  0.11283990018E+03  0.00000000000E+00 0.  1.
<mgrwt>
<rscale>  0 0.13724241E+03</rscale>
<asrwt>0</asrwt>
<pdfrwt beam="1">  1        1 0.57471629E-02 0.14496203E+03</pdfrwt>
<pdfrwt beam="2">  1       -1 0.87209177E-01 0.14496203E+03</pdfrwt>
<totfact> 0.18195839E+03</totfact>
</mgrwt>
</event>
<event>
 6    1  0.1020295E-005  0.3932703E+03  0.7546771E-02  0.1123788E+00
          2   -1    0    0  501    0  0.00000000000E+00  0.00000000000E+00  0.12449168991E+03  0.12449168991E+03  0.00000000000E+00 0. -1.
         -2   -1    0    0    0  501 -0.00000000000E+00 -0.00000000000E+00 -0.39943563443E+03  0.39943563443E+03  0.00000000000E+00 0.  1.
          5    1    1    2  502    0 -0.10951498724E+02  0.11180801525E+02  0.10331697679E+03  0.10460130659E+03  0.47000000000E+01 0. -1.
         -5    1    1    2    0  502  0.37396509633E+02  0.12966022298E+02 -0.36637845182E+03  0.36854019676E+03  0.47000000000E+01 0.  1.
        -11    1    1    2    0    0 -0.30195063583E+02 -0.10481751912E+02  0.50170008647E+00  0.31966555818E+02  0.00000000000E+00 0. -1.
         11    1    1    2    0    0  0.37500526739E+01 -0.13665071912E+02 -0.12384169587E+02  0.18819265176E+02  0.00000000000E+00 0.  1.
<mgrwt>
<rscale>  0 0.23409802E+03</rscale>
<asrwt>0</asrwt>
<pdfrwt beam="1">  1        2 0.19152568E-01 0.39327032E+03</pdfrwt>
<pdfrwt beam="2">  1       -2 0.61451635E-01 0.39327032E+03</pdfrwt>
<totfact> 0.73864603E+02</totfact>
</mgrwt>
</event>
<event>
 8    1  0.1020295E-005  0.1521333E+03  0.7546771E-02  0.1198170E+00
          1   -1    0    0  501    0  0.00000000000E+00  0.00000000000E+00  0.51992457649E+03  0.51992457649E+03  0.00000000000E+00 0. -1.
         -1   -1    0    0    0  501 -0.00000000000E+00 -0.00000000000E+00 -0.49490774610E+02  0.49490774610E+02  0.00000000000E+00 0.  1.
         23    2    1    2    0    0 -0.71900660816E+02  0.45316479170E+02  0.14172841735E+03  0.20721129894E+03  0.12500515915E+03 0.  0.
         23    2    1    2    0    0  0.71900660816E+02 -0.45316479170E+02  0.32870538453E+03  0.36220405216E+03  0.12617946453E+03 0.  0.
          5    1    3    3  502    0 -0.22376105544E+02  0.73836183568E+02  0.32507873037E+02  0.83852989885E+02  0.47000000000E+01 0. -1.
         -5    1    3    3    0  502 -0.49524555271E+02 -0.28519704398E+02  0.10922054431E+03  0.12335830906E+03  0.47000000000E+01 0. -1.
        -11    1    4    4    0    0  0.55456289927E+02  0.17695745370E+02  0.52379587794E+02  0.78308113974E+02  0.00000000000E+00 0. -1.
         11    1    4    4    0    0  0.16444370889E+02 -0.63012224541E+02  0.27632579674E+03  0.28389593819E+03  0.00000000000E+00 0.  1.
<mgrwt>
<rscale>  0 0.15188959E+03</rscale>
<asrwt>0</asrwt>
<pdfrwt beam="1">  1        1 0.79988393E-01 0.15213332E+03</pdfrwt>
<pdfrwt beam="2">  1       -1 0.76139657E-02 0.15213332E+03</pdfrwt>
<totfact> 0.38779743E+03</totfact>
</mgrwt>
</event>
<event>
 8    1  0.1020295E-005  0.1341128E+03  0.7546771E-02  0.1233793E+00
         -3   -1    0    0    0  501 -0.00000000000E+00  0.00000000000E+00  0.12962170961E+03  0.12962170961E+03  0.00000000000E+00 0.  1.
          3   -1    0    0  501    0  0.00000000000E+00 -0.00000000000E+00 -0.10938997596E+03  0.10938997596E+03  0.00000000000E+00 0. -1.
         23    2    1    2    0    0  0.46139096396E+02  0.15275298319E+02  0.15558227866E+02  0.13501225150E+03  0.12499639454E+03 0.  0.
         23    2    1    2    0    0 -0.46139096396E+02 -0.15275298319E+02  0.46735057776E+01  0.10399943407E+03  0.91825321536E+02 0.  0.
          5    1    3    3  502    0  0.98168475486E+01 -0.14221575468E+02 -0.50695461474E+02  0.53765635109E+02  0.47000000000E+01 0.  1.
         -5    1    3    3    0  502  0.36322248847E+02  0.29496873787E+02  0.66253689340E+02  0.81246616395E+02  0.47000000000E+01 0.  1.
        -11    1    4    4    0    0 -0.20106240443E+02  0.16206243578E+02  0.41579369147E+02  0.48946370390E+02  0.00000000000E+00 0.  1.
         11    1    4    4    0    0 -0.26032855953E+02 -0.31481541898E+02 -0.36905863369E+02  0.55053063678E+02  0.00000000000E+00 0. -1.
<mgrwt>
<rscale>  0 0.12582031E+03</rscale>
<asrwt>0</asrwt>
<pdfrwt beam="2">  1        3 0.16829227E-01 0.13411282E+03</pdfrwt>
<pdfrwt beam="1">  1       -3 0.19941801E-01 0.13411282E+03</pdfrwt>
<totfact> 0.15723655E+03</totfact>
</mgrwt>
</event>
<event>
 8    1  0.1020295E-005  0.1445308E+03  0.7546771E-02  0.1217148E+00
          1   -1    0    0  501    0  0.00000000000E+00  0.00000000000E+00  0.15395399911E+03  0.15395399911E+03  0.00000000000E+00 0. -1.
         -1   -1    0    0    0  501 -0.00000000000E+00 -0.00000000000E+00 -0.16002848602E+03  0.16002848602E+03  0.00000000000E+00 0.  1.
         23    2    1    2    0    0 -0.13520418856E+02 -0.71269133933E+02 -0.89493768052E+02  0.16999497416E+03  0.12500826189E+03 0.  0.
         23    2    1    2    0    0  0.13520418856E+02  0.71269133933E+02  0.83419281143E+02  0.14398751098E+03  0.92257984332E+02 0.  0.
          5    1    3    3  502    0 -0.57891483020E+02 -0.71232117110E+02 -0.32224730091E+02  0.97395901062E+02  0.47000000000E+01 0.  1.
         -5    1    3    3    0  502  0.44371064164E+02 -0.37016823463E-01 -0.57269037962E+02  0.72599073096E+02  0.47000000000E+01 0.  1.
        -11    1    4    4    0    0  0.35670237951E+02  0.53325842629E+02  0.96189106782E+01  0.64873221056E+02  0.00000000000E+00 0.  1.
         11    1    4    4    0    0 -0.22149819095E+02  0.17943291304E+02  0.73800370464E+02  0.79114289919E+02  0.00000000000E+00 0. -1.
<mgrwt>
<rscale>  0 0.13719914E+03</rscale>
<asrwt>0</asrwt>
<pdfrwt beam="1">  1        1 0.23685231E-01 0.14453082E+03</pdfrwt>
<pdfrwt beam="2">  1       -1 0.24619767E-01 0.14453082E+03</pdfrwt>
<totfact> 0.28432621E+03</totfact>
</mgrwt>
</event>
<event>
 8    1  0.1020295E-005  0.1445351E+03  0.7546771E-02  0.1217527E+00
          2   -1    0    0  501    0  0.00000000000E+00  0.00000000000E+00  0.79055186023E+02  0.79055186023E+02  0.00000000000E+00 0.  1.
         -2   -1    0    0    0  501 -0.00000000000E+00 -0.00000000000E+00 -0.22114406098E+03  0.22114406098E+03  0.00000000000E+00 0. -1.
         23    2    1    2    0    0 -0.42242194207E+02 -0.58986767620E+02 -0.10267425228E+03  0.17729187407E+03  0.12500625906E+03 0.  0.
         23    2    1    2    0    0  0.42242194207E+02  0.58986767620E+02 -0.39414622678E+02  0.12290737294E+03  0.91043221142E+02 0.  0.
          5    1    3    3  502    0 -0.50271785563E+02 -0.43842886213E+02 -0.12913183361E+03  0.14541860798E+03  0.47000000000E+01 0. -1.
         -5    1    3    3    0  502  0.80295913563E+01 -0.15143881406E+02  0.26457581329E+02  0.31873266089E+02  0.47000000000E+01 0. -1.
        -11    1    4    4    0    0 -0.26310182581E+02  0.34803210739E+02 -0.12398981271E+02  0.45356630405E+02  0.00000000000E+00 0. -1.
         11    1    4    4    0    0  0.68552376788E+02  0.24183556881E+02 -0.27015641407E+02  0.77550742532E+02  0.00000000000E+00 0.  1.
<mgrwt>
<rscale>  0 0.13692519E+03</rscale>
<asrwt>0</asrwt>
<pdfrwt beam="1">  1        2 0.12162336E-01 0.14453514E+03</pdfrwt>
<pdfrwt beam="2">  1       -2 0.34022164E-01 0.14453514E+03</pdfrwt>
<totfact> 0.39086384E+03</totfact>
</mgrwt>
</event>
<event>
 8    1  0.1020295E-005  0.2079698E+03  0.7546771E-02  0.1147075E+00
         -1   -1    0    0    0  501 -0.00000000000E+00  0.00000000000E+00  0.69809112915E+03  0.69809112915E+03  0.00000000000E+00 0.  1.
          1   -1    0    0  501    0  0.00000000000E+00 -0.00000000000E+00 -0.61564114412E+02  0.61564114412E+02  0.00000000000E+00 0. -1.
         23    2    1    2    0    0  0.10916379222E+03  0.12533711283E+03  0.43986334734E+03  0.48655032740E+03  0.12500132547E+03 0.  0.
         23    2    1    2    0    0 -0.10916379222E+03 -0.12533711283E+03  0.19666366739E+03  0.27310491616E+03  0.91014129535E+02 0.  0.
          5    1    3    3  502    0  0.52276586379E+02  0.32999888681E+02  0.31522978535E+03  0.32126895541E+03  0.47000000000E+01 0. -1.
         -5    1    3    3    0  502  0.56887205843E+02  0.92337224150E+02  0.12463356199E+03  0.16528137199E+03  0.47000000000E+01 0. -1.
        -11    1    4    4    0    0 -0.13433497908E+02 -0.28155815895E+02 -0.29463073797E+01  0.31335117073E+02  0.00000000000E+00 0. -1.
         11    1    4    4    0    0 -0.95730294314E+02 -0.97181296935E+02  0.19960997477E+03  0.24176979909E+03  0.00000000000E+00 0.  1.
<mgrwt>
<rscale>  0 0.20318973E+03</rscale>
<asrwt>0</asrwt>
<pdfrwt beam="2">  1        1 0.94714027E-02 0.20796985E+03</pdfrwt>
<pdfrwt beam="1">  1       -1 0.10739863E+00 0.20796985E+03</pdfrwt>
<totfact> 0.59144576E+02</totfact>
</mgrwt>
</event>
<event>
 8    1  0.1020295E-005  0.1384621E+03  0.7546771E-02  0.1226871E+00
          2   -1    0    0  501    0  0.00000000000E+00  0.00000000000E+00  0.32480696398E+03  0.32480696398E+03  0.00000000000E+00 0. -1.
         -2   -1    0    0    0  501 -0.00000000000E+00 -0.00000000000E+00 -0.48015519944E+02  0.48015519944E+02  0.00000000000E+00 0.  1.
         23    2    1    2    0    0 -0.51738854171E+02  0.29499640754E+02  0.18021110412E+03  0.22726151157E+03  0.12499845902E+03 0.  0.
         23    2    1    2    0    0  0.51738854171E+02 -0.29499640754E+02  0.96580339925E+02  0.14556097236E+03  0.91176185375E+02 0.  0.
          5    1    3    3  502    0 -0.37829762845E+02  0.19215422147E+02 -0.33558447477E+01  0.42821432708E+02  0.47000000000E+01 0. -1.
         -5    1    3    3    0  502 -0.13909091326E+02  0.10284218607E+02  0.18356694886E+03  0.18444007886E+03  0.47000000000E+01 0. -1.
        -11    1    4    4    0    0  0.63351130586E+02 -0.28815118923E+02  0.26419519243E+02  0.74442379207E+02  0.00000000000E+00 0.  1.
         11    1    4    4    0    0 -0.11612276414E+02 -0.68452183085E+00  0.70160820681E+02  0.71118593155E+02  0.00000000000E+00 0. -1.
<mgrwt>
<rscale>  0 0.13039467E+03</rscale>
<asrwt>0</asrwt>
<pdfrwt beam="1">  1        2 0.49970301E-01 0.13846210E+03</pdfrwt>
<pdfrwt beam="2">  1       -2 0.73870033E-02 0.13846210E+03</pdfrwt>
<totfact> 0.10185677E+04</totfact>
</mgrwt>
</event>
<event>
 8    1  0.1020295E-005  0.1552890E+03  0.7546771E-02  0.1202460E+00
         -1   -1    0    0    0  501 -0.00000000000E+00  0.00000000000E+00  0.61126266961E+03  0.61126266961E+03  0.00000000000E+00 0.  1.
          1   -1    0    0  501    0  0.00000000000E+00 -0.00000000000E+00 -0.34336017406E+02  0.34336017406E+02  0.00000000000E+00 0. -1.
         23    2    1    2    0    0  0.48866159600E+02 -0.78117351842E+02  0.25443600057E+03  0.29808112700E+03  0.12499783067E+03 0.  0.
         23    2    1    2    0    0 -0.48866159600E+02  0.78117351842E+02  0.32249065163E+03  0.34751756002E+03  0.90983580480E+02 0.  0.
          5    1    3    3  502    0  0.88517368775E+02 -0.68404191418E+02  0.16205793843E+03  0.19697543854E+03  0.47000000000E+01 0.  1.
         -5    1    3    3    0  502 -0.39651209174E+02 -0.97131604239E+01  0.92378062137E+02  0.10110568846E+03  0.47000000000E+01 0.  1.
        -11    1    4    4    0    0  0.24006799773E+02  0.37366092625E+02  0.87334877260E+02  0.97979243207E+02  0.00000000000E+00 0. -1.
         11    1    4    4    0    0 -0.72872959374E+02  0.40751259218E+02  0.23515577437E+03  0.24953831681E+03  0.00000000000E+00 0.  1.
<mgrwt>
<rscale>  0 0.14839405E+03</rscale>
<asrwt>0</asrwt>
<pdfrwt beam="2">  1        1 0.52824647E-02 0.15528902E+03</pdfrwt>
<pdfrwt beam="1">  1       -1 0.94040402E-01 0.15528902E+03</pdfrwt>
<totfact> 0.17435476E+03</totfact>
</mgrwt>
</event>
<event>
 8    1  0.1020295E-005  0.1743445E+03  0.7546771E-02  0.1179927E+00
         -1   -1    0    0    0  501 -0.00000000000E+00  0.00000000000E+00  0.22789882064E+03  0.22789882064E+03  0.00000000000E+00 0.  1.
          1   -1    0    0  501    0  0.00000000000E+00 -0.00000000000E+00 -0.11637570448E+03  0.11637570448E+03  0.00000000000E+00 0. -1.
         23    2    1    2    0    0 -0.36533068169E+02  0.11591317482E+03  0.46604420100E+02  0.18046601141E+03  0.12500192053E+03 0.  0.
         23    2    1    2    0    0  0.36533068169E+02 -0.11591317482E+03  0.64918696057E+02  0.16380851371E+03  0.88590422179E+02 0.  0.
          5    1    3    3  502    0 -0.91434171422E+01 -0.16118591108E+02  0.41215594755E+02  0.45433757354E+02  0.47000000000E+01 0. -1.
         -5    1    3    3    0  502 -0.27389651026E+02  0.13203176592E+03  0.53888253455E+01  0.13503225405E+03  0.47000000000E+01 0. -1.
        -11    1    4    4    0    0  0.25428849246E+02 -0.29418165470E+02  0.65992796484E+02  0.76597023581E+02  0.00000000000E+00 0. -1.
         11    1    4    4    0    0  0.11104218923E+02 -0.86495009346E+02 -0.10741004273E+01  0.87211490134E+02  0.00000000000E+00 0.  1.
<mgrwt>
<rscale>  0 0.16802151E+03</rscale>
<asrwt>0</asrwt>
<pdfrwt beam="2">  1        1 0.17903954E-01 0.17434451E+03</pdfrwt>
<pdfrwt beam="1">  1       -1 0.35061357E-01 0.17434451E+03</pdfrwt>
<totfact> 0.22582666E+03</totfact>
</mgrwt>
</event>
<event>
 8    1  0.1020295E-005  0.1557819E+03  0.7546771E-02  0.1208009E+00
          2   -1    0    0  501    0  0.00000000000E+00  0.00000000000E+00  0.49905044352E+03  0.49905044352E+03  0.00000000000E+00 0. -1.
         -2   -1    0    0    0  501 -0.00000000000E+00 -0.00000000000E+00 -0.51589266460E+02  0.51589266460E+02  0.00000000000E+00 0.  1.
         23    2    1    2    0    0  0.68407059407E+02 -0.62960266588E+02  0.10026068745E+03  0.18525715633E+03  0.12499795030E+03 0.  0.
         23    2    1    2    0    0 -0.68407059407E+02  0.62960266588E+02  0.34720048962E+03  0.36538255365E+03  0.65671223362E+02 0.  0.
          5    1    3    3  502    0  0.87127104678E+02 -0.74323877956E+02  0.40708714983E+02  0.12163248201E+03  0.47000000000E+01 0. -1.
         -5    1    3    3    0  502 -0.18720045271E+02  0.11363611369E+02  0.59551972464E+02  0.63624674323E+02  0.47000000000E+01 0. -1.
        -11    1    4    4    0    0 -0.52946607555E+02  0.85933163085E+01  0.21530688223E+03  0.22188790384E+03  0.00000000000E+00 0. -1.
         11    1    4    4    0    0 -0.15460451851E+02  0.54366950279E+02  0.13189360739E+03  0.14349464981E+03  0.00000000000E+00 0.  1.
<mgrwt>
<rscale>  0 0.14402823E+03</rscale>
<asrwt>0</asrwt>
<pdfrwt beam="1">  1        2 0.76776988E-01 0.15578193E+03</pdfrwt>
<pdfrwt beam="2">  1       -2 0.79368106E-02 0.15578193E+03</pdfrwt>
<totfact> 0.57868421E+03</totfact>
</mgrwt>
</event>
<event>
 8    1  0.1020295E-005  0.1357457E+03  0.7546771E-02  0.1232343E+00
         -3   -1    0    0    0  501 -0.00000000000E+00  0.00000000000E+00  0.17089943191E+02  0.17089943191E+02  0.00000000000E+00 0.  1.
          3   -1    0    0  501    0  0.00000000000E+00 -0.00000000000E+00 -0.83953064134E+03  0.83953064134E+03  0.00000000000E+00 0. -1.
         23    2    1    2    0    0  0.48692527811E+02  0.20682540546E+02 -0.43694141697E+03  0.45754201079E+03  0.12501263947E+03 0.  0.
         23    2    1    2    0    0 -0.48692527811E+02 -0.20682540546E+02 -0.38549928118E+03  0.39907857374E+03  0.88630031482E+02 0.  0.
          5    1    3    3  502    0  0.54314759644E+02  0.47230731804E+02 -0.12447611847E+03  0.14386531622E+03  0.47000000000E+01 0. -1.
         -5    1    3    3    0  502 -0.56222318333E+01 -0.26548191258E+02 -0.31246529849E+03  0.31367669456E+03  0.47000000000E+01 0. -1.
        -11    1    4    4    0    0 -0.55989919729E+02  0.19268445545E+02 -0.27625706317E+03  0.28253160719E+03  0.00000000000E+00 0. -1.
         11    1    4    4    0    0  0.72973919183E+01 -0.39950986091E+02 -0.10924221801E+03  0.11654696656E+03  0.00000000000E+00 0.  1.
<mgrwt>
<rscale>  0 0.12676042E+03</rscale>
<asrwt>0</asrwt>
<pdfrwt beam="2">  1        3 0.12915854E+00 0.13574568E+03</pdfrwt>
<pdfrwt beam="1">  1       -3 0.26292224E-02 0.13574568E+03</pdfrwt>
<totfact> 0.72023860E+02</totfact>
</mgrwt>
</event>
<event>
 8    1  0.1020295E-005  0.1366961E+03  0.7546771E-02  0.1228269E+00
         -2   -1    0    0    0  501 -0.00000000000E+00  0.00000000000E+00  0.25629361694E+02  0.25629361694E+02  0.00000000000E+00 0.  1.
          2   -1    0    0  501    0  0.00000000000E+00 -0.00000000000E+00 -0.61333170009E+03  0.61333170009E+03  0.00000000000E+00 0. -1.
         23    2    1    2    0    0 -0.52586460729E+02 -0.17164122300E+02 -0.26740413773E+03  0.30031780673E+03  0.12500347684E+03 0.  0.
         23    2    1    2    0    0  0.52586460729E+02  0.17164122300E+02 -0.32029820067E+03  0.33864325505E+03  0.95017755673E+02 0.  0.
          5    1    3    3  502    0 -0.39111440107E+01 -0.27247570259E+01 -0.24420940645E+03  0.24430113702E+03  0.47000000000E+01 0. -1.
         -5    1    3    3    0  502 -0.48675316718E+02 -0.14439365274E+02 -0.23194731274E+02  0.56016669715E+02  0.47000000000E+01 0. -1.
        -11    1    4    4    0    0 -0.49093798588E+01  0.27016588845E+02 -0.23425422350E+02  0.36093607408E+02  0.00000000000E+00 0.  1.
         11    1    4    4    0    0  0.57495840588E+02 -0.98524665457E+01 -0.29687277832E+03  0.30254964764E+03  0.00000000000E+00 0. -1.
<mgrwt>
<rscale>  0 0.12945318E+03</rscale>
<asrwt>0</asrwt>
<pdfrwt beam="2">  1        2 0.94358725E-01 0.13669606E+03</pdfrwt>
<pdfrwt beam="1">  1       -2 0.39429786E-02 0.13669606E+03</pdfrwt>
<totfact> 0.13138195E+04</totfact>
</mgrwt>
</event>
<event>
 8    1  0.1020295E-005  0.1255633E+03  0.7546771E-02  0.1250400E+00
          1   -1    0    0  501    0  0.00000000000E+00  0.00000000000E+00  0.68815512920E+02  0.68815512920E+02  0.00000000000E+00 0. -1.
         -1   -1    0    0    0  501 -0.00000000000E+00 -0.00000000000E+00 -0.17900538592E+03  0.17900538592E+03  0.00000000000E+00 0.  1.
         23    2    1    2    0    0  0.11876840402E+02  0.17984828284E+00 -0.91731583125E+02  0.15550184426E+03  0.12500019417E+03 0.  0.
         23    2    1    2    0    0 -0.11876840402E+02 -0.17984828284E+00 -0.18458289877E+02  0.92319054582E+02  0.89671666040E+02 0.  0.
          5    1    3    3  502    0  0.26241672412E+02  0.58946524929E+02 -0.43063685478E+02  0.77716723935E+02  0.47000000000E+01 0. -1.
         -5    1    3    3    0  502 -0.14364832009E+02 -0.58766676647E+02 -0.48667897647E+02  0.77785120326E+02  0.47000000000E+01 0. -1.
        -11    1    4    4    0    0  0.38020093505E+02  0.61418722380E+01  0.64270003206E+00  0.38518348460E+02  0.00000000000E+00 0.  1.
         11    1    4    4    0    0 -0.49896933908E+02 -0.63217205208E+01 -0.19100989909E+02  0.53800706122E+02  0.00000000000E+00 0. -1.
<mgrwt>
<rscale>  0 0.11567916E+03</rscale>
<asrwt>0</asrwt>
<pdfrwt beam="1">  1        1 0.10587002E-01 0.12556329E+03</pdfrwt>
<pdfrwt beam="2">  1       -1 0.27539289E-01 0.12556329E+03</pdfrwt>
<totfact> 0.66197088E+03</totfact>
</mgrwt>
</event>
<event>
 8    1  0.1020295E-005  0.3690539E+03  0.7546771E-02  0.1056265E+00
         -1   -1    0    0    0  501 -0.00000000000E+00  0.00000000000E+00  0.11738532047E+03  0.11738532047E+03  0.00000000000E+00 0.  1.
          1   -1    0    0  501    0  0.00000000000E+00 -0.00000000000E+00 -0.11309448608E+04  0.11309448608E+04  0.00000000000E+00 0. -1.
         23    2    1    2    0    0 -0.12474984290E+03 -0.32408393883E+03 -0.57189704343E+03  0.68063721404E+03  0.12493144575E+03 0.  0.
         23    2    1    2    0    0  0.12474984290E+03  0.32408393883E+03 -0.44166249684E+03  0.56769296718E+03  0.81342615889E+02 0.  0.
          5    1    3    3  502    0 -0.83303443820E+01 -0.15956218977E+03 -0.18597777122E+03  0.24523317156E+03  0.47000000000E+01 0. -1.
         -5    1    3    3    0  502 -0.11641949852E+03 -0.16452174906E+03 -0.38591927221E+03  0.43540404249E+03  0.47000000000E+01 0. -1.
        -11    1    4    4    0    0  0.87716164133E+02  0.12149885246E+03 -0.16663641993E+03  0.22410665551E+03  0.00000000000E+00 0. -1.
         11    1    4    4    0    0  0.37033678767E+02  0.20258508638E+03 -0.27502607691E+03  0.34358631167E+03  0.00000000000E+00 0.  1.
<mgrwt>
<rscale>  0 0.36591678E+03</rscale>
<asrwt>0</asrwt>
<pdfrwt beam="2">  1        1 0.17399152E+00 0.36905391E+03</pdfrwt>
<pdfrwt beam="1">  1       -1 0.18059280E-01 0.36905391E+03</pdfrwt>
<totfact> 0.30367033E+02</totfact>
</mgrwt>
</event>
<event>
 8    1  0.1020295E-005  0.2231663E+03  0.7546771E-02  0.1134826E+00
          1   -1    0    0  501    0  0.00000000000E+00  0.00000000000E+00  0.63358984954E+03  0.63358984954E+03  0.00000000000E+00 0. -1.
         -1   -1    0    0    0  501 -0.00000000000E+00 -0.00000000000E+00 -0.73861643375E+02  0.73861643375E+02  0.00000000000E+00 0.  1.
         23    2    1    2    0    0 -0.12723204117E+03 -0.13411854406E+03  0.24596252609E+03  0.33211555225E+03  0.12500959821E+03 0.  0.
         23    2    1    2    0    0  0.12723204117E+03  0.13411854406E+03  0.31376568007E+03  0.37533594066E+03  0.90842667300E+02 0.  0.
          5    1    3    3  502    0 -0.63387346102E+02 -0.82718111992E+01  0.22788316793E+02  0.68027758222E+02  0.47000000000E+01 0. -1.
         -5    1    3    3    0  502 -0.63844695068E+02 -0.12584673286E+03  0.22317420930E+03  0.26408779403E+03  0.47000000000E+01 0. -1.
        -11    1    4    4    0    0  0.10753735198E+03  0.48787462473E+02  0.19042381533E+03  0.22406634734E+03  0.00000000000E+00 0. -1.
         11    1    4    4    0    0  0.19694689194E+02  0.85331081583E+02  0.12334186475E+03  0.15126959333E+03  0.00000000000E+00 0.  1.
<mgrwt>
<rscale>  0 0.21873998E+03</rscale>
<asrwt>0</asrwt>
<pdfrwt beam="1">  1        1 0.97475358E-01 0.22316625E+03</pdfrwt>
<pdfrwt beam="2">  1       -1 0.11363330E-01 0.22316625E+03</pdfrwt>
<totfact> 0.16210780E+03</totfact>
</mgrwt>
</event>
<event>
 8    1  0.1020295E-005  0.1449678E+03  0.7546771E-02  0.1216616E+00
          1   -1    0    0  501    0  0.00000000000E+00  0.00000000000E+00  0.29104423815E+02  0.29104423815E+02  0.00000000000E+00 0. -1.
         -1   -1    0    0    0  501 -0.00000000000E+00 -0.00000000000E+00 -0.60807093675E+03  0.60807093675E+03  0.00000000000E+00 0.  1.
         23    2    1    2    0    0  0.45723943103E+02  0.57375814507E+02 -0.26776357876E+03  0.30448807590E+03  0.12503196068E+03 0.  0.
         23    2    1    2    0    0 -0.45723943103E+02 -0.57375814507E+02 -0.31120293418E+03  0.33268728467E+03  0.91928777187E+02 0.  0.
          5    1    3    3  502    0  0.44181751226E+02  0.18234870470E+02 -0.25984852601E+03  0.26424966246E+03  0.47000000000E+01 0.  1.
         -5    1    3    3    0  502  0.15421918776E+01  0.39140944038E+02 -0.79150527509E+01  0.40238413438E+02  0.47000000000E+01 0.  1.
        -11    1    4    4    0    0 -0.41931208637E+02 -0.63183113093E+01 -0.24678508620E+03  0.25040172940E+03  0.00000000000E+00 0.  1.
         11    1    4    4    0    0 -0.37927344661E+01 -0.51057503198E+02 -0.64417847976E+02  0.82285555266E+02  0.00000000000E+00 0. -1.
<mgrwt>
<rscale>  0 0.13758477E+03</rscale>
<asrwt>0</asrwt>
<pdfrwt beam="1">  1        1 0.44776043E-02 0.14496777E+03</pdfrwt>
<pdfrwt beam="2">  1       -1 0.93549361E-01 0.14496777E+03</pdfrwt>
<totfact> 0.22054518E+03</totfact>
</mgrwt>
</event>
<event>
 8    1  0.1020295E-005  0.1336155E+03  0.7546771E-02  0.1235611E+00
          1   -1    0    0  501    0  0.00000000000E+00  0.00000000000E+00  0.23266484163E+03  0.23266484163E+03  0.00000000000E+00 0. -1.
         -1   -1    0    0    0  501 -0.00000000000E+00 -0.00000000000E+00 -0.59364295082E+02  0.59364295082E+02  0.00000000000E+00 0.  1.
         23    2    1    2    0    0 -0.46570648578E+02 -0.75705751376E+01  0.92381846024E+02  0.16244232826E+03  0.12500786222E+03 0.  0.
         23    2    1    2    0    0  0.46570648578E+02  0.75705751376E+01  0.80918700521E+02  0.12958680845E+03  0.89547562301E+02 0.  0.
          5    1    3    3  502    0 -0.11615240924E+01  0.20850969324E+02 -0.25249352647E+02  0.33101840871E+02  0.47000000000E+01 0. -1.
         -5    1    3    3    0  502 -0.45409124486E+02 -0.28421544462E+02  0.11763119867E+03  0.12934048739E+03  0.47000000000E+01 0. -1.
        -11    1    4    4    0    0  0.42678363867E+02 -0.36355570514E+02  0.54457197799E+02  0.78158535310E+02  0.00000000000E+00 0. -1.
         11    1    4    4    0    0  0.38922847109E+01  0.43926145651E+02  0.26461502722E+02  0.51428273142E+02  0.00000000000E+00 0.  1.
<mgrwt>
<rscale>  0 0.12465398E+03</rscale>
<asrwt>0</asrwt>
<pdfrwt beam="1">  1        1 0.35794591E-01 0.13361551E+03</pdfrwt>
<pdfrwt beam="2">  1       -1 0.91329686E-02 0.13361551E+03</pdfrwt>
<totfact> 0.80381938E+03</totfact>
</mgrwt>
</event>
<event>
 8    1  0.1020295E-005  0.2374677E+03  0.7546771E-02  0.1125485E+00
         -2   -1    0    0    0  501 -0.00000000000E+00  0.00000000000E+00  0.18635376821E+03  0.18635376821E+03  0.00000000000E+00 0.  1.
          2   -1    0    0  501    0  0.00000000000E+00 -0.00000000000E+00 -0.30754821340E+03  0.30754821340E+03  0.00000000000E+00 0. -1.
         23    2    1    2    0    0  0.19474382002E+03  0.53307400633E+02  0.17350069914E+02  0.23810068906E+03  0.12499631517E+03 0.  0.
         23    2    1    2    0    0 -0.19474382002E+03 -0.53307400633E+02 -0.13854451511E+03  0.25580129255E+03  0.73978944344E+02 0.  0.
          5    1    3    3  502    0  0.47133344046E+02 -0.39791897347E+02 -0.51452506495E+01  0.62076652774E+02  0.47000000000E+01 0. -1.
         -5    1    3    3    0  502  0.14761047598E+03  0.93099297981E+02  0.22495320564E+02  0.17602403628E+03  0.47000000000E+01 0. -1.
        -11    1    4    4    0    0 -0.67715716423E+02 -0.55959167306E+02 -0.61068730356E+02  0.10698708559E+03  0.00000000000E+00 0. -1.
         11    1    4    4    0    0 -0.12702810360E+03  0.26517666727E+01 -0.77475784752E+02  0.14881420696E+03  0.00000000000E+00 0.  1.
<mgrwt>
<rscale>  0 0.23164894E+03</rscale>
<asrwt>0</asrwt>
<pdfrwt beam="2">  1        2 0.47315109E-01 0.23746771E+03</pdfrwt>
<pdfrwt beam="1">  1       -2 0.28669811E-01 0.23746771E+03</pdfrwt>
<totfact> 0.11803061E+03</totfact>
</mgrwt>
</event>
<event>
 8    1  0.1020295E-005  0.1323106E+03  0.7546771E-02  0.1235440E+00
         -1   -1    0    0    0  501 -0.00000000000E+00  0.00000000000E+00  0.12424949527E+03  0.12424949527E+03  0.00000000000E+00 0. -1.
          1   -1    0    0  501    0  0.00000000000E+00 -0.00000000000E+00 -0.14634343794E+03  0.14634343794E+03  0.00000000000E+00 0.  1.
         23    2    1    2    0    0  0.15798330661E+02 -0.40401449841E+02  0.52255940441E+02  0.14225602768E+03  0.12499691876E+03 0.  0.
         23    2    1    2    0    0 -0.15798330661E+02  0.40401449841E+02 -0.74349883111E+02  0.12833690554E+03  0.95187140954E+02 0.  0.
          5    1    3    3  502    0  0.60854026498E+02  0.10567519966E+02  0.37749405947E+02  0.72539593799E+02  0.47000000000E+01 0. -1.
         -5    1    3    3    0  502 -0.45055695837E+02 -0.50968969807E+02  0.14506534493E+02  0.69716433884E+02  0.47000000000E+01 0. -1.
        -11    1    4    4    0    0 -0.17510823770E+02  0.14642210081E+02 -0.93466562824E+02  0.96213417106E+02  0.00000000000E+00 0.  1.
         11    1    4    4    0    0  0.17124931092E+01  0.25759239760E+02  0.19116679713E+02  0.32123488430E+02  0.00000000000E+00 0. -1.
<mgrwt>
<rscale>  0 0.12476286E+03</rscale>
<asrwt>0</asrwt>
<pdfrwt beam="2">  1        1 0.22514375E-01 0.13231060E+03</pdfrwt>
<pdfrwt beam="1">  1       -1 0.19115307E-01 0.13231060E+03</pdfrwt>
<totfact> 0.45453490E+03</totfact>
</mgrwt>
</event>
<event>
 8    1  0.1020295E-005  0.1274218E+03  0.7546771E-02  0.1246439E+00
         -1   -1    0    0    0  501 -0.00000000000E+00  0.00000000000E+00  0.55014686518E+02  0.55014686518E+02  0.00000000000E+00 0.  1.
          1   -1    0    0  501    0  0.00000000000E+00 -0.00000000000E+00 -0.22260862253E+03  0.22260862253E+03  0.00000000000E+00 0. -1.
         23    2    1    2    0    0  0.39900959100E+01 -0.24398475384E+02 -0.90632326965E+02  0.15636670161E+03  0.12500048085E+03 0.  0.
         23    2    1    2    0    0 -0.39900959100E+01  0.24398475384E+02 -0.76961609044E+02  0.12125660744E+03  0.90381796367E+02 0.  0.
          5    1    3    3  502    0 -0.15148849593E+02  0.32318567112E+02  0.11584835512E+02  0.37818987797E+02  0.47000000000E+01 0. -1.
         -5    1    3    3    0  502  0.19138945503E+02 -0.56717042496E+02 -0.10221716248E+03  0.11854771381E+03  0.47000000000E+01 0. -1.
        -11    1    4    4    0    0 -0.43591673338E+02  0.28976506635E+02 -0.54207299213E+02  0.75354516847E+02  0.00000000000E+00 0.  1.
         11    1    4    4    0    0  0.39601577428E+02 -0.45780312510E+01 -0.22754309831E+02  0.45902090593E+02  0.00000000000E+00 0. -1.
<mgrwt>
<rscale>  0 0.11799679E+03</rscale>
<asrwt>0</asrwt>
<pdfrwt beam="2">  1        1 0.34247481E-01 0.12742185E+03</pdfrwt>
<pdfrwt beam="1">  1       -1 0.84637978E-02 0.12742185E+03</pdfrwt>
<totfact> 0.94921306E+03</totfact>
</mgrwt>
</event>
<event>
 8    1  0.1020295E-005  0.2077911E+03  0.7546771E-02  0.1145600E+00
          1   -1    0    0  501    0  0.00000000000E+00  0.00000000000E+00  0.18663133122E+03  0.18663133122E+03  0.00000000000E+00 0. -1.
         -1   -1    0    0    0  501 -0.00000000000E+00 -0.00000000000E+00 -0.22192644157E+03  0.22192644157E+03  0.00000000000E+00 0.  1.
         23    2    1    2    0    0 -0.15353837396E+03  0.63079077772E+02 -0.40473907327E+02  0.21169623417E+03  0.12499662419E+03 0.  0.
         23    2    1    2    0    0  0.15353837396E+03 -0.63079077772E+02  0.51787969720E+01  0.19686153862E+03  0.10571018456E+03 0.  0.
          5    1    3    3  502    0 -0.12877353109E+03  0.18213198896E+02 -0.74544775121E+02  0.14997785310E+03  0.47000000000E+01 0. -1.
         -5    1    3    3    0  502 -0.24764842869E+02  0.44865878876E+02  0.34070867794E+02  0.61718381070E+02  0.47000000000E+01 0. -1.
        -11    1    4    4    0    0  0.58500664737E+02 -0.76928506677E+02  0.22600371932E+02  0.99252706390E+02  0.00000000000E+00 0.  1.
         11    1    4    4    0    0  0.95037709220E+02  0.13849428905E+02 -0.17421574960E+02  0.97608832228E+02  0.00000000000E+00 0. -1.
<mgrwt>
<rscale>  0 0.20498539E+03</rscale>
<asrwt>0</asrwt>
<pdfrwt beam="1">  1        1 0.28712513E-01 0.20779114E+03</pdfrwt>
<pdfrwt beam="2">  1       -1 0.34142529E-01 0.20779114E+03</pdfrwt>
<totfact> 0.13015693E+03</totfact>
</mgrwt>
</event>
<event>
 8    1  0.1020295E-005  0.1439705E+03  0.7546771E-02  0.1224668E+00
         -1   -1    0    0    0  501 -0.00000000000E+00  0.00000000000E+00  0.25550492005E+02  0.25550492005E+02  0.00000000000E+00 0.  1.
          1   -1    0    0  501    0  0.00000000000E+00 -0.00000000000E+00 -0.60082833639E+03  0.60082833639E+03  0.00000000000E+00 0. -1.
         23    2    1    2    0    0 -0.31527705388E+02  0.64094610502E+02 -0.29360580348E+03  0.32700437262E+03  0.12500150627E+03 0.  0.
         23    2    1    2    0    0  0.31527705388E+02 -0.64094610502E+02 -0.28167204090E+03  0.29937445578E+03  0.71998686399E+02 0.  0.
          5    1    3    3  502    0  0.28723372230E+02  0.26036885933E+01 -0.18992366793E+03  0.19215853077E+03  0.47000000000E+01 0.  1.
         -5    1    3    3    0  502 -0.60251077618E+02  0.61490921909E+02 -0.10368213555E+03  0.13484584184E+03  0.47000000000E+01 0.  1.
        -11    1    4    4    0    0 -0.11623342767E+02 -0.47167916763E+02 -0.91062753993E+02  0.10321017214E+03  0.00000000000E+00 0.  1.
         11    1    4    4    0    0  0.43151048154E+02 -0.16926693739E+02 -0.19060928691E+03  0.19616428364E+03  0.00000000000E+00 0. -1.
<mgrwt>
<rscale>  0 0.13189716E+03</rscale>
<asrwt>0</asrwt>
<pdfrwt beam="2">  1        1 0.92435127E-01 0.14397045E+03</pdfrwt>
<pdfrwt beam="1">  1       -1 0.39308450E-02 0.14397045E+03</pdfrwt>
<totfact> 0.85194038E+03</totfact>
</mgrwt>
</event>
<event>
 8    1  0.1020295E-005  0.1316187E+03  0.7546771E-02  0.1237941E+00
          1   -1    0    0  501    0  0.00000000000E+00  0.00000000000E+00  0.23494611893E+03  0.23494611893E+03  0.00000000000E+00 0. -1.
         -1   -1    0    0    0  501 -0.00000000000E+00 -0.00000000000E+00 -0.77853648406E+02  0.77853648406E+02  0.00000000000E+00 0.  1.
         23    2    1    2    0    0  0.37857584113E+02  0.16298401336E+02  0.68730776928E+01  0.13179799054E+03  0.12499854620E+03 0.  0.
         23    2    1    2    0    0 -0.37857584113E+02 -0.16298401336E+02  0.15021939283E+03  0.18100177680E+03  0.92178862329E+02 0.  0.
          5    1    3    3  502    0 -0.80598469964E+01  0.61020571681E+02  0.22419448116E+02  0.65674903546E+02  0.47000000000E+01 0. -1.
         -5    1    3    3    0  502  0.45917431109E+02 -0.44722170345E+02 -0.15546370423E+02  0.66123086992E+02  0.47000000000E+01 0. -1.
        -11    1    4    4    0    0 -0.11142317652E+02  0.27118529751E+02  0.11589357845E+03  0.11954449977E+03  0.00000000000E+00 0. -1.
         11    1    4    4    0    0 -0.26715266460E+02 -0.43416931087E+02  0.34325814380E+02  0.61457277030E+02  0.00000000000E+00 0.  1.
<mgrwt>
<rscale>  0 0.12318012E+03</rscale>
<asrwt>0</asrwt>
<pdfrwt beam="1">  1        1 0.36145556E-01 0.13161866E+03</pdfrwt>
<pdfrwt beam="2">  1       -1 0.11977485E-01 0.13161866E+03</pdfrwt>
<totfact> 0.52407433E+03</totfact>
</mgrwt>
</event>
<event>
 8    1  0.1020295E-005  0.2828947E+03  0.7546771E-02  0.1095961E+00
          2   -1    0    0  501    0  0.00000000000E+00  0.00000000000E+00  0.14352059191E+04  0.14352059191E+04  0.00000000000E+00 0. -1.
         -2   -1    0    0    0  501 -0.00000000000E+00 -0.00000000000E+00 -0.64193421800E+02  0.64193421800E+02  0.00000000000E+00 0.  1.
         23    2    1    2    0    0 -0.25367679863E+03  0.66097030363E+01  0.38854027937E+03  0.48061724047E+03  0.12503510230E+03 0.  0.
         23    2    1    2    0    0  0.25367679863E+03 -0.66097030363E+01  0.98247221788E+03  0.10187821004E+04  0.90937906360E+02 0.  0.
          5    1    3    3  502    0 -0.66087417396E+02 -0.50443504943E+02  0.15224602840E+03  0.17353108394E+03  0.47000000000E+01 0.  1.
         -5    1    3    3    0  502 -0.18758938123E+03  0.57053207979E+02  0.23629425097E+03  0.30708615654E+03  0.47000000000E+01 0.  1.
        -11    1    4    4    0    0  0.14303525380E+03  0.36212637825E+01  0.71452269354E+03  0.72870767594E+03  0.00000000000E+00 0.  1.
         11    1    4    4    0    0  0.11064154483E+03 -0.10230966819E+02  0.26794952434E+03  0.29007442445E+03  0.00000000000E+00 0. -1.
<mgrwt>
<rscale>  0 0.27950169E+03</rscale>
<asrwt>0</asrwt>
<pdfrwt beam="1">  1        2 0.22080089E+00 0.28289465E+03</pdfrwt>
<pdfrwt beam="2">  1       -2 0.98759121E-02 0.28289465E+03</pdfrwt>
<totfact> 0.10020291E+03</totfact>
</mgrwt>
</event>
<event>
 8    1  0.1020295E-005  0.1265582E+03  0.7546771E-02  0.1247538E+00
         -1   -1    0    0    0  501 -0.00000000000E+00  0.00000000000E+00  0.40462127530E+02  0.40462127530E+02  0.00000000000E+00 0.  1.
          1   -1    0    0  501    0  0.00000000000E+00 -0.00000000000E+00 -0.36456313818E+03  0.36456313818E+03  0.00000000000E+00 0. -1.
         23    2    1    2    0    0 -0.19637090850E+02 -0.25637012853E+01 -0.97136658516E+02  0.15953839508E+03  0.12499912469E+03 0.  0.
         23    2    1    2    0    0  0.19637090850E+02  0.25637012853E+01 -0.22696435213E+03  0.24548687064E+03  0.91426465608E+02 0.  0.
          5    1    3    3  502    0  0.20715472286E+02  0.50498464959E+02 -0.22145433235E+02  0.59090912740E+02  0.47000000000E+01 0. -1.
         -5    1    3    3    0  502 -0.40352563137E+02 -0.53062166245E+02 -0.74991225281E+02  0.10044748234E+03  0.47000000000E+01 0. -1.
        -11    1    4    4    0    0 -0.33960496094E+02 -0.12650564462E+02 -0.68208833314E+02  0.77238572088E+02  0.00000000000E+00 0.  1.
         11    1    4    4    0    0  0.53597586944E+02  0.15214265747E+02 -0.15875551882E+03  0.16824829855E+03  0.00000000000E+00 0. -1.
<mgrwt>
<rscale>  0 0.11734775E+03</rscale>
<asrwt>0</asrwt>
<pdfrwt beam="2">  1        1 0.56086639E-01 0.12655816E+03</pdfrwt>
<pdfrwt beam="1">  1       -1 0.62249424E-02 0.12655816E+03</pdfrwt>
<totfact> 0.81705390E+03</totfact>
</mgrwt>
</event>
<event>
 8    1  0.1020295E-005  0.1984180E+03  0.7546771E-02  0.1155281E+00
          1   -1    0    0  501    0  0.00000000000E+00  0.00000000000E+00  0.39085867326E+03  0.39085867326E+03  0.00000000000E+00 0. -1.
         -1   -1    0    0    0  501 -0.00000000000E+00 -0.00000000000E+00 -0.92910706547E+02  0.92910706547E+02  0.00000000000E+00 0.  1.
         23    2    1    2    0    0  0.14324810145E+03  0.56795619411E+02  0.12602829755E+03  0.23505924859E+03  0.12499583037E+03 0.  0.
         23    2    1    2    0    0 -0.14324810145E+03 -0.56795619411E+02  0.17191966916E+03  0.24871013122E+03  0.92491057802E+02 0.  0.
          5    1    3    3  502    0  0.46032506784E+02  0.28508881335E+02  0.12207384462E+03  0.13362582661E+03  0.47000000000E+01 0.  1.
         -5    1    3    3    0  502  0.97215594665E+02  0.28286738076E+02  0.39544529331E+01  0.10143342198E+03  0.47000000000E+01 0.  1.
        -11    1    4    4    0    0 -0.78935584655E+02 -0.78980816146E+02  0.10894549716E+03  0.15600614473E+03  0.00000000000E+00 0.  1.
         11    1    4    4    0    0 -0.64312516795E+02  0.22185196735E+02  0.62974172008E+02  0.92703986488E+02  0.00000000000E+00 0. -1.
<mgrwt>
<rscale>  0 0.19356943E+03</rscale>
<asrwt>0</asrwt>
<pdfrwt beam="1">  1        1 0.60132102E-01 0.19841804E+03</pdfrwt>
<pdfrwt beam="2">  1       -1 0.14293955E-01 0.19841804E+03</pdfrwt>
<totfact> 0.21453705E+03</totfact>
</mgrwt>
</event>
<event>
 8    1  0.1020295E-005  0.1455099E+03  0.7546771E-02  0.1215583E+00
          1   -1    0    0  501    0  0.00000000000E+00  0.00000000000E+00  0.72513711553E+03  0.72513711553E+03  0.00000000000E+00 0. -1.
         -1   -1    0    0    0  501 -0.00000000000E+00 -0.00000000000E+00 -0.24129276926E+02  0.24129276926E+02  0.00000000000E+00 0.  1.
         23    2    1    2    0    0 -0.35582515516E+02  0.65408633427E+02  0.37245855269E+03  0.39987311041E+03  0.12501490399E+03 0.  0.
         23    2    1    2    0    0  0.35582515516E+02 -0.65408633427E+02  0.32854928591E+03  0.34939328204E+03  0.92664057369E+02 0.  0.
          5    1    3    3  502    0 -0.44474330827E+02  0.15243026713E+02  0.33006033545E+03  0.33342500057E+03  0.47000000000E+01 0. -1.
         -5    1    3    3    0  502  0.88918153107E+01  0.50165606714E+02  0.42398217243E+02  0.66448109844E+02  0.47000000000E+01 0. -1.
        -11    1    4    4    0    0  0.22097952245E+02  0.14683751802E+02  0.30259982618E+02  0.40244236960E+02  0.00000000000E+00 0.  1.
         11    1    4    4    0    0  0.13484563271E+02 -0.80092385228E+02  0.29828930329E+03  0.30914904508E+03  0.00000000000E+00 0. -1.
<mgrwt>
<rscale>  0 0.13833789E+03</rscale>
<asrwt>0</asrwt>
<pdfrwt beam="1">  1        1 0.11155954E+00 0.14550990E+03</pdfrwt>
<pdfrwt beam="2">  1       -1 0.37121970E-02 0.14550990E+03</pdfrwt>
<totfact> 0.71183384E+03</totfact>
</mgrwt>
</event>
<event>
 8    1  0.1020295E-005  0.1263630E+03  0.7546771E-02  0.1240250E+00
          1   -1    0    0  501    0  0.00000000000E+00  0.00000000000E+00  0.33143452622E+03  0.33143452622E+03  0.00000000000E+00 0. -1.
         -1   -1    0    0    0  501 -0.00000000000E+00 -0.00000000000E+00 -0.42450802785E+02  0.42450802785E+02  0.00000000000E+00 0.  1.
         23    2    1    2    0    0  0.24242477600E+02 -0.51667468491E+02  0.13090784982E+03  0.18194636869E+03  0.11274036951E+03 0.  0.
         23    2    1    2    0    0 -0.24242477600E+02  0.51667468491E+02  0.15807587362E+03  0.19193896031E+03  0.92711151676E+02 0.  0.
          5    1    3    3  502    0  0.34247400439E+02  0.28510223871E+02  0.38218219798E+02  0.58893459964E+02  0.47000000000E+01 0. -1.
         -5    1    3    3    0  502 -0.10004922839E+02 -0.80177692362E+02  0.92689630019E+02  0.12305290873E+03  0.47000000000E+01 0.  1.
        -11    1    4    4    0    0 -0.95296522929E+01  0.75724203025E+02  0.13666647889E+03  0.15653336912E+03  0.00000000000E+00 0. -1.
         11    1    4    4    0    0 -0.14712825307E+02 -0.24056734534E+02  0.21409394732E+02  0.35405591193E+02  0.00000000000E+00 0.  1.
<mgrwt>
<rscale>  0 0.12174234E+03</rscale>
<asrwt>0</asrwt>
<pdfrwt beam="1">  1        1 0.50989925E-01 0.12636303E+03</pdfrwt>
<pdfrwt beam="2">  1       -1 0.65308929E-02 0.12636303E+03</pdfrwt>
<totfact> 0.85627301E+03</totfact>
</mgrwt>
</event>
<event>
 8    1  0.1020295E-005  0.1311346E+03  0.7546771E-02  0.1239538E+00
          2   -1    0    0  501    0  0.00000000000E+00  0.00000000000E+00  0.28600464074E+02  0.28600464074E+02  0.00000000000E+00 0. -1.
         -2   -1    0    0    0  501 -0.00000000000E+00 -0.00000000000E+00 -0.48444489715E+03  0.48444489715E+03  0.00000000000E+00 0.  1.
         23    2    1    2    0    0 -0.29704117737E+02  0.26277713374E+02 -0.31282995931E+03  0.33920326469E+03  0.12499367384E+03 0.  0.
         23    2    1    2    0    0  0.29704117737E+02 -0.26277713374E+02 -0.14301447376E+03  0.17384209654E+03  0.90526692149E+02 0.  0.
          5    1    3    3  502    0 -0.55787831999E+02  0.49603149667E+02 -0.28380978780E+03  0.29350100564E+03  0.47000000000E+01 0. -1.
         -5    1    3    3    0  502  0.26083714262E+02 -0.23325436293E+02 -0.29020171505E+02  0.45702259048E+02  0.47000000000E+01 0. -1.
        -11    1    4    4    0    0  0.74688010486E+01  0.11077344513E+02  0.87525466797E+01  0.15971775854E+02  0.00000000000E+00 0. -1.
         11    1    4    4    0    0  0.22235316689E+02 -0.37355057887E+02 -0.15176702044E+03  0.15787032068E+03  0.00000000000E+00 0.  1.
<mgrwt>
<rscale>  0 0.12218368E+03</rscale>
<asrwt>0</asrwt>
<pdfrwt beam="1">  1        2 0.44000722E-02 0.13113455E+03</pdfrwt>
<pdfrwt beam="2">  1       -2 0.74529970E-01 0.13113455E+03</pdfrwt>
<totfact> 0.29579808E+03</totfact>
</mgrwt>
</event>
<event>
 8    1  0.1020295E-005  0.1815445E+03  0.7546771E-02  0.1171779E+00
         -1   -1    0    0    0  501 -0.00000000000E+00  0.00000000000E+00  0.89135277176E+02  0.89135277176E+02  0.00000000000E+00 0.  1.
          1   -1    0    0  501    0  0.00000000000E+00 -0.00000000000E+00 -0.43691463193E+03  0.43691463193E+03  0.00000000000E+00 0. -1.
         23    2    1    2    0    0  0.11405453873E+03  0.65763899711E+02 -0.50628866999E+02  0.18847197396E+03  0.12500029794E+03 0.  0.
         23    2    1    2    0    0 -0.11405453873E+03 -0.65763899711E+02 -0.29715048775E+03  0.33757793514E+03  0.91253063568E+02 0.  0.
          5    1    3    3  502    0  0.59982330499E+02  0.40330143332E+01 -0.80878647197E+02  0.10088404606E+03  0.47000000000E+01 0. -1.
         -5    1    3    3    0  502  0.54072208234E+02  0.61730885378E+02  0.30249780198E+02  0.87587927906E+02  0.47000000000E+01 0. -1.
        -11    1    4    4    0    0 -0.90249335222E+02 -0.84817758678E+02 -0.19528792018E+03  0.23124957613E+03  0.00000000000E+00 0.  1.
         11    1    4    4    0    0 -0.23805203511E+02  0.19053858967E+02 -0.10186256757E+03  0.10632835900E+03  0.00000000000E+00 0. -1.
<mgrwt>
<rscale>  0 0.17595246E+03</rscale>
<asrwt>0</asrwt>
<pdfrwt beam="2">  1        1 0.67217634E-01 0.18154449E+03</pdfrwt>
<pdfrwt beam="1">  1       -1 0.13713120E-01 0.18154449E+03</pdfrwt>
<totfact> 0.19810408E+03</totfact>
</mgrwt>
</event>
<event>
 8    1  0.1020295E-005  0.1249978E+03  0.7546771E-02  0.1251413E+00
         -2   -1    0    0    0  501 -0.00000000000E+00  0.00000000000E+00  0.35942344734E+03  0.35942344734E+03  0.00000000000E+00 0.  1.
          2   -1    0    0  501    0  0.00000000000E+00 -0.00000000000E+00 -0.43617472711E+02  0.43617472711E+02  0.00000000000E+00 0. -1.
         23    2    1    2    0    0  0.63044902706E+01 -0.87265498013E+01  0.27940997653E+03  0.30609537535E+03  0.12453330703E+03 0.  0.
         23    2    1    2    0    0 -0.63044902706E+01  0.87265498013E+01  0.36395998095E+02  0.96945544692E+02  0.89206898216E+02 0.  0.
          5    1    3    3  502    0 -0.51648348628E+02 -0.27009887627E+02  0.91875724872E+02  0.10890511818E+03  0.47000000000E+01 0. -1.
         -5    1    3    3    0  502  0.57952838898E+02  0.18283337826E+02  0.18753425166E+03  0.19719025717E+03  0.47000000000E+01 0.  1.
        -11    1    4    4    0    0 -0.76242213603E+01  0.47930687269E+02  0.96899563116E+01  0.49491158673E+02  0.00000000000E+00 0.  1.
         11    1    4    4    0    0  0.13197310897E+01 -0.39204137468E+02  0.26706041783E+02  0.47454386019E+02  0.00000000000E+00 0. -1.
<mgrwt>
<rscale>  0 0.11509627E+03</rscale>
<asrwt>0</asrwt>
<pdfrwt beam="2">  1        2 0.67103807E-02 0.12499778E+03</pdfrwt>
<pdfrwt beam="1">  1       -2 0.55295913E-01 0.12499778E+03</pdfrwt>
<totfact> 0.31780216E+03</totfact>
</mgrwt>
</event>
<event>
 8    1  0.1020295E-005  0.1260371E+03  0.7546771E-02  0.1248420E+00
          3   -1    0    0  501    0  0.00000000000E+00  0.00000000000E+00  0.50415009336E+03  0.50415009336E+03  0.00000000000E+00 0. -1.
         -3   -1    0    0    0  501 -0.00000000000E+00 -0.00000000000E+00 -0.26436565094E+02  0.26436565094E+02  0.00000000000E+00 0.  1.
         23    2    1    2    0    0 -0.12327281689E+02 -0.59342581739E+01  0.18835036415E+03  0.22663012160E+03  0.12529235830E+03 0.  0.
         23    2    1    2    0    0  0.12327281689E+02  0.59342581739E+01  0.28936316412E+03  0.30395653685E+03  0.92039981811E+02 0.  0.
          5    1    3    3  502    0 -0.22381586366E+02  0.51883507018E+02  0.13788435847E+03  0.14908728993E+03  0.47000000000E+01 0.  1.
         -5    1    3    3    0  502  0.10054304677E+02 -0.57817765192E+02  0.50466005677E+02  0.77542831670E+02  0.47000000000E+01 0.  1.
        -11    1    4    4    0    0  0.15608920768E+02 -0.34615948836E+02  0.22228834753E+03  0.22550834080E+03  0.00000000000E+00 0. -1.
         11    1    4    4    0    0 -0.32816390798E+01  0.40550207010E+02  0.67074816584E+02  0.78448196049E+02  0.00000000000E+00 0.  1.
<mgrwt>
<rscale>  0 0.11683000E+03</rscale>
<asrwt>0</asrwt>
<pdfrwt beam="1">  1        3 0.77561546E-01 0.12603711E+03</pdfrwt>
<pdfrwt beam="2">  1       -3 0.40671642E-02 0.12603711E+03</pdfrwt>
<totfact> 0.11500775E+03</totfact>
</mgrwt>
</event>
<event>
 8    1  0.1020295E-005  0.1942587E+03  0.7546771E-02  0.1159359E+00
         -2   -1    0    0    0  501 -0.00000000000E+00  0.00000000000E+00  0.13853342538E+03  0.13853342538E+03  0.00000000000E+00 0.  1.
          2   -1    0    0  501    0  0.00000000000E+00 -0.00000000000E+00 -0.25012963290E+03  0.25012963290E+03  0.00000000000E+00 0. -1.
         23    2    1    2    0    0  0.97990361824E+02 -0.11184375362E+03 -0.86967988839E+02  0.21283765482E+03  0.12500119996E+03 0.  0.
         23    2    1    2    0    0 -0.97990361824E+02  0.11184375362E+03 -0.24628218677E+02  0.17582540346E+03  0.90536661702E+02 0.  0.
          5    1    3    3  502    0  0.91689009629E+02 -0.13845299121E+03 -0.79101371947E+02  0.18399788669E+03  0.47000000000E+01 0.  1.
         -5    1    3    3    0  502  0.63013521956E+01  0.26609237589E+02 -0.78666168916E+01  0.28839768132E+02  0.47000000000E+01 0.  1.
        -11    1    4    4    0    0 -0.44850807783E+02  0.66898366103E+02  0.31431516560E+02  0.86457657725E+02  0.00000000000E+00 0.  1.
         11    1    4    4    0    0 -0.53139554041E+02  0.44945387516E+02 -0.56059735237E+02  0.89367745733E+02  0.00000000000E+00 0. -1.
<mgrwt>
<rscale>  0 0.18900793E+03</rscale>
<asrwt>0</asrwt>
<pdfrwt beam="2">  1        2 0.38481482E-01 0.19425868E+03</pdfrwt>
<pdfrwt beam="1">  1       -2 0.21312835E-01 0.19425868E+03</pdfrwt>
<totfact> 0.24725911E+03</totfact>
</mgrwt>
</event>
<event>
 8    1  0.1020295E-005  0.1266083E+03  0.7546771E-02  0.1246134E+00
         -2   -1    0    0    0  501 -0.00000000000E+00  0.00000000000E+00  0.13245265014E+03  0.13245265014E+03  0.00000000000E+00 0.  1.
          2   -1    0    0  501    0  0.00000000000E+00 -0.00000000000E+00 -0.94537470912E+02  0.94537470912E+02  0.00000000000E+00 0. -1.
         23    2    1    2    0    0  0.67179074215E+01 -0.18956268400E+02  0.32594145526E+02  0.13073648097E+03  0.12500071496E+03 0.  0.
         23    2    1    2    0    0 -0.67179074215E+01  0.18956268400E+02  0.53210337043E+01  0.96253640088E+02  0.93978611602E+02 0.  0.
          5    1    3    3  502    0 -0.37430655887E+02 -0.13030896965E+02 -0.32671648794E+02  0.51578919248E+02  0.47000000000E+01 0.  1.
         -5    1    3    3    0  502  0.44148563309E+02 -0.59253714354E+01  0.65265794320E+02  0.79157561718E+02  0.47000000000E+01 0.  1.
        -11    1    4    4    0    0 -0.36233822375E+02  0.92885996286E+00  0.35217521723E+02  0.50537377267E+02  0.00000000000E+00 0.  1.
         11    1    4    4    0    0  0.29515914953E+02  0.18027408437E+02 -0.29896488018E+02  0.45716262821E+02  0.00000000000E+00 0. -1.
<mgrwt>
<rscale>  0 0.11817746E+03</rscale>
<asrwt>0</asrwt>
<pdfrwt beam="2">  1        2 0.14544226E-01 0.12660825E+03</pdfrwt>
<pdfrwt beam="1">  1       -2 0.20377331E-01 0.12660825E+03</pdfrwt>
<totfact> 0.77289321E+03</totfact>
</mgrwt>
</event>
<event>
 8    1  0.1020295E-005  0.1784436E+03  0.7546771E-02  0.1179544E+00
          1   -1    0    0  501    0  0.00000000000E+00  0.00000000000E+00  0.18918588174E+03  0.18918588174E+03  0.00000000000E+00 0. -1.
         -1   -1    0    0    0  501 -0.00000000000E+00 -0.00000000000E+00 -0.15561127763E+03  0.15561127763E+03  0.00000000000E+00 0.  1.
         23    2    1    2    0    0 -0.88355633908E+02 -0.91683905871E+02 -0.43523539757E+02  0.18367474232E+03  0.12501782198E+03 0.  0.
         23    2    1    2    0    0  0.88355633908E+02  0.91683905871E+02  0.77098143862E+02  0.16112241705E+03  0.61673761447E+02 0.  0.
          5    1    3    3  502    0 -0.94277270389E+02 -0.73505299708E+02 -0.78812977728E+02  0.14326481862E+03  0.47000000000E+01 0. -1.
         -5    1    3    3    0  502  0.59216364806E+01 -0.18178606164E+02  0.35289437971E+02  0.40409923695E+02  0.47000000000E+01 0. -1.
        -11    1    4    4    0    0  0.10676604058E+02  0.52934609063E+02  0.37275387827E+02  0.65616440383E+02  0.00000000000E+00 0.  1.
         11    1    4    4    0    0  0.77679029850E+02  0.38749296808E+02  0.39822756036E+02  0.95505976671E+02  0.00000000000E+00 0. -1.
<mgrwt>
<rscale>  0 0.16838318E+03</rscale>
<asrwt>0</asrwt>
<pdfrwt beam="1">  1        1 0.29105520E-01 0.17844358E+03</pdfrwt>
<pdfrwt beam="2">  1       -1 0.23940196E-01 0.17844358E+03</pdfrwt>
<totfact> 0.23171063E+03</totfact>
</mgrwt>
</event>
<event>
 8    1  0.1020295E-005  0.1364246E+03  0.7546771E-02  0.1230759E+00
         -1   -1    0    0    0  501 -0.00000000000E+00  0.00000000000E+00  0.27515464280E+03  0.27515464280E+03  0.00000000000E+00 0.  1.
          1   -1    0    0  501    0  0.00000000000E+00 -0.00000000000E+00 -0.98503483961E+02  0.98503483961E+02  0.00000000000E+00 0. -1.
         23    2    1    2    0    0 -0.43869497357E+02 -0.32532799706E+02  0.22092395997E+03  0.25965183832E+03  0.12501505989E+03 0.  0.
         23    2    1    2    0    0  0.43869497357E+02  0.32532799706E+02 -0.44272801137E+02  0.11400628844E+03  0.89746515405E+02 0.  0.
          5    1    3    3  502    0 -0.24666984782E+02  0.45362704919E+02  0.56787068267E+02  0.76896659604E+02  0.47000000000E+01 0.  1.
         -5    1    3    3    0  502 -0.19202512575E+02 -0.77895504625E+02  0.16413689171E+03  0.18275517872E+03  0.47000000000E+01 0.  1.
        -11    1    4    4    0    0  0.37125070805E+02 -0.15183480737E+02  0.10089275195E+02  0.41359429922E+02  0.00000000000E+00 0.  1.
         11    1    4    4    0    0  0.67444265521E+01  0.47716280442E+02 -0.54362076332E+02  0.72646858513E+02  0.00000000000E+00 0. -1.
<mgrwt>
<rscale>  0 0.12779908E+03</rscale>
<asrwt>0</asrwt>
<pdfrwt beam="2">  1        1 0.15154382E-01 0.13642464E+03</pdfrwt>
<pdfrwt beam="1">  1       -1 0.42331483E-01 0.13642464E+03</pdfrwt>
<totfact> 0.19957958E+03</totfact>
</mgrwt>
</event>
<event>
 8    1  0.1020295E-005  0.1342266E+03  0.7546771E-02  0.1236352E+00
         -2   -1    0    0    0  501 -0.00000000000E+00  0.00000000000E+00  0.25617516803E+02  0.25617516803E+02  0.00000000000E+00 0.  1.
          2   -1    0    0  501    0  0.00000000000E+00 -0.00000000000E+00 -0.57740678899E+03  0.57740678899E+03  0.00000000000E+00 0. -1.
         23    2    1    2    0    0  0.47576695222E+02 -0.11336160858E+02 -0.22743013329E+03  0.26408569865E+03  0.12499896092E+03 0.  0.
         23    2    1    2    0    0 -0.47576695222E+02  0.11336160858E+02 -0.32435913890E+03  0.33893860714E+03  0.85313996240E+02 0.  0.
          5    1    3    3  502    0  0.77169861079E+02 -0.42863849203E+02 -0.12800675849E+03  0.15556451152E+03  0.47000000000E+01 0. -1.
         -5    1    3    3    0  502 -0.29593165857E+02  0.31527688346E+02 -0.99423374801E+02  0.10852118712E+03  0.47000000000E+01 0. -1.
        -11    1    4    4    0    0 -0.27645036703E+01 -0.29818725600E+02 -0.53317009026E+02  0.61151470370E+02  0.00000000000E+00 0.  1.
         11    1    4    4    0    0 -0.44812191552E+02  0.41154886458E+02 -0.27104212987E+03  0.27778713677E+03  0.00000000000E+00 0. -1.
<mgrwt>
<rscale>  0 0.12418248E+03</rscale>
<asrwt>0</asrwt>
<pdfrwt beam="2">  1        2 0.88831810E-01 0.13422664E+03</pdfrwt>
<pdfrwt beam="1">  1       -2 0.39411566E-02 0.13422664E+03</pdfrwt>
<totfact> 0.14061324E+04</totfact>
</mgrwt>
</event>
<event>
 8    1  0.1020295E-005  0.1309037E+03  0.7546771E-02  0.1240453E+00
          2   -1    0    0  501    0  0.00000000000E+00  0.00000000000E+00  0.76738458406E+03  0.76738458406E+03  0.00000000000E+00 0.  1.
         -2   -1    0    0    0  501 -0.00000000000E+00 -0.00000000000E+00 -0.17549349373E+02  0.17549349373E+02  0.00000000000E+00 0. -1.
         23    2    1    2    0    0 -0.89549613311E+01  0.37855143917E+02  0.35923635140E+03  0.38234347934E+03  0.12499030671E+03 0.  0.
         23    2    1    2    0    0  0.89549613311E+01 -0.37855143917E+02  0.39059888328E+03  0.40259045409E+03  0.89433678498E+02 0.  0.
          5    1    3    3  502    0  0.47605121846E+02  0.36542664492E+02  0.26962428211E+03  0.27626247928E+03  0.47000000000E+01 0. -1.
         -5    1    3    3    0  502 -0.56560083177E+02  0.13124794250E+01  0.89612069291E+02  0.10608100006E+03  0.47000000000E+01 0. -1.
        -11    1    4    4    0    0 -0.13646626746E+02  0.22961789690E+02  0.59879911571E+02  0.65567354812E+02  0.00000000000E+00 0. -1.
         11    1    4    4    0    0  0.22601588077E+02 -0.60816933607E+02  0.33071897171E+03  0.33702309928E+03  0.00000000000E+00 0.  1.
<mgrwt>
<rscale>  0 0.12161736E+03</rscale>
<asrwt>0</asrwt>
<pdfrwt beam="1">  1        2 0.11805914E+00 0.13090371E+03</pdfrwt>
<pdfrwt beam="2">  1       -2 0.26999005E-02 0.13090371E+03</pdfrwt>
<totfact> 0.17565205E+04</totfact>
</mgrwt>
</event>
<event>
 8    1  0.1020295E-005  0.1297723E+03  0.7546771E-02  0.1241445E+00
          2   -1    0    0  501    0  0.00000000000E+00  0.00000000000E+00  0.22103351162E+03  0.22103351162E+03  0.00000000000E+00 0. -1.
         -2   -1    0    0    0  501 -0.00000000000E+00 -0.00000000000E+00 -0.61156504023E+02  0.61156504023E+02  0.00000000000E+00 0.  1.
         23    2    1    2    0    0  0.26041449268E+02 -0.23189299139E+02  0.62783521331E+02  0.14416181090E+03  0.12499982598E+03 0.  0.
         23    2    1    2    0    0 -0.26041449268E+02  0.23189299139E+02  0.97093486269E+02  0.13802820475E+03  0.91699179689E+02 0.  0.
          5    1    3    3  502    0  0.22211076327E+00  0.11863605280E+02  0.91116739308E+02  0.92006220690E+02  0.47000000000E+01 0.  1.
         -5    1    3    3    0  502  0.25819338504E+02 -0.35052904419E+02 -0.28333217978E+02  0.52155590208E+02  0.47000000000E+01 0.  1.
        -11    1    4    4    0    0 -0.28679253128E+02 -0.23218169049E+02  0.80706445940E+02  0.88741835400E+02  0.00000000000E+00 0.  1.
         11    1    4    4    0    0  0.26378038600E+01  0.46407468187E+02  0.16387040329E+02  0.49286369348E+02  0.00000000000E+00 0. -1.
<mgrwt>
<rscale>  0 0.12100676E+03</rscale>
<asrwt>0</asrwt>
<pdfrwt beam="1">  1        2 0.34005155E-01 0.12977233E+03</pdfrwt>
<pdfrwt beam="2">  1       -2 0.94086930E-02 0.12977233E+03</pdfrwt>
<totfact> 0.10491597E+04</totfact>
</mgrwt>
</event>
<event>
 8    1  0.1020295E-005  0.1356344E+03  0.7546771E-02  0.1233170E+00
         -1   -1    0    0    0  501 -0.00000000000E+00  0.00000000000E+00  0.19637870527E+02  0.19637870527E+02  0.00000000000E+00 0.  1.
          1   -1    0    0  501    0  0.00000000000E+00 -0.00000000000E+00 -0.71893340407E+03  0.71893340407E+03  0.00000000000E+00 0. -1.
         23    2    1    2    0    0  0.10428849965E+02  0.51598449739E+02 -0.38180991920E+03  0.40518577924E+03  0.12500216147E+03 0.  0.
         23    2    1    2    0    0 -0.10428849965E+02 -0.51598449739E+02 -0.31748561434E+03  0.33338549535E+03  0.87049481741E+02 0.  0.
          5    1    3    3  502    0 -0.50566323470E+02 -0.41063266325E+01 -0.18005499168E+03  0.18712483805E+03  0.47000000000E+01 0. -1.
         -5    1    3    3    0  502  0.60995173435E+02  0.55704776372E+02 -0.20175492753E+03  0.21806094119E+03  0.47000000000E+01 0. -1.
        -11    1    4    4    0    0  0.38404279224E+02 -0.21907656097E+02 -0.15261257379E+03  0.15888811075E+03  0.00000000000E+00 0.  1.
         11    1    4    4    0    0 -0.48833129189E+02 -0.29690793642E+02 -0.16487304055E+03  0.17449738460E+03  0.00000000000E+00 0. -1.
<mgrwt>
<rscale>  0 0.12622303E+03</rscale>
<asrwt>0</asrwt>
<pdfrwt beam="2">  1        1 0.11060513E+00 0.13563444E+03</pdfrwt>
<pdfrwt beam="1">  1       -1 0.30212110E-02 0.13563444E+03</pdfrwt>
<totfact> 0.96999067E+03</totfact>
</mgrwt>
</event>
<event>
 8    1  0.1020295E-005  0.1267469E+03  0.7546771E-02  0.1247056E+00
          3   -1    0    0  501    0  0.00000000000E+00  0.00000000000E+00  0.91931234327E+02  0.91931234327E+02  0.00000000000E+00 0. -1.
         -3   -1    0    0    0  501 -0.00000000000E+00 -0.00000000000E+00 -0.13518994531E+03  0.13518994531E+03  0.00000000000E+00 0.  1.
         23    2    1    2    0    0 -0.20331751986E+02  0.52196548953E+01 -0.90936475599E+01  0.12707266374E+03  0.12499656998E+03 0.  0.
         23    2    1    2    0    0  0.20331751986E+02 -0.52196548953E+01 -0.34165063424E+02  0.10004851590E+03  0.91661491579E+02 0.  0.
          5    1    3    3  502    0 -0.63572050066E+02 -0.87150783297E+01  0.26082260306E+02  0.69424292885E+02  0.47000000000E+01 0.  1.
         -5    1    3    3    0  502  0.43240298080E+02  0.13934733225E+02 -0.35175907866E+02  0.57648370855E+02  0.47000000000E+01 0.  1.
        -11    1    4    4    0    0  0.13741873305E+02  0.10699060558E+02  0.29410291971E+02  0.34180027101E+02  0.00000000000E+00 0. -1.
         11    1    4    4    0    0  0.65898786811E+01 -0.15918715453E+02 -0.63575355396E+02  0.65868488797E+02  0.00000000000E+00 0.  1.
<mgrwt>
<rscale>  0 0.11763174E+03</rscale>
<asrwt>0</asrwt>
<pdfrwt beam="1">  1        3 0.14143267E-01 0.12674686E+03</pdfrwt>
<pdfrwt beam="2">  1       -3 0.20798453E-01 0.12674686E+03</pdfrwt>
<totfact> 0.19473364E+03</totfact>
</mgrwt>
</event>
<event>
 8    1  0.1020295E-005  0.1367406E+03  0.7546771E-02  0.1229764E+00
         -2   -1    0    0    0  501 -0.00000000000E+00  0.00000000000E+00  0.83549588527E+03  0.83549588527E+03  0.00000000000E+00 0.  1.
          2   -1    0    0  501    0  0.00000000000E+00 -0.00000000000E+00 -0.39350095823E+02  0.39350095823E+02  0.00000000000E+00 0. -1.
         23    2    1    2    0    0 -0.49827736939E+02 -0.24365127836E+02  0.74364626396E+03  0.75611358914E+03  0.12498612309E+03 0.  0.
         23    2    1    2    0    0  0.49827736939E+02  0.24365127836E+02  0.52499525488E+02  0.11873239195E+03  0.90910493885E+02 0.  0.
          5    1    3    3  502    0  0.31198925470E+02  0.62082809866E+01  0.41406288564E+03  0.41530961819E+03  0.47000000000E+01 0. -1.
         -5    1    3    3    0  502 -0.81026662409E+02 -0.30573408823E+02  0.32958337832E+03  0.34080397095E+03  0.47000000000E+01 0. -1.
        -11    1    4    4    0    0  0.70587561914E+02  0.50451981270E+01  0.55883593616E+02  0.90172246044E+02  0.00000000000E+00 0.  1.
         11    1    4    4    0    0 -0.20759824975E+02  0.19319929709E+02 -0.33840681288E+01  0.28560145905E+02  0.00000000000E+00 0. -1.
<mgrwt>
<rscale>  0 0.12845630E+03</rscale>
<asrwt>0</asrwt>
<pdfrwt beam="2">  1        2 0.60538615E-02 0.13674061E+03</pdfrwt>
<pdfrwt beam="1">  1       -2 0.12853782E+00 0.13674061E+03</pdfrwt>
<totfact> 0.56104994E+02</totfact>
</mgrwt>
</event>
<event>
 8    1  0.1020295E-005  0.1775233E+03  0.7546771E-02  0.1175933E+00
          2   -1    0    0  501    0  0.00000000000E+00  0.00000000000E+00  0.71937050050E+03  0.71937050050E+03  0.00000000000E+00 0. -1.
         -2   -1    0    0    0  501 -0.00000000000E+00 -0.00000000000E+00 -0.38908487551E+02  0.38908487551E+02  0.00000000000E+00 0.  1.
         23    2    1    2    0    0  0.10372141954E+03 -0.71631568907E+02  0.33029911129E+03  0.37498268575E+03  0.12500118862E+03 0.  0.
         23    2    1    2    0    0 -0.10372141954E+03  0.71631568907E+02  0.35016290166E+03  0.38329630231E+03  0.91721225068E+02 0.  0.
          5    1    3    3  502    0  0.10871705207E+03 -0.32993292305E+02  0.31123095124E+03  0.33135290818E+03  0.47000000000E+01 0. -1.
         -5    1    3    3    0  502 -0.49956325313E+01 -0.38638276601E+02  0.19068160050E+02  0.43629777570E+02  0.47000000000E+01 0. -1.
        -11    1    4    4    0    0 -0.42395319031E+02  0.44503758252E+02  0.27829490292E+03  0.28500175537E+03  0.00000000000E+00 0. -1.
         11    1    4    4    0    0 -0.61326100505E+02  0.27127810654E+02  0.71867998742E+02  0.98294546935E+02  0.00000000000E+00 0.  1.
<mgrwt>
<rscale>  0 0.17184888E+03</rscale>
<asrwt>0</asrwt>
<pdfrwt beam="1">  1        2 0.11067237E+00 0.17752327E+03</pdfrwt>
<pdfrwt beam="2">  1       -2 0.59859217E-02 0.17752327E+03</pdfrwt>
<totfact> 0.58993575E+03</totfact>
</mgrwt>
</event>
<event>
 8    1  0.1020295E-005  0.1417221E+03  0.7546771E-02  0.1222002E+00
          1   -1    0    0  501    0  0.00000000000E+00  0.00000000000E+00  0.16088875370E+03  0.16088875370E+03  0.00000000000E+00 0. -1.
         -1   -1    0    0    0  501 -0.00000000000E+00 -0.00000000000E+00 -0.10367354336E+03  0.10367354336E+03  0.00000000000E+00 0.  1.
         23    2    1    2    0    0  0.49944725959E+02 -0.44329496094E+02  0.82798432788E+01  0.14196379945E+03  0.12500233867E+03 0.  0.
         23    2    1    2    0    0 -0.49944725959E+02  0.44329496094E+02  0.48935367064E+02  0.12259849761E+03  0.90422019390E+02 0.  0.
          5    1    3    3  502    0  0.43810949847E+02 -0.84743940676E+02 -0.11689962282E+02  0.96227231208E+02  0.47000000000E+01 0.  1.
         -5    1    3    3    0  502  0.61337761122E+01  0.40414444582E+02  0.19969805561E+02  0.45736568240E+02  0.47000000000E+01 0.  1.
        -11    1    4    4    0    0 -0.63910168473E+02 -0.20794631865E+01  0.27898017623E+02  0.69764842067E+02  0.00000000000E+00 0.  1.
         11    1    4    4    0    0  0.13965442514E+02  0.46408959281E+02  0.21037349442E+02  0.52833655539E+02  0.00000000000E+00 0. -1.
<mgrwt>
<rscale>  0 0.13374522E+03</rscale>
<asrwt>0</asrwt>
<pdfrwt beam="1">  1        1 0.24752116E-01 0.14172214E+03</pdfrwt>
<pdfrwt beam="2">  1       -1 0.15949776E-01 0.14172214E+03</pdfrwt>
<totfact> 0.53986171E+03</totfact>
</mgrwt>
</event>
<event>
 8    1  0.1020295E-005  0.1333910E+03  0.7546771E-02  0.1235155E+00
          1   -1    0    0  501    0  0.00000000000E+00  0.00000000000E+00  0.67817589081E+02  0.67817589081E+02  0.00000000000E+00 0. -1.
         -1   -1    0    0    0  501 -0.00000000000E+00 -0.00000000000E+00 -0.20708087388E+03  0.20708087388E+03  0.00000000000E+00 0.  1.
         23    2    1    2    0    0 -0.41188942902E+02  0.21915125563E+02 -0.90735777464E+02  0.16132618928E+03  0.12496542038E+03 0.  0.
         23    2    1    2    0    0  0.41188942902E+02 -0.21915125563E+02 -0.48527507333E+02  0.11357227368E+03  0.91470982475E+02 0.  0.
          5    1    3    3  502    0  0.28845384649E+02  0.19485890212E+02  0.11789093523E+02  0.37051705210E+02  0.47000000000E+01 0.  1.
         -5    1    3    3    0  502 -0.70034327551E+02  0.24292353511E+01 -0.10252487099E+03  0.12427448407E+03  0.47000000000E+01 0.  1.
        -11    1    4    4    0    0 -0.27312582213E+02 -0.16875543827E+02 -0.56437296992E+01  0.32597742429E+02  0.00000000000E+00 0. -1.
         11    1    4    4    0    0  0.68501525114E+02 -0.50395817365E+01 -0.42883777634E+02  0.80974531251E+02  0.00000000000E+00 0.  1.
<mgrwt>
<rscale>  0 0.12494510E+03</rscale>
<asrwt>0</asrwt>
<pdfrwt beam="1">  1        1 0.10433475E-01 0.13339100E+03</pdfrwt>
<pdfrwt beam="2">  1       -1 0.31858596E-01 0.13339100E+03</pdfrwt>
<totfact> 0.53102748E+03</totfact>
</mgrwt>
</event>
<event>
 7    1  0.1020295E-005  0.3067681E+03  0.7546771E-02  0.1081905E+00
         -1   -1    0    0    0  501 -0.00000000000E+00  0.00000000000E+00  0.30961304254E+03  0.30961304254E+03  0.00000000000E+00 0.  1.
          1   -1    0    0  501    0  0.00000000000E+00 -0.00000000000E+00 -0.75987333140E+02  0.75987333140E+02  0.00000000000E+00 0. -1.
         23    2    1    2    0    0  0.52432862492E+02 -0.75904426346E+01  0.14950692064E+03  0.20194764786E+03  0.12499485297E+03 0.  0.
          5    1    3    3  502    0 -0.30638296165E+02  0.82316870456E+01  0.23484139644E+01  0.32156972987E+02  0.47000000000E+01 0. -1.
         -5    1    3    3    0  502  0.83071158657E+02 -0.15822129680E+02  0.14715850667E+03  0.16979067487E+03  0.47000000000E+01 0. -1.
        -11    1    1    2    0    0 -0.29147053329E+02 -0.24206836224E+02  0.12275050838E+03  0.12846481598E+03  0.00000000000E+00 0.  1.
         11    1    1    2    0    0 -0.23285809163E+02  0.31797278859E+02 -0.38631719623E+02  0.55187911831E+02  0.00000000000E+00 0. -1.
<mgrwt>
<rscale>  0 0.30676812E+03</rscale>
<asrwt>0</asrwt>
<pdfrwt beam="2">  1        1 0.11690359E-01 0.30676812E+03</pdfrwt>
<pdfrwt beam="1">  1       -1 0.47632775E-01 0.30676812E+03</pdfrwt>
<totfact> 0.23366976E+03</totfact>
</mgrwt>
</event>
<event>
 8    1  0.1020295E-005  0.2187352E+03  0.7546771E-02  0.1138002E+00
          3   -1    0    0  501    0  0.00000000000E+00  0.00000000000E+00  0.35907811220E+03  0.35907811220E+03  0.00000000000E+00 0. -1.
         -3   -1    0    0    0  501 -0.00000000000E+00 -0.00000000000E+00 -0.13144209513E+03  0.13144209513E+03  0.00000000000E+00 0.  1.
         23    2    1    2    0    0  0.16732438292E+03 -0.64971518331E+02  0.17799102597E+03  0.28200334198E+03  0.12500532889E+03 0.  0.
         23    2    1    2    0    0 -0.16732438292E+03  0.64971518331E+02  0.49644991094E+02  0.20851686535E+03  0.93786516529E+02 0.  0.
          5    1    3    3  502    0  0.12406139470E+03 -0.10222094935E+03  0.14045209617E+03  0.21351635408E+03  0.47000000000E+01 0. -1.
         -5    1    3    3    0  502  0.43262988219E+02  0.37249431023E+02  0.37538929804E+02  0.68486987904E+02  0.47000000000E+01 0. -1.
        -11    1    4    4    0    0 -0.17180108626E+03  0.39128842888E+02  0.45313574241E+02  0.18193405288E+03  0.00000000000E+00 0.  1.
         11    1    4    4    0    0  0.44767033470E+01  0.25842675443E+02  0.43314168530E+01  0.26582812471E+02  0.00000000000E+00 0. -1.
<mgrwt>
<rscale>  0 0.21456376E+03</rscale>
<asrwt>0</asrwt>
<pdfrwt beam="1">  1        3 0.55242786E-01 0.21873518E+03</pdfrwt>
<pdfrwt beam="2">  1       -3 0.20221861E-01 0.21873518E+03</pdfrwt>
<totfact> 0.17703622E+02</totfact>
</mgrwt>
</event>
<event>
 8    1  0.1020295E-005  0.1969833E+03  0.7546771E-02  0.1156568E+00
         -1   -1    0    0    0  501 -0.00000000000E+00  0.00000000000E+00  0.46707405812E+03  0.46707405812E+03  0.00000000000E+00 0.  1.
          1   -1    0    0  501    0  0.00000000000E+00 -0.00000000000E+00 -0.79755415054E+02  0.79755415054E+02  0.00000000000E+00 0. -1.
         23    2    1    2    0    0 -0.72296950153E+02  0.13397858051E+03  0.26700063908E+03  0.33180076586E+03  0.12500119168E+03 0.  0.
         23    2    1    2    0    0  0.72296950153E+02 -0.13397858051E+03  0.12031800399E+03  0.21502870732E+03  0.92648873983E+02 0.  0.
          5    1    3    3  502    0  0.30015086372E+02  0.82557028617E+01  0.69201337815E+02  0.76026161254E+02  0.47000000000E+01 0.  1.
         -5    1    3    3    0  502 -0.10231203652E+03  0.12572287764E+03  0.19779930126E+03  0.25577460460E+03  0.47000000000E+01 0.  1.
        -11    1    4    4    0    0  0.35192803113E+02 -0.69276966892E+02  0.52219897924E+01  0.77878756475E+02  0.00000000000E+00 0. -1.
         11    1    4    4    0    0  0.37104147040E+02 -0.64701613613E+02  0.11509601420E+03  0.13714995084E+03  0.00000000000E+00 0.  1.
<mgrwt>
<rscale>  0 0.19211383E+03</rscale>
<asrwt>0</asrwt>
<pdfrwt beam="2">  1        1 0.12270064E-01 0.19698327E+03</pdfrwt>
<pdfrwt beam="1">  1       -1 0.71857545E-01 0.19698327E+03</pdfrwt>
<totfact> 0.98496562E+02</totfact>
</mgrwt>
</event>
<event>
 8    1  0.1020295E-005  0.2455885E+03  0.7546771E-02  0.1118751E+00
          1   -1    0    0  501    0  0.00000000000E+00  0.00000000000E+00  0.10788955063E+03  0.10788955063E+03  0.00000000000E+00 0. -1.
         -1   -1    0    0    0  501 -0.00000000000E+00 -0.00000000000E+00 -0.59409707132E+03  0.59409707132E+03  0.00000000000E+00 0.  1.
         23    2    1    2    0    0  0.20975072629E+03  0.26254706967E+02 -0.37076190581E+03  0.44472248189E+03  0.12501607211E+03 0.  0.
         23    2    1    2    0    0 -0.20975072629E+03 -0.26254706967E+02 -0.11544561488E+03  0.25726414006E+03  0.90401719817E+02 0.  0.
          5    1    3    3  502    0  0.14932762564E+03  0.42733972603E+02 -0.34199271310E+03  0.37564083645E+03  0.47000000000E+01 0.  1.
         -5    1    3    3    0  502  0.60423100649E+02 -0.16479265636E+02 -0.28769192700E+02  0.69081645439E+02  0.47000000000E+01 0.  1.
        -11    1    4    4    0    0 -0.53878743778E+02 -0.47866062163E+02 -0.44017521726E+02  0.84448926323E+02  0.00000000000E+00 0.  1.
         11    1    4    4    0    0 -0.15587198251E+03  0.21611355197E+02 -0.71428093156E+02  0.17281521373E+03  0.00000000000E+00 0. -1.
<mgrwt>
<rscale>  0 0.24157052E+03</rscale>
<asrwt>0</asrwt>
<pdfrwt beam="1">  1        1 0.16598393E-01 0.24558847E+03</pdfrwt>
<pdfrwt beam="2">  1       -1 0.91399546E-01 0.24558847E+03</pdfrwt>
<totfact> 0.40185640E+02</totfact>
</mgrwt>
</event>
<event>
 8    1  0.1020295E-005  0.1822256E+03  0.7546771E-02  0.1170801E+00
          1   -1    0    0  501    0  0.00000000000E+00  0.00000000000E+00  0.12284931216E+03  0.12284931216E+03  0.00000000000E+00 0. -1.
         -1   -1    0    0    0  501 -0.00000000000E+00 -0.00000000000E+00 -0.26953822661E+03  0.26953822661E+03  0.00000000000E+00 0.  1.
         23    2    1    2    0    0 -0.14892201544E+02  0.13175467180E+03 -0.14084000337E+03  0.23030868404E+03  0.12500044875E+03 0.  0.
         23    2    1    2    0    0  0.14892201544E+02 -0.13175467180E+03 -0.58489110860E+01  0.16207885473E+03  0.93028351488E+02 0.  0.
          5    1    3    3  502    0  0.41753859872E+02  0.10283497707E+03 -0.56673104131E+02  0.12470905362E+03  0.47000000000E+01 0.  1.
         -5    1    3    3    0  502 -0.56646061417E+02  0.28919694731E+02 -0.84166899239E+02  0.10559963042E+03  0.47000000000E+01 0.  1.
        -11    1    4    4    0    0 -0.31778582785E+02 -0.16885041264E+02 -0.12010261788E+02  0.37937176102E+02  0.00000000000E+00 0.  1.
         11    1    4    4    0    0  0.46670784330E+02 -0.11486963054E+03  0.61613507020E+01  0.12414167863E+03  0.00000000000E+00 0. -1.
<mgrwt>
<rscale>  0 0.17693671E+03</rscale>
<asrwt>0</asrwt>
<pdfrwt beam="1">  1        1 0.18899894E-01 0.18222564E+03</pdfrwt>
<pdfrwt beam="2">  1       -1 0.41467419E-01 0.18222564E+03</pdfrwt>
<totfact> 0.15722905E+03</totfact>
</mgrwt>
</event>
<event>
 8    1  0.1020295E-005  0.1293665E+03  0.7546771E-02  0.1241616E+00
          2   -1    0    0  501    0  0.00000000000E+00  0.00000000000E+00  0.13633176627E+03  0.13633176627E+03  0.00000000000E+00 0. -1.
         -2   -1    0    0    0  501 -0.00000000000E+00 -0.00000000000E+00 -0.15286881354E+03  0.15286881354E+03  0.00000000000E+00 0.  1.
         23    2    1    2    0    0  0.21877610313E+02 -0.25211807990E+02 -0.97140719164E+02  0.16177766209E+03  0.12498570933E+03 0.  0.
         23    2    1    2    0    0 -0.21877610313E+02  0.25211807990E+02  0.80603671893E+02  0.12742291771E+03  0.92872939758E+02 0.  0.
          5    1    3    3  502    0 -0.50375886646E+02 -0.24757455697E+02 -0.50484470951E+02  0.75640157160E+02  0.47000000000E+01 0.  1.
         -5    1    3    3    0  502  0.72253496960E+02 -0.45435229279E+00 -0.46656248213E+02  0.86137504934E+02  0.47000000000E+01 0.  1.
        -11    1    4    4    0    0 -0.22407923410E+02  0.38272910726E+02  0.96879045591E+02  0.10654801829E+03  0.00000000000E+00 0. -1.
         11    1    4    4    0    0  0.53031309618E+00 -0.13061102736E+02 -0.16275373698E+02  0.20874899417E+02  0.00000000000E+00 0.  1.
<mgrwt>
<rscale>  0 0.12090222E+03</rscale>
<asrwt>0</asrwt>
<pdfrwt beam="1">  1        2 0.20974118E-01 0.12936651E+03</pdfrwt>
<pdfrwt beam="2">  1       -2 0.23518279E-01 0.12936651E+03</pdfrwt>
<totfact> 0.39794174E+03</totfact>
</mgrwt>
</event>
<event>
 8    1  0.1020295E-005  0.1907861E+03  0.7546771E-02  0.1162111E+00
          2   -1    0    0  501    0  0.00000000000E+00  0.00000000000E+00  0.36804363238E+03  0.36804363238E+03  0.00000000000E+00 0. -1.
         -2   -1    0    0    0  501 -0.00000000000E+00 -0.00000000000E+00 -0.10111381637E+03  0.10111381637E+03  0.00000000000E+00 0.  1.
         23    2    1    2    0    0 -0.88842314446E+02 -0.11349845772E+03  0.60353454419E+02  0.20010465129E+03  0.12499790104E+03 0.  0.
         23    2    1    2    0    0  0.88842314446E+02  0.11349845772E+03  0.20657636159E+03  0.26905279747E+03  0.94555581099E+02 0.  0.
          5    1    3    3  502    0  0.11999439331E+01 -0.64783460057E+02  0.71982655432E+02  0.96963545962E+02  0.47000000000E+01 0.  1.
         -5    1    3    3    0  502 -0.90042258379E+02 -0.48714997664E+02 -0.11629201013E+02  0.10314110532E+03  0.47000000000E+01 0.  1.
        -11    1    4    4    0    0  0.16119416691E+02 -0.14949648011E+02  0.12725657106E+02  0.25402163666E+02  0.00000000000E+00 0.  1.
         11    1    4    4    0    0  0.72722897755E+02  0.12844810573E+03  0.19385070449E+03  0.24365063380E+03  0.00000000000E+00 0. -1.
<mgrwt>
<rscale>  0 0.18600864E+03</rscale>
<asrwt>0</asrwt>
<pdfrwt beam="1">  1        2 0.56622096E-01 0.19078609E+03</pdfrwt>
<pdfrwt beam="2">  1       -2 0.15555972E-01 0.19078609E+03</pdfrwt>
<totfact> 0.27753718E+03</totfact>
</mgrwt>
</event>
<event>
 8    1  0.1020295E-005  0.1936464E+03  0.7546771E-02  0.1159693E+00
          1   -1    0    0  501    0  0.00000000000E+00  0.00000000000E+00  0.10284868458E+04  0.10284868458E+04  0.00000000000E+00 0. -1.
         -1   -1    0    0    0  501 -0.00000000000E+00 -0.00000000000E+00 -0.33700241425E+02  0.33700241425E+02  0.00000000000E+00 0.  1.
         23    2    1    2    0    0  0.48273193348E+02  0.13980025114E+03  0.44232450199E+03  0.48285596602E+03  0.12499802975E+03 0.  0.
         23    2    1    2    0    0 -0.48273193348E+02 -0.13980025114E+03  0.55246210235E+03  0.57933112117E+03  0.92389187760E+02 0.  0.
          5    1    3    3  502    0  0.84776236676E+02  0.70271831687E+02  0.20379693935E+03  0.23169036045E+03  0.47000000000E+01 0. -1.
         -5    1    3    3    0  502 -0.36503043328E+02  0.69528419453E+02  0.23852756264E+03  0.25116560557E+03  0.47000000000E+01 0. -1.
        -11    1    4    4    0    0  0.23974937631E+02 -0.65936780754E+02  0.19508403254E+03  0.20731675389E+03  0.00000000000E+00 0.  1.
         11    1    4    4    0    0 -0.72248130979E+02 -0.73863470386E+02  0.35737806981E+03  0.37201436729E+03  0.00000000000E+00 0. -1.
<mgrwt>
<rscale>  0 0.18864026E+03</rscale>
<asrwt>0</asrwt>
<pdfrwt beam="1">  1        1 0.15822872E+00 0.19364638E+03</pdfrwt>
<pdfrwt beam="2">  1       -1 0.51846533E-02 0.19364638E+03</pdfrwt>
<totfact> 0.25239330E+03</totfact>
</mgrwt>
</event>
<event>
 8    1  0.1020295E-005  0.1411317E+03  0.7546771E-02  0.1222848E+00
          1   -1    0    0  501    0  0.00000000000E+00  0.00000000000E+00  0.33518891230E+03  0.33518891230E+03  0.00000000000E+00 0. -1.
         -1   -1    0    0    0  501 -0.00000000000E+00 -0.00000000000E+00 -0.62595859376E+02  0.62595859376E+02  0.00000000000E+00 0.  1.
         23    2    1    2    0    0  0.65430054367E+02 -0.33472549743E+01  0.51893926128E+02  0.15037000275E+03  0.12500344806E+03 0.  0.
         23    2    1    2    0    0 -0.65430054367E+02  0.33472549743E+01  0.22069912680E+03  0.24741476893E+03  0.90629284375E+02 0.  0.
          5    1    3    3  502    0  0.15604176176E+02  0.58978920383E+02  0.21620339907E+02  0.64896320862E+02  0.47000000000E+01 0.  1.
         -5    1    3    3    0  502  0.49825878191E+02 -0.62326175357E+02  0.30273586220E+02  0.85473681884E+02  0.47000000000E+01 0.  1.
        -11    1    4    4    0    0 -0.49358244852E+02  0.12589228162E+02  0.22299009934E+03  0.22873414569E+03  0.00000000000E+00 0. -1.
         11    1    4    4    0    0 -0.16071809515E+02 -0.92419731874E+01 -0.22909725443E+01  0.18680623241E+02  0.00000000000E+00 0.  1.
<mgrwt>
<rscale>  0 0.13315519E+03</rscale>
<asrwt>0</asrwt>
<pdfrwt beam="1">  1        1 0.51567524E-01 0.14113171E+03</pdfrwt>
<pdfrwt beam="2">  1       -1 0.96301325E-02 0.14113171E+03</pdfrwt>
<totfact> 0.47346829E+03</totfact>
</mgrwt>
</event>
<event>
 7    1  0.1020295E-005  0.2041634E+03  0.7546771E-02  0.1151572E+00
          3   -1    0    0  501    0  0.00000000000E+00  0.00000000000E+00  0.83188123803E+02  0.83188123803E+02  0.00000000000E+00 0. -1.
         -3   -1    0    0    0  501 -0.00000000000E+00 -0.00000000000E+00 -0.46651177712E+03  0.46651177712E+03  0.00000000000E+00 0.  1.
         23    2    1    2    0    0  0.15308740075E+03 -0.23748674826E+02 -0.11940524592E+03  0.21602999083E+03  0.91714733609E+02 0.  0.
          5    1    1    2  502    0 -0.11800849184E+02 -0.69991926857E+01  0.14122699361E+02  0.20243255098E+02  0.47000000000E+01 0. -1.
         -5    1    1    2    0  502 -0.14128655157E+03  0.30747867512E+02 -0.27804110676E+03  0.31342665499E+03  0.47000000000E+01 0.  1.
        -11    1    3    3    0    0  0.14135135699E+03 -0.23636096981E+02 -0.59815988430E+02  0.15529592292E+03  0.00000000000E+00 0. -1.
         11    1    3    3    0    0  0.11736043758E+02 -0.11257784486E+00 -0.59589257487E+02  0.60734067908E+02  0.00000000000E+00 0.  1.
<mgrwt>
<rscale>  0 0.19784292E+03</rscale>
<asrwt>0</asrwt>
<pdfrwt beam="1">  1        3 0.12798173E-01 0.20416337E+03</pdfrwt>
<pdfrwt beam="2">  1       -3 0.71771042E-01 0.20416337E+03</pdfrwt>
<totfact> 0.22485787E+02</totfact>
</mgrwt>
</event>
<event>
 7    1  0.1020295E-005  0.2586226E+03  0.7546771E-02  0.1120256E+00
          1   -1    0    0  501    0  0.00000000000E+00  0.00000000000E+00  0.58729716458E+03  0.58729716458E+03  0.00000000000E+00 0. -1.
         -1   -1    0    0    0  501 -0.00000000000E+00 -0.00000000000E+00 -0.10905758554E+03  0.10905758554E+03  0.00000000000E+00 0.  1.
         23    2    1    2    0    0 -0.16641359198E+03 -0.78030818383E+01  0.37049313035E+03  0.41618526786E+03  0.90502187080E+02 0.  0.
          5    1    1    2  502    0  0.32078237411E+02 -0.85770428008E+02  0.59968608030E+02  0.10956232740E+03  0.47000000000E+01 0. -1.
         -5    1    1    2    0  502  0.13433535457E+03  0.93573509846E+02  0.47777840669E+02  0.17060715487E+03  0.47000000000E+01 0.  1.
        -11    1    3    3    0    0 -0.32184859937E+02 -0.75615083939E+01  0.18083825991E+03  0.18383557291E+03  0.00000000000E+00 0. -1.
         11    1    3    3    0    0 -0.13422873204E+03 -0.24157344440E+00  0.18965487043E+03  0.23234969495E+03  0.00000000000E+00 0.  1.
<mgrwt>
<rscale>  0 0.23930660E+03</rscale>
<asrwt>0</asrwt>
<pdfrwt beam="1">  1        1 0.90353409E-01 0.25862259E+03</pdfrwt>
<pdfrwt beam="2">  1       -1 0.16778090E-01 0.25862259E+03</pdfrwt>
<totfact> 0.97456809E+02</totfact>
</mgrwt>
</event>
<event>
 8    1  0.1020295E-005  0.1463819E+03  0.7546771E-02  0.1213480E+00
         -1   -1    0    0    0  501 -0.00000000000E+00  0.00000000000E+00  0.11710136486E+03  0.11710136486E+03  0.00000000000E+00 0.  1.
          1   -1    0    0  501    0  0.00000000000E+00 -0.00000000000E+00 -0.16377609006E+03  0.16377609006E+03  0.00000000000E+00 0. -1.
         23    2    1    2    0    0  0.56881894893E+02  0.50662588654E+02  0.90826505416E+01  0.14666340663E+03  0.12500164978E+03 0.  0.
         23    2    1    2    0    0 -0.56881894893E+02 -0.50662588654E+02 -0.55757375745E+02  0.13421404828E+03  0.95405859104E+02 0.  0.
          5    1    3    3  502    0  0.17618989723E+02  0.62323367038E+02 -0.44746632057E+02  0.78860522178E+02  0.47000000000E+01 0.  1.
         -5    1    3    3    0  502  0.39262905170E+02 -0.11660778384E+02  0.53829282599E+02  0.67802884452E+02  0.47000000000E+01 0.  1.
        -11    1    4    4    0    0 -0.21773970311E+02 -0.17762684848E+01  0.25189767547E+02  0.33343444662E+02  0.00000000000E+00 0.  1.
         11    1    4    4    0    0 -0.35107924582E+02 -0.48886320169E+02 -0.80947143292E+02  0.10087060362E+03  0.00000000000E+00 0. -1.
<mgrwt>
<rscale>  0 0.13988795E+03</rscale>
<asrwt>0</asrwt>
<pdfrwt beam="2">  1        1 0.25196321E-01 0.14638190E+03</pdfrwt>
<pdfrwt beam="1">  1       -1 0.18015595E-01 0.14638190E+03</pdfrwt>
<totfact> 0.43609842E+03</totfact>
</mgrwt>
</event>
<event>
 8    1  0.1020295E-005  0.3618939E+03  0.7546771E-02  0.1058712E+00
          1   -1    0    0  501    0  0.00000000000E+00  0.00000000000E+00  0.34011047362E+03  0.34011047362E+03  0.00000000000E+00 0. -1.
         -1   -1    0    0    0  501 -0.00000000000E+00 -0.00000000000E+00 -0.40424406566E+03  0.40424406566E+03  0.00000000000E+00 0.  1.
         23    2    1    2    0    0 -0.76722238036E+02  0.33224508025E+03 -0.13119466107E+03  0.38494052513E+03  0.12121911416E+03 0.  0.
         23    2    1    2    0    0  0.76722238036E+02 -0.33224508025E+03  0.67061069038E+02  0.35941401415E+03  0.91695972819E+02 0.  0.
          5    1    3    3  502    0  0.30282374289E+02  0.49021145130E+02 -0.33261958397E+02  0.66697396792E+02  0.47000000000E+01 0. -1.
         -5    1    3    3    0  502 -0.10700461232E+03  0.28322393512E+03 -0.97932702676E+02  0.31824312834E+03  0.47000000000E+01 0.  1.
        -11    1    4    4    0    0  0.73700437614E+02 -0.12782589324E+03  0.42197701540E+02  0.15346615100E+03  0.00000000000E+00 0. -1.
         11    1    4    4    0    0  0.30218004220E+01 -0.20441918701E+03  0.24863367498E+02  0.20594786315E+03  0.00000000000E+00 0.  1.
<mgrwt>
<rscale>  0 0.35967567E+03</rscale>
<asrwt>0</asrwt>
<pdfrwt beam="1">  1        1 0.52324688E-01 0.36189386E+03</pdfrwt>
<pdfrwt beam="2">  1       -1 0.62191395E-01 0.36189386E+03</pdfrwt>
<totfact> 0.20235222E+02</totfact>
</mgrwt>
</event>
<event>
 8    1  0.1020295E-005  0.1493286E+03  0.7546771E-02  0.1210075E+00
          1   -1    0    0  501    0  0.00000000000E+00  0.00000000000E+00  0.70469778793E+02  0.70469778793E+02  0.00000000000E+00 0. -1.
         -1   -1    0    0    0  501 -0.00000000000E+00 -0.00000000000E+00 -0.26434777580E+03  0.26434777580E+03  0.00000000000E+00 0.  1.
         23    2    1    2    0    0 -0.47253010125E+02 -0.66642807561E+02 -0.10620251645E+03  0.18324305041E+03  0.12499972104E+03 0.  0.
         23    2    1    2    0    0  0.47253010125E+02  0.66642807561E+02 -0.87675480555E+02  0.15157450418E+03  0.92810180799E+02 0.  0.
          5    1    3    3  502    0 -0.27139504907E+02 -0.34573741654E+02 -0.13065700739E+03  0.13793201194E+03  0.47000000000E+01 0.  1.
         -5    1    3    3    0  502 -0.20113505218E+02 -0.32069065907E+02  0.24454490941E+02  0.45311038472E+02  0.47000000000E+01 0.  1.
        -11    1    4    4    0    0  0.58938579021E+02  0.38369825177E+02 -0.13873649621E+02  0.71683176094E+02  0.00000000000E+00 0. -1.
         11    1    4    4    0    0 -0.11685568897E+02  0.28272982384E+02 -0.73801830934E+02  0.79891328081E+02  0.00000000000E+00 0.  1.
<mgrwt>
<rscale>  0 0.14244611E+03</rscale>
<asrwt>0</asrwt>
<pdfrwt beam="1">  1        1 0.10841504E-01 0.14932863E+03</pdfrwt>
<pdfrwt beam="2">  1       -1 0.40668889E-01 0.14932863E+03</pdfrwt>
<totfact> 0.33344421E+03</totfact>
</mgrwt>
</event>
<event>
 8    1  0.1115914E-005  0.1737607E+03  0.7546771E-02  0.1179978E+00
         -1   -1    0    0    0  501 -0.00000000000E+00  0.00000000000E+00  0.17990384113E+03  0.17990384113E+03  0.00000000000E+00 0.  1.
          1   -1    0    0  501    0  0.00000000000E+00 -0.00000000000E+00 -0.16369291665E+03  0.16369291665E+03  0.00000000000E+00 0. -1.
         23    2    1    2    0    0  0.10009156805E+03  0.67452062223E+02  0.62960205545E+02  0.18481549042E+03  0.12499870129E+03 0.  0.
         23    2    1    2    0    0 -0.10009156805E+03 -0.67452062223E+02 -0.46749281068E+02  0.15878126736E+03  0.91966803207E+02 0.  0.
          5    1    3    3  502    0  0.51340892625E+02 -0.63347505322E+01  0.79261851233E+02  0.94765750041E+02  0.47000000000E+01 0. -1.
         -5    1    3    3    0  502  0.48750675420E+02  0.73786812755E+02 -0.16301645688E+02  0.90049740381E+02  0.47000000000E+01 0. -1.
        -11    1    4    4    0    0 -0.20870565833E+02 -0.53105897372E+02 -0.53200746810E+02  0.78013693125E+02  0.00000000000E+00 0. -1.
         11    1    4    4    0    0 -0.79221002213E+02 -0.14346164851E+02  0.64514657423E+01  0.80767574235E+02  0.00000000000E+00 0.  1.
<mgrwt>
<rscale>  0 0.16797357E+03</rscale>
<asrwt>0</asrwt>
<pdfrwt beam="2">  1        1 0.25183526E-01 0.17376069E+03</pdfrwt>
<pdfrwt beam="1">  1       -1 0.27677514E-01 0.17376069E+03</pdfrwt>
<totfact> 0.21836338E+03</totfact>
</mgrwt>
</event>
<event>
 8    1  0.1020295E-005  0.1595378E+03  0.7546771E-02  0.1197549E+00
         -1   -1    0    0    0  501 -0.00000000000E+00  0.00000000000E+00  0.71286323082E+02  0.71286323082E+02  0.00000000000E+00 0.  1.
          1   -1    0    0  501    0  0.00000000000E+00 -0.00000000000E+00 -0.67342143800E+03  0.67342143800E+03  0.00000000000E+00 0. -1.
         23    2    1    2    0    0 -0.84073571340E+02  0.52541267483E+02 -0.36475867875E+02  0.16365450056E+03  0.12499342555E+03 0.  0.
         23    2    1    2    0    0  0.84073571340E+02 -0.52541267483E+02 -0.56565924705E+03  0.58105326052E+03  0.88450876825E+02 0.  0.
          5    1    3    3  502    0 -0.14245054771E+01  0.10908067805E+02 -0.65476340798E+02  0.66560170999E+02  0.47000000000E+01 0. -1.
         -5    1    3    3    0  502 -0.82649065863E+02  0.41633199678E+02  0.29000472923E+02  0.97094329563E+02  0.47000000000E+01 0. -1.
        -11    1    4    4    0    0  0.67777567196E+02  0.36628685598E+01 -0.39109631601E+03  0.39694274602E+03  0.00000000000E+00 0.  1.
         11    1    4    4    0    0  0.16296004144E+02 -0.56204136043E+02 -0.17456293103E+03  0.18411051450E+03  0.00000000000E+00 0. -1.
<mgrwt>
<rscale>  0 0.15240474E+03</rscale>
<asrwt>0</asrwt>
<pdfrwt beam="2">  1        1 0.10360330E+00 0.15953779E+03</pdfrwt>
<pdfrwt beam="1">  1       -1 0.10967127E-01 0.15953779E+03</pdfrwt>
<totfact> 0.15641033E+03</totfact>
</mgrwt>
</event>
<event>
 7    1  0.1020295E-005  0.2297980E+03  0.7546771E-02  0.1144298E+00
          2   -1    0    0  501    0  0.00000000000E+00  0.00000000000E+00  0.10893257726E+03  0.10893257726E+03  0.00000000000E+00 0. -1.
         -2   -1    0    0    0  501 -0.00000000000E+00 -0.00000000000E+00 -0.52474696356E+03  0.52474696356E+03  0.00000000000E+00 0.  1.
         23    2    1    2    0    0  0.10311320639E+03  0.60641064629E+02  0.93517144942E+01  0.15038530331E+03  0.90656565325E+02 0.  0.
          5    1    1    2  502    0  0.37499129854E+02 -0.78014010057E+02 -0.13651878523E+03  0.16171530300E+03  0.47000000000E+01 0. -1.
         -5    1    1    2    0  502 -0.14061233624E+03  0.17372945428E+02 -0.28864731557E+03  0.32157893451E+03  0.47000000000E+01 0.  1.
        -11    1    3    3    0    0  0.28099503644E+02  0.49234782554E+02 -0.30826216215E+02  0.64528300182E+02  0.00000000000E+00 0.  1.
         11    1    3    3    0    0  0.75013702741E+02  0.11406282075E+02  0.40177930709E+02  0.85857003126E+02  0.00000000000E+00 0. -1.
<mgrwt>
<rscale>  0 0.20658589E+03</rscale>
<asrwt>0</asrwt>
<pdfrwt beam="1">  1        2 0.16758858E-01 0.22979797E+03</pdfrwt>
<pdfrwt beam="2">  1       -2 0.80730302E-01 0.22979797E+03</pdfrwt>
<totfact> 0.47676875E+02</totfact>
</mgrwt>
</event>
<event>
 8    1  0.1020295E-005  0.1288614E+03  0.7546771E-02  0.1243087E+00
         -4   -1    0    0    0  501 -0.00000000000E+00  0.00000000000E+00  0.99142221313E+03  0.99142221313E+03  0.00000000000E+00 0.  1.
          4   -1    0    0  501    0  0.00000000000E+00 -0.00000000000E+00 -0.19146480353E+02  0.19146480353E+02  0.00000000000E+00 0. -1.
         23    2    1    2    0    0  0.25562993462E+02 -0.18024256895E+02  0.81998712740E+03  0.83005068772E+03  0.12500765826E+03 0.  0.
         23    2    1    2    0    0 -0.25562993462E+02  0.18024256895E+02  0.15228860538E+03  0.18051800576E+03  0.91741978412E+02 0.  0.
          5    1    3    3  502    0 -0.26454785029E+02 -0.52422444531E+02  0.26040544222E+03  0.26698511697E+03  0.47000000000E+01 0.  1.
         -5    1    3    3    0  502  0.52017778492E+02  0.34398187635E+02  0.55958168517E+03  0.56306557076E+03  0.47000000000E+01 0.  1.
        -11    1    4    4    0    0  0.18607474952E+02 -0.23560410348E+02  0.83847924614E+02  0.89060684490E+02  0.00000000000E+00 0.  1.
         11    1    4    4    0    0 -0.44170468414E+02  0.41584667243E+02  0.68440680765E+02  0.91457321267E+02  0.00000000000E+00 0. -1.
<mgrwt>
<rscale>  0 0.12000623E+03</rscale>
<asrwt>0</asrwt>
<pdfrwt beam="2">  1        4 0.29456131E-02 0.12886138E+03</pdfrwt>
<pdfrwt beam="1">  1       -4 0.15252645E+00 0.12886138E+03</pdfrwt>
<totfact> 0.28037890E+02</totfact>
</mgrwt>
</event>
<event>
 8    1  0.1020295E-005  0.1398437E+03  0.7546771E-02  0.1225629E+00
         -1   -1    0    0    0  501 -0.00000000000E+00  0.00000000000E+00  0.29388622073E+03  0.29388622073E+03  0.00000000000E+00 0.  1.
          1   -1    0    0  501    0  0.00000000000E+00 -0.00000000000E+00 -0.60691273124E+02  0.60691273124E+02  0.00000000000E+00 0. -1.
         23    2    1    2    0    0 -0.62613490134E+02 -0.32852381849E+01  0.19419224659E+03  0.23930503707E+03  0.12500012078E+03 0.  0.
         23    2    1    2    0    0  0.62613490134E+02  0.32852381849E+01  0.39002701018E+02  0.11527245679E+03  0.88517154668E+02 0.  0.
          5    1    3    3  502    0 -0.41308462255E+02  0.58318598387E+02  0.77266809883E+02  0.10535510373E+03  0.47000000000E+01 0.  1.
         -5    1    3    3    0  502 -0.21305027879E+02 -0.61603836571E+02  0.11692543670E+03  0.13394993334E+03  0.47000000000E+01 0.  1.
        -11    1    4    4    0    0 -0.15616573965E+02  0.21338393685E+02  0.10384313077E+01  0.26462856366E+02  0.00000000000E+00 0. -1.
         11    1    4    4    0    0  0.78230064099E+02 -0.18053155500E+02  0.37964269711E+02  0.88809600422E+02  0.00000000000E+00 0.  1.
<mgrwt>
<rscale>  0 0.13123912E+03</rscale>
<asrwt>0</asrwt>
<pdfrwt beam="2">  1        1 0.93371191E-02 0.13984374E+03</pdfrwt>
<pdfrwt beam="1">  1       -1 0.45213264E-01 0.13984374E+03</pdfrwt>
<totfact> 0.33564062E+03</totfact>
</mgrwt>
</event>
<event>
 8    1  0.1020295E-005  0.1580773E+03  0.7546771E-02  0.1198667E+00
         -2   -1    0    0    0  501 -0.00000000000E+00  0.00000000000E+00  0.76606025911E+02  0.76606025911E+02  0.00000000000E+00 0.  1.
          2   -1    0    0  501    0  0.00000000000E+00 -0.00000000000E+00 -0.29239762463E+03  0.29239762463E+03  0.00000000000E+00 0. -1.
         23    2    1    2    0    0  0.84176105945E+02 -0.47725241550E+02 -0.74472249132E+02  0.17474140934E+03  0.12500051502E+03 0.  0.
         23    2    1    2    0    0 -0.84176105945E+02  0.47725241550E+02 -0.14131934959E+03  0.19426224120E+03  0.91669756706E+02 0.  0.
          5    1    3    3  502    0  0.63547662454E+02 -0.80511661472E+02 -0.15225465494E+02  0.10379950788E+03  0.47000000000E+01 0.  1.
         -5    1    3    3    0  502  0.20628443492E+02  0.32786419922E+02 -0.59246783638E+02  0.70941901466E+02  0.47000000000E+01 0.  1.
        -11    1    4    4    0    0 -0.53066665947E+02 -0.21252807600E+02 -0.68856005339E+02  0.89492470838E+02  0.00000000000E+00 0.  1.
         11    1    4    4    0    0 -0.31109439999E+02  0.68978049150E+02 -0.72463344252E+02  0.10476977036E+03  0.00000000000E+00 0. -1.
<mgrwt>
<rscale>  0 0.15147917E+03</rscale>
<asrwt>0</asrwt>
<pdfrwt beam="2">  1        2 0.44984250E-01 0.15807734E+03</pdfrwt>
<pdfrwt beam="1">  1       -2 0.11785543E-01 0.15807734E+03</pdfrwt>
<totfact> 0.55265608E+03</totfact>
</mgrwt>
</event>
<event>
 8    1  0.1020295E-005  0.1681456E+03  0.7546771E-02  0.1184141E+00
          1   -1    0    0  501    0  0.00000000000E+00  0.00000000000E+00  0.22664211329E+03  0.22664211329E+03  0.00000000000E+00 0. -1.
         -1   -1    0    0    0  501 -0.00000000000E+00 -0.00000000000E+00 -0.17553840787E+03  0.17553840787E+03  0.00000000000E+00 0.  1.
         23    2    1    2    0    0  0.12207891257E+03 -0.11122862886E+01 -0.93153514463E+02  0.19222517682E+03  0.11562198437E+03 0.  0.
         23    2    1    2    0    0 -0.12207891257E+03  0.11122862886E+01  0.14425721989E+03  0.20995534434E+03  0.91469137151E+02 0.  0.
          5    1    3    3  502    0 -0.58090570908E+01  0.31739863929E+02 -0.35103003444E+02  0.47911115175E+02  0.47000000000E+01 0. -1.
         -5    1    3    3    0  502  0.12788796966E+03 -0.32852150218E+02 -0.58050511019E+02  0.14431406164E+03  0.47000000000E+01 0.  1.
        -11    1    4    4    0    0 -0.66013330670E+02 -0.38686427494E+02  0.10762196332E+03  0.13204880343E+03  0.00000000000E+00 0. -1.
         11    1    4    4    0    0 -0.56065581901E+02  0.39798713782E+02  0.36635256568E+02  0.77906540909E+02  0.00000000000E+00 0.  1.
<mgrwt>
<rscale>  0 0.16410289E+03</rscale>
<asrwt>0</asrwt>
<pdfrwt beam="1">  1        1 0.34868018E-01 0.16814560E+03</pdfrwt>
<pdfrwt beam="2">  1       -1 0.27005909E-01 0.16814560E+03</pdfrwt>
<totfact> 0.15114909E+03</totfact>
</mgrwt>
</event>
<event>
 8    1  0.1020295E-005  0.1328176E+03  0.7546771E-02  0.1236178E+00
          1   -1    0    0  501    0  0.00000000000E+00  0.00000000000E+00  0.47443677595E+03  0.47443677595E+03  0.00000000000E+00 0. -1.
         -1   -1    0    0    0  501 -0.00000000000E+00 -0.00000000000E+00 -0.30798202713E+02  0.30798202713E+02  0.00000000000E+00 0.  1.
         23    2    1    2    0    0 -0.34329332430E+02 -0.28904219984E+02  0.18921576698E+03  0.23117765477E+03  0.12500617822E+03 0.  0.
         23    2    1    2    0    0  0.34329332430E+02  0.28904219984E+02  0.25442280626E+03  0.27405732390E+03  0.91446680852E+02 0.  0.
          5    1    3    3  502    0 -0.16430513139E+02 -0.53860639181E+02  0.19184866727E+03  0.19999732835E+03  0.47000000000E+01 0.  1.
         -5    1    3    3    0  502 -0.17898819291E+02  0.24956419198E+02 -0.26329002931E+01  0.31180326412E+02  0.47000000000E+01 0.  1.
        -11    1    4    4    0    0  0.19898140796E+02  0.60808252411E+02  0.13141286174E+03  0.14616059592E+03  0.00000000000E+00 0.  1.
         11    1    4    4    0    0  0.14431191635E+02 -0.31904032428E+02  0.12300994452E+03  0.12789672798E+03  0.00000000000E+00 0. -1.
<mgrwt>
<rscale>  0 0.12429330E+03</rscale>
<asrwt>0</asrwt>
<pdfrwt beam="1">  1        1 0.72990268E-01 0.13281755E+03</pdfrwt>
<pdfrwt beam="2">  1       -1 0.47381854E-02 0.13281755E+03</pdfrwt>
<totfact> 0.88014997E+03</totfact>
</mgrwt>
</event>
<event>
 8    1  0.1020295E-005  0.1957211E+03  0.7546771E-02  0.1157975E+00
         -1   -1    0    0    0  501 -0.00000000000E+00  0.00000000000E+00  0.15605758514E+04  0.15605758514E+04  0.00000000000E+00 0.  1.
          1   -1    0    0  501    0  0.00000000000E+00 -0.00000000000E+00 -0.28414829357E+02  0.28414829357E+02  0.00000000000E+00 0. -1.
         23    2    1    2    0    0 -0.14277473042E+03 -0.47931027001E+02  0.11717853240E+04  0.11880183423E+04  0.12499891620E+03 0.  0.
         23    2    1    2    0    0  0.14277473042E+03  0.47931027001E+02  0.36037569808E+03  0.40097233852E+03  0.90698211079E+02 0.  0.
          5    1    3    3  502    0 -0.10116929483E+03 -0.63622509461E+02  0.47595285096E+03  0.49075070684E+03  0.47000000000E+01 0.  1.
         -5    1    3    3    0  502 -0.41605435589E+02  0.15691482461E+02  0.69583247304E+03  0.69726763544E+03  0.47000000000E+01 0.  1.
        -11    1    4    4    0    0  0.85171277814E+02  0.69576989058E+02  0.27095521234E+03  0.29242406034E+03  0.00000000000E+00 0.  1.
         11    1    4    4    0    0  0.57603452604E+02 -0.21645962057E+02  0.89420485744E+02  0.10854827818E+03  0.00000000000E+00 0. -1.
<mgrwt>
<rscale>  0 0.19054052E+03</rscale>
<asrwt>0</asrwt>
<pdfrwt beam="2">  1        1 0.43715134E-02 0.19572107E+03</pdfrwt>
<pdfrwt beam="1">  1       -1 0.24008853E+00 0.19572107E+03</pdfrwt>
<totfact> 0.18514403E+02</totfact>
</mgrwt>
</event>
<event>
 8    1  0.1020295E-005  0.1738697E+03  0.7546771E-02  0.1179822E+00
          2   -1    0    0  501    0  0.00000000000E+00  0.00000000000E+00  0.28772940329E+03  0.28772940329E+03  0.00000000000E+00 0. -1.
         -2   -1    0    0    0  501 -0.00000000000E+00 -0.00000000000E+00 -0.92528689961E+02  0.92528689961E+02  0.00000000000E+00 0.  1.
         23    2    1    2    0    0 -0.11369376835E+01 -0.12084716817E+03  0.93920427958E+02  0.19761506288E+03  0.12500134242E+03 0.  0.
         23    2    1    2    0    0  0.11369376835E+01  0.12084716817E+03  0.10128028537E+03  0.18264303037E+03  0.92170763571E+02 0.  0.
          5    1    3    3  502    0 -0.56018688122E+02 -0.10046649575E+03  0.61056345082E+02  0.13031338175E+03  0.47000000000E+01 0. -1.
         -5    1    3    3    0  502  0.54881750438E+02 -0.20380672416E+02  0.32864082876E+02  0.67301681127E+02  0.47000000000E+01 0. -1.
        -11    1    4    4    0    0 -0.16968068792E+02 -0.69444336908E+01 -0.39341488884E+00  0.18338355790E+02  0.00000000000E+00 0.  1.
         11    1    4    4    0    0  0.18105006475E+02  0.12779160186E+03  0.10167370026E+03  0.16430467458E+03  0.00000000000E+00 0. -1.
<mgrwt>
<rscale>  0 0.16812071E+03</rscale>
<asrwt>0</asrwt>
<pdfrwt beam="1">  1        2 0.44266062E-01 0.17386968E+03</pdfrwt>
<pdfrwt beam="2">  1       -2 0.14235183E-01 0.17386968E+03</pdfrwt>
<totfact> 0.41636809E+03</totfact>
</mgrwt>
</event>
<event>
 8    1  0.1020295E-005  0.1276238E+03  0.7546771E-02  0.1247472E+00
         -2   -1    0    0    0  501 -0.00000000000E+00  0.00000000000E+00  0.10743787730E+03  0.10743787730E+03  0.00000000000E+00 0.  1.
          2   -1    0    0  501    0  0.00000000000E+00 -0.00000000000E+00 -0.18000545269E+03  0.18000545269E+03  0.00000000000E+00 0. -1.
         23    2    1    2    0    0 -0.24711351640E+02  0.71325197198E+01  0.47851839806E+02  0.13629983633E+03  0.12500529218E+03 0.  0.
         23    2    1    2    0    0  0.24711351640E+02 -0.71325197198E+01 -0.12041941519E+03  0.15114349366E+03  0.87646998715E+02 0.  0.
          5    1    3    3  502    0 -0.49499651002E+02 -0.38320523400E+02  0.55454023006E+02  0.83761068705E+02  0.47000000000E+01 0.  1.
         -5    1    3    3    0  502  0.24788299362E+02  0.45453043120E+02 -0.76021832006E+01  0.52538767625E+02  0.47000000000E+01 0.  1.
        -11    1    4    4    0    0  0.10971391837E+02  0.31450784360E+02 -0.12268312962E+02  0.35496968584E+02  0.00000000000E+00 0.  1.
         11    1    4    4    0    0  0.13739959803E+02 -0.38583304080E+02 -0.10815110223E+03  0.11564652508E+03  0.00000000000E+00 0. -1.
<mgrwt>
<rscale>  0 0.11738633E+03</rscale>
<asrwt>0</asrwt>
<pdfrwt beam="2">  1        2 0.27693147E-01 0.12762385E+03</pdfrwt>
<pdfrwt beam="1">  1       -2 0.16528904E-01 0.12762385E+03</pdfrwt>
<totfact> 0.53022048E+03</totfact>
</mgrwt>
</event>
<event>
 8    1  0.1020295E-005  0.1465423E+03  0.7546771E-02  0.1214653E+00
         -2   -1    0    0    0  501 -0.00000000000E+00  0.00000000000E+00  0.92083841158E+02  0.92083841158E+02  0.00000000000E+00 0.  1.
          2   -1    0    0  501    0  0.00000000000E+00 -0.00000000000E+00 -0.21242222157E+03  0.21242222157E+03  0.00000000000E+00 0. -1.
         23    2    1    2    0    0  0.12071284152E+02  0.75513508821E+02 -0.17731471641E+02  0.14761119422E+03  0.12500661446E+03 0.  0.
         23    2    1    2    0    0 -0.12071284152E+02 -0.75513508821E+02 -0.10260690877E+03  0.15689486850E+03  0.90773432894E+02 0.  0.
          5    1    3    3  502    0  0.11443588954E+02  0.11049665695E+03 -0.15141311316E+02  0.11221326229E+03  0.47000000000E+01 0. -1.
         -5    1    3    3    0  502  0.62769519847E+00 -0.34983148133E+02 -0.25901603248E+01  0.35397931932E+02  0.47000000000E+01 0. -1.
        -11    1    4    4    0    0  0.35183891542E+02 -0.18805749347E+02 -0.15705925883E+02  0.42874684144E+02  0.00000000000E+00 0.  1.
         11    1    4    4    0    0 -0.47255175694E+02 -0.56707759474E+02 -0.86900982887E+02  0.11402018436E+03  0.00000000000E+00 0. -1.
<mgrwt>
<rscale>  0 0.13902018E+03</rscale>
<asrwt>0</asrwt>
<pdfrwt beam="2">  1        2 0.32680341E-01 0.14654235E+03</pdfrwt>
<pdfrwt beam="1">  1       -2 0.14166745E-01 0.14654235E+03</pdfrwt>
<totfact> 0.57550121E+03</totfact>
</mgrwt>
</event>
<event>
 8    1  0.1020295E-005  0.2019223E+03  0.7546771E-02  0.1152061E+00
         -1   -1    0    0    0  501 -0.00000000000E+00  0.00000000000E+00  0.47737169272E+02  0.47737169272E+02  0.00000000000E+00 0.  1.
          1   -1    0    0  501    0  0.00000000000E+00 -0.00000000000E+00 -0.86917121527E+03  0.86917121527E+03  0.00000000000E+00 0. -1.
         23    2    1    2    0    0  0.13310775658E+03  0.86199532273E+02 -0.28100895249E+03  0.34603273931E+03  0.12499836426E+03 0.  0.
         23    2    1    2    0    0 -0.13310775658E+03 -0.86199532273E+02 -0.54042509351E+03  0.57087564523E+03  0.93229214313E+02 0.  0.
          5    1    3    3  502    0  0.19853290772E+02  0.18574384035E+02  0.76468049007E+01  0.28630831667E+02  0.47000000000E+01 0. -1.
         -5    1    3    3    0  502  0.11325446581E+03  0.67625148238E+02 -0.28865575739E+03  0.31740190764E+03  0.47000000000E+01 0. -1.
        -11    1    4    4    0    0  0.14690821212E+02 -0.84050515579E+01 -0.48175779183E+02  0.51062420815E+02  0.00000000000E+00 0. -1.
         11    1    4    4    0    0 -0.14779857779E+03 -0.77794480715E+02 -0.49224931432E+03  0.51981322442E+03  0.00000000000E+00 0.  1.
<mgrwt>
<rscale>  0 0.19727252E+03</rscale>
<asrwt>0</asrwt>
<pdfrwt beam="2">  1        1 0.13371864E+00 0.20192232E+03</pdfrwt>
<pdfrwt beam="1">  1       -1 0.73441802E-02 0.20192232E+03</pdfrwt>
<totfact> 0.19765789E+03</totfact>
</mgrwt>
</event>
<event>
 8    1  0.1020295E-005  0.1431690E+03  0.7546771E-02  0.1210371E+00
         -2   -1    0    0    0  501 -0.00000000000E+00  0.00000000000E+00  0.14641713346E+03  0.14641713346E+03  0.00000000000E+00 0.  1.
          2   -1    0    0  501    0  0.00000000000E+00 -0.00000000000E+00 -0.20056478539E+03  0.20056478539E+03  0.00000000000E+00 0. -1.
         23    2    1    2    0    0 -0.56683481479E+02 -0.66906552163E+02  0.70844901528E+02  0.15973837525E+03  0.11317174850E+03 0.  0.
         23    2    1    2    0    0  0.56683481479E+02  0.66906552163E+02 -0.12499255345E+03  0.18724354360E+03  0.10838589580E+03 0.  0.
          5    1    3    3  502    0 -0.47327613840E+01 -0.23305620794E+02 -0.29717961495E+02  0.38350987293E+02  0.47000000000E+01 0. -1.
         -5    1    3    3    0  502 -0.51950720095E+02 -0.43600931369E+02  0.10056286302E+03  0.12138738795E+03  0.47000000000E+01 0.  1.
        -11    1    4    4    0    0  0.21546128325E+02 -0.27780560220E+02 -0.15922147506E+02  0.38594169937E+02  0.00000000000E+00 0.  1.
         11    1    4    4    0    0  0.35137353155E+02  0.94687112383E+02 -0.10907040595E+03  0.14864937367E+03  0.00000000000E+00 0. -1.
<mgrwt>
<rscale>  0 0.14222152E+03</rscale>
<asrwt>0</asrwt>
<pdfrwt beam="2">  1        2 0.30856121E-01 0.14316895E+03</pdfrwt>
<pdfrwt beam="1">  1       -2 0.22525713E-01 0.14316895E+03</pdfrwt>
<totfact> 0.28170085E+03</totfact>
</mgrwt>
</event>
<event>
 8    1  0.1020295E-005  0.1287799E+03  0.7546771E-02  0.1243202E+00
         -2   -1    0    0    0  501 -0.00000000000E+00  0.00000000000E+00  0.77386893350E+03  0.77386893350E+03  0.00000000000E+00 0.  1.
          2   -1    0    0  501    0  0.00000000000E+00 -0.00000000000E+00 -0.16455907192E+02  0.16455907192E+02  0.00000000000E+00 0. -1.
         23    2    1    2    0    0 -0.24282037927E+02 -0.19241816091E+02  0.42568231636E+03  0.44473553378E+03  0.12499758274E+03 0.  0.
         23    2    1    2    0    0  0.24282037927E+02  0.19241816091E+02  0.33173070994E+03  0.34558930691E+03  0.91797822844E+02 0.  0.
          5    1    3    3  502    0 -0.71193719964E+02 -0.30873643238E+02  0.21786302529E+03  0.23131821242E+03  0.47000000000E+01 0. -1.
         -5    1    3    3    0  502  0.46911682037E+02  0.11631827147E+02  0.20781929107E+03  0.21341732136E+03  0.47000000000E+01 0. -1.
        -11    1    4    4    0    0 -0.24614763598E+02  0.35574487056E+02  0.18739165709E+03  0.19232021179E+03  0.00000000000E+00 0. -1.
         11    1    4    4    0    0  0.48896801525E+02 -0.16332670965E+02  0.14433905286E+03  0.15326909512E+03  0.00000000000E+00 0.  1.
<mgrwt>
<rscale>  0 0.11993617E+03</rscale>
<asrwt>0</asrwt>
<pdfrwt beam="2">  1        2 0.25316786E-02 0.12877989E+03</pdfrwt>
<pdfrwt beam="1">  1       -2 0.11905673E+00 0.12877989E+03</pdfrwt>
<totfact> 0.21340428E+03</totfact>
</mgrwt>
</event>
<event>
 8    1  0.1020295E-005  0.1276070E+03  0.7546771E-02  0.1248562E+00
         -2   -1    0    0    0  501 -0.00000000000E+00  0.00000000000E+00  0.22018678439E+02  0.22018678439E+02  0.00000000000E+00 0.  1.
          2   -1    0    0  501    0  0.00000000000E+00 -0.00000000000E+00 -0.53481361701E+03  0.53481361701E+03  0.00000000000E+00 0. -1.
         23    2    1    2    0    0  0.18374700791E+02 -0.17906124379E+02 -0.30540047443E+03  0.33098790271E+03  0.12500113217E+03 0.  0.
         23    2    1    2    0    0 -0.18374700791E+02  0.17906124379E+02 -0.20739446415E+03  0.22584439274E+03  0.85644422196E+02 0.  0.
          5    1    3    3  502    0 -0.49876973874E+02 -0.15085246013E+02 -0.81471453436E+02  0.96824402374E+02  0.47000000000E+01 0.  1.
         -5    1    3    3    0  502  0.68251674666E+02 -0.28208783656E+01 -0.22392902099E+03  0.23416350034E+03  0.47000000000E+01 0.  1.
        -11    1    4    4    0    0  0.32023155300E+02  0.20145752128E+02 -0.71576854620E+02  0.80960360186E+02  0.00000000000E+00 0.  1.
         11    1    4    4    0    0 -0.50397856091E+02 -0.22396277493E+01 -0.13581760953E+03  0.14488403255E+03  0.00000000000E+00 0. -1.
<mgrwt>
<rscale>  0 0.11674710E+03</rscale>
<asrwt>0</asrwt>
<pdfrwt beam="2">  1        2 0.82279015E-01 0.12760698E+03</pdfrwt>
<pdfrwt beam="1">  1       -2 0.33874891E-02 0.12760698E+03</pdfrwt>
<totfact> 0.19083793E+04</totfact>
</mgrwt>
</event>
<event>
 8    1  0.1020295E-005  0.1257745E+03  0.7546771E-02  0.1248717E+00
         -4   -1    0    0    0  501 -0.00000000000E+00  0.00000000000E+00  0.68400120633E+02  0.68400120633E+02  0.00000000000E+00 0.  1.
          4   -1    0    0  501    0  0.00000000000E+00 -0.00000000000E+00 -0.17820376603E+03  0.17820376603E+03  0.00000000000E+00 0. -1.
         23    2    1    2    0    0  0.13540897071E+02  0.33413761266E+01 -0.46771018819E+02  0.13418921173E+03  0.12499878262E+03 0.  0.
         23    2    1    2    0    0 -0.13540897071E+02 -0.33413761266E+01 -0.63032626577E+02  0.11241467493E+03  0.92029486790E+02 0.  0.
          5    1    3    3  502    0  0.53049516377E+02  0.29388765141E+02 -0.59364151079E+02  0.84994959484E+02  0.47000000000E+01 0. -1.
         -5    1    3    3    0  502 -0.39508619306E+02 -0.26047389015E+02  0.12593132260E+02  0.49194252246E+02  0.47000000000E+01 0. -1.
        -11    1    4    4    0    0 -0.15174993626E+02 -0.17891057556E+02  0.18313386282E+02  0.29761560597E+02  0.00000000000E+00 0.  1.
         11    1    4    4    0    0  0.16340965550E+01  0.14549681430E+02 -0.81346012859E+02  0.82653114335E+02  0.00000000000E+00 0. -1.
<mgrwt>
<rscale>  0 0.11665647E+03</rscale>
<asrwt>0</asrwt>
<pdfrwt beam="2">  1        4 0.27415964E-01 0.12577447E+03</pdfrwt>
<pdfrwt beam="1">  1       -4 0.10523095E-01 0.12577447E+03</pdfrwt>
<totfact> 0.14206577E+03</totfact>
</mgrwt>
</event>
<event>
 8    1  0.1020295E-005  0.3286611E+03  0.7546771E-02  0.1072796E+00
          1   -1    0    0  501    0  0.00000000000E+00  0.00000000000E+00  0.60207558026E+03  0.60207558026E+03  0.00000000000E+00 0. -1.
         -1   -1    0    0    0  501 -0.00000000000E+00 -0.00000000000E+00 -0.18125467427E+03  0.18125467427E+03  0.00000000000E+00 0.  1.
         23    2    1    2    0    0  0.11220723156E+03  0.28250042442E+03  0.13663334597E+03  0.35593083913E+03  0.12498455264E+03 0.  0.
         23    2    1    2    0    0 -0.11220723156E+03 -0.28250042442E+03  0.28418756001E+03  0.42739941540E+03  0.97523014762E+02 0.  0.
          5    1    3    3  502    0  0.13734894338E+03  0.20993966036E+03  0.11494160298E+03  0.27599466541E+03  0.47000000000E+01 0.  1.
         -5    1    3    3    0  502 -0.25141711821E+02  0.72560764062E+02  0.21691742989E+02  0.79936173716E+02  0.47000000000E+01 0.  1.
        -11    1    4    4    0    0 -0.73345963404E+02 -0.22712634434E+03  0.16435660531E+03  0.28979147736E+03  0.00000000000E+00 0.  1.
         11    1    4    4    0    0 -0.38861268157E+02 -0.55374080080E+02  0.11983095470E+03  0.13760793804E+03  0.00000000000E+00 0. -1.
<mgrwt>
<rscale>  0 0.32627745E+03</rscale>
<asrwt>0</asrwt>
<pdfrwt beam="1">  1        1 0.92627011E-01 0.32866106E+03</pdfrwt>
<pdfrwt beam="2">  1       -1 0.27885335E-01 0.32866106E+03</pdfrwt>
<totfact> 0.40626517E+02</totfact>
</mgrwt>
</event>
<event>
 8    1  0.1020295E-005  0.1421874E+03  0.7546771E-02  0.1221065E+00
          1   -1    0    0  501    0  0.00000000000E+00  0.00000000000E+00  0.73121093932E+03  0.73121093932E+03  0.00000000000E+00 0. -1.
         -1   -1    0    0    0  501 -0.00000000000E+00 -0.00000000000E+00 -0.22772840229E+02  0.22772840229E+02  0.00000000000E+00 0.  1.
         23    2    1    2    0    0 -0.26456438189E+02  0.62381195818E+02  0.34242531221E+03  0.37077264171E+03  0.12500360268E+03 0.  0.
         23    2    1    2    0    0  0.26456438189E+02 -0.62381195818E+02  0.36601278688E+03  0.38321113785E+03  0.91071726089E+02 0.  0.
          5    1    3    3  502    0 -0.33533638419E+02 -0.23252841764E+02  0.44026586465E+02  0.60213203464E+02  0.47000000000E+01 0.  1.
         -5    1    3    3    0  502  0.70772002302E+01  0.85634037582E+02  0.29839872575E+03  0.31055943824E+03  0.47000000000E+01 0.  1.
        -11    1    4    4    0    0  0.47133655949E+02 -0.15863940619E+02  0.92695719870E+02  0.10519383355E+03  0.00000000000E+00 0.  1.
         11    1    4    4    0    0 -0.20677217760E+02 -0.46517255199E+02  0.27331706701E+03  0.27801730429E+03  0.00000000000E+00 0. -1.
<mgrwt>
<rscale>  0 0.13440275E+03</rscale>
<asrwt>0</asrwt>
<pdfrwt beam="1">  1        1 0.11249397E+00 0.14218740E+03</pdfrwt>
<pdfrwt beam="2">  1       -1 0.35035144E-02 0.14218740E+03</pdfrwt>
<totfact> 0.76453648E+03</totfact>
</mgrwt>
</event>
<event>
 8    1  0.1020295E-005  0.2182699E+03  0.7546771E-02  0.1138570E+00
         -1   -1    0    0    0  501 -0.00000000000E+00  0.00000000000E+00  0.62553882715E+02  0.62553882715E+02  0.00000000000E+00 0. -1.
          1   -1    0    0  501    0  0.00000000000E+00 -0.00000000000E+00 -0.76184795165E+03  0.76184795165E+03  0.00000000000E+00 0.  1.
         23    2    1    2    0    0  0.65392785982E+02  0.16656157438E+03 -0.24810830516E+03  0.33045346218E+03  0.12499113991E+03 0.  0.
         23    2    1    2    0    0 -0.65392785982E+02 -0.16656157438E+03 -0.45118576377E+03  0.49394837218E+03  0.91637472861E+02 0.  0.
          5    1    3    3  502    0  0.63706994266E+02  0.83456970869E+02 -0.21783952749E+03  0.24186731247E+03  0.47000000000E+01 0. -1.
         -5    1    3    3    0  502  0.16857917164E+01  0.83104603514E+02 -0.30268777678E+02  0.88586149714E+02  0.47000000000E+01 0. -1.
        -11    1    4    4    0    0 -0.36370769828E+02 -0.11831344452E+03 -0.18999312171E+03  0.22675601503E+03  0.00000000000E+00 0. -1.
         11    1    4    4    0    0 -0.29022016155E+02 -0.48248129858E+02 -0.26119264205E+03  0.26719235715E+03  0.00000000000E+00 0.  1.
<mgrwt>
<rscale>  0 0.21382827E+03</rscale>
<asrwt>0</asrwt>
<pdfrwt beam="2">  1        1 0.11720739E+00 0.21826992E+03</pdfrwt>
<pdfrwt beam="1">  1       -1 0.96236734E-02 0.21826992E+03</pdfrwt>
<totfact> 0.16038932E+03</totfact>
</mgrwt>
</event>
<event>
 8    1  0.1020295E-005  0.1892481E+03  0.7546771E-02  0.1161917E+00
         -1   -1    0    0    0  501 -0.00000000000E+00  0.00000000000E+00  0.36110631700E+03  0.36110631700E+03  0.00000000000E+00 0.  1.
          1   -1    0    0  501    0  0.00000000000E+00 -0.00000000000E+00 -0.10000401575E+03  0.10000401575E+03  0.00000000000E+00 0. -1.
         23    2    1    2    0    0  0.89713469781E+02 -0.11017972214E+03  0.19511642558E+03  0.27181845338E+03  0.12500709675E+03 0.  0.
         23    2    1    2    0    0 -0.89713469781E+02  0.11017972214E+03  0.65985875681E+02  0.18929187937E+03  0.10625065634E+03 0.  0.
          5    1    3    3  502    0  0.67889191949E+02 -0.13745602581E+03  0.16685301178E+03  0.22663874107E+03  0.47000000000E+01 0.  1.
         -5    1    3    3    0  502  0.21824277832E+02  0.27276303670E+02  0.28263413801E+02  0.45179712311E+02  0.47000000000E+01 0.  1.
        -11    1    4    4    0    0 -0.62281697557E+02  0.41082295396E+01  0.20732270102E+01  0.62451466522E+02  0.00000000000E+00 0. -1.
         11    1    4    4    0    0 -0.27431772225E+02  0.10607149260E+03  0.63912648671E+02  0.12684041285E+03  0.00000000000E+00 0.  1.
<mgrwt>
<rscale>  0 0.18621872E+03</rscale>
<asrwt>0</asrwt>
<pdfrwt beam="2">  1        1 0.15385233E-01 0.18924812E+03</pdfrwt>
<pdfrwt beam="1">  1       -1 0.55554817E-01 0.18924812E+03</pdfrwt>
<totfact> 0.12044308E+03</totfact>
</mgrwt>
</event>
<event>
 8    1  0.1020295E-005  0.1303558E+03  0.7546771E-02  0.1241152E+00
          2   -1    0    0  501    0  0.00000000000E+00  0.00000000000E+00  0.23698708681E+03  0.23698708681E+03  0.00000000000E+00 0. -1.
         -2   -1    0    0    0  501 -0.00000000000E+00 -0.00000000000E+00 -0.64445528455E+02  0.64445528455E+02  0.00000000000E+00 0.  1.
         23    2    1    2    0    0  0.33523155654E+02  0.15556035086E+02  0.38815073528E+02  0.13601195586E+03  0.12500739982E+03 0.  0.
         23    2    1    2    0    0 -0.33523155654E+02 -0.15556035086E+02  0.13372648483E+03  0.16542065941E+03  0.90085679341E+02 0.  0.
          5    1    3    3  502    0 -0.34856582586E+02  0.38760840614E+02 -0.30191767640E+01  0.52426992504E+02  0.47000000000E+01 0.  1.
         -5    1    3    3    0  502  0.68379738240E+02 -0.23204805528E+02  0.41834250292E+02  0.83584963354E+02  0.47000000000E+01 0.  1.
        -11    1    4    4    0    0 -0.16876017243E+02  0.43618248906E+01 -0.95064677095E+01  0.19854430303E+02  0.00000000000E+00 0.  1.
         11    1    4    4    0    0 -0.16647138411E+02 -0.19917859977E+02  0.14323295254E+03  0.14556622911E+03  0.00000000000E+00 0. -1.
<mgrwt>
<rscale>  0 0.12118696E+03</rscale>
<asrwt>0</asrwt>
<pdfrwt beam="1">  1        2 0.36459551E-01 0.13035583E+03</pdfrwt>
<pdfrwt beam="2">  1       -2 0.99146968E-02 0.13035583E+03</pdfrwt>
<totfact> 0.89747433E+03</totfact>
</mgrwt>
</event>
<event>
 8    1  0.1020295E-005  0.2118366E+03  0.7546771E-02  0.1143872E+00
         -3   -1    0    0    0  501 -0.00000000000E+00  0.00000000000E+00  0.69855890105E+03  0.69855890105E+03  0.00000000000E+00 0.  1.
          3   -1    0    0  501    0  0.00000000000E+00 -0.00000000000E+00 -0.68445526939E+02  0.68445526939E+02  0.00000000000E+00 0. -1.
         23    2    1    2    0    0 -0.13502797562E+03  0.10496603716E+03  0.47095524508E+03  0.51640447049E+03  0.12499724443E+03 0.  0.
         23    2    1    2    0    0  0.13502797562E+03 -0.10496603716E+03  0.15915812903E+03  0.25059995750E+03  0.90656524885E+02 0.  0.
          5    1    3    3  502    0 -0.35442807740E+02  0.88636051389E+02  0.13373372160E+03  0.16437560805E+03  0.47000000000E+01 0.  1.
         -5    1    3    3    0  502 -0.99585167882E+02  0.16329985775E+02  0.33722152348E+03  0.35202886244E+03  0.47000000000E+01 0.  1.
        -11    1    4    4    0    0  0.13608376079E+03 -0.90800764892E+02  0.10449293367E+03  0.19411940151E+03  0.00000000000E+00 0. -1.
         11    1    4    4    0    0 -0.10557851714E+01 -0.14165272272E+02  0.54665195362E+02  0.56480555989E+02  0.00000000000E+00 0.  1.
<mgrwt>
<rscale>  0 0.20711415E+03</rscale>
<asrwt>0</asrwt>
<pdfrwt beam="2">  1        3 0.10530082E-01 0.21183657E+03</pdfrwt>
<pdfrwt beam="1">  1       -3 0.10747060E+00 0.21183657E+03</pdfrwt>
<totfact> 0.12730923E+02</totfact>
</mgrwt>
</event>
<event>
 8    1  0.1020295E-005  0.1309863E+03  0.7546771E-02  0.1249477E+00
          1   -1    0    0  501    0  0.00000000000E+00  0.00000000000E+00  0.22095089658E+03  0.22095089658E+03  0.00000000000E+00 0. -1.
         -1   -1    0    0    0  501 -0.00000000000E+00 -0.00000000000E+00 -0.51661921673E+02  0.51661921673E+02  0.00000000000E+00 0.  1.
         23    2    1    2    0    0 -0.32545658090E+02 -0.21820634097E+02  0.88402999421E+02  0.15802687086E+03  0.12498816614E+03 0.  0.
         23    2    1    2    0    0  0.32545658090E+02  0.21820634097E+02  0.80885975485E+02  0.11458594739E+03  0.71077692537E+02 0.  0.
          5    1    3    3  502    0  0.38318177263E+02 -0.41955407254E+02  0.34746219298E+02  0.66767721709E+02  0.47000000000E+01 0.  1.
         -5    1    3    3    0  502 -0.70863835353E+02  0.20134773157E+02  0.53656780123E+02  0.91259149153E+02  0.47000000000E+01 0.  1.
        -11    1    4    4    0    0 -0.18110038520E+02  0.55539065762E+01  0.14750732747E+01  0.18999874069E+02  0.00000000000E+00 0.  1.
         11    1    4    4    0    0  0.50655696610E+02  0.16266727521E+02  0.79410902210E+02  0.95586073322E+02  0.00000000000E+00 0. -1.
<mgrwt>
<rscale>  0 0.11621403E+03</rscale>
<asrwt>0</asrwt>
<pdfrwt beam="1">  1        1 0.33992445E-01 0.13098626E+03</pdfrwt>
<pdfrwt beam="2">  1       -1 0.79479881E-02 0.13098626E+03</pdfrwt>
<totfact> 0.10556802E+04</totfact>
</mgrwt>
</event>
<event>
 8    1  0.1020295E-005  0.1419133E+03  0.7546771E-02  0.1221377E+00
          2   -1    0    0  501    0  0.00000000000E+00  0.00000000000E+00  0.30434549980E+02  0.30434549980E+02  0.00000000000E+00 0. -1.
         -2   -1    0    0    0  501 -0.00000000000E+00 -0.00000000000E+00 -0.58871718020E+03  0.58871718020E+03  0.00000000000E+00 0.  1.
         23    2    1    2    0    0  0.37194337041E+02  0.55970387814E+02 -0.39995148464E+03  0.42438257113E+03  0.12499309419E+03 0.  0.
         23    2    1    2    0    0 -0.37194337041E+02 -0.55970387814E+02 -0.15833114558E+03  0.19476915905E+03  0.91379268085E+02 0.  0.
          5    1    3    3  502    0 -0.19557100485E+02  0.22118689170E+01 -0.28246054140E+03  0.28318442752E+03  0.47000000000E+01 0.  1.
         -5    1    3    3    0  502  0.56751437526E+02  0.53758518897E+02 -0.11749094325E+03  0.14119814362E+03  0.47000000000E+01 0.  1.
        -11    1    4    4    0    0 -0.95596070157E+01 -0.42805141271E+02 -0.15819069838E+03  0.16415834812E+03  0.00000000000E+00 0.  1.
         11    1    4    4    0    0 -0.27634730025E+02 -0.13165246543E+02 -0.14044720339E+00  0.30610810926E+02  0.00000000000E+00 0. -1.
<mgrwt>
<rscale>  0 0.13418342E+03</rscale>
<asrwt>0</asrwt>
<pdfrwt beam="1">  1        2 0.46822392E-02 0.14191327E+03</pdfrwt>
<pdfrwt beam="2">  1       -2 0.90571860E-01 0.14191327E+03</pdfrwt>
<totfact> 0.17842070E+03</totfact>
</mgrwt>
</event>
<event>
 8    1  0.1020295E-005  0.1538200E+03  0.7546771E-02  0.1203384E+00
         -1   -1    0    0    0  501 -0.00000000000E+00  0.00000000000E+00  0.50544776711E+02  0.50544776711E+02  0.00000000000E+00 0.  1.
          1   -1    0    0  501    0  0.00000000000E+00 -0.00000000000E+00 -0.40359347146E+03  0.40359347146E+03  0.00000000000E+00 0. -1.
         23    2    1    2    0    0 -0.16020633533E+02 -0.88192573866E+02 -0.21178154118E+03  0.26174799790E+03  0.12500400968E+03 0.  0.
         23    2    1    2    0    0  0.16020633533E+02  0.88192573866E+02 -0.14126715356E+03  0.19239025026E+03  0.94989520145E+02 0.  0.
          5    1    3    3  502    0 -0.15829872468E+02 -0.11897075354E+03 -0.14667220316E+03  0.18957702983E+03  0.47000000000E+01 0.  1.
         -5    1    3    3    0  502 -0.19076106496E+00  0.30778179678E+02 -0.65109338023E+02  0.72170968068E+02  0.47000000000E+01 0.  1.
        -11    1    4    4    0    0 -0.78756352716E+01  0.37711165121E+02 -0.12976981426E+03  0.13536750829E+03  0.00000000000E+00 0. -1.
         11    1    4    4    0    0  0.23896268804E+02  0.50481408745E+02 -0.11497339297E+02  0.57022741977E+02  0.00000000000E+00 0.  1.
<mgrwt>
<rscale>  0 0.14765541E+03</rscale>
<asrwt>0</asrwt>
<pdfrwt beam="2">  1        1 0.62091303E-01 0.15382000E+03</pdfrwt>
<pdfrwt beam="1">  1       -1 0.77761195E-02 0.15382000E+03</pdfrwt>
<totfact> 0.52118365E+03</totfact>
</mgrwt>
</event>
<event>
 8    1  0.1020295E-005  0.1457995E+03  0.7546771E-02  0.1215369E+00
         -3   -1    0    0    0  501 -0.00000000000E+00  0.00000000000E+00  0.13002867705E+04  0.13002867705E+04  0.00000000000E+00 0.  1.
          3   -1    0    0  501    0  0.00000000000E+00 -0.00000000000E+00 -0.14749387014E+02  0.14749387014E+02  0.00000000000E+00 0. -1.
         23    2    1    2    0    0  0.73326684302E+02  0.15959059766E+02  0.89694697513E+03  0.90871963917E+03  0.12500404874E+03 0.  0.
         23    2    1    2    0    0 -0.73326684302E+02 -0.15959059766E+02  0.38859040837E+03  0.40631651836E+03  0.91973438521E+02 0.  0.
          5    1    3    3  502    0 -0.29746946180E+02 -0.16505084903E+02  0.14375074883E+03  0.14779602979E+03  0.47000000000E+01 0.  1.
         -5    1    3    3    0  502  0.10307363048E+03  0.32464144669E+02  0.75319622630E+03  0.76092360937E+03  0.47000000000E+01 0.  1.
        -11    1    4    4    0    0 -0.87249577201E+02 -0.35869255034E+02  0.30309271702E+03  0.31743391011E+03  0.00000000000E+00 0.  1.
         11    1    4    4    0    0  0.13922892899E+02  0.19910195268E+02  0.85497691352E+02  0.88882608247E+02  0.00000000000E+00 0. -1.
<mgrwt>
<rscale>  0 0.13849476E+03</rscale>
<asrwt>0</asrwt>
<pdfrwt beam="2">  1        3 0.22691375E-02 0.14579954E+03</pdfrwt>
<pdfrwt beam="1">  1       -3 0.20004403E+00 0.14579954E+03</pdfrwt>
<totfact> 0.29678548E+02</totfact>
</mgrwt>
</event>
<event>
 8    1  0.1020295E-005  0.1294257E+03  0.7546771E-02  0.1241382E+00
          2   -1    0    0  501    0  0.00000000000E+00  0.00000000000E+00  0.21994733104E+03  0.21994733104E+03  0.00000000000E+00 0. -1.
         -2   -1    0    0    0  501 -0.00000000000E+00 -0.00000000000E+00 -0.65360285920E+02  0.65360285920E+02  0.00000000000E+00 0.  1.
         23    2    1    2    0    0  0.81970583420E+01 -0.32526882180E+02  0.43612230670E+02  0.13657611784E+03  0.12500327784E+03 0.  0.
         23    2    1    2    0    0 -0.81970583420E+01  0.32526882180E+02  0.11097481445E+03  0.14873149912E+03  0.93168983888E+02 0.  0.
          5    1    3    3  502    0  0.16534582659E+02 -0.61205010221E+02 -0.19583343623E+02  0.66520997041E+02  0.47000000000E+01 0. -1.
         -5    1    3    3    0  502 -0.83375243174E+01  0.28678128041E+02  0.63195574293E+02  0.70055120797E+02  0.47000000000E+01 0. -1.
        -11    1    4    4    0    0  0.64250285427E+01  0.44193152966E+02  0.11994306982E+03  0.12798693589E+03  0.00000000000E+00 0. -1.
         11    1    4    4    0    0 -0.14622086885E+02 -0.11666270786E+02 -0.89682553755E+01  0.20744563225E+02  0.00000000000E+00 0.  1.
<mgrwt>
<rscale>  0 0.12104585E+03</rscale>
<asrwt>0</asrwt>
<pdfrwt beam="1">  1        2 0.33838051E-01 0.12942569E+03</pdfrwt>
<pdfrwt beam="2">  1       -2 0.10055429E-01 0.12942569E+03</pdfrwt>
<totfact> 0.95023597E+03</totfact>
</mgrwt>
</event>
<event>
 8    1  0.1020295E-005  0.1349043E+03  0.7546771E-02  0.1222327E+00
         -1   -1    0    0    0  501 -0.00000000000E+00  0.00000000000E+00  0.12770767435E+03  0.12770767435E+03  0.00000000000E+00 0.  1.
          1   -1    0    0  501    0  0.00000000000E+00 -0.00000000000E+00 -0.50707674373E+03  0.50707674373E+03  0.00000000000E+00 0. -1.
         23    2    1    2    0    0  0.50715551441E+02  0.47948252962E+00  0.80464658613E+02  0.15707872795E+03  0.12500747348E+03 0.  0.
         23    2    1    2    0    0 -0.50715551441E+02 -0.47948252962E+00 -0.45983372800E+03  0.47770569013E+03  0.11909396256E+03 0.  0.
          5    1    3    3  502    0 -0.33104976181E+02  0.21073457976E+02  0.53526622970E+02  0.66537353762E+02  0.47000000000E+01 0. -1.
         -5    1    3    3    0  502  0.83820527622E+02 -0.20593975446E+02  0.26938035643E+02  0.90541374187E+02  0.47000000000E+01 0. -1.
        -11    1    4    4    0    0 -0.53052624979E+02 -0.49450201794E+02 -0.18834964887E+03  0.20183035873E+03  0.00000000000E+00 0.  1.
         11    1    4    4    0    0  0.23370735385E+01  0.48970719264E+02 -0.27148407913E+03  0.27587533140E+03  0.00000000000E+00 0. -1.
<mgrwt>
<rscale>  0 0.13351791E+03</rscale>
<asrwt>0</asrwt>
<pdfrwt beam="2">  1        1 0.78011805E-01 0.13490428E+03</pdfrwt>
<pdfrwt beam="1">  1       -1 0.19647335E-01 0.13490428E+03</pdfrwt>
<totfact> 0.91930074E+02</totfact>
</mgrwt>
</event>
<event>
 8    1  0.1020295E-005  0.1324805E+03  0.7546771E-02  0.1238308E+00
         -3   -1    0    0    0  501 -0.00000000000E+00  0.00000000000E+00  0.31526022131E+03  0.31526022131E+03  0.00000000000E+00 0.  1.
          3   -1    0    0  501    0  0.00000000000E+00 -0.00000000000E+00 -0.45336215104E+02  0.45336215104E+02  0.00000000000E+00 0. -1.
         23    2    1    2    0    0  0.43808059442E+02  0.27354481095E+01  0.20032102595E+03  0.24016575831E+03  0.12499779710E+03 0.  0.
         23    2    1    2    0    0 -0.43808059442E+02 -0.27354481095E+01  0.69602980256E+02  0.12043067810E+03  0.87933751306E+02 0.  0.
          5    1    3    3  502    0 -0.37631443277E+01 -0.30373310678E+02 -0.62986704563E+00  0.30970727942E+02  0.47000000000E+01 0.  1.
         -5    1    3    3    0  502  0.47571203769E+02  0.33108758787E+02  0.20095089299E+03  0.20919503037E+03  0.47000000000E+01 0.  1.
        -11    1    4    4    0    0 -0.22786340819E+01  0.28276811022E+02  0.61820429491E+02  0.68018642425E+02  0.00000000000E+00 0.  1.
         11    1    4    4    0    0 -0.41529425360E+02 -0.31012259132E+02  0.77825507651E+01  0.52412035675E+02  0.00000000000E+00 0. -1.
<mgrwt>
<rscale>  0 0.12295050E+03</rscale>
<asrwt>0</asrwt>
<pdfrwt beam="2">  1        3 0.69748025E-02 0.13248048E+03</pdfrwt>
<pdfrwt beam="1">  1       -3 0.48501571E-01 0.13248048E+03</pdfrwt>
<totfact> 0.12991139E+03</totfact>
</mgrwt>
</event>
<event>
 8    1  0.1020295E-005  0.1346680E+03  0.7546771E-02  0.1234008E+00
          3   -1    0    0  501    0  0.00000000000E+00  0.00000000000E+00  0.16795523233E+03  0.16795523233E+03  0.00000000000E+00 0. -1.
         -3   -1    0    0    0  501 -0.00000000000E+00 -0.00000000000E+00 -0.90061393402E+02  0.90061393402E+02  0.00000000000E+00 0.  1.
         23    2    1    2    0    0  0.36385661735E+02 -0.34414054524E+02  0.93555780637E+01  0.13499259438E+03  0.12500892035E+03 0.  0.
         23    2    1    2    0    0 -0.36385661735E+02  0.34414054524E+02  0.68538260864E+02  0.12302403135E+03  0.89045918265E+02 0.  0.
          5    1    3    3  502    0  0.24513209945E+02 -0.38149081810E+02  0.64097962649E+02  0.78656777969E+02  0.47000000000E+01 0.  1.
         -5    1    3    3    0  502  0.11872451790E+02  0.37350272859E+01 -0.54742384585E+02  0.56335816409E+02  0.47000000000E+01 0.  1.
        -11    1    4    4    0    0  0.17466428135E+02 -0.19324620291E+02  0.16047806853E+02  0.30594920591E+02  0.00000000000E+00 0.  1.
         11    1    4    4    0    0 -0.53852089870E+02  0.53738674814E+02  0.52490454011E+02  0.92429110763E+02  0.00000000000E+00 0. -1.
<mgrwt>
<rscale>  0 0.12568183E+03</rscale>
<asrwt>0</asrwt>
<pdfrwt beam="1">  1        3 0.25839267E-01 0.13466801E+03</pdfrwt>
<pdfrwt beam="2">  1       -3 0.13855599E-01 0.13466801E+03</pdfrwt>
<totfact> 0.13821579E+03</totfact>
</mgrwt>
</event>
<event>
 8    1  0.1020295E-005  0.1531265E+03  0.7546771E-02  0.1205249E+00
         -2   -1    0    0    0  501 -0.00000000000E+00  0.00000000000E+00  0.85074789837E+02  0.85074789837E+02  0.00000000000E+00 0.  1.
          2   -1    0    0  501    0  0.00000000000E+00 -0.00000000000E+00 -0.29986905978E+03  0.29986905978E+03  0.00000000000E+00 0. -1.
         23    2    1    2    0    0 -0.24795317185E+02 -0.84898851346E+02 -0.23036325329E+02  0.15484956620E+03  0.12500037262E+03 0.  0.
         23    2    1    2    0    0  0.24795317185E+02  0.84898851346E+02 -0.19175794462E+03  0.23009428342E+03  0.91376404084E+02 0.  0.
          5    1    3    3  502    0 -0.34712011097E+02 -0.11395027319E+03 -0.30200963234E+02  0.12297876506E+03  0.47000000000E+01 0. -1.
         -5    1    3    3    0  502  0.99166939128E+01  0.29051421845E+02  0.71646379052E+01  0.31870801146E+02  0.47000000000E+01 0. -1.
        -11    1    4    4    0    0  0.11402271615E+02  0.29921017401E+02 -0.16394521295E+03  0.16704284460E+03  0.00000000000E+00 0. -1.
         11    1    4    4    0    0  0.13393045570E+02  0.54977833945E+02 -0.27812731665E+02  0.63051438822E+02  0.00000000000E+00 0.  1.
<mgrwt>
<rscale>  0 0.14617869E+03</rscale>
<asrwt>0</asrwt>
<pdfrwt beam="2">  1        2 0.46133701E-01 0.15312647E+03</pdfrwt>
<pdfrwt beam="1">  1       -2 0.13088429E-01 0.15312647E+03</pdfrwt>
<totfact> 0.45376831E+03</totfact>
</mgrwt>
</event>
<event>
 8    1  0.1020295E-005  0.1509235E+03  0.7546771E-02  0.1208573E+00
          1   -1    0    0  501    0  0.00000000000E+00  0.00000000000E+00  0.55734732413E+03  0.55734732413E+03  0.00000000000E+00 0. -1.
         -1   -1    0    0    0  501 -0.00000000000E+00 -0.00000000000E+00 -0.34017805239E+02  0.34017805239E+02  0.00000000000E+00 0.  1.
         23    2    1    2    0    0  0.75009398386E+02  0.39064121292E+02  0.26518658663E+03  0.30512591102E+03  0.12500192171E+03 0.  0.
         23    2    1    2    0    0 -0.75009398386E+02 -0.39064121292E+02  0.25814293226E+03  0.28623921834E+03  0.90236917194E+02 0.  0.
          5    1    3    3  502    0  0.49212295546E+02  0.70457958162E+02  0.24466377139E+03  0.25936195737E+03  0.47000000000E+01 0.  1.
         -5    1    3    3    0  502  0.25797102840E+02 -0.31393836871E+02  0.20522815242E+02  0.45763953652E+02  0.47000000000E+01 0.  1.
        -11    1    4    4    0    0 -0.40513296125E+02  0.12944896793E+02  0.36721017817E+02  0.56190129608E+02  0.00000000000E+00 0.  1.
         11    1    4    4    0    0 -0.34496102261E+02 -0.52009018084E+02  0.22142191444E+03  0.23004908874E+03  0.00000000000E+00 0. -1.
<mgrwt>
<rscale>  0 0.14359413E+03</rscale>
<asrwt>0</asrwt>
<pdfrwt beam="1">  1        1 0.85745735E-01 0.15092348E+03</pdfrwt>
<pdfrwt beam="2">  1       -1 0.52335089E-02 0.15092348E+03</pdfrwt>
<totfact> 0.61950597E+03</totfact>
</mgrwt>
</event>
<event>
 7    1  0.1020295E-005  0.2551005E+03  0.7546771E-02  0.1112990E+00
         -2   -1    0    0    0  501 -0.00000000000E+00  0.00000000000E+00  0.73638744944E+03  0.73638744944E+03  0.00000000000E+00 0.  1.
          2   -1    0    0  501    0  0.00000000000E+00 -0.00000000000E+00 -0.88481458117E+02  0.88481458117E+02  0.00000000000E+00 0. -1.
         23    2    1    2    0    0 -0.11676587553E+03 -0.18567808804E+03  0.20382554181E+03  0.31273249748E+03  0.90255977183E+02 0.  0.
          5    1    1    2  502    0  0.11200708370E+03  0.57955300514E+02  0.19788991977E+03  0.23470601612E+03  0.47000000000E+01 0. -1.
         -5    1    1    2    0  502  0.47587918332E+01  0.12772278753E+03  0.24619052975E+03  0.27743039396E+03  0.47000000000E+01 0.  1.
        -11    1    3    3    0    0 -0.50453730995E+02 -0.15101881365E+03  0.11400750185E+03  0.19583148758E+03  0.00000000000E+00 0. -1.
         11    1    3    3    0    0 -0.66312144539E+02 -0.34659274394E+02  0.89818039954E+02  0.11690100990E+03  0.00000000000E+00 0.  1.
<mgrwt>
<rscale>  0 0.25049860E+03</rscale>
<asrwt>0</asrwt>
<pdfrwt beam="2">  1        2 0.13612533E-01 0.25510048E+03</pdfrwt>
<pdfrwt beam="1">  1       -2 0.11329037E+00 0.25510048E+03</pdfrwt>
<totfact> 0.28001467E+02</totfact>
</mgrwt>
</event>
<event>
 8    1  0.1020295E-005  0.1416099E+03  0.7546771E-02  0.1226516E+00
          1   -1    0    0  501    0  0.00000000000E+00  0.00000000000E+00  0.21392179049E+03  0.21392179049E+03  0.00000000000E+00 0. -1.
         -1   -1    0    0    0  501 -0.00000000000E+00 -0.00000000000E+00 -0.69674340094E+02  0.69674340094E+02  0.00000000000E+00 0.  1.
         23    2    1    2    0    0 -0.49235081080E+02  0.44776172259E+02  0.82788911394E+02  0.16403461389E+03  0.12499740755E+03 0.  0.
         23    2    1    2    0    0  0.49235081080E+02 -0.44776172259E+02  0.61458539002E+02  0.11956151669E+03  0.78030798063E+02 0.  0.
          5    1    3    3  502    0 -0.78040488453E+02  0.66715310729E+02  0.47383157564E+02  0.11317466211E+03  0.47000000000E+01 0. -1.
         -5    1    3    3    0  502  0.28805407373E+02 -0.21939138470E+02  0.35405753830E+02  0.50859951780E+02  0.47000000000E+01 0. -1.
        -11    1    4    4    0    0  0.21885227062E+02 -0.17696696991E+01  0.64866006634E+02  0.68481338415E+02  0.00000000000E+00 0. -1.
         11    1    4    4    0    0  0.27349854017E+02 -0.43006502560E+02 -0.34074676322E+01  0.51080178277E+02  0.00000000000E+00 0.  1.
<mgrwt>
<rscale>  0 0.13063536E+03</rscale>
<asrwt>0</asrwt>
<pdfrwt beam="1">  1        1 0.32911045E-01 0.14160985E+03</pdfrwt>
<pdfrwt beam="2">  1       -1 0.10719129E-01 0.14160985E+03</pdfrwt>
<totfact> 0.70141125E+03</totfact>
</mgrwt>
</event>
<event>
 8    1  0.1020295E-005  0.1666285E+03  0.7546771E-02  0.1187950E+00
         -1   -1    0    0    0  501 -0.00000000000E+00  0.00000000000E+00  0.42250243958E+02  0.42250243958E+02  0.00000000000E+00 0.  1.
          1   -1    0    0  501    0  0.00000000000E+00 -0.00000000000E+00 -0.62390729421E+03  0.62390729421E+03  0.00000000000E+00 0. -1.
         23    2    1    2    0    0 -0.26646757119E+02  0.10690235522E+03 -0.21345177298E+03  0.27078907358E+03  0.12500759883E+03 0.  0.
         23    2    1    2    0    0  0.26646757119E+02 -0.10690235522E+03 -0.36820527727E+03  0.39536846458E+03  0.92751999245E+02 0.  0.
          5    1    3    3  502    0  0.49548607809E+02  0.55558693637E+02 -0.92747146716E+02  0.11902082254E+03  0.47000000000E+01 0. -1.
         -5    1    3    3    0  502 -0.76195364928E+02  0.51343661584E+02 -0.12070462627E+03  0.15176825104E+03  0.47000000000E+01 0. -1.
        -11    1    4    4    0    0  0.10554415316E+02  0.16106806233E+02 -0.37400721459E+02  0.42067075669E+02  0.00000000000E+00 0.  1.
         11    1    4    4    0    0  0.16092341802E+02 -0.12300916145E+03 -0.33080455581E+03  0.35330138891E+03  0.00000000000E+00 0. -1.
<mgrwt>
<rscale>  0 0.16066303E+03</rscale>
<asrwt>0</asrwt>
<pdfrwt beam="2">  1        1 0.95985736E-01 0.16662852E+03</pdfrwt>
<pdfrwt beam="1">  1       -1 0.65000376E-02 0.16662852E+03</pdfrwt>
<totfact> 0.38604355E+03</totfact>
</mgrwt>
</event>
<event>
 8    1  0.1020295E-005  0.1355198E+03  0.7546771E-02  0.1231345E+00
         -2   -1    0    0    0  501 -0.00000000000E+00  0.00000000000E+00  0.49700484630E+02  0.49700484630E+02  0.00000000000E+00 0.  1.
          2   -1    0    0  501    0  0.00000000000E+00 -0.00000000000E+00 -0.29316837692E+03  0.29316837692E+03  0.00000000000E+00 0. -1.
         23    2    1    2    0    0 -0.46016875316E+02 -0.24943308214E+02 -0.13530351455E+03  0.19150102814E+03  0.12500352511E+03 0.  0.
         23    2    1    2    0    0  0.46016875316E+02  0.24943308214E+02 -0.10816437774E+03  0.15136783341E+03  0.92048720475E+02 0.  0.
          5    1    3    3  502    0 -0.74196094104E+02  0.21537390163E+02 -0.10024564581E+03  0.12664990746E+03  0.47000000000E+01 0.  1.
         -5    1    3    3    0  502  0.28179218788E+02 -0.46480698377E+02 -0.35057868742E+02  0.64851120683E+02  0.47000000000E+01 0.  1.
        -11    1    4    4    0    0 -0.81726597816E+01 -0.27557247514E+02 -0.42715815097E+02  0.51486261448E+02  0.00000000000E+00 0. -1.
         11    1    4    4    0    0  0.54189535098E+02  0.52500555728E+02 -0.65448562641E+02  0.99881571962E+02  0.00000000000E+00 0.  1.
<mgrwt>
<rscale>  0 0.12741356E+03</rscale>
<asrwt>0</asrwt>
<pdfrwt beam="2">  1        2 0.45102826E-01 0.13551975E+03</pdfrwt>
<pdfrwt beam="1">  1       -2 0.76462286E-02 0.13551975E+03</pdfrwt>
<totfact> 0.10750637E+04</totfact>
</mgrwt>
</event>
<event>
 8    1  0.1020295E-005  0.1426139E+03  0.7546771E-02  0.1220697E+00
         -1   -1    0    0    0  501 -0.00000000000E+00  0.00000000000E+00  0.28516246700E+03  0.28516246700E+03  0.00000000000E+00 0.  1.
          1   -1    0    0  501    0  0.00000000000E+00 -0.00000000000E+00 -0.70644996398E+02  0.70644996398E+02  0.00000000000E+00 0. -1.
         23    2    1    2    0    0  0.55287252648E+02  0.40696627566E+02  0.19370600860E+03  0.24054257336E+03  0.12500326408E+03 0.  0.
         23    2    1    2    0    0 -0.55287252648E+02 -0.40696627566E+02  0.20811462008E+02  0.11526489004E+03  0.90221849490E+02 0.  0.
          5    1    3    3  502    0 -0.29461940470E+02  0.48450543701E+02  0.87354153424E+02  0.10425113545E+03  0.47000000000E+01 0.  1.
         -5    1    3    3    0  502  0.84749193118E+02 -0.77539161349E+01  0.10635185517E+03  0.13629143791E+03  0.47000000000E+01 0.  1.
        -11    1    4    4    0    0  0.10844571143E+02 -0.15726077404E+02  0.37986479616E+02  0.42519252903E+02  0.00000000000E+00 0.  1.
         11    1    4    4    0    0 -0.66131823790E+02 -0.24970550162E+02 -0.17175017608E+02  0.72745637141E+02  0.00000000000E+00 0. -1.
<mgrwt>
<rscale>  0 0.13466240E+03</rscale>
<asrwt>0</asrwt>
<pdfrwt beam="2">  1        1 0.10868461E-01 0.14261386E+03</pdfrwt>
<pdfrwt beam="1">  1       -1 0.43871148E-01 0.14261386E+03</pdfrwt>
<totfact> 0.28987650E+03</totfact>
</mgrwt>
</event>
<event>
 7    1  0.1020295E-005  0.1468798E+03  0.7546771E-02  0.1222671E+00
         -2   -1    0    0    0  501 -0.00000000000E+00  0.00000000000E+00  0.39345112111E+02  0.39345112111E+02  0.00000000000E+00 0. -1.
          2   -1    0    0  501    0  0.00000000000E+00 -0.00000000000E+00 -0.60828760801E+03  0.60828760801E+03  0.00000000000E+00 0.  1.
         23    2    1    2    0    0  0.35765340370E+01  0.97132780789E+02 -0.12564090602E+03  0.19328556498E+03  0.11011858908E+03 0.  0.
          5    1    3    3  502    0 -0.28606791164E+02  0.69566768923E+02 -0.17966624549E+02  0.77477567313E+02  0.47000000000E+01 0. -1.
         -5    1    3    3    0  502  0.32183325201E+02  0.27566011866E+02 -0.10767428148E+03  0.11580799766E+03  0.47000000000E+01 0.  1.
        -11    1    1    2    0    0  0.77735047013E+01 -0.61938694811E+02 -0.26534091070E+03  0.27258508430E+03  0.00000000000E+00 0. -1.
         11    1    1    2    0    0 -0.11350038738E+02 -0.35194085979E+02 -0.17796067917E+03  0.18176207085E+03  0.00000000000E+00 0.  1.
<mgrwt>
<rscale>  0 0.13327796E+03</rscale>
<asrwt>0</asrwt>
<pdfrwt beam="2">  1        2 0.93582707E-01 0.14687979E+03</pdfrwt>
<pdfrwt beam="1">  1       -2 0.60530943E-02 0.14687979E+03</pdfrwt>
<totfact> 0.69992811E+03</totfact>
</mgrwt>
</event>
<event>
 8    1  0.1020295E-005  0.1340753E+03  0.7546771E-02  0.1233296E+00
          1   -1    0    0  501    0  0.00000000000E+00  0.00000000000E+00  0.22783574861E+02  0.22783574861E+02  0.00000000000E+00 0. -1.
         -1   -1    0    0    0  501 -0.00000000000E+00 -0.00000000000E+00 -0.93769686147E+03  0.93769686147E+03  0.00000000000E+00 0.  1.
         23    2    1    2    0    0  0.35326291958E+02 -0.33226957892E+02 -0.76950021375E+03  0.78109330558E+03  0.12499678163E+03 0.  0.
         23    2    1    2    0    0 -0.35326291958E+02  0.33226957892E+02 -0.14541307285E+03  0.17938713075E+03  0.93181560881E+02 0.  0.
          5    1    3    3  502    0 -0.41334108928E+02  0.80861552837E+01 -0.35481287761E+03  0.35733480461E+03  0.47000000000E+01 0.  1.
         -5    1    3    3    0  502  0.76660400886E+02 -0.41313113176E+02 -0.41468733614E+03  0.42375850097E+03  0.47000000000E+01 0.  1.
        -11    1    4    4    0    0 -0.21474739476E+01  0.41963456627E+02 -0.15125703721E+02  0.44657924823E+02  0.00000000000E+00 0. -1.
         11    1    4    4    0    0 -0.33178818011E+02 -0.87364987349E+01 -0.13028736913E+03  0.13472920593E+03  0.00000000000E+00 0.  1.
<mgrwt>
<rscale>  0 0.12614119E+03</rscale>
<asrwt>0</asrwt>
<pdfrwt beam="1">  1        1 0.35051652E-02 0.13407525E+03</pdfrwt>
<pdfrwt beam="2">  1       -1 0.14426106E+00 0.13407525E+03</pdfrwt>
<totfact> 0.11223265E+03</totfact>
</mgrwt>
</event>
<event>
 8    1  0.1020295E-005  0.2705680E+03  0.7546771E-02  0.1103474E+00
         -1   -1    0    0    0  501 -0.00000000000E+00  0.00000000000E+00  0.76309216441E+03  0.76309216441E+03  0.00000000000E+00 0.  1.
          1   -1    0    0  501    0  0.00000000000E+00 -0.00000000000E+00 -0.90491098041E+02  0.90491098041E+02  0.00000000000E+00 0. -1.
         23    2    1    2    0    0 -0.22855952926E+03  0.73092464773E+02  0.31528674528E+03  0.41546693365E+03  0.12500029753E+03 0.  0.
         23    2    1    2    0    0  0.22855952926E+03 -0.73092464773E+02  0.35731432109E+03  0.43811632881E+03  0.81795028522E+02 0.  0.
          5    1    3    3  502    0 -0.20979192055E+03  0.41936882317E+02  0.31241935419E+03  0.37868099358E+03  0.47000000000E+01 0.  1.
         -5    1    3    3    0  502 -0.18767608701E+02  0.31155582456E+02  0.28673910896E+01  0.36785940061E+02  0.47000000000E+01 0.  1.
        -11    1    4    4    0    0  0.10073546113E+03  0.51637386585E+01  0.17621467656E+03  0.20304164490E+03  0.00000000000E+00 0.  1.
         11    1    4    4    0    0  0.12782406813E+03 -0.78256203432E+02  0.18109964453E+03  0.23507468391E+03  0.00000000000E+00 0. -1.
<mgrwt>
<rscale>  0 0.26620143E+03</rscale>
<asrwt>0</asrwt>
<pdfrwt beam="2">  1        1 0.13921708E-01 0.27056800E+03</pdfrwt>
<pdfrwt beam="1">  1       -1 0.11739879E+00 0.27056800E+03</pdfrwt>
<totfact> 0.28738667E+02</totfact>
</mgrwt>
</event>
<event>
 8    1  0.1020295E-005  0.1583284E+03  0.7546771E-02  0.1198059E+00
         -3   -1    0    0    0  501 -0.00000000000E+00  0.00000000000E+00  0.15420480886E+04  0.15420480886E+04  0.00000000000E+00 0.  1.
          3   -1    0    0  501    0  0.00000000000E+00 -0.00000000000E+00 -0.15922081195E+02  0.15922081195E+02  0.00000000000E+00 0. -1.
         23    2    1    2    0    0 -0.93907206410E+02  0.25010617220E+02  0.10945689221E+04  0.11059606674E+04  0.12499511312E+03 0.  0.
         23    2    1    2    0    0  0.93907206410E+02 -0.25010617220E+02  0.43155708536E+03  0.45200950241E+03  0.92881526456E+02 0.  0.
          5    1    3    3  502    0 -0.65715899018E+02  0.75182343839E+02  0.64547228122E+03  0.65316729866E+03  0.47000000000E+01 0. -1.
         -5    1    3    3    0  502 -0.28191307392E+02 -0.50171726619E+02  0.44909664087E+03  0.45279336877E+03  0.47000000000E+01 0. -1.
        -11    1    4    4    0    0  0.18389473002E+02 -0.17942236658E+02  0.17555599319E+02  0.31117449140E+02  0.00000000000E+00 0. -1.
         11    1    4    4    0    0  0.75517733408E+02 -0.70683805627E+01  0.41400148604E+03  0.42089205327E+03  0.00000000000E+00 0.  1.
<mgrwt>
<rscale>  0 0.15198196E+03</rscale>
<asrwt>0</asrwt>
<pdfrwt beam="2">  1        3 0.24495522E-02 0.15832837E+03</pdfrwt>
<pdfrwt beam="1">  1       -3 0.23723805E+00 0.15832837E+03</pdfrwt>
<totfact> 0.16262849E+02</totfact>
</mgrwt>
</event>
<event>
 8    1  0.1020295E-005  0.1333882E+03  0.7546771E-02  0.1229270E+00
         -1   -1    0    0    0  501 -0.00000000000E+00  0.00000000000E+00  0.20766256849E+03  0.20766256849E+03  0.00000000000E+00 0.  1.
          1   -1    0    0  501    0  0.00000000000E+00 -0.00000000000E+00 -0.84407705700E+02  0.84407705700E+02  0.00000000000E+00 0. -1.
         23    2    1    2    0    0  0.46345151636E+02 -0.43770249985E+01  0.11457150364E+03  0.17583814102E+03  0.12500156383E+03 0.  0.
         23    2    1    2    0    0 -0.46345151636E+02  0.43770249985E+01  0.86833591476E+01  0.11623213317E+03  0.10614837082E+03 0.  0.
          5    1    3    3  502    0  0.11896192630E+02 -0.41038291947E+02 -0.75806707873E+01  0.43648795798E+02  0.47000000000E+01 0.  1.
         -5    1    3    3    0  502  0.34448959006E+02  0.36661266949E+02  0.12215217443E+03  0.13218934522E+03  0.47000000000E+01 0.  1.
        -11    1    4    4    0    0 -0.17826726547E+02 -0.37637271664E+02  0.39029994795E+02  0.57076237537E+02  0.00000000000E+00 0.  1.
         11    1    4    4    0    0 -0.28518425089E+02  0.42014296662E+02 -0.30346635647E+02  0.59155895638E+02  0.00000000000E+00 0. -1.
<mgrwt>
<rscale>  0 0.12878518E+03</rscale>
<asrwt>0</asrwt>
<pdfrwt beam="2">  1        1 0.12985801E-01 0.13338824E+03</pdfrwt>
<pdfrwt beam="1">  1       -1 0.31948087E-01 0.13338824E+03</pdfrwt>
<totfact> 0.39645411E+03</totfact>
</mgrwt>
</event>
<event>
 8    1  0.1020295E-005  0.1573666E+03  0.7546771E-02  0.1196959E+00
          4   -1    0    0  501    0  0.00000000000E+00  0.00000000000E+00  0.24601171717E+03  0.24601171717E+03  0.00000000000E+00 0. -1.
         -4   -1    0    0    0  501 -0.00000000000E+00 -0.00000000000E+00 -0.13820351588E+03  0.13820351588E+03  0.00000000000E+00 0.  1.
         23    2    1    2    0    0 -0.73820317371E+02 -0.77152362686E+02 -0.57406655855E+02  0.16751051131E+03  0.11559550570E+03 0.  0.
         23    2    1    2    0    0  0.73820317371E+02  0.77152362686E+02  0.16521485714E+03  0.21670472175E+03  0.90901381084E+02 0.  0.
          5    1    3    3  502    0 -0.15423405315E+02 -0.67952385924E+02  0.17472759391E+02  0.71991634966E+02  0.47000000000E+01 0. -1.
         -5    1    3    3    0  502 -0.58396912055E+02 -0.91999767625E+01 -0.74879415246E+02  0.95518876342E+02  0.47000000000E+01 0.  1.
        -11    1    4    4    0    0  0.76128053650E+02  0.18863485436E+02  0.11785028961E+03  0.14156271542E+03  0.00000000000E+00 0. -1.
         11    1    4    4    0    0 -0.23077362792E+01  0.58288877250E+02  0.47364567528E+02  0.75142006328E+02  0.00000000000E+00 0.  1.
<mgrwt>
<rscale>  0 0.15289600E+03</rscale>
<asrwt>0</asrwt>
<pdfrwt beam="1">  1        4 0.37847956E-01 0.15736660E+03</pdfrwt>
<pdfrwt beam="2">  1       -4 0.21262079E-01 0.15736660E+03</pdfrwt>
<totfact> 0.23435135E+02</totfact>
</mgrwt>
</event>
<event>
 8    1  0.1020295E-005  0.1345525E+03  0.7546771E-02  0.1235561E+00
         -1   -1    0    0    0  501 -0.00000000000E+00  0.00000000000E+00  0.31808456288E+02  0.31808456288E+02  0.00000000000E+00 0.  1.
          1   -1    0    0  501    0  0.00000000000E+00 -0.00000000000E+00 -0.62074941441E+03  0.62074941441E+03  0.00000000000E+00 0. -1.
         23    2    1    2    0    0 -0.26413906668E+02 -0.42202295916E+02 -0.14560657492E+03  0.19825651733E+03  0.12500257500E+03 0.  0.
         23    2    1    2    0    0  0.26413906668E+02  0.42202295916E+02 -0.44333438320E+03  0.45430135336E+03  0.85823167602E+02 0.  0.
          5    1    3    3  502    0 -0.67775690888E+02  0.63422056168E+00 -0.10825131629E+03  0.12780604050E+03  0.47000000000E+01 0. -1.
         -5    1    3    3    0  502  0.41361784219E+02 -0.42836516477E+02 -0.37355258635E+02  0.70450476829E+02  0.47000000000E+01 0. -1.
        -11    1    4    4    0    0 -0.13629172897E+02  0.53271254282E+02 -0.30290513577E+03  0.30785565151E+03  0.00000000000E+00 0. -1.
         11    1    4    4    0    0  0.40043079566E+02 -0.11068958366E+02 -0.14042924742E+03  0.14644570186E+03  0.00000000000E+00 0.  1.
<mgrwt>
<rscale>  0 0.12468584E+03</rscale>
<asrwt>0</asrwt>
<pdfrwt beam="2">  1        1 0.95499915E-01 0.13455249E+03</pdfrwt>
<pdfrwt beam="1">  1       -1 0.48936084E-02 0.13455249E+03</pdfrwt>
<totfact> 0.58766678E+03</totfact>
</mgrwt>
</event>
<event>
 8    1  0.1020295E-005  0.1285565E+03  0.7546771E-02  0.1239448E+00
         -2   -1    0    0    0  501 -0.00000000000E+00  0.00000000000E+00  0.10780338956E+04  0.10780338956E+04  0.00000000000E+00 0.  1.
          2   -1    0    0  501    0  0.00000000000E+00 -0.00000000000E+00 -0.50263074010E+02  0.50263074010E+02  0.00000000000E+00 0. -1.
         23    2    1    2    0    0 -0.99795404669E+01  0.34950402452E+02  0.10142233029E+04  0.10223383404E+04  0.12331120094E+03 0.  0.
         23    2    1    2    0    0  0.99795404669E+01 -0.34950402452E+02  0.13547518691E+02  0.10595862920E+03  0.98603113434E+02 0.  0.
          5    1    3    3  502    0 -0.60139336926E+02 -0.98331744022E+01  0.47112339174E+03  0.47507133297E+03  0.47000000000E+01 0. -1.
         -5    1    3    3    0  502  0.50159796459E+02  0.44783576854E+02  0.54309991115E+03  0.54726700743E+03  0.47000000000E+01 0.  1.
        -11    1    4    4    0    0 -0.33694508102E+02  0.15866019385E+02  0.11283715199E+02  0.38914941552E+02  0.00000000000E+00 0.  1.
         11    1    4    4    0    0  0.43674048569E+02 -0.50816421837E+02  0.22638034929E+01  0.67043687644E+02  0.00000000000E+00 0. -1.
<mgrwt>
<rscale>  0 0.12223901E+03</rscale>
<asrwt>0</asrwt>
<pdfrwt beam="2">  1        2 0.77327814E-02 0.12855650E+03</pdfrwt>
<pdfrwt beam="1">  1       -2 0.16585135E+00 0.12855650E+03</pdfrwt>
<totfact> 0.21498509E+02</totfact>
</mgrwt>
</event>
<event>
 8    1  0.1020295E-005  0.1405190E+03  0.7546771E-02  0.1223683E+00
         -2   -1    0    0    0  501 -0.00000000000E+00  0.00000000000E+00  0.42310117888E+02  0.42310117888E+02  0.00000000000E+00 0.  1.
          2   -1    0    0  501    0  0.00000000000E+00 -0.00000000000E+00 -0.39237718858E+03  0.39237718858E+03  0.00000000000E+00 0. -1.
         23    2    1    2    0    0 -0.54199973377E+02 -0.34398814419E+02 -0.14870792946E+03  0.20459631375E+03  0.12499875107E+03 0.  0.
         23    2    1    2    0    0  0.54199973377E+02  0.34398814419E+02 -0.20135914123E+03  0.23009099272E+03  0.90969476336E+02 0.  0.
          5    1    3    3  502    0 -0.23595929975E+02 -0.54087308750E+02 -0.15629300709E+03  0.16712809143E+03  0.47000000000E+01 0. -1.
         -5    1    3    3    0  502 -0.30604043402E+02  0.19688494331E+02  0.75850776274E+01  0.37468222325E+02  0.47000000000E+01 0. -1.
        -11    1    4    4    0    0  0.76471283395E+02  0.42617770549E+02 -0.16129649801E+03  0.18352300080E+03  0.00000000000E+00 0.  1.
         11    1    4    4    0    0 -0.22271310018E+02 -0.82189561297E+01 -0.40062643216E+02  0.46567991917E+02  0.00000000000E+00 0. -1.
<mgrwt>
<rscale>  0 0.13257547E+03</rscale>
<asrwt>0</asrwt>
<pdfrwt beam="2">  1        2 0.60365719E-01 0.14051905E+03</pdfrwt>
<pdfrwt beam="1">  1       -2 0.65092492E-02 0.14051905E+03</pdfrwt>
<totfact> 0.10120368E+04</totfact>
</mgrwt>
</event>
<event>
 8    1  0.1020295E-005  0.1408573E+03  0.7546771E-02  0.1225905E+00
          3   -1    0    0  501    0  0.00000000000E+00  0.00000000000E+00  0.40859539102E+03  0.40859539102E+03  0.00000000000E+00 0. -1.
         -3   -1    0    0    0  501 -0.00000000000E+00 -0.00000000000E+00 -0.37423560659E+02  0.37423560659E+02  0.00000000000E+00 0.  1.
         23    2    1    2    0    0  0.63378773514E+02 -0.14075918224E+02  0.19301091235E+03  0.23894350439E+03  0.12500314236E+03 0.  0.
         23    2    1    2    0    0 -0.63378773514E+02  0.14075918224E+02  0.17816091801E+03  0.20707544728E+03  0.83210142151E+02 0.  0.
          5    1    3    3  502    0  0.50843277930E+02 -0.77494837600E+01  0.21008695373E+03  0.21634165465E+03  0.47000000000E+01 0. -1.
         -5    1    3    3    0  502  0.12535495583E+02 -0.63264344643E+01 -0.17076041379E+02  0.22601849742E+02  0.47000000000E+01 0. -1.
        -11    1    4    4    0    0  0.33996039373E+00 -0.28410138619E+02  0.57979124216E+02  0.64566480423E+02  0.00000000000E+00 0. -1.
         11    1    4    4    0    0 -0.63718733907E+02  0.42486056843E+02  0.12018179379E+03  0.14250896686E+03  0.00000000000E+00 0.  1.
<mgrwt>
<rscale>  0 0.13105090E+03</rscale>
<asrwt>0</asrwt>
<pdfrwt beam="1">  1        3 0.62860826E-01 0.14085732E+03</pdfrwt>
<pdfrwt beam="2">  1       -3 0.57574712E-02 0.14085732E+03</pdfrwt>
<totfact> 0.10547372E+03</totfact>
</mgrwt>
</event>
<event>
 8    1  0.1020295E-005  0.1284305E+03  0.7546771E-02  0.1243539E+00
         -2   -1    0    0    0  501 -0.00000000000E+00  0.00000000000E+00  0.90366695869E+02  0.90366695869E+02  0.00000000000E+00 0.  1.
          2   -1    0    0  501    0  0.00000000000E+00 -0.00000000000E+00 -0.15596208451E+03  0.15596208451E+03  0.00000000000E+00 0. -1.
         23    2    1    2    0    0 -0.21893160464E+02 -0.19739042791E+02  0.13834637280E+01  0.12843799005E+03  0.12500185211E+03 0.  0.
         23    2    1    2    0    0  0.21893160464E+02  0.19739042791E+02 -0.66978852368E+02  0.11789079033E+03  0.92429061961E+02 0.  0.
          5    1    3    3  502    0 -0.14526858858E+02  0.18842705192E+02 -0.54683489846E+02  0.59820157380E+02  0.47000000000E+01 0. -1.
         -5    1    3    3    0  502 -0.73663016063E+01 -0.38581747984E+02  0.56066953574E+02  0.68617832667E+02  0.47000000000E+01 0. -1.
        -11    1    4    4    0    0  0.37342645841E+02  0.14942495708E+02  0.81511493201E+01  0.41038915820E+02  0.00000000000E+00 0.  1.
         11    1    4    4    0    0 -0.15449485377E+02  0.47965470838E+01 -0.75130001688E+02  0.76851874512E+02  0.00000000000E+00 0. -1.
<mgrwt>
<rscale>  0 0.11973245E+03</rscale>
<asrwt>0</asrwt>
<pdfrwt beam="2">  1        2 0.23994167E-01 0.12843054E+03</pdfrwt>
<pdfrwt beam="1">  1       -2 0.13902569E-01 0.12843054E+03</pdfrwt>
<totfact> 0.82370274E+03</totfact>
</mgrwt>
</event>
<event>
 8    1  0.1020295E-005  0.1400529E+03  0.7546771E-02  0.1223513E+00
         -2   -1    0    0    0  501 -0.00000000000E+00  0.00000000000E+00  0.11060764493E+03  0.11060764493E+03  0.00000000000E+00 0.  1.
          2   -1    0    0  501    0  0.00000000000E+00 -0.00000000000E+00 -0.19609885056E+03  0.19609885056E+03  0.00000000000E+00 0. -1.
         23    2    1    2    0    0 -0.49530140124E+02 -0.39199509445E+02  0.32139664925E+02  0.14369329404E+03  0.12499987348E+03 0.  0.
         23    2    1    2    0    0  0.49530140124E+02  0.39199509445E+02 -0.11763087056E+03  0.16301320145E+03  0.93522434838E+02 0.  0.
          5    1    3    3  502    0 -0.42934888105E+02 -0.24441009377E+02  0.79338966576E+02  0.93581671139E+02  0.47000000000E+01 0.  1.
         -5    1    3    3    0  502 -0.65952520190E+01 -0.14758500069E+02 -0.47199301651E+02  0.50111622901E+02  0.47000000000E+01 0.  1.
        -11    1    4    4    0    0  0.44032937230E+02  0.66761890143E+01 -0.40271908179E+01  0.44717885983E+02  0.00000000000E+00 0.  1.
         11    1    4    4    0    0  0.54972028939E+01  0.32523320431E+02 -0.11360367974E+03  0.11829531547E+03  0.00000000000E+00 0. -1.
<mgrwt>
<rscale>  0 0.13269340E+03</rscale>
<asrwt>0</asrwt>
<pdfrwt beam="2">  1        2 0.30169054E-01 0.14005286E+03</pdfrwt>
<pdfrwt beam="1">  1       -2 0.17016561E-01 0.14005286E+03</pdfrwt>
<totfact> 0.46308744E+03</totfact>
</mgrwt>
</event>
<event>
 8    1  0.1020295E-005  0.1195891E+03  0.7546771E-02  0.1253247E+00
         -1   -1    0    0    0  501 -0.00000000000E+00  0.00000000000E+00  0.42491018278E+03  0.42491018278E+03  0.00000000000E+00 0.  1.
          1   -1    0    0  501    0  0.00000000000E+00 -0.00000000000E+00 -0.32915252097E+02  0.32915252097E+02  0.00000000000E+00 0. -1.
         23    2    1    2    0    0 -0.25783029718E+02  0.22339305576E+02  0.29908771518E+03  0.32211023894E+03  0.11461996102E+03 0.  0.
         23    2    1    2    0    0  0.25783029718E+02 -0.22339305576E+02  0.92907215510E+02  0.13571519594E+03  0.92860403405E+02 0.  0.
          5    1    3    3  502    0 -0.34249347648E+02  0.14636287104E+02  0.19601578244E+02  0.42350331571E+02  0.47000000000E+01 0. -1.
         -5    1    3    3    0  502  0.84663179299E+01  0.77030184722E+01  0.27948613693E+03  0.27975990737E+03  0.47000000000E+01 0.  1.
        -11    1    4    4    0    0  0.38107329743E+02  0.27693198416E+02  0.49600900693E+02  0.68405636962E+02  0.00000000000E+00 0.  1.
         11    1    4    4    0    0 -0.12324300025E+02 -0.50032503993E+02  0.43306314818E+02  0.67309558979E+02  0.00000000000E+00 0. -1.
<mgrwt>
<rscale>  0 0.11405099E+03</rscale>
<asrwt>0</asrwt>
<pdfrwt beam="2">  1        1 0.50638852E-02 0.11958907E+03</pdfrwt>
<pdfrwt beam="1">  1       -1 0.65370794E-01 0.11958907E+03</pdfrwt>
<totfact> 0.38234435E+03</totfact>
</mgrwt>
</event>
<event>
 8    1  0.1020295E-005  0.1277492E+03  0.7546771E-02  0.1241669E+00
         -2   -1    0    0    0  501 -0.00000000000E+00  0.00000000000E+00  0.48542414110E+02  0.48542414110E+02  0.00000000000E+00 0.  1.
          2   -1    0    0  501    0  0.00000000000E+00 -0.00000000000E+00 -0.27641692231E+03  0.27641692231E+03  0.00000000000E+00 0. -1.
         23    2    1    2    0    0 -0.36258456445E+02  0.29161242368E+02 -0.10770108140E+03  0.16709094646E+03  0.11897397923E+03 0.  0.
         23    2    1    2    0    0  0.36258456445E+02 -0.29161242368E+02 -0.12017342680E+03  0.15786838996E+03  0.91190582404E+02 0.  0.
          5    1    3    3  502    0 -0.45780600562E+02  0.11893964063E+01 -0.12452726792E+03  0.13276448512E+03  0.47000000000E+01 0. -1.
         -5    1    3    3    0  502  0.95221441163E+01  0.27971845962E+02  0.16826186529E+02  0.34326461341E+02  0.47000000000E+01 0.  1.
        -11    1    4    4    0    0  0.30921904358E+02 -0.47676268861E+02 -0.12559415169E+03  0.13785166564E+03  0.00000000000E+00 0.  1.
         11    1    4    4    0    0  0.53365520872E+01  0.18515026493E+02  0.54207248861E+01  0.20016724320E+02  0.00000000000E+00 0. -1.
<mgrwt>
<rscale>  0 0.12086981E+03</rscale>
<asrwt>0</asrwt>
<pdfrwt beam="2">  1        2 0.42525680E-01 0.12774921E+03</pdfrwt>
<pdfrwt beam="1">  1       -2 0.74680637E-02 0.12774921E+03</pdfrwt>
<totfact> 0.11808495E+04</totfact>
</mgrwt>
</event>
<event>
 8    1  0.1020295E-005  0.1264775E+03  0.7546771E-02  0.1247960E+00
         -1   -1    0    0    0  501 -0.00000000000E+00  0.00000000000E+00  0.66493886380E+02  0.66493886380E+02  0.00000000000E+00 0.  1.
          1   -1    0    0  501    0  0.00000000000E+00 -0.00000000000E+00 -0.18174388164E+03  0.18174388164E+03  0.00000000000E+00 0. -1.
         23    2    1    2    0    0  0.17480475878E+02  0.81112531551E+01 -0.74231157304E+02  0.14665208373E+03  0.12500083793E+03 0.  0.
         23    2    1    2    0    0 -0.17480475878E+02 -0.81112531551E+01 -0.41018837958E+02  0.10158568429E+03  0.90916152142E+02 0.  0.
          5    1    3    3  502    0  0.85615458129E+01  0.51854218883E+02 -0.85406876614E+02  0.10039215435E+03  0.47000000000E+01 0.  1.
         -5    1    3    3    0  502  0.89189300654E+01 -0.43742965728E+02  0.11175719309E+02  0.46259929381E+02  0.47000000000E+01 0.  1.
        -11    1    4    4    0    0 -0.27080116289E+02 -0.41227385441E+02 -0.17903382293E+01  0.49358234566E+02  0.00000000000E+00 0.  1.
         11    1    4    4    0    0  0.95996404105E+01  0.33116132286E+02 -0.39228499729E+02  0.52227449723E+02  0.00000000000E+00 0. -1.
<mgrwt>
<rscale>  0 0.11709979E+03</rscale>
<asrwt>0</asrwt>
<pdfrwt beam="2">  1        1 0.27960597E-01 0.12647754E+03</pdfrwt>
<pdfrwt beam="1">  1       -1 0.10229829E-01 0.12647754E+03</pdfrwt>
<totfact> 0.91502203E+03</totfact>
</mgrwt>
</event>
<event>
 8    1  0.1020295E-005  0.1919055E+03  0.7546771E-02  0.1160517E+00
          2   -1    0    0  501    0  0.00000000000E+00  0.00000000000E+00  0.92932317364E+03  0.92932317364E+03  0.00000000000E+00 0. -1.
         -2   -1    0    0    0  501 -0.00000000000E+00 -0.00000000000E+00 -0.50777337671E+02  0.50777337671E+02  0.00000000000E+00 0.  1.
         23    2    1    2    0    0 -0.62914472776E+02  0.13132623996E+03  0.19219632595E+03  0.27160111337E+03  0.12499169927E+03 0.  0.
         23    2    1    2    0    0  0.62914472776E+02 -0.13132623996E+03  0.68634951002E+03  0.70849939794E+03  0.98442545681E+02 0.  0.
          5    1    3    3  502    0 -0.75301891961E+02  0.68926159919E+02  0.45949990175E+02  0.11204767758E+03  0.47000000000E+01 0.  1.
         -5    1    3    3    0  502  0.12387419185E+02  0.62400080039E+02  0.14624633578E+03  0.15955343579E+03  0.47000000000E+01 0.  1.
        -11    1    4    4    0    0  0.17836777712E+01 -0.10483292218E+03  0.33997183366E+03  0.35577235807E+03  0.00000000000E+00 0. -1.
         11    1    4    4    0    0  0.61130795005E+02 -0.26493317776E+02  0.34637767635E+03  0.35272703988E+03  0.00000000000E+00 0.  1.
<mgrwt>
<rscale>  0 0.18773834E+03</rscale>
<asrwt>0</asrwt>
<pdfrwt beam="1">  1        2 0.14297278E+00 0.19190554E+03</pdfrwt>
<pdfrwt beam="2">  1       -2 0.78118988E-02 0.19190554E+03</pdfrwt>
<totfact> 0.28329881E+03</totfact>
</mgrwt>
</event>
<event>
 8    1  0.1020295E-005  0.1771350E+03  0.7546771E-02  0.1176679E+00
          2   -1    0    0  501    0  0.00000000000E+00  0.00000000000E+00  0.53893528830E+02  0.53893528830E+02  0.00000000000E+00 0. -1.
         -2   -1    0    0    0  501 -0.00000000000E+00 -0.00000000000E+00 -0.60201071113E+03  0.60201071113E+03  0.00000000000E+00 0.  1.
         23    2    1    2    0    0  0.12526270882E+03 -0.77314133558E+01 -0.41830984919E+03  0.45426858242E+03  0.12500517619E+03 0.  0.
         23    2    1    2    0    0 -0.12526270882E+03  0.77314133558E+01 -0.12980733311E+03  0.20163565754E+03  0.89757861433E+02 0.  0.
          5    1    3    3  502    0 -0.12287655888E+01  0.50706937588E+01  0.72529793079E+01  0.10095420195E+02  0.47000000000E+01 0.  1.
         -5    1    3    3    0  502  0.12649147440E+03 -0.12802107115E+02 -0.42556282850E+03  0.44417316223E+03  0.47000000000E+01 0.  1.
        -11    1    4    4    0    0 -0.63684874696E+02  0.38035395644E+02 -0.10520914094E+03  0.12873001951E+03  0.00000000000E+00 0.  1.
         11    1    4    4    0    0 -0.61577834120E+02 -0.30303982289E+02 -0.24598192169E+02  0.72905638023E+02  0.00000000000E+00 0. -1.
<mgrwt>
<rscale>  0 0.17112616E+03</rscale>
<asrwt>0</asrwt>
<pdfrwt beam="1">  1        2 0.82913116E-02 0.17713502E+03</pdfrwt>
<pdfrwt beam="2">  1       -2 0.92617038E-01 0.17713502E+03</pdfrwt>
<totfact> 0.82073379E+02</totfact>
</mgrwt>
</event>
<event>
 8    1  0.1020295E-005  0.1264416E+03  0.7546771E-02  0.1247474E+00
         -2   -1    0    0    0  501 -0.00000000000E+00  0.00000000000E+00  0.11957580307E+03  0.11957580307E+03  0.00000000000E+00 0.  1.
          2   -1    0    0  501    0  0.00000000000E+00 -0.00000000000E+00 -0.17513132062E+03  0.17513132062E+03  0.00000000000E+00 0. -1.
         23    2    1    2    0    0 -0.52671439662E+01  0.18295466201E+02  0.64768152457E+02  0.14206470226E+03  0.12499999667E+03 0.  0.
         23    2    1    2    0    0  0.52671439662E+01 -0.18295466201E+02 -0.12032367001E+03  0.15264242142E+03  0.91975303011E+02 0.  0.
          5    1    3    3  502    0  0.25533286486E+02  0.43939115584E+02  0.83275367320E+02  0.97670217566E+02  0.47000000000E+01 0.  1.
         -5    1    3    3    0  502 -0.30800430452E+02 -0.25643649383E+02 -0.18507214863E+02  0.44394484699E+02  0.47000000000E+01 0.  1.
        -11    1    4    4    0    0  0.44728839801E+02 -0.21485378257E+02 -0.42527991045E+02  0.65352280841E+02  0.00000000000E+00 0.  1.
         11    1    4    4    0    0 -0.39461695835E+02  0.31899120557E+01 -0.77795678966E+02  0.87290140582E+02  0.00000000000E+00 0. -1.
<mgrwt>
<rscale>  0 0.11738505E+03</rscale>
<asrwt>0</asrwt>
<pdfrwt beam="2">  1        2 0.26943280E-01 0.12644155E+03</pdfrwt>
<pdfrwt beam="1">  1       -2 0.18396277E-01 0.12644155E+03</pdfrwt>
<totfact> 0.45712749E+03</totfact>
</mgrwt>
</event>
<event>
 8    1  0.1020295E-005  0.1329792E+03  0.7546771E-02  0.1235921E+00
          1   -1    0    0  501    0  0.00000000000E+00  0.00000000000E+00  0.51513116535E+03  0.51513116535E+03  0.00000000000E+00 0. -1.
         -1   -1    0    0    0  501 -0.00000000000E+00 -0.00000000000E+00 -0.28126810950E+02  0.28126810950E+02  0.00000000000E+00 0.  1.
         23    2    1    2    0    0 -0.34227548490E+02 -0.29789582767E+02  0.33250148652E+03  0.35810710754E+03  0.12499807045E+03 0.  0.
         23    2    1    2    0    0  0.34227548490E+02  0.29789582767E+02  0.15450286788E+03  0.18515086876E+03  0.91382513110E+02 0.  0.
          5    1    3    3  502    0  0.15178063004E+02 -0.18861637492E+02  0.31550599307E+01  0.24863213159E+02  0.47000000000E+01 0. -1.
         -5    1    3    3    0  502 -0.49405611493E+02 -0.10927945275E+02  0.32934642659E+03  0.33324389438E+03  0.47000000000E+01 0. -1.
        -11    1    4    4    0    0  0.27533571235E+02 -0.16649083323E+02  0.12646282426E+03  0.13049189799E+03  0.00000000000E+00 0. -1.
         11    1    4    4    0    0  0.66939772550E+01  0.46438666090E+02  0.28040043620E+02  0.54658970773E+02  0.00000000000E+00 0.  1.
<mgrwt>
<rscale>  0 0.12445649E+03</rscale>
<asrwt>0</asrwt>
<pdfrwt beam="1">  1        1 0.79250942E-01 0.13297918E+03</pdfrwt>
<pdfrwt beam="2">  1       -1 0.43272021E-02 0.13297918E+03</pdfrwt>
<totfact> 0.90402120E+03</totfact>
</mgrwt>
</event>
<event>
 8    1  0.1020295E-005  0.3211091E+03  0.7546771E-02  0.1076402E+00
          2   -1    0    0  501    0  0.00000000000E+00  0.00000000000E+00  0.71879829973E+03  0.71879829973E+03  0.00000000000E+00 0.  1.
         -2   -1    0    0    0  501 -0.00000000000E+00 -0.00000000000E+00 -0.15025719718E+03  0.15025719718E+03  0.00000000000E+00 0. -1.
         23    2    1    2    0    0 -0.23789158464E+03 -0.17576473283E+03  0.16804235568E+03  0.36242140546E+03  0.12500157793E+03 0.  0.
         23    2    1    2    0    0  0.23789158464E+03  0.17576473283E+03  0.40049874687E+03  0.50663409145E+03  0.93772112197E+02 0.  0.
          5    1    3    3  502    0 -0.15774979460E+03 -0.14370388336E+03  0.17455657622E+03  0.27573155802E+03  0.47000000000E+01 0. -1.
         -5    1    3    3    0  502 -0.80141790041E+02 -0.32060849471E+02 -0.65142205419E+01  0.86689847439E+02  0.47000000000E+01 0. -1.
        -11    1    4    4    0    0  0.64846133571E+02  0.10359430774E+03  0.17333623865E+03  0.21209020077E+03  0.00000000000E+00 0.  1.
         11    1    4    4    0    0  0.17304545107E+03  0.72170425088E+02  0.22716250822E+03  0.29454389068E+03  0.00000000000E+00 0. -1.
<mgrwt>
<rscale>  0 0.31836902E+03</rscale>
<asrwt>0</asrwt>
<pdfrwt beam="1">  1        2 0.11058435E+00 0.32110908E+03</pdfrwt>
<pdfrwt beam="2">  1       -2 0.23116492E-01 0.32110908E+03</pdfrwt>
<totfact> 0.66438952E+02</totfact>
</mgrwt>
</event>
<event>
 8    1  0.1020295E-005  0.1258337E+03  0.7546771E-02  0.1245213E+00
         -1   -1    0    0    0  501 -0.00000000000E+00  0.00000000000E+00  0.36631366776E+02  0.36631366776E+02  0.00000000000E+00 0.  1.
          1   -1    0    0  501    0  0.00000000000E+00 -0.00000000000E+00 -0.34776077488E+03  0.34776077488E+03  0.00000000000E+00 0. -1.
         23    2    1    2    0    0 -0.14334404734E+02 -0.18265685253E+01 -0.16601012741E+03  0.20831100297E+03  0.12500120017E+03 0.  0.
         23    2    1    2    0    0  0.14334404734E+02  0.18265685253E+01 -0.14511928069E+03  0.17608113868E+03  0.98671932482E+02 0.  0.
          5    1    3    3  502    0 -0.67035266511E+02 -0.40270232710E+01 -0.12247385975E+03  0.13975650323E+03  0.47000000000E+01 0.  1.
         -5    1    3    3    0  502  0.52700861777E+02  0.22004547457E+01 -0.43536267660E+02  0.68554499743E+02  0.47000000000E+01 0.  1.
        -11    1    4    4    0    0  0.46363823160E+02  0.20729831374E+01 -0.26992650310E+02  0.53688960950E+02  0.00000000000E+00 0.  1.
         11    1    4    4    0    0 -0.32029418427E+02 -0.24641461218E+00 -0.11812663038E+03  0.12239217773E+03  0.00000000000E+00 0. -1.
<mgrwt>
<rscale>  0 0.11872660E+03</rscale>
<asrwt>0</asrwt>
<pdfrwt beam="2">  1        1 0.53501658E-01 0.12583367E+03</pdfrwt>
<pdfrwt beam="1">  1       -1 0.56355948E-02 0.12583367E+03</pdfrwt>
<totfact> 0.10041136E+04</totfact>
</mgrwt>
</event>
<event>
 8    1  0.1020295E-005  0.1503047E+03  0.7546771E-02  0.1211089E+00
         -1   -1    0    0    0  501 -0.00000000000E+00  0.00000000000E+00  0.14603417720E+03  0.14603417720E+03  0.00000000000E+00 0.  1.
          1   -1    0    0  501    0  0.00000000000E+00 -0.00000000000E+00 -0.12387270978E+03  0.12387270978E+03  0.00000000000E+00 0. -1.
         23    2    1    2    0    0  0.40240493919E+02  0.73111463240E+02  0.10252874526E+02  0.15065399096E+03  0.12500768036E+03 0.  0.
         23    2    1    2    0    0 -0.40240493919E+02 -0.73111463240E+02  0.11908592890E+02  0.11925289602E+03  0.84349601162E+02 0.  0.
          5    1    3    3  502    0  0.77050450768E+01  0.97568878952E+02  0.33489429423E+02  0.10355040194E+03  0.47000000000E+01 0. -1.
         -5    1    3    3    0  502  0.32535448842E+02 -0.24457415712E+02 -0.23236554897E+02  0.47103589015E+02  0.47000000000E+01 0. -1.
        -11    1    4    4    0    0 -0.63261486474E+02 -0.44073089481E+02  0.23198266449E+02  0.80514672288E+02  0.00000000000E+00 0.  1.
         11    1    4    4    0    0  0.23020992555E+02 -0.29038373759E+02 -0.11289673559E+02  0.38738223731E+02  0.00000000000E+00 0. -1.
<mgrwt>
<rscale>  0 0.14167806E+03</rscale>
<asrwt>0</asrwt>
<pdfrwt beam="2">  1        1 0.19057340E-01 0.15030470E+03</pdfrwt>
<pdfrwt beam="1">  1       -1 0.22466796E-01 0.15030470E+03</pdfrwt>
<totfact> 0.43606616E+03</totfact>
</mgrwt>
</event>
<event>
 7    1  0.1020295E-005  0.2096913E+03  0.7546771E-02  0.1164488E+00
          2   -1    0    0  501    0  0.00000000000E+00  0.00000000000E+00  0.52074242246E+03  0.52074242246E+03  0.00000000000E+00 0. -1.
         -2   -1    0    0    0  501 -0.00000000000E+00 -0.00000000000E+00 -0.11791747064E+03  0.11791747064E+03  0.00000000000E+00 0.  1.
         23    2    1    2    0    0 -0.80247662359E+02  0.27386805205E+00  0.41083045833E+03  0.42881581352E+03  0.93067578208E+02 0.  0.
          5    1    1    2  502    0 -0.11214512241E+02 -0.48677593229E+02  0.65731855601E+02  0.82692443476E+02  0.47000000000E+01 0. -1.
         -5    1    1    2    0  502  0.91462174600E+02  0.48403725177E+02 -0.73737362104E+02  0.12715163610E+03  0.47000000000E+01 0.  1.
        -11    1    3    3    0    0  0.85084943396E+01  0.25269076375E+02  0.14541726775E+03  0.14784147746E+03  0.00000000000E+00 0.  1.
         11    1    3    3    0    0 -0.88756156699E+02 -0.24995208323E+02  0.26541319058E+03  0.28097433606E+03  0.00000000000E+00 0. -1.
<mgrwt>
<rscale>  0 0.18346882E+03</rscale>
<asrwt>0</asrwt>
<pdfrwt beam="1">  1        2 0.80114217E-01 0.20969132E+03</pdfrwt>
<pdfrwt beam="2">  1       -2 0.18141150E-01 0.20969132E+03</pdfrwt>
<totfact> 0.14715535E+03</totfact>
</mgrwt>
</event>
<event>
 8    1  0.1020295E-005  0.1378374E+03  0.7546771E-02  0.1227518E+00
         -1   -1    0    0    0  501 -0.00000000000E+00  0.00000000000E+00  0.63979566847E+02  0.63979566847E+02  0.00000000000E+00 0.  1.
          1   -1    0    0  501    0  0.00000000000E+00 -0.00000000000E+00 -0.28858088200E+03  0.28858088200E+03  0.00000000000E+00 0. -1.
         23    2    1    2    0    0  0.48953507536E+02 -0.31259996070E+02 -0.49714470777E+02  0.14652872945E+03  0.12500202676E+03 0.  0.
         23    2    1    2    0    0 -0.48953507536E+02  0.31259996070E+02 -0.17488684437E+03  0.20603171940E+03  0.92141346906E+02 0.  0.
          5    1    3    3  502    0 -0.32535537201E+02  0.18312491386E+02  0.24544077164E+01  0.37709715445E+02  0.47000000000E+01 0. -1.
         -5    1    3    3    0  502  0.81489044737E+02 -0.49572487455E+02 -0.52168878493E+02  0.10881901400E+03  0.47000000000E+01 0. -1.
        -11    1    4    4    0    0 -0.32808087290E+02  0.47755059254E+02 -0.43030071535E+02  0.72169961426E+02  0.00000000000E+00 0.  1.
         11    1    4    4    0    0 -0.16145420245E+02 -0.16495063184E+02 -0.13185677284E+03  0.13386175797E+03  0.00000000000E+00 0. -1.
<mgrwt>
<rscale>  0 0.12995787E+03</rscale>
<asrwt>0</asrwt>
<pdfrwt beam="2">  1        1 0.44397060E-01 0.13783737E+03</pdfrwt>
<pdfrwt beam="1">  1       -1 0.98430101E-02 0.13783737E+03</pdfrwt>
<totfact> 0.55069509E+03</totfact>
</mgrwt>
</event>
<event>
 8    1  0.1020295E-005  0.1276273E+03  0.7546771E-02  0.1245290E+00
         -2   -1    0    0    0  501 -0.00000000000E+00  0.00000000000E+00  0.59021991765E+03  0.59021991765E+03  0.00000000000E+00 0.  1.
          2   -1    0    0  501    0  0.00000000000E+00 -0.00000000000E+00 -0.21468212986E+02  0.21468212986E+02  0.00000000000E+00 0. -1.
         23    2    1    2    0    0  0.25551317963E+02 -0.31669006987E+01  0.36565366578E+03  0.38728715844E+03  0.12500336270E+03 0.  0.
         23    2    1    2    0    0 -0.25551317963E+02  0.31669006987E+01  0.20309803889E+03  0.22440097220E+03  0.91891696108E+02 0.  0.
          5    1    3    3  502    0  0.67509926366E+02  0.23524350635E+02  0.27040599242E+03  0.27973644019E+03  0.47000000000E+01 0.  1.
         -5    1    3    3    0  502 -0.41958608403E+02 -0.26691251334E+02  0.95247673356E+02  0.10755071825E+03  0.47000000000E+01 0.  1.
        -11    1    4    4    0    0  0.21580946578E+01  0.43279574008E+02  0.12537969813E+03  0.13265687921E+03  0.00000000000E+00 0.  1.
         11    1    4    4    0    0 -0.27709412621E+02 -0.40112673310E+02  0.77718340758E+02  0.91744092987E+02  0.00000000000E+00 0. -1.
<mgrwt>
<rscale>  0 0.11868057E+03</rscale>
<asrwt>0</asrwt>
<pdfrwt beam="2">  1        2 0.33028024E-02 0.12762735E+03</pdfrwt>
<pdfrwt beam="1">  1       -2 0.90803052E-01 0.12762735E+03</pdfrwt>
<totfact> 0.27968992E+03</totfact>
</mgrwt>
</event>
<event>
 8    1  0.1020295E-005  0.1597151E+03  0.7546771E-02  0.1196709E+00
         -1   -1    0    0    0  501 -0.00000000000E+00  0.00000000000E+00  0.39624866324E+03  0.39624866324E+03  0.00000000000E+00 0.  1.
          1   -1    0    0  501    0  0.00000000000E+00 -0.00000000000E+00 -0.67568428582E+02  0.67568428582E+02  0.00000000000E+00 0. -1.
         23    2    1    2    0    0  0.48186212054E+02 -0.86954591014E+02  0.27628452820E+03  0.31912701622E+03  0.12500360006E+03 0.  0.
         23    2    1    2    0    0 -0.48186212054E+02  0.86954591014E+02  0.52395706457E+02  0.14469007560E+03  0.91142174605E+02 0.  0.
          5    1    3    3  502    0  0.29072593400E+02 -0.65266454382E+02  0.28053795576E+03  0.28953162242E+03  0.47000000000E+01 0. -1.
         -5    1    3    3    0  502  0.19113618654E+02 -0.21688136631E+02 -0.42534275599E+01  0.29595393807E+02  0.47000000000E+01 0. -1.
        -11    1    4    4    0    0 -0.45428252243E+02  0.48348209729E+02 -0.14031232210E+02  0.67809667181E+02  0.00000000000E+00 0. -1.
         11    1    4    4    0    0 -0.27579598116E+01  0.38606381284E+02  0.66426938667E+02  0.76880408420E+02  0.00000000000E+00 0.  1.
<mgrwt>
<rscale>  0 0.15310462E+03</rscale>
<asrwt>0</asrwt>
<pdfrwt beam="2">  1        1 0.10395143E-01 0.15971510E+03</pdfrwt>
<pdfrwt beam="1">  1       -1 0.60961332E-01 0.15971510E+03</pdfrwt>
<totfact> 0.16842593E+03</totfact>
</mgrwt>
</event>
<event>
 8    1  0.1020295E-005  0.1373869E+03  0.7546771E-02  0.1228668E+00
          2   -1    0    0  501    0  0.00000000000E+00  0.00000000000E+00  0.18240489515E+03  0.18240489515E+03  0.00000000000E+00 0. -1.
         -2   -1    0    0    0  501 -0.00000000000E+00 -0.00000000000E+00 -0.83847682122E+02  0.83847682122E+02  0.00000000000E+00 0.  1.
         23    2    1    2    0    0 -0.42965562094E+02 -0.37480363741E+02  0.36276952372E+02  0.14209564931E+03  0.12499735632E+03 0.  0.
         23    2    1    2    0    0  0.42965562094E+02  0.37480363741E+02  0.62280260657E+02  0.12415692796E+03  0.91023594198E+02 0.  0.
          5    1    3    3  502    0 -0.18826166770E+02 -0.12180005923E+01  0.78725326171E+02  0.81090536201E+02  0.47000000000E+01 0. -1.
         -5    1    3    3    0  502 -0.24139395324E+02 -0.36262363148E+02 -0.42448373798E+02  0.61005113112E+02  0.47000000000E+01 0. -1.
        -11    1    4    4    0    0  0.15514661313E+02 -0.26019637509E+01 -0.21899707021E+02  0.26964274487E+02  0.00000000000E+00 0.  1.
         11    1    4    4    0    0  0.27450900781E+02  0.40082327491E+02  0.84179967678E+02  0.97192653473E+02  0.00000000000E+00 0. -1.
<mgrwt>
<rscale>  0 0.12918628E+03</rscale>
<asrwt>0</asrwt>
<pdfrwt beam="1">  1        2 0.28062291E-01 0.13738689E+03</pdfrwt>
<pdfrwt beam="2">  1       -2 0.12899643E-01 0.13738689E+03</pdfrwt>
<totfact> 0.78654050E+03</totfact>
</mgrwt>
</event>
<event>
 8    1  0.1020295E-005  0.1327134E+03  0.7546771E-02  0.1236873E+00
         -1   -1    0    0    0  501 -0.00000000000E+00  0.00000000000E+00  0.77231936177E+02  0.77231936177E+02  0.00000000000E+00 0.  1.
          1   -1    0    0  501    0  0.00000000000E+00 -0.00000000000E+00 -0.28731493992E+03  0.28731493992E+03  0.00000000000E+00 0. -1.
         23    2    1    2    0    0  0.24810830516E+02 -0.37052907384E+02 -0.12516641671E+01  0.13271928235E+03  0.12499738392E+03 0.  0.
         23    2    1    2    0    0 -0.24810830516E+02  0.37052907384E+02 -0.20883133958E+03  0.23182759375E+03  0.90249706794E+02 0.  0.
          5    1    3    3  502    0 -0.33992710760E+02  0.23778017983E+02 -0.19438512988E+02  0.46052625454E+02  0.47000000000E+01 0. -1.
         -5    1    3    3    0  502  0.58803541276E+02 -0.60830925367E+02  0.18186848821E+02  0.86666656897E+02  0.47000000000E+01 0. -1.
        -11    1    4    4    0    0  0.27529609548E+02 -0.31848165467E+01 -0.10650937334E+03  0.11005575436E+03  0.00000000000E+00 0. -1.
         11    1    4    4    0    0 -0.52340440064E+02  0.40237723931E+02 -0.10232196624E+03  0.12177183939E+03  0.00000000000E+00 0.  1.
<mgrwt>
<rscale>  0 0.12385285E+03</rscale>
<asrwt>0</asrwt>
<pdfrwt beam="2">  1        1 0.44202298E-01 0.13271338E+03</pdfrwt>
<pdfrwt beam="1">  1       -1 0.11881836E-01 0.13271338E+03</pdfrwt>
<totfact> 0.41402741E+03</totfact>
</mgrwt>
</event>
<event>
 8    1  0.1020295E-005  0.1524240E+03  0.7546771E-02  0.1206176E+00
          2   -1    0    0  501    0  0.00000000000E+00  0.00000000000E+00  0.58076023844E+03  0.58076023844E+03  0.00000000000E+00 0. -1.
         -2   -1    0    0    0  501 -0.00000000000E+00 -0.00000000000E+00 -0.36727440061E+02  0.36727440061E+02  0.00000000000E+00 0.  1.
         23    2    1    2    0    0 -0.23549867557E+02 -0.83980438024E+02  0.20348712048E+03  0.25424416397E+03  0.12500310589E+03 0.  0.
         23    2    1    2    0    0  0.23549867557E+02  0.83980438024E+02  0.34054567790E+03  0.36324351453E+03  0.91472301141E+02 0.  0.
          5    1    3    3  502    0 -0.65223522909E+02 -0.11362610590E+02  0.11158801699E+03  0.12983525097E+03  0.47000000000E+01 0. -1.
         -5    1    3    3    0  502  0.41673655353E+02 -0.72617827434E+02  0.91899103492E+02  0.12440891300E+03  0.47000000000E+01 0. -1.
        -11    1    4    4    0    0 -0.15178495858E+02  0.71202465718E+02  0.28610176477E+03  0.29521923661E+03  0.00000000000E+00 0. -1.
         11    1    4    4    0    0  0.38728363414E+02  0.12777972307E+02  0.54443913135E+02  0.68024277920E+02  0.00000000000E+00 0.  1.
<mgrwt>
<rscale>  0 0.14545159E+03</rscale>
<asrwt>0</asrwt>
<pdfrwt beam="1">  1        2 0.89347722E-01 0.15242404E+03</pdfrwt>
<pdfrwt beam="2">  1       -2 0.56503758E-02 0.15242404E+03</pdfrwt>
<totfact> 0.82086943E+03</totfact>
</mgrwt>
</event>
<event>
 8    1  0.1020295E-005  0.1452325E+03  0.7546771E-02  0.1215697E+00
         -2   -1    0    0    0  501 -0.00000000000E+00  0.00000000000E+00  0.97613343489E+02  0.97613343489E+02  0.00000000000E+00 0.  1.
          2   -1    0    0  501    0  0.00000000000E+00 -0.00000000000E+00 -0.22828191114E+03  0.22828191114E+03  0.00000000000E+00 0. -1.
         23    2    1    2    0    0  0.45600161440E+02  0.58207530084E+02  0.49182976743E+01  0.14531579945E+03  0.12500000255E+03 0.  0.
         23    2    1    2    0    0 -0.45600161440E+02 -0.58207530084E+02 -0.13558686532E+03  0.18057945517E+03  0.93582318317E+02 0.  0.
          5    1    3    3  502    0 -0.51597270023E+01  0.80680447927E+02  0.27035351156E+02  0.85375392664E+02  0.47000000000E+01 0. -1.
         -5    1    3    3    0  502  0.50759888442E+02 -0.22472917844E+02 -0.22117053482E+02  0.59940406787E+02  0.47000000000E+01 0. -1.
        -11    1    4    4    0    0  0.22566149884E+02 -0.29231143813E+02 -0.79541968291E+02  0.87696155040E+02  0.00000000000E+00 0. -1.
         11    1    4    4    0    0 -0.68166311323E+02 -0.28976386270E+02 -0.56044897031E+02  0.92883300135E+02  0.00000000000E+00 0.  1.
<mgrwt>
<rscale>  0 0.13825474E+03</rscale>
<asrwt>0</asrwt>
<pdfrwt beam="2">  1        2 0.35120293E-01 0.14523254E+03</pdfrwt>
<pdfrwt beam="1">  1       -2 0.15017438E-01 0.14523254E+03</pdfrwt>
<totfact> 0.48400293E+03</totfact>
</mgrwt>
</event>
<event>
 8    1  0.1020295E-005  0.1548250E+03  0.7546771E-02  0.1203224E+00
          1   -1    0    0  501    0  0.00000000000E+00  0.00000000000E+00  0.10683966808E+03  0.10683966808E+03  0.00000000000E+00 0. -1.
         -1   -1    0    0    0  501 -0.00000000000E+00 -0.00000000000E+00 -0.18845786245E+03  0.18845786245E+03  0.00000000000E+00 0.  1.
         23    2    1    2    0    0  0.85157383276E+02 -0.33067511031E+02 -0.52847753429E+02  0.16359607383E+03  0.12500220045E+03 0.  0.
         23    2    1    2    0    0 -0.85157383276E+02  0.33067511031E+02 -0.28770440940E+02  0.13170145669E+03  0.90400747846E+02 0.  0.
          5    1    3    3  502    0  0.77170999724E+02 -0.48290829727E+02  0.15937986747E+02  0.92539055839E+02  0.47000000000E+01 0.  1.
         -5    1    3    3    0  502  0.79863835523E+01  0.15223318695E+02 -0.68785740176E+02  0.71057017992E+02  0.47000000000E+01 0.  1.
        -11    1    4    4    0    0 -0.68638393570E+02  0.52621418350E+02 -0.48703200070E+02  0.99258472878E+02  0.00000000000E+00 0.  1.
         11    1    4    4    0    0 -0.16518989706E+02 -0.19553907318E+02  0.19932759130E+02  0.32442983815E+02  0.00000000000E+00 0. -1.
<mgrwt>
<rscale>  0 0.14778285E+03</rscale>
<asrwt>0</asrwt>
<pdfrwt beam="1">  1        1 0.16436872E-01 0.15482503E+03</pdfrwt>
<pdfrwt beam="2">  1       -1 0.28993517E-01 0.15482503E+03</pdfrwt>
<totfact> 0.34662871E+03</totfact>
</mgrwt>
</event>
<event>
 8    1  0.1020295E-005  0.1598641E+03  0.7546771E-02  0.1196589E+00
         -1   -1    0    0    0  501 -0.00000000000E+00  0.00000000000E+00  0.84239504785E+02  0.84239504785E+02  0.00000000000E+00 0.  1.
          1   -1    0    0  501    0  0.00000000000E+00 -0.00000000000E+00 -0.27324847364E+03  0.27324847364E+03  0.00000000000E+00 0. -1.
         23    2    1    2    0    0  0.99344022436E+02  0.79177391752E+01 -0.59662089973E+02  0.17063441826E+03  0.12499845731E+03 0.  0.
         23    2    1    2    0    0 -0.99344022436E+02 -0.79177391752E+01 -0.12934687888E+03  0.18685356016E+03  0.90838937028E+02 0.  0.
          5    1    3    3  502    0  0.37415018684E+02  0.55055691006E+02 -0.64110527095E+02  0.92537897208E+02  0.47000000000E+01 0.  1.
         -5    1    3    3    0  502  0.61929003751E+02 -0.47137951830E+02  0.44484371216E+01  0.78096521057E+02  0.47000000000E+01 0.  1.
        -11    1    4    4    0    0 -0.68939845926E+01 -0.37192184201E+02 -0.34104444407E+02  0.50930331999E+02  0.00000000000E+00 0.  1.
         11    1    4    4    0    0 -0.92450037843E+02  0.29274445026E+02 -0.95242434472E+02  0.13592322816E+03  0.00000000000E+00 0. -1.
<mgrwt>
<rscale>  0 0.15320515E+03</rscale>
<asrwt>0</asrwt>
<pdfrwt beam="2">  1        1 0.42038227E-01 0.15986413E+03</pdfrwt>
<pdfrwt beam="1">  1       -1 0.12959924E-01 0.15986413E+03</pdfrwt>
<totfact> 0.38878615E+03</totfact>
</mgrwt>
</event>
<event>
 8    1  0.1020295E-005  0.2289195E+03  0.7546771E-02  0.1130396E+00
          2   -1    0    0  501    0  0.00000000000E+00  0.00000000000E+00  0.73894693488E+03  0.73894693488E+03  0.00000000000E+00 0. -1.
         -2   -1    0    0    0  501 -0.00000000000E+00 -0.00000000000E+00 -0.65970890652E+02  0.65970890652E+02  0.00000000000E+00 0.  1.
         23    2    1    2    0    0 -0.19055063973E+03 -0.21712417123E+02  0.34947617321E+03  0.41777713184E+03  0.12499264336E+03 0.  0.
         23    2    1    2    0    0  0.19055063973E+03  0.21712417123E+02  0.32349987103E+03  0.38714069369E+03  0.91895455812E+02 0.  0.
          5    1    3    3  502    0 -0.14665926909E+03 -0.48723675793E+02  0.16474248829E+03  0.22593166056E+03  0.47000000000E+01 0.  1.
         -5    1    3    3    0  502 -0.43891370637E+02  0.27011258670E+02  0.18473368491E+03  0.19184547129E+03  0.47000000000E+01 0.  1.
        -11    1    4    4    0    0  0.14834083695E+03  0.19310309644E+02  0.30746329146E+03  0.34192333579E+03  0.00000000000E+00 0. -1.
         11    1    4    4    0    0  0.42209802781E+02  0.24021074793E+01  0.16036579570E+02  0.45217357900E+02  0.00000000000E+00 0.  1.
<mgrwt>
<rscale>  0 0.22474255E+03</rscale>
<asrwt>0</asrwt>
<pdfrwt beam="1">  1        2 0.11368414E+00 0.22891950E+03</pdfrwt>
<pdfrwt beam="2">  1       -2 0.10149368E-01 0.22891950E+03</pdfrwt>
<totfact> 0.25290192E+03</totfact>
</mgrwt>
</event>
<event>
 8    1  0.1020295E-005  0.1256315E+03  0.7546771E-02  0.1248768E+00
          2   -1    0    0  501    0  0.00000000000E+00  0.00000000000E+00  0.45145874751E+03  0.45145874751E+03  0.00000000000E+00 0. -1.
         -2   -1    0    0    0  501 -0.00000000000E+00 -0.00000000000E+00 -0.27000017661E+02  0.27000017661E+02  0.00000000000E+00 0.  1.
         23    2    1    2    0    0 -0.12118101324E+02  0.34444286491E+01  0.21225468193E+03  0.24664819572E+03  0.12499827992E+03 0.  0.
         23    2    1    2    0    0  0.12118101324E+02 -0.34444286491E+01  0.21220404792E+03  0.23181056945E+03  0.92449281700E+02 0.  0.
          5    1    3    3  502    0 -0.33656593058E+00  0.63026453524E+02  0.12710645545E+03  0.14195276728E+03  0.47000000000E+01 0. -1.
         -5    1    3    3    0  502 -0.11781535394E+02 -0.59582024875E+02  0.85148226480E+02  0.10469542844E+03  0.47000000000E+01 0. -1.
        -11    1    4    4    0    0 -0.40355330892E+02  0.28056659054E+01  0.93380184272E+02  0.10176582583E+03  0.00000000000E+00 0.  1.
         11    1    4    4    0    0  0.52473432217E+02 -0.62500945546E+01  0.11882386364E+03  0.13004474362E+03  0.00000000000E+00 0. -1.
<mgrwt>
<rscale>  0 0.11662690E+03</rscale>
<asrwt>0</asrwt>
<pdfrwt beam="1">  1        2 0.69455187E-01 0.12563153E+03</pdfrwt>
<pdfrwt beam="2">  1       -2 0.41538492E-02 0.12563153E+03</pdfrwt>
<totfact> 0.16960540E+04</totfact>
</mgrwt>
</event>
<event>
 8    1  0.1020295E-005  0.1691707E+03  0.7546771E-02  0.1185513E+00
         -1   -1    0    0    0  501 -0.00000000000E+00  0.00000000000E+00  0.10177893363E+03  0.10177893363E+03  0.00000000000E+00 0.  1.
          1   -1    0    0  501    0  0.00000000000E+00 -0.00000000000E+00 -0.25937796769E+03  0.25937796769E+03  0.00000000000E+00 0. -1.
         23    2    1    2    0    0 -0.90351696032E+02  0.69492954252E+02 -0.38985631751E+02  0.17360469040E+03  0.12500403745E+03 0.  0.
         23    2    1    2    0    0  0.90351696032E+02 -0.69492954252E+02 -0.11861340231E+03  0.18755221092E+03  0.90077705046E+02 0.  0.
          5    1    3    3  502    0 -0.29946723945E+02  0.93892435705E+02 -0.23001028719E+01  0.98691317910E+02  0.47000000000E+01 0.  1.
         -5    1    3    3    0  502 -0.60404972088E+02 -0.24399481453E+02 -0.36685528879E+02  0.74913372486E+02  0.47000000000E+01 0.  1.
        -11    1    4    4    0    0  0.75293884365E+02 -0.23269488476E+02 -0.26053918338E+02  0.83002679339E+02  0.00000000000E+00 0.  1.
         11    1    4    4    0    0  0.15057811667E+02 -0.46223465776E+02 -0.92559483968E+02  0.10454953158E+03  0.00000000000E+00 0. -1.
<mgrwt>
<rscale>  0 0.16285320E+03</rscale>
<asrwt>0</asrwt>
<pdfrwt beam="2">  1        1 0.39904303E-01 0.16917065E+03</pdfrwt>
<pdfrwt beam="1">  1       -1 0.15658298E-01 0.16917065E+03</pdfrwt>
<totfact> 0.30905824E+03</totfact>
</mgrwt>
</event>
<event>
 8    1  0.1020295E-005  0.1334927E+03  0.7546771E-02  0.1234963E+00
          2   -1    0    0  501    0  0.00000000000E+00  0.00000000000E+00  0.68713504861E+02  0.68713504861E+02  0.00000000000E+00 0. -1.
         -2   -1    0    0    0  501 -0.00000000000E+00 -0.00000000000E+00 -0.20417639082E+03  0.20417639082E+03  0.00000000000E+00 0.  1.
         23    2    1    2    0    0  0.71482304045E+01 -0.46381809447E+02 -0.67259402223E+02  0.14947951299E+03  0.12497170948E+03 0.  0.
         23    2    1    2    0    0 -0.71482304045E+01  0.46381809447E+02 -0.68203483740E+02  0.12341038270E+03  0.91520696662E+02 0.  0.
          5    1    3    3  502    0 -0.50005877698E+02 -0.43315336536E+01 -0.59439290978E+02  0.77938881825E+02  0.47000000000E+01 0.  1.
         -5    1    3    3    0  502  0.57154108103E+02 -0.42050275793E+02 -0.78201112450E+01  0.71540631163E+02  0.47000000000E+01 0.  1.
        -11    1    4    4    0    0  0.33848311301E+02  0.12150989155E+02 -0.59172052427E+02  0.69243674829E+02  0.00000000000E+00 0.  1.
         11    1    4    4    0    0 -0.40996541705E+02  0.34230820292E+02 -0.90314313127E+01  0.54166707868E+02  0.00000000000E+00 0. -1.
<mgrwt>
<rscale>  0 0.12506784E+03</rscale>
<asrwt>0</asrwt>
<pdfrwt beam="1">  1        2 0.10571309E-01 0.13349269E+03</pdfrwt>
<pdfrwt beam="2">  1       -2 0.31411752E-01 0.13349269E+03</pdfrwt>
<totfact> 0.53304662E+03</totfact>
</mgrwt>
</event>
<event>
 8    1  0.1020295E-005  0.1541921E+03  0.7546771E-02  0.1204160E+00
          1   -1    0    0  501    0  0.00000000000E+00  0.00000000000E+00  0.13205589002E+03  0.13205589002E+03  0.00000000000E+00 0. -1.
         -1   -1    0    0    0  501 -0.00000000000E+00 -0.00000000000E+00 -0.16570800911E+03  0.16570800911E+03  0.00000000000E+00 0.  1.
         23    2    1    2    0    0  0.38327089230E+02 -0.81731414583E+02 -0.63587054067E+02  0.16678881216E+03  0.12500481798E+03 0.  0.
         23    2    1    2    0    0 -0.38327089230E+02  0.81731414583E+02  0.29934934980E+02  0.13097508697E+03  0.90052113673E+02 0.  0.
          5    1    3    3  502    0 -0.20554695034E+02  0.17390070502E+02 -0.40901244241E+02  0.49192599245E+02  0.47000000000E+01 0.  1.
         -5    1    3    3    0  502  0.58881784264E+02 -0.99121485085E+02 -0.22685809826E+02  0.11759621291E+03  0.47000000000E+01 0.  1.
        -11    1    4    4    0    0  0.18047722866E+01  0.49947056919E+02  0.54709244878E+02  0.74101735290E+02  0.00000000000E+00 0. -1.
         11    1    4    4    0    0 -0.40131861516E+02  0.31784357663E+02 -0.24774309898E+02  0.56873351684E+02  0.00000000000E+00 0.  1.
<mgrwt>
<rscale>  0 0.14703853E+03</rscale>
<asrwt>0</asrwt>
<pdfrwt beam="1">  1        1 0.20316291E-01 0.15419207E+03</pdfrwt>
<pdfrwt beam="2">  1       -1 0.25493540E-01 0.15419207E+03</pdfrwt>
<totfact> 0.32710349E+03</totfact>
</mgrwt>
</event>
<event>
 8    1  0.1020295E-005  0.1308549E+03  0.7546771E-02  0.1241092E+00
          2   -1    0    0  501    0  0.00000000000E+00  0.00000000000E+00  0.40239927920E+02  0.40239927920E+02  0.00000000000E+00 0. -1.
         -2   -1    0    0    0  501 -0.00000000000E+00 -0.00000000000E+00 -0.35041612244E+03  0.35041612244E+03  0.00000000000E+00 0.  1.
         23    2    1    2    0    0 -0.26287634811E+02 -0.28416091432E+02 -0.23281992975E+03  0.26707325446E+03  0.12499795824E+03 0.  0.
         23    2    1    2    0    0  0.26287634811E+02  0.28416091432E+02 -0.77356264778E+02  0.12358279590E+03  0.88262119544E+02 0.  0.
          5    1    3    3  502    0 -0.76710364220E+02 -0.20344383000E+02 -0.14585659940E+03  0.16611625895E+03  0.47000000000E+01 0. -1.
         -5    1    3    3    0  502  0.50422729409E+02 -0.80717084324E+01 -0.86963330346E+02  0.10095699551E+03  0.47000000000E+01 0. -1.
        -11    1    4    4    0    0 -0.18047703665E+02 -0.15056648161E+02 -0.50947057851E+02  0.56107263033E+02  0.00000000000E+00 0.  1.
         11    1    4    4    0    0  0.44335338475E+02  0.43472739593E+02 -0.26409206928E+02  0.67475532870E+02  0.00000000000E+00 0. -1.
<mgrwt>
<rscale>  0 0.12122353E+03</rscale>
<asrwt>0</asrwt>
<pdfrwt beam="1">  1        2 0.61907581E-02 0.13085490E+03</pdfrwt>
<pdfrwt beam="2">  1       -2 0.53910173E-01 0.13085490E+03</pdfrwt>
<totfact> 0.37193152E+03</totfact>
</mgrwt>
</event>
<event>
 8    1  0.1020295E-005  0.2130953E+03  0.7546771E-02  0.1142749E+00
          1   -1    0    0  501    0  0.00000000000E+00  0.00000000000E+00  0.10632047388E+03  0.10632047388E+03  0.00000000000E+00 0. -1.
         -1   -1    0    0    0  501 -0.00000000000E+00 -0.00000000000E+00 -0.39799066248E+03  0.39799066248E+03  0.00000000000E+00 0.  1.
         23    2    1    2    0    0 -0.15540792068E+03 -0.75066271678E+02 -0.18227427086E+03  0.28041669840E+03  0.12499219164E+03 0.  0.
         23    2    1    2    0    0  0.15540792068E+03  0.75066271678E+02 -0.10939591774E+03  0.22389443796E+03  0.91513308195E+02 0.  0.
          5    1    3    3  502    0 -0.46384236817E+02 -0.53101206376E+01  0.10587310666E+02  0.48102764509E+02  0.47000000000E+01 0.  1.
         -5    1    3    3    0  502 -0.10902368386E+03 -0.69756151040E+02 -0.19286158153E+03  0.23231393389E+03  0.47000000000E+01 0.  1.
        -11    1    4    4    0    0  0.15216605016E+03  0.61331102236E+02 -0.12241144860E+03  0.20469629619E+03  0.00000000000E+00 0.  1.
         11    1    4    4    0    0  0.32418705156E+01  0.13735169442E+02  0.13015530857E+02  0.19198141773E+02  0.00000000000E+00 0. -1.
<mgrwt>
<rscale>  0 0.20851306E+03</rscale>
<asrwt>0</asrwt>
<pdfrwt beam="1">  1        1 0.16356996E-01 0.21309532E+03</pdfrwt>
<pdfrwt beam="2">  1       -1 0.61229332E-01 0.21309532E+03</pdfrwt>
<totfact> 0.92588027E+02</totfact>
</mgrwt>
</event>
<event>
 8    1  0.1020295E-005  0.1999183E+03  0.7546771E-02  0.1154266E+00
          2   -1    0    0  501    0  0.00000000000E+00  0.00000000000E+00  0.43418355367E+03  0.43418355367E+03  0.00000000000E+00 0. -1.
         -2   -1    0    0    0  501 -0.00000000000E+00 -0.00000000000E+00 -0.10688658286E+03  0.10688658286E+03  0.00000000000E+00 0.  1.
         23    2    1    2    0    0  0.54025244818E+02  0.14637134597E+03  0.42811477142E+02  0.20445087208E+03  0.12499615403E+03 0.  0.
         23    2    1    2    0    0 -0.54025244818E+02 -0.14637134597E+03  0.28448549367E+03  0.33661926444E+03  0.89650627909E+02 0.  0.
          5    1    3    3  502    0  0.49337278098E+02  0.15197797603E+02  0.51175506502E+02  0.72843411012E+02  0.47000000000E+01 0. -1.
         -5    1    3    3    0  502  0.46879667200E+01  0.13117354837E+03 -0.83640293599E+01  0.13160746107E+03  0.47000000000E+01 0. -1.
        -11    1    4    4    0    0 -0.34172896568E+02 -0.54445162526E+02  0.20042723448E+03  0.21048310835E+03  0.00000000000E+00 0. -1.
         11    1    4    4    0    0 -0.19852348250E+02 -0.91926183442E+02  0.84058259192E+02  0.12613615608E+03  0.00000000000E+00 0.  1.
<mgrwt>
<rscale>  0 0.19472645E+03</rscale>
<asrwt>0</asrwt>
<pdfrwt beam="1">  1        2 0.66797469E-01 0.19991832E+03</pdfrwt>
<pdfrwt beam="2">  1       -2 0.16444090E-01 0.19991832E+03</pdfrwt>
<totfact> 0.21193550E+03</totfact>
</mgrwt>
</event>
<event>
 8    1  0.1020295E-005  0.1963389E+03  0.7546771E-02  0.1156716E+00
          1   -1    0    0  501    0  0.00000000000E+00  0.00000000000E+00  0.49851312990E+03  0.49851312990E+03  0.00000000000E+00 0. -1.
         -1   -1    0    0    0  501 -0.00000000000E+00 -0.00000000000E+00 -0.10281059916E+03  0.10281059916E+03  0.00000000000E+00 0.  1.
         23    2    1    2    0    0  0.15140129621E+03 -0.95930477168E+00  0.36318659995E+02  0.19966971851E+03  0.12500271463E+03 0.  0.
         23    2    1    2    0    0 -0.15140129621E+03  0.95930477168E+00  0.35938387075E+03  0.40165401056E+03  0.96155628463E+02 0.  0.
          5    1    3    3  502    0  0.15771898683E+03 -0.33620874490E+02  0.38959988707E+02  0.16596871009E+03  0.47000000000E+01 0.  1.
         -5    1    3    3    0  502 -0.63176906192E+01  0.32661569718E+02 -0.26413287119E+01  0.33701008420E+02  0.47000000000E+01 0.  1.
        -11    1    4    4    0    0 -0.13574101054E+03  0.93075070278E+01  0.35898368731E+03  0.38390303383E+03  0.00000000000E+00 0. -1.
         11    1    4    4    0    0 -0.15660285667E+02 -0.83482022561E+01  0.40018344000E+00  0.17750976730E+02  0.00000000000E+00 0.  1.
<mgrwt>
<rscale>  0 0.19194849E+03</rscale>
<asrwt>0</asrwt>
<pdfrwt beam="1">  1        1 0.76694326E-01 0.19633887E+03</pdfrwt>
<pdfrwt beam="2">  1       -1 0.15817016E-01 0.19633887E+03</pdfrwt>
<totfact> 0.13338574E+03</totfact>
</mgrwt>
</event>
<event>
 8    1  0.1020295E-005  0.1259410E+03  0.7546771E-02  0.1248618E+00
          3   -1    0    0  501    0  0.00000000000E+00  0.00000000000E+00  0.84872520191E+02  0.84872520191E+02  0.00000000000E+00 0. -1.
         -3   -1    0    0    0  501 -0.00000000000E+00 -0.00000000000E+00 -0.14446448074E+03  0.14446448074E+03  0.00000000000E+00 0.  1.
         23    2    1    2    0    0 -0.12488560746E+02  0.89687540060E+01 -0.51586354958E+02  0.13609662531E+03  0.12499894681E+03 0.  0.
         23    2    1    2    0    0  0.12488560746E+02 -0.89687540060E+01 -0.80056055911E+01  0.93240375623E+02  0.91614819912E+02 0.  0.
          5    1    3    3  502    0 -0.51556095930E+02  0.44958795357E+02 -0.11825414786E+02  0.69579125766E+02  0.47000000000E+01 0. -1.
         -5    1    3    3    0  502  0.39067535184E+02 -0.35990041351E+02 -0.39760940172E+02  0.66517499541E+02  0.47000000000E+01 0. -1.
        -11    1    4    4    0    0 -0.15601991182E+02  0.17159413048E+02 -0.38016967068E+02  0.44532655097E+02  0.00000000000E+00 0.  1.
         11    1    4    4    0    0  0.28090551928E+02 -0.26128167054E+02  0.30011361477E+02  0.48707720526E+02  0.00000000000E+00 0. -1.
<mgrwt>
<rscale>  0 0.11671447E+03</rscale>
<asrwt>0</asrwt>
<pdfrwt beam="1">  1        3 0.13057311E-01 0.12594102E+03</pdfrwt>
<pdfrwt beam="2">  1       -3 0.22225305E-01 0.12594102E+03</pdfrwt>
<totfact> 0.19796425E+03</totfact>
</mgrwt>
</event>
<event>
 8    1  0.1020295E-005  0.1463734E+03  0.7546771E-02  0.1214748E+00
         -1   -1    0    0    0  501 -0.00000000000E+00  0.00000000000E+00  0.28839525179E+02  0.28839525179E+02  0.00000000000E+00 0.  1.
          1   -1    0    0  501    0  0.00000000000E+00 -0.00000000000E+00 -0.62021886044E+03  0.62021886044E+03  0.00000000000E+00 0. -1.
         23    2    1    2    0    0  0.70705101524E+02  0.28313814172E+02 -0.28411699400E+03  0.31960544924E+03  0.12499717375E+03 0.  0.
         23    2    1    2    0    0 -0.70705101524E+02 -0.28313814172E+02 -0.30726234126E+03  0.32945293639E+03  0.91259013157E+02 0.  0.
          5    1    3    3  502    0  0.90935149701E+02  0.44123972652E+01 -0.26992923044E+03  0.28490796785E+03  0.47000000000E+01 0.  1.
         -5    1    3    3    0  502 -0.20230048177E+02  0.23901416907E+02 -0.14187763567E+02  0.34697481384E+02  0.47000000000E+01 0.  1.
        -11    1    4    4    0    0  0.71775523659E+01 -0.35420836881E+02 -0.14340617381E+03  0.14789010660E+03  0.00000000000E+00 0.  1.
         11    1    4    4    0    0 -0.77882653890E+02  0.71070227090E+01 -0.16385616745E+03  0.18156282979E+03  0.00000000000E+00 0. -1.
<mgrwt>
<rscale>  0 0.13895076E+03</rscale>
<asrwt>0</asrwt>
<pdfrwt beam="2">  1        1 0.95418286E-01 0.14637342E+03</pdfrwt>
<pdfrwt beam="1">  1       -1 0.44368501E-02 0.14637342E+03</pdfrwt>
<totfact> 0.68306201E+03</totfact>
</mgrwt>
</event>
<event>
 8    1  0.1020295E-005  0.1588640E+03  0.7546771E-02  0.1197870E+00
          3   -1    0    0  501    0  0.00000000000E+00  0.00000000000E+00  0.25457217734E+02  0.25457217734E+02  0.00000000000E+00 0. -1.
         -3   -1    0    0    0  501 -0.00000000000E+00 -0.00000000000E+00 -0.84152558230E+03  0.84152558230E+03  0.00000000000E+00 0.  1.
         23    2    1    2    0    0 -0.75262786037E+02  0.62833646233E+02 -0.46090896044E+03  0.48751905304E+03  0.12500081278E+03 0.  0.
         23    2    1    2    0    0  0.75262786037E+02 -0.62833646233E+02 -0.35515940412E+03  0.37946374700E+03  0.90785345116E+02 0.  0.
          5    1    3    3  502    0  0.11999953353E+01  0.54941472137E+02 -0.70113641824E+02  0.89207724549E+02  0.47000000000E+01 0.  1.
         -5    1    3    3    0  502 -0.76462781373E+02  0.78921740962E+01 -0.39079531862E+03  0.39831132849E+03  0.47000000000E+01 0.  1.
        -11    1    4    4    0    0  0.47075986822E+02 -0.83433634932E+02 -0.29179153134E+03  0.30711499106E+03  0.00000000000E+00 0.  1.
         11    1    4    4    0    0  0.28186799215E+02  0.20599988699E+02 -0.63367872780E+02  0.72348755933E+02  0.00000000000E+00 0. -1.
<mgrwt>
<rscale>  0 0.15213796E+03</rscale>
<asrwt>0</asrwt>
<pdfrwt beam="1">  1        3 0.39164954E-02 0.15886396E+03</pdfrwt>
<pdfrwt beam="2">  1       -3 0.12946546E+00 0.15886396E+03</pdfrwt>
<totfact> 0.39301856E+02</totfact>
</mgrwt>
</event>
<event>
 8    1  0.1020295E-005  0.1484485E+03  0.7546771E-02  0.1209424E+00
         -2   -1    0    0    0  501 -0.00000000000E+00  0.00000000000E+00  0.47434282698E+02  0.47434282698E+02  0.00000000000E+00 0.  1.
          2   -1    0    0  501    0  0.00000000000E+00 -0.00000000000E+00 -0.40785593330E+03  0.40785593330E+03  0.00000000000E+00 0. -1.
         23    2    1    2    0    0  0.76107905209E+02  0.24918440446E+02 -0.16566628773E+03  0.22244613897E+03  0.12499449565E+03 0.  0.
         23    2    1    2    0    0 -0.76107905209E+02 -0.24918440446E+02 -0.19475536287E+03  0.23284407703E+03  0.99364837499E+02 0.  0.
          5    1    3    3  502    0  0.11554903822E+01 -0.45260728809E+02 -0.55415527712E+02  0.71713593147E+02  0.47000000000E+01 0. -1.
         -5    1    3    3    0  502  0.74952414827E+02  0.70179169255E+02 -0.11025076002E+03  0.15073254583E+03  0.47000000000E+01 0. -1.
        -11    1    4    4    0    0 -0.80138525357E+02 -0.51882337880E+02 -0.12045053836E+03  0.15369545348E+03  0.00000000000E+00 0. -1.
         11    1    4    4    0    0  0.40306201483E+01  0.26963897434E+02 -0.74304824513E+02  0.79148623548E+02  0.00000000000E+00 0.  1.
<mgrwt>
<rscale>  0 0.14294241E+03</rscale>
<asrwt>0</asrwt>
<pdfrwt beam="2">  1        2 0.62747066E-01 0.14844853E+03</pdfrwt>
<pdfrwt beam="1">  1       -2 0.72975820E-02 0.14844853E+03</pdfrwt>
<totfact> 0.81804037E+03</totfact>
</mgrwt>
</event>
<event>
 8    1  0.1020295E-005  0.1332531E+03  0.7546771E-02  0.1236210E+00
         -1   -1    0    0    0  501 -0.00000000000E+00  0.00000000000E+00  0.25272982718E+02  0.25272982718E+02  0.00000000000E+00 0.  1.
          1   -1    0    0  501    0  0.00000000000E+00 -0.00000000000E+00 -0.57011477060E+03  0.57011477060E+03  0.00000000000E+00 0. -1.
         23    2    1    2    0    0 -0.15742833821E+02  0.43410519030E+02 -0.24270596613E+03  0.27688005755E+03  0.12499628112E+03 0.  0.
         23    2    1    2    0    0  0.15742833821E+02 -0.43410519030E+02 -0.30213582175E+03  0.31850769577E+03  0.89603501603E+02 0.  0.
          5    1    3    3  502    0 -0.70429095218E+02  0.22123703403E+02 -0.14584859322E+03  0.16353476037E+03  0.47000000000E+01 0. -1.
         -5    1    3    3    0  502  0.54686261397E+02  0.21286815627E+02 -0.96857372907E+02  0.11334529717E+03  0.47000000000E+01 0. -1.
        -11    1    4    4    0    0  0.29357980122E+02  0.20273517231E+02 -0.10617450214E+03  0.11200862200E+03  0.00000000000E+00 0.  1.
         11    1    4    4    0    0 -0.13615146301E+02 -0.63684036261E+02 -0.19596131961E+03  0.20649907377E+03  0.00000000000E+00 0. -1.
<mgrwt>
<rscale>  0 0.12427263E+03</rscale>
<asrwt>0</asrwt>
<pdfrwt beam="2">  1        1 0.87709954E-01 0.13325307E+03</pdfrwt>
<pdfrwt beam="1">  1       -1 0.38881517E-02 0.13325307E+03</pdfrwt>
<totfact> 0.92485695E+03</totfact>
</mgrwt>
</event>
<event>
 8    1  0.1020295E-005  0.1345543E+03  0.7546771E-02  0.1233102E+00
         -1   -1    0    0    0  501 -0.00000000000E+00  0.00000000000E+00  0.44090273147E+02  0.44090273147E+02  0.00000000000E+00 0.  1.
          1   -1    0    0  501    0  0.00000000000E+00 -0.00000000000E+00 -0.32435859297E+03  0.32435859297E+03  0.00000000000E+00 0. -1.
         23    2    1    2    0    0  0.24209178726E+02 -0.43494509586E+02 -0.16657100319E+03  0.21412788417E+03  0.12500797966E+03 0.  0.
         23    2    1    2    0    0 -0.24209178726E+02  0.43494509586E+02 -0.11369731664E+03  0.15432098195E+03  0.91706210041E+02 0.  0.
          5    1    3    3  502    0 -0.48258962514E+01 -0.51577664408E+02 -0.79731252851E+01  0.52623240752E+02  0.47000000000E+01 0. -1.
         -5    1    3    3    0  502  0.29035074978E+02  0.80831548219E+01 -0.15859787790E+03  0.16150464342E+03  0.47000000000E+01 0. -1.
        -11    1    4    4    0    0 -0.75440074708E+01  0.70167622061E+02 -0.62682117812E+02  0.94389910095E+02  0.00000000000E+00 0. -1.
         11    1    4    4    0    0 -0.16665171255E+02 -0.26673112476E+02 -0.51015198827E+02  0.59931071853E+02  0.00000000000E+00 0.  1.
<mgrwt>
<rscale>  0 0.12626735E+03</rscale>
<asrwt>0</asrwt>
<pdfrwt beam="2">  1        1 0.49901322E-01 0.13455427E+03</pdfrwt>
<pdfrwt beam="1">  1       -1 0.67831189E-02 0.13455427E+03</pdfrwt>
<totfact> 0.83484834E+03</totfact>
</mgrwt>
</event>
<event>
 8    1  0.1020295E-005  0.1532558E+03  0.7546771E-02  0.1205701E+00
          2   -1    0    0  501    0  0.00000000000E+00  0.00000000000E+00  0.83204557867E+02  0.83204557867E+02  0.00000000000E+00 0. -1.
         -2   -1    0    0    0  501 -0.00000000000E+00 -0.00000000000E+00 -0.24015805587E+03  0.24015805587E+03  0.00000000000E+00 0.  1.
         23    2    1    2    0    0  0.67026775904E+02  0.58060747072E+02 -0.11247927275E+03  0.19010241257E+03  0.12499480560E+03 0.  0.
         23    2    1    2    0    0 -0.67026775904E+02 -0.58060747072E+02 -0.44474225251E+02  0.13326020117E+03  0.88975757739E+02 0.  0.
          5    1    3    3  502    0  0.28391943100E+02 -0.36571569533E+02 -0.57406847591E+02  0.73900056031E+02  0.47000000000E+01 0.  1.
         -5    1    3    3    0  502  0.38634832804E+02  0.94632316605E+02 -0.55072425163E+02  0.11620235654E+03  0.47000000000E+01 0.  1.
        -11    1    4    4    0    0 -0.34085888043E+02  0.15823072242E+02  0.57879074156E+01  0.38022588695E+02  0.00000000000E+00 0. -1.
         11    1    4    4    0    0 -0.32940887861E+02 -0.73883819314E+02 -0.50262132666E+02  0.95237612473E+02  0.00000000000E+00 0.  1.
<mgrwt>
<rscale>  0 0.14582339E+03</rscale>
<asrwt>0</asrwt>
<pdfrwt beam="1">  1        2 0.12800701E-01 0.15325580E+03</pdfrwt>
<pdfrwt beam="2">  1       -2 0.36947393E-01 0.15325580E+03</pdfrwt>
<totfact> 0.31655362E+03</totfact>
</mgrwt>
</event>
<event>
 7    1  0.1020295E-005  0.3455276E+03  0.7546771E-02  0.1116150E+00
         -2   -1    0    0    0  501 -0.00000000000E+00  0.00000000000E+00  0.26649370120E+03  0.26649370120E+03  0.00000000000E+00 0.  1.
          2   -1    0    0  501    0  0.00000000000E+00 -0.00000000000E+00 -0.21291595758E+03  0.21291595758E+03  0.00000000000E+00 0. -1.
         23    2    1    2    0    0  0.12985962507E+01 -0.45090802977E+01 -0.69898790586E+02  0.11248219588E+03  0.88002189215E+02 0.  0.
          5    1    1    2  502    0 -0.46920525299E+01  0.17352075987E+03  0.85719179531E+02  0.19365261993E+03  0.47000000000E+01 0. -1.
         -5    1    1    2    0  502  0.33934562792E+01 -0.16901167958E+03  0.37757354676E+02  0.17327484298E+03  0.47000000000E+01 0.  1.
        -11    1    3    3    0    0 -0.17473136942E+02  0.26516203621E+02  0.21440181025E+01  0.31827918291E+02  0.00000000000E+00 0. -1.
         11    1    3    3    0    0  0.18771733193E+02 -0.31025283919E+02 -0.72042808689E+02  0.80654277587E+02  0.00000000000E+00 0.  1.
<mgrwt>
<rscale>  0 0.24554977E+03</rscale>
<asrwt>0</asrwt>
<pdfrwt beam="2">  1        2 0.32756301E-01 0.34552758E+03</pdfrwt>
<pdfrwt beam="1">  1       -2 0.40999031E-01 0.34552758E+03</pdfrwt>
<totfact> 0.90755090E+02</totfact>
</mgrwt>
</event>
<event>
 8    1  0.1020295E-005  0.1533839E+03  0.7546771E-02  0.1205346E+00
          2   -1    0    0  501    0  0.00000000000E+00  0.00000000000E+00  0.27338816175E+02  0.27338816175E+02  0.00000000000E+00 0. -1.
         -2   -1    0    0    0  501 -0.00000000000E+00 -0.00000000000E+00 -0.86672593831E+03  0.86672593831E+03  0.00000000000E+00 0.  1.
         23    2    1    2    0    0  0.85204301172E+02  0.25328753996E+02 -0.63949985443E+03  0.65763719117E+03  0.12500117072E+03 0.  0.
         23    2    1    2    0    0 -0.85204301172E+02 -0.25328753996E+02 -0.19988726771E+03  0.23642756331E+03  0.89675828324E+02 0.  0.
          5    1    3    3  502    0  0.76872392903E+02 -0.23649700568E+02 -0.20471423298E+03  0.21999700068E+03  0.47000000000E+01 0.  1.
         -5    1    3    3    0  502  0.83319082686E+01  0.48978454564E+02 -0.43478562145E+03  0.43764019048E+03  0.47000000000E+01 0.  1.
        -11    1    4    4    0    0 -0.32642742843E+02 -0.55834169572E+02 -0.11643500226E+03  0.13319201516E+03  0.00000000000E+00 0. -1.
         11    1    4    4    0    0 -0.52561558329E+02  0.30505415576E+02 -0.83452265448E+02  0.10323554815E+03  0.00000000000E+00 0.  1.
<mgrwt>
<rscale>  0 0.14610204E+03</rscale>
<asrwt>0</asrwt>
<pdfrwt beam="1">  1        2 0.42059716E-02 0.15338387E+03</pdfrwt>
<pdfrwt beam="2">  1       -2 0.13334246E+00 0.15338387E+03</pdfrwt>
<totfact> 0.82888301E+02</totfact>
</mgrwt>
</event>
<event>
 8    1  0.1020295E-005  0.2446422E+03  0.7546771E-02  0.1119435E+00
          1   -1    0    0  501    0  0.00000000000E+00  0.00000000000E+00  0.29510162943E+03  0.29510162943E+03  0.00000000000E+00 0. -1.
         -1   -1    0    0    0  501 -0.00000000000E+00 -0.00000000000E+00 -0.21566933295E+03  0.21566933295E+03  0.00000000000E+00 0.  1.
         23    2    1    2    0    0  0.10304461764E+03 -0.18332088365E+03 -0.47579614521E+02  0.24922607261E+03  0.12500030378E+03 0.  0.
         23    2    1    2    0    0 -0.10304461764E+03  0.18332088365E+03  0.12701191100E+03  0.26154488977E+03  0.89716019868E+02 0.  0.
          5    1    3    3  502    0  0.77758303045E+02 -0.53449568860E+02  0.25697783611E+02  0.97906466519E+02  0.47000000000E+01 0. -1.
         -5    1    3    3    0  502  0.25286314600E+02 -0.12987131479E+03 -0.73277398132E+02  0.15131960609E+03  0.47000000000E+01 0. -1.
        -11    1    4    4    0    0 -0.64790067579E+02  0.61632820492E+02  0.94091632578E+02  0.12980598114E+03  0.00000000000E+00 0. -1.
         11    1    4    4    0    0 -0.38254550066E+02  0.12168806315E+03  0.32920278427E+02  0.13173890863E+03  0.00000000000E+00 0.  1.
<mgrwt>
<rscale>  0 0.24053815E+03</rscale>
<asrwt>0</asrwt>
<pdfrwt beam="1">  1        1 0.45400251E-01 0.24464222E+03</pdfrwt>
<pdfrwt beam="2">  1       -1 0.33179897E-01 0.24464222E+03</pdfrwt>
<totfact> 0.77000862E+02</totfact>
</mgrwt>
</event>
<event>
 8    1  0.1020295E-005  0.1367352E+03  0.7546771E-02  0.1225583E+00
          1   -1    0    0  501    0  0.00000000000E+00  0.00000000000E+00  0.61900832653E+02  0.61900832653E+02  0.00000000000E+00 0. -1.
         -1   -1    0    0    0  501 -0.00000000000E+00 -0.00000000000E+00 -0.27238259385E+03  0.27238259385E+03  0.00000000000E+00 0.  1.
         23    2    1    2    0    0  0.43703594440E+02  0.34057915969E+02 -0.15127519366E+03  0.20391347645E+03  0.12500630326E+03 0.  0.
         23    2    1    2    0    0 -0.43703594440E+02 -0.34057915969E+02 -0.59206567529E+02  0.13036995004E+03  0.10208310550E+03 0.  0.
          5    1    3    3  502    0  0.32230991877E+02 -0.30638414733E+02 -0.69346592623E+01  0.45251837463E+02  0.47000000000E+01 0.  1.
         -5    1    3    3    0  502  0.11472602563E+02  0.64696330702E+02 -0.14434053440E+03  0.15866163899E+03  0.47000000000E+01 0.  1.
        -11    1    4    4    0    0 -0.66449696761E+02 -0.21900402344E+02 -0.73005992430E+02  0.10111906226E+03  0.00000000000E+00 0.  1.
         11    1    4    4    0    0  0.22746102321E+02 -0.12157513625E+02  0.13799424901E+02  0.29250887781E+02  0.00000000000E+00 0. -1.
<mgrwt>
<rscale>  0 0.13126999E+03</rscale>
<asrwt>0</asrwt>
<pdfrwt beam="1">  1        1 0.95232048E-02 0.13673522E+03</pdfrwt>
<pdfrwt beam="2">  1       -1 0.41905016E-01 0.13673522E+03</pdfrwt>
<totfact> 0.37381025E+03</totfact>
</mgrwt>
</event>
<event>
 8    1  0.1020295E-005  0.1697132E+03  0.7546771E-02  0.1184068E+00
          1   -1    0    0  501    0  0.00000000000E+00  0.00000000000E+00  0.96961998479E+02  0.96961998479E+02  0.00000000000E+00 0. -1.
         -1   -1    0    0    0  501 -0.00000000000E+00 -0.00000000000E+00 -0.33138112239E+03  0.33138112239E+03  0.00000000000E+00 0.  1.
         23    2    1    2    0    0  0.49428383637E+02  0.10428113268E+03 -0.22169539330E+03  0.27919778374E+03  0.12443807814E+03 0.  0.
         23    2    1    2    0    0 -0.49428383637E+02 -0.10428113268E+03 -0.12723730603E+02  0.14914533713E+03  0.93620075430E+02 0.  0.
          5    1    3    3  502    0 -0.30367805509E+02  0.16389350583E+02 -0.11274041115E+03  0.11799705391E+03  0.47000000000E+01 0. -1.
         -5    1    3    3    0  502  0.79796189145E+02  0.87891782099E+02 -0.10895498215E+03  0.16120072983E+03  0.47000000000E+01 0.  1.
        -11    1    4    4    0    0 -0.50788042188E+02 -0.18536411387E+02 -0.29759225126E+02  0.61714141463E+02  0.00000000000E+00 0.  1.
         11    1    4    4    0    0  0.13596585518E+01 -0.85744721295E+02  0.17035494523E+02  0.87431195663E+02  0.00000000000E+00 0. -1.
<mgrwt>
<rscale>  0 0.16416951E+03</rscale>
<asrwt>0</asrwt>
<pdfrwt beam="1">  1        1 0.14917231E-01 0.16971316E+03</pdfrwt>
<pdfrwt beam="2">  1       -1 0.50981711E-01 0.16971316E+03</pdfrwt>
<totfact> 0.14671989E+03</totfact>
</mgrwt>
</event>
<event>
 8    1  0.1020295E-005  0.1619978E+03  0.7546771E-02  0.1194349E+00
          1   -1    0    0  501    0  0.00000000000E+00  0.00000000000E+00  0.59061336228E+03  0.59061336228E+03  0.00000000000E+00 0. -1.
         -1   -1    0    0    0  501 -0.00000000000E+00 -0.00000000000E+00 -0.38308258191E+02  0.38308258191E+02  0.00000000000E+00 0.  1.
         23    2    1    2    0    0  0.74581603114E+02 -0.71090704198E+02  0.25755554704E+03  0.30426659882E+03  0.12500799816E+03 0.  0.
         23    2    1    2    0    0 -0.74581603114E+02  0.71090704198E+02  0.29474955705E+03  0.32465502165E+03  0.88922876422E+02 0.  0.
          5    1    3    3  502    0  0.26558926704E+02 -0.64061174975E+01 -0.62297578616E+01  0.28413285838E+02  0.47000000000E+01 0. -1.
         -5    1    3    3    0  502  0.48022676410E+02 -0.64684586700E+02  0.26378530490E+03  0.27585331299E+03  0.47000000000E+01 0. -1.
        -11    1    4    4    0    0 -0.23545449018E+02  0.52727209171E+02  0.24272261485E+03  0.24949712326E+03  0.00000000000E+00 0. -1.
         11    1    4    4    0    0 -0.51036154096E+02  0.18363495027E+02  0.52026942201E+02  0.75157898383E+02  0.00000000000E+00 0.  1.
<mgrwt>
<rscale>  0 0.15509491E+03</rscale>
<asrwt>0</asrwt>
<pdfrwt beam="1">  1        1 0.90863588E-01 0.16199785E+03</pdfrwt>
<pdfrwt beam="2">  1       -1 0.58935786E-02 0.16199785E+03</pdfrwt>
<totfact> 0.48155532E+03</totfact>
</mgrwt>
</event>
<event>
 8    1  0.1020295E-005  0.1456246E+03  0.7546771E-02  0.1213814E+00
         -3   -1    0    0    0  501 -0.00000000000E+00  0.00000000000E+00  0.12481776961E+03  0.12481776961E+03  0.00000000000E+00 0.  1.
          3   -1    0    0  501    0  0.00000000000E+00 -0.00000000000E+00 -0.23777479006E+03  0.23777479006E+03  0.00000000000E+00 0. -1.
         23    2    1    2    0    0 -0.70115429803E+02  0.25776884075E+02  0.53854052121E+02  0.15526355854E+03  0.12500356967E+03 0.  0.
         23    2    1    2    0    0  0.70115429803E+02 -0.25776884075E+02 -0.16681107257E+03  0.20732900114E+03  0.97871137381E+02 0.  0.
          5    1    3    3  502    0  0.28078181125E+02  0.29557966839E+02  0.37389001662E+02  0.55516530009E+02  0.47000000000E+01 0.  1.
         -5    1    3    3    0  502 -0.98193610928E+02 -0.37810827638E+01  0.16465050459E+02  0.99747028530E+02  0.47000000000E+01 0.  1.
        -11    1    4    4    0    0  0.33306021988E+02 -0.54618717176E+02 -0.49018268944E+02  0.80593337546E+02  0.00000000000E+00 0.  1.
         11    1    4    4    0    0  0.36809407815E+02  0.28841833101E+02 -0.11779280362E+03  0.12673566359E+03  0.00000000000E+00 0. -1.
<mgrwt>
<rscale>  0 0.13964042E+03</rscale>
<asrwt>0</asrwt>
<pdfrwt beam="2">  1        3 0.36580737E-01 0.14562456E+03</pdfrwt>
<pdfrwt beam="1">  1       -3 0.19202734E-01 0.14562456E+03</pdfrwt>
<totfact> 0.41751566E+02</totfact>
</mgrwt>
</event>
<event>
 7    1  0.1020295E-005  0.1906783E+03  0.7546771E-02  0.1175724E+00
         -2   -1    0    0    0  501 -0.00000000000E+00  0.00000000000E+00  0.11830777530E+03  0.11830777530E+03  0.00000000000E+00 0.  1.
          2   -1    0    0  501    0  0.00000000000E+00 -0.00000000000E+00 -0.26418242176E+03  0.26418242176E+03  0.00000000000E+00 0. -1.
         23    2    1    2    0    0 -0.19028804254E+02 -0.85522999944E+02 -0.14426640620E+03  0.19180510677E+03  0.91105016970E+02 0.  0.
          5    1    1    2  502    0 -0.24237740534E+02  0.11647114747E+03 -0.39235564754E+02  0.12535755183E+03  0.47000000000E+01 0. -1.
         -5    1    1    2    0  502  0.43266544788E+02 -0.30948147522E+02  0.37627324495E+02  0.65327538463E+02  0.47000000000E+01 0.  1.
        -11    1    3    3    0    0 -0.42309323759E+01  0.19573200381E+02 -0.27407393726E+02  0.33943720962E+02  0.00000000000E+00 0. -1.
         11    1    3    3    0    0 -0.14797871878E+02 -0.10509620033E+03 -0.11685901247E+03  0.15786138581E+03  0.00000000000E+00 0.  1.
<mgrwt>
<rscale>  0 0.17205244E+03</rscale>
<asrwt>0</asrwt>
<pdfrwt beam="2">  1        2 0.40643449E-01 0.19067831E+03</pdfrwt>
<pdfrwt beam="1">  1       -2 0.18201196E-01 0.19067831E+03</pdfrwt>
<totfact> 0.30477117E+03</totfact>
</mgrwt>
</event>
<event>
 7    1  0.1020295E-005  0.1264490E+03  0.7546771E-02  0.1283476E+00
          1   -1    0    0  501    0  0.00000000000E+00  0.00000000000E+00  0.24416106110E+03  0.24416106110E+03  0.00000000000E+00 0. -1.
         -1   -1    0    0    0  501 -0.00000000000E+00 -0.00000000000E+00 -0.33670681560E+02  0.33670681560E+02  0.00000000000E+00 0.  1.
         23    2    1    2    0    0 -0.32962047091E+02 -0.11545025482E+02  0.11212234268E+03  0.16899931027E+03  0.12153009085E+03 0.  0.
          5    1    3    3  502    0  0.40675762613E+02 -0.19573518525E+02  0.17271816165E+02  0.48559715045E+02  0.47000000000E+01 0. -1.
         -5    1    3    3    0  502 -0.73637809704E+02  0.80284930432E+01  0.94850526511E+02  0.12043959522E+03  0.47000000000E+01 0.  1.
        -11    1    1    2    0    0  0.20376046563E+02 -0.76363901162E+01  0.63215855166E+02  0.66856129651E+02  0.00000000000E+00 0. -1.
         11    1    1    2    0    0  0.12586000527E+02  0.19181415598E+02  0.35152181699E+02  0.41976302741E+02  0.00000000000E+00 0.  1.
<mgrwt>
<rscale>  0 0.98503040E+02</rscale>
<asrwt>0</asrwt>
<pdfrwt beam="1">  1        1 0.37563239E-01 0.12644899E+03</pdfrwt>
<pdfrwt beam="2">  1       -1 0.51801050E-02 0.12644899E+03</pdfrwt>
<totfact> 0.17617497E+04</totfact>
</mgrwt>
</event>
<event>
 8    1  0.1020295E-005  0.1486693E+03  0.7546771E-02  0.1210912E+00
          2   -1    0    0  501    0  0.00000000000E+00  0.00000000000E+00  0.22350006673E+03  0.22350006673E+03  0.00000000000E+00 0. -1.
         -2   -1    0    0    0  501 -0.00000000000E+00 -0.00000000000E+00 -0.82672980011E+02  0.82672980011E+02  0.00000000000E+00 0.  1.
         23    2    1    2    0    0 -0.30918516065E+02  0.74302664337E+02  0.72596621440E+02  0.16544735656E+03  0.12500287110E+03 0.  0.
         23    2    1    2    0    0  0.30918516065E+02 -0.74302664337E+02  0.68230465279E+02  0.14072569018E+03  0.93120797476E+02 0.  0.
          5    1    3    3  502    0 -0.18845672269E+02  0.27453175289E+02  0.10284006513E+03  0.10819891494E+03  0.47000000000E+01 0. -1.
         -5    1    3    3    0  502 -0.12072843796E+02  0.46849489048E+02 -0.30243443694E+02  0.57248441620E+02  0.47000000000E+01 0. -1.
        -11    1    4    4    0    0  0.56266218805E+02 -0.78717018903E+02  0.48086520421E+02  0.10804892359E+03  0.00000000000E+00 0. -1.
         11    1    4    4    0    0 -0.25347702740E+02  0.44143545655E+01  0.20143944858E+02  0.32676766591E+02  0.00000000000E+00 0.  1.
<mgrwt>
<rscale>  0 0.14181152E+03</rscale>
<asrwt>0</asrwt>
<pdfrwt beam="1">  1        2 0.34384625E-01 0.14866929E+03</pdfrwt>
<pdfrwt beam="2">  1       -2 0.12718920E-01 0.14866929E+03</pdfrwt>
<totfact> 0.64927072E+03</totfact>
</mgrwt>
</event>
<event>
 7    1  0.1020295E-005  0.5738597E+03  0.7546771E-02  0.9961174E-01
          2   -1    0    0  501    0  0.00000000000E+00  0.00000000000E+00  0.82212195694E+03  0.82212195694E+03  0.00000000000E+00 0. -1.
         -2   -1    0    0    0  501 -0.00000000000E+00 -0.00000000000E+00 -0.10014174592E+03  0.10014174592E+03  0.00000000000E+00 0.  1.
         23    2    1    2    0    0 -0.50500576118E+00  0.51104281282E+02  0.13034020174E+02  0.13464816727E+03  0.12388842024E+03 0.  0.
          5    1    3    3  502    0 -0.36614606664E+02  0.77759510915E+02 -0.45946179675E+01  0.86199602511E+02  0.47000000000E+01 0. -1.
         -5    1    3    3    0  502  0.36109600902E+02 -0.26655229633E+02  0.17628638142E+02  0.48448564755E+02  0.47000000000E+01 0.  1.
        -11    1    1    2    0    0  0.29469747140E+02  0.11871610051E+03  0.11040724340E+03  0.16477784412E+03  0.00000000000E+00 0.  1.
         11    1    1    2    0    0 -0.28964741378E+02 -0.16982038179E+03  0.59853894745E+03  0.62283769148E+03  0.00000000000E+00 0. -1.
<mgrwt>
<rscale>  0 0.57385966E+03</rscale>
<asrwt>0</asrwt>
<pdfrwt beam="1">  1        2 0.12648030E+00 0.57385966E+03</pdfrwt>
<pdfrwt beam="2">  1       -2 0.15406423E-01 0.57385966E+03</pdfrwt>
<totfact> 0.11177017E+03</totfact>
</mgrwt>
</event>
<event>
 8    1  0.1020295E-005  0.1334852E+03  0.7546771E-02  0.1234487E+00
          2   -1    0    0  501    0  0.00000000000E+00  0.00000000000E+00  0.45171797398E+03  0.45171797398E+03  0.00000000000E+00 0. -1.
         -2   -1    0    0    0  501 -0.00000000000E+00 -0.00000000000E+00 -0.43779864873E+02  0.43779864873E+02  0.00000000000E+00 0.  1.
         23    2    1    2    0    0  0.22651449113E+02 -0.41004096454E+02  0.89927263929E+02  0.16095092177E+03  0.12499544931E+03 0.  0.
         23    2    1    2    0    0 -0.22651449113E+02  0.41004096454E+02  0.31801084518E+03  0.33454691708E+03  0.92716330843E+02 0.  0.
          5    1    3    3  502    0 -0.41410649514E+02  0.60758011159E+01  0.65089702310E+02  0.77527521560E+02  0.47000000000E+01 0.  1.
         -5    1    3    3    0  502  0.64062098627E+02 -0.47079897570E+02  0.24837561619E+02  0.83423400212E+02  0.47000000000E+01 0.  1.
        -11    1    4    4    0    0 -0.17862719782E+02  0.69821516659E+02  0.25681751939E+03  0.26673837221E+03  0.00000000000E+00 0. -1.
         11    1    4    4    0    0 -0.47887293314E+01 -0.28817420205E+02  0.61193325791E+02  0.67808544869E+02  0.00000000000E+00 0.  1.
<mgrwt>
<rscale>  0 0.12537361E+03</rscale>
<asrwt>0</asrwt>
<pdfrwt beam="1">  1        2 0.69495070E-01 0.13348515E+03</pdfrwt>
<pdfrwt beam="2">  1       -2 0.67353641E-02 0.13348515E+03</pdfrwt>
<totfact> 0.82291174E+03</totfact>
</mgrwt>
</event>
<event>
 8    1  0.1020295E-005  0.2265244E+03  0.7546771E-02  0.1132754E+00
          2   -1    0    0  501    0  0.00000000000E+00  0.00000000000E+00  0.61865770294E+03  0.61865770294E+03  0.00000000000E+00 0. -1.
         -2   -1    0    0    0  501 -0.00000000000E+00 -0.00000000000E+00 -0.78521954647E+02  0.78521954647E+02  0.00000000000E+00 0.  1.
         23    2    1    2    0    0 -0.15709302830E+02  0.18825521478E+03  0.21939404803E+03  0.31535227210E+03  0.12500599634E+03 0.  0.
         23    2    1    2    0    0  0.15709302830E+02 -0.18825521478E+03  0.32074170026E+03  0.38182738548E+03  0.85030029597E+02 0.  0.
          5    1    3    3  502    0 -0.57140577249E+02  0.39044213953E+02  0.48230100330E+02  0.84485080277E+02  0.47000000000E+01 0. -1.
         -5    1    3    3    0  502  0.41431274419E+02  0.14921100083E+03  0.17116394770E+03  0.23086719182E+03  0.47000000000E+01 0. -1.
        -11    1    4    4    0    0  0.98337799606E+01 -0.16217991263E+03  0.31507907431E+03  0.35450507804E+03  0.00000000000E+00 0.  1.
         11    1    4    4    0    0  0.58755228696E+01 -0.26075302152E+02  0.56626259461E+01  0.27322307441E+02  0.00000000000E+00 0. -1.
<mgrwt>
<rscale>  0 0.22152095E+03</rscale>
<asrwt>0</asrwt>
<pdfrwt beam="1">  1        2 0.95178105E-01 0.22652441E+03</pdfrwt>
<pdfrwt beam="2">  1       -2 0.12080301E-01 0.22652441E+03</pdfrwt>
<totfact> 0.23664668E+03</totfact>
</mgrwt>
</event>
<event>
 8    1  0.1020295E-005  0.1315516E+03  0.7546771E-02  0.1238051E+00
          2   -1    0    0  501    0  0.00000000000E+00  0.00000000000E+00  0.51301666364E+03  0.51301666364E+03  0.00000000000E+00 0. -1.
         -2   -1    0    0    0  501 -0.00000000000E+00 -0.00000000000E+00 -0.33173807926E+02  0.33173807926E+02  0.00000000000E+00 0.  1.
         23    2    1    2    0    0  0.38657521010E+02  0.13669076278E+02  0.14186663974E+03  0.19347345300E+03  0.12499834386E+03 0.  0.
         23    2    1    2    0    0 -0.38657521010E+02 -0.13669076278E+02  0.33797621597E+03  0.35271701856E+03  0.92196122724E+02 0.  0.
          5    1    3    3  502    0  0.81436861098E+02  0.27916390425E+02  0.93310862158E+02  0.12704445756E+03  0.47000000000E+01 0.  1.
         -5    1    3    3    0  502 -0.42779340088E+02 -0.14247314147E+02  0.48555777587E+02  0.66428995445E+02  0.47000000000E+01 0.  1.
        -11    1    4    4    0    0 -0.35171320683E+02 -0.49669894518E+02  0.16183939486E+03  0.17290491591E+03  0.00000000000E+00 0. -1.
         11    1    4    4    0    0 -0.34862003269E+01  0.36000818240E+02  0.17613682111E+03  0.17981210264E+03  0.00000000000E+00 0.  1.
<mgrwt>
<rscale>  0 0.12311132E+03</rscale>
<asrwt>0</asrwt>
<pdfrwt beam="1">  1        2 0.78925635E-01 0.13155164E+03</pdfrwt>
<pdfrwt beam="2">  1       -2 0.51036631E-02 0.13155164E+03</pdfrwt>
<totfact> 0.10888643E+04</totfact>
</mgrwt>
</event>
<event>
 8    1  0.1020295E-005  0.1661195E+03  0.7546771E-02  0.1188777E+00
          2   -1    0    0  501    0  0.00000000000E+00  0.00000000000E+00  0.37637568633E+02  0.37637568633E+02  0.00000000000E+00 0. -1.
         -2   -1    0    0    0  501 -0.00000000000E+00 -0.00000000000E+00 -0.67074229107E+03  0.67074229107E+03  0.00000000000E+00 0.  1.
         23    2    1    2    0    0  0.48617121080E+01 -0.10931247417E+03 -0.42245165489E+03  0.45393953247E+03  0.12499138037E+03 0.  0.
         23    2    1    2    0    0 -0.48617121080E+01  0.10931247417E+03 -0.21065306755E+03  0.25444032724E+03  0.91609562834E+02 0.  0.
          5    1    3    3  502    0  0.12259881276E+02 -0.13060027104E+02 -0.28669511068E+03  0.28729261300E+03  0.47000000000E+01 0.  1.
         -5    1    3    3    0  502 -0.73981691680E+01 -0.96252447065E+02 -0.13575654421E+03  0.16664691947E+03  0.47000000000E+01 0.  1.
        -11    1    4    4    0    0 -0.34351629993E+02  0.39504789928E+02 -0.34550763790E+02  0.62724940725E+02  0.00000000000E+00 0. -1.
         11    1    4    4    0    0  0.29489917885E+02  0.69807684241E+02 -0.17610230376E+03  0.19171538651E+03  0.00000000000E+00 0.  1.
<mgrwt>
<rscale>  0 0.15992874E+03</rscale>
<asrwt>0</asrwt>
<pdfrwt beam="1">  1        2 0.57903954E-02 0.16611953E+03</pdfrwt>
<pdfrwt beam="2">  1       -2 0.10319112E+00 0.16611953E+03</pdfrwt>
<totfact> 0.10110412E+03</totfact>
</mgrwt>
</event>
<event>
 8    1  0.1020295E-005  0.1540109E+03  0.7546771E-02  0.1203953E+00
         -1   -1    0    0    0  501 -0.00000000000E+00  0.00000000000E+00  0.38220690493E+02  0.38220690493E+02  0.00000000000E+00 0.  1.
          1   -1    0    0  501    0  0.00000000000E+00 -0.00000000000E+00 -0.52944095560E+03  0.52944095560E+03  0.00000000000E+00 0. -1.
         23    2    1    2    0    0 -0.65461580159E+02 -0.61737170032E+02 -0.23432156023E+03  0.28040321267E+03  0.12499068545E+03 0.  0.
         23    2    1    2    0    0  0.65461580159E+02  0.61737170032E+02 -0.25689870488E+03  0.28725843342E+03  0.91781078458E+02 0.  0.
          5    1    3    3  502    0 -0.30253986374E+02 -0.16267399471E+02 -0.21757946621E+03  0.22032441103E+03  0.47000000000E+01 0. -1.
         -5    1    3    3    0  502 -0.35207593784E+02 -0.45469770561E+02 -0.16742094016E+02  0.60078801644E+02  0.47000000000E+01 0. -1.
        -11    1    4    4    0    0  0.22568537287E+02  0.40736625692E+02 -0.22513661436E+03  0.22990282006E+03  0.00000000000E+00 0. -1.
         11    1    4    4    0    0  0.42893042872E+02  0.21000544340E+02 -0.31762090518E+02  0.57355613356E+02  0.00000000000E+00 0.  1.
<mgrwt>
<rscale>  0 0.14720293E+03</rscale>
<asrwt>0</asrwt>
<pdfrwt beam="2">  1        1 0.81452453E-01 0.15401093E+03</pdfrwt>
<pdfrwt beam="1">  1       -1 0.58801064E-02 0.15401093E+03</pdfrwt>
<totfact> 0.55833987E+03</totfact>
</mgrwt>
</event>
<event>
 8    1  0.1020295E-005  0.1413705E+03  0.7546771E-02  0.1222880E+00
         -1   -1    0    0    0  501 -0.00000000000E+00  0.00000000000E+00  0.29521002314E+03  0.29521002314E+03  0.00000000000E+00 0.  1.
          1   -1    0    0  501    0  0.00000000000E+00 -0.00000000000E+00 -0.73279797532E+02  0.73279797532E+02  0.00000000000E+00 0. -1.
         23    2    1    2    0    0  0.63827785536E+02  0.16865197403E+02  0.21470416480E+03  0.25706709973E+03  0.12500877685E+03 0.  0.
         23    2    1    2    0    0 -0.63827785536E+02 -0.16865197403E+02  0.72260608013E+01  0.11142272094E+03  0.89467232531E+02 0.  0.
          5    1    3    3  502    0  0.55573345096E+02 -0.49336784619E+02  0.11568254004E+03  0.13757563400E+03  0.47000000000E+01 0.  1.
         -5    1    3    3    0  502  0.82544404406E+01  0.66201982022E+02  0.99021624764E+02  0.11949146573E+03  0.47000000000E+01 0.  1.
        -11    1    4    4    0    0 -0.47435026557E+02 -0.51900618829E+02  0.15181900043E+02  0.71932232471E+02  0.00000000000E+00 0.  1.
         11    1    4    4    0    0 -0.16392758979E+02  0.35035421426E+02 -0.79558392415E+01  0.39490488468E+02  0.00000000000E+00 0. -1.
<mgrwt>
<rscale>  0 0.13313238E+03</rscale>
<asrwt>0</asrwt>
<pdfrwt beam="2">  1        1 0.11273815E-01 0.14137049E+03</pdfrwt>
<pdfrwt beam="1">  1       -1 0.45416926E-01 0.14137049E+03</pdfrwt>
<totfact> 0.25949928E+03</totfact>
</mgrwt>
</event>
<event>
 7    1  0.1020295E-005  0.1424668E+03  0.7546771E-02  0.1225117E+00
         -2   -1    0    0    0  501 -0.00000000000E+00  0.00000000000E+00  0.34551910450E+03  0.34551910450E+03  0.00000000000E+00 0.  1.
          2   -1    0    0  501    0  0.00000000000E+00 -0.00000000000E+00 -0.74500536743E+02  0.74500536743E+02  0.00000000000E+00 0. -1.
         23    2    1    2    0    0  0.41307212329E+02  0.19772374321E+02 -0.10785800416E+02  0.10424994395E+03  0.93029483208E+02 0.  0.
          5    1    1    2  502    0 -0.29473654330E+02  0.56767601994E+02  0.14365808067E+03  0.15732447704E+03  0.47000000000E+01 0. -1.
         -5    1    1    2    0  502 -0.11833557999E+02 -0.76539976315E+02  0.13814628751E+03  0.15844522026E+03  0.47000000000E+01 0.  1.
        -11    1    3    3    0    0 -0.41064510388E+01  0.43241032053E+02  0.16306010927E+02  0.46395428498E+02  0.00000000000E+00 0.  1.
         11    1    3    3    0    0  0.45413663368E+02 -0.23468657732E+02 -0.27091811343E+02  0.57854515451E+02  0.00000000000E+00 0. -1.
<mgrwt>
<rscale>  0 0.13158915E+03</rscale>
<asrwt>0</asrwt>
<pdfrwt beam="2">  1        2 0.11461621E-01 0.14246684E+03</pdfrwt>
<pdfrwt beam="1">  1       -2 0.53156784E-01 0.14246684E+03</pdfrwt>
<totfact> 0.17822486E+03</totfact>
</mgrwt>
</event>
<event>
 8    1  0.1276110E-005  0.2555018E+03  0.7546771E-02  0.1112251E+00
          2   -1    0    0  501    0  0.00000000000E+00  0.00000000000E+00  0.32010901194E+03  0.32010901194E+03  0.00000000000E+00 0. -1.
         -2   -1    0    0    0  501 -0.00000000000E+00 -0.00000000000E+00 -0.19216463790E+03  0.19216463790E+03  0.00000000000E+00 0.  1.
         23    2    1    2    0    0  0.21199317503E+03 -0.68665091411E+02  0.65268770641E+02  0.26370663695E+03  0.12500070764E+03 0.  0.
         23    2    1    2    0    0 -0.21199317503E+03  0.68665091411E+02  0.62675603403E+02  0.24856701289E+03  0.90561181524E+02 0.  0.
          5    1    3    3  502    0 -0.93602292456E+01 -0.19387220189E+02  0.25023791948E+02  0.33343040678E+02  0.47000000000E+01 0. -1.
         -5    1    3    3    0  502  0.22135340428E+03 -0.49277871222E+02  0.40244978693E+02  0.23036359627E+03  0.47000000000E+01 0.  1.
        -11    1    4    4    0    0 -0.54243371276E+02  0.26727121609E+02  0.60188155692E+02  0.85318793021E+02  0.00000000000E+00 0.  1.
         11    1    4    4    0    0 -0.15774980375E+03  0.41937969801E+02  0.24874477109E+01  0.16324821987E+03  0.00000000000E+00 0. -1.
<mgrwt>
<rscale>  0 0.25167512E+03</rscale>
<asrwt>0</asrwt>
<pdfrwt beam="1">  1        2 0.49247540E-01 0.25550182E+03</pdfrwt>
<pdfrwt beam="2">  1       -2 0.29563791E-01 0.25550182E+03</pdfrwt>
<totfact> 0.10702998E+03</totfact>
</mgrwt>
</event>
<event>
 8    1  0.1020295E-005  0.1612561E+03  0.7546771E-02  0.1195290E+00
         -2   -1    0    0    0  501 -0.00000000000E+00  0.00000000000E+00  0.67756623234E+02  0.67756623234E+02  0.00000000000E+00 0.  1.
          2   -1    0    0  501    0  0.00000000000E+00 -0.00000000000E+00 -0.33900175068E+03  0.33900175068E+03  0.00000000000E+00 0. -1.
         23    2    1    2    0    0 -0.97774965488E+02  0.28380487839E+02 -0.10470713869E+03  0.19226830383E+03  0.12505246819E+03 0.  0.
         23    2    1    2    0    0  0.97774965488E+02 -0.28380487839E+02 -0.16653798876E+03  0.21449007008E+03  0.88913961210E+02 0.  0.
          5    1    3    3  502    0 -0.18002458728E+02  0.69034517091E+02 -0.43088532220E+02  0.83477929293E+02  0.47000000000E+01 0.  1.
         -5    1    3    3    0  502 -0.79772506760E+02 -0.40654029252E+02 -0.61618606466E+02  0.10879037454E+03  0.47000000000E+01 0.  1.
        -11    1    4    4    0    0  0.19106293896E+02  0.15535968250E+01  0.79567843810E+01  0.20755108942E+02  0.00000000000E+00 0.  1.
         11    1    4    4    0    0  0.78668671592E+02 -0.29934084664E+02 -0.17449477314E+03  0.19373496114E+03  0.00000000000E+00 0. -1.
<mgrwt>
<rscale>  0 0.15429703E+03</rscale>
<asrwt>0</asrwt>
<pdfrwt beam="2">  1        2 0.52154116E-01 0.16125606E+03</pdfrwt>
<pdfrwt beam="1">  1       -2 0.10424096E-01 0.16125606E+03</pdfrwt>
<totfact> 0.57456954E+03</totfact>
</mgrwt>
</event>
<event>
 8    1  0.1020295E-005  0.1465580E+03  0.7546771E-02  0.1214495E+00
          2   -1    0    0  501    0  0.00000000000E+00  0.00000000000E+00  0.12863136859E+04  0.12863136859E+04  0.00000000000E+00 0. -1.
         -2   -1    0    0    0  501 -0.00000000000E+00 -0.00000000000E+00 -0.13898738102E+02  0.13898738102E+02  0.00000000000E+00 0.  1.
         23    2    1    2    0    0 -0.70762165687E+02  0.29130923379E+02  0.77624042126E+03  0.78995470338E+03  0.12499338786E+03 0.  0.
         23    2    1    2    0    0  0.70762165687E+02 -0.29130923379E+02  0.49617452658E+03  0.51025772066E+03  0.91202444465E+02 0.  0.
          5    1    3    3  502    0  0.35450270943E+02 -0.78988335648E+00  0.16760481476E+03  0.17137913979E+03  0.47000000000E+01 0. -1.
         -5    1    3    3    0  502 -0.10621243663E+03  0.29920806735E+02  0.60863560650E+03  0.61857556359E+03  0.47000000000E+01 0. -1.
        -11    1    4    4    0    0  0.13284333708E+02  0.29114236042E+02  0.80938196692E+02  0.87035073081E+02  0.00000000000E+00 0.  1.
         11    1    4    4    0    0  0.57477831979E+02 -0.58245159421E+02  0.41523632988E+03  0.42322264757E+03  0.00000000000E+00 0. -1.
<mgrwt>
<rscale>  0 0.13913706E+03</rscale>
<asrwt>0</asrwt>
<pdfrwt beam="1">  1        2 0.19789432E+00 0.14655798E+03</pdfrwt>
<pdfrwt beam="2">  1       -2 0.21382684E-02 0.14655798E+03</pdfrwt>
<totfact> 0.12153959E+04</totfact>
</mgrwt>
</event>
<event>
 8    1  0.1020295E-005  0.2328473E+03  0.7546771E-02  0.1127610E+00
          1   -1    0    0  501    0  0.00000000000E+00  0.00000000000E+00  0.11368508023E+03  0.11368508023E+03  0.00000000000E+00 0. -1.
         -1   -1    0    0    0  501 -0.00000000000E+00 -0.00000000000E+00 -0.47425199861E+03  0.47425199861E+03  0.00000000000E+00 0.  1.
         23    2    1    2    0    0  0.18708517897E+03  0.59940568124E+02 -0.26083070482E+03  0.34964342242E+03  0.12499652142E+03 0.  0.
         23    2    1    2    0    0 -0.18708517897E+03 -0.59940568124E+02 -0.99736213564E+02  0.23829365642E+03  0.90789969140E+02 0.  0.
          5    1    3    3  502    0  0.17035254913E+03  0.31847051541E+02 -0.26465932476E+03  0.31638722140E+03  0.47000000000E+01 0.  1.
         -5    1    3    3    0  502  0.16732629843E+02  0.28093516582E+02  0.38286199364E+01  0.33256201017E+02  0.47000000000E+01 0.  1.
        -11    1    4    4    0    0 -0.14835691480E+03 -0.80952263654E+02 -0.95265117753E+02  0.19400640665E+03  0.00000000000E+00 0.  1.
         11    1    4    4    0    0 -0.38728264165E+02  0.21011695530E+02 -0.44710958107E+01  0.44287249768E+02  0.00000000000E+00 0. -1.
<mgrwt>
<rscale>  0 0.22862648E+03</rscale>
<asrwt>0</asrwt>
<pdfrwt beam="1">  1        1 0.17490013E-01 0.23284730E+03</pdfrwt>
<pdfrwt beam="2">  1       -1 0.72961844E-01 0.23284730E+03</pdfrwt>
<totfact> 0.60085624E+02</totfact>
</mgrwt>
</event>
<event>
 8    1  0.1020295E-005  0.1938773E+03  0.7546771E-02  0.1161006E+00
          2   -1    0    0  501    0  0.00000000000E+00  0.00000000000E+00  0.97677372212E+03  0.97677372212E+03  0.00000000000E+00 0. -1.
         -2   -1    0    0    0  501 -0.00000000000E+00 -0.00000000000E+00 -0.41200004257E+02  0.41200004257E+02  0.00000000000E+00 0.  1.
         23    2    1    2    0    0 -0.13364141848E+03  0.64059513480E+02  0.27654506590E+03  0.33773595764E+03  0.12499901444E+03 0.  0.
         23    2    1    2    0    0  0.13364141848E+03 -0.64059513480E+02  0.65902865197E+03  0.68023776874E+03  0.80255890138E+02 0.  0.
          5    1    3    3  502    0 -0.20976050139E+02  0.64507385187E+02  0.16791425762E+03  0.18115872967E+03  0.47000000000E+01 0.  1.
         -5    1    3    3    0  502 -0.11266536834E+03 -0.44787170668E+00  0.10863080827E+03  0.15657722797E+03  0.47000000000E+01 0.  1.
        -11    1    4    4    0    0  0.19698528586E+02 -0.28972073469E+02  0.60167246997E+02  0.69624066821E+02  0.00000000000E+00 0. -1.
         11    1    4    4    0    0  0.11394288989E+03 -0.35087440011E+02  0.59886140497E+03  0.61061370192E+03  0.00000000000E+00 0.  1.
<mgrwt>
<rscale>  0 0.18720563E+03</rscale>
<asrwt>0</asrwt>
<pdfrwt beam="1">  1        2 0.15027286E+00 0.19387729E+03</pdfrwt>
<pdfrwt beam="2">  1       -2 0.63384629E-02 0.19387729E+03</pdfrwt>
<totfact> 0.36563346E+03</totfact>
</mgrwt>
</event>
<event>
 8    1  0.1020295E-005  0.1266763E+03  0.7546771E-02  0.1242407E+00
          2   -1    0    0  501    0  0.00000000000E+00  0.00000000000E+00  0.11363711301E+03  0.11363711301E+03  0.00000000000E+00 0. -1.
         -2   -1    0    0    0  501 -0.00000000000E+00 -0.00000000000E+00 -0.14515510446E+03  0.14515510446E+03  0.00000000000E+00 0.  1.
         23    2    1    2    0    0 -0.15830248396E+02 -0.13065742081E+02 -0.74294034878E+02  0.14685532769E+03  0.12500229306E+03 0.  0.
         23    2    1    2    0    0  0.15830248396E+02  0.13065742081E+02  0.42776043433E+02  0.11193688979E+03  0.10138425432E+03 0.  0.
          5    1    3    3  502    0 -0.34296537985E+02 -0.57897665829E+02 -0.71143439260E+02  0.98040150836E+02  0.47000000000E+01 0. -1.
         -5    1    3    3    0  502  0.18466289589E+02  0.44831923748E+02 -0.31505956180E+01  0.48815176850E+02  0.47000000000E+01 0. -1.
        -11    1    4    4    0    0  0.60810750303E+01 -0.37337629909E+02 -0.91466838587E+01  0.38919659638E+02  0.00000000000E+00 0.  1.
         11    1    4    4    0    0  0.97491733653E+01  0.50403371990E+02  0.51922727291E+02  0.73017230149E+02  0.00000000000E+00 0. -1.
<mgrwt>
<rscale>  0 0.12041896E+03</rscale>
<asrwt>0</asrwt>
<pdfrwt beam="1">  1        2 0.17482633E-01 0.12667629E+03</pdfrwt>
<pdfrwt beam="2">  1       -2 0.22331554E-01 0.12667629E+03</pdfrwt>
<totfact> 0.53415595E+03</totfact>
</mgrwt>
</event>
<event>
 8    1  0.1020295E-005  0.1656550E+03  0.7546771E-02  0.1189128E+00
          3   -1    0    0  501    0  0.00000000000E+00  0.00000000000E+00  0.25909138563E+03  0.25909138563E+03  0.00000000000E+00 0. -1.
         -3   -1    0    0    0  501 -0.00000000000E+00 -0.00000000000E+00 -0.92357761275E+02  0.92357761275E+02  0.00000000000E+00 0.  1.
         23    2    1    2    0    0 -0.14130213182E+02  0.10778080622E+03  0.75933438906E+02  0.18222916024E+03  0.12500085833E+03 0.  0.
         23    2    1    2    0    0  0.14130213182E+02 -0.10778080622E+03  0.90800185452E+02  0.16921998667E+03  0.92597867663E+02 0.  0.
          5    1    3    3  502    0 -0.60548460024E+02  0.10064666690E+03  0.45380714926E+02  0.12600542391E+03  0.47000000000E+01 0. -1.
         -5    1    3    3    0  502  0.46418246842E+02  0.71341393271E+01  0.30552723980E+02  0.56223736326E+02  0.47000000000E+01 0. -1.
        -11    1    4    4    0    0  0.29554119329E+02 -0.12623101749E-01  0.38240587082E+02  0.48329997197E+02  0.00000000000E+00 0. -1.
         11    1    4    4    0    0 -0.15423906146E+02 -0.10776818312E+03  0.52559598370E+02  0.12088998947E+03  0.00000000000E+00 0.  1.
<mgrwt>
<rscale>  0 0.15961824E+03</rscale>
<asrwt>0</asrwt>
<pdfrwt beam="1">  1        3 0.39860213E-01 0.16565500E+03</pdfrwt>
<pdfrwt beam="2">  1       -3 0.14208886E-01 0.16565500E+03</pdfrwt>
<totfact> 0.60708892E+02</totfact>
</mgrwt>
</event>
<event>
 8    1  0.1020295E-005  0.1500645E+03  0.7546771E-02  0.1209174E+00
         -1   -1    0    0    0  501 -0.00000000000E+00  0.00000000000E+00  0.24828152898E+03  0.24828152898E+03  0.00000000000E+00 0.  1.
          1   -1    0    0  501    0  0.00000000000E+00 -0.00000000000E+00 -0.76143107509E+02  0.76143107509E+02  0.00000000000E+00 0. -1.
         23    2    1    2    0    0 -0.74252345733E+02  0.37165371027E+02  0.10584609524E+03  0.18363758809E+03  0.12499876892E+03 0.  0.
         23    2    1    2    0    0  0.74252345733E+02 -0.37165371027E+02  0.66292326230E+02  0.14078704840E+03  0.92366903323E+02 0.  0.
          5    1    3    3  502    0  0.10861893396E+02 -0.64101169554E+00  0.87874335351E+02  0.88670065058E+02  0.47000000000E+01 0. -1.
         -5    1    3    3    0  502 -0.85114239129E+02  0.37806382723E+02  0.17971759890E+02  0.94967523031E+02  0.47000000000E+01 0. -1.
        -11    1    4    4    0    0  0.44790551489E+02 -0.84700373617E+01  0.84343039545E+02  0.95873267157E+02  0.00000000000E+00 0.  1.
         11    1    4    4    0    0  0.29461794244E+02 -0.28695333666E+02 -0.18050713315E+02  0.44913781242E+02  0.00000000000E+00 0. -1.
<mgrwt>
<rscale>  0 0.14313353E+03</rscale>
<asrwt>0</asrwt>
<pdfrwt beam="2">  1        1 0.11714324E-01 0.15006455E+03</pdfrwt>
<pdfrwt beam="1">  1       -1 0.38197158E-01 0.15006455E+03</pdfrwt>
<totfact> 0.33608915E+03</totfact>
</mgrwt>
</event>
<event>
 8    1  0.1020295E-005  0.1513980E+03  0.7546771E-02  0.1207766E+00
         -2   -1    0    0    0  501 -0.00000000000E+00  0.00000000000E+00  0.89666309478E+02  0.89666309478E+02  0.00000000000E+00 0.  1.
          2   -1    0    0  501    0  0.00000000000E+00 -0.00000000000E+00 -0.21716023157E+03  0.21716023157E+03  0.00000000000E+00 0. -1.
         23    2    1    2    0    0  0.44538341955E+02  0.72900561308E+02 -0.47327916231E+02  0.15862310587E+03  0.12499280907E+03 0.  0.
         23    2    1    2    0    0 -0.44538341955E+02 -0.72900561308E+02 -0.80166005862E+02  0.14820343518E+03  0.90771768512E+02 0.  0.
          5    1    3    3  502    0  0.51068894078E+02  0.10262295745E+03 -0.54493133197E+02  0.12700824738E+03  0.47000000000E+01 0. -1.
         -5    1    3    3    0  502 -0.65305521234E+01 -0.29722396138E+02  0.71652169660E+01  0.31614858491E+02  0.47000000000E+01 0. -1.
        -11    1    4    4    0    0 -0.49735037739E+02 -0.35932589408E+02 -0.17816066534E+01  0.61383214992E+02  0.00000000000E+00 0.  1.
         11    1    4    4    0    0  0.51966957839E+01 -0.36967971900E+02 -0.78384399209E+02  0.86820220184E+02  0.00000000000E+00 0. -1.
<mgrwt>
<rscale>  0 0.14421597E+03</rscale>
<asrwt>0</asrwt>
<pdfrwt beam="2">  1        2 0.33409266E-01 0.15139801E+03</pdfrwt>
<pdfrwt beam="1">  1       -2 0.13794817E-01 0.15139801E+03</pdfrwt>
<totfact> 0.58799915E+03</totfact>
</mgrwt>
</event>
<event>
 8    1  0.1020295E-005  0.1286119E+03  0.7546771E-02  0.1244373E+00
          1   -1    0    0  501    0  0.00000000000E+00  0.00000000000E+00  0.43551357339E+03  0.43551357339E+03  0.00000000000E+00 0. -1.
         -1   -1    0    0    0  501 -0.00000000000E+00 -0.00000000000E+00 -0.29579969055E+02  0.29579969055E+02  0.00000000000E+00 0.  1.
         23    2    1    2    0    0  0.28597727278E+02  0.12258177033E+02  0.19294331742E+03  0.23187961654E+03  0.12479158593E+03 0.  0.
         23    2    1    2    0    0 -0.28597727278E+02 -0.12258177033E+02  0.21299028692E+03  0.23321392591E+03  0.89753997164E+02 0.  0.
          5    1    3    3  502    0 -0.12835683834E+02  0.36416779458E+02  0.66601240295E+01  0.39463703040E+02  0.47000000000E+01 0. -1.
         -5    1    3    3    0  502  0.41433411112E+02 -0.24158602425E+02  0.18628319339E+03  0.19241591350E+03  0.47000000000E+01 0.  1.
        -11    1    4    4    0    0  0.15412978526E+02 -0.22309388341E+02  0.16803670332E+02  0.31900345638E+02  0.00000000000E+00 0.  1.
         11    1    4    4    0    0 -0.44010705804E+02  0.10051211308E+02  0.19618661659E+03  0.20131358027E+03  0.00000000000E+00 0. -1.
<mgrwt>
<rscale>  0 0.11922988E+03</rscale>
<asrwt>0</asrwt>
<pdfrwt beam="1">  1        1 0.67002083E-01 0.12861195E+03</pdfrwt>
<pdfrwt beam="2">  1       -1 0.45507648E-02 0.12861195E+03</pdfrwt>
<totfact> 0.10399261E+04</totfact>
</mgrwt>
</event>
<event>
 8    1  0.1020295E-005  0.1830885E+03  0.7546771E-02  0.1170077E+00
         -1   -1    0    0    0  501 -0.00000000000E+00  0.00000000000E+00  0.16728382827E+03  0.16728382827E+03  0.00000000000E+00 0.  1.
          1   -1    0    0  501    0  0.00000000000E+00 -0.00000000000E+00 -0.23462576020E+03  0.23462576020E+03  0.00000000000E+00 0. -1.
         23    2    1    2    0    0 -0.96702348236E+02  0.92443485312E+02  0.63084995077E+02  0.19365200331E+03  0.12499695857E+03 0.  0.
         23    2    1    2    0    0  0.96702348236E+02 -0.92443485312E+02 -0.13042692701E+03  0.20825758517E+03  0.91994001754E+02 0.  0.
          5    1    3    3  502    0 -0.23959348043E+02  0.43311511813E+02  0.89050866066E+02  0.10199060820E+03  0.47000000000E+01 0.  1.
         -5    1    3    3    0  502 -0.72743000194E+02  0.49131973499E+02 -0.25965870989E+02  0.91661395109E+02  0.47000000000E+01 0.  1.
        -11    1    4    4    0    0  0.13072848831E+02 -0.27240696087E+02 -0.89716410638E+02  0.94667783525E+02  0.00000000000E+00 0. -1.
         11    1    4    4    0    0  0.83629499405E+02 -0.65202789225E+02 -0.40710516372E+02  0.11358980164E+03  0.00000000000E+00 0.  1.
<mgrwt>
<rscale>  0 0.17766995E+03</rscale>
<asrwt>0</asrwt>
<pdfrwt beam="2">  1        1 0.36096271E-01 0.18308845E+03</pdfrwt>
<pdfrwt beam="1">  1       -1 0.25735974E-01 0.18308845E+03</pdfrwt>
<totfact> 0.15716746E+03</totfact>
</mgrwt>
</event>
<event>
 7    1  0.1020295E-005  0.1457214E+03  0.7546771E-02  0.1217322E+00
         -4   -1    0    0    0  501 -0.00000000000E+00  0.00000000000E+00  0.34200024934E+03  0.34200024934E+03  0.00000000000E+00 0.  1.
          4   -1    0    0  501    0  0.00000000000E+00 -0.00000000000E+00 -0.65411183688E+02  0.65411183688E+02  0.00000000000E+00 0. -1.
         23    2    1    2    0    0 -0.20076151762E+02  0.65598965650E+02  0.25196326257E+02  0.11683780489E+03  0.91158881244E+02 0.  0.
          5    1    1    2  502    0  0.62252782213E+02 -0.33888892374E+02  0.63244785664E+02  0.95109719973E+02  0.47000000000E+01 0. -1.
         -5    1    1    2    0  502 -0.42176630452E+02 -0.31710073277E+02  0.18814795373E+03  0.19546390817E+03  0.47000000000E+01 0.  1.
        -11    1    3    3    0    0 -0.19337347835E+02 -0.15455139959E+02 -0.12167398040E+02  0.27583327347E+02  0.00000000000E+00 0.  1.
         11    1    3    3    0    0 -0.73880392659E+00  0.81054105609E+02  0.37363724297E+02  0.89254477538E+02  0.00000000000E+00 0. -1.
<mgrwt>
<rscale>  0 0.13707337E+03</rscale>
<asrwt>0</asrwt>
<pdfrwt beam="2">  1        4 0.10063259E-01 0.14572139E+03</pdfrwt>
<pdfrwt beam="1">  1       -4 0.52615422E-01 0.14572139E+03</pdfrwt>
<totfact> 0.44130693E+02</totfact>
</mgrwt>
</event>
<event>
 8    1  0.1020295E-005  0.1478462E+03  0.7546771E-02  0.1212750E+00
         -2   -1    0    0    0  501 -0.00000000000E+00  0.00000000000E+00  0.27635933392E+03  0.27635933392E+03  0.00000000000E+00 0.  1.
          2   -1    0    0  501    0  0.00000000000E+00 -0.00000000000E+00 -0.15389004624E+03  0.15389004624E+03  0.00000000000E+00 0. -1.
         23    2    1    2    0    0 -0.29346508997E+02 -0.73293977945E+02  0.22696267244E+03  0.27086997014E+03  0.12500104500E+03 0.  0.
         23    2    1    2    0    0  0.29346508997E+02  0.73293977945E+02 -0.10449338475E+03  0.15937941002E+03  0.90827881662E+02 0.  0.
          5    1    3    3  502    0  0.27412847958E+02 -0.24090609835E+02  0.17640473113E+03  0.18020138978E+03  0.47000000000E+01 0.  1.
         -5    1    3    3    0  502 -0.56759356954E+02 -0.49203368111E+02  0.50557941313E+02  0.90668580363E+02  0.47000000000E+01 0.  1.
        -11    1    4    4    0    0  0.11464655954E+02 -0.14547028889E+02 -0.52677123993E+02  0.55838461456E+02  0.00000000000E+00 0. -1.
         11    1    4    4    0    0  0.17881853043E+02  0.87841006834E+02 -0.51816260761E+02  0.10354094856E+03  0.00000000000E+00 0.  1.
<mgrwt>
<rscale>  0 0.14043151E+03</rscale>
<asrwt>0</asrwt>
<pdfrwt beam="2">  1        2 0.23675392E-01 0.14784616E+03</pdfrwt>
<pdfrwt beam="1">  1       -2 0.42516821E-01 0.14784616E+03</pdfrwt>
<totfact> 0.11918962E+03</totfact>
</mgrwt>
</event>
<event>
 8    1  0.1020295E-005  0.1597392E+03  0.7546771E-02  0.1196973E+00
         -2   -1    0    0    0  501 -0.00000000000E+00  0.00000000000E+00  0.33202993922E+02  0.33202993922E+02  0.00000000000E+00 0.  1.
          2   -1    0    0  501    0  0.00000000000E+00 -0.00000000000E+00 -0.64981833879E+03  0.64981833879E+03  0.00000000000E+00 0. -1.
         23    2    1    2    0    0 -0.92017540606E+02 -0.37736083630E+02 -0.33463079682E+03  0.37080236323E+03  0.12500153044E+03 0.  0.
         23    2    1    2    0    0  0.92017540606E+02  0.37736083630E+02 -0.28198454805E+03  0.31221896948E+03  0.89856328535E+02 0.  0.
          5    1    3    3  502    0 -0.29120559690E+02 -0.42366734470E+02 -0.30066615474E+02  0.59741430786E+02  0.47000000000E+01 0.  1.
         -5    1    3    3    0  502 -0.62896980917E+02  0.46306508403E+01 -0.30456418134E+03  0.31106093244E+03  0.47000000000E+01 0.  1.
        -11    1    4    4    0    0  0.10879046481E+03  0.24635395644E+02 -0.25053902265E+03  0.27424819020E+03  0.00000000000E+00 0. -1.
         11    1    4    4    0    0 -0.16772924207E+02  0.13100687985E+02 -0.31445525397E+02  0.37970779286E+02  0.00000000000E+00 0.  1.
<mgrwt>
<rscale>  0 0.15288445E+03</rscale>
<asrwt>0</asrwt>
<pdfrwt beam="2">  1        2 0.99972049E-01 0.15973923E+03</pdfrwt>
<pdfrwt beam="1">  1       -2 0.51081531E-02 0.15973923E+03</pdfrwt>
<totfact> 0.84246389E+03</totfact>
</mgrwt>
</event>
<event>
 8    1  0.1020295E-005  0.2069026E+03  0.7546771E-02  0.1147741E+00
          1   -1    0    0  501    0  0.00000000000E+00  0.00000000000E+00  0.29874491869E+03  0.29874491869E+03  0.00000000000E+00 0.  1.
         -1   -1    0    0    0  501 -0.00000000000E+00 -0.00000000000E+00 -0.14163822123E+03  0.14163822123E+03  0.00000000000E+00 0. -1.
         23    2    1    2    0    0 -0.16027979655E+03 -0.38606413458E+02  0.22749415937E+02  0.20814951604E+03  0.12501446621E+03 0.  0.
         23    2    1    2    0    0  0.16027979655E+03  0.38606413458E+02  0.13435728152E+03  0.23223362388E+03  0.93276516964E+02 0.  0.
          5    1    3    3  502    0 -0.35156002283E+01 -0.20491132968E+02 -0.34213621156E+02  0.40310145719E+02  0.47000000000E+01 0.  1.
         -5    1    3    3    0  502 -0.15676419632E+03 -0.18115280490E+02  0.56963037093E+02  0.16783937032E+03  0.47000000000E+01 0.  1.
        -11    1    4    4    0    0  0.81722337272E+02 -0.27186069474E+02  0.50609988843E+02  0.99894913551E+02  0.00000000000E+00 0.  1.
         11    1    4    4    0    0  0.78557459279E+02  0.65792482933E+02  0.83747292682E+02  0.13233871032E+03  0.00000000000E+00 0. -1.
<mgrwt>
<rscale>  0 0.20238666E+03</rscale>
<asrwt>0</asrwt>
<pdfrwt beam="1">  1        1 0.45960757E-01 0.20690260E+03</pdfrwt>
<pdfrwt beam="2">  1       -1 0.21790496E-01 0.20690260E+03</pdfrwt>
<totfact> 0.15328078E+03</totfact>
</mgrwt>
</event>
<event>
 8    1  0.1020295E-005  0.1804219E+03  0.7546771E-02  0.1173137E+00
         -1   -1    0    0    0  501 -0.00000000000E+00  0.00000000000E+00  0.33504965030E+03  0.33504965030E+03  0.00000000000E+00 0.  1.
          1   -1    0    0  501    0  0.00000000000E+00 -0.00000000000E+00 -0.95188866055E+02  0.95188866055E+02  0.00000000000E+00 0. -1.
         23    2    1    2    0    0 -0.10631133663E+03 -0.75001861437E+02  0.19523929724E+03  0.26583916055E+03  0.12499878632E+03 0.  0.
         23    2    1    2    0    0  0.10631133663E+03  0.75001861437E+02  0.44621487009E+02  0.16439935580E+03  0.90048273556E+02 0.  0.
          5    1    3    3  502    0 -0.34681154600E+01 -0.65812134899E+02  0.33975281644E+02  0.74294513173E+02  0.47000000000E+01 0.  1.
         -5    1    3    3    0  502 -0.10284322117E+03 -0.91897265378E+01  0.16126401559E+03  0.19154464738E+03  0.47000000000E+01 0.  1.
        -11    1    4    4    0    0  0.90863220034E+02  0.75466562231E+02  0.68062061049E+02  0.13632230531E+03  0.00000000000E+00 0.  1.
         11    1    4    4    0    0  0.15448116598E+02 -0.46470079412E+00 -0.23440574041E+02  0.28077050497E+02  0.00000000000E+00 0. -1.
<mgrwt>
<rscale>  0 0.17459740E+03</rscale>
<asrwt>0</asrwt>
<pdfrwt beam="2">  1        1 0.14644441E-01 0.18042194E+03</pdfrwt>
<pdfrwt beam="1">  1       -1 0.51546099E-01 0.18042194E+03</pdfrwt>
<totfact> 0.14752899E+03</totfact>
</mgrwt>
</event>
<event>
 8    1  0.1020295E-005  0.1844717E+03  0.7546771E-02  0.1168979E+00
         -1   -1    0    0    0  501 -0.00000000000E+00  0.00000000000E+00  0.22226815867E+03  0.22226815867E+03  0.00000000000E+00 0.  1.
          1   -1    0    0  501    0  0.00000000000E+00 -0.00000000000E+00 -0.24567789382E+03  0.24567789382E+03  0.00000000000E+00 0. -1.
         23    2    1    2    0    0 -0.90926626365E+02 -0.10067766150E+03  0.14431930842E+03  0.23421759507E+03  0.12500470452E+03 0.  0.
         23    2    1    2    0    0  0.90926626365E+02  0.10067766150E+03 -0.16772904357E+03  0.23372845742E+03  0.89957305680E+02 0.  0.
          5    1    3    3  502    0 -0.19944520503E+02 -0.50657451811E+02 -0.11436894566E+02  0.55828790775E+02  0.47000000000E+01 0.  1.
         -5    1    3    3    0  502 -0.70982105862E+02 -0.50020209689E+02  0.15575620298E+03  0.17838880430E+03  0.47000000000E+01 0.  1.
        -11    1    4    4    0    0  0.51105741406E+02  0.72433739737E+02 -0.40513438148E+02  0.97466825779E+02  0.00000000000E+00 0.  1.
         11    1    4    4    0    0  0.39820884959E+02  0.28243921763E+02 -0.12721560542E+03  0.13626163164E+03  0.00000000000E+00 0. -1.
<mgrwt>
<rscale>  0 0.17879066E+03</rscale>
<asrwt>0</asrwt>
<pdfrwt beam="2">  1        1 0.37796599E-01 0.18447173E+03</pdfrwt>
<pdfrwt beam="1">  1       -1 0.34195101E-01 0.18447173E+03</pdfrwt>
<totfact> 0.91793044E+02</totfact>
</mgrwt>
</event>
<event>
 6    1  0.1661716E-005  0.1764900E+03  0.7546771E-02  0.1225304E+00
         -1   -1    0    0    0  501 -0.00000000000E+00  0.00000000000E+00  0.30634332693E+03  0.30634332693E+03  0.00000000000E+00 0.  1.
          1   -1    0    0  501    0  0.00000000000E+00 -0.00000000000E+00 -0.47427394555E+02  0.47427394555E+02  0.00000000000E+00 0. -1.
          5    1    1    2  502    0  0.29916778307E+02  0.80573818717E+02  0.17061899004E+03  0.19110228583E+03  0.47000000000E+01 0.  1.
         -5    1    1    2    0  502 -0.67776927536E+02 -0.43016186947E+02  0.65653549408E+02  0.10381032124E+03  0.47000000000E+01 0. -1.
        -11    1    1    2    0    0  0.16315591204E+02 -0.10022282370E+02  0.55200352108E+01  0.19927755743E+02  0.00000000000E+00 0. -1.
         11    1    1    2    0    0  0.21544558024E+02 -0.27535349400E+02  0.17123357718E+02  0.38930358675E+02  0.00000000000E+00 0.  1.
<mgrwt>
<rscale>  0 0.13146087E+03</rscale>
<asrwt>0</asrwt>
<pdfrwt beam="2">  1        1 0.72965224E-02 0.17649004E+03</pdfrwt>
<pdfrwt beam="1">  1       -1 0.47129742E-01 0.17649004E+03</pdfrwt>
<totfact> 0.43958100E+03</totfact>
</mgrwt>
</event>
<event>
 8    1  0.1020295E-005  0.1666980E+03  0.7546771E-02  0.1187455E+00
          1   -1    0    0  501    0  0.00000000000E+00  0.00000000000E+00  0.15324830334E+03  0.15324830334E+03  0.00000000000E+00 0. -1.
         -1   -1    0    0    0  501 -0.00000000000E+00 -0.00000000000E+00 -0.17677306300E+03  0.17677306300E+03  0.00000000000E+00 0.  1.
         23    2    1    2    0    0  0.10787262655E+03 -0.34770986885E+02 -0.64803881445E+02  0.17885126249E+03  0.12224036141E+03 0.  0.
         23    2    1    2    0    0 -0.10787262655E+03  0.34770986885E+02  0.41279121791E+02  0.15117010385E+03  0.91120301335E+02 0.  0.
          5    1    3    3  502    0 -0.26027533607E+02  0.37036569398E+01 -0.50174525331E+01  0.27173781671E+02  0.47000000000E+01 0. -1.
         -5    1    3    3    0  502  0.13390016015E+03 -0.38474643825E+02 -0.59786428912E+02  0.15167748082E+03  0.47000000000E+01 0.  1.
        -11    1    4    4    0    0 -0.12087681695E+03  0.44865005851E+02  0.37549584600E+02  0.13429089668E+03  0.00000000000E+00 0. -1.
         11    1    4    4    0    0  0.13004190409E+02 -0.10094018966E+02  0.37295371911E+01  0.16879207172E+02  0.00000000000E+00 0.  1.
<mgrwt>
<rscale>  0 0.16110448E+03</rscale>
<asrwt>0</asrwt>
<pdfrwt beam="1">  1        1 0.23576662E-01 0.16669802E+03</pdfrwt>
<pdfrwt beam="2">  1       -1 0.27195856E-01 0.16669802E+03</pdfrwt>
<totfact> 0.24404860E+03</totfact>
</mgrwt>
</event>
<event>
 8    1  0.1020295E-005  0.1358793E+03  0.7546771E-02  0.1230772E+00
          1   -1    0    0  501    0  0.00000000000E+00  0.00000000000E+00  0.72688533679E+02  0.72688533679E+02  0.00000000000E+00 0. -1.
         -1   -1    0    0    0  501 -0.00000000000E+00 -0.00000000000E+00 -0.23822531117E+03  0.23822531117E+03  0.00000000000E+00 0.  1.
         23    2    1    2    0    0 -0.47025512916E+02  0.25017267360E+02 -0.15179875577E+03  0.20373030960E+03  0.12500365701E+03 0.  0.
         23    2    1    2    0    0  0.47025512916E+02 -0.25017267360E+02 -0.13738021721E+02  0.10718353525E+03  0.91990838979E+02 0.  0.
          5    1    3    3  502    0 -0.37707871842E+02 -0.38991443414E+02 -0.22175587136E+02  0.58788288997E+02  0.47000000000E+01 0.  1.
         -5    1    3    3    0  502 -0.93176410741E+01  0.64008710773E+02 -0.12962316863E+03  0.14494202060E+03  0.47000000000E+01 0.  1.
        -11    1    4    4    0    0  0.71150073929E+02 -0.35668319121E+02 -0.65986689323E+01  0.79863035509E+02  0.00000000000E+00 0.  1.
         11    1    4    4    0    0 -0.24124561013E+02  0.10651051761E+02 -0.71393527884E+01  0.27320499738E+02  0.00000000000E+00 0. -1.
<mgrwt>
<rscale>  0 0.12779024E+03</rscale>
<asrwt>0</asrwt>
<pdfrwt beam="1">  1        1 0.11182851E-01 0.13587927E+03</pdfrwt>
<pdfrwt beam="2">  1       -1 0.36650048E-01 0.13587927E+03</pdfrwt>
<totfact> 0.38178042E+03</totfact>
</mgrwt>
</event>
<event>
 7    1  0.1020295E-005  0.2581713E+03  0.7546771E-02  0.1134038E+00
          2   -1    0    0  501    0  0.00000000000E+00  0.00000000000E+00  0.36882326884E+03  0.36882326884E+03  0.00000000000E+00 0. -1.
         -2   -1    0    0    0  501 -0.00000000000E+00 -0.00000000000E+00 -0.10512856323E+03  0.10512856323E+03  0.00000000000E+00 0.  1.
         23    2    1    2    0    0 -0.72745093471E+02  0.65664471571E+02  0.93591200002E+02  0.16477938673E+03  0.93751064647E+02 0.  0.
          5    1    1    2  502    0  0.75739319566E+02  0.62863447364E+02  0.14924783272E+03  0.17884424261E+03  0.47000000000E+01 0. -1.
         -5    1    1    2    0  502 -0.29942260953E+01 -0.12852791893E+03  0.20855672896E+02  0.13032820273E+03  0.47000000000E+01 0.  1.
        -11    1    3    3    0    0  0.61433381963E-01 -0.19116325964E+02  0.31740947206E+02  0.37053008271E+02  0.00000000000E+00 0.  1.
         11    1    3    3    0    0 -0.72806526853E+02  0.84780797535E+02  0.61850252796E+02  0.12772637846E+03  0.00000000000E+00 0. -1.
<mgrwt>
<rscale>  0 0.21979221E+03</rscale>
<asrwt>0</asrwt>
<pdfrwt beam="1">  1        2 0.56742041E-01 0.25817126E+03</pdfrwt>
<pdfrwt beam="2">  1       -2 0.16173625E-01 0.25817126E+03</pdfrwt>
<totfact> 0.26204926E+03</totfact>
</mgrwt>
</event>
<event>
 8    1  0.1020295E-005  0.1351123E+03  0.7546771E-02  0.1233075E+00
         -2   -1    0    0    0  501 -0.00000000000E+00  0.00000000000E+00  0.17527117629E+03  0.17527117629E+03  0.00000000000E+00 0.  1.
          2   -1    0    0  501    0  0.00000000000E+00 -0.00000000000E+00 -0.82312866820E+02  0.82312866820E+02  0.00000000000E+00 0. -1.
         23    2    1    2    0    0  0.15798639425E+02  0.48793312241E+02  0.69047387002E+02  0.15173289199E+03  0.12499977813E+03 0.  0.
         23    2    1    2    0    0 -0.15798639425E+02 -0.48793312241E+02  0.23910922466E+02  0.10585115112E+03  0.89455853097E+02 0.  0.
          5    1    3    3  502    0  0.22550175083E+02  0.88494575335E+02  0.32202810734E+02  0.96947982336E+02  0.47000000000E+01 0. -1.
         -5    1    3    3    0  502 -0.67515356589E+01 -0.39701263094E+02  0.36844576268E+02  0.54784909650E+02  0.47000000000E+01 0. -1.
        -11    1    4    4    0    0  0.35038087818E+02 -0.64449282481E+01  0.16536854724E+02  0.39276866757E+02  0.00000000000E+00 0.  1.
         11    1    4    4    0    0 -0.50836727243E+02 -0.42348383993E+02  0.73740677424E+01  0.66574284364E+02  0.00000000000E+00 0. -1.
<mgrwt>
<rscale>  0 0.12628499E+03</rscale>
<asrwt>0</asrwt>
<pdfrwt beam="2">  1        2 0.12663518E-01 0.13511228E+03</pdfrwt>
<pdfrwt beam="1">  1       -2 0.26964796E-01 0.13511228E+03</pdfrwt>
<totfact> 0.56375136E+03</totfact>
</mgrwt>
</event>
<event>
 8    1  0.1020295E-005  0.1447944E+03  0.7546771E-02  0.1216910E+00
          2   -1    0    0  501    0  0.00000000000E+00  0.00000000000E+00  0.12413941716E+03  0.12413941716E+03  0.00000000000E+00 0. -1.
         -2   -1    0    0    0  501 -0.00000000000E+00 -0.00000000000E+00 -0.14775215502E+03  0.14775215502E+03  0.00000000000E+00 0.  1.
         23    2    1    2    0    0  0.42810542992E+01  0.72953380218E+02 -0.47081170295E+02  0.15225651392E+03  0.12499954529E+03 0.  0.
         23    2    1    2    0    0 -0.42810542992E+01 -0.72953380218E+02  0.23468432439E+02  0.11963505826E+03  0.91767405613E+02 0.  0.
          5    1    3    3  502    0 -0.36274532033E+02  0.35369460492E+02 -0.74612240038E+02  0.90310114457E+02  0.47000000000E+01 0. -1.
         -5    1    3    3    0  502  0.40555586332E+02  0.37583919725E+02  0.27531069743E+02  0.61946399459E+02  0.47000000000E+01 0. -1.
        -11    1    4    4    0    0 -0.10797845050E+02 -0.93839855233E+02  0.24971154888E+02  0.97703994106E+02  0.00000000000E+00 0.  1.
         11    1    4    4    0    0  0.65167907512E+01  0.20886475015E+02 -0.15027224499E+01  0.21931064156E+02  0.00000000000E+00 0. -1.
<mgrwt>
<rscale>  0 0.13737196E+03</rscale>
<asrwt>0</asrwt>
<pdfrwt beam="1">  1        2 0.19098372E-01 0.14479437E+03</pdfrwt>
<pdfrwt beam="2">  1       -2 0.22731101E-01 0.14479437E+03</pdfrwt>
<totfact> 0.47240118E+03</totfact>
</mgrwt>
</event>
<event>
 7    1  0.1020295E-005  0.1481970E+03  0.7546771E-02  0.1218596E+00
          2   -1    0    0  501    0  0.00000000000E+00  0.00000000000E+00  0.24068102312E+03  0.24068102312E+03  0.00000000000E+00 0. -1.
         -2   -1    0    0    0  501 -0.00000000000E+00 -0.00000000000E+00 -0.15575067755E+03  0.15575067755E+03  0.00000000000E+00 0.  1.
         23    2    1    2    0    0 -0.70401576343E+01 -0.31929446634E+02  0.18820249161E+03  0.21580088277E+03  0.10040313627E+03 0.  0.
          5    1    1    2  502    0  0.61841695253E+02  0.19228115363E+02 -0.23272336043E+01  0.64974007944E+02  0.47000000000E+01 0. -1.
         -5    1    1    2    0  502 -0.54801537618E+02  0.12701331271E+02 -0.10094491244E+03  0.11565680995E+03  0.47000000000E+01 0.  1.
        -11    1    3    3    0    0 -0.37175922915E+02  0.21622733816E+02  0.93390348249E+02  0.10281706574E+03  0.00000000000E+00 0.  1.
         11    1    3    3    0    0  0.30135765281E+02 -0.53552180449E+02  0.94812143366E+02  0.11298381703E+03  0.00000000000E+00 0. -1.
<mgrwt>
<rscale>  0 0.13615644E+03</rscale>
<asrwt>0</asrwt>
<pdfrwt beam="1">  1        2 0.37027850E-01 0.14819702E+03</pdfrwt>
<pdfrwt beam="2">  1       -2 0.23961643E-01 0.14819702E+03</pdfrwt>
<totfact> 0.20834084E+03</totfact>
</mgrwt>
</event>
<event>
 8    1  0.1020295E-005  0.2690920E+03  0.7546771E-02  0.1104154E+00
          1   -1    0    0  501    0  0.00000000000E+00  0.00000000000E+00  0.32598754122E+03  0.32598754122E+03  0.00000000000E+00 0. -1.
         -1   -1    0    0    0  501 -0.00000000000E+00 -0.00000000000E+00 -0.22654701889E+03  0.22654701889E+03  0.00000000000E+00 0.  1.
         23    2    1    2    0    0 -0.14608620627E+03 -0.18826983492E+03 -0.25231809703E+02  0.27027235427E+03  0.12499516335E+03 0.  0.
         23    2    1    2    0    0  0.14608620627E+03  0.18826983492E+03  0.12467233203E+03  0.28226220583E+03  0.85685775168E+02 0.  0.
          5    1    3    3  502    0 -0.96339866122E+02 -0.93771734303E+02  0.45596310808E+02  0.14204091494E+03  0.47000000000E+01 0.  1.
         -5    1    3    3    0  502 -0.49746340150E+02 -0.94498100612E+02 -0.70828120511E+02  0.12823143933E+03  0.47000000000E+01 0.  1.
        -11    1    4    4    0    0  0.77117237333E+02  0.34460520087E+02  0.36290472587E+02  0.91932552119E+02  0.00000000000E+00 0. -1.
         11    1    4    4    0    0  0.68968968940E+02  0.15380931483E+03  0.88381859441E+02  0.19032965371E+03  0.00000000000E+00 0.  1.
<mgrwt>
<rscale>  0 0.26503742E+03</rscale>
<asrwt>0</asrwt>
<pdfrwt beam="1">  1        1 0.50151930E-01 0.26909199E+03</pdfrwt>
<pdfrwt beam="2">  1       -1 0.34853387E-01 0.26909199E+03</pdfrwt>
<totfact> 0.62338523E+02</totfact>
</mgrwt>
</event>
<event>
 8    1  0.1020295E-005  0.1569837E+03  0.7546771E-02  0.1200349E+00
          1   -1    0    0  501    0  0.00000000000E+00  0.00000000000E+00  0.42252996151E+02  0.42252996151E+02  0.00000000000E+00 0. -1.
         -1   -1    0    0    0  501 -0.00000000000E+00 -0.00000000000E+00 -0.49146922902E+03  0.49146922902E+03  0.00000000000E+00 0.  1.
         23    2    1    2    0    0  0.79569447433E+02  0.51827211636E+02 -0.24734813142E+03  0.29295901453E+03  0.12500611683E+03 0.  0.
         23    2    1    2    0    0 -0.79569447433E+02 -0.51827211636E+02 -0.20186810145E+03  0.24076321065E+03  0.90547426166E+02 0.  0.
          5    1    3    3  502    0  0.44508972775E+02 -0.38575639346E+02 -0.79394084934E+02  0.98967870195E+02  0.47000000000E+01 0. -1.
         -5    1    3    3    0  502  0.35060474658E+02  0.90402850982E+02 -0.16795404648E+03  0.19399114433E+03  0.47000000000E+01 0. -1.
        -11    1    4    4    0    0 -0.53281986049E+02 -0.26090051383E+02 -0.19436395107E+03  0.20321664866E+03  0.00000000000E+00 0.  1.
         11    1    4    4    0    0 -0.26287461384E+02 -0.25737160253E+02 -0.75041503870E+01  0.37546561985E+02  0.00000000000E+00 0. -1.
<mgrwt>
<rscale>  0 0.15010083E+03</rscale>
<asrwt>0</asrwt>
<pdfrwt beam="1">  1        1 0.65004609E-02 0.15698371E+03</pdfrwt>
<pdfrwt beam="2">  1       -1 0.75610651E-01 0.15698371E+03</pdfrwt>
<totfact> 0.20721747E+03</totfact>
</mgrwt>
</event>
<event>
 8    1  0.1020295E-005  0.1492518E+03  0.7546771E-02  0.1212265E+00
          1   -1    0    0  501    0  0.00000000000E+00  0.00000000000E+00  0.60456960482E+02  0.60456960482E+02  0.00000000000E+00 0. -1.
         -1   -1    0    0    0  501 -0.00000000000E+00 -0.00000000000E+00 -0.34013806707E+03  0.34013806707E+03  0.00000000000E+00 0.  1.
         23    2    1    2    0    0 -0.80879941077E+02 -0.10400018286E+02 -0.22588468045E+03  0.27073972975E+03  0.12500554850E+03 0.  0.
         23    2    1    2    0    0  0.80879941077E+02  0.10400018286E+02 -0.53796426138E+02  0.12985529780E+03  0.85548919646E+02 0.  0.
          5    1    3    3  502    0 -0.58633097521E+02 -0.15687160688E+01 -0.23681079414E+03  0.24401176860E+03  0.47000000000E+01 0. -1.
         -5    1    3    3    0  502 -0.22246843556E+02 -0.88313022173E+01  0.10926113688E+02  0.26727961152E+02  0.47000000000E+01 0. -1.
        -11    1    4    4    0    0  0.79051586500E+02  0.39509230213E+02 -0.34431540573E+02  0.94845472145E+02  0.00000000000E+00 0.  1.
         11    1    4    4    0    0  0.18283545775E+01 -0.29109211927E+02 -0.19364885566E+02  0.35009825656E+02  0.00000000000E+00 0. -1.
<mgrwt>
<rscale>  0 0.14079359E+03</rscale>
<asrwt>0</asrwt>
<pdfrwt beam="1">  1        1 0.93010710E-02 0.14925184E+03</pdfrwt>
<pdfrwt beam="2">  1       -1 0.52328932E-01 0.14925184E+03</pdfrwt>
<totfact> 0.25948955E+03</totfact>
</mgrwt>
</event>
<event>
 8    1  0.1020295E-005  0.1423414E+03  0.7546771E-02  0.1218431E+00
          1   -1    0    0  501    0  0.00000000000E+00  0.00000000000E+00  0.18868469477E+03  0.18868469477E+03  0.00000000000E+00 0. -1.
         -1   -1    0    0    0  501 -0.00000000000E+00 -0.00000000000E+00 -0.10050794596E+03  0.10050794596E+03  0.00000000000E+00 0.  1.
         23    2    1    2    0    0 -0.67196179226E+02 -0.11190431969E+02  0.29942357893E+01  0.14237289432E+03  0.12498209199E+03 0.  0.
         23    2    1    2    0    0  0.67196179226E+02  0.11190431969E+02  0.85182513019E+02  0.14681974641E+03  0.98282374522E+02 0.  0.
          5    1    3    3  502    0 -0.74887025363E+02  0.29397522049E+02 -0.33287116028E+02  0.87191759724E+02  0.47000000000E+01 0. -1.
         -5    1    3    3    0  502  0.76908461372E+01 -0.40587954018E+02  0.36281351817E+02  0.55181134596E+02  0.47000000000E+01 0. -1.
        -11    1    4    4    0    0  0.69335098311E+02  0.35825351067E+02  0.92506783366E+02  0.12103023013E+03  0.00000000000E+00 0. -1.
         11    1    4    4    0    0 -0.21389190846E+01 -0.24634919098E+02 -0.73242703474E+01  0.25789516280E+02  0.00000000000E+00 0.  1.
<mgrwt>
<rscale>  0 0.13627474E+03</rscale>
<asrwt>0</asrwt>
<pdfrwt beam="1">  1        1 0.29028415E-01 0.14234141E+03</pdfrwt>
<pdfrwt beam="2">  1       -1 0.15462761E-01 0.14234141E+03</pdfrwt>
<totfact> 0.46444341E+03</totfact>
</mgrwt>
</event>
<event>
 8    1  0.1020295E-005  0.1404762E+03  0.7546771E-02  0.1225992E+00
         -2   -1    0    0    0  501 -0.00000000000E+00  0.00000000000E+00  0.12752627485E+03  0.12752627485E+03  0.00000000000E+00 0.  1.
          2   -1    0    0  501    0  0.00000000000E+00 -0.00000000000E+00 -0.12779508168E+03  0.12779508168E+03  0.00000000000E+00 0. -1.
         23    2    1    2    0    0  0.33538010554E+02  0.54620891145E+02  0.32472308903E+02  0.14418046237E+03  0.12500125992E+03 0.  0.
         23    2    1    2    0    0 -0.33538010554E+02 -0.54620891145E+02 -0.32741115726E+02  0.11114089417E+03  0.84688120747E+02 0.  0.
          5    1    3    3  502    0 -0.44143447780E+02  0.40339959320E+02  0.40975356574E+01  0.60123507036E+02  0.47000000000E+01 0. -1.
         -5    1    3    3    0  502  0.77681458334E+02  0.14280931825E+02  0.28374773246E+02  0.84056955330E+02  0.47000000000E+01 0. -1.
        -11    1    4    4    0    0 -0.27273731080E+02 -0.76282964933E+02 -0.14863536150E+02  0.82364263202E+02  0.00000000000E+00 0.  1.
         11    1    4    4    0    0 -0.62642794734E+01  0.21662073788E+02 -0.17877579576E+02  0.28776630963E+02  0.00000000000E+00 0. -1.
<mgrwt>
<rscale>  0 0.13099121E+03</rscale>
<asrwt>0</asrwt>
<pdfrwt beam="2">  1        2 0.19660782E-01 0.14047617E+03</pdfrwt>
<pdfrwt beam="1">  1       -2 0.19619427E-01 0.14047617E+03</pdfrwt>
<totfact> 0.58649238E+03</totfact>
</mgrwt>
</event>
<event>
 8    1  0.1020295E-005  0.2347389E+03  0.7546771E-02  0.1126220E+00
          1   -1    0    0  501    0  0.00000000000E+00  0.00000000000E+00  0.17327982072E+03  0.17327982072E+03  0.00000000000E+00 0. -1.
         -1   -1    0    0    0  501 -0.00000000000E+00 -0.00000000000E+00 -0.30106694188E+03  0.30106694188E+03  0.00000000000E+00 0.  1.
         23    2    1    2    0    0 -0.18846739278E+03 -0.62916450697E+02 -0.95272957825E+02  0.25333630655E+03  0.12499563917E+03 0.  0.
         23    2    1    2    0    0  0.18846739278E+03  0.62916450697E+02 -0.32514163333E+02  0.22101045606E+03  0.91159272485E+02 0.  0.
          5    1    3    3  502    0 -0.11786026189E+03  0.12542118172E+02 -0.95790716928E+01  0.11900501954E+03  0.47000000000E+01 0.  1.
         -5    1    3    3    0  502 -0.70607130895E+02 -0.75458568870E+02 -0.85693886132E+02  0.13433128701E+03  0.47000000000E+01 0.  1.
        -11    1    4    4    0    0  0.12977040060E+03  0.78386628463E+02  0.11241305361E+01  0.15161162246E+03  0.00000000000E+00 0.  1.
         11    1    4    4    0    0  0.58696992179E+02 -0.15470177766E+02 -0.33638293869E+02  0.69398833602E+02  0.00000000000E+00 0. -1.
<mgrwt>
<rscale>  0 0.23059727E+03</rscale>
<asrwt>0</asrwt>
<pdfrwt beam="1">  1        1 0.26658434E-01 0.23473889E+03</pdfrwt>
<pdfrwt beam="2">  1       -1 0.46317991E-01 0.23473889E+03</pdfrwt>
<totfact> 0.83408461E+02</totfact>
</mgrwt>
</event>
<event>
 8    1  0.1020295E-005  0.1566896E+03  0.7546771E-02  0.1199427E+00
         -1   -1    0    0    0  501 -0.00000000000E+00  0.00000000000E+00  0.58633953451E+02  0.58633953451E+02  0.00000000000E+00 0.  1.
          1   -1    0    0  501    0  0.00000000000E+00 -0.00000000000E+00 -0.36969556860E+03  0.36969556860E+03  0.00000000000E+00 0. -1.
         23    2    1    2    0    0 -0.87450620635E+01  0.94073662503E+02 -0.13591220546E+03  0.20742166610E+03  0.12500115954E+03 0.  0.
         23    2    1    2    0    0  0.87450620635E+01 -0.94073662503E+02 -0.17514940969E+03  0.22090785596E+03  0.95899087700E+02 0.  0.
          5    1    3    3  502    0  0.21360630712E+02  0.11109389595E+03 -0.12935434286E+03  0.17190918032E+03  0.47000000000E+01 0.  1.
         -5    1    3    3    0  502 -0.30105692776E+02 -0.17020233447E+02 -0.65578626029E+01  0.35512485776E+02  0.47000000000E+01 0.  1.
        -11    1    4    4    0    0 -0.39836205612E+02 -0.17192776361E+02 -0.63479219959E+02  0.76890351821E+02  0.00000000000E+00 0. -1.
         11    1    4    4    0    0  0.48581267676E+02 -0.76880886143E+02 -0.11167018973E+03  0.14401750414E+03  0.00000000000E+00 0.  1.
<mgrwt>
<rscale>  0 0.15085465E+03</rscale>
<asrwt>0</asrwt>
<pdfrwt beam="2">  1        1 0.56876242E-01 0.15668957E+03</pdfrwt>
<pdfrwt beam="1">  1       -1 0.90206082E-02 0.15668957E+03</pdfrwt>
<totfact> 0.46525163E+03</totfact>
</mgrwt>
</event>
<event>
 8    1  0.1020295E-005  0.1542804E+03  0.7546771E-02  0.1203954E+00
          2   -1    0    0  501    0  0.00000000000E+00  0.00000000000E+00  0.15817088291E+03  0.15817088291E+03  0.00000000000E+00 0. -1.
         -2   -1    0    0    0  501 -0.00000000000E+00 -0.00000000000E+00 -0.12584801248E+03  0.12584801248E+03  0.00000000000E+00 0.  1.
         23    2    1    2    0    0 -0.70376961867E+02 -0.56788367204E+02  0.19950668876E+02  0.15556502736E+03  0.12499845254E+03 0.  0.
         23    2    1    2    0    0  0.70376961867E+02  0.56788367204E+02  0.12372201558E+02  0.12845386804E+03  0.90385227944E+02 0.  0.
          5    1    3    3  502    0 -0.89236430183E+02 -0.74356503024E+02  0.39606469539E+02  0.12281202076E+03  0.47000000000E+01 0.  1.
         -5    1    3    3    0  502  0.18859468316E+02  0.17568135820E+02 -0.19655800663E+02  0.32753006596E+02  0.47000000000E+01 0.  1.
        -11    1    4    4    0    0  0.67116652606E+02  0.79725124038E+02  0.14368368985E+02  0.10520071524E+03  0.00000000000E+00 0. -1.
         11    1    4    4    0    0  0.32603092612E+01 -0.22936756833E+02 -0.19961674272E+01  0.23253152795E+02  0.00000000000E+00 0.  1.
<mgrwt>
<rscale>  0 0.14720208E+03</rscale>
<asrwt>0</asrwt>
<pdfrwt beam="1">  1        2 0.24333982E-01 0.15428042E+03</pdfrwt>
<pdfrwt beam="2">  1       -2 0.19361233E-01 0.15428042E+03</pdfrwt>
<totfact> 0.47495665E+03</totfact>
</mgrwt>
</event>
<event>
 8    1  0.1020295E-005  0.1200764E+03  0.7546771E-02  0.1254283E+00
         -1   -1    0    0    0  501 -0.00000000000E+00  0.00000000000E+00  0.17965135423E+03  0.17965135423E+03  0.00000000000E+00 0.  1.
          1   -1    0    0  501    0  0.00000000000E+00 -0.00000000000E+00 -0.65347747483E+02  0.65347747483E+02  0.00000000000E+00 0. -1.
         23    2    1    2    0    0  0.17457824231E+02 -0.48914976131E+01  0.74532749564E+02  0.14132754921E+03  0.11869980216E+03 0.  0.
         23    2    1    2    0    0 -0.17457824231E+02  0.48914976131E+01  0.39770857180E+02  0.10367155250E+03  0.94007272813E+02 0.  0.
          5    1    3    3  502    0  0.28360381803E+02  0.24224982015E+02 -0.19377092882E+02  0.42293294247E+02  0.47000000000E+01 0. -1.
         -5    1    3    3    0  502 -0.10902557572E+02 -0.29116479629E+02  0.93909842446E+02  0.99034254962E+02  0.47000000000E+01 0.  1.
        -11    1    4    4    0    0  0.27222569503E+02  0.25900956312E+02 -0.38717496261E+01  0.37774571783E+02  0.00000000000E+00 0.  1.
         11    1    4    4    0    0 -0.44680393734E+02 -0.21009458699E+02  0.43642606807E+02  0.65896980720E+02  0.00000000000E+00 0. -1.
<mgrwt>
<rscale>  0 0.11346611E+03</rscale>
<asrwt>0</asrwt>
<pdfrwt beam="2">  1        1 0.10053500E-01 0.12007641E+03</pdfrwt>
<pdfrwt beam="1">  1       -1 0.27638670E-01 0.12007641E+03</pdfrwt>
<totfact> 0.70208603E+03</totfact>
</mgrwt>
</event>
<event>
 8    1  0.1020295E-005  0.1321967E+03  0.7546771E-02  0.1237499E+00
          2   -1    0    0  501    0  0.00000000000E+00  0.00000000000E+00  0.25109485347E+03  0.25109485347E+03  0.00000000000E+00 0. -1.
         -2   -1    0    0    0  501 -0.00000000000E+00 -0.00000000000E+00 -0.54219017283E+02  0.54219017283E+02  0.00000000000E+00 0.  1.
         23    2    1    2    0    0  0.11169725045E+01 -0.43003727169E+02  0.10087221882E+03  0.16628639724E+03  0.12500157279E+03 0.  0.
         23    2    1    2    0    0 -0.11169725045E+01  0.43003727169E+02  0.96003617362E+02  0.13902747351E+03  0.90892110032E+02 0.  0.
          5    1    3    3  502    0 -0.23522932131E+02 -0.75489123936E+01 -0.23580073678E+02  0.34473530267E+02  0.47000000000E+01 0. -1.
         -5    1    3    3    0  502  0.24639904636E+02 -0.35454814775E+02  0.12445229250E+03  0.13181286697E+03  0.47000000000E+01 0. -1.
        -11    1    4    4    0    0  0.34452436803E+02  0.45786413308E+02  0.31688737253E+02  0.65479325852E+02  0.00000000000E+00 0.  1.
         11    1    4    4    0    0 -0.35569409308E+02 -0.27826861390E+01  0.64314880108E+02  0.73548147659E+02  0.00000000000E+00 0. -1.
<mgrwt>
<rscale>  0 0.12345814E+03</rscale>
<asrwt>0</asrwt>
<pdfrwt beam="1">  1        2 0.38629977E-01 0.13219668E+03</pdfrwt>
<pdfrwt beam="2">  1       -2 0.83413874E-02 0.13219668E+03</pdfrwt>
<totfact> 0.11057276E+04</totfact>
</mgrwt>
</event>
<event>
 7    1  0.1020295E-005  0.1699608E+03  0.7546771E-02  0.1201224E+00
          3   -1    0    0  501    0  0.00000000000E+00  0.00000000000E+00  0.20999052791E+02  0.20999052791E+02  0.00000000000E+00 0. -1.
         -3   -1    0    0    0  501 -0.00000000000E+00 -0.00000000000E+00 -0.14920728413E+04  0.14920728413E+04  0.00000000000E+00 0.  1.
         23    2    1    2    0    0 -0.40490711046E+02  0.17301096579E+02 -0.14984697296E+03  0.18095816765E+03  0.91394296918E+02 0.  0.
          5    1    1    2  502    0  0.85706982031E+02 -0.58478272464E+02 -0.66970282068E+03  0.67770890000E+03  0.47000000000E+01 0. -1.
         -5    1    1    2    0  502 -0.45216270984E+02  0.41177175884E+02 -0.65152399483E+03  0.65440482640E+03  0.47000000000E+01 0.  1.
        -11    1    3    3    0    0 -0.50661713195E+02  0.26252089525E+02 -0.15597775668E+03  0.16608685068E+03  0.00000000000E+00 0.  1.
         11    1    3    3    0    0  0.10171002149E+02 -0.89509929457E+01  0.61307837210E+01  0.14871316971E+02  0.00000000000E+00 0. -1.
<mgrwt>
<rscale>  0 0.14939042E+03</rscale>
<asrwt>0</asrwt>
<pdfrwt beam="1">  1        3 0.32306244E-02 0.16996083E+03</pdfrwt>
<pdfrwt beam="2">  1       -3 0.22954960E+00 0.16996083E+03</pdfrwt>
<totfact> 0.11773606E+02</totfact>
</mgrwt>
</event>
<event>
 8    1  0.1020295E-005  0.1496262E+03  0.7546771E-02  0.1209950E+00
          2   -1    0    0  501    0  0.00000000000E+00  0.00000000000E+00  0.77429540952E+03  0.77429540952E+03  0.00000000000E+00 0. -1.
         -2   -1    0    0    0  501 -0.00000000000E+00 -0.00000000000E+00 -0.26301717416E+02  0.26301717416E+02  0.00000000000E+00 0.  1.
         23    2    1    2    0    0  0.82225519541E+02 -0.17342310505E+01  0.29015408520E+03  0.32646195092E+03  0.12499587442E+03 0.  0.
         23    2    1    2    0    0 -0.82225519541E+02  0.17342310505E+01  0.45783960690E+03  0.47413517601E+03  0.91776989817E+02 0.  0.
          5    1    3    3  502    0  0.59914952370E+02  0.72788297452E+01  0.29527398679E+03  0.30141599187E+03  0.47000000000E+01 0.  1.
         -5    1    3    3    0  502  0.22310567171E+02 -0.90130607957E+01 -0.51199015945E+01  0.25045959050E+02  0.47000000000E+01 0.  1.
        -11    1    4    4    0    0  0.13947712843E+02 -0.17546548885E+02  0.13066712698E+03  0.13257570722E+03  0.00000000000E+00 0. -1.
         11    1    4    4    0    0 -0.96173232384E+02  0.19280779935E+02  0.32717247992E+03  0.34155946879E+03  0.00000000000E+00 0.  1.
<mgrwt>
<rscale>  0 0.14254108E+03</rscale>
<asrwt>0</asrwt>
<pdfrwt beam="1">  1        2 0.11912235E+00 0.14962624E+03</pdfrwt>
<pdfrwt beam="2">  1       -2 0.40464187E-02 0.14962624E+03</pdfrwt>
<totfact> 0.96461474E+03</totfact>
</mgrwt>
</event>
<event>
 8    1  0.1020295E-005  0.1257935E+03  0.7546771E-02  0.1247566E+00
          3   -1    0    0  501    0  0.00000000000E+00  0.00000000000E+00  0.14262520073E+03  0.14262520073E+03  0.00000000000E+00 0. -1.
         -3   -1    0    0    0  501 -0.00000000000E+00 -0.00000000000E+00 -0.94908709836E+02  0.94908709836E+02  0.00000000000E+00 0.  1.
         23    2    1    2    0    0 -0.11860161454E+02  0.75251580236E+01 -0.10011286777E+02  0.12619126237E+03  0.12500686942E+03 0.  0.
         23    2    1    2    0    0  0.11860161454E+02 -0.75251580236E+01  0.57727777668E+02  0.11134264819E+03  0.94166860194E+02 0.  0.
          5    1    3    3  502    0 -0.29013312663E+02 -0.12385796879E+02 -0.60887588701E+02  0.68735498353E+02  0.47000000000E+01 0. -1.
         -5    1    3    3    0  502  0.17153151210E+02  0.19910954903E+02  0.50876301924E+02  0.57455764019E+02  0.47000000000E+01 0. -1.
        -11    1    4    4    0    0 -0.15556722339E+02 -0.30400880869E+02  0.66338217835E+02  0.74612226297E+02  0.00000000000E+00 0. -1.
         11    1    4    4    0    0  0.27416883793E+02  0.22875722846E+02 -0.86104401669E+01  0.36730421894E+02  0.00000000000E+00 0.  1.
<mgrwt>
<rscale>  0 0.11733101E+03</rscale>
<asrwt>0</asrwt>
<pdfrwt beam="1">  1        3 0.21942339E-01 0.12579352E+03</pdfrwt>
<pdfrwt beam="2">  1       -3 0.14601340E-01 0.12579352E+03</pdfrwt>
<totfact> 0.16755540E+03</totfact>
</mgrwt>
</event>
<event>
 8    1  0.1020295E-005  0.1157639E+03  0.7546771E-02  0.1262155E+00
         -1   -1    0    0    0  501 -0.00000000000E+00  0.00000000000E+00  0.75758219235E+03  0.75758219235E+03  0.00000000000E+00 0.  1.
          1   -1    0    0  501    0  0.00000000000E+00 -0.00000000000E+00 -0.15422076985E+02  0.15422076985E+02  0.00000000000E+00 0. -1.
         23    2    1    2    0    0  0.56753929573E+01  0.32528383878E+01  0.52028691715E+03  0.53301008094E+03  0.11557888732E+03 0.  0.
         23    2    1    2    0    0 -0.56753929573E+01 -0.32528383878E+01  0.22187319822E+03  0.23999418839E+03  0.91250771667E+02 0.  0.
          5    1    3    3  502    0 -0.48943623805E+02 -0.56860887342E+01  0.13594602789E+03  0.14467626763E+03  0.47000000000E+01 0. -1.
         -5    1    3    3    0  502  0.54619016762E+02  0.89389271220E+01  0.38434088926E+03  0.38833381332E+03  0.47000000000E+01 0.  1.
        -11    1    4    4    0    0 -0.16812747970E+02 -0.30988479039E+02  0.19967684882E+03  0.20276537743E+03  0.00000000000E+00 0.  1.
         11    1    4    4    0    0  0.11137355013E+02  0.27735640652E+02  0.22196349393E+02  0.37228810959E+02  0.00000000000E+00 0. -1.
<mgrwt>
<rscale>  0 0.10914834E+03</rscale>
<asrwt>0</asrwt>
<pdfrwt beam="2">  1        1 0.23726278E-02 0.11576386E+03</pdfrwt>
<pdfrwt beam="1">  1       -1 0.11655108E+00 0.11576386E+03</pdfrwt>
<totfact> 0.32043019E+03</totfact>
</mgrwt>
</event>
<event>
 8    1  0.1020295E-005  0.1623948E+03  0.7546771E-02  0.1198791E+00
          1   -1    0    0  501    0  0.00000000000E+00  0.00000000000E+00  0.22199346591E+03  0.22199346591E+03  0.00000000000E+00 0. -1.
         -1   -1    0    0    0  501 -0.00000000000E+00 -0.00000000000E+00 -0.12582356427E+03  0.12582356427E+03  0.00000000000E+00 0.  1.
         23    2    1    2    0    0 -0.87702986332E+02 -0.55284162657E+02 -0.37253132438E+02  0.16661289102E+03  0.12499562842E+03 0.  0.
         23    2    1    2    0    0  0.87702986332E+02  0.55284162657E+02  0.13342303408E+03  0.18120413916E+03  0.65460534472E+02 0.  0.
          5    1    3    3  502    0  0.18425949236E+02 -0.11133999083E+02  0.26994381892E+02  0.34846351237E+02  0.47000000000E+01 0.  1.
         -5    1    3    3    0  502 -0.10612893557E+03 -0.44150163575E+02 -0.64247514330E+02  0.13176653978E+03  0.47000000000E+01 0.  1.
        -11    1    4    4    0    0  0.92711281904E+01  0.14343178154E+02  0.70746434908E+02  0.72778696262E+02  0.00000000000E+00 0. -1.
         11    1    4    4    0    0  0.78431858142E+02  0.40940984504E+02  0.62676599169E+02  0.10842544290E+03  0.00000000000E+00 0.  1.
<mgrwt>
<rscale>  0 0.15137724E+03</rscale>
<asrwt>0</asrwt>
<pdfrwt beam="1">  1        1 0.34152841E-01 0.16239476E+03</pdfrwt>
<pdfrwt beam="2">  1       -1 0.19357471E-01 0.16239476E+03</pdfrwt>
<totfact> 0.26710284E+03</totfact>
</mgrwt>
</event>
<event>
 8    1  0.1020295E-005  0.1326291E+03  0.7546771E-02  0.1229395E+00
         -2   -1    0    0    0  501 -0.00000000000E+00  0.00000000000E+00  0.12773833036E+03  0.12773833036E+03  0.00000000000E+00 0.  1.
          2   -1    0    0  501    0  0.00000000000E+00 -0.00000000000E+00 -0.12441015093E+03  0.12441015093E+03  0.00000000000E+00 0. -1.
         23    2    1    2    0    0  0.38707434669E+02  0.21633125302E+02  0.17163272557E+02  0.13373503305E+03  0.12499689409E+03 0.  0.
         23    2    1    2    0    0 -0.38707434669E+02 -0.21633125302E+02 -0.13835093127E+02  0.11841344823E+03  0.10892234532E+03 0.  0.
          5    1    3    3  502    0  0.41164499528E+02  0.55322241582E+02  0.50843524880E+02  0.85803382551E+02  0.47000000000E+01 0. -1.
         -5    1    3    3    0  502 -0.24570648591E+01 -0.33689116280E+02 -0.33680252323E+02  0.47931650504E+02  0.47000000000E+01 0. -1.
        -11    1    4    4    0    0 -0.18708464992E+02  0.87280129562E+00 -0.60247185869E+02  0.63091139232E+02  0.00000000000E+00 0. -1.
         11    1    4    4    0    0 -0.19998969677E+02 -0.22505926597E+02  0.46412092742E+02  0.55322308998E+02  0.00000000000E+00 0.  1.
<mgrwt>
<rscale>  0 0.12870139E+03</rscale>
<asrwt>0</asrwt>
<pdfrwt beam="2">  1        2 0.19140023E-01 0.13262911E+03</pdfrwt>
<pdfrwt beam="1">  1       -2 0.19652051E-01 0.13262911E+03</pdfrwt>
<totfact> 0.60062383E+03</totfact>
</mgrwt>
</event>
<event>
 8    1  0.1020295E-005  0.1495898E+03  0.7546771E-02  0.1209659E+00
         -2   -1    0    0    0  501 -0.00000000000E+00  0.00000000000E+00  0.73725328523E+03  0.73725328523E+03  0.00000000000E+00 0.  1.
          2   -1    0    0  501    0  0.00000000000E+00 -0.00000000000E+00 -0.27452061033E+02  0.27452061033E+02  0.00000000000E+00 0. -1.
         23    2    1    2    0    0  0.50800111246E+02  0.64596254494E+02  0.48962215153E+03  0.51196381185E+03  0.12499506383E+03 0.  0.
         23    2    1    2    0    0 -0.50800111246E+02 -0.64596254494E+02  0.22017907267E+03  0.25274153441E+03  0.92984578173E+02 0.  0.
          5    1    3    3  502    0  0.53905285429E+02  0.61175777349E+02  0.49606743542E+03  0.50274570711E+03  0.47000000000E+01 0. -1.
         -5    1    3    3    0  502 -0.31051741836E+01  0.34204771448E+01 -0.64452838921E+01  0.92181047433E+01  0.47000000000E+01 0. -1.
        -11    1    4    4    0    0 -0.14292632211E+01 -0.25093405639E+02  0.15822939081E+01  0.25183833186E+02  0.00000000000E+00 0. -1.
         11    1    4    4    0    0 -0.49370848025E+02 -0.39502848855E+02  0.21859677876E+03  0.22755770123E+03  0.00000000000E+00 0.  1.
<mgrwt>
<rscale>  0 0.14276264E+03</rscale>
<asrwt>0</asrwt>
<pdfrwt beam="2">  1        2 0.42233946E-02 0.14958975E+03</pdfrwt>
<pdfrwt beam="1">  1       -2 0.11342357E+00 0.14958975E+03</pdfrwt>
<totfact> 0.12184801E+03</totfact>
</mgrwt>
</event>
<event>
 8    1  0.1020295E-005  0.1318072E+03  0.7546771E-02  0.1236158E+00
          1   -1    0    0  501    0  0.00000000000E+00  0.00000000000E+00  0.46310017910E+03  0.46310017910E+03  0.00000000000E+00 0.  1.
         -1   -1    0    0    0  501 -0.00000000000E+00 -0.00000000000E+00 -0.31046253705E+02  0.31046253705E+02  0.00000000000E+00 0. -1.
         23    2    1    2    0    0  0.40529672164E+02 -0.10224905868E+02  0.19728856193E+03  0.23726762238E+03  0.12500377970E+03 0.  0.
         23    2    1    2    0    0 -0.40529672164E+02  0.10224905868E+02  0.23476536347E+03  0.25687881043E+03  0.95523527647E+02 0.  0.
          5    1    3    3  502    0  0.65202031903E+01 -0.65892941403E+02  0.10154505904E+03  0.12131727738E+03  0.47000000000E+01 0.  1.
         -5    1    3    3    0  502  0.34009468973E+02  0.55668035535E+02  0.95743502890E+02  0.11595034500E+03  0.47000000000E+01 0.  1.
        -11    1    4    4    0    0 -0.20319846360E+02  0.39944275981E+02  0.20607472608E+03  0.21089152204E+03  0.00000000000E+00 0.  1.
         11    1    4    4    0    0 -0.20209825804E+02 -0.29719370113E+02  0.28690637387E+02  0.45987288380E+02  0.00000000000E+00 0. -1.
<mgrwt>
<rscale>  0 0.12430622E+03</rscale>
<asrwt>0</asrwt>
<pdfrwt beam="1">  1        1 0.71246176E-01 0.13180724E+03</pdfrwt>
<pdfrwt beam="2">  1       -1 0.47763471E-02 0.13180724E+03</pdfrwt>
<totfact> 0.89683172E+03</totfact>
</mgrwt>
</event>
<event>
 8    1  0.1020295E-005  0.1322478E+03  0.7546771E-02  0.1238909E+00
         -1   -1    0    0    0  501 -0.00000000000E+00  0.00000000000E+00  0.32309014693E+02  0.32309014693E+02  0.00000000000E+00 0.  1.
          1   -1    0    0  501    0  0.00000000000E+00 -0.00000000000E+00 -0.41051308481E+03  0.41051308481E+03  0.00000000000E+00 0. -1.
         23    2    1    2    0    0 -0.68764006668E+01 -0.42621650932E+02 -0.20326968318E+03  0.24250368375E+03  0.12500233004E+03 0.  0.
         23    2    1    2    0    0  0.68764006668E+01  0.42621650932E+02 -0.17493438693E+03  0.20031841575E+03  0.87530211609E+02 0.  0.
          5    1    3    3  502    0  0.43623003515E+02 -0.54731394706E+02 -0.68700151913E+02  0.98184993125E+02  0.47000000000E+01 0.  1.
         -5    1    3    3    0  502 -0.50499404182E+02  0.12109743774E+02 -0.13456953127E+03  0.14431869062E+03  0.47000000000E+01 0.  1.
        -11    1    4    4    0    0  0.16498625659E+02  0.67474386569E+02 -0.10960573899E+03  0.12976292040E+03  0.00000000000E+00 0.  1.
         11    1    4    4    0    0 -0.96222249917E+01 -0.24852735637E+02 -0.65328647941E+02  0.70555495351E+02  0.00000000000E+00 0. -1.
<mgrwt>
<rscale>  0 0.12257498E+03</rscale>
<asrwt>0</asrwt>
<pdfrwt beam="2">  1        1 0.63155854E-01 0.13224777E+03</pdfrwt>
<pdfrwt beam="1">  1       -1 0.49706180E-02 0.13224777E+03</pdfrwt>
<totfact> 0.98607309E+03</totfact>
</mgrwt>
</event>
<event>
 8    1  0.1020295E-005  0.1425354E+03  0.7546771E-02  0.1220480E+00
          3   -1    0    0  501    0  0.00000000000E+00  0.00000000000E+00  0.57973618541E+02  0.57973618541E+02  0.00000000000E+00 0. -1.
         -3   -1    0    0    0  501 -0.00000000000E+00 -0.00000000000E+00 -0.41207124424E+03  0.41207124424E+03  0.00000000000E+00 0.  1.
         23    2    1    2    0    0  0.62373168572E+02 -0.28329403045E+02 -0.32106407379E+03  0.35128118398E+03  0.12499345383E+03 0.  0.
         23    2    1    2    0    0 -0.62373168572E+02  0.28329403045E+02 -0.33033551907E+02  0.11876367880E+03  0.91217479777E+02 0.  0.
          5    1    3    3  502    0  0.78678463200E+02  0.14290651113E+02 -0.11484536342E+03  0.14002167968E+03  0.47000000000E+01 0.  1.
         -5    1    3    3    0  502 -0.16305294628E+02 -0.42620054157E+02 -0.20621871037E+03  0.21125950430E+03  0.47000000000E+01 0.  1.
        -11    1    4    4    0    0  0.10996591455E+02  0.32456828566E+02  0.71526043269E+01  0.35007577649E+02  0.00000000000E+00 0. -1.
         11    1    4    4    0    0 -0.73369760027E+02 -0.41274255212E+01 -0.40186156234E+02  0.83756101155E+02  0.00000000000E+00 0.  1.
<mgrwt>
<rscale>  0 0.13481606E+03</rscale>
<asrwt>0</asrwt>
<pdfrwt beam="1">  1        3 0.89190183E-02 0.14253537E+03</pdfrwt>
<pdfrwt beam="2">  1       -3 0.63395575E-01 0.14253537E+03</pdfrwt>
<totfact> 0.51113112E+02</totfact>
</mgrwt>
</event>
<event>
 8    1  0.1020295E-005  0.1336215E+03  0.7546771E-02  0.1234406E+00
          2   -1    0    0  501    0  0.00000000000E+00  0.00000000000E+00  0.95150230134E+03  0.95150230134E+03  0.00000000000E+00 0. -1.
         -2   -1    0    0    0  501 -0.00000000000E+00 -0.00000000000E+00 -0.17336637884E+02  0.17336637884E+02  0.00000000000E+00 0.  1.
         23    2    1    2    0    0 -0.25612666158E+01  0.47135641623E+02  0.33333823523E+03  0.35912266683E+03  0.12500552773E+03 0.  0.
         23    2    1    2    0    0  0.25612666158E+01 -0.47135641623E+02  0.60082742823E+03  0.60971627240E+03  0.92368855807E+02 0.  0.
          5    1    3    3  502    0 -0.17217822026E+02  0.68630876339E+02  0.91103570883E+02  0.11544956132E+03  0.47000000000E+01 0. -1.
         -5    1    3    3    0  502  0.14656555410E+02 -0.21495234716E+02  0.24223466435E+03  0.24367310550E+03  0.47000000000E+01 0. -1.
        -11    1    4    4    0    0  0.15950298638E+02  0.25386659939E+02  0.17561559702E+03  0.17815648303E+03  0.00000000000E+00 0.  1.
         11    1    4    4    0    0 -0.13389032022E+02 -0.72522301562E+02  0.42521183120E+03  0.43155978937E+03  0.00000000000E+00 0. -1.
<mgrwt>
<rscale>  0 0.12542541E+03</rscale>
<asrwt>0</asrwt>
<pdfrwt beam="1">  1        2 0.14638493E+00 0.13362152E+03</pdfrwt>
<pdfrwt beam="2">  1       -2 0.26671758E-02 0.13362152E+03</pdfrwt>
<totfact> 0.13605098E+04</totfact>
</mgrwt>
</event>
<event>
 8    1  0.1020295E-005  0.1757964E+03  0.7546771E-02  0.1180427E+00
         -1   -1    0    0    0  501 -0.00000000000E+00  0.00000000000E+00  0.70308374772E+02  0.70308374772E+02  0.00000000000E+00 0.  1.
          1   -1    0    0  501    0  0.00000000000E+00 -0.00000000000E+00 -0.36607301503E+03  0.36607301503E+03  0.00000000000E+00 0. -1.
         23    2    1    2    0    0  0.65135325186E+02  0.10506420561E+03 -0.16311036630E+03  0.23981107074E+03  0.12499304048E+03 0.  0.
         23    2    1    2    0    0 -0.65135325186E+02 -0.10506420561E+03 -0.13265427396E+03  0.19657031906E+03  0.75905441503E+02 0.  0.
          5    1    3    3  502    0  0.85001405591E+02  0.55676439469E+02 -0.15552246352E+03  0.18583441964E+03  0.47000000000E+01 0. -1.
         -5    1    3    3    0  502 -0.19866080405E+02  0.49387766141E+02 -0.75879027800E+01  0.53976651097E+02  0.47000000000E+01 0. -1.
        -11    1    4    4    0    0 -0.12666810071E+02 -0.87654775672E+02 -0.93771085726E+02  0.12898381408E+03  0.00000000000E+00 0. -1.
         11    1    4    4    0    0 -0.52468515115E+02 -0.17409429937E+02 -0.38883188230E+02  0.67586504985E+02  0.00000000000E+00 0.  1.
<mgrwt>
<rscale>  0 0.16755028E+03</rscale>
<asrwt>0</asrwt>
<pdfrwt beam="2">  1        1 0.56318925E-01 0.17579635E+03</pdfrwt>
<pdfrwt beam="1">  1       -1 0.10816673E-01 0.17579635E+03</pdfrwt>
<totfact> 0.35849194E+03</totfact>
</mgrwt>
</event>
<event>
 8    1  0.1020295E-005  0.1838025E+03  0.7546771E-02  0.1169296E+00
         -1   -1    0    0    0  501 -0.00000000000E+00  0.00000000000E+00  0.38609372901E+02  0.38609372901E+02  0.00000000000E+00 0.  1.
          1   -1    0    0  501    0  0.00000000000E+00 -0.00000000000E+00 -0.88039746479E+03  0.88039746479E+03  0.00000000000E+00 0. -1.
         23    2    1    2    0    0 -0.66028960249E+02 -0.11745989625E+03 -0.28825532771E+03  0.34186913736E+03  0.12500688905E+03 0.  0.
         23    2    1    2    0    0  0.66028960249E+02  0.11745989625E+03 -0.55353276418E+03  0.57713770033E+03  0.92372903486E+02 0.  0.
          5    1    3    3  502    0 -0.28879801267E+02  0.22918435087E+02 -0.43252602085E+02  0.57027845613E+02  0.47000000000E+01 0.  1.
         -5    1    3    3    0  502 -0.37149158982E+02 -0.14037833134E+03 -0.24500272562E+03  0.28484129175E+03  0.47000000000E+01 0.  1.
        -11    1    4    4    0    0  0.48861934461E+02  0.23148152891E+02 -0.10098352317E+03  0.11454692302E+03  0.00000000000E+00 0.  1.
         11    1    4    4    0    0  0.17167025788E+02  0.94311743364E+02 -0.45254924101E+03  0.46259077731E+03  0.00000000000E+00 0. -1.
<mgrwt>
<rscale>  0 0.17846620E+03</rscale>
<asrwt>0</asrwt>
<pdfrwt beam="2">  1        1 0.13544575E+00 0.18380254E+03</pdfrwt>
<pdfrwt beam="1">  1       -1 0.59399041E-02 0.18380254E+03</pdfrwt>
<totfact> 0.26632443E+03</totfact>
</mgrwt>
</event>
<event>
 8    1  0.1020295E-005  0.1785718E+03  0.7546771E-02  0.1175234E+00
          1   -1    0    0  501    0  0.00000000000E+00  0.00000000000E+00  0.38332069703E+03  0.38332069703E+03  0.00000000000E+00 0. -1.
         -1   -1    0    0    0  501 -0.00000000000E+00 -0.00000000000E+00 -0.90514894630E+02  0.90514894630E+02  0.00000000000E+00 0.  1.
         23    2    1    2    0    0 -0.76421684302E+02  0.10209162736E+03  0.49989199059E+02  0.18543684721E+03  0.12499972028E+03 0.  0.
         23    2    1    2    0    0  0.76421684302E+02 -0.10209162736E+03  0.24281660334E+03  0.28839874445E+03  0.89168148656E+02 0.  0.
          5    1    3    3  502    0 -0.99930996596E+02  0.44726823622E+02  0.55835636218E+02  0.12298943493E+03  0.47000000000E+01 0. -1.
         -5    1    3    3    0  502  0.23509312295E+02  0.57364803741E+02 -0.58464371589E+01  0.62447412279E+02  0.47000000000E+01 0. -1.
        -11    1    4    4    0    0  0.47404490796E+02 -0.40855914367E+02  0.39300855211E+02  0.73898232095E+02  0.00000000000E+00 0.  1.
         11    1    4    4    0    0  0.29017193506E+02 -0.61235712996E+02  0.20351574813E+03  0.21450051236E+03  0.00000000000E+00 0. -1.
<mgrwt>
<rscale>  0 0.17253131E+03</rscale>
<asrwt>0</asrwt>
<pdfrwt beam="1">  1        1 0.58972414E-01 0.17857185E+03</pdfrwt>
<pdfrwt beam="2">  1       -1 0.13925369E-01 0.17857185E+03</pdfrwt>
<totfact> 0.22843988E+03</totfact>
</mgrwt>
</event>
<event>
 8    1  0.1020295E-005  0.1607019E+03  0.7546771E-02  0.1195473E+00
          2   -1    0    0  501    0  0.00000000000E+00  0.00000000000E+00  0.20804599874E+03  0.20804599874E+03  0.00000000000E+00 0. -1.
         -2   -1    0    0    0  501 -0.00000000000E+00 -0.00000000000E+00 -0.10816240264E+03  0.10816240264E+03  0.00000000000E+00 0.  1.
         23    2    1    2    0    0 -0.84912833917E+02  0.54938524990E+02  0.30738682172E+02  0.16361530782E+03  0.12488663451E+03 0.  0.
         23    2    1    2    0    0  0.84912833917E+02 -0.54938524990E+02  0.69144913925E+02  0.15259309356E+03  0.90968138317E+02 0.  0.
          5    1    3    3  502    0 -0.26146771002E+02 -0.75782064883E+01  0.65371564229E+02  0.70969107766E+02  0.47000000000E+01 0. -1.
         -5    1    3    3    0  502 -0.58766062915E+02  0.62516731478E+02 -0.34632882057E+02  0.92646200056E+02  0.47000000000E+01 0. -1.
        -11    1    4    4    0    0  0.77777087459E+02 -0.18688174242E+01  0.20998708083E+02  0.80583581165E+02  0.00000000000E+00 0.  1.
         11    1    4    4    0    0  0.71357464584E+01 -0.53069707566E+02  0.48146205842E+02  0.72009512397E+02  0.00000000000E+00 0. -1.
<mgrwt>
<rscale>  0 0.15414268E+03</rscale>
<asrwt>0</asrwt>
<pdfrwt beam="1">  1        2 0.32007077E-01 0.16070191E+03</pdfrwt>
<pdfrwt beam="2">  1       -2 0.16640370E-01 0.16070191E+03</pdfrwt>
<totfact> 0.45431637E+03</totfact>
</mgrwt>
</event>
<event>
 8    1  0.1020295E-005  0.1447178E+03  0.7546771E-02  0.1217158E+00
         -2   -1    0    0    0  501 -0.00000000000E+00  0.00000000000E+00  0.16029344234E+03  0.16029344234E+03  0.00000000000E+00 0. -1.
          2   -1    0    0  501    0  0.00000000000E+00 -0.00000000000E+00 -0.10679722134E+03  0.10679722134E+03  0.00000000000E+00 0.  1.
         23    2    1    2    0    0  0.72912372525E+02  0.15093687120E+01  0.26337665751E+02  0.14709489964E+03  0.12499897840E+03 0.  0.
         23    2    1    2    0    0 -0.72912372525E+02 -0.15093687120E+01  0.27158555241E+02  0.11999576404E+03  0.91339498595E+02 0.  0.
          5    1    3    3  502    0 -0.37433866954E+01 -0.25693278261E+01 -0.43031029944E+02  0.43524406112E+02  0.47000000000E+01 0.  1.
         -5    1    3    3    0  502  0.76655759221E+02  0.40786965381E+01  0.69368695695E+02  0.10357049353E+03  0.47000000000E+01 0.  1.
        -11    1    4    4    0    0 -0.59707335250E+02  0.99095434621E+01 -0.24630185272E+02  0.65343790530E+02  0.00000000000E+00 0.  1.
         11    1    4    4    0    0 -0.13205037275E+02 -0.11418912174E+02  0.51788740512E+02  0.54651973510E+02  0.00000000000E+00 0. -1.
<mgrwt>
<rscale>  0 0.13719185E+03</rscale>
<asrwt>0</asrwt>
<pdfrwt beam="2">  1        2 0.16430342E-01 0.14471778E+03</pdfrwt>
<pdfrwt beam="1">  1       -2 0.24660529E-01 0.14471778E+03</pdfrwt>
<totfact> 0.48758324E+03</totfact>
</mgrwt>
</event>
<event>
 8    1  0.1020295E-005  0.1359913E+03  0.7546771E-02  0.1230938E+00
          3   -1    0    0  501    0  0.00000000000E+00  0.00000000000E+00  0.60523030327E+02  0.60523030327E+02  0.00000000000E+00 0. -1.
         -3   -1    0    0    0  501 -0.00000000000E+00 -0.00000000000E+00 -0.37642868061E+03  0.37642868061E+03  0.00000000000E+00 0.  1.
         23    2    1    2    0    0  0.35211852725E+02  0.40366204109E+02 -0.30091643056E+03  0.33021862789E+03  0.12499735605E+03 0.  0.
         23    2    1    2    0    0 -0.35211852725E+02 -0.40366204109E+02 -0.14989219726E+02  0.10673308305E+03  0.91093190210E+02 0.  0.
          5    1    3    3  502    0  0.56539101732E+02 -0.25534431239E+02 -0.10136521083E+03  0.11893558412E+03  0.47000000000E+01 0. -1.
         -5    1    3    3    0  502 -0.21327249007E+02  0.65900635348E+02 -0.19955121972E+03  0.21128304377E+03  0.47000000000E+01 0. -1.
        -11    1    4    4    0    0  0.27960999580E+02 -0.83001298539E+01 -0.20535754659E+02  0.35671092954E+02  0.00000000000E+00 0.  1.
         11    1    4    4    0    0 -0.63172852305E+02 -0.32066074255E+02  0.55465349331E+01  0.71061990095E+02  0.00000000000E+00 0. -1.
<mgrwt>
<rscale>  0 0.12768116E+03</rscale>
<asrwt>0</asrwt>
<pdfrwt beam="1">  1        3 0.93112354E-02 0.13599134E+03</pdfrwt>
<pdfrwt beam="2">  1       -3 0.57912105E-01 0.13599134E+03</pdfrwt>
<totfact> 0.57021296E+02</totfact>
</mgrwt>
</event>
<event>
 8    1  0.1020295E-005  0.1528745E+03  0.7546771E-02  0.1205162E+00
          3   -1    0    0  501    0  0.00000000000E+00  0.00000000000E+00  0.34228891074E+03  0.34228891074E+03  0.00000000000E+00 0. -1.
         -3   -1    0    0    0  501 -0.00000000000E+00 -0.00000000000E+00 -0.97349573134E+02  0.97349573134E+02  0.00000000000E+00 0.  1.
         23    2    1    2    0    0 -0.87995154917E+02 -0.14607567878E+01 -0.11195233930E+02  0.15328389686E+03  0.12500135470E+03 0.  0.
         23    2    1    2    0    0  0.87995154917E+02  0.14607567878E+01  0.25613457153E+03  0.28635458701E+03  0.92998654109E+02 0.  0.
          5    1    3    3  502    0  0.31970029768E+02  0.46598745019E+01 -0.15579795222E+01  0.32685081213E+02  0.47000000000E+01 0.  1.
         -5    1    3    3    0  502 -0.11996518469E+03 -0.61206312897E+01 -0.96372544074E+01  0.12059881565E+03  0.47000000000E+01 0.  1.
        -11    1    4    4    0    0  0.23260286171E+02  0.15365560210E+02  0.72377003710E+01  0.28801487115E+02  0.00000000000E+00 0.  1.
         11    1    4    4    0    0  0.64734868746E+02 -0.13904803423E+02  0.24889687116E+03  0.25755309989E+03  0.00000000000E+00 0. -1.
<mgrwt>
<rscale>  0 0.14624703E+03</rscale>
<asrwt>0</asrwt>
<pdfrwt beam="1">  1        3 0.52659832E-01 0.15287452E+03</pdfrwt>
<pdfrwt beam="2">  1       -3 0.14976858E-01 0.15287452E+03</pdfrwt>
<totfact> 0.31682804E+02</totfact>
</mgrwt>
</event>
<event>
 8    1  0.1020295E-005  0.1130015E+03  0.7546771E-02  0.1266458E+00
         -1   -1    0    0    0  501 -0.00000000000E+00  0.00000000000E+00  0.66285799990E+02  0.66285799990E+02  0.00000000000E+00 0.  1.
          1   -1    0    0  501    0  0.00000000000E+00 -0.00000000000E+00 -0.18625280136E+03  0.18625280136E+03  0.00000000000E+00 0. -1.
         23    2    1    2    0    0  0.17728437485E+02 -0.67233258403E+01 -0.15010248056E+02  0.11399407117E+03  0.11139946189E+03 0.  0.
         23    2    1    2    0    0 -0.17728437485E+02  0.67233258403E+01 -0.10495675331E+03  0.13854453017E+03  0.88426049156E+02 0.  0.
          5    1    3    3  502    0  0.43093328441E+02 -0.66180141138E+01 -0.52551384275E+02  0.68443926364E+02  0.47000000000E+01 0. -1.
         -5    1    3    3    0  502 -0.25364890956E+02 -0.10531172645E+00  0.37541136218E+02  0.45550144811E+02  0.47000000000E+01 0.  1.
        -11    1    4    4    0    0 -0.39576465923E+02  0.28578697822E+02 -0.29580300623E+02  0.57079180172E+02  0.00000000000E+00 0.  1.
         11    1    4    4    0    0  0.21848028437E+02 -0.21855371982E+02 -0.75376452689E+02  0.81465350003E+02  0.00000000000E+00 0. -1.
<mgrwt>
<rscale>  0 0.10688050E+03</rscale>
<asrwt>0</asrwt>
<pdfrwt beam="2">  1        1 0.28654277E-01 0.11300151E+03</pdfrwt>
<pdfrwt beam="1">  1       -1 0.10197816E-01 0.11300151E+03</pdfrwt>
<totfact> 0.88392815E+03</totfact>
</mgrwt>
</event>
<event>
 7    1  0.1020295E-005  0.1348245E+03  0.7546771E-02  0.1235389E+00
          1   -1    0    0  501    0  0.00000000000E+00  0.00000000000E+00  0.14124874782E+03  0.14124874782E+03  0.00000000000E+00 0. -1.
         -1   -1    0    0    0  501 -0.00000000000E+00 -0.00000000000E+00 -0.57713086065E+03  0.57713086065E+03  0.00000000000E+00 0.  1.
         23    2    1    2    0    0  0.35242319460E+02 -0.16288121153E+02  0.11472077184E+03  0.15150998069E+03  0.91033481682E+02 0.  0.
          5    1    1    2  502    0  0.23214347216E+02 -0.18261917899E+02 -0.31929513553E+02  0.43749141680E+02  0.47000000000E+01 0. -1.
         -5    1    1    2    0  502 -0.58456666677E+02  0.34550039052E+02 -0.51867337111E+03  0.52312048610E+03  0.47000000000E+01 0.  1.
        -11    1    3    3    0    0  0.20602616982E+01  0.36142077484E+02  0.33696539971E+02  0.49456559212E+02  0.00000000000E+00 0. -1.
         11    1    3    3    0    0  0.33182057762E+02 -0.52430198637E+02  0.81024231865E+02  0.10205342148E+03  0.00000000000E+00 0.  1.
<mgrwt>
<rscale>  0 0.12479549E+03</rscale>
<asrwt>0</asrwt>
<pdfrwt beam="1">  1        1 0.21730577E-01 0.13482447E+03</pdfrwt>
<pdfrwt beam="2">  1       -1 0.88789362E-01 0.13482447E+03</pdfrwt>
<totfact> 0.30366232E+02</totfact>
</mgrwt>
</event>
<event>
 8    1  0.1020295E-005  0.1288313E+03  0.7546771E-02  0.1236093E+00
          1   -1    0    0  501    0  0.00000000000E+00  0.00000000000E+00  0.46009308365E+03  0.46009308365E+03  0.00000000000E+00 0. -1.
         -1   -1    0    0    0  501 -0.00000000000E+00 -0.00000000000E+00 -0.39501929605E+02  0.39501929605E+02  0.00000000000E+00 0.  1.
         23    2    1    2    0    0  0.64917252106E+02 -0.22277831680E+01  0.10969853939E+03  0.16920777042E+03  0.11125775203E+03 0.  0.
         23    2    1    2    0    0 -0.64917252106E+02  0.22277831680E+01  0.31089261465E+03  0.33038724284E+03  0.91007141175E+02 0.  0.
          5    1    3    3  502    0  0.34517124051E+02 -0.12557714157E+02  0.12710175231E+03  0.13238607736E+03  0.47000000000E+01 0. -1.
         -5    1    3    3    0  502  0.30400128055E+02  0.10329930989E+02 -0.17403212919E+02  0.36821693061E+02  0.47000000000E+01 0.  1.
        -11    1    4    4    0    0 -0.81066451844E+02 -0.19317500185E+02  0.25643869191E+03  0.26964001583E+03  0.00000000000E+00 0. -1.
         11    1    4    4    0    0  0.16149199739E+02  0.21545283353E+02  0.54453922739E+02  0.60747227003E+02  0.00000000000E+00 0.  1.
<mgrwt>
<rscale>  0 0.12434729E+03</rscale>
<asrwt>0</asrwt>
<pdfrwt beam="1">  1        1 0.70783548E-01 0.12883129E+03</pdfrwt>
<pdfrwt beam="2">  1       -1 0.60772203E-02 0.12883129E+03</pdfrwt>
<totfact> 0.63193977E+03</totfact>
</mgrwt>
</event>
<event>
 8    1  0.1020295E-005  0.1438070E+03  0.7546771E-02  0.1212151E+00
          1   -1    0    0  501    0  0.00000000000E+00  0.00000000000E+00  0.16421848822E+03  0.16421848822E+03  0.00000000000E+00 0. -1.
         -1   -1    0    0    0  501 -0.00000000000E+00 -0.00000000000E+00 -0.15863905995E+03  0.15863905995E+03  0.00000000000E+00 0.  1.
         23    2    1    2    0    0  0.71640650086E+02  0.50830390008E+02 -0.80586933352E+02  0.16484751390E+03  0.11386104567E+03 0.  0.
         23    2    1    2    0    0 -0.71640650086E+02 -0.50830390008E+02  0.86166361617E+02  0.15801003426E+03  0.99128289407E+02 0.  0.
          5    1    3    3  502    0  0.47494588120E+02 -0.11177936322E+02  0.12252706439E+02  0.50526240471E+02  0.47000000000E+01 0. -1.
         -5    1    3    3    0  502  0.24146061966E+02  0.62008326330E+02 -0.92839639791E+02  0.11432127343E+03  0.47000000000E+01 0.  1.
        -11    1    4    4    0    0  0.22920014993E+02 -0.15107429578E+02  0.39931518127E+01  0.27739985168E+02  0.00000000000E+00 0. -1.
         11    1    4    4    0    0 -0.94560665078E+02 -0.35722960430E+02  0.82173209805E+02  0.13027004910E+03  0.00000000000E+00 0.  1.
<mgrwt>
<rscale>  0 0.14087908E+03</rscale>
<asrwt>0</asrwt>
<pdfrwt beam="1">  1        1 0.25264383E-01 0.14380699E+03</pdfrwt>
<pdfrwt beam="2">  1       -1 0.24406009E-01 0.14380699E+03</pdfrwt>
<totfact> 0.26585825E+03</totfact>
</mgrwt>
</event>
<event>
 8    1  0.1020295E-005  0.1290900E+03  0.7546771E-02  0.1242765E+00
          2   -1    0    0  501    0  0.00000000000E+00  0.00000000000E+00  0.33790474102E+03  0.33790474102E+03  0.00000000000E+00 0. -1.
         -2   -1    0    0    0  501 -0.00000000000E+00 -0.00000000000E+00 -0.45214266592E+02  0.45214266592E+02  0.00000000000E+00 0.  1.
         23    2    1    2    0    0  0.31910028257E+02  0.46498235203E+01  0.86955113330E+02  0.15564513921E+03  0.12499738742E+03 0.  0.
         23    2    1    2    0    0 -0.31910028257E+02 -0.46498235203E+01  0.20573536110E+03  0.22747386840E+03  0.91528417660E+02 0.  0.
          5    1    3    3  502    0 -0.90592144015E+01  0.43297409980E+02  0.88560626206E+02  0.99105043215E+02  0.47000000000E+01 0. -1.
         -5    1    3    3    0  502  0.40969242659E+02 -0.38647586460E+02 -0.16055128755E+01  0.56540095992E+02  0.47000000000E+01 0. -1.
        -11    1    4    4    0    0 -0.23498962848E+02  0.41567757814E+02  0.78968779034E+02  0.92282976798E+02  0.00000000000E+00 0. -1.
         11    1    4    4    0    0 -0.84110654094E+01 -0.46217581334E+02  0.12676658206E+03  0.13519089161E+03  0.00000000000E+00 0.  1.
<mgrwt>
<rscale>  0 0.12020161E+03</rscale>
<asrwt>0</asrwt>
<pdfrwt beam="1">  1        2 0.51985343E-01 0.12908996E+03</pdfrwt>
<pdfrwt beam="2">  1       -2 0.69560412E-02 0.12908996E+03</pdfrwt>
<totfact> 0.10654081E+04</totfact>
</mgrwt>
</event>
<event>
 8    1  0.1020295E-005  0.1376668E+03  0.7546771E-02  0.1228416E+00
          1   -1    0    0  501    0  0.00000000000E+00  0.00000000000E+00  0.10201558037E+04  0.10201558037E+04  0.00000000000E+00 0. -1.
         -1   -1    0    0    0  501 -0.00000000000E+00 -0.00000000000E+00 -0.15494730455E+02  0.15494730455E+02  0.00000000000E+00 0.  1.
         23    2    1    2    0    0 -0.50071342130E+02 -0.28635661524E+02  0.44551385459E+03  0.46629899560E+03  0.12500007303E+03 0.  0.
         23    2    1    2    0    0  0.50071342130E+02  0.28635661524E+02  0.55914721866E+03  0.56935153855E+03  0.90489899477E+02 0.  0.
          5    1    3    3  502    0  0.31782162629E+02 -0.29812620156E+01  0.38103057775E+02  0.49929217862E+02  0.47000000000E+01 0.  1.
         -5    1    3    3    0  502 -0.81853504759E+02 -0.25654399509E+02  0.40741079682E+03  0.41636977774E+03  0.47000000000E+01 0.  1.
        -11    1    4    4    0    0 -0.22509791945E+02  0.23227369781E+02  0.12344717504E+03  0.12761428786E+03  0.00000000000E+00 0.  1.
         11    1    4    4    0    0  0.72581134075E+02  0.54082917434E+01  0.43570004362E+03  0.44173725070E+03  0.00000000000E+00 0. -1.
<mgrwt>
<rscale>  0 0.12935483E+03</rscale>
<asrwt>0</asrwt>
<pdfrwt beam="1">  1        1 0.15694699E+00 0.13766684E+03</pdfrwt>
<pdfrwt beam="2">  1       -1 0.23838055E-02 0.13766684E+03</pdfrwt>
<totfact> 0.79314402E+03</totfact>
</mgrwt>
</event>
<event>
 8    1  0.1020295E-005  0.1472163E+03  0.7546771E-02  0.1213538E+00
          1   -1    0    0  501    0  0.00000000000E+00  0.00000000000E+00  0.98265755289E+03  0.98265755289E+03  0.00000000000E+00 0. -1.
         -1   -1    0    0    0  501 -0.00000000000E+00 -0.00000000000E+00 -0.19354229168E+02  0.19354229168E+02  0.00000000000E+00 0.  1.
         23    2    1    2    0    0 -0.20901610533E+02  0.74953097921E+02  0.40347643279E+03  0.42949488756E+03  0.12497112631E+03 0.  0.
         23    2    1    2    0    0  0.20901610533E+02 -0.74953097921E+02  0.55982689093E+03  0.57251689450E+03  0.91184442010E+02 0.  0.
          5    1    3    3  502    0 -0.12727714822E+02  0.98473154420E+02  0.38629513169E+03  0.39887965056E+03  0.47000000000E+01 0.  1.
         -5    1    3    3    0  502 -0.81738957112E+01 -0.23520056500E+02  0.17181301100E+02  0.30615236996E+02  0.47000000000E+01 0.  1.
        -11    1    4    4    0    0  0.53798171480E+02 -0.27716634709E+02  0.33600437089E+03  0.34141088493E+03  0.00000000000E+00 0.  1.
         11    1    4    4    0    0 -0.32896560947E+02 -0.47236463212E+02  0.22382252004E+03  0.23110600957E+03  0.00000000000E+00 0. -1.
<mgrwt>
<rscale>  0 0.13984497E+03</rscale>
<asrwt>0</asrwt>
<pdfrwt beam="1">  1        1 0.15117805E+00 0.14721626E+03</pdfrwt>
<pdfrwt beam="2">  1       -1 0.29775745E-02 0.14721626E+03</pdfrwt>
<totfact> 0.61348334E+03</totfact>
</mgrwt>
</event>
<event>
 7    1  0.1020295E-005  0.3084566E+03  0.7546771E-02  0.1120958E+00
          1   -1    0    0  501    0  0.00000000000E+00  0.00000000000E+00  0.68932352750E+03  0.68932352750E+03  0.00000000000E+00 0. -1.
         -1   -1    0    0    0  501 -0.00000000000E+00 -0.00000000000E+00 -0.63829545085E+02  0.63829545085E+02  0.00000000000E+00 0.  1.
         23    2    1    2    0    0  0.13474853883E+02 -0.58733388161E+02  0.13941630923E+03  0.17746481311E+03  0.91791448623E+02 0.  0.
          5    1    1    2  502    0 -0.15804665507E+03  0.28147178326E+02  0.25105601555E+03  0.29803057187E+03  0.47000000000E+01 0. -1.
         -5    1    1    2    0  502  0.14457180118E+03  0.30586209835E+02  0.23502165764E+03  0.27765768761E+03  0.47000000000E+01 0.  1.
        -11    1    3    3    0    0  0.38346678100E+02 -0.12620746478E+02  0.16067378877E+02  0.43450105028E+02  0.00000000000E+00 0.  1.
         11    1    3    3    0    0 -0.24871824216E+02 -0.46112641682E+02  0.12334893035E+03  0.13401470808E+03  0.00000000000E+00 0. -1.
<mgrwt>
<rscale>  0 0.23825926E+03</rscale>
<asrwt>0</asrwt>
<pdfrwt beam="1">  1        1 0.10604977E+00 0.30845659E+03</pdfrwt>
<pdfrwt beam="2">  1       -1 0.98199305E-02 0.30845659E+03</pdfrwt>
<totfact> 0.18086994E+03</totfact>
</mgrwt>
</event>
<event>
 8    1  0.1020295E-005  0.2115990E+03  0.7546771E-02  0.1144001E+00
          1   -1    0    0  501    0  0.00000000000E+00  0.00000000000E+00  0.55999226966E+03  0.55999226966E+03  0.00000000000E+00 0. -1.
         -1   -1    0    0    0  501 -0.00000000000E+00 -0.00000000000E+00 -0.73686103589E+02  0.73686103589E+02  0.00000000000E+00 0.  1.
         23    2    1    2    0    0 -0.14859661508E+03  0.84075775453E+02  0.27662481638E+03  0.34827490333E+03  0.12499771685E+03 0.  0.
         23    2    1    2    0    0  0.14859661508E+03 -0.84075775453E+02  0.20968134969E+03  0.28540346992E+03  0.91319122890E+02 0.  0.
          5    1    3    3  502    0 -0.82280926365E+02  0.32625429157E+02  0.24134402097E+03  0.25710619582E+03  0.47000000000E+01 0.  1.
         -5    1    3    3    0  502 -0.66315688712E+02  0.51450346296E+02  0.35280795409E+02  0.91168707504E+02  0.47000000000E+01 0.  1.
        -11    1    4    4    0    0  0.12399532510E+03 -0.96015926403E+02  0.20427080240E+03  0.25752758975E+03  0.00000000000E+00 0. -1.
         11    1    4    4    0    0  0.24601289980E+02  0.11940150949E+02  0.54105472879E+01  0.27875880171E+02  0.00000000000E+00 0.  1.
<mgrwt>
<rscale>  0 0.20695358E+03</rscale>
<asrwt>0</asrwt>
<pdfrwt beam="1">  1        1 0.86152654E-01 0.21159896E+03</pdfrwt>
<pdfrwt beam="2">  1       -1 0.11336324E-01 0.21159896E+03</pdfrwt>
<totfact> 0.19282346E+03</totfact>
</mgrwt>
</event>
<event>
 8    1  0.1020295E-005  0.2095665E+03  0.7546771E-02  0.1145755E+00
         -1   -1    0    0    0  501 -0.00000000000E+00  0.00000000000E+00  0.46112736088E+02  0.46112736088E+02  0.00000000000E+00 0.  1.
          1   -1    0    0  501    0  0.00000000000E+00 -0.00000000000E+00 -0.96758336039E+03  0.96758336039E+03  0.00000000000E+00 0. -1.
         23    2    1    2    0    0 -0.65217996718E+02 -0.15504599871E+03 -0.31936315611E+03  0.38198291558E+03  0.12500189400E+03 0.  0.
         23    2    1    2    0    0  0.65217996718E+02  0.15504599871E+03 -0.60210746819E+03  0.63171318089E+03  0.90749605245E+02 0.  0.
          5    1    3    3  502    0 -0.66710632116E+02 -0.16875815716E+02 -0.80638910978E+02  0.10611232519E+03  0.47000000000E+01 0.  1.
         -5    1    3    3    0  502  0.14926353982E+01 -0.13817018300E+03 -0.23872424513E+03  0.27587059039E+03  0.47000000000E+01 0.  1.
        -11    1    4    4    0    0  0.17904491815E+02  0.75483426356E+02 -0.13660619300E+03  0.15709732794E+03  0.00000000000E+00 0.  1.
         11    1    4    4    0    0  0.47313504903E+02  0.79562572357E+02 -0.46550127519E+03  0.47461585295E+03  0.00000000000E+00 0. -1.
<mgrwt>
<rscale>  0 0.20479524E+03</rscale>
<asrwt>0</asrwt>
<pdfrwt beam="2">  1        1 0.14885896E+00 0.20956651E+03</pdfrwt>
<pdfrwt beam="1">  1       -1 0.70942678E-02 0.20956651E+03</pdfrwt>
<totfact> 0.17489381E+03</totfact>
</mgrwt>
</event>
<event>
 8    1  0.1020295E-005  0.1287046E+03  0.7546771E-02  0.1233178E+00
         -1   -1    0    0    0  501 -0.00000000000E+00  0.00000000000E+00  0.17100791479E+03  0.17100791479E+03  0.00000000000E+00 0.  1.
          1   -1    0    0  501    0  0.00000000000E+00 -0.00000000000E+00 -0.13210598532E+03  0.13210598532E+03  0.00000000000E+00 0. -1.
         23    2    1    2    0    0 -0.27292318210E+02  0.13955590692E+02  0.10575755152E+03  0.16658193546E+03  0.12500100948E+03 0.  0.
         23    2    1    2    0    0  0.27292318210E+02 -0.13955590692E+02 -0.66855622060E+02  0.13653196466E+03  0.11502901385E+03 0.  0.
          5    1    3    3  502    0  0.46058917753E+02  0.22576188961E+02  0.25719931030E+02  0.57573544834E+02  0.47000000000E+01 0.  1.
         -5    1    3    3    0  502 -0.73351235963E+02 -0.86205982690E+01  0.80037620494E+02  0.10900839062E+03  0.47000000000E+01 0.  1.
        -11    1    4    4    0    0  0.33051738430E+01  0.49618064081E+02 -0.38563655685E+02  0.62928785123E+02  0.00000000000E+00 0. -1.
         11    1    4    4    0    0  0.23987144367E+02 -0.63573654773E+02 -0.28291966375E+02  0.73603179533E+02  0.00000000000E+00 0.  1.
<mgrwt>
<rscale>  0 0.12621816E+03</rscale>
<asrwt>0</asrwt>
<pdfrwt beam="2">  1        1 0.20323998E-01 0.12870463E+03</pdfrwt>
<pdfrwt beam="1">  1       -1 0.26308910E-01 0.12870463E+03</pdfrwt>
<totfact> 0.30759907E+03</totfact>
</mgrwt>
</event>
<event>
 8    1  0.1020295E-005  0.2226829E+03  0.7546771E-02  0.1135127E+00
         -3   -1    0    0    0  501 -0.00000000000E+00  0.00000000000E+00  0.63334018486E+03  0.63334018486E+03  0.00000000000E+00 0.  1.
          3   -1    0    0  501    0  0.00000000000E+00 -0.00000000000E+00 -0.74477338434E+02  0.74477338434E+02  0.00000000000E+00 0. -1.
         23    2    1    2    0    0  0.18005116381E+03 -0.39306019825E+02  0.34810706334E+03  0.41323866895E+03  0.12499714071E+03 0.  0.
         23    2    1    2    0    0 -0.18005116381E+03  0.39306019825E+02  0.21075578308E+03  0.29457885434E+03  0.91625959947E+02 0.  0.
          5    1    3    3  502    0 -0.13416778746E+02  0.12843461338E+02  0.14397156436E+02  0.23965236583E+02  0.47000000000E+01 0. -1.
         -5    1    3    3    0  502  0.19346794256E+03 -0.52149481163E+02  0.33370990690E+03  0.38927343237E+03  0.47000000000E+01 0. -1.
        -11    1    4    4    0    0 -0.13569959750E+03  0.65852996588E+02  0.13234887028E+03  0.20066694144E+03  0.00000000000E+00 0.  1.
         11    1    4    4    0    0 -0.44351566311E+02 -0.26546976764E+02  0.78406912803E+02  0.93911912902E+02  0.00000000000E+00 0. -1.
<mgrwt>
<rscale>  0 0.21833983E+03</rscale>
<asrwt>0</asrwt>
<pdfrwt beam="2">  1        3 0.11458053E-01 0.22268289E+03</pdfrwt>
<pdfrwt beam="1">  1       -3 0.97436948E-01 0.22268289E+03</pdfrwt>
<totfact> 0.13913337E+02</totfact>
</mgrwt>
</event>
<event>
 8    1  0.1020295E-005  0.1420419E+03  0.7546771E-02  0.1225682E+00
          4   -1    0    0  501    0  0.00000000000E+00  0.00000000000E+00  0.14142684904E+03  0.14142684904E+03  0.00000000000E+00 0.  1.
         -4   -1    0    0    0  501 -0.00000000000E+00 -0.00000000000E+00 -0.11152175670E+03  0.11152175670E+03  0.00000000000E+00 0. -1.
         23    2    1    2    0    0  0.40337947549E+02 -0.54099098618E+02 -0.93443510716E+01  0.14234895070E+03  0.12498817698E+03 0.  0.
         23    2    1    2    0    0 -0.40337947549E+02  0.54099098618E+02  0.39249443418E+02  0.11059965504E+03  0.78344766270E+02 0.  0.
          5    1    3    3  502    0  0.70000686436E+02 -0.48756510442E+02 -0.44065838518E+02  0.96131064367E+02  0.47000000000E+01 0.  1.
         -5    1    3    3    0  502 -0.29662738887E+02 -0.53425881758E+01  0.34721487447E+02  0.46217886334E+02  0.47000000000E+01 0.  1.
        -11    1    4    4    0    0 -0.40543940462E+02  0.87918421590E+01 -0.11020473793E+02  0.42925032782E+02  0.00000000000E+00 0.  1.
         11    1    4    4    0    0  0.20599291299E+00  0.45307256459E+02  0.50269917211E+02  0.67674622255E+02  0.00000000000E+00 0. -1.
<mgrwt>
<rscale>  0 0.13120294E+03</rscale>
<asrwt>0</asrwt>
<pdfrwt beam="1">  1        4 0.21757977E-01 0.14204192E+03</pdfrwt>
<pdfrwt beam="2">  1       -4 0.17157193E-01 0.14204192E+03</pdfrwt>
<totfact> 0.95859550E+02</totfact>
</mgrwt>
</event>
<event>
 8    1  0.1020295E-005  0.2044575E+03  0.7546771E-02  0.1150171E+00
         -2   -1    0    0    0  501 -0.00000000000E+00  0.00000000000E+00  0.11756969870E+03  0.11756969870E+03  0.00000000000E+00 0.  1.
          2   -1    0    0  501    0  0.00000000000E+00 -0.00000000000E+00 -0.36226438725E+03  0.36226438725E+03  0.00000000000E+00 0. -1.
         23    2    1    2    0    0 -0.16178923971E+03  0.15802158278E+01 -0.48823763339E+02  0.21020617271E+03  0.12499848003E+03 0.  0.
         23    2    1    2    0    0  0.16178923971E+03 -0.15802158278E+01 -0.19587092521E+03  0.26962791324E+03  0.90308012314E+02 0.  0.
          5    1    3    3  502    0 -0.15247063325E+03  0.24017590345E+02 -0.77125981652E+02  0.17261125599E+03  0.47000000000E+01 0. -1.
         -5    1    3    3    0  502 -0.93186064607E+01 -0.22437374517E+02  0.28302218313E+02  0.37594916718E+02  0.47000000000E+01 0. -1.
        -11    1    4    4    0    0  0.17152970433E+02  0.29111234580E+02 -0.59810957938E+02  0.68695262303E+02  0.00000000000E+00 0. -1.
         11    1    4    4    0    0  0.14463626928E+03 -0.30691450408E+02 -0.13605996727E+03  0.20093265094E+03  0.00000000000E+00 0.  1.
<mgrwt>
<rscale>  0 0.19948835E+03</rscale>
<asrwt>0</asrwt>
<pdfrwt beam="2">  1        2 0.55732982E-01 0.20445751E+03</pdfrwt>
<pdfrwt beam="1">  1       -2 0.18087646E-01 0.20445751E+03</pdfrwt>
<totfact> 0.21998225E+03</totfact>
</mgrwt>
</event>
<event>
 7    1  0.1020295E-005  0.2628407E+03  0.7546771E-02  0.1114874E+00
          2   -1    0    0  501    0  0.00000000000E+00  0.00000000000E+00  0.48091654644E+02  0.48091654644E+02  0.00000000000E+00 0. -1.
         -2   -1    0    0    0  501 -0.00000000000E+00 -0.00000000000E+00 -0.16638013146E+04  0.16638013146E+04  0.00000000000E+00 0.  1.
         23    2    1    2    0    0  0.21710125292E+02  0.18319154817E+03 -0.26638113463E+03  0.33720292861E+03  0.93361840774E+02 0.  0.
          5    1    1    2  502    0  0.17650146793E+01  0.16136640517E+01  0.51982540454E+01  0.74047980128E+01  0.47000000000E+01 0. -1.
         -5    1    1    2    0  502 -0.23475139972E+02 -0.18480521223E+03 -0.13545267793E+04  0.13672852426E+04  0.47000000000E+01 0.  1.
        -11    1    3    3    0    0 -0.19722091275E+01  0.18278546963E+03 -0.24106890307E+03  0.30253699533E+03  0.00000000000E+00 0.  1.
         11    1    3    3    0    0  0.23682334420E+02  0.40607854142E+00 -0.25312231569E+02  0.34665933282E+02  0.00000000000E+00 0. -1.
<mgrwt>
<rscale>  0 0.24753269E+03</rscale>
<asrwt>0</asrwt>
<pdfrwt beam="1">  1        2 0.73987162E-02 0.26284071E+03</pdfrwt>
<pdfrwt beam="2">  1       -2 0.25596943E+00 0.26284071E+03</pdfrwt>
<totfact> 0.62167428E+01</totfact>
</mgrwt>
</event>
<event>
 8    1  0.1020295E-005  0.1264977E+03  0.7546771E-02  0.1247128E+00
         -1   -1    0    0    0  501 -0.00000000000E+00  0.00000000000E+00  0.22750695216E+02  0.22750695216E+02  0.00000000000E+00 0.  1.
          1   -1    0    0  501    0  0.00000000000E+00 -0.00000000000E+00 -0.55430546758E+03  0.55430546758E+03  0.00000000000E+00 0. -1.
         23    2    1    2    0    0 -0.19397105346E+02 -0.51368961869E+00 -0.25185061126E+03  0.28183400376E+03  0.12500065483E+03 0.  0.
         23    2    1    2    0    0  0.19397105346E+02  0.51368961869E+00 -0.27970416110E+03  0.29522215904E+03  0.92440217860E+02 0.  0.
          5    1    3    3  502    0 -0.49601625450E+02  0.38591524271E+02 -0.20152599617E+03  0.21115028800E+03  0.47000000000E+01 0.  1.
         -5    1    3    3    0  502  0.30204520104E+02 -0.39105213890E+02 -0.50324615097E+02  0.70683715753E+02  0.47000000000E+01 0.  1.
        -11    1    4    4    0    0  0.23236835846E+02 -0.41088495807E+02 -0.97989509487E+02  0.10876653436E+03  0.00000000000E+00 0.  1.
         11    1    4    4    0    0 -0.38397304997E+01  0.41602185425E+02 -0.18171465162E+03  0.18645562468E+03  0.00000000000E+00 0. -1.
<mgrwt>
<rscale>  0 0.11758936E+03</rscale>
<asrwt>0</asrwt>
<pdfrwt beam="2">  1        1 0.85277760E-01 0.12649773E+03</pdfrwt>
<pdfrwt beam="1">  1       -1 0.35001071E-02 0.12649773E+03</pdfrwt>
<totfact> 0.11158157E+04</totfact>
</mgrwt>
</event>
<event>
 8    1  0.1020295E-005  0.2885445E+03  0.7546771E-02  0.1092844E+00
         -2   -1    0    0    0  501 -0.00000000000E+00  0.00000000000E+00  0.24925005595E+03  0.24925005595E+03  0.00000000000E+00 0.  1.
          2   -1    0    0  501    0  0.00000000000E+00 -0.00000000000E+00 -0.32083179098E+03  0.32083179098E+03  0.00000000000E+00 0. -1.
         23    2    1    2    0    0  0.22392860196E+03  0.13228064350E+03 -0.56307809924E+02  0.29398727222E+03  0.12496303191E+03 0.  0.
         23    2    1    2    0    0 -0.22392860196E+03 -0.13228064350E+03 -0.15273925106E+02  0.27609457472E+03  0.91393292869E+02 0.  0.
          5    1    3    3  502    0  0.20757751105E+03  0.63261021158E+02 -0.49091317046E+02  0.22253635051E+03  0.47000000000E+01 0. -1.
         -5    1    3    3    0  502  0.16351090914E+02  0.69019622344E+02 -0.72164928780E+01  0.71450921702E+02  0.47000000000E+01 0. -1.
        -11    1    4    4    0    0 -0.59368896669E+02 -0.16418706061E+02  0.31923966367E+02  0.69378522822E+02  0.00000000000E+00 0.  1.
         11    1    4    4    0    0 -0.16455970529E+03 -0.11586193744E+03 -0.47197891474E+02  0.20671605190E+03  0.00000000000E+00 0. -1.
<mgrwt>
<rscale>  0 0.28527105E+03</rscale>
<asrwt>0</asrwt>
<pdfrwt beam="2">  1        2 0.49358737E-01 0.28854453E+03</pdfrwt>
<pdfrwt beam="1">  1       -2 0.38346162E-01 0.28854453E+03</pdfrwt>
<totfact> 0.65882834E+02</totfact>
</mgrwt>
</event>
<event>
 8    1  0.1020295E-005  0.1468190E+03  0.7546771E-02  0.1214122E+00
         -1   -1    0    0    0  501 -0.00000000000E+00  0.00000000000E+00  0.36083821506E+02  0.36083821506E+02  0.00000000000E+00 0.  1.
          1   -1    0    0  501    0  0.00000000000E+00 -0.00000000000E+00 -0.51491332257E+03  0.51491332257E+03  0.00000000000E+00 0. -1.
         23    2    1    2    0    0 -0.51428100934E+02 -0.57333025564E+02 -0.32218060137E+03  0.35405671084E+03  0.12499555676E+03 0.  0.
         23    2    1    2    0    0  0.51428100934E+02  0.57333025564E+02 -0.15664889969E+03  0.19694043323E+03  0.91185147251E+02 0.  0.
          5    1    3    3  502    0 -0.21130874303E+02 -0.80385130321E+02 -0.29632645789E+03  0.30779821746E+03  0.47000000000E+01 0.  1.
         -5    1    3    3    0  502 -0.30297226631E+02  0.23052104757E+02 -0.25854143476E+02  0.46258493384E+02  0.47000000000E+01 0.  1.
        -11    1    4    4    0    0  0.26666357290E+02 -0.12170578612E+02 -0.99169554450E+02  0.10341091879E+03  0.00000000000E+00 0. -1.
         11    1    4    4    0    0  0.24761743644E+02  0.69503604176E+02 -0.57479345243E+02  0.93529514440E+02  0.00000000000E+00 0.  1.
<mgrwt>
<rscale>  0 0.13941220E+03</rscale>
<asrwt>0</asrwt>
<pdfrwt beam="2">  1        1 0.79217433E-01 0.14681899E+03</pdfrwt>
<pdfrwt beam="1">  1       -1 0.55513572E-02 0.14681899E+03</pdfrwt>
<totfact> 0.62947120E+03</totfact>
</mgrwt>
</event>
<event>
 8    1  0.1020295E-005  0.1819354E+03  0.7546771E-02  0.1171539E+00
         -1   -1    0    0    0  501 -0.00000000000E+00  0.00000000000E+00  0.26755431086E+03  0.26755431086E+03  0.00000000000E+00 0.  1.
          1   -1    0    0  501    0  0.00000000000E+00 -0.00000000000E+00 -0.13071925099E+03  0.13071925099E+03  0.00000000000E+00 0. -1.
         23    2    1    2    0    0  0.24269273772E+02  0.12996046675E+03  0.15260879385E+03  0.23746567322E+03  0.12498712507E+03 0.  0.
         23    2    1    2    0    0 -0.24269273772E+02 -0.12996046675E+03 -0.15773733976E+02  0.16080788863E+03  0.90175638582E+02 0.  0.
          5    1    3    3  502    0  0.52514832135E+02  0.58384692758E+01  0.59302990884E+02  0.79566513342E+02  0.47000000000E+01 0.  1.
         -5    1    3    3    0  502 -0.28245558363E+02  0.12412199748E+03  0.93305802961E+02  0.15789915988E+03  0.47000000000E+01 0.  1.
        -11    1    4    4    0    0 -0.14669949872E+02 -0.85715386267E+02 -0.53306005301E+02  0.10199933859E+03  0.00000000000E+00 0.  1.
         11    1    4    4    0    0 -0.95993238993E+01 -0.44245080485E+02  0.37532271325E+02  0.58808550035E+02  0.00000000000E+00 0. -1.
<mgrwt>
<rscale>  0 0.17619352E+03</rscale>
<asrwt>0</asrwt>
<pdfrwt beam="2">  1        1 0.20110654E-01 0.18193543E+03</pdfrwt>
<pdfrwt beam="1">  1       -1 0.41162202E-01 0.18193543E+03</pdfrwt>
<totfact> 0.14709352E+03</totfact>
</mgrwt>
</event>
<event>
 8    1  0.1020295E-005  0.1345128E+03  0.7546771E-02  0.1233940E+00
          1   -1    0    0  501    0  0.00000000000E+00  0.00000000000E+00  0.22545893778E+03  0.22545893778E+03  0.00000000000E+00 0. -1.
         -1   -1    0    0    0  501 -0.00000000000E+00 -0.00000000000E+00 -0.64041011429E+02  0.64041011429E+02  0.00000000000E+00 0.  1.
         23    2    1    2    0    0 -0.47677713890E+02 -0.13934465988E+02  0.68117152729E+02  0.15077675944E+03  0.12500540367E+03 0.  0.
         23    2    1    2    0    0  0.47677713890E+02  0.13934465988E+02  0.93300773618E+02  0.13872318977E+03  0.89842947849E+02 0.  0.
          5    1    3    3  502    0 -0.63905524093E+02  0.78679428648E+01  0.93279504036E+02  0.11344151096E+03  0.47000000000E+01 0. -1.
         -5    1    3    3    0  502  0.16227810203E+02 -0.21802408853E+02 -0.25162351307E+02  0.37335248480E+02  0.47000000000E+01 0. -1.
        -11    1    4    4    0    0  0.76606672766E+01 -0.24739409191E+02  0.76235525097E+02  0.80514467502E+02  0.00000000000E+00 0. -1.
         11    1    4    4    0    0  0.40017046613E+02  0.38673875179E+02  0.17065248520E+02  0.58208722268E+02  0.00000000000E+00 0.  1.
<mgrwt>
<rscale>  0 0.12572540E+03</rscale>
<asrwt>0</asrwt>
<pdfrwt beam="1">  1        1 0.34685990E-01 0.13451277E+03</pdfrwt>
<pdfrwt beam="2">  1       -1 0.98524634E-02 0.13451277E+03</pdfrwt>
<totfact> 0.74502212E+03</totfact>
</mgrwt>
</event>
<event>
 8    1  0.1020295E-005  0.1183123E+03  0.7546771E-02  0.1253187E+00
         -1   -1    0    0    0  501 -0.00000000000E+00  0.00000000000E+00  0.20647285835E+03  0.20647285835E+03  0.00000000000E+00 0.  1.
          1   -1    0    0  501    0  0.00000000000E+00 -0.00000000000E+00 -0.59856220861E+02  0.59856220861E+02  0.00000000000E+00 0. -1.
         23    2    1    2    0    0 -0.26061130381E+02 -0.27654721881E+02  0.95128935054E+02  0.15181342642E+03  0.11204390210E+03 0.  0.
         23    2    1    2    0    0  0.26061130381E+02  0.27654721881E+02  0.51487702435E+02  0.11451565279E+03  0.94967810719E+02 0.  0.
          5    1    3    3  502    0  0.13432045556E+02 -0.63247174115E+02  0.55444287191E+02  0.85304067098E+02  0.47000000000E+01 0. -1.
         -5    1    3    3    0  502 -0.39493175937E+02  0.35592452234E+02  0.39684647863E+02  0.66509359324E+02  0.47000000000E+01 0.  1.
        -11    1    4    4    0    0 -0.12647503981E+02  0.54002104217E+02  0.27837776682E+02  0.62057460691E+02  0.00000000000E+00 0.  1.
         11    1    4    4    0    0  0.38708634362E+02 -0.26347382336E+02  0.23649925753E+02  0.52458192098E+02  0.00000000000E+00 0. -1.
<mgrwt>
<rscale>  0 0.11408504E+03</rscale>
<asrwt>0</asrwt>
<pdfrwt beam="2">  1        1 0.92086494E-02 0.11831231E+03</pdfrwt>
<pdfrwt beam="1">  1       -1 0.31765055E-01 0.11831231E+03</pdfrwt>
<totfact> 0.62420617E+03</totfact>
</mgrwt>
</event>
<event>
 7    1  0.1020295E-005  0.1467717E+03  0.7546771E-02  0.1218771E+00
         -2   -1    0    0    0  501 -0.00000000000E+00  0.00000000000E+00  0.34374843524E+02  0.34374843524E+02  0.00000000000E+00 0.  1.
          2   -1    0    0  501    0  0.00000000000E+00 -0.00000000000E+00 -0.47870808300E+03  0.47870808300E+03  0.00000000000E+00 0. -1.
         23    2    1    2    0    0 -0.46567233637E+02 -0.31060124859E+02 -0.21630046003E+03  0.24189869315E+03  0.92713807677E+02 0.  0.
          5    1    1    2  502    0  0.53092899727E+02  0.32247005417E+01 -0.23532460301E+03  0.24130688651E+03  0.47000000000E+01 0. -1.
         -5    1    1    2    0  502 -0.65256660903E+01  0.27835424317E+02  0.72918235626E+01  0.29877346865E+02  0.47000000000E+01 0.  1.
        -11    1    3    3    0    0 -0.55080533181E+02  0.18125451108E+02 -0.10584997796E+03  0.12069223234E+03  0.00000000000E+00 0.  1.
         11    1    3    3    0    0  0.85132995445E+01 -0.49185575967E+02 -0.11045048207E+03  0.12120646081E+03  0.00000000000E+00 0. -1.
<mgrwt>
<rscale>  0 0.13603161E+03</rscale>
<asrwt>0</asrwt>
<pdfrwt beam="2">  1        2 0.73647397E-01 0.14677173E+03</pdfrwt>
<pdfrwt beam="1">  1       -2 0.52884375E-02 0.14677173E+03</pdfrwt>
<totfact> 0.11221779E+04</totfact>
</mgrwt>
</event>
<event>
 8    1  0.1020295E-005  0.1248651E+03  0.7546771E-02  0.1241479E+00
          1   -1    0    0  501    0  0.00000000000E+00  0.00000000000E+00  0.27051957884E+03  0.27051957884E+03  0.00000000000E+00 0. -1.
         -1   -1    0    0    0  501 -0.00000000000E+00 -0.00000000000E+00 -0.59193706377E+02  0.59193706377E+02  0.00000000000E+00 0.  1.
         23    2    1    2    0    0 -0.84331030369E+00  0.52188666584E+02  0.50181190420E+02  0.13457135490E+03  0.11343248916E+03 0.  0.
         23    2    1    2    0    0  0.84331030369E+00 -0.52188666584E+02  0.16114468204E+03  0.19514193031E+03  0.96893737276E+02 0.  0.
          5    1    3    3  502    0  0.16620259406E+02 -0.29488402663E+02 -0.47357767975E+01  0.34500963699E+02  0.47000000000E+01 0. -1.
         -5    1    3    3    0  502 -0.17463569709E+02  0.81677069246E+02  0.54916967217E+02  0.10007039121E+03  0.47000000000E+01 0.  1.
        -11    1    4    4    0    0 -0.36141993052E+02 -0.35162777923E+02  0.31977614230E+02  0.59709567280E+02  0.00000000000E+00 0.  1.
         11    1    4    4    0    0  0.36985303355E+02 -0.17025888661E+02  0.12916706781E+03  0.13543236303E+03  0.00000000000E+00 0. -1.
<mgrwt>
<rscale>  0 0.12098632E+03</rscale>
<asrwt>0</asrwt>
<pdfrwt beam="1">  1        1 0.41618396E-01 0.12486512E+03</pdfrwt>
<pdfrwt beam="2">  1       -1 0.91067242E-02 0.12486512E+03</pdfrwt>
<totfact> 0.66703714E+03</totfact>
</mgrwt>
</event>
<event>
 8    1  0.1020295E-005  0.1836910E+03  0.7546771E-02  0.1169653E+00
         -2   -1    0    0    0  501 -0.00000000000E+00  0.00000000000E+00  0.38332463488E+03  0.38332463488E+03  0.00000000000E+00 0. -1.
          2   -1    0    0  501    0  0.00000000000E+00 -0.00000000000E+00 -0.78212706034E+02  0.78212706034E+02  0.00000000000E+00 0.  1.
         23    2    1    2    0    0  0.62890032686E+01 -0.13443054347E+03  0.17115002235E+03  0.25106715320E+03  0.12502504823E+03 0.  0.
         23    2    1    2    0    0 -0.62890032686E+01  0.13443054347E+03  0.13396190649E+03  0.21047018771E+03  0.90778769227E+02 0.  0.
          5    1    3    3  502    0  0.14568291083E+02 -0.11331494803E+03  0.18962953172E+03  0.22143613493E+03  0.47000000000E+01 0. -1.
         -5    1    3    3    0  502 -0.82792878146E+01 -0.21115595444E+02 -0.18479509365E+02  0.29631018276E+02  0.47000000000E+01 0. -1.
        -11    1    4    4    0    0 -0.38404971591E+02  0.19659072109E+02  0.36548740178E+02  0.56544065716E+02  0.00000000000E+00 0. -1.
         11    1    4    4    0    0  0.32115968322E+02  0.11477147136E+03  0.97413166314E+02  0.15392612199E+03  0.00000000000E+00 0.  1.
<mgrwt>
<rscale>  0 0.17810144E+03</rscale>
<asrwt>0</asrwt>
<pdfrwt beam="2">  1        2 0.12032724E-01 0.18369100E+03</pdfrwt>
<pdfrwt beam="1">  1       -2 0.58973020E-01 0.18369100E+03</pdfrwt>
<totfact> 0.13754127E+03</totfact>
</mgrwt>
</event>
<event>
 8    1  0.1020295E-005  0.1305443E+03  0.7546771E-02  0.1240091E+00
          1   -1    0    0  501    0  0.00000000000E+00  0.00000000000E+00  0.25513510303E+03  0.25513510303E+03  0.00000000000E+00 0. -1.
         -1   -1    0    0    0  501 -0.00000000000E+00 -0.00000000000E+00 -0.55380606978E+02  0.55380606978E+02  0.00000000000E+00 0.  1.
         23    2    1    2    0    0 -0.18329988354E+02  0.32867286695E+02  0.72747429357E+02  0.14944563364E+03  0.12500224769E+03 0.  0.
         23    2    1    2    0    0  0.18329988354E+02 -0.32867286695E+02  0.12700706669E+03  0.16107007637E+03  0.91632567919E+02 0.  0.
          5    1    3    3  502    0 -0.62397136895E+02  0.26240294877E+01  0.72482414721E+02  0.95791850735E+02  0.47000000000E+01 0. -1.
         -5    1    3    3    0  502  0.44067148540E+02  0.30243257207E+02  0.26501463580E+00  0.53653782902E+02  0.47000000000E+01 0. -1.
        -11    1    4    4    0    0 -0.22326546523E+02 -0.49963318514E+02  0.75747602494E+02  0.93447884728E+02  0.00000000000E+00 0.  1.
         11    1    4    4    0    0  0.40656534878E+02  0.17096031819E+02  0.51259464197E+02  0.67622191638E+02  0.00000000000E+00 0. -1.
<mgrwt>
<rscale>  0 0.12184069E+03</rscale>
<asrwt>0</asrwt>
<pdfrwt beam="1">  1        1 0.39251554E-01 0.13054428E+03</pdfrwt>
<pdfrwt beam="2">  1       -1 0.85200935E-02 0.13054428E+03</pdfrwt>
<totfact> 0.79548511E+03</totfact>
</mgrwt>
</event>
<event>
 8    1  0.1020295E-005  0.1552319E+03  0.7546771E-02  0.1202577E+00
         -1   -1    0    0    0  501 -0.00000000000E+00  0.00000000000E+00  0.33927107187E+03  0.33927107187E+03  0.00000000000E+00 0.  1.
          1   -1    0    0  501    0  0.00000000000E+00 -0.00000000000E+00 -0.73790035588E+02  0.73790035588E+02  0.00000000000E+00 0. -1.
         23    2    1    2    0    0  0.15549126424E+02  0.90721571820E+02  0.23259208507E+03  0.27963553456E+03  0.12499910091E+03 0.  0.
         23    2    1    2    0    0 -0.15549126424E+02 -0.90721571820E+02  0.32888951213E+02  0.13342557289E+03  0.90821371184E+02 0.  0.
          5    1    3    3  502    0 -0.25329692270E+02  0.84010548992E+02  0.71648953756E+02  0.11338001688E+03  0.47000000000E+01 0.  1.
         -5    1    3    3    0  502  0.40878818694E+02  0.67110228274E+01  0.16094313131E+03  0.16625551769E+03  0.47000000000E+01 0.  1.
        -11    1    4    4    0    0  0.23885854836E+01  0.17406216470E+02  0.13410736195E+02  0.22102704760E+02  0.00000000000E+00 0. -1.
         11    1    4    4    0    0 -0.17937711908E+02 -0.10812778829E+03  0.19478215018E+02  0.11132286813E+03  0.00000000000E+00 0.  1.
<mgrwt>
<rscale>  0 0.14830050E+03</rscale>
<asrwt>0</asrwt>
<pdfrwt beam="2">  1        1 0.11352313E-01 0.15523194E+03</pdfrwt>
<pdfrwt beam="1">  1       -1 0.52195549E-01 0.15523194E+03</pdfrwt>
<totfact> 0.20043459E+03</totfact>
</mgrwt>
</event>
<event>
 7    1  0.1020295E-005  0.1494373E+03  0.7546771E-02  0.1218112E+00
          2   -1    0    0  501    0  0.00000000000E+00  0.00000000000E+00  0.29372557052E+03  0.29372557052E+03  0.00000000000E+00 0. -1.
         -2   -1    0    0    0  501 -0.00000000000E+00 -0.00000000000E+00 -0.77635863068E+02  0.77635863068E+02  0.00000000000E+00 0.  1.
         23    2    1    2    0    0  0.34451252340E+02  0.54736882582E+02  0.19422186879E+03  0.22033263302E+03  0.81494292779E+02 0.  0.
          5    1    1    2  502    0  0.42457436088E+02 -0.55744934428E+02 -0.23048882006E+01  0.70267589279E+02  0.47000000000E+01 0. -1.
         -5    1    1    2    0  502 -0.76908688429E+02  0.10080518457E+01  0.24172726862E+02  0.80761211285E+02  0.47000000000E+01 0.  1.
        -11    1    3    3    0    0  0.45102568795E+02  0.64721664804E+02  0.11301757758E+03  0.13782637066E+03  0.00000000000E+00 0. -1.
         11    1    3    3    0    0 -0.10651316455E+02 -0.99847822222E+01  0.81204291209E+02  0.82506262363E+02  0.00000000000E+00 0.  1.
<mgrwt>
<rscale>  0 0.13650367E+03</rscale>
<asrwt>0</asrwt>
<pdfrwt beam="1">  1        2 0.45188549E-01 0.14943727E+03</pdfrwt>
<pdfrwt beam="2">  1       -2 0.11943979E-01 0.14943727E+03</pdfrwt>
<totfact> 0.53662292E+03</totfact>
</mgrwt>
</event>
<event>
 8    1  0.1020295E-005  0.1555676E+03  0.7546771E-02  0.1202375E+00
         -1   -1    0    0    0  501 -0.00000000000E+00  0.00000000000E+00  0.40801576657E+02  0.40801576657E+02  0.00000000000E+00 0.  1.
          1   -1    0    0  501    0  0.00000000000E+00 -0.00000000000E+00 -0.52796972608E+03  0.52796972608E+03  0.00000000000E+00 0. -1.
         23    2    1    2    0    0 -0.76850447117E+02  0.51692085398E+02 -0.19556693535E+03  0.24989540279E+03  0.12499289267E+03 0.  0.
         23    2    1    2    0    0  0.76850447117E+02 -0.51692085398E+02 -0.29160121407E+03  0.31887589995E+03  0.89847140211E+02 0.  0.
          5    1    3    3  502    0 -0.48941136744E+02  0.84045723201E+02 -0.78138140925E+02  0.12484621549E+03  0.47000000000E+01 0.  1.
         -5    1    3    3    0  502 -0.27909310373E+02 -0.32353637803E+02 -0.11742879442E+03  0.12504918730E+03  0.47000000000E+01 0.  1.
        -11    1    4    4    0    0  0.34726023880E+02 -0.67699907230E+02 -0.23198809260E+03  0.24414677815E+03  0.00000000000E+00 0.  1.
         11    1    4    4    0    0  0.42124423237E+02  0.16007821832E+02 -0.59613121475E+02  0.74729121799E+02  0.00000000000E+00 0. -1.
<mgrwt>
<rscale>  0 0.14846294E+03</rscale>
<asrwt>0</asrwt>
<pdfrwt beam="2">  1        1 0.81226107E-01 0.15556763E+03</pdfrwt>
<pdfrwt beam="1">  1       -1 0.62771660E-02 0.15556763E+03</pdfrwt>
<totfact> 0.50849709E+03</totfact>
</mgrwt>
</event>
<event>
 8    1  0.1020295E-005  0.1406985E+03  0.7546771E-02  0.1223167E+00
          1   -1    0    0  501    0  0.00000000000E+00  0.00000000000E+00  0.65143913927E+03  0.65143913927E+03  0.00000000000E+00 0. -1.
         -1   -1    0    0    0  501 -0.00000000000E+00 -0.00000000000E+00 -0.25956916781E+02  0.25956916781E+02  0.00000000000E+00 0.  1.
         23    2    1    2    0    0 -0.12655993098E+02  0.63324715442E+02  0.26718208154E+03  0.30196413589E+03  0.12500352364E+03 0.  0.
         23    2    1    2    0    0  0.12655993098E+02 -0.63324715442E+02  0.35830014095E+03  0.37543192016E+03  0.91651197064E+02 0.  0.
          5    1    3    3  502    0 -0.29826233637E+02  0.61488237055E+02  0.27428506030E+03  0.28270973067E+03  0.47000000000E+01 0. -1.
         -5    1    3    3    0  502  0.17170240539E+02  0.18364783863E+01 -0.71029787668E+01  0.19254405220E+02  0.47000000000E+01 0. -1.
        -11    1    4    4    0    0  0.29526702323E+01  0.15655591206E+02  0.11574510779E+02  0.19692259832E+02  0.00000000000E+00 0. -1.
         11    1    4    4    0    0  0.97033228656E+01 -0.78980306648E+02  0.34672563018E+03  0.35573966033E+03  0.00000000000E+00 0.  1.
<mgrwt>
<rscale>  0 0.13293357E+03</rscale>
<asrwt>0</asrwt>
<pdfrwt beam="1">  1        1 0.10022139E+00 0.14069852E+03</pdfrwt>
<pdfrwt beam="2">  1       -1 0.39933723E-02 0.14069852E+03</pdfrwt>
<totfact> 0.74347229E+03</totfact>
</mgrwt>
</event>
<event>
 8    1  0.1020295E-005  0.1335568E+03  0.7546771E-02  0.1234293E+00
         -2   -1    0    0    0  501 -0.00000000000E+00  0.00000000000E+00  0.12959572144E+03  0.12959572144E+03  0.00000000000E+00 0.  1.
          2   -1    0    0  501    0  0.00000000000E+00 -0.00000000000E+00 -0.13661075804E+03  0.13661075804E+03  0.00000000000E+00 0. -1.
         23    2    1    2    0    0 -0.40608748198E+02  0.23699378163E+02  0.55642553928E+02  0.14468419879E+03  0.12500677029E+03 0.  0.
         23    2    1    2    0    0  0.40608748198E+02 -0.23699378163E+02 -0.62657590534E+02  0.12152228069E+03  0.92902960647E+02 0.  0.
          5    1    3    3  502    0  0.24706811029E+02 -0.36604235095E+02  0.21478029426E+02  0.49332466856E+02  0.47000000000E+01 0.  1.
         -5    1    3    3    0  502 -0.65315559226E+02  0.60303613258E+02  0.34164524502E+02  0.95351731937E+02  0.47000000000E+01 0.  1.
        -11    1    4    4    0    0 -0.29611006616E+02 -0.73060100889E+01 -0.28463267515E+02  0.41717467491E+02  0.00000000000E+00 0. -1.
         11    1    4    4    0    0  0.70219754814E+02 -0.16393368074E+02 -0.34194323019E+02  0.79804813198E+02  0.00000000000E+00 0.  1.
<mgrwt>
<rscale>  0 0.12549796E+03</rscale>
<asrwt>0</asrwt>
<pdfrwt beam="2">  1        2 0.21017040E-01 0.13355682E+03</pdfrwt>
<pdfrwt beam="1">  1       -2 0.19937803E-01 0.13355682E+03</pdfrwt>
<totfact> 0.52761788E+03</totfact>
</mgrwt>
</event>
<event>
 8    1  0.1020295E-005  0.1413791E+03  0.7546771E-02  0.1221040E+00
         -1   -1    0    0    0  501 -0.00000000000E+00  0.00000000000E+00  0.20196689884E+03  0.20196689884E+03  0.00000000000E+00 0.  1.
          1   -1    0    0  501    0  0.00000000000E+00 -0.00000000000E+00 -0.86033598141E+02  0.86033598141E+02  0.00000000000E+00 0. -1.
         23    2    1    2    0    0  0.38274161520E+02 -0.53848249562E+02  0.95660975079E+02  0.17070172075E+03  0.12499403943E+03 0.  0.
         23    2    1    2    0    0 -0.38274161520E+02  0.53848249562E+02  0.20272325625E+02  0.11729877624E+03  0.94781276100E+02 0.  0.
          5    1    3    3  502    0 -0.59919170417E+01 -0.61683942839E+01 -0.28669753720E+02  0.30298464256E+02  0.47000000000E+01 0.  1.
         -5    1    3    3    0  502  0.44266078561E+02 -0.47679855278E+02  0.12433072880E+03  0.14040325649E+03  0.47000000000E+01 0.  1.
        -11    1    4    4    0    0  0.13062646889E+01 -0.24619297658E+02 -0.63712772955E+01  0.25463882638E+02  0.00000000000E+00 0. -1.
         11    1    4    4    0    0 -0.39580426208E+02  0.78467547220E+02  0.26643602920E+02  0.91834893598E+02  0.00000000000E+00 0.  1.
<mgrwt>
<rscale>  0 0.13442069E+03</rscale>
<asrwt>0</asrwt>
<pdfrwt beam="2">  1        1 0.13235938E-01 0.14137912E+03</pdfrwt>
<pdfrwt beam="1">  1       -1 0.31071830E-01 0.14137912E+03</pdfrwt>
<totfact> 0.40668187E+03</totfact>
</mgrwt>
</event>
<event>
 8    1  0.1020295E-005  0.1702869E+03  0.7546771E-02  0.1185068E+00
          4   -1    0    0  501    0  0.00000000000E+00  0.00000000000E+00  0.22473048897E+03  0.22473048897E+03  0.00000000000E+00 0. -1.
         -4   -1    0    0    0  501 -0.00000000000E+00 -0.00000000000E+00 -0.11218866148E+03  0.11218866148E+03  0.00000000000E+00 0.  1.
         23    2    1    2    0    0  0.11123450970E+03  0.31627019558E+02  0.36336771224E+02  0.17412059829E+03  0.12499694913E+03 0.  0.
         23    2    1    2    0    0 -0.11123450970E+03 -0.31627019558E+02  0.76205056268E+02  0.16279855216E+03  0.85573205326E+02 0.  0.
          5    1    3    3  502    0  0.25076217497E+02  0.43612843930E+02  0.65075134003E+02  0.82387862608E+02  0.47000000000E+01 0. -1.
         -5    1    3    3    0  502  0.86158292201E+02 -0.11985824372E+02 -0.28738362780E+02  0.91732735684E+02  0.47000000000E+01 0. -1.
        -11    1    4    4    0    0 -0.25170743206E+02 -0.38972741404E+02  0.58434966780E+02  0.74612909263E+02  0.00000000000E+00 0.  1.
         11    1    4    4    0    0 -0.86063766492E+02  0.73457218458E+01  0.17770089487E+02  0.88185642894E+02  0.00000000000E+00 0. -1.
<mgrwt>
<rscale>  0 0.16325711E+03</rscale>
<asrwt>0</asrwt>
<pdfrwt beam="1">  1        4 0.34573921E-01 0.17028688E+03</pdfrwt>
<pdfrwt beam="2">  1       -4 0.17259794E-01 0.17028688E+03</pdfrwt>
<totfact> 0.41205986E+02</totfact>
</mgrwt>
</event>
<event>
 8    1  0.1020295E-005  0.1514476E+03  0.7546771E-02  0.1207867E+00
          1   -1    0    0  501    0  0.00000000000E+00  0.00000000000E+00  0.51055361984E+02  0.51055361984E+02  0.00000000000E+00 0. -1.
         -1   -1    0    0    0  501 -0.00000000000E+00 -0.00000000000E+00 -0.86051617966E+03  0.86051617966E+03  0.00000000000E+00 0.  1.
         23    2    1    2    0    0  0.26901159024E+02 -0.81160620721E+02 -0.76461248839E+03  0.77946688539E+03  0.12500259723E+03 0.  0.
         23    2    1    2    0    0 -0.26901159024E+02  0.81160620721E+02 -0.44848329293E+02  0.13210465625E+03  0.90164010842E+02 0.  0.
          5    1    3    3  502    0  0.73133871746E+02 -0.74412066609E+02 -0.51822441004E+03  0.52864387637E+03  0.47000000000E+01 0. -1.
         -5    1    3    3    0  502 -0.46232712722E+02 -0.67485541119E+01 -0.24638807834E+03  0.25082300903E+03  0.47000000000E+01 0. -1.
        -11    1    4    4    0    0 -0.62445481001E+01  0.94204022324E+02 -0.50443982971E+02  0.10704198999E+03  0.00000000000E+00 0.  1.
         11    1    4    4    0    0 -0.20656610924E+02 -0.13043401603E+02  0.55956536785E+01  0.25062666265E+02  0.00000000000E+00 0. -1.
<mgrwt>
<rscale>  0 0.14413803E+03</rscale>
<asrwt>0</asrwt>
<pdfrwt beam="1">  1        1 0.78546713E-02 0.15144758E+03</pdfrwt>
<pdfrwt beam="2">  1       -1 0.13238710E+00 0.15144758E+03</pdfrwt>
<totfact> 0.46333349E+02</totfact>
</mgrwt>
</event>
<event>
 8    1  0.1020295E-005  0.1385796E+03  0.7546771E-02  0.1228440E+00
         -1   -1    0    0    0  501 -0.00000000000E+00  0.00000000000E+00  0.22975594856E+03  0.22975594856E+03  0.00000000000E+00 0.  1.
          1   -1    0    0  501    0  0.00000000000E+00 -0.00000000000E+00 -0.10304528472E+03  0.10304528472E+03  0.00000000000E+00 0. -1.
         23    2    1    2    0    0  0.59818691182E+02  0.14027125644E+01  0.16979122702E+03  0.21916514091E+03  0.12499621914E+03 0.  0.
         23    2    1    2    0    0 -0.59818691182E+02 -0.14027125644E+01 -0.43080563188E+02  0.11363609237E+03  0.86469550404E+02 0.  0.
          5    1    3    3  502    0  0.82590205727E+02 -0.18267037217E+02  0.16859908104E+03  0.18868642468E+03  0.47000000000E+01 0.  1.
         -5    1    3    3    0  502 -0.22771514544E+02  0.19669749781E+02  0.11921459841E+01  0.30478716232E+02  0.47000000000E+01 0.  1.
        -11    1    4    4    0    0 -0.61367157052E+02 -0.13714121817E+02 -0.63740097320E+02  0.89536613228E+02  0.00000000000E+00 0. -1.
         11    1    4    4    0    0  0.15484658699E+01  0.12311409253E+02  0.20659534132E+02  0.24099479142E+02  0.00000000000E+00 0.  1.
<mgrwt>
<rscale>  0 0.12933921E+03</rscale>
<asrwt>0</asrwt>
<pdfrwt beam="2">  1        1 0.15853121E-01 0.13857957E+03</pdfrwt>
<pdfrwt beam="1">  1       -1 0.35347069E-01 0.13857957E+03</pdfrwt>
<totfact> 0.25803156E+03</totfact>
</mgrwt>
</event>
<event>
 8    1  0.1020295E-005  0.1276940E+03  0.7546771E-02  0.1244198E+00
         -3   -1    0    0    0  501 -0.00000000000E+00  0.00000000000E+00  0.62378941600E+02  0.62378941600E+02  0.00000000000E+00 0. -1.
          3   -1    0    0  501    0  0.00000000000E+00 -0.00000000000E+00 -0.22912929575E+03  0.22912929575E+03  0.00000000000E+00 0.  1.
         23    2    1    2    0    0  0.12158182587E+02  0.23177477469E+02 -0.44554700885E+02  0.13524381857E+03  0.12498300774E+03 0.  0.
         23    2    1    2    0    0 -0.12158182587E+02 -0.23177477469E+02 -0.12219565327E+03  0.15626441879E+03  0.93817770359E+02 0.  0.
          5    1    3    3  502    0 -0.13574544552E+02 -0.34706837066E+02  0.21764316104E+02  0.43412074984E+02  0.47000000000E+01 0.  1.
         -5    1    3    3    0  502  0.25732727139E+02  0.57884314535E+02 -0.66319016989E+02  0.91831743584E+02  0.47000000000E+01 0.  1.
        -11    1    4    4    0    0 -0.36393420417E+02 -0.32707393860E+02 -0.12062947198E+03  0.13017574341E+03  0.00000000000E+00 0.  1.
         11    1    4    4    0    0  0.24235237830E+02  0.95299163914E+01 -0.15661812916E+01  0.26088675377E+02  0.00000000000E+00 0. -1.
<mgrwt>
<rscale>  0 0.11933502E+03</rscale>
<asrwt>0</asrwt>
<pdfrwt beam="2">  1        3 0.35250661E-01 0.12769404E+03</pdfrwt>
<pdfrwt beam="1">  1       -3 0.95967601E-02 0.12769404E+03</pdfrwt>
<totfact> 0.14243221E+03</totfact>
</mgrwt>
</event>
<event>
 8    1  0.1020295E-005  0.1305966E+03  0.7546771E-02  0.1240132E+00
          2   -1    0    0  501    0  0.00000000000E+00  0.00000000000E+00  0.45476857392E+03  0.45476857392E+03  0.00000000000E+00 0. -1.
         -2   -1    0    0    0  501 -0.00000000000E+00 -0.00000000000E+00 -0.31012195132E+02  0.31012195132E+02  0.00000000000E+00 0.  1.
         23    2    1    2    0    0  0.21584282670E+02  0.31057490437E+02  0.17705312633E+03  0.22000743861E+03  0.12500005811E+03 0.  0.
         23    2    1    2    0    0 -0.21584282670E+02 -0.31057490437E+02  0.24670325245E+03  0.26577333044E+03  0.91337393400E+02 0.  0.
          5    1    3    3  502    0 -0.32751315950E+02  0.43150293444E+02  0.14665137503E+03  0.15640752002E+03  0.47000000000E+01 0.  1.
         -5    1    3    3    0  502  0.54335598620E+02 -0.12092803007E+02  0.30401751303E+02  0.63599918587E+02  0.47000000000E+01 0.  1.
        -11    1    4    4    0    0 -0.33947260276E+02 -0.53289555168E+02  0.21999753638E+03  0.22889104217E+03  0.00000000000E+00 0. -1.
         11    1    4    4    0    0  0.12362977606E+02  0.22232064731E+02  0.26705716067E+02  0.36882288272E+02  0.00000000000E+00 0.  1.
<mgrwt>
<rscale>  0 0.12181538E+03</rscale>
<asrwt>0</asrwt>
<pdfrwt beam="1">  1        2 0.69964391E-01 0.13059657E+03</pdfrwt>
<pdfrwt beam="2">  1       -2 0.47711073E-02 0.13059657E+03</pdfrwt>
<totfact> 0.13731167E+04</totfact>
</mgrwt>
</event>
<event>
 7    1  0.1020295E-005  0.1353692E+03  0.7546771E-02  0.1234211E+00
          2   -1    0    0  501    0  0.00000000000E+00  0.00000000000E+00  0.31216845802E+03  0.31216845802E+03  0.00000000000E+00 0. -1.
         -2   -1    0    0    0  501 -0.00000000000E+00 -0.00000000000E+00 -0.48308895529E+02  0.48308895529E+02  0.00000000000E+00 0.  1.
         23    2    1    2    0    0  0.29945118970E+02 -0.29533053935E+02  0.16435057650E+03  0.19246881206E+03  0.90907756505E+02 0.  0.
          5    1    1    2  502    0 -0.27374633992E+02  0.64791325237E+02  0.11016401566E+03  0.13078794577E+03  0.47000000000E+01 0. -1.
         -5    1    1    2    0  502 -0.25704849775E+01 -0.35258271301E+02 -0.10655029677E+02  0.37220595718E+02  0.47000000000E+01 0.  1.
        -11    1    3    3    0    0  0.29928637656E+02  0.91369708135E+01  0.14663003873E+03  0.14993190403E+03  0.00000000000E+00 0.  1.
         11    1    3    3    0    0  0.16481313493E-01 -0.38670024749E+02  0.17720537774E+02  0.42536908029E+02  0.00000000000E+00 0. -1.
<mgrwt>
<rscale>  0 0.12555082E+03</rscale>
<asrwt>0</asrwt>
<pdfrwt beam="1">  1        2 0.48025915E-01 0.13536924E+03</pdfrwt>
<pdfrwt beam="2">  1       -2 0.74321380E-02 0.13536924E+03</pdfrwt>
<totfact> 0.10506948E+04</totfact>
</mgrwt>
</event>
<event>
 8    1  0.1020295E-005  0.1967680E+03  0.7546771E-02  0.1156818E+00
          1   -1    0    0  501    0  0.00000000000E+00  0.00000000000E+00  0.25451290856E+03  0.25451290856E+03  0.00000000000E+00 0. -1.
         -1   -1    0    0    0  501 -0.00000000000E+00 -0.00000000000E+00 -0.14592733197E+03  0.14592733197E+03  0.00000000000E+00 0.  1.
         23    2    1    2    0    0  0.71885811926E+01 -0.15178368751E+03  0.96559904494E+01  0.19700476986E+03  0.12501071035E+03 0.  0.
         23    2    1    2    0    0 -0.71885811926E+01  0.15178368751E+03  0.98929586144E+02  0.20343547066E+03  0.92244047052E+02 0.  0.
          5    1    3    3  502    0 -0.15428425513E+02 -0.13245064477E+03 -0.39676075129E+02  0.13920305511E+03  0.47000000000E+01 0. -1.
         -5    1    3    3    0  502  0.22617006706E+02 -0.19333042736E+02  0.49332065579E+02  0.57801714750E+02  0.47000000000E+01 0. -1.
        -11    1    4    4    0    0  0.40605408691E+02  0.70836717940E+02  0.61647674973E+02  0.10230872716E+03  0.00000000000E+00 0.  1.
         11    1    4    4    0    0 -0.47793989884E+02  0.80946969569E+02  0.37281911172E+02  0.10112674351E+03  0.00000000000E+00 0. -1.
<mgrwt>
<rscale>  0 0.19183369E+03</rscale>
<asrwt>0</asrwt>
<pdfrwt beam="1">  1        1 0.39155832E-01 0.19676799E+03</pdfrwt>
<pdfrwt beam="2">  1       -1 0.22450359E-01 0.19676799E+03</pdfrwt>
<totfact> 0.17817442E+03</totfact>
</mgrwt>
</event>
<event>
 8    1  0.1020295E-005  0.1351820E+03  0.7546771E-02  0.1232353E+00
         -2   -1    0    0    0  501 -0.00000000000E+00  0.00000000000E+00  0.39947050974E+02  0.39947050974E+02  0.00000000000E+00 0.  1.
          2   -1    0    0  501    0  0.00000000000E+00 -0.00000000000E+00 -0.37671200553E+03  0.37671200553E+03  0.00000000000E+00 0. -1.
         23    2    1    2    0    0  0.35890048789E+02  0.35207276779E+02 -0.14478399080E+03  0.19808223676E+03  0.12548514090E+03 0.  0.
         23    2    1    2    0    0 -0.35890048789E+02 -0.35207276779E+02 -0.19198096376E+03  0.21857681975E+03  0.91605063971E+02 0.  0.
          5    1    3    3  502    0 -0.61333859074E+01  0.19294593494E+01 -0.14404759958E+03  0.14426760614E+03  0.47000000000E+01 0. -1.
         -5    1    3    3    0  502  0.42023434696E+02  0.33277817430E+02 -0.73639121754E+00  0.53814630618E+02  0.47000000000E+01 0.  1.
        -11    1    4    4    0    0 -0.53549616793E+02 -0.54228792828E+02 -0.16123793751E+03  0.17834235594E+03  0.00000000000E+00 0. -1.
         11    1    4    4    0    0  0.17659568004E+02  0.19021516049E+02 -0.30743026251E+02  0.40234463808E+02  0.00000000000E+00 0.  1.
<mgrwt>
<rscale>  0 0.12675428E+03</rscale>
<asrwt>0</asrwt>
<pdfrwt beam="2">  1        2 0.57955691E-01 0.13518198E+03</pdfrwt>
<pdfrwt beam="1">  1       -2 0.61457004E-02 0.13518198E+03</pdfrwt>
<totfact> 0.11503266E+04</totfact>
</mgrwt>
</event>
<event>
 8    1  0.1020295E-005  0.2595329E+03  0.7546771E-02  0.1109551E+00
         -2   -1    0    0    0  501 -0.00000000000E+00  0.00000000000E+00  0.55597981237E+02  0.55597981237E+02  0.00000000000E+00 0.  1.
          2   -1    0    0  501    0  0.00000000000E+00 -0.00000000000E+00 -0.12304454878E+04  0.12304454878E+04  0.00000000000E+00 0. -1.
         23    2    1    2    0    0 -0.15361323639E+03  0.16776709236E+03 -0.43620896366E+03  0.50757817130E+03  0.12495805825E+03 0.  0.
         23    2    1    2    0    0  0.15361323639E+03 -0.16776709236E+03 -0.73863854286E+03  0.77846529770E+03  0.93158462050E+02 0.  0.
          5    1    3    3  502    0  0.12755904248E+02  0.48187864023E+01 -0.84581393940E+02  0.85802307640E+02  0.47000000000E+01 0. -1.
         -5    1    3    3    0  502 -0.16636914064E+03  0.16294830596E+03 -0.35162756972E+03  0.42177586366E+03  0.47000000000E+01 0. -1.
        -11    1    4    4    0    0  0.67037104273E+01 -0.52019503603E+02 -0.24575638705E+03  0.25129100713E+03  0.00000000000E+00 0. -1.
         11    1    4    4    0    0  0.14690952597E+03 -0.11574758876E+03 -0.49288215581E+03  0.52717429057E+03  0.00000000000E+00 0.  1.
<mgrwt>
<rscale>  0 0.25603134E+03</rscale>
<asrwt>0</asrwt>
<pdfrwt beam="2">  1        2 0.18929930E+00 0.25953293E+03</pdfrwt>
<pdfrwt beam="1">  1       -2 0.85535360E-02 0.25953293E+03</pdfrwt>
<totfact> 0.16344157E+03</totfact>
</mgrwt>
</event>
<event>
 8    1  0.1020295E-005  0.1339262E+03  0.7546771E-02  0.1232819E+00
         -3   -1    0    0    0  501 -0.00000000000E+00  0.00000000000E+00  0.36212578869E+03  0.36212578869E+03  0.00000000000E+00 0.  1.
          3   -1    0    0  501    0  0.00000000000E+00 -0.00000000000E+00 -0.40549385339E+02  0.40549385339E+02  0.00000000000E+00 0. -1.
         23    2    1    2    0    0 -0.30267148080E+02 -0.37354361412E+02  0.20447754513E+03  0.24443256896E+03  0.12499906295E+03 0.  0.
         23    2    1    2    0    0  0.30267148080E+02  0.37354361412E+02  0.11709885823E+03  0.15824260507E+03  0.94958574609E+02 0.  0.
          5    1    3    3  502    0 -0.77096720376E+02 -0.33568547096E+02  0.10741507202E+03  0.13649483266E+03  0.47000000000E+01 0.  1.
         -5    1    3    3    0  502  0.46829572296E+02 -0.37858143156E+01  0.97062473108E+02  0.10793773630E+03  0.47000000000E+01 0.  1.
        -11    1    4    4    0    0 -0.11548304776E+02  0.14506009190E+02 -0.11006391242E+02  0.21562195945E+02  0.00000000000E+00 0. -1.
         11    1    4    4    0    0  0.41815452856E+02  0.22848352222E+02  0.12810524947E+03  0.13668040912E+03  0.00000000000E+00 0.  1.
<mgrwt>
<rscale>  0 0.12645062E+03</rscale>
<asrwt>0</asrwt>
<pdfrwt beam="2">  1        3 0.62383672E-02 0.13392615E+03</pdfrwt>
<pdfrwt beam="1">  1       -3 0.55711658E-01 0.13392615E+03</pdfrwt>
<totfact> 0.11786350E+03</totfact>
</mgrwt>
</event>
<event>
 8    1  0.1020295E-005  0.1407726E+03  0.7546771E-02  0.1223797E+00
         -2   -1    0    0    0  501 -0.00000000000E+00  0.00000000000E+00  0.92741832076E+02  0.92741832076E+02  0.00000000000E+00 0. -1.
          2   -1    0    0  501    0  0.00000000000E+00 -0.00000000000E+00 -0.17177529359E+03  0.17177529359E+03  0.00000000000E+00 0.  1.
         23    2    1    2    0    0  0.15204583775E+02 -0.62908515856E+02 -0.56951871272E+02  0.15185667106E+03  0.12501308799E+03 0.  0.
         23    2    1    2    0    0 -0.15204583775E+02  0.62908515856E+02 -0.22081590247E+02  0.11266045461E+03  0.89532791036E+02 0.  0.
          5    1    3    3  502    0  0.11840021162E+02 -0.47608504654E+02  0.33724183648E+02  0.59717387579E+02  0.47000000000E+01 0.  1.
         -5    1    3    3    0  502  0.33645626122E+01 -0.15300011202E+02 -0.90676054920E+02  0.92139283480E+02  0.47000000000E+01 0.  1.
        -11    1    4    4    0    0 -0.26022594322E+01  0.76901863050E+02 -0.39951649737E+02  0.86699496027E+02  0.00000000000E+00 0.  1.
         11    1    4    4    0    0 -0.12602324342E+02 -0.13993347194E+02  0.17870059490E+02  0.25960958586E+02  0.00000000000E+00 0. -1.
<mgrwt>
<rscale>  0 0.13249666E+03</rscale>
<asrwt>0</asrwt>
<pdfrwt beam="2">  1        2 0.26426968E-01 0.14077263E+03</pdfrwt>
<pdfrwt beam="1">  1       -2 0.14267974E-01 0.14077263E+03</pdfrwt>
<totfact> 0.71475876E+03</totfact>
</mgrwt>
</event>
<event>
 8    1  0.1020295E-005  0.1315750E+03  0.7546771E-02  0.1238726E+00
          1   -1    0    0  501    0  0.00000000000E+00  0.00000000000E+00  0.87152579610E+03  0.87152579610E+03  0.00000000000E+00 0. -1.
         -1   -1    0    0    0  501 -0.00000000000E+00 -0.00000000000E+00 -0.15491597675E+02  0.15491597675E+02  0.00000000000E+00 0.  1.
         23    2    1    2    0    0  0.20486744239E+02 -0.35602125398E+02  0.53396660514E+03  0.54993845661E+03  0.12499901051E+03 0.  0.
         23    2    1    2    0    0 -0.20486744239E+02  0.35602125398E+02  0.32206759329E+03  0.33707893717E+03  0.90595017606E+02 0.  0.
          5    1    3    3  502    0 -0.40300910002E+02 -0.85992251923E+01  0.37862601931E+03  0.38089088007E+03  0.47000000000E+01 0.  1.
         -5    1    3    3    0  502  0.60787654242E+02 -0.27002900206E+02  0.15534058583E+03  0.16904757654E+03  0.47000000000E+01 0.  1.
        -11    1    4    4    0    0  0.27369161679E+02  0.30285871543E+02  0.75252858739E+02  0.85611318029E+02  0.00000000000E+00 0.  1.
         11    1    4    4    0    0 -0.47855905919E+02  0.53162538549E+01  0.24681473455E+03  0.25146761914E+03  0.00000000000E+00 0. -1.
<mgrwt>
<rscale>  0 0.12268886E+03</rscale>
<asrwt>0</asrwt>
<pdfrwt beam="1">  1        1 0.13408085E+00 0.13157496E+03</pdfrwt>
<pdfrwt beam="2">  1       -1 0.23833234E-02 0.13157496E+03</pdfrwt>
<totfact> 0.10233072E+04</totfact>
</mgrwt>
</event>
<event>
 8    1  0.1020295E-005  0.1164058E+03  0.7546771E-02  0.1257081E+00
         -1   -1    0    0    0  501 -0.00000000000E+00  0.00000000000E+00  0.95504662896E+02  0.95504662896E+02  0.00000000000E+00 0.  1.
          1   -1    0    0  501    0  0.00000000000E+00 -0.00000000000E+00 -0.36771183075E+03  0.36771183075E+03  0.00000000000E+00 0. -1.
         23    2    1    2    0    0 -0.20146058110E+02  0.30594168729E+02  0.49502526654E+02  0.12649432465E+03  0.11049184226E+03 0.  0.
         23    2    1    2    0    0  0.20146058110E+02 -0.30594168729E+02 -0.32170969451E+03  0.33672216899E+03  0.92427402508E+02 0.  0.
          5    1    3    3  502    0  0.23551256911E+02  0.21966223808E+02 -0.23987992759E+02  0.40431305780E+02  0.47000000000E+01 0. -1.
         -5    1    3    3    0  502 -0.43697315021E+02  0.86279449203E+01  0.73490519413E+02  0.86063018871E+02  0.47000000000E+01 0.  1.
        -11    1    4    4    0    0  0.45997744473E+02  0.11873006221E+02 -0.19256511726E+03  0.19833830986E+03  0.00000000000E+00 0.  1.
         11    1    4    4    0    0 -0.25851686363E+02 -0.42467174950E+02 -0.12914457725E+03  0.13838385913E+03  0.00000000000E+00 0. -1.
<mgrwt>
<rscale>  0 0.11190549E+03</rscale>
<asrwt>0</asrwt>
<pdfrwt beam="2">  1        1 0.56571051E-01 0.11640582E+03</pdfrwt>
<pdfrwt beam="1">  1       -1 0.14693025E-01 0.11640582E+03</pdfrwt>
<totfact> 0.21815140E+03</totfact>
</mgrwt>
</event>
<event>
 8    1  0.1020295E-005  0.1299091E+03  0.7546771E-02  0.1239329E+00
         -1   -1    0    0    0  501 -0.00000000000E+00  0.00000000000E+00  0.48796575166E+02  0.48796575166E+02  0.00000000000E+00 0.  1.
          1   -1    0    0  501    0  0.00000000000E+00 -0.00000000000E+00 -0.27595538284E+03  0.27595538284E+03  0.00000000000E+00 0. -1.
         23    2    1    2    0    0  0.19428406309E+02 -0.41050166583E+02 -0.13156829807E+03  0.18489613588E+03  0.12171189284E+03 0.  0.
         23    2    1    2    0    0 -0.19428406309E+02  0.41050166583E+02 -0.95590509605E+02  0.13985582213E+03  0.91430445193E+02 0.  0.
          5    1    3    3  502    0 -0.14139712821E+01  0.41009914446E+02 -0.23461577411E+02  0.47501031696E+02  0.47000000000E+01 0. -1.
         -5    1    3    3    0  502  0.20842377591E+02 -0.82060081029E+02 -0.10810672066E+03  0.13739510419E+03  0.47000000000E+01 0.  1.
        -11    1    4    4    0    0  0.69445035236E+01 -0.85350122899E+01  0.13344198365E+02  0.17295669804E+02  0.00000000000E+00 0.  1.
         11    1    4    4    0    0 -0.26372909833E+02  0.49585178873E+02 -0.10893470797E+03  0.12256015232E+03  0.00000000000E+00 0. -1.
<mgrwt>
<rscale>  0 0.12231339E+03</rscale>
<asrwt>0</asrwt>
<pdfrwt beam="2">  1        1 0.42454674E-01 0.12990906E+03</pdfrwt>
<pdfrwt beam="1">  1       -1 0.75071654E-02 0.12990906E+03</pdfrwt>
<totfact> 0.87352434E+03</totfact>
</mgrwt>
</event>
<event>
 8    1  0.1020295E-005  0.1319776E+03  0.7546771E-02  0.1238322E+00
          2   -1    0    0  501    0  0.00000000000E+00  0.00000000000E+00  0.93996146505E+02  0.93996146505E+02  0.00000000000E+00 0. -1.
         -2   -1    0    0    0  501 -0.00000000000E+00 -0.00000000000E+00 -0.14244630074E+03  0.14244630074E+03  0.00000000000E+00 0.  1.
         23    2    1    2    0    0  0.23886914446E+02  0.34965814277E+02 -0.30487655093E+02  0.13545325012E+03  0.12499957202E+03 0.  0.
         23    2    1    2    0    0 -0.23886914446E+02 -0.34965814277E+02 -0.17962499145E+02  0.10098919713E+03  0.89905359745E+02 0.  0.
          5    1    3    3  502    0 -0.48078045576E+02  0.31975677064E+02 -0.24903755135E+02  0.63057350165E+02  0.47000000000E+01 0.  1.
         -5    1    3    3    0  502  0.71964960022E+02  0.29901372135E+01 -0.55838999580E+01  0.72395899954E+02  0.47000000000E+01 0.  1.
        -11    1    4    4    0    0  0.15857708488E+02 -0.41994276267E+02 -0.35256417670E+02  0.57078902798E+02  0.00000000000E+00 0.  1.
         11    1    4    4    0    0 -0.39744622934E+02  0.70284619896E+01  0.17293918525E+02  0.43910294329E+02  0.00000000000E+00 0. -1.
<mgrwt>
<rscale>  0 0.12294156E+03</rscale>
<asrwt>0</asrwt>
<pdfrwt beam="1">  1        2 0.14460946E-01 0.13197760E+03</pdfrwt>
<pdfrwt beam="2">  1       -2 0.21914815E-01 0.13197760E+03</pdfrwt>
<totfact> 0.68969982E+03</totfact>
</mgrwt>
</event>
<event>
 8    1  0.1020295E-005  0.1267230E+03  0.7546771E-02  0.1246791E+00
          1   -1    0    0  501    0  0.00000000000E+00  0.00000000000E+00  0.49977442050E+03  0.49977442050E+03  0.00000000000E+00 0. -1.
         -1   -1    0    0    0  501 -0.00000000000E+00 -0.00000000000E+00 -0.30134256676E+02  0.30134256676E+02  0.00000000000E+00 0.  1.
         23    2    1    2    0    0 -0.20441885033E+02 -0.40340351492E+01  0.14896586733E+03  0.19557491637E+03  0.12499829672E+03 0.  0.
         23    2    1    2    0    0  0.20441885033E+02  0.40340351492E+01  0.32067429650E+03  0.33433376081E+03  0.92265459823E+02 0.  0.
          5    1    3    3  502    0 -0.62388804941E+02 -0.10954801318E+02  0.13723660961E+03  0.15122284110E+03  0.47000000000E+01 0. -1.
         -5    1    3    3    0  502  0.41946919908E+02  0.69207661686E+01  0.11729257717E+02  0.44352075269E+02  0.47000000000E+01 0. -1.
        -11    1    4    4    0    0 -0.36479365122E+02 -0.25832993764E+01  0.14545271636E+03  0.14997969933E+03  0.00000000000E+00 0. -1.
         11    1    4    4    0    0  0.56921250155E+02  0.66173345256E+01  0.17522158014E+03  0.18435406147E+03  0.00000000000E+00 0.  1.
<mgrwt>
<rscale>  0 0.11778815E+03</rscale>
<asrwt>0</asrwt>
<pdfrwt beam="1">  1        1 0.76888366E-01 0.12672300E+03</pdfrwt>
<pdfrwt beam="2">  1       -1 0.46360399E-02 0.12672300E+03</pdfrwt>
<totfact> 0.84690959E+03</totfact>
</mgrwt>
</event>
<event>
 8    1  0.1020295E-005  0.1755434E+03  0.7546771E-02  0.1178195E+00
          1   -1    0    0  501    0  0.00000000000E+00  0.00000000000E+00  0.30453541326E+02  0.30453541326E+02  0.00000000000E+00 0. -1.
         -1   -1    0    0    0  501 -0.00000000000E+00 -0.00000000000E+00 -0.91843219322E+03  0.91843219322E+03  0.00000000000E+00 0.  1.
         23    2    1    2    0    0  0.11432145017E+03  0.46067986770E+02 -0.56050630416E+03  0.58735235278E+03  0.12499526365E+03 0.  0.
         23    2    1    2    0    0 -0.11432145017E+03 -0.46067986770E+02 -0.32747234773E+03  0.36153338177E+03  0.90975789245E+02 0.  0.
          5    1    3    3  502    0  0.38686001937E+02 -0.31810731946E+02 -0.78398427517E+02  0.93150055555E+02  0.47000000000E+01 0.  1.
         -5    1    3    3    0  502  0.75635448231E+02  0.77878718716E+02 -0.48210787664E+03  0.49420229722E+03  0.47000000000E+01 0.  1.
        -11    1    4    4    0    0 -0.80678868616E+02 -0.39597009128E+01 -0.27381291558E+03  0.28547902167E+03  0.00000000000E+00 0. -1.
         11    1    4    4    0    0 -0.33642581552E+02 -0.42108285857E+02 -0.53659432146E+02  0.76054360096E+02  0.00000000000E+00 0.  1.
<mgrwt>
<rscale>  0 0.16966739E+03</rscale>
<asrwt>0</asrwt>
<pdfrwt beam="1">  1        1 0.46851600E-02 0.17554335E+03</pdfrwt>
<pdfrwt beam="2">  1       -1 0.14129727E+00 0.17554335E+03</pdfrwt>
<totfact> 0.79856401E+02</totfact>
</mgrwt>
</event>
<event>
 8    1  0.1020295E-005  0.1253287E+03  0.7546771E-02  0.1253083E+00
         -2   -1    0    0    0  501 -0.00000000000E+00  0.00000000000E+00  0.24920344990E+02  0.24920344990E+02  0.00000000000E+00 0.  1.
          2   -1    0    0  501    0  0.00000000000E+00 -0.00000000000E+00 -0.46143372136E+03  0.46143372136E+03  0.00000000000E+00 0. -1.
         23    2    1    2    0    0  0.90390835113E+01 -0.13560798443E+01 -0.21826238250E+03  0.25168582616E+03  0.12499497387E+03 0.  0.
         23    2    1    2    0    0 -0.90390835113E+01  0.13560798443E+01 -0.21825099386E+03  0.23466824018E+03  0.85744636247E+02 0.  0.
          5    1    3    3  502    0  0.53816904293E+02  0.34834787323E+02 -0.14323201730E+03  0.15699433868E+03  0.47000000000E+01 0.  1.
         -5    1    3    3    0  502 -0.44777820782E+02 -0.36190867168E+02 -0.75030365198E+02  0.94691487485E+02  0.47000000000E+01 0.  1.
        -11    1    4    4    0    0  0.35715050811E+02 -0.90998049692E+01 -0.65550573364E+02  0.75201389437E+02  0.00000000000E+00 0.  1.
         11    1    4    4    0    0 -0.44754134322E+02  0.10455884813E+02 -0.15270042050E+03  0.15946685075E+03  0.00000000000E+00 0. -1.
<mgrwt>
<rscale>  0 0.11414400E+03</rscale>
<asrwt>0</asrwt>
<pdfrwt beam="2">  1        2 0.70989802E-01 0.12532872E+03</pdfrwt>
<pdfrwt beam="1">  1       -2 0.38338993E-02 0.12532872E+03</pdfrwt>
<totfact> 0.18651322E+04</totfact>
</mgrwt>
</event>
<event>
 8    1  0.1020295E-005  0.1877887E+03  0.7546771E-02  0.1165548E+00
          2   -1    0    0  501    0  0.00000000000E+00  0.00000000000E+00  0.45153277391E+02  0.45153277391E+02  0.00000000000E+00 0. -1.
         -2   -1    0    0    0  501 -0.00000000000E+00 -0.00000000000E+00 -0.70189465549E+03  0.70189465549E+03  0.00000000000E+00 0.  1.
         23    2    1    2    0    0 -0.13916610772E+03  0.16465880802E+02 -0.37933162648E+03  0.42326949956E+03  0.12500502248E+03 0.  0.
         23    2    1    2    0    0  0.13916610772E+03 -0.16465880802E+02 -0.27740975162E+03  0.32377843331E+03  0.90763279016E+02 0.  0.
          5    1    3    3  502    0  0.23346017638E+02  0.63830190182E+01 -0.42967712292E+02  0.49538810754E+02  0.47000000000E+01 0.  1.
         -5    1    3    3    0  502 -0.16251212536E+03  0.10082861784E+02 -0.33636391419E+03  0.37373068881E+03  0.47000000000E+01 0.  1.
        -11    1    4    4    0    0  0.24005463344E+02 -0.42366785401E+02 -0.88896767270E+02  0.10135996254E+03  0.00000000000E+00 0.  1.
         11    1    4    4    0    0  0.11516064438E+03  0.25900904599E+02 -0.18851298435E+03  0.22241847077E+03  0.00000000000E+00 0. -1.
<mgrwt>
<rscale>  0 0.18235028E+03</rscale>
<asrwt>0</asrwt>
<pdfrwt beam="1">  1        2 0.69466586E-02 0.18778867E+03</pdfrwt>
<pdfrwt beam="2">  1       -2 0.10798379E+00 0.18778867E+03</pdfrwt>
<totfact> 0.72180092E+02</totfact>
</mgrwt>
</event>
<event>
 8    1  0.1020295E-005  0.1378794E+03  0.7546771E-02  0.1226359E+00
         -2   -1    0    0    0  501 -0.00000000000E+00  0.00000000000E+00  0.26159422652E+02  0.26159422652E+02  0.00000000000E+00 0.  1.
          2   -1    0    0  501    0  0.00000000000E+00 -0.00000000000E+00 -0.66727486842E+03  0.66727486842E+03  0.00000000000E+00 0. -1.
         23    2    1    2    0    0  0.10300300039E+02  0.57270113852E+02 -0.23662590169E+03  0.27386591383E+03  0.12499903714E+03 0.  0.
         23    2    1    2    0    0 -0.10300300039E+02 -0.57270113852E+02 -0.40448954407E+03  0.41956837724E+03  0.95078229848E+02 0.  0.
          5    1    3    3  502    0  0.62607983212E+02  0.55347621878E+02 -0.16516359098E+03  0.18515998648E+03  0.47000000000E+01 0.  1.
         -5    1    3    3    0  502 -0.52307683173E+02  0.19224919738E+01 -0.71462310714E+02  0.88705927349E+02  0.47000000000E+01 0.  1.
        -11    1    4    4    0    0 -0.47393135567E+02 -0.38321877659E+02 -0.31524032595E+03  0.32107808818E+03  0.00000000000E+00 0. -1.
         11    1    4    4    0    0  0.37092835528E+02 -0.18948236193E+02 -0.89249218129E+02  0.98490289059E+02  0.00000000000E+00 0.  1.
<mgrwt>
<rscale>  0 0.13074201E+03</rscale>
<asrwt>0</asrwt>
<pdfrwt beam="2">  1        2 0.10265766E+00 0.13787937E+03</pdfrwt>
<pdfrwt beam="1">  1       -2 0.40245271E-02 0.13787937E+03</pdfrwt>
<totfact> 0.11566782E+04</totfact>
</mgrwt>
</event>
<event>
 8    1  0.1020295E-005  0.1286931E+03  0.7546771E-02  0.1244338E+00
          2   -1    0    0  501    0  0.00000000000E+00  0.00000000000E+00  0.15582949119E+03  0.15582949119E+03  0.00000000000E+00 0.  1.
         -2   -1    0    0    0  501 -0.00000000000E+00 -0.00000000000E+00 -0.80496628405E+02  0.80496628405E+02  0.00000000000E+00 0. -1.
         23    2    1    2    0    0 -0.69725779528E+01  0.29807702219E+02  0.50524724075E+02  0.13825577716E+03  0.12499918488E+03 0.  0.
         23    2    1    2    0    0  0.69725779528E+01 -0.29807702219E+02  0.24808138707E+02  0.98070342435E+02  0.89806638755E+02 0.  0.
          5    1    3    3  502    0  0.15234092892E+02 -0.44873801466E+02  0.33885881684E+02  0.58447229376E+02  0.47000000000E+01 0. -1.
         -5    1    3    3    0  502 -0.22206670845E+02  0.74681503685E+02  0.16638842391E+02  0.79808547780E+02  0.47000000000E+01 0. -1.
        -11    1    4    4    0    0  0.33481605858E+02 -0.10755673216E+02  0.46923903393E+02  0.58639194629E+02  0.00000000000E+00 0.  1.
         11    1    4    4    0    0 -0.26509027905E+02 -0.19052029004E+02 -0.22115764686E+02  0.39431147806E+02  0.00000000000E+00 0. -1.
<mgrwt>
<rscale>  0 0.11925069E+03</rscale>
<asrwt>0</asrwt>
<pdfrwt beam="1">  1        2 0.23973768E-01 0.12869309E+03</pdfrwt>
<pdfrwt beam="2">  1       -2 0.12384097E-01 0.12869309E+03</pdfrwt>
<totfact> 0.99326618E+03</totfact>
</mgrwt>
</event>
<event>
 8    1  0.1020295E-005  0.1386482E+03  0.7546771E-02  0.1225760E+00
         -2   -1    0    0    0  501 -0.00000000000E+00  0.00000000000E+00  0.37637242756E+02  0.37637242756E+02  0.00000000000E+00 0.  1.
          2   -1    0    0  501    0  0.00000000000E+00 -0.00000000000E+00 -0.46050709168E+03  0.46050709168E+03  0.00000000000E+00 0. -1.
         23    2    1    2    0    0  0.65164237446E+01  0.59620647439E+02 -0.15375197829E+03  0.20703377255E+03  0.12500490697E+03 0.  0.
         23    2    1    2    0    0 -0.65164237446E+01 -0.59620647439E+02 -0.26911787063E+03  0.29111056189E+03  0.93401528745E+02 0.  0.
          5    1    3    3  502    0 -0.12364875077E+02  0.30577167635E+01  0.19491879909E+02  0.23754223832E+02  0.47000000000E+01 0.  1.
         -5    1    3    3    0  502  0.18881298822E+02  0.56562930676E+02 -0.17324385820E+03  0.18327954871E+03  0.47000000000E+01 0.  1.
        -11    1    4    4    0    0 -0.48806074811E+02 -0.39696049635E+02 -0.17622610252E+03  0.18711880853E+03  0.00000000000E+00 0.  1.
         11    1    4    4    0    0  0.42289651066E+02 -0.19924597804E+02 -0.92891768112E+02  0.10399175336E+03  0.00000000000E+00 0. -1.
<mgrwt>
<rscale>  0 0.13114931E+03</rscale>
<asrwt>0</asrwt>
<pdfrwt beam="2">  1        2 0.70847244E-01 0.13864816E+03</pdfrwt>
<pdfrwt beam="1">  1       -2 0.57903451E-02 0.13864816E+03</pdfrwt>
<totfact> 0.10166609E+04</totfact>
</mgrwt>
</event>
<event>
 8    1  0.1020295E-005  0.1583718E+03  0.7546771E-02  0.1198447E+00
          1   -1    0    0  501    0  0.00000000000E+00  0.00000000000E+00  0.72477250306E+02  0.72477250306E+02  0.00000000000E+00 0. -1.
         -1   -1    0    0    0  501 -0.00000000000E+00 -0.00000000000E+00 -0.29377181018E+03  0.29377181018E+03  0.00000000000E+00 0.  1.
         23    2    1    2    0    0 -0.37925191632E+02  0.89537949330E+02 -0.12813290429E+03  0.20371469808E+03  0.12500508998E+03 0.  0.
         23    2    1    2    0    0  0.37925191632E+02 -0.89537949330E+02 -0.93161655591E+02  0.16253436241E+03  0.91010770580E+02 0.  0.
          5    1    3    3  502    0 -0.64480710474E+02  0.19186699030E+02 -0.10519755422E+03  0.12495802038E+03  0.47000000000E+01 0.  1.
         -5    1    3    3    0  502  0.26555518842E+02  0.70351250300E+02 -0.22935350066E+02  0.78756677700E+02  0.47000000000E+01 0.  1.
        -11    1    4    4    0    0 -0.27386806854E+01 -0.41148889926E+02 -0.90290444572E+02  0.99262761875E+02  0.00000000000E+00 0.  1.
         11    1    4    4    0    0  0.40663872317E+02 -0.48389059404E+02 -0.28712110194E+01  0.63271600537E+02  0.00000000000E+00 0. -1.
<mgrwt>
<rscale>  0 0.15166052E+03</rscale>
<asrwt>0</asrwt>
<pdfrwt beam="1">  1        1 0.11150347E-01 0.15837183E+03</pdfrwt>
<pdfrwt beam="2">  1       -1 0.45195662E-01 0.15837183E+03</pdfrwt>
<totfact> 0.26705310E+03</totfact>
</mgrwt>
</event>
<event>
 8    1  0.1020295E-005  0.1465138E+03  0.7546771E-02  0.1214483E+00
         -3   -1    0    0    0  501 -0.00000000000E+00  0.00000000000E+00  0.44051460722E+03  0.44051460722E+03  0.00000000000E+00 0.  1.
          3   -1    0    0  501    0  0.00000000000E+00 -0.00000000000E+00 -0.54063438953E+02  0.54063438953E+02  0.00000000000E+00 0. -1.
         23    2    1    2    0    0  0.11742357046E+02 -0.75521137888E+02  0.33328334932E+03  0.36406605285E+03  0.12499989875E+03 0.  0.
         23    2    1    2    0    0 -0.11742357046E+02  0.75521137888E+02  0.53167818947E+02  0.13051199332E+03  0.91461676191E+02 0.  0.
          5    1    3    3  502    0 -0.10755313480E+02 -0.10397322288E+03  0.19826223314E+03  0.22417874773E+03  0.47000000000E+01 0. -1.
         -5    1    3    3    0  502  0.22497670525E+02  0.28452084994E+02  0.13502111618E+03  0.13988730512E+03  0.47000000000E+01 0. -1.
        -11    1    4    4    0    0  0.34483978767E+02  0.59829294081E+02  0.40586775589E+02  0.80099785109E+02  0.00000000000E+00 0. -1.
         11    1    4    4    0    0 -0.46226335812E+02  0.15691843808E+02  0.12581043358E+02  0.50412208211E+02  0.00000000000E+00 0.  1.
<mgrwt>
<rscale>  0 0.13914579E+03</rscale>
<asrwt>0</asrwt>
<pdfrwt beam="2">  1        3 0.83174524E-02 0.14651382E+03</pdfrwt>
<pdfrwt beam="1">  1       -3 0.67771476E-01 0.14651382E+03</pdfrwt>
<totfact> 0.50016608E+02</totfact>
</mgrwt>
</event>
<event>
 8    1  0.1020295E-005  0.1742223E+03  0.7546771E-02  0.1179408E+00
          1   -1    0    0  501    0  0.00000000000E+00  0.00000000000E+00  0.65582561870E+02  0.65582561870E+02  0.00000000000E+00 0. -1.
         -1   -1    0    0    0  501 -0.00000000000E+00 -0.00000000000E+00 -0.83730932943E+03  0.83730932943E+03  0.00000000000E+00 0.  1.
         23    2    1    2    0    0 -0.74841569260E+02 -0.95527369006E+02 -0.72167499726E+03  0.74240704684E+03  0.12500673105E+03 0.  0.
         23    2    1    2    0    0  0.74841569260E+02  0.95527369006E+02 -0.50051770292E+02  0.16048484445E+03  0.92322623830E+02 0.  0.
          5    1    3    3  502    0 -0.12403680293E+02  0.17373638137E+02 -0.22337603740E+02  0.31253049896E+02  0.47000000000E+01 0.  1.
         -5    1    3    3    0  502 -0.62437888967E+02 -0.11290100714E+03 -0.69933739352E+03  0.71115399695E+03  0.47000000000E+01 0.  1.
        -11    1    4    4    0    0  0.21027660707E+02  0.22792699609E+02 -0.61900832673E+02  0.69234259986E+02  0.00000000000E+00 0.  1.
         11    1    4    4    0    0  0.53813908553E+02  0.72734669398E+02  0.11849062381E+02  0.91250584466E+02  0.00000000000E+00 0. -1.
<mgrwt>
<rscale>  0 0.16851215E+03</rscale>
<asrwt>0</asrwt>
<pdfrwt beam="1">  1        1 0.10089625E-01 0.17422233E+03</pdfrwt>
<pdfrwt beam="2">  1       -1 0.12881682E+00 0.17422233E+03</pdfrwt>
<totfact> 0.35417893E+02</totfact>
</mgrwt>
</event>
<event>
 8    1  0.1020295E-005  0.1594116E+03  0.7546771E-02  0.1195989E+00
         -2   -1    0    0    0  501 -0.00000000000E+00  0.00000000000E+00  0.31615008971E+03  0.31615008971E+03  0.00000000000E+00 0.  1.
          2   -1    0    0  501    0  0.00000000000E+00 -0.00000000000E+00 -0.10882166823E+03  0.10882166823E+03  0.00000000000E+00 0. -1.
         23    2    1    2    0    0  0.87187009631E+02 -0.46753037899E+02  0.23545005922E+03  0.28433922111E+03  0.12499856428E+03 0.  0.
         23    2    1    2    0    0 -0.87187009631E+02  0.46753037899E+02 -0.28121637742E+02  0.14063253682E+03  0.95912786961E+02 0.  0.
          5    1    3    3  502    0 -0.53249823536E+01 -0.58876987798E+02  0.13338540083E+03  0.14597469056E+03  0.47000000000E+01 0.  1.
         -5    1    3    3    0  502  0.92511991984E+02  0.12123949899E+02  0.10206465839E+03  0.13836453055E+03  0.47000000000E+01 0.  1.
        -11    1    4    4    0    0  0.20397498539E+02  0.91587270665E+01  0.28367866665E+01  0.22538579962E+02  0.00000000000E+00 0.  1.
         11    1    4    4    0    0 -0.10758450817E+03  0.37594310832E+02 -0.30958424408E+02  0.11809395686E+03  0.00000000000E+00 0. -1.
<mgrwt>
<rscale>  0 0.15370787E+03</rscale>
<asrwt>0</asrwt>
<pdfrwt beam="2">  1        2 0.16741795E-01 0.15941161E+03</pdfrwt>
<pdfrwt beam="1">  1       -2 0.48638475E-01 0.15941161E+03</pdfrwt>
<totfact> 0.13634897E+03</totfact>
</mgrwt>
</event>
<event>
 8    1  0.1020295E-005  0.2411581E+03  0.7546771E-02  0.1121540E+00
         -2   -1    0    0    0  501 -0.00000000000E+00  0.00000000000E+00  0.26062324590E+03  0.26062324590E+03  0.00000000000E+00 0.  1.
          2   -1    0    0  501    0  0.00000000000E+00 -0.00000000000E+00 -0.22403829241E+03  0.22403829241E+03  0.00000000000E+00 0. -1.
         23    2    1    2    0    0 -0.18661000045E+03  0.87790733446E+02  0.80004020454E+02  0.25408239871E+03  0.12500686740E+03 0.  0.
         23    2    1    2    0    0  0.18661000045E+03 -0.87790733446E+02 -0.43419066963E+02  0.23057913960E+03  0.93546881804E+02 0.  0.
          5    1    3    3  502    0 -0.57696061358E+02  0.78013225027E+02  0.78186372386E+02  0.12470003048E+03  0.47000000000E+01 0.  1.
         -5    1    3    3    0  502 -0.12891393910E+03  0.97775084185E+01  0.18176480682E+01  0.12938236823E+03  0.47000000000E+01 0.  1.
        -11    1    4    4    0    0  0.17092224320E+03 -0.45707288790E+02 -0.15295571290E+02  0.17758807384E+03  0.00000000000E+00 0.  1.
         11    1    4    4    0    0  0.15687757254E+02 -0.42083444656E+02 -0.28123495673E+02  0.52991065762E+02  0.00000000000E+00 0. -1.
<mgrwt>
<rscale>  0 0.23739496E+03</rscale>
<asrwt>0</asrwt>
<pdfrwt beam="2">  1        2 0.34467430E-01 0.24115809E+03</pdfrwt>
<pdfrwt beam="1">  1       -2 0.40095884E-01 0.24115809E+03</pdfrwt>
<totfact> 0.89197590E+02</totfact>
</mgrwt>
</event>
<event>
 8    1  0.1020295E-005  0.2048673E+03  0.7546771E-02  0.1149423E+00
          1   -1    0    0  501    0  0.00000000000E+00  0.00000000000E+00  0.38509855216E+03  0.38509855216E+03  0.00000000000E+00 0. -1.
         -1   -1    0    0    0  501 -0.00000000000E+00 -0.00000000000E+00 -0.10019943909E+03  0.10019943909E+03  0.00000000000E+00 0.  1.
         23    2    1    2    0    0  0.15994116500E+03  0.27675232878E+02  0.13623233042E+03  0.24602820185E+03  0.12499413378E+03 0.  0.
         23    2    1    2    0    0 -0.15994116500E+03 -0.27675232878E+02  0.14866678265E+03  0.23926978940E+03  0.93814311713E+02 0.  0.
          5    1    3    3  502    0 -0.13268750417E+02 -0.13689601072E+02 -0.30864184155E+01  0.19876641914E+02  0.47000000000E+01 0.  1.
         -5    1    3    3    0  502  0.17320991541E+03  0.41364833949E+02  0.13931874883E+03  0.22615155994E+03  0.47000000000E+01 0.  1.
        -11    1    4    4    0    0 -0.25402739237E+02 -0.43498148424E+01 -0.11990528452E+02  0.28425214554E+02  0.00000000000E+00 0.  1.
         11    1    4    4    0    0 -0.13453842576E+03 -0.23325418035E+02  0.16065731110E+03  0.21084457485E+03  0.00000000000E+00 0. -1.
<mgrwt>
<rscale>  0 0.20037451E+03</rscale>
<asrwt>0</asrwt>
<pdfrwt beam="1">  1        1 0.59245931E-01 0.20486734E+03</pdfrwt>
<pdfrwt beam="2">  1       -1 0.15415298E-01 0.20486734E+03</pdfrwt>
<totfact> 0.19417462E+03</totfact>
</mgrwt>
</event>
<event>
 8    1  0.1020295E-005  0.1473598E+03  0.7546771E-02  0.1214129E+00
         -4   -1    0    0    0  501 -0.00000000000E+00  0.00000000000E+00  0.22763852063E+03  0.22763852063E+03  0.00000000000E+00 0.  1.
          4   -1    0    0  501    0  0.00000000000E+00 -0.00000000000E+00 -0.88047608430E+02  0.88047608430E+02  0.00000000000E+00 0. -1.
         23    2    1    2    0    0 -0.21724654573E+02  0.74948653946E+02  0.13129020503E+03  0.19736270726E+03  0.12500263572E+03 0.  0.
         23    2    1    2    0    0  0.21724654573E+02 -0.74948653946E+02  0.83007071692E+01  0.11832342179E+03  0.88556586774E+02 0.  0.
          5    1    3    3  502    0 -0.24889145144E+01  0.10770326817E+03  0.10767829549E+03  0.15239059679E+03  0.47000000000E+01 0. -1.
         -5    1    3    3    0  502 -0.19235740058E+02 -0.32754614224E+02  0.23611909539E+02  0.44972110476E+02  0.47000000000E+01 0. -1.
        -11    1    4    4    0    0  0.18042569995E+02  0.29352560055E+01  0.31980397319E+02  0.36836067550E+02  0.00000000000E+00 0.  1.
         11    1    4    4    0    0  0.36820845775E+01 -0.77883909952E+02 -0.23679690150E+02  0.81487354245E+02  0.00000000000E+00 0. -1.
<mgrwt>
<rscale>  0 0.13940688E+03</rscale>
<asrwt>0</asrwt>
<pdfrwt beam="2">  1        4 0.13545786E-01 0.14735983E+03</pdfrwt>
<pdfrwt beam="1">  1       -4 0.35021311E-01 0.14735983E+03</pdfrwt>
<totfact> 0.59890249E+02</totfact>
</mgrwt>
</event>
<event>
 8    1  0.1020295E-005  0.1424273E+03  0.7546771E-02  0.1216903E+00
          1   -1    0    0  501    0  0.00000000000E+00  0.00000000000E+00  0.12251523559E+04  0.12251523559E+04  0.00000000000E+00 0. -1.
         -1   -1    0    0    0  501 -0.00000000000E+00 -0.00000000000E+00 -0.14774708199E+02  0.14774708199E+02  0.00000000000E+00 0.  1.
         23    2    1    2    0    0  0.13939577634E+02 -0.66828109903E+02  0.55001366534E+03  0.56815540276E+03  0.12500088611E+03 0.  0.
         23    2    1    2    0    0 -0.13939577634E+02  0.66828109903E+02  0.66036398239E+03  0.67177166137E+03  0.10264632326E+03 0.  0.
          5    1    3    3  502    0 -0.33426050497E+02 -0.70221396397E+02  0.19564439069E+03  0.21058766102E+03  0.47000000000E+01 0.  1.
         -5    1    3    3    0  502  0.47365628131E+02  0.33932864942E+01  0.35436927464E+03  0.35756774174E+03  0.47000000000E+01 0.  1.
        -11    1    4    4    0    0 -0.58178914809E+02  0.29650184588E+02  0.33171962692E+03  0.33808553719E+03  0.00000000000E+00 0.  1.
         11    1    4    4    0    0  0.44239337175E+02  0.37177925314E+02  0.32864435547E+03  0.33368612417E+03  0.00000000000E+00 0. -1.
<mgrwt>
<rscale>  0 0.13737671E+03</rscale>
<asrwt>0</asrwt>
<pdfrwt beam="1">  1        1 0.18848490E+00 0.14242728E+03</pdfrwt>
<pdfrwt beam="2">  1       -1 0.22730330E-02 0.14242728E+03</pdfrwt>
<totfact> 0.61119470E+03</totfact>
</mgrwt>
</event>
<event>
 7    1  0.1020295E-005  0.6326897E+03  0.7546771E-02  0.1028705E+00
         -1   -1    0    0    0  501 -0.00000000000E+00  0.00000000000E+00  0.44888700763E+03  0.44888700763E+03  0.00000000000E+00 0.  1.
          1   -1    0    0  501    0  0.00000000000E+00 -0.00000000000E+00 -0.47334825786E+03  0.47334825786E+03  0.00000000000E+00 0. -1.
         23    2    1    2    0    0  0.12794840989E+03  0.14100010685E+00 -0.21051432426E+03  0.26275666030E+03  0.91400034668E+02 0.  0.
          5    1    1    2  502    0  0.92219924268E+02 -0.21989805971E+03 -0.78509068477E+02  0.25108850019E+03  0.47000000000E+01 0. -1.
         -5    1    1    2    0  502 -0.22016833416E+03  0.21975705960E+03  0.26456214251E+03  0.40839010500E+03  0.47000000000E+01 0.  1.
        -11    1    3    3    0    0 -0.14030099530E+02  0.56824304586E+01 -0.19133897248E+02  0.24397535381E+02  0.00000000000E+00 0.  1.
         11    1    3    3    0    0  0.14197850942E+03 -0.55414303518E+01 -0.19138042701E+03  0.23835912492E+03  0.00000000000E+00 0. -1.
<mgrwt>
<rscale>  0 0.44671922E+03</rscale>
<asrwt>0</asrwt>
<pdfrwt beam="2">  1        1 0.72822809E-01 0.63268972E+03</pdfrwt>
<pdfrwt beam="1">  1       -1 0.69059539E-01 0.63268972E+03</pdfrwt>
<totfact> 0.10402026E+02</totfact>
</mgrwt>
</event>
<event>
 8    1  0.1020295E-005  0.1364429E+03  0.7546771E-02  0.1230090E+00
         -2   -1    0    0    0  501 -0.00000000000E+00  0.00000000000E+00  0.29832403234E+03  0.29832403234E+03  0.00000000000E+00 0.  1.
          2   -1    0    0  501    0  0.00000000000E+00 -0.00000000000E+00 -0.74327326957E+02  0.74327326957E+02  0.00000000000E+00 0. -1.
         23    2    1    2    0    0 -0.39973010319E+02 -0.37352637302E+02  0.22843741750E+03  0.26608328328E+03  0.12499439530E+03 0.  0.
         23    2    1    2    0    0  0.39973010319E+02  0.37352637302E+02 -0.44407121172E+01  0.10656807602E+03  0.91345354756E+02 0.  0.
          5    1    3    3  502    0 -0.21473636164E+02 -0.21153971049E+02  0.23750586287E+03  0.23945716201E+03  0.47000000000E+01 0.  1.
         -5    1    3    3    0  502 -0.18499374155E+02 -0.16198666253E+02 -0.90684453647E+01  0.26626121269E+02  0.47000000000E+01 0.  1.
        -11    1    4    4    0    0  0.36449288027E+02  0.47817773216E+02 -0.38075080146E+02  0.71167420644E+02  0.00000000000E+00 0. -1.
         11    1    4    4    0    0  0.35237222914E+01 -0.10465135914E+02  0.33634368029E+02  0.35400655378E+02  0.00000000000E+00 0.  1.
<mgrwt>
<rscale>  0 0.12824062E+03</rscale>
<asrwt>0</asrwt>
<pdfrwt beam="2">  1        2 0.11434974E-01 0.13644288E+03</pdfrwt>
<pdfrwt beam="1">  1       -2 0.45896004E-01 0.13644288E+03</pdfrwt>
<totfact> 0.23831889E+03</totfact>
</mgrwt>
</event>
<event>
 8    1  0.1020295E-005  0.2115347E+03  0.7546771E-02  0.1144364E+00
          2   -1    0    0  501    0  0.00000000000E+00  0.00000000000E+00  0.36985806924E+03  0.36985806924E+03  0.00000000000E+00 0. -1.
         -2   -1    0    0    0  501 -0.00000000000E+00 -0.00000000000E+00 -0.11016231196E+03  0.11016231196E+03  0.00000000000E+00 0.  1.
         23    2    1    2    0    0  0.10720592734E+03 -0.13105673019E+03  0.13987078554E+03  0.25359565192E+03  0.12679881956E+03 0.  0.
         23    2    1    2    0    0 -0.10720592734E+03  0.13105673019E+03  0.11982497174E+03  0.22642472928E+03  0.90780817308E+02 0.  0.
          5    1    3    3  502    0  0.11256894788E+03 -0.10682193226E+03  0.15875610190E+03  0.22205468500E+03  0.47000000000E+01 0. -1.
         -5    1    3    3    0  502 -0.53630205426E+01 -0.24234797932E+02 -0.18885316365E+02  0.31540966922E+02  0.47000000000E+01 0.  1.
        -11    1    4    4    0    0  0.44314507695E+00  0.26767098840E+02  0.58777715371E+02  0.64587102289E+02  0.00000000000E+00 0. -1.
         11    1    4    4    0    0 -0.10764907241E+03  0.10428963135E+03  0.61047256372E+02  0.16183762699E+03  0.00000000000E+00 0.  1.
<mgrwt>
<rscale>  0 0.20650443E+03</rscale>
<asrwt>0</asrwt>
<pdfrwt beam="1">  1        2 0.56901241E-01 0.21153467E+03</pdfrwt>
<pdfrwt beam="2">  1       -2 0.16948048E-01 0.21153467E+03</pdfrwt>
<totfact> 0.24018557E+03</totfact>
</mgrwt>
</event>
<event>
 8    1  0.1020295E-005  0.1365510E+03  0.7546771E-02  0.1222001E+00
         -1   -1    0    0    0  501 -0.00000000000E+00  0.00000000000E+00  0.40077196113E+02  0.40077196113E+02  0.00000000000E+00 0.  1.
          1   -1    0    0  501    0  0.00000000000E+00 -0.00000000000E+00 -0.43856506411E+03  0.43856506411E+03  0.00000000000E+00 0. -1.
         23    2    1    2    0    0  0.37975153505E+02  0.39736760551E+02 -0.17188340327E+03  0.21952237196E+03  0.12500018020E+03 0.  0.
         23    2    1    2    0    0 -0.37975153505E+02 -0.39736760551E+02 -0.22660446473E+03  0.25911988826E+03  0.11301509029E+03 0.  0.
          5    1    3    3  502    0 -0.18025614266E+02 -0.33020752348E+02 -0.84810219964E+02  0.92898634358E+02  0.47000000000E+01 0.  1.
         -5    1    3    3    0  502  0.56000767772E+02  0.72757512899E+02 -0.87073183303E+02  0.12662373760E+03  0.47000000000E+01 0.  1.
        -11    1    4    4    0    0 -0.61616490044E+00  0.31748321881E+02 -0.12722197980E+03  0.13112500809E+03  0.00000000000E+00 0. -1.
         11    1    4    4    0    0 -0.37358988605E+02 -0.71485082432E+02 -0.99382484931E+02  0.12799488017E+03  0.00000000000E+00 0.  1.
<mgrwt>
<rscale>  0 0.13374606E+03</rscale>
<asrwt>0</asrwt>
<pdfrwt beam="2">  1        1 0.67471546E-01 0.13655097E+03</pdfrwt>
<pdfrwt beam="1">  1       -1 0.61657227E-02 0.13655097E+03</pdfrwt>
<totfact> 0.65988695E+03</totfact>
</mgrwt>
</event>
<event>
 7    1  0.1020295E-005  0.2086000E+03  0.7546771E-02  0.1160184E+00
          3   -1    0    0  501    0  0.00000000000E+00  0.00000000000E+00  0.56790350921E+02  0.56790350921E+02  0.00000000000E+00 0. -1.
         -3   -1    0    0    0  501 -0.00000000000E+00 -0.00000000000E+00 -0.73186876602E+03  0.73186876602E+03  0.00000000000E+00 0.  1.
         23    2    1    2    0    0 -0.33604705177E+02  0.97461141937E+02 -0.83145275449E+02  0.16104554815E+03  0.91621947972E+02 0.  0.
          5    1    1    2  502    0  0.19958056489E+02 -0.12473424754E+03 -0.21490989885E+03  0.24932972376E+03  0.47000000000E+01 0. -1.
         -5    1    1    2    0  502  0.13646648688E+02  0.27273105602E+02 -0.37702324080E+03  0.37828384503E+03  0.47000000000E+01 0.  1.
        -11    1    3    3    0    0  0.16828167243E+02  0.82953452334E+02 -0.42784967030E+02  0.94842057499E+02  0.00000000000E+00 0. -1.
         11    1    3    3    0    0 -0.50432872419E+02  0.14507689603E+02 -0.40360308419E+02  0.66203490646E+02  0.00000000000E+00 0.  1.
<mgrwt>
<rscale>  0 0.18810235E+03</rscale>
<asrwt>0</asrwt>
<pdfrwt beam="1">  1        3 0.87369772E-02 0.20859998E+03</pdfrwt>
<pdfrwt beam="2">  1       -3 0.11259519E+00 0.20859998E+03</pdfrwt>
<totfact> 0.15552013E+02</totfact>
</mgrwt>
</event>
<event>
 8    1  0.1020295E-005  0.1668844E+03  0.7546771E-02  0.1187966E+00
         -2   -1    0    0    0  501 -0.00000000000E+00  0.00000000000E+00  0.27489914368E+03  0.27489914368E+03  0.00000000000E+00 0. -1.
          2   -1    0    0  501    0  0.00000000000E+00 -0.00000000000E+00 -0.91990353266E+02  0.91990353266E+02  0.00000000000E+00 0.  1.
         23    2    1    2    0    0 -0.42398967722E+02  0.10211749123E+03  0.13846943957E+03  0.21685064852E+03  0.12499905436E+03 0.  0.
         23    2    1    2    0    0  0.42398967722E+02 -0.10211749123E+03  0.44439350846E+02  0.15003884843E+03  0.91165484996E+02 0.  0.
          5    1    3    3  502    0 -0.46253261918E+02  0.53390670845E+02  0.15047736944E+03  0.16629929851E+03  0.47000000000E+01 0.  1.
         -5    1    3    3    0  502  0.38542941952E+01  0.48726820386E+02 -0.12007929866E+02  0.50551350015E+02  0.47000000000E+01 0.  1.
        -11    1    4    4    0    0  0.24309781457E+02 -0.18560531654E+02  0.55960616535E+02  0.63773422465E+02  0.00000000000E+00 0. -1.
         11    1    4    4    0    0  0.18089186265E+02 -0.83556959577E+02 -0.11521265690E+02  0.86265425963E+02  0.00000000000E+00 0.  1.
<mgrwt>
<rscale>  0 0.16064917E+03</rscale>
<asrwt>0</asrwt>
<pdfrwt beam="2">  1        2 0.14152362E-01 0.16688445E+03</pdfrwt>
<pdfrwt beam="1">  1       -2 0.42292176E-01 0.16688445E+03</pdfrwt>
<totfact> 0.21838228E+03</totfact>
</mgrwt>
</event>
<event>
 8    1  0.1020295E-005  0.1333858E+03  0.7546771E-02  0.1235003E+00
         -2   -1    0    0    0  501 -0.00000000000E+00  0.00000000000E+00  0.36264690024E+02  0.36264690024E+02  0.00000000000E+00 0.  1.
          2   -1    0    0  501    0  0.00000000000E+00 -0.00000000000E+00 -0.38614529236E+03  0.38614529236E+03  0.00000000000E+00 0. -1.
         23    2    1    2    0    0 -0.25328574970E+02  0.39116407993E+02 -0.18733316262E+03  0.22996841567E+03  0.12498051169E+03 0.  0.
         23    2    1    2    0    0  0.25328574970E+02 -0.39116407993E+02 -0.16254743972E+03  0.19244156672E+03  0.91871956323E+02 0.  0.
          5    1    3    3  502    0  0.11013057012E+02 -0.30715227724E+02 -0.12549418915E+03  0.12975204873E+03  0.47000000000E+01 0. -1.
         -5    1    3    3    0  502 -0.36341631982E+02  0.69831635717E+02 -0.61838973467E+02  0.10021636693E+03  0.47000000000E+01 0. -1.
        -11    1    4    4    0    0  0.59364699292E+02 -0.28221615005E+02 -0.88693489622E+02  0.11039548078E+03  0.00000000000E+00 0. -1.
         11    1    4    4    0    0 -0.34036124322E+02 -0.10894792988E+02 -0.73853950100E+02  0.82046085943E+02  0.00000000000E+00 0.  1.
<mgrwt>
<rscale>  0 0.12504236E+03</rscale>
<asrwt>0</asrwt>
<pdfrwt beam="2">  1        2 0.59406965E-01 0.13338575E+03</pdfrwt>
<pdfrwt beam="1">  1       -2 0.55791834E-02 0.13338575E+03</pdfrwt>
<totfact> 0.12957355E+04</totfact>
</mgrwt>
</event>
<event>
 8    1  0.1020295E-005  0.1254698E+03  0.7546771E-02  0.1249935E+00
          2   -1    0    0  501    0  0.00000000000E+00  0.00000000000E+00  0.18526383229E+03  0.18526383229E+03  0.00000000000E+00 0.  1.
         -2   -1    0    0    0  501 -0.00000000000E+00 -0.00000000000E+00 -0.66321190267E+02  0.66321190267E+02  0.00000000000E+00 0. -1.
         23    2    1    2    0    0  0.51104182748E+01  0.97129174894E+01  0.42878639913E+02  0.13259430103E+03  0.12498885456E+03 0.  0.
         23    2    1    2    0    0 -0.51104182748E+01 -0.97129174894E+01  0.76064002116E+02  0.11899072153E+03  0.90843834414E+02 0.  0.
          5    1    3    3  502    0  0.59516914816E+02  0.30483161005E+02  0.22075945455E+02  0.70575658848E+02  0.47000000000E+01 0. -1.
         -5    1    3    3    0  502 -0.54406496542E+02 -0.20770243516E+02  0.20802694458E+02  0.62018642184E+02  0.47000000000E+01 0. -1.
        -11    1    4    4    0    0 -0.43299648301E+01 -0.47393051566E+02  0.20423936103E+02  0.51787904940E+02  0.00000000000E+00 0.  1.
         11    1    4    4    0    0 -0.78045344472E+00  0.37680134076E+02  0.55640066013E+02  0.67202816589E+02  0.00000000000E+00 0. -1.
<mgrwt>
<rscale>  0 0.11594844E+03</rscale>
<asrwt>0</asrwt>
<pdfrwt beam="1">  1        2 0.28502128E-01 0.12546980E+03</pdfrwt>
<pdfrwt beam="2">  1       -2 0.10203260E-01 0.12546980E+03</pdfrwt>
<totfact> 0.11146298E+04</totfact>
</mgrwt>
</event>
<event>
 8    1  0.1020295E-005  0.2440542E+03  0.7546771E-02  0.1119865E+00
         -3   -1    0    0    0  501 -0.00000000000E+00  0.00000000000E+00  0.80447250440E+02  0.80447250440E+02  0.00000000000E+00 0.  1.
          3   -1    0    0  501    0  0.00000000000E+00 -0.00000000000E+00 -0.77416213836E+03  0.77416213836E+03  0.00000000000E+00 0. -1.
         23    2    1    2    0    0  0.72195350747E+02  0.19678774169E+03 -0.21837080654E+03  0.32748782056E+03  0.12499951808E+03 0.  0.
         23    2    1    2    0    0 -0.72195350747E+02 -0.19678774169E+03 -0.47534408138E+03  0.52712156824E+03  0.89261234866E+02 0.  0.
          5    1    3    3  502    0  0.67024356224E+02  0.27710973436E+02 -0.86311941742E+02  0.11283618065E+03  0.47000000000E+01 0. -1.
         -5    1    3    3    0  502  0.51709945229E+01  0.16907676825E+03 -0.13205886480E+03  0.21465163991E+03  0.47000000000E+01 0. -1.
        -11    1    4    4    0    0 -0.17175415049E+02 -0.14091266685E+03 -0.23757209326E+03  0.27675236956E+03  0.00000000000E+00 0.  1.
         11    1    4    4    0    0 -0.55019935698E+02 -0.55875074838E+02 -0.23777198811E+03  0.25036919867E+03  0.00000000000E+00 0. -1.
<mgrwt>
<rscale>  0 0.23989216E+03</rscale>
<asrwt>0</asrwt>
<pdfrwt beam="2">  1        3 0.11910186E+00 0.24405422E+03</pdfrwt>
<pdfrwt beam="1">  1       -3 0.12376501E-01 0.24405422E+03</pdfrwt>
<totfact> 0.77219598E+01</totfact>
</mgrwt>
</event>
<event>
 8    1  0.1220039E-005  0.2365613E+03  0.7546771E-02  0.1124894E+00
          2   -1    0    0  501    0  0.00000000000E+00  0.00000000000E+00  0.15887235556E+04  0.15887235556E+04  0.00000000000E+00 0. -1.
         -2   -1    0    0    0  501 -0.00000000000E+00 -0.00000000000E+00 -0.32906063525E+02  0.32906063525E+02  0.00000000000E+00 0.  1.
         23    2    1    2    0    0 -0.15079595138E+03  0.13265173257E+03  0.80042893521E+03  0.83465426274E+03  0.12500142753E+03 0.  0.
         23    2    1    2    0    0  0.15079595138E+03 -0.13265173257E+03  0.75538855683E+03  0.78697535634E+03  0.91555658503E+02 0.  0.
          5    1    3    3  502    0 -0.15685812204E+03  0.84249354884E+02  0.70772713233E+03  0.72979600443E+03  0.47000000000E+01 0.  1.
         -5    1    3    3    0  502  0.60621706616E+01  0.48402377684E+02  0.92701802883E+02  0.10485825831E+03  0.47000000000E+01 0.  1.
        -11    1    4    4    0    0  0.45416766389E+02 -0.10063588958E+03  0.36238713955E+03  0.37883334575E+03  0.00000000000E+00 0. -1.
         11    1    4    4    0    0  0.10537918499E+03 -0.32015842990E+02  0.39300141728E+03  0.40814201060E+03  0.00000000000E+00 0.  1.
<mgrwt>
<rscale>  0 0.23249807E+03</rscale>
<asrwt>0</asrwt>
<pdfrwt beam="1">  1        2 0.24441895E+00 0.23656132E+03</pdfrwt>
<pdfrwt beam="2">  1       -2 0.50624725E-02 0.23656132E+03</pdfrwt>
<totfact> 0.23517358E+03</totfact>
</mgrwt>
</event>
<event>
 8    1  0.1020295E-005  0.1595733E+03  0.7546771E-02  0.1197022E+00
         -1   -1    0    0    0  501 -0.00000000000E+00  0.00000000000E+00  0.22666960317E+03  0.22666960317E+03  0.00000000000E+00 0.  1.
          1   -1    0    0  501    0  0.00000000000E+00 -0.00000000000E+00 -0.95284614240E+02  0.95284614240E+02  0.00000000000E+00 0. -1.
         23    2    1    2    0    0  0.81530955315E+02  0.56486157853E+02  0.68564036848E+02  0.17367973229E+03  0.12500255820E+03 0.  0.
         23    2    1    2    0    0 -0.81530955315E+02 -0.56486157853E+02  0.62820952081E+02  0.14827448512E+03  0.90558645160E+02 0.  0.
          5    1    3    3  502    0  0.68363168965E+02 -0.18962026139E+02  0.48757054989E+00  0.71101399643E+02  0.47000000000E+01 0.  1.
         -5    1    3    3    0  502  0.13167786350E+02  0.75448183992E+02  0.68076466298E+02  0.10257833265E+03  0.47000000000E+01 0.  1.
        -11    1    4    4    0    0 -0.57552663939E+02 -0.35020422531E+02  0.85537026345E+02  0.10888214728E+03  0.00000000000E+00 0.  1.
         11    1    4    4    0    0 -0.23978291375E+02 -0.21465735322E+02 -0.22716074265E+02  0.39392337836E+02  0.00000000000E+00 0. -1.
<mgrwt>
<rscale>  0 0.15284322E+03</rscale>
<asrwt>0</asrwt>
<pdfrwt beam="2">  1        1 0.14659171E-01 0.15957325E+03</pdfrwt>
<pdfrwt beam="1">  1       -1 0.34872247E-01 0.15957325E+03</pdfrwt>
<totfact> 0.29427096E+03</totfact>
</mgrwt>
</event>
<event>
 8    1  0.1020295E-005  0.1484215E+03  0.7546771E-02  0.1213018E+00
         -3   -1    0    0    0  501 -0.00000000000E+00  0.00000000000E+00  0.65822609392E+03  0.65822609392E+03  0.00000000000E+00 0.  1.
          3   -1    0    0  501    0  0.00000000000E+00 -0.00000000000E+00 -0.28980019792E+02  0.28980019792E+02  0.00000000000E+00 0. -1.
         23    2    1    2    0    0 -0.71161409309E+02 -0.36595015624E+02  0.43672510951E+03  0.46125673518E+03  0.12500325249E+03 0.  0.
         23    2    1    2    0    0  0.71161409309E+02  0.36595015624E+02  0.19252096461E+03  0.22594937852E+03  0.87095685866E+02 0.  0.
          5    1    3    3  502    0 -0.81383514836E+01  0.20748325196E+02  0.80314042829E+01  0.24152002361E+02  0.47000000000E+01 0. -1.
         -5    1    3    3    0  502 -0.63023057826E+02 -0.57343340819E+02  0.42869370523E+03  0.43710473282E+03  0.47000000000E+01 0. -1.
        -11    1    4    4    0    0  0.64237547407E+02  0.45132020025E+02  0.19848265160E+03  0.21344489854E+03  0.00000000000E+00 0.  1.
         11    1    4    4    0    0  0.69238619026E+01 -0.85370044019E+01 -0.59616869878E+01  0.12504479979E+02  0.00000000000E+00 0. -1.
<mgrwt>
<rscale>  0 0.14023140E+03</rscale>
<asrwt>0</asrwt>
<pdfrwt beam="2">  1        3 0.44584651E-02 0.14842154E+03</pdfrwt>
<pdfrwt beam="1">  1       -3 0.10126554E+00 0.14842154E+03</pdfrwt>
<totfact> 0.56481730E+02</totfact>
</mgrwt>
</event>
<event>
 8    1  0.1020295E-005  0.2476579E+03  0.7546771E-02  0.1117350E+00
          1   -1    0    0  501    0  0.00000000000E+00  0.00000000000E+00  0.10425432000E+03  0.10425432000E+03  0.00000000000E+00 0. -1.
         -1   -1    0    0    0  501 -0.00000000000E+00 -0.00000000000E+00 -0.57737137512E+03  0.57737137512E+03  0.00000000000E+00 0.  1.
         23    2    1    2    0    0  0.11395670990E+03 -0.18089598739E+03 -0.31496709365E+03  0.40067280464E+03  0.12499974525E+03 0.  0.
         23    2    1    2    0    0 -0.11395670990E+03  0.18089598739E+03 -0.15814996147E+03  0.28095289047E+03  0.90629059179E+02 0.  0.
          5    1    3    3  502    0  0.16327336360E+02 -0.83846594970E+02 -0.21227304188E+03  0.22886408130E+03  0.47000000000E+01 0. -1.
         -5    1    3    3    0  502  0.97629373541E+02 -0.97049392422E+02 -0.10269405177E+03  0.17180872334E+03  0.47000000000E+01 0. -1.
        -11    1    4    4    0    0 -0.10333942597E+03  0.81025377713E+02 -0.98359772430E+02  0.16406947805E+03  0.00000000000E+00 0.  1.
         11    1    4    4    0    0 -0.10617283929E+02  0.99870609679E+02 -0.59790189038E+02  0.11688341243E+03  0.00000000000E+00 0. -1.
<mgrwt>
<rscale>  0 0.24370306E+03</rscale>
<asrwt>0</asrwt>
<pdfrwt beam="1">  1        1 0.16039126E-01 0.24765788E+03</pdfrwt>
<pdfrwt beam="2">  1       -1 0.88826368E-01 0.24765788E+03</pdfrwt>
<totfact> 0.44690874E+02</totfact>
</mgrwt>
</event>
<event>
 8    1  0.1020295E-005  0.1723577E+03  0.7546771E-02  0.1181399E+00
         -2   -1    0    0    0  501 -0.00000000000E+00  0.00000000000E+00  0.47263618723E+03  0.47263618723E+03  0.00000000000E+00 0.  1.
          2   -1    0    0  501    0  0.00000000000E+00 -0.00000000000E+00 -0.59452426370E+02  0.59452426370E+02  0.00000000000E+00 0. -1.
         23    2    1    2    0    0  0.15276029391E+02  0.11769712998E+03  0.14824488925E+03  0.22734058009E+03  0.12498488182E+03 0.  0.
         23    2    1    2    0    0 -0.15276029391E+02 -0.11769712998E+03  0.26493887160E+03  0.30474803351E+03  0.92697285624E+02 0.  0.
          5    1    3    3  502    0  0.10906763328E+02  0.11106936332E+03  0.39916852309E+02  0.11862042848E+03  0.47000000000E+01 0.  1.
         -5    1    3    3    0  502  0.43692660627E+01  0.66277666591E+01  0.10832803694E+03  0.10872015160E+03  0.47000000000E+01 0.  1.
        -11    1    4    4    0    0  0.15445803897E+02 -0.11724849492E+03  0.22671886401E+03  0.25570926014E+03  0.00000000000E+00 0.  1.
         11    1    4    4    0    0 -0.30721833288E+02 -0.44863505982E+00  0.38220007591E+02  0.49038773376E+02  0.00000000000E+00 0. -1.
<mgrwt>
<rscale>  0 0.16663856E+03</rscale>
<asrwt>0</asrwt>
<pdfrwt beam="2">  1        2 0.91465274E-02 0.17235774E+03</pdfrwt>
<pdfrwt beam="1">  1       -2 0.72713257E-01 0.17235774E+03</pdfrwt>
<totfact> 0.12373893E+03</totfact>
</mgrwt>
</event>
<event>
 6    1  0.1020295E-005  0.5782918E+03  0.7546771E-02  0.9951496E-01
          2   -1    0    0  501    0  0.00000000000E+00  0.00000000000E+00  0.28896713614E+03  0.28896713614E+03  0.00000000000E+00 0.  1.
         -2   -1    0    0    0  501 -0.00000000000E+00 -0.00000000000E+00 -0.28932474067E+03  0.28932474067E+03  0.00000000000E+00 0. -1.
          5    1    1    2  502    0 -0.53248628003E+02  0.97552853166E+02 -0.61036682076E+02  0.12688397103E+03  0.47000000000E+01 0.  1.
         -5    1    1    2    0  502  0.18576494200E+02  0.22848074692E+01  0.48534409053E+02  0.52230119127E+02  0.47000000000E+01 0. -1.
        -11    1    1    2    0    0 -0.38502059554E+02  0.11741143099E+02 -0.16926234337E+03  0.17398276902E+03  0.00000000000E+00 0. -1.
         11    1    1    2    0    0  0.73174193357E+02 -0.11157880373E+03  0.18140701186E+03  0.22519501764E+03  0.00000000000E+00 0.  1.
<mgrwt>
<rscale>  0 0.57829177E+03</rscale>
<asrwt>0</asrwt>
<pdfrwt beam="1">  1        2 0.44456482E-01 0.57829177E+03</pdfrwt>
<pdfrwt beam="2">  1       -2 0.44511499E-01 0.57829177E+03</pdfrwt>
<totfact> 0.55218080E+02</totfact>
</mgrwt>
</event>
<event>
 8    1  0.1020295E-005  0.1878605E+03  0.7546771E-02  0.1166052E+00
         -2   -1    0    0    0  501 -0.00000000000E+00  0.00000000000E+00  0.10483879711E+03  0.10483879711E+03  0.00000000000E+00 0.  1.
          2   -1    0    0  501    0  0.00000000000E+00 -0.00000000000E+00 -0.32249281977E+03  0.32249281977E+03  0.00000000000E+00 0. -1.
         23    2    1    2    0    0 -0.50246035390E+02 -0.13092465420E+03 -0.54992402706E+02  0.19574407189E+03  0.12500259267E+03 0.  0.
         23    2    1    2    0    0  0.50246035390E+02  0.13092465420E+03 -0.16266161995E+03  0.23158754498E+03  0.86649057900E+02 0.  0.
          5    1    3    3  502    0  0.17056515077E+02 -0.77921696610E+02 -0.72826792484E+02  0.10811358477E+03  0.47000000000E+01 0. -1.
         -5    1    3    3    0  502 -0.67302550467E+02 -0.53002957595E+02  0.17834389778E+02  0.87630487115E+02  0.47000000000E+01 0. -1.
        -11    1    4    4    0    0  0.11224496880E+02  0.73390661474E+01  0.92545788445E+01  0.16294123227E+02  0.00000000000E+00 0.  1.
         11    1    4    4    0    0  0.39021538510E+02  0.12358558806E+03 -0.17191619880E+03  0.21529342176E+03  0.00000000000E+00 0. -1.
<mgrwt>
<rscale>  0 0.18182175E+03</rscale>
<asrwt>0</asrwt>
<pdfrwt beam="2">  1        2 0.49614279E-01 0.18786053E+03</pdfrwt>
<pdfrwt beam="1">  1       -2 0.16129046E-01 0.18786053E+03</pdfrwt>
<totfact> 0.30106430E+03</totfact>
</mgrwt>
</event>
<event>
 8    1  0.1020295E-005  0.1461728E+03  0.7546771E-02  0.1214937E+00
          3   -1    0    0  501    0  0.00000000000E+00  0.00000000000E+00  0.32902856258E+02  0.32902856258E+02  0.00000000000E+00 0. -1.
         -3   -1    0    0    0  501 -0.00000000000E+00 -0.00000000000E+00 -0.53460188563E+03  0.53460188563E+03  0.00000000000E+00 0.  1.
         23    2    1    2    0    0 -0.24719108166E+02 -0.71671563298E+02 -0.26563259528E+03  0.30319493630E+03  0.12497458313E+03 0.  0.
         23    2    1    2    0    0  0.24719108166E+02  0.71671563298E+02 -0.23606643409E+03  0.26430980558E+03  0.91566722830E+02 0.  0.
          5    1    3    3  502    0 -0.74493214978E+02 -0.42223147458E+02 -0.13078049670E+03  0.15638945482E+03  0.47000000000E+01 0.  1.
         -5    1    3    3    0  502  0.49774106812E+02 -0.29448415839E+02 -0.13485209857E+03  0.14680548148E+03  0.47000000000E+01 0.  1.
        -11    1    4    4    0    0  0.14656269948E+02  0.61245836579E+02 -0.24093087999E+03  0.24902519487E+03  0.00000000000E+00 0.  1.
         11    1    4    4    0    0  0.10062838218E+02  0.10425726719E+02  0.48644459040E+01  0.15284610711E+02  0.00000000000E+00 0. -1.
<mgrwt>
<rscale>  0 0.13881188E+03</rscale>
<asrwt>0</asrwt>
<pdfrwt beam="1">  1        3 0.50619781E-02 0.14617282E+03</pdfrwt>
<pdfrwt beam="2">  1       -3 0.82246441E-01 0.14617282E+03</pdfrwt>
<totfact> 0.73345422E+02</totfact>
</mgrwt>
</event>
<event>
 8    1  0.1020295E-005  0.1265587E+03  0.7546771E-02  0.1246637E+00
          2   -1    0    0  501    0  0.00000000000E+00  0.00000000000E+00  0.10802768297E+03  0.10802768297E+03  0.00000000000E+00 0.  1.
         -2   -1    0    0    0  501 -0.00000000000E+00 -0.00000000000E+00 -0.12367881702E+03  0.12367881702E+03  0.00000000000E+00 0. -1.
         23    2    1    2    0    0  0.18060017430E+02 -0.80580300374E+01 -0.41186408966E+02  0.13309176148E+03  0.12500400239E+03 0.  0.
         23    2    1    2    0    0 -0.18060017430E+02  0.80580300374E+01  0.25535274922E+02  0.98614738506E+02  0.93175749568E+02 0.  0.
          5    1    3    3  502    0 -0.44316160775E+02  0.12403111516E+02 -0.48318669088E+02  0.66892025411E+02  0.47000000000E+01 0. -1.
         -5    1    3    3    0  502  0.62376178206E+02 -0.20461141553E+02  0.71322601223E+01  0.66199736069E+02  0.47000000000E+01 0. -1.
        -11    1    4    4    0    0  0.16036780503E+02  0.42780718059E+01 -0.29450148137E+02  0.33805198603E+02  0.00000000000E+00 0. -1.
         11    1    4    4    0    0 -0.34096797933E+02  0.37799582315E+01  0.54985423059E+02  0.64809539903E+02  0.00000000000E+00 0.  1.
<mgrwt>
<rscale>  0 0.11787907E+03</rscale>
<asrwt>0</asrwt>
<pdfrwt beam="1">  1        2 0.16619643E-01 0.12655867E+03</pdfrwt>
<pdfrwt beam="2">  1       -2 0.19027510E-01 0.12655867E+03</pdfrwt>
<totfact> 0.74285846E+03</totfact>
</mgrwt>
</event>
<event>
 8    1  0.1020295E-005  0.1338638E+03  0.7546771E-02  0.1234169E+00
          1   -1    0    0  501    0  0.00000000000E+00  0.00000000000E+00  0.15266928023E+03  0.15266928023E+03  0.00000000000E+00 0. -1.
         -1   -1    0    0    0  501 -0.00000000000E+00 -0.00000000000E+00 -0.98541365325E+02  0.98541365325E+02  0.00000000000E+00 0.  1.
         23    2    1    2    0    0  0.37218799756E+02 -0.30184571475E+02 -0.84346853016E+00  0.13386647396E+03  0.12499269579E+03 0.  0.
         23    2    1    2    0    0 -0.37218799756E+02  0.30184571475E+02  0.54971383436E+02  0.11734417160E+03  0.91931791024E+02 0.  0.
          5    1    3    3  502    0 -0.24272620698E+02 -0.55054629523E+02 -0.21765573969E+02  0.64156079663E+02  0.47000000000E+01 0.  1.
         -5    1    3    3    0  502  0.61491420454E+02  0.24870058048E+02  0.20922105438E+02  0.69710394295E+02  0.47000000000E+01 0.  1.
        -11    1    4    4    0    0 -0.18125181025E+02 -0.25666933426E+02  0.48740779688E+02  0.57991182634E+02  0.00000000000E+00 0. -1.
         11    1    4    4    0    0 -0.19093618730E+02  0.55851504901E+02  0.62306037482E+01  0.59352988964E+02  0.00000000000E+00 0.  1.
<mgrwt>
<rscale>  0 0.12557765E+03</rscale>
<asrwt>0</asrwt>
<pdfrwt beam="1">  1        1 0.23487582E-01 0.13386382E+03</pdfrwt>
<pdfrwt beam="2">  1       -1 0.15160210E-01 0.13386382E+03</pdfrwt>
<totfact> 0.62231760E+03</totfact>
</mgrwt>
</event>
<event>
 8    1  0.1020295E-005  0.1709559E+03  0.7546771E-02  0.1183313E+00
         -1   -1    0    0    0  501 -0.00000000000E+00  0.00000000000E+00  0.18616702301E+03  0.18616702301E+03  0.00000000000E+00 0.  1.
          1   -1    0    0  501    0  0.00000000000E+00 -0.00000000000E+00 -0.15445796713E+03  0.15445796713E+03  0.00000000000E+00 0. -1.
         23    2    1    2    0    0  0.45095855867E+02  0.10754787722E+03  0.74816402836E+02  0.18661033331E+03  0.12500296099E+03 0.  0.
         23    2    1    2    0    0 -0.45095855867E+02 -0.10754787722E+03 -0.43107346957E+02  0.15401465683E+03  0.90896034260E+02 0.  0.
          5    1    3    3  502    0  0.35694446399E+02  0.87668009019E+02  0.10978631828E+03  0.14503413043E+03  0.47000000000E+01 0. -1.
         -5    1    3    3    0  502  0.94014094673E+01  0.19879868202E+02 -0.34969915445E+02  0.41576202880E+02  0.47000000000E+01 0. -1.
        -11    1    4    4    0    0  0.20616001761E+02 -0.66686566222E+02 -0.27811392883E+02  0.75137149381E+02  0.00000000000E+00 0.  1.
         11    1    4    4    0    0 -0.65711857628E+02 -0.40861311000E+02 -0.15295954074E+02  0.78877507444E+02  0.00000000000E+00 0. -1.
<mgrwt>
<rscale>  0 0.16486368E+03</rscale>
<asrwt>0</asrwt>
<pdfrwt beam="2">  1        1 0.23762764E-01 0.17095591E+03</pdfrwt>
<pdfrwt beam="1">  1       -1 0.28641080E-01 0.17095591E+03</pdfrwt>
<totfact> 0.22178067E+03</totfact>
</mgrwt>
</event>
<event>
 8    1  0.1020295E-005  0.1380316E+03  0.7546771E-02  0.1223566E+00
          1   -1    0    0  501    0  0.00000000000E+00  0.00000000000E+00  0.21422277252E+03  0.21422277252E+03  0.00000000000E+00 0. -1.
         -1   -1    0    0    0  501 -0.00000000000E+00 -0.00000000000E+00 -0.15118740633E+03  0.15118740633E+03  0.00000000000E+00 0.  1.
         23    2    1    2    0    0 -0.73658936649E+02 -0.70479646841E+01 -0.95556720481E+02  0.16788032158E+03  0.11652211288E+03 0.  0.
         23    2    1    2    0    0  0.73658936649E+02  0.70479646841E+01  0.15859208667E+03  0.19752985727E+03  0.91603939895E+02 0.  0.
          5    1    3    3  502    0 -0.38274801280E+02 -0.60943570543E+02 -0.61678286885E+02  0.94896682116E+02  0.47000000000E+01 0. -1.
         -5    1    3    3    0  502 -0.35384135369E+02  0.53895605859E+02 -0.33878433595E+02  0.72983639465E+02  0.47000000000E+01 0.  1.
        -11    1    4    4    0    0  0.30640768832E+02  0.35524507715E+02  0.22583910923E+02  0.52066115618E+02  0.00000000000E+00 0.  1.
         11    1    4    4    0    0  0.43018167817E+02 -0.28476543031E+02  0.13600817574E+03  0.14546374165E+03  0.00000000000E+00 0. -1.
<mgrwt>
<rscale>  0 0.13265697E+03</rscale>
<asrwt>0</asrwt>
<pdfrwt beam="1">  1        1 0.32957350E-01 0.13803157E+03</pdfrwt>
<pdfrwt beam="2">  1       -1 0.23259601E-01 0.13803157E+03</pdfrwt>
<totfact> 0.20609874E+03</totfact>
</mgrwt>
</event>
<event>
 8    1  0.1020295E-005  0.1942611E+03  0.7546771E-02  0.1159387E+00
         -2   -1    0    0    0  501 -0.00000000000E+00  0.00000000000E+00  0.63699659896E+03  0.63699659896E+03  0.00000000000E+00 0.  1.
          2   -1    0    0  501    0  0.00000000000E+00 -0.00000000000E+00 -0.61558196384E+02  0.61558196384E+02  0.00000000000E+00 0. -1.
         23    2    1    2    0    0  0.14783771236E+03  0.15590913470E+02  0.42982453933E+03  0.47168477332E+03  0.12505328861E+03 0.  0.
         23    2    1    2    0    0 -0.14783771236E+03 -0.15590913470E+02  0.14561386324E+03  0.22687002202E+03  0.90374465107E+02 0.  0.
          5    1    3    3  502    0  0.75425271793E+02 -0.21897835834E+02  0.34528037772E+03  0.35413149546E+03  0.47000000000E+01 0. -1.
         -5    1    3    3    0  502  0.72412440570E+02  0.37488749304E+02  0.84544161618E+02  0.11755327787E+03  0.47000000000E+01 0. -1.
        -11    1    4    4    0    0 -0.62865879555E+02  0.29116965495E+02  0.97131510542E+02  0.11930820103E+03  0.00000000000E+00 0.  1.
         11    1    4    4    0    0 -0.84971832808E+02 -0.44707878964E+02  0.48482352701E+02  0.10756182099E+03  0.00000000000E+00 0. -1.
<mgrwt>
<rscale>  0 0.18897742E+03</rscale>
<asrwt>0</asrwt>
<pdfrwt beam="2">  1        2 0.94704922E-02 0.19426114E+03</pdfrwt>
<pdfrwt beam="1">  1       -2 0.97999472E-01 0.19426114E+03</pdfrwt>
<totfact> 0.61220261E+02</totfact>
</mgrwt>
</event>
<event>
 8    1  0.1020295E-005  0.1419632E+03  0.7546771E-02  0.1221001E+00
          3   -1    0    0  501    0  0.00000000000E+00  0.00000000000E+00  0.22586433368E+03  0.22586433368E+03  0.00000000000E+00 0. -1.
         -3   -1    0    0    0  501 -0.00000000000E+00 -0.00000000000E+00 -0.80968961547E+02  0.80968961547E+02  0.00000000000E+00 0.  1.
         23    2    1    2    0    0  0.24536660778E+02  0.62639459474E+02  0.30530196301E+02  0.14520900201E+03  0.12501124658E+03 0.  0.
         23    2    1    2    0    0 -0.24536660778E+02 -0.62639459474E+02  0.11436517583E+03  0.16162429322E+03  0.92289051952E+02 0.  0.
          5    1    3    3  502    0  0.12768742421E+01  0.25257011555E+01 -0.45267899722E+02  0.45599148231E+02  0.47000000000E+01 0. -1.
         -5    1    3    3    0  502  0.23259786536E+02  0.60113758318E+02  0.75798096023E+02  0.99609853777E+02  0.47000000000E+01 0. -1.
        -11    1    4    4    0    0 -0.38975941182E+02 -0.20324309638E+02  0.59578623817E+01  0.44358738456E+02  0.00000000000E+00 0.  1.
         11    1    4    4    0    0  0.14439280404E+02 -0.42315149836E+02  0.10840731345E+03  0.11726555476E+03  0.00000000000E+00 0. -1.
<mgrwt>
<rscale>  0 0.13444795E+03</rscale>
<asrwt>0</asrwt>
<pdfrwt beam="1">  1        3 0.34748359E-01 0.14196324E+03</pdfrwt>
<pdfrwt beam="2">  1       -3 0.12456763E-01 0.14196324E+03</pdfrwt>
<totfact> 0.96453456E+02</totfact>
</mgrwt>
</event>
<event>
 8    1  0.1020295E-005  0.1281109E+03  0.7546771E-02  0.1245861E+00
          3   -1    0    0  501    0  0.00000000000E+00  0.00000000000E+00  0.11880404516E+03  0.11880404516E+03  0.00000000000E+00 0. -1.
         -3   -1    0    0    0  501 -0.00000000000E+00 -0.00000000000E+00 -0.46027643027E+03  0.46027643027E+03  0.00000000000E+00 0.  1.
         23    2    1    2    0    0 -0.15706834989E+02  0.18356969841E+02 -0.43109432774E+03  0.44972739093E+03  0.12581225589E+03 0.  0.
         23    2    1    2    0    0  0.15706834989E+02 -0.18356969841E+02  0.89621942627E+02  0.12935308451E+03  0.90091314031E+02 0.  0.
          5    1    3    3  502    0  0.87217885100E+01 -0.11439192083E+02  0.16706455079E+01  0.15225168857E+02  0.47000000000E+01 0. -1.
         -5    1    3    3    0  502 -0.24428623499E+02  0.29796161923E+02 -0.43276497325E+03  0.43450222207E+03  0.47000000000E+01 0.  1.
        -11    1    4    4    0    0  0.35653349129E+01  0.18883457991E+02 -0.10459775075E+02  0.21879293713E+02  0.00000000000E+00 0.  1.
         11    1    4    4    0    0  0.12141500076E+02 -0.37240427832E+02  0.10008171770E+03  0.10747379079E+03  0.00000000000E+00 0. -1.
<mgrwt>
<rscale>  0 0.11833966E+03</rscale>
<asrwt>0</asrwt>
<pdfrwt beam="1">  1        3 0.18277546E-01 0.12811092E+03</pdfrwt>
<pdfrwt beam="2">  1       -3 0.70811758E-01 0.12811092E+03</pdfrwt>
<totfact> 0.11912188E+02</totfact>
</mgrwt>
</event>
<event>
 8    1  0.1020295E-005  0.1374116E+03  0.7546771E-02  0.1229472E+00
          2   -1    0    0  501    0  0.00000000000E+00  0.00000000000E+00  0.24896299109E+02  0.24896299109E+02  0.00000000000E+00 0. -1.
         -2   -1    0    0    0  501 -0.00000000000E+00 -0.00000000000E+00 -0.61102329658E+03  0.61102329658E+03  0.00000000000E+00 0.  1.
         23    2    1    2    0    0  0.94327109539E+00 -0.57114183357E+02 -0.38462560781E+03  0.40843457987E+03  0.12497611031E+03 0.  0.
         23    2    1    2    0    0 -0.94327109539E+00  0.57114183357E+02 -0.20150138966E+03  0.22748501582E+03  0.88790217294E+02 0.  0.
          5    1    3    3  502    0 -0.14084207163E+02 -0.62251066938E+02 -0.75962693955E+02  0.99327645191E+02  0.47000000000E+01 0. -1.
         -5    1    3    3    0  502  0.15027478258E+02  0.51368835813E+01 -0.30866291386E+03  0.30910693468E+03  0.47000000000E+01 0. -1.
        -11    1    4    4    0    0 -0.35589420966E+02  0.31073576713E+02 -0.16232859782E+03  0.16906433013E+03  0.00000000000E+00 0.  1.
         11    1    4    4    0    0  0.34646149871E+02  0.26040606644E+02 -0.39172791841E+02  0.58420685685E+02  0.00000000000E+00 0. -1.
<mgrwt>
<rscale>  0 0.12865020E+03</rscale>
<asrwt>0</asrwt>
<pdfrwt beam="1">  1        2 0.38301999E-02 0.13741160E+03</pdfrwt>
<pdfrwt beam="2">  1       -2 0.94003583E-01 0.13741160E+03</pdfrwt>
<totfact> 0.21345405E+03</totfact>
</mgrwt>
</event>
<event>
 7    1  0.1020295E-005  0.1337076E+03  0.7546771E-02  0.1263329E+00
         -1   -1    0    0    0  501 -0.00000000000E+00  0.00000000000E+00  0.15121900862E+03  0.15121900862E+03  0.00000000000E+00 0.  1.
          1   -1    0    0  501    0  0.00000000000E+00 -0.00000000000E+00 -0.75718742514E+02  0.75718742514E+02  0.00000000000E+00 0. -1.
         23    2    1    2    0    0  0.21425628809E+02 -0.42371950892E+02  0.96860522646E+02  0.16510504566E+03  0.12499310167E+03 0.  0.
          5    1    3    3  502    0  0.51628055934E+02  0.20189221733E+02  0.14967067322E+02  0.57612185672E+02  0.47000000000E+01 0.  1.
         -5    1    3    3    0  502 -0.30202427124E+02 -0.62561172624E+02  0.81893455324E+02  0.10749285999E+03  0.47000000000E+01 0.  1.
        -11    1    1    2    0    0 -0.12366116833E+02  0.21236041890E+02  0.67793080757E+01  0.25492142685E+02  0.00000000000E+00 0. -1.
         11    1    1    2    0    0 -0.90595119770E+01  0.21135909002E+02 -0.28139564618E+02  0.36340562784E+02  0.00000000000E+00 0.  1.
<mgrwt>
<rscale>  0 0.10852324E+03</rscale>
<asrwt>0</asrwt>
<pdfrwt beam="2">  1        1 0.11649037E-01 0.13370757E+03</pdfrwt>
<pdfrwt beam="1">  1       -1 0.23264463E-01 0.13370757E+03</pdfrwt>
<totfact> 0.77387115E+03</totfact>
</mgrwt>
</event>
<event>
 8    1  0.1020295E-005  0.1289552E+03  0.7546771E-02  0.1237033E+00
         -1   -1    0    0    0  501 -0.00000000000E+00  0.00000000000E+00  0.26335138361E+02  0.26335138361E+02  0.00000000000E+00 0.  1.
          1   -1    0    0  501    0  0.00000000000E+00 -0.00000000000E+00 -0.55388559581E+03  0.55388559581E+03  0.00000000000E+00 0. -1.
         23    2    1    2    0    0 -0.46269176125E+02 -0.42350874439E+02 -0.23777383698E+03  0.27049184728E+03  0.11267212907E+03 0.  0.
         23    2    1    2    0    0  0.46269176125E+02  0.42350874439E+02 -0.28977662047E+03  0.30972888689E+03  0.89593863505E+02 0.  0.
          5    1    3    3  502    0  0.32890812434E+01 -0.70876168858E+02 -0.11999442041E+03  0.13948118259E+03  0.47000000000E+01 0. -1.
         -5    1    3    3    0  502 -0.49558257369E+02  0.28525294419E+02 -0.11777941657E+03  0.13101066469E+03  0.47000000000E+01 0.  1.
        -11    1    4    4    0    0 -0.18115687152E+02  0.38401937143E+02 -0.84706768220E+02  0.94752960268E+02  0.00000000000E+00 0.  1.
         11    1    4    4    0    0  0.64384863277E+02  0.39489372963E+01 -0.20506985225E+03  0.21497592662E+03  0.00000000000E+00 0. -1.
<mgrwt>
<rscale>  0 0.12375202E+03</rscale>
<asrwt>0</asrwt>
<pdfrwt beam="2">  1        1 0.85213167E-01 0.12895519E+03</pdfrwt>
<pdfrwt beam="1">  1       -1 0.40515598E-02 0.12895519E+03</pdfrwt>
<totfact> 0.90292966E+03</totfact>
</mgrwt>
</event>
<event>
 8    1  0.1020295E-005  0.1294341E+03  0.7546771E-02  0.1243640E+00
          2   -1    0    0  501    0  0.00000000000E+00  0.00000000000E+00  0.78369179367E+02  0.78369179367E+02  0.00000000000E+00 0. -1.
         -2   -1    0    0    0  501 -0.00000000000E+00 -0.00000000000E+00 -0.16246794423E+03  0.16246794423E+03  0.00000000000E+00 0.  1.
         23    2    1    2    0    0  0.46991022454E+01 -0.33302210662E+02 -0.62891956886E+02  0.14390481540E+03  0.12498831489E+03 0.  0.
         23    2    1    2    0    0 -0.46991022454E+01  0.33302210662E+02 -0.21206807974E+02  0.96932308190E+02  0.88402629315E+02 0.  0.
          5    1    3    3  502    0 -0.19749211927E+02 -0.38771889449E+02 -0.93999147841E+02  0.10368809275E+03  0.47000000000E+01 0. -1.
         -5    1    3    3    0  502  0.24448314172E+02  0.54696787870E+01  0.31107190955E+02  0.40216722654E+02  0.47000000000E+01 0. -1.
        -11    1    4    4    0    0 -0.98154550774E+01 -0.28714886124E+02  0.22519965916E+01  0.30429579887E+02  0.00000000000E+00 0.  1.
         11    1    4    4    0    0  0.51163528319E+01  0.62017096786E+02 -0.23458804565E+02  0.66502728303E+02  0.00000000000E+00 0. -1.
<mgrwt>
<rscale>  0 0.11967161E+03</rscale>
<asrwt>0</asrwt>
<pdfrwt beam="1">  1        2 0.12056797E-01 0.12943414E+03</pdfrwt>
<pdfrwt beam="2">  1       -2 0.24995068E-01 0.12943414E+03</pdfrwt>
<totfact> 0.68086388E+03</totfact>
</mgrwt>
</event>
<event>
 8    1  0.1020295E-005  0.1313532E+03  0.7546771E-02  0.1239179E+00
          2   -1    0    0  501    0  0.00000000000E+00  0.00000000000E+00  0.80523869150E+02  0.80523869150E+02  0.00000000000E+00 0. -1.
         -2   -1    0    0    0  501 -0.00000000000E+00 -0.00000000000E+00 -0.18385376309E+03  0.18385376309E+03  0.00000000000E+00 0.  1.
         23    2    1    2    0    0 -0.35374462839E+02 -0.19404492325E+02 -0.10030405318E+03  0.16527115682E+03  0.12500306095E+03 0.  0.
         23    2    1    2    0    0  0.35374462839E+02  0.19404492325E+02 -0.30258407573E+01  0.99106475420E+02  0.90471270658E+02 0.  0.
          5    1    3    3  502    0 -0.53433793545E+02  0.15353754264E+02  0.17869144310E+01  0.55822854870E+02  0.47000000000E+01 0. -1.
         -5    1    3    3    0  502  0.18059330706E+02 -0.34758246589E+02 -0.10209096761E+03  0.10944830195E+03  0.47000000000E+01 0. -1.
        -11    1    4    4    0    0  0.45741358713E+02 -0.22279346608E+02 -0.17461966489E+02  0.53791834471E+02  0.00000000000E+00 0.  1.
         11    1    4    4    0    0 -0.10366895874E+02  0.41683838933E+02  0.14436125731E+02  0.45314640949E+02  0.00000000000E+00 0. -1.
<mgrwt>
<rscale>  0 0.12240672E+03</rscale>
<asrwt>0</asrwt>
<pdfrwt beam="1">  1        2 0.12388288E-01 0.13135316E+03</pdfrwt>
<pdfrwt beam="2">  1       -2 0.28285194E-01 0.13135316E+03</pdfrwt>
<totfact> 0.53066681E+03</totfact>
</mgrwt>
</event>
<event>
 8    1  0.1020295E-005  0.1483334E+03  0.7546771E-02  0.1211470E+00
          1   -1    0    0  501    0  0.00000000000E+00  0.00000000000E+00  0.57312062566E+02  0.57312062566E+02  0.00000000000E+00 0. -1.
         -1   -1    0    0    0  501 -0.00000000000E+00 -0.00000000000E+00 -0.36093396476E+03  0.36093396476E+03  0.00000000000E+00 0.  1.
         23    2    1    2    0    0  0.90918991861E+01  0.79344270076E+02 -0.23493765663E+03  0.27784618817E+03  0.12499850382E+03 0.  0.
         23    2    1    2    0    0 -0.90918991861E+01 -0.79344270076E+02 -0.68684245572E+02  0.14039983916E+03  0.92824638006E+02 0.  0.
          5    1    3    3  502    0  0.98194797836E+01  0.71596897755E+02 -0.24998632473E+03  0.26026484684E+03  0.47000000000E+01 0.  1.
         -5    1    3    3    0  502 -0.72758059752E+00  0.77473723206E+01  0.15048668100E+02  0.17581341331E+02  0.47000000000E+01 0.  1.
        -11    1    4    4    0    0 -0.20884952848E+01 -0.90646325399E+02 -0.81512835298E+02  0.12192399452E+03  0.00000000000E+00 0.  1.
         11    1    4    4    0    0 -0.70034039013E+01  0.11302055324E+02  0.12828589726E+02  0.18475844639E+02  0.00000000000E+00 0. -1.
<mgrwt>
<rscale>  0 0.14139077E+03</rscale>
<asrwt>0</asrwt>
<pdfrwt beam="1">  1        1 0.88172406E-02 0.14833341E+03</pdfrwt>
<pdfrwt beam="2">  1       -1 0.55528301E-01 0.14833341E+03</pdfrwt>
<totfact> 0.24952445E+03</totfact>
</mgrwt>
</event>
<event>
 8    1  0.1020295E-005  0.1284985E+03  0.7546771E-02  0.1243570E+00
          1   -1    0    0  501    0  0.00000000000E+00  0.00000000000E+00  0.41808003589E+02  0.41808003589E+02  0.00000000000E+00 0. -1.
         -1   -1    0    0    0  501 -0.00000000000E+00 -0.00000000000E+00 -0.30937877738E+03  0.30937877738E+03  0.00000000000E+00 0.  1.
         23    2    1    2    0    0 -0.29258584970E+02 -0.55441155498E+01 -0.17615322132E+03  0.21804089905E+03  0.12500029705E+03 0.  0.
         23    2    1    2    0    0  0.29258584970E+02  0.55441155498E+01 -0.91417552471E+02  0.13314588193E+03  0.92107844198E+02 0.  0.
          5    1    3    3  502    0  0.38463804096E+02 -0.30667205588E+02 -0.38978245170E+02  0.62939139815E+02  0.47000000000E+01 0.  1.
         -5    1    3    3    0  502 -0.67722389066E+02  0.25123090038E+02 -0.13717497615E+03  0.15510175923E+03  0.47000000000E+01 0.  1.
        -11    1    4    4    0    0  0.64466848537E+01  0.28254505993E+02 -0.96320103703E+02  0.10058548221E+03  0.00000000000E+00 0.  1.
         11    1    4    4    0    0  0.22811900116E+02 -0.22710390443E+02  0.49025512328E+01  0.32560399715E+02  0.00000000000E+00 0. -1.
<mgrwt>
<rscale>  0 0.11971399E+03</rscale>
<asrwt>0</asrwt>
<pdfrwt beam="1">  1        1 0.64320001E-02 0.12849855E+03</pdfrwt>
<pdfrwt beam="2">  1       -1 0.47596738E-01 0.12849855E+03</pdfrwt>
<totfact> 0.50203808E+03</totfact>
</mgrwt>
</event>
<event>
 8    1  0.1112688E-005  0.2620180E+03  0.7546771E-02  0.1108202E+00
          1   -1    0    0  501    0  0.00000000000E+00  0.00000000000E+00  0.78748135260E+03  0.78748135260E+03  0.00000000000E+00 0. -1.
         -1   -1    0    0    0  501 -0.00000000000E+00 -0.00000000000E+00 -0.87560093769E+02  0.87560093769E+02  0.00000000000E+00 0.  1.
         23    2    1    2    0    0 -0.11299238440E+03  0.20065116182E+03  0.25269126192E+03  0.36401414934E+03  0.12500103759E+03 0.  0.
         23    2    1    2    0    0  0.11299238440E+03 -0.20065116182E+03  0.44722999691E+03  0.51102729702E+03  0.90033663139E+02 0.  0.
          5    1    3    3  502    0  0.77152941535E+01  0.10598578121E+03  0.80800462997E+02  0.13357887708E+03  0.47000000000E+01 0.  1.
         -5    1    3    3    0  502 -0.12070767855E+03  0.94665380611E+02  0.17189079892E+03  0.23043527226E+03  0.47000000000E+01 0.  1.
        -11    1    4    4    0    0 -0.23540605678E+01 -0.71666414164E+02  0.16603412740E+03  0.18085615273E+03  0.00000000000E+00 0.  1.
         11    1    4    4    0    0  0.11534644496E+03 -0.12898474765E+03  0.28119586951E+03  0.33017114429E+03  0.00000000000E+00 0. -1.
<mgrwt>
<rscale>  0 0.25824617E+03</rscale>
<asrwt>0</asrwt>
<pdfrwt beam="1">  1        1 0.12115097E+00 0.26201799E+03</pdfrwt>
<pdfrwt beam="2">  1       -1 0.13470784E-01 0.26201799E+03</pdfrwt>
<totfact> 0.90301426E+02</totfact>
</mgrwt>
</event>
<event>
 8    1  0.1020295E-005  0.1293734E+03  0.7546771E-02  0.1241194E+00
          4   -1    0    0  501    0  0.00000000000E+00  0.00000000000E+00  0.18318514968E+02  0.18318514968E+02  0.00000000000E+00 0.  1.
         -4   -1    0    0    0  501 -0.00000000000E+00 -0.00000000000E+00 -0.93110539549E+03  0.93110539549E+03  0.00000000000E+00 0. -1.
         23    2    1    2    0    0  0.18568504268E+02 -0.27726933489E+02 -0.72928843150E+03  0.74067475466E+03  0.12499561463E+03 0.  0.
         23    2    1    2    0    0 -0.18568504268E+02  0.27726933489E+02 -0.18349844902E+03  0.20874915580E+03  0.93760103787E+02 0.  0.
          5    1    3    3  502    0 -0.34911241451E+02 -0.52626852679E+02 -0.49469838835E+03  0.49873536654E+03  0.47000000000E+01 0. -1.
         -5    1    3    3    0  502  0.53479745718E+02  0.24899919190E+02 -0.23459004315E+03  0.24193938812E+03  0.47000000000E+01 0. -1.
        -11    1    4    4    0    0 -0.28717795044E+02 -0.21972905892E+02 -0.29673911032E+02  0.46776717942E+02  0.00000000000E+00 0.  1.
         11    1    4    4    0    0  0.10149290776E+02  0.49699839381E+02 -0.15382453799E+03  0.16197243786E+03  0.00000000000E+00 0. -1.
<mgrwt>
<rscale>  0 0.12116103E+03</rscale>
<asrwt>0</asrwt>
<pdfrwt beam="1">  1        4 0.28182319E-02 0.12937340E+03</pdfrwt>
<pdfrwt beam="2">  1       -4 0.14324704E+00 0.12937340E+03</pdfrwt>
<totfact> 0.35243016E+02</totfact>
</mgrwt>
</event>
<event>
 8    1  0.1020295E-005  0.1562654E+03  0.7546771E-02  0.1197130E+00
          1   -1    0    0  501    0  0.00000000000E+00  0.00000000000E+00  0.56768282812E+03  0.56768282812E+03  0.00000000000E+00 0. -1.
         -1   -1    0    0    0  501 -0.00000000000E+00 -0.00000000000E+00 -0.56814070681E+02  0.56814070681E+02  0.00000000000E+00 0.  1.
         23    2    1    2    0    0  0.37667199203E+02 -0.10178074691E+03  0.90514919226E+02  0.18058747111E+03  0.11243107125E+03 0.  0.
         23    2    1    2    0    0 -0.37667199203E+02  0.10178074691E+03  0.42035383822E+03  0.44390942769E+03  0.92628787928E+02 0.  0.
          5    1    3    3  502    0 -0.20309648141E+02 -0.11538815320E+02  0.66404290013E+02  0.70549598148E+02  0.47000000000E+01 0. -1.
         -5    1    3    3    0  502  0.57976847344E+02 -0.90241931592E+02  0.24110629213E+02  0.11003787296E+03  0.47000000000E+01 0.  1.
        -11    1    4    4    0    0  0.24168901417E+02  0.54085511541E+02  0.24312291530E+03  0.25023614906E+03  0.00000000000E+00 0.  1.
         11    1    4    4    0    0 -0.61836100619E+02  0.47695235372E+02  0.17723092292E+03  0.19367327863E+03  0.00000000000E+00 0. -1.
<mgrwt>
<rscale>  0 0.15275298E+03</rscale>
<asrwt>0</asrwt>
<pdfrwt beam="1">  1        1 0.87335816E-01 0.15626543E+03</pdfrwt>
<pdfrwt beam="2">  1       -1 0.87406266E-02 0.15626543E+03</pdfrwt>
<totfact> 0.28013083E+03</totfact>
</mgrwt>
</event>
<event>
 8    1  0.1020295E-005  0.1301877E+03  0.7546771E-02  0.1242890E+00
         -2   -1    0    0    0  501 -0.00000000000E+00  0.00000000000E+00  0.13000673250E+02  0.13000673250E+02  0.00000000000E+00 0.  1.
          2   -1    0    0  501    0  0.00000000000E+00 -0.00000000000E+00 -0.97107429164E+03  0.97107429164E+03  0.00000000000E+00 0. -1.
         23    2    1    2    0    0 -0.24317545060E+02 -0.27060372963E+02 -0.57369539049E+03  0.58828158728E+03  0.12500087235E+03 0.  0.
         23    2    1    2    0    0  0.24317545060E+02  0.27060372963E+02 -0.38437822790E+03  0.39579337761E+03  0.87075650377E+02 0.  0.
          5    1    3    3  502    0 -0.26584793834E+02 -0.68444298899E+02 -0.48150548242E+03  0.48709443942E+03  0.47000000000E+01 0.  1.
         -5    1    3    3    0  502  0.22672487744E+01  0.41383925936E+02 -0.92189908062E+02  0.10118714786E+03  0.47000000000E+01 0.  1.
        -11    1    4    4    0    0  0.13878126283E+02 -0.29612846008E+02 -0.88354605000E+02  0.94212840221E+02  0.00000000000E+00 0.  1.
         11    1    4    4    0    0  0.10439418777E+02  0.56673218971E+02 -0.29602362290E+03  0.30158053739E+03  0.00000000000E+00 0. -1.
<mgrwt>
<rscale>  0 0.12012581E+03</rscale>
<asrwt>0</asrwt>
<pdfrwt beam="2">  1        2 0.14939605E+00 0.13018765E+03</pdfrwt>
<pdfrwt beam="1">  1       -2 0.20001036E-02 0.13018765E+03</pdfrwt>
<totfact> 0.20094693E+04</totfact>
</mgrwt>
</event>
<event>
 8    1  0.1020295E-005  0.1273620E+03  0.7546771E-02  0.1246348E+00
         -2   -1    0    0    0  501 -0.00000000000E+00  0.00000000000E+00  0.37992432005E+02  0.37992432005E+02  0.00000000000E+00 0.  1.
          2   -1    0    0  501    0  0.00000000000E+00 -0.00000000000E+00 -0.33178952822E+03  0.33178952822E+03  0.00000000000E+00 0. -1.
         23    2    1    2    0    0  0.22927681507E+02 -0.83568874367E+01 -0.13774330174E+03  0.18760144157E+03  0.12500227022E+03 0.  0.
         23    2    1    2    0    0 -0.22927681507E+02  0.83568874367E+01 -0.15605379447E+03  0.18218051865E+03  0.90782368655E+02 0.  0.
          5    1    3    3  502    0  0.46880001614E+01  0.24355168882E+02  0.15603722066E+02  0.29676888973E+02  0.47000000000E+01 0.  1.
         -5    1    3    3    0  502  0.18239681345E+02 -0.32712056318E+02 -0.15334702381E+03  0.15792455260E+03  0.47000000000E+01 0.  1.
        -11    1    4    4    0    0 -0.11087491650E+02  0.49411333776E+02 -0.73998323662E+02  0.89666963154E+02  0.00000000000E+00 0.  1.
         11    1    4    4    0    0 -0.11840189857E+02 -0.41054446339E+02 -0.82055470813E+02  0.92513555496E+02  0.00000000000E+00 0. -1.
<mgrwt>
<rscale>  0 0.11805049E+03</rscale>
<asrwt>0</asrwt>
<pdfrwt beam="2">  1        2 0.51044544E-01 0.12736202E+03</pdfrwt>
<pdfrwt beam="1">  1       -2 0.58449894E-02 0.12736202E+03</pdfrwt>
<totfact> 0.14134694E+04</totfact>
</mgrwt>
</event>
<event>
 8    1  0.1020295E-005  0.1772718E+03  0.7546771E-02  0.1176220E+00
         -2   -1    0    0    0  501 -0.00000000000E+00  0.00000000000E+00  0.42493291688E+02  0.42493291688E+02  0.00000000000E+00 0.  1.
          2   -1    0    0  501    0  0.00000000000E+00 -0.00000000000E+00 -0.75566828355E+03  0.75566828355E+03  0.00000000000E+00 0. -1.
         23    2    1    2    0    0  0.72136384792E+02  0.10294129925E+03 -0.22888604625E+03  0.28950669352E+03  0.12499893727E+03 0.  0.
         23    2    1    2    0    0 -0.72136384792E+02 -0.10294129925E+03 -0.48428894561E+03  0.50865488172E+03  0.91615701478E+02 0.  0.
          5    1    3    3  502    0  0.67774470269E+01  0.79857846385E+02 -0.19765085076E+03  0.21333344375E+03  0.47000000000E+01 0.  1.
         -5    1    3    3    0  502  0.65358937765E+02  0.23083452868E+02 -0.31235195495E+02  0.76173249764E+02  0.47000000000E+01 0.  1.
        -11    1    4    4    0    0 -0.49521252546E+02 -0.92933968809E+02 -0.46638069383E+03  0.47812135342E+03  0.00000000000E+00 0. -1.
         11    1    4    4    0    0 -0.22615132245E+02 -0.10007330444E+02 -0.17908251776E+02  0.30533528305E+02  0.00000000000E+00 0.  1.
<mgrwt>
<rscale>  0 0.17157076E+03</rscale>
<asrwt>0</asrwt>
<pdfrwt beam="2">  1        2 0.11625666E+00 0.17727183E+03</pdfrwt>
<pdfrwt beam="1">  1       -2 0.65374296E-02 0.17727183E+03</pdfrwt>
<totfact> 0.48542155E+03</totfact>
</mgrwt>
</event>
<event>
 8    1  0.1020295E-005  0.1507591E+03  0.7546771E-02  0.1208645E+00
          2   -1    0    0  501    0  0.00000000000E+00  0.00000000000E+00  0.63378957678E+02  0.63378957678E+02  0.00000000000E+00 0. -1.
         -2   -1    0    0    0  501 -0.00000000000E+00 -0.00000000000E+00 -0.31565741545E+03  0.31565741545E+03  0.00000000000E+00 0.  1.
         23    2    1    2    0    0  0.83704107292E+02  0.98121604741E+01 -0.18297578517E+03  0.23708320111E+03  0.12500260086E+03 0.  0.
         23    2    1    2    0    0 -0.83704107292E+02 -0.98121604741E+01 -0.69302672607E+02  0.14195317202E+03  0.90803009556E+02 0.  0.
          5    1    3    3  502    0  0.94695881249E+02  0.10139398993E+02 -0.58149040241E+02  0.11168490596E+03  0.47000000000E+01 0. -1.
         -5    1    3    3    0  502 -0.10991773957E+02 -0.32723851879E+00 -0.12482674493E+03  0.12539829516E+03  0.47000000000E+01 0. -1.
        -11    1    4    4    0    0 -0.94679895032E+02  0.11654053423E+02 -0.69187973849E+02  0.11784343516E+03  0.00000000000E+00 0. -1.
         11    1    4    4    0    0  0.10975787740E+02 -0.21466213898E+02 -0.11469875829E+00  0.24109736859E+02  0.00000000000E+00 0.  1.
<mgrwt>
<rscale>  0 0.14353855E+03</rscale>
<asrwt>0</asrwt>
<pdfrwt beam="1">  1        2 0.97506088E-02 0.15075910E+03</pdfrwt>
<pdfrwt beam="2">  1       -2 0.48562680E-01 0.15075910E+03</pdfrwt>
<totfact> 0.26063530E+03</totfact>
</mgrwt>
</event>
<event>
 8    1  0.1020295E-005  0.1301828E+03  0.7546771E-02  0.1235323E+00
          1   -1    0    0  501    0  0.00000000000E+00  0.00000000000E+00  0.17014357707E+03  0.17014357707E+03  0.00000000000E+00 0. -1.
         -1   -1    0    0    0  501 -0.00000000000E+00 -0.00000000000E+00 -0.97124453115E+02  0.97124453115E+02  0.00000000000E+00 0.  1.
         23    2    1    2    0    0  0.13106051073E+02 -0.34428845798E+02 -0.82365966415E+01  0.13044311482E+03  0.12486172625E+03 0.  0.
         23    2    1    2    0    0 -0.13106051073E+02  0.34428845798E+02  0.81255720592E+02  0.13682491536E+03  0.10373741532E+03 0.  0.
          5    1    3    3  502    0  0.58810771195E+02  0.13613635554E+02  0.10328475721E+02  0.61423165762E+02  0.47000000000E+01 0.  1.
         -5    1    3    3    0  502 -0.45704720121E+02 -0.48042481351E+02 -0.18565072363E+02  0.69019949055E+02  0.47000000000E+01 0.  1.
        -11    1    4    4    0    0 -0.17786816469E+02  0.64352521378E+02  0.22033395566E+02  0.70307100409E+02  0.00000000000E+00 0.  1.
         11    1    4    4    0    0  0.46807653956E+01 -0.29923675580E+02  0.59222325026E+02  0.66517814955E+02  0.00000000000E+00 0. -1.
<mgrwt>
<rscale>  0 0.12483795E+03</rscale>
<asrwt>0</asrwt>
<pdfrwt beam="1">  1        1 0.26175935E-01 0.13018281E+03</pdfrwt>
<pdfrwt beam="2">  1       -1 0.14942224E-01 0.13018281E+03</pdfrwt>
<totfact> 0.55463196E+03</totfact>
</mgrwt>
</event>
<event>
 8    1  0.1020295E-005  0.1330809E+03  0.7546771E-02  0.1233515E+00
          1   -1    0    0  501    0  0.00000000000E+00  0.00000000000E+00  0.53948078915E+03  0.53948078915E+03  0.00000000000E+00 0. -1.
         -1   -1    0    0    0  501 -0.00000000000E+00 -0.00000000000E+00 -0.26832005679E+02  0.26832005679E+02  0.00000000000E+00 0.  1.
         23    2    1    2    0    0  0.35799674534E+02 -0.28328921289E+02  0.30409678107E+03  0.33194183609E+03  0.12500554311E+03 0.  0.
         23    2    1    2    0    0 -0.35799674534E+02  0.28328921289E+02  0.20855200240E+03  0.23437095874E+03  0.96704002599E+02 0.  0.
          5    1    3    3  502    0 -0.39972794443E+02 -0.36586446173E+02  0.96928603451E+02  0.11114691406E+03  0.47000000000E+01 0. -1.
         -5    1    3    3    0  502  0.75772468977E+02  0.82575248836E+01  0.20716817762E+03  0.22079492202E+03  0.47000000000E+01 0. -1.
        -11    1    4    4    0    0 -0.29731967032E+02  0.60386380878E+02  0.96426266009E+02  0.11759476874E+03  0.00000000000E+00 0.  1.
         11    1    4    4    0    0 -0.60677075022E+01 -0.32057459589E+02  0.11212573639E+03  0.11677619000E+03  0.00000000000E+00 0. -1.
<mgrwt>
<rscale>  0 0.12599990E+03</rscale>
<asrwt>0</asrwt>
<pdfrwt beam="1">  1        1 0.82997037E-01 0.13308092E+03</pdfrwt>
<pdfrwt beam="2">  1       -1 0.41280013E-02 0.13308092E+03</pdfrwt>
<totfact> 0.91172189E+03</totfact>
</mgrwt>
</event>
<event>
 8    1  0.1020295E-005  0.1325039E+03  0.7546771E-02  0.1236421E+00
         -1   -1    0    0    0  501 -0.00000000000E+00  0.00000000000E+00  0.36469409545E+02  0.36469409545E+02  0.00000000000E+00 0.  1.
          1   -1    0    0  501    0  0.00000000000E+00 -0.00000000000E+00 -0.38035344340E+03  0.38035344340E+03  0.00000000000E+00 0. -1.
         23    2    1    2    0    0 -0.20546810503E+02 -0.38880313787E+02 -0.21276232105E+03  0.25064935025E+03  0.12499376504E+03 0.  0.
         23    2    1    2    0    0  0.20546810503E+02  0.38880313787E+02 -0.13112171281E+03  0.16617350270E+03  0.92124259603E+02 0.  0.
          5    1    3    3  502    0  0.22314210137E+02  0.37936877954E+02 -0.76855135296E+02  0.88690092481E+02  0.47000000000E+01 0. -1.
         -5    1    3    3    0  502 -0.42861020640E+02 -0.76817191741E+02 -0.13590718575E+03  0.16195925777E+03  0.47000000000E+01 0. -1.
        -11    1    4    4    0    0 -0.52950882071E+01  0.64119111721E+02 -0.97574039789E+02  0.11687596711E+03  0.00000000000E+00 0.  1.
         11    1    4    4    0    0  0.25841898710E+02 -0.25238797934E+02 -0.33547673018E+02  0.49297535588E+02  0.00000000000E+00 0. -1.
<mgrwt>
<rscale>  0 0.12413917E+03</rscale>
<asrwt>0</asrwt>
<pdfrwt beam="2">  1        1 0.58515913E-01 0.13250393E+03</pdfrwt>
<pdfrwt beam="1">  1       -1 0.56106785E-02 0.13250393E+03</pdfrwt>
<totfact> 0.90727712E+03</totfact>
</mgrwt>
</event>
<event>
 8    1  0.1020295E-005  0.1440528E+03  0.7546771E-02  0.1218392E+00
          1   -1    0    0  501    0  0.00000000000E+00  0.00000000000E+00  0.11313972402E+03  0.11313972402E+03  0.00000000000E+00 0. -1.
         -1   -1    0    0    0  501 -0.00000000000E+00 -0.00000000000E+00 -0.16309657388E+03  0.16309657388E+03  0.00000000000E+00 0.  1.
         23    2    1    2    0    0  0.14616576929E+02  0.70097739159E+02 -0.68122680937E+02  0.15934835937E+03  0.12499545040E+03 0.  0.
         23    2    1    2    0    0 -0.14616576929E+02 -0.70097739159E+02  0.18165831083E+02  0.11688793853E+03  0.90583968774E+02 0.  0.
          5    1    3    3  502    0  0.64459542037E+02  0.63982385648E+02 -0.58120693398E+02  0.10792999228E+03  0.47000000000E+01 0. -1.
         -5    1    3    3    0  502 -0.49842965109E+02  0.61153535114E+01 -0.10001987539E+02  0.51418367089E+02  0.47000000000E+01 0. -1.
        -11    1    4    4    0    0  0.18773085233E+02  0.73453694281E+01  0.25187873699E+02  0.32261620583E+02  0.00000000000E+00 0. -1.
         11    1    4    4    0    0 -0.33389662162E+02 -0.77443108587E+02 -0.70220426157E+01  0.84626317948E+02  0.00000000000E+00 0.  1.
<mgrwt>
<rscale>  0 0.13630329E+03</rscale>
<asrwt>0</asrwt>
<pdfrwt beam="1">  1        1 0.17406111E-01 0.14405277E+03</pdfrwt>
<pdfrwt beam="2">  1       -1 0.25091781E-01 0.14405277E+03</pdfrwt>
<totfact> 0.40775566E+03</totfact>
</mgrwt>
</event>
<event>
 8    1  0.1020295E-005  0.2048883E+03  0.7546771E-02  0.1149682E+00
         -1   -1    0    0    0  501 -0.00000000000E+00  0.00000000000E+00  0.33852837329E+03  0.33852837329E+03  0.00000000000E+00 0.  1.
          1   -1    0    0  501    0  0.00000000000E+00 -0.00000000000E+00 -0.11813824589E+03  0.11813824589E+03  0.00000000000E+00 0. -1.
         23    2    1    2    0    0  0.30924924820E+02  0.15936445612E+03  0.16279971066E+03  0.26169250187E+03  0.12500335553E+03 0.  0.
         23    2    1    2    0    0 -0.30924924820E+02 -0.15936445612E+03  0.57590416740E+02  0.19497411732E+03  0.91350257108E+02 0.  0.
          5    1    3    3  502    0 -0.34468461677E+02  0.12585103459E+03  0.11422808863E+03  0.17348401653E+03  0.47000000000E+01 0. -1.
         -5    1    3    3    0  502  0.65393386497E+02  0.33513421530E+02  0.48571622025E+02  0.88208485342E+02  0.47000000000E+01 0. -1.
        -11    1    4    4    0    0  0.21139307908E+02 -0.30747971848E+02 -0.12719888411E+02  0.39422121617E+02  0.00000000000E+00 0.  1.
         11    1    4    4    0    0 -0.52064232727E+02 -0.12861648427E+03  0.70310305151E+02  0.15555199570E+03  0.00000000000E+00 0. -1.
<mgrwt>
<rscale>  0 0.20006740E+03</rscale>
<asrwt>0</asrwt>
<pdfrwt beam="2">  1        1 0.18175115E-01 0.20488831E+03</pdfrwt>
<pdfrwt beam="1">  1       -1 0.52081288E-01 0.20488831E+03</pdfrwt>
<totfact> 0.10961334E+03</totfact>
</mgrwt>
</event>
<event>
 8    1  0.1020295E-005  0.1270692E+03  0.7546771E-02  0.1247385E+00
         -2   -1    0    0    0  501 -0.00000000000E+00  0.00000000000E+00  0.41661075898E+02  0.41661075898E+02  0.00000000000E+00 0.  1.
          2   -1    0    0  501    0  0.00000000000E+00 -0.00000000000E+00 -0.29213631831E+03  0.29213631831E+03  0.00000000000E+00 0. -1.
         23    2    1    2    0    0 -0.19187223067E+02  0.15270409708E+02 -0.13006965913E+03  0.18183697990E+03  0.12468053615E+03 0.  0.
         23    2    1    2    0    0  0.19187223067E+02 -0.15270409708E+02 -0.12040558329E+03  0.15196041431E+03  0.89404295689E+02 0.  0.
          5    1    3    3  502    0 -0.93384800260E+01  0.65422540743E+02 -0.10634272630E+03  0.12529238398E+03  0.47000000000E+01 0. -1.
         -5    1    3    3    0  502 -0.98487430410E+01 -0.50152131036E+02 -0.23726932827E+02  0.56544595925E+02  0.47000000000E+01 0.  1.
        -11    1    4    4    0    0  0.50527425459E+02 -0.14621924858E+02 -0.41320851538E+02  0.66889716563E+02  0.00000000000E+00 0. -1.
         11    1    4    4    0    0 -0.31340202392E+02 -0.64848484940E+00 -0.79084731752E+02  0.85070697745E+02  0.00000000000E+00 0.  1.
<mgrwt>
<rscale>  0 0.11743768E+03</rscale>
<asrwt>0</asrwt>
<pdfrwt beam="2">  1        2 0.44944050E-01 0.12706916E+03</pdfrwt>
<pdfrwt beam="1">  1       -2 0.64093962E-02 0.12706916E+03</pdfrwt>
<totfact> 0.14059746E+04</totfact>
</mgrwt>
</event>
<event>
 8    1  0.1020295E-005  0.1275212E+03  0.7546771E-02  0.1245501E+00
         -1   -1    0    0    0  501 -0.00000000000E+00  0.00000000000E+00  0.11036113531E+03  0.11036113531E+03  0.00000000000E+00 0.  1.
          1   -1    0    0  501    0  0.00000000000E+00 -0.00000000000E+00 -0.14677166652E+03  0.14677166652E+03  0.00000000000E+00 0. -1.
         23    2    1    2    0    0  0.24115739971E+02  0.75213118926E+01  0.41460614716E+02  0.13409193004E+03  0.12499409619E+03 0.  0.
         23    2    1    2    0    0 -0.24115739971E+02 -0.75213118926E+01 -0.77871145923E+02  0.12304087180E+03  0.91853153012E+02 0.  0.
          5    1    3    3  502    0  0.70449820953E+02  0.10398419703E+02 -0.45468411674E+00  0.71369469259E+02  0.47000000000E+01 0. -1.
         -5    1    3    3    0  502 -0.46334080982E+02 -0.28771078108E+01  0.41915298832E+02  0.62722460777E+02  0.47000000000E+01 0. -1.
        -11    1    4    4    0    0 -0.96612643312E+01 -0.20093457754E+02 -0.94854539895E+02  0.97439575182E+02  0.00000000000E+00 0. -1.
         11    1    4    4    0    0 -0.14454475640E+02  0.12572145861E+02  0.16983393972E+02  0.25601296615E+02  0.00000000000E+00 0.  1.
<mgrwt>
<rscale>  0 0.11855463E+03</rscale>
<asrwt>0</asrwt>
<pdfrwt beam="2">  1        1 0.22580256E-01 0.12752123E+03</pdfrwt>
<pdfrwt beam="1">  1       -1 0.16978636E-01 0.12752123E+03</pdfrwt>
<totfact> 0.54539689E+03</totfact>
</mgrwt>
</event>
<event>
 8    1  0.1020295E-005  0.1595190E+03  0.7546771E-02  0.1196734E+00
          1   -1    0    0  501    0  0.00000000000E+00  0.00000000000E+00  0.25513944621E+03  0.25513944621E+03  0.00000000000E+00 0. -1.
         -1   -1    0    0    0  501 -0.00000000000E+00 -0.00000000000E+00 -0.85941547576E+02  0.85941547576E+02  0.00000000000E+00 0.  1.
         23    2    1    2    0    0 -0.45373113496E+02 -0.88111354904E+02  0.75327457936E+02  0.17641009675E+03  0.12499586403E+03 0.  0.
         23    2    1    2    0    0  0.45373113496E+02  0.88111354904E+02  0.93870440701E+02  0.16467089704E+03  0.92100566784E+02 0.  0.
          5    1    3    3  502    0 -0.84952913007E+02 -0.43759762048E+02  0.65565830189E+02  0.11598656082E+03  0.47000000000E+01 0. -1.
         -5    1    3    3    0  502  0.39579799511E+02 -0.44351592856E+02  0.97616277479E+01  0.60423535931E+02  0.47000000000E+01 0. -1.
        -11    1    4    4    0    0  0.23323556250E+02 -0.14430764393E+02  0.34752485409E+02  0.44271553838E+02  0.00000000000E+00 0. -1.
         11    1    4    4    0    0  0.22049557246E+02  0.10254211930E+03  0.59117955292E+02  0.12039934320E+03  0.00000000000E+00 0.  1.
<mgrwt>
<rscale>  0 0.15308406E+03</rscale>
<asrwt>0</asrwt>
<pdfrwt beam="1">  1        1 0.39252222E-01 0.15951895E+03</pdfrwt>
<pdfrwt beam="2">  1       -1 0.13221777E-01 0.15951895E+03</pdfrwt>
<totfact> 0.41029978E+03</totfact>
</mgrwt>
</event>
<event>
 8    1  0.1020295E-005  0.1270447E+03  0.7546771E-02  0.1247271E+00
         -2   -1    0    0    0  501 -0.00000000000E+00  0.00000000000E+00  0.53148718176E+02  0.53148718176E+02  0.00000000000E+00 0.  1.
          2   -1    0    0  501    0  0.00000000000E+00 -0.00000000000E+00 -0.24315066116E+03  0.24315066116E+03  0.00000000000E+00 0. -1.
         23    2    1    2    0    0 -0.10933747021E+02 -0.19748212495E+02 -0.71852875559E+02  0.14595613068E+03  0.12502326838E+03 0.  0.
         23    2    1    2    0    0  0.10933747021E+02  0.19748212495E+02 -0.11814906743E+03  0.15034324865E+03  0.90190640101E+02 0.  0.
          5    1    3    3  502    0 -0.95634005792E+01  0.48610843735E+02 -0.57300397136E+02  0.75893993644E+02  0.47000000000E+01 0.  1.
         -5    1    3    3    0  502 -0.13703464417E+01 -0.68359056230E+02 -0.14552478423E+02  0.70062137038E+02  0.47000000000E+01 0.  1.
        -11    1    4    4    0    0 -0.38824727169E+02  0.13503270361E+02 -0.39119779922E+02  0.56745527853E+02  0.00000000000E+00 0.  1.
         11    1    4    4    0    0  0.49758474190E+02  0.62449421335E+01 -0.79029287503E+02  0.93597720801E+02  0.00000000000E+00 0. -1.
<mgrwt>
<rscale>  0 0.11750493E+03</rscale>
<asrwt>0</asrwt>
<pdfrwt beam="2">  1        2 0.37407794E-01 0.12704470E+03</pdfrwt>
<pdfrwt beam="1">  1       -2 0.81767260E-02 0.12704470E+03</pdfrwt>
<totfact> 0.11762057E+04</totfact>
</mgrwt>
</event>
<event>
 8    1  0.1020295E-005  0.1314730E+03  0.7546771E-02  0.1240732E+00
          2   -1    0    0  501    0  0.00000000000E+00  0.00000000000E+00  0.79220834145E+03  0.79220834145E+03  0.00000000000E+00 0. -1.
         -2   -1    0    0    0  501 -0.00000000000E+00 -0.00000000000E+00 -0.16298408993E+02  0.16298408993E+02  0.00000000000E+00 0.  1.
         23    2    1    2    0    0  0.13961173400E+02 -0.38274002361E+02  0.43939614097E+03  0.45864379351E+03  0.12500138802E+03 0.  0.
         23    2    1    2    0    0 -0.13961173400E+02  0.38274002361E+02  0.33651379149E+03  0.34986295693E+03  0.86618376528E+02 0.  0.
          5    1    3    3  502    0  0.20750237582E+02  0.10912526831E+02  0.38141186894E+03  0.38216064603E+03  0.47000000000E+01 0. -1.
         -5    1    3    3    0  502 -0.67890641823E+01 -0.49186529192E+02  0.57984272024E+02  0.76483147481E+02  0.47000000000E+01 0. -1.
        -11    1    4    4    0    0  0.23321113600E+02  0.49576145761E+02  0.16063400411E+03  0.16972021637E+03  0.00000000000E+00 0.  1.
         11    1    4    4    0    0 -0.37282286999E+02 -0.11302143400E+02  0.17587978738E+03  0.18014274056E+03  0.00000000000E+00 0. -1.
<mgrwt>
<rscale>  0 0.12144499E+03</rscale>
<asrwt>0</asrwt>
<pdfrwt beam="1">  1        2 0.12187818E+00 0.13147304E+03</pdfrwt>
<pdfrwt beam="2">  1       -2 0.25074482E-02 0.13147304E+03</pdfrwt>
<totfact> 0.18824874E+04</totfact>
</mgrwt>
</event>
<event>
 7    1  0.1020295E-005  0.2177278E+03  0.7546771E-02  0.1154527E+00
          1   -1    0    0  501    0  0.00000000000E+00  0.00000000000E+00  0.73373538201E+03  0.73373538201E+03  0.00000000000E+00 0. -1.
         -1   -1    0    0    0  501 -0.00000000000E+00 -0.00000000000E+00 -0.47053985805E+02  0.47053985805E+02  0.00000000000E+00 0.  1.
         23    2    1    2    0    0  0.80691539868E+02  0.66647115362E+02  0.38194251349E+03  0.40626143750E+03  0.90638343957E+02 0.  0.
          5    1    1    2  502    0 -0.14277092364E+03 -0.48462983484E+02  0.23538995694E+03  0.27957596326E+03  0.47000000000E+01 0. -1.
         -5    1    1    2    0  502  0.62079383771E+02 -0.18184131879E+02  0.69348925776E+02  0.94951967057E+02  0.47000000000E+01 0.  1.
        -11    1    3    3    0    0  0.41626924603E+02 -0.17518612815E+02  0.14165713315E+03  0.14868236621E+03  0.00000000000E+00 0.  1.
         11    1    3    3    0    0  0.39064615265E+02  0.84165728178E+02  0.24028538033E+03  0.25757907129E+03  0.00000000000E+00 0. -1.
<mgrwt>
<rscale>  0 0.19442775E+03</rscale>
<asrwt>0</asrwt>
<pdfrwt beam="1">  1        1 0.11288236E+00 0.21772777E+03</pdfrwt>
<pdfrwt beam="2">  1       -1 0.72390753E-02 0.21772777E+03</pdfrwt>
<totfact> 0.26220057E+03</totfact>
</mgrwt>
</event>
<event>
 8    1  0.1020295E-005  0.1252241E+03  0.7546771E-02  0.1248604E+00
          2   -1    0    0  501    0  0.00000000000E+00  0.00000000000E+00  0.42468629955E+03  0.42468629955E+03  0.00000000000E+00 0. -1.
         -2   -1    0    0    0  501 -0.00000000000E+00 -0.00000000000E+00 -0.30096343163E+02  0.30096343163E+02  0.00000000000E+00 0.  1.
         23    2    1    2    0    0 -0.70248603497E+01 -0.23959033310E+01  0.17027118194E+03  0.21136074076E+03  0.12500399321E+03 0.  0.
         23    2    1    2    0    0  0.70248603497E+01  0.23959033310E+01  0.22431877445E+03  0.24342190195E+03  0.94234923285E+02 0.  0.
          5    1    3    3  502    0 -0.47879230766E+02 -0.42826152844E+02  0.11310488771E+03  0.13015877124E+03  0.47000000000E+01 0.  1.
         -5    1    3    3    0  502  0.40854370416E+02  0.40430249513E+02  0.57166294223E+02  0.81201969514E+02  0.47000000000E+01 0.  1.
        -11    1    4    4    0    0 -0.25293733309E+02  0.23561867467E+02  0.31488029744E+02  0.46759283147E+02  0.00000000000E+00 0.  1.
         11    1    4    4    0    0  0.32318593659E+02 -0.21165964136E+02  0.19283074470E+03  0.19666261881E+03  0.00000000000E+00 0. -1.
<mgrwt>
<rscale>  0 0.11672255E+03</rscale>
<asrwt>0</asrwt>
<pdfrwt beam="1">  1        2 0.65336350E-01 0.12522415E+03</pdfrwt>
<pdfrwt beam="2">  1       -2 0.46302069E-02 0.12522415E+03</pdfrwt>
<totfact> 0.15404594E+04</totfact>
</mgrwt>
</event>
<event>
 7    1  0.1020295E-005  0.1369848E+03  0.7546771E-02  0.1232536E+00
          1   -1    0    0  501    0  0.00000000000E+00  0.00000000000E+00  0.20929618935E+02  0.20929618935E+02  0.00000000000E+00 0. -1.
         -1   -1    0    0    0  501 -0.00000000000E+00 -0.00000000000E+00 -0.74496502712E+03  0.74496502712E+03  0.00000000000E+00 0.  1.
         23    2    1    2    0    0  0.88373405963E+01  0.38955707065E+02 -0.19193236697E+03  0.21644176186E+03  0.91724353833E+02 0.  0.
          5    1    1    2  502    0  0.37234101414E+02  0.32458078343E+02 -0.24614871113E+03  0.25109994653E+03  0.47000000000E+01 0. -1.
         -5    1    1    2    0  502 -0.46071442010E+02 -0.71413785409E+02 -0.28595433009E+03  0.29835293766E+03  0.47000000000E+01 0.  1.
        -11    1    3    3    0    0  0.44413712956E+02  0.33052745605E+02 -0.15600325109E+03  0.16553572497E+03  0.00000000000E+00 0. -1.
         11    1    3    3    0    0 -0.35576372360E+02  0.59029614608E+01 -0.35929115880E+02  0.50906036893E+02  0.00000000000E+00 0.  1.
<mgrwt>
<rscale>  0 0.12663479E+03</rscale>
<asrwt>0</asrwt>
<pdfrwt beam="1">  1        1 0.32199412E-02 0.13698476E+03</pdfrwt>
<pdfrwt beam="2">  1       -1 0.11461001E+00 0.13698476E+03</pdfrwt>
<totfact> 0.22042658E+03</totfact>
</mgrwt>
</event>
<event>
 8    1  0.1020295E-005  0.1495443E+03  0.7546771E-02  0.1210284E+00
          1   -1    0    0  501    0  0.00000000000E+00  0.00000000000E+00  0.84362269256E+02  0.84362269256E+02  0.00000000000E+00 0. -1.
         -1   -1    0    0    0  501 -0.00000000000E+00 -0.00000000000E+00 -0.22453752788E+03  0.22453752788E+03  0.00000000000E+00 0.  1.
         23    2    1    2    0    0  0.24636153456E+02  0.78312441849E+02 -0.10009502197E+03  0.17995143373E+03  0.12499490579E+03 0.  0.
         23    2    1    2    0    0 -0.24636153456E+02 -0.78312441849E+02 -0.40080236656E+02  0.12894836340E+03  0.91002617814E+02 0.  0.
          5    1    3    3  502    0 -0.49308648472E+01 -0.29848411176E+02 -0.16425159944E+01  0.30659891335E+02  0.47000000000E+01 0.  1.
         -5    1    3    3    0  502  0.29567018303E+02  0.10816085303E+03 -0.98452505971E+02  0.14929154239E+03  0.47000000000E+01 0.  1.
        -11    1    4    4    0    0 -0.55436787012E+01 -0.46662369256E+02  0.25652021716E+02  0.53536298866E+02  0.00000000000E+00 0. -1.
         11    1    4    4    0    0 -0.19092474754E+02 -0.31650072593E+02 -0.65732258372E+02  0.75412064539E+02  0.00000000000E+00 0.  1.
<mgrwt>
<rscale>  0 0.14228717E+03</rscale>
<asrwt>0</asrwt>
<pdfrwt beam="1">  1        1 0.12978811E-01 0.14954432E+03</pdfrwt>
<pdfrwt beam="2">  1       -1 0.34544235E-01 0.14954432E+03</pdfrwt>
<totfact> 0.34946795E+03</totfact>
</mgrwt>
</event>
<event>
 7    1  0.1020295E-005  0.1423317E+03  0.7546771E-02  0.1231422E+00
         -4   -1    0    0    0  501 -0.00000000000E+00  0.00000000000E+00  0.59297834074E+02  0.59297834074E+02  0.00000000000E+00 0.  1.
          4   -1    0    0  501    0  0.00000000000E+00 -0.00000000000E+00 -0.23250906925E+03  0.23250906925E+03  0.00000000000E+00 0. -1.
         23    2    1    2    0    0 -0.42490097862E+02  0.75887135643E+01 -0.82544449392E+02  0.12305035129E+03  0.80404016294E+02 0.  0.
          5    1    1    2  502    0 -0.15700633791E+02 -0.60525779272E+01 -0.10675937807E+03  0.10817947313E+03  0.47000000000E+01 0. -1.
         -5    1    1    2    0  502  0.58190731653E+02 -0.15361356371E+01  0.16092592282E+02  0.60577078911E+02  0.47000000000E+01 0.  1.
        -11    1    3    3    0    0 -0.22364893867E+02  0.21676022081E+02  0.55137852512E+01  0.31629736621E+02  0.00000000000E+00 0. -1.
         11    1    3    3    0    0 -0.20125203995E+02 -0.14087308517E+02 -0.88058234643E+02  0.91420614664E+02  0.00000000000E+00 0.  1.
<mgrwt>
<rscale>  0 0.12736277E+03</rscale>
<asrwt>0</asrwt>
<pdfrwt beam="2">  1        4 0.35770626E-01 0.14233168E+03</pdfrwt>
<pdfrwt beam="1">  1       -4 0.91227436E-02 0.14233168E+03</pdfrwt>
<totfact> 0.11189253E+03</totfact>
</mgrwt>
</event>
<event>
 8    1  0.1020295E-005  0.1652364E+03  0.7546771E-02  0.1189755E+00
         -1   -1    0    0    0  501 -0.00000000000E+00  0.00000000000E+00  0.13859061769E+03  0.13859061769E+03  0.00000000000E+00 0.  1.
          1   -1    0    0  501    0  0.00000000000E+00 -0.00000000000E+00 -0.25668695642E+03  0.25668695642E+03  0.00000000000E+00 0. -1.
         23    2    1    2    0    0  0.83430519691E+02 -0.68683445663E+02  0.52500069659E+02  0.17337624752E+03  0.12499999426E+03 0.  0.
         23    2    1    2    0    0 -0.83430519691E+02  0.68683445663E+02 -0.17059640839E+03  0.22190132659E+03  0.91972805001E+02 0.  0.
          5    1    3    3  502    0 -0.25542109709E+02  0.12502235479E+02  0.44532014157E+01  0.29165497822E+02  0.47000000000E+01 0. -1.
         -5    1    3    3    0  502  0.10897262940E+03 -0.81185681141E+02  0.48046868243E+02  0.14421074970E+03  0.47000000000E+01 0. -1.
        -11    1    4    4    0    0 -0.40923780707E+02 -0.18195247648E+02 -0.46432985598E+02  0.64512363279E+02  0.00000000000E+00 0. -1.
         11    1    4    4    0    0 -0.42506738984E+02  0.86878693311E+02 -0.12416342280E+03  0.15738896331E+03  0.00000000000E+00 0.  1.
<mgrwt>
<rscale>  0 0.15906653E+03</rscale>
<asrwt>0</asrwt>
<pdfrwt beam="2">  1        1 0.39490301E-01 0.16523639E+03</pdfrwt>
<pdfrwt beam="1">  1       -1 0.21321633E-01 0.16523639E+03</pdfrwt>
<totfact> 0.19082307E+03</totfact>
</mgrwt>
</event>
<event>
 8    1  0.1020295E-005  0.1305851E+03  0.7546771E-02  0.1241508E+00
          2   -1    0    0  501    0  0.00000000000E+00  0.00000000000E+00  0.47570644440E+02  0.47570644440E+02  0.00000000000E+00 0. -1.
         -2   -1    0    0    0  501 -0.00000000000E+00 -0.00000000000E+00 -0.30071458719E+03  0.30071458719E+03  0.00000000000E+00 0.  1.
         23    2    1    2    0    0  0.32302456183E+02 -0.19612944171E+02 -0.19873110778E+03  0.23779510488E+03  0.12499736977E+03 0.  0.
         23    2    1    2    0    0 -0.32302456183E+02  0.19612944171E+02 -0.54412834973E+02  0.11049012676E+03  0.88426213568E+02 0.  0.
          5    1    3    3  502    0  0.37622301932E+01 -0.23324656214E+02  0.10689177708E+02  0.26354173932E+02  0.47000000000E+01 0. -1.
         -5    1    3    3    0  502  0.28540225989E+02  0.37117120430E+01 -0.20942028549E+03  0.21144093094E+03  0.47000000000E+01 0. -1.
        -11    1    4    4    0    0 -0.37040883373E+02 -0.13961654899E+02 -0.64000792246E+02  0.75253280704E+02  0.00000000000E+00 0.  1.
         11    1    4    4    0    0  0.47384271899E+01  0.33574599070E+02  0.95879572731E+01  0.35236846051E+02  0.00000000000E+00 0. -1.
<mgrwt>
<rscale>  0 0.12096844E+03</rscale>
<asrwt>0</asrwt>
<pdfrwt beam="1">  1        2 0.73185606E-02 0.13058506E+03</pdfrwt>
<pdfrwt beam="2">  1       -2 0.46263783E-01 0.13058506E+03</pdfrwt>
<totfact> 0.40650839E+03</totfact>
</mgrwt>
</event>
<event>
 8    1  0.1020295E-005  0.1709536E+03  0.7546771E-02  0.1183069E+00
          2   -1    0    0  501    0  0.00000000000E+00  0.00000000000E+00  0.89448015383E+03  0.89448015383E+03  0.00000000000E+00 0. -1.
         -2   -1    0    0    0  501 -0.00000000000E+00 -0.00000000000E+00 -0.28921239479E+02  0.28921239479E+02  0.00000000000E+00 0.  1.
         23    2    1    2    0    0  0.89575888872E+02  0.74682522663E+02  0.41059647806E+03  0.44476352932E+03  0.12499524057E+03 0.  0.
         23    2    1    2    0    0 -0.89575888872E+02 -0.74682522663E+02  0.45496243629E+03  0.47863786399E+03  0.92206655632E+02 0.  0.
          5    1    3    3  502    0  0.45953032852E+02 -0.31535871515E+02  0.12738861406E+03  0.13912635053E+03  0.47000000000E+01 0. -1.
         -5    1    3    3    0  502  0.43622856020E+02  0.10621839418E+03  0.28320786399E+03  0.30563717879E+03  0.47000000000E+01 0. -1.
        -11    1    4    4    0    0 -0.29553881638E+02 -0.74763602809E+02  0.17901549809E+03  0.19623857108E+03  0.00000000000E+00 0.  1.
         11    1    4    4    0    0 -0.60022007235E+02  0.81080146146E-01  0.27594693821E+03  0.28239929290E+03  0.00000000000E+00 0. -1.
<mgrwt>
<rscale>  0 0.16508819E+03</rscale>
<asrwt>0</asrwt>
<pdfrwt beam="1">  1        2 0.13761231E+00 0.17095359E+03</pdfrwt>
<pdfrwt beam="2">  1       -2 0.44494221E-02 0.17095359E+03</pdfrwt>
<totfact> 0.70120820E+03</totfact>
</mgrwt>
</event>
<event>
 8    1  0.1020295E-005  0.2271702E+03  0.7546771E-02  0.1131729E+00
          1   -1    0    0  501    0  0.00000000000E+00  0.00000000000E+00  0.10644858071E+03  0.10644858071E+03  0.00000000000E+00 0. -1.
         -1   -1    0    0    0  501 -0.00000000000E+00 -0.00000000000E+00 -0.49903319770E+03  0.49903319770E+03  0.00000000000E+00 0.  1.
         23    2    1    2    0    0 -0.37590839942E+02 -0.18592365661E+03 -0.29770129997E+03  0.37447614258E+03  0.12500256007E+03 0.  0.
         23    2    1    2    0    0  0.37590839942E+02  0.18592365661E+03 -0.94883317032E+02  0.23100563583E+03  0.91542791092E+02 0.  0.
          5    1    3    3  502    0  0.24394007034E+02 -0.11039989401E+03 -0.22745526920E+03  0.25404958899E+03  0.47000000000E+01 0.  1.
         -5    1    3    3    0  502 -0.61984846976E+02 -0.75523762600E+02 -0.70246030763E+02  0.12042655359E+03  0.47000000000E+01 0.  1.
        -11    1    4    4    0    0  0.63079263187E+02  0.15204684321E+03 -0.91847518355E+02  0.18850252678E+03  0.00000000000E+00 0.  1.
         11    1    4    4    0    0 -0.25488423244E+02  0.33876813393E+02 -0.30357986771E+01  0.42503109048E+02  0.00000000000E+00 0. -1.
<mgrwt>
<rscale>  0 0.22291457E+03</rscale>
<asrwt>0</asrwt>
<pdfrwt beam="1">  1        1 0.16376705E-01 0.22717024E+03</pdfrwt>
<pdfrwt beam="2">  1       -1 0.76774339E-01 0.22717024E+03</pdfrwt>
<totfact> 0.59017641E+02</totfact>
</mgrwt>
</event>
<event>
 8    1  0.1020295E-005  0.1459166E+03  0.7546771E-02  0.1213318E+00
         -2   -1    0    0    0  501 -0.00000000000E+00  0.00000000000E+00  0.64173134141E+02  0.64173134141E+02  0.00000000000E+00 0.  1.
          2   -1    0    0  501    0  0.00000000000E+00 -0.00000000000E+00 -0.44046804535E+03  0.44046804535E+03  0.00000000000E+00 0. -1.
         23    2    1    2    0    0  0.70141692342E+02 -0.27320952860E+02 -0.47658277313E+02  0.15350229675E+03  0.12500140896E+03 0.  0.
         23    2    1    2    0    0 -0.70141692342E+02  0.27320952860E+02 -0.32863663390E+03  0.35113888274E+03  0.98133512951E+02 0.  0.
          5    1    3    3  502    0  0.31826390315E+02  0.29146954802E+02  0.27882584152E+02  0.51594501584E+02  0.47000000000E+01 0.  1.
         -5    1    3    3    0  502  0.38315302027E+02 -0.56467907662E+02 -0.75540861465E+02  0.10190779517E+03  0.47000000000E+01 0.  1.
        -11    1    4    4    0    0 -0.17863354461E+02 -0.17413243676E+02 -0.13078896887E+02  0.28166967030E+02  0.00000000000E+00 0.  1.
         11    1    4    4    0    0 -0.52278337881E+02  0.44734196536E+02 -0.31555773701E+03  0.32297191571E+03  0.00000000000E+00 0. -1.
<mgrwt>
<rscale>  0 0.14000785E+03</rscale>
<asrwt>0</asrwt>
<pdfrwt beam="2">  1        2 0.67764317E-01 0.14591656E+03</pdfrwt>
<pdfrwt beam="1">  1       -2 0.98727895E-02 0.14591656E+03</pdfrwt>
<totfact> 0.47022673E+03</totfact>
</mgrwt>
</event>
<event>
 8    1  0.1020295E-005  0.1629727E+03  0.7546771E-02  0.1194053E+00
         -2   -1    0    0    0  501 -0.00000000000E+00  0.00000000000E+00  0.45383536789E+03  0.45383536789E+03  0.00000000000E+00 0.  1.
          2   -1    0    0  501    0  0.00000000000E+00 -0.00000000000E+00 -0.63530938075E+02  0.63530938075E+02  0.00000000000E+00 0. -1.
         23    2    1    2    0    0 -0.70968867861E+02  0.76787615616E+02  0.33376209324E+03  0.37142593333E+03  0.12500868350E+03 0.  0.
         23    2    1    2    0    0  0.70968867861E+02 -0.76787615616E+02  0.56542336572E+02  0.14594037263E+03  0.84667812193E+02 0.  0.
          5    1    3    3  502    0 -0.10451507204E+03  0.74800495837E+02  0.27455099949E+03  0.30318122597E+03  0.47000000000E+01 0. -1.
         -5    1    3    3    0  502  0.33546204176E+02  0.19871197787E+01  0.59211093757E+02  0.68244707367E+02  0.47000000000E+01 0. -1.
        -11    1    4    4    0    0  0.26269929848E+02  0.16036410513E+02  0.67324081762E+01  0.31505570876E+02  0.00000000000E+00 0. -1.
         11    1    4    4    0    0  0.44698938013E+02 -0.92824026129E+02  0.49809928396E+02  0.11443480176E+03  0.00000000000E+00 0.  1.
<mgrwt>
<rscale>  0 0.15534617E+03</rscale>
<asrwt>0</asrwt>
<pdfrwt beam="2">  1        2 0.97739907E-02 0.16297266E+03</pdfrwt>
<pdfrwt beam="1">  1       -2 0.69820824E-01 0.16297266E+03</pdfrwt>
<totfact> 0.12402686E+03</totfact>
</mgrwt>
</event>
<event>
 8    1  0.1020295E-005  0.2013729E+03  0.7546771E-02  0.1152983E+00
          1   -1    0    0  501    0  0.00000000000E+00  0.00000000000E+00  0.10321238637E+04  0.10321238637E+04  0.00000000000E+00 0. -1.
         -1   -1    0    0    0  501 -0.00000000000E+00 -0.00000000000E+00 -0.35509404522E+02  0.35509404522E+02  0.00000000000E+00 0.  1.
         23    2    1    2    0    0 -0.15369134012E+03  0.36067690923E+02  0.51687935892E+03  0.55472092702E+03  0.12501651428E+03 0.  0.
         23    2    1    2    0    0  0.15369134012E+03 -0.36067690923E+02  0.47973510029E+03  0.51291234123E+03  0.89506407500E+02 0.  0.
          5    1    3    3  502    0 -0.17377941878E+02  0.57021485706E+02  0.20786355022E+03  0.21629329209E+03  0.47000000000E+01 0.  1.
         -5    1    3    3    0  502 -0.13631339824E+03 -0.20953794782E+02  0.30901580870E+03  0.33842763493E+03  0.47000000000E+01 0.  1.
        -11    1    4    4    0    0  0.16321099287E+03 -0.23469862735E+02  0.42240593428E+03  0.45344838291E+03  0.00000000000E+00 0.  1.
         11    1    4    4    0    0 -0.95196527572E+01 -0.12597828189E+02  0.57329166009E+02  0.59463958319E+02  0.00000000000E+00 0. -1.
<mgrwt>
<rscale>  0 0.19620277E+03</rscale>
<asrwt>0</asrwt>
<pdfrwt beam="1">  1        1 0.15878826E+00 0.20137288E+03</pdfrwt>
<pdfrwt beam="2">  1       -1 0.54629861E-02 0.20137288E+03</pdfrwt>
<totfact> 0.23209277E+03</totfact>
</mgrwt>
</event>
<event>
 8    1  0.1020295E-005  0.3565949E+03  0.7546771E-02  0.1060981E+00
         -1   -1    0    0    0  501 -0.00000000000E+00  0.00000000000E+00  0.60913027947E+03  0.60913027947E+03  0.00000000000E+00 0.  1.
          1   -1    0    0  501    0  0.00000000000E+00 -0.00000000000E+00 -0.39349331099E+03  0.39349331099E+03  0.00000000000E+00 0. -1.
         23    2    1    2    0    0 -0.31714247607E+03 -0.10466802462E+03  0.45758310428E+03  0.58012261145E+03  0.12500080592E+03 0.  0.
         23    2    1    2    0    0  0.31714247607E+03  0.10466802462E+03 -0.24194613580E+03  0.42250097902E+03  0.91838984847E+02 0.  0.
          5    1    3    3  502    0 -0.16825931638E+03 -0.15387886155E+02  0.14573223778E+03  0.22317696950E+03  0.47000000000E+01 0.  1.
         -5    1    3    3    0  502 -0.14888315970E+03 -0.89280138465E+02  0.31185086650E+03  0.35694564194E+03  0.47000000000E+01 0.  1.
        -11    1    4    4    0    0  0.73183070990E+02  0.12580779526E+01 -0.93630065849E+02  0.11884415791E+03  0.00000000000E+00 0. -1.
         11    1    4    4    0    0  0.24395940508E+03  0.10340994667E+03 -0.14831606995E+03  0.30365682111E+03  0.00000000000E+00 0.  1.
<mgrwt>
<rscale>  0 0.35400963E+03</rscale>
<asrwt>0</asrwt>
<pdfrwt beam="2">  1        1 0.60537432E-01 0.35659493E+03</pdfrwt>
<pdfrwt beam="1">  1       -1 0.93712351E-01 0.35659493E+03</pdfrwt>
<totfact> 0.71837833E+01</totfact>
</mgrwt>
</event>
<event>
 8    1  0.1020295E-005  0.1888744E+03  0.7546771E-02  0.1163905E+00
         -1   -1    0    0    0  501 -0.00000000000E+00  0.00000000000E+00  0.17015568782E+03  0.17015568782E+03  0.00000000000E+00 0.  1.
          1   -1    0    0  501    0  0.00000000000E+00 -0.00000000000E+00 -0.19222913494E+03  0.19222913494E+03  0.00000000000E+00 0. -1.
         23    2    1    2    0    0  0.12610097585E+03 -0.64389025193E+02  0.91957154233E+01  0.18909813449E+03  0.12500456236E+03 0.  0.
         23    2    1    2    0    0 -0.12610097585E+03  0.64389025193E+02 -0.31269162538E+02  0.17328668827E+03  0.94884736027E+02 0.  0.
          5    1    3    3  502    0  0.48236939683E+02  0.17481434416E+02 -0.40542387491E+02  0.65560491782E+02  0.47000000000E+01 0. -1.
         -5    1    3    3    0  502  0.77864036166E+02 -0.81870459608E+02  0.49738102914E+02  0.12353764271E+03  0.47000000000E+01 0. -1.
        -11    1    4    4    0    0 -0.41970722510E+02  0.15821416959E+02 -0.57251197400E+02  0.72729350240E+02  0.00000000000E+00 0. -1.
         11    1    4    4    0    0 -0.84130253339E+02  0.48567608234E+02  0.25982034862E+02  0.10055733803E+03  0.00000000000E+00 0.  1.
<mgrwt>
<rscale>  0 0.18408740E+03</rscale>
<asrwt>0</asrwt>
<pdfrwt beam="2">  1        1 0.29573713E-01 0.18887441E+03</pdfrwt>
<pdfrwt beam="1">  1       -1 0.26177798E-01 0.18887441E+03</pdfrwt>
<totfact> 0.19626615E+03</totfact>
</mgrwt>
</event>
<event>
 8    1  0.1020295E-005  0.1408341E+03  0.7546771E-02  0.1223092E+00
         -1   -1    0    0    0  501 -0.00000000000E+00  0.00000000000E+00  0.60004192659E+02  0.60004192659E+02  0.00000000000E+00 0.  1.
          1   -1    0    0  501    0  0.00000000000E+00 -0.00000000000E+00 -0.31756895780E+03  0.31756895780E+03  0.00000000000E+00 0. -1.
         23    2    1    2    0    0  0.34717345783E+02  0.54811205589E+02 -0.65650849745E+02  0.15538432679E+03  0.12499877032E+03 0.  0.
         23    2    1    2    0    0 -0.34717345783E+02 -0.54811205589E+02 -0.19191391540E+03  0.22218882368E+03  0.91254370228E+02 0.  0.
          5    1    3    3  502    0 -0.40767464264E+02 -0.63586994902E+01 -0.32105611741E+02  0.52490756396E+02  0.47000000000E+01 0. -1.
         -5    1    3    3    0  502  0.75484810047E+02  0.61169905079E+02 -0.33545238004E+02  0.10289357039E+03  0.47000000000E+01 0. -1.
        -11    1    4    4    0    0  0.19487363769E+02 -0.34568615426E+02 -0.13620564566E+03  0.14186868728E+03  0.00000000000E+00 0. -1.
         11    1    4    4    0    0 -0.54204709552E+02 -0.20242590162E+02 -0.55708269739E+02  0.80320136400E+02  0.00000000000E+00 0.  1.
<mgrwt>
<rscale>  0 0.13298566E+03</rscale>
<asrwt>0</asrwt>
<pdfrwt beam="2">  1        1 0.48856762E-01 0.14083414E+03</pdfrwt>
<pdfrwt beam="1">  1       -1 0.92314143E-02 0.14083414E+03</pdfrwt>
<totfact> 0.53997211E+03</totfact>
</mgrwt>
</event>
<event>
 8    1  0.1020295E-005  0.1645987E+03  0.7546771E-02  0.1189286E+00
          2   -1    0    0  501    0  0.00000000000E+00  0.00000000000E+00  0.66354018261E+03  0.66354018261E+03  0.00000000000E+00 0. -1.
         -2   -1    0    0    0  501 -0.00000000000E+00 -0.00000000000E+00 -0.40370973853E+02  0.40370973853E+02  0.00000000000E+00 0.  1.
         23    2    1    2    0    0  0.74208447005E+02  0.77208913336E+02  0.21526629830E+03  0.27098394289E+03  0.12499843286E+03 0.  0.
         23    2    1    2    0    0 -0.74208447005E+02 -0.77208913336E+02  0.40790291046E+03  0.43292721357E+03  0.97842107415E+02 0.  0.
          5    1    3    3  502    0  0.56698546136E+02  0.13406513801E+02  0.15467469656E+02  0.60463148808E+02  0.47000000000E+01 0. -1.
         -5    1    3    3    0  502  0.17509900869E+02  0.63802399535E+02  0.19979882864E+03  0.21052079408E+03  0.47000000000E+01 0. -1.
        -11    1    4    4    0    0 -0.29072752208E+01 -0.26348113310E+02  0.15159196072E+02  0.30536479001E+02  0.00000000000E+00 0.  1.
         11    1    4    4    0    0 -0.71301171784E+02 -0.50860800026E+02  0.39274371439E+03  0.40239073457E+03  0.00000000000E+00 0. -1.
<mgrwt>
<rscale>  0 0.15947900E+03</rscale>
<asrwt>0</asrwt>
<pdfrwt beam="1">  1        2 0.10208310E+00 0.16459866E+03</pdfrwt>
<pdfrwt beam="2">  1       -2 0.62109196E-02 0.16459866E+03</pdfrwt>
<totfact> 0.61198316E+03</totfact>
</mgrwt>
</event>
<event>
 8    1  0.1020295E-005  0.1272216E+03  0.7546771E-02  0.1246744E+00
          2   -1    0    0  501    0  0.00000000000E+00  0.00000000000E+00  0.62141355830E+02  0.62141355830E+02  0.00000000000E+00 0. -1.
         -2   -1    0    0    0  501 -0.00000000000E+00 -0.00000000000E+00 -0.19729585079E+03  0.19729585079E+03  0.00000000000E+00 0.  1.
         23    2    1    2    0    0  0.23066277430E+02 -0.53505726933E+01 -0.87713307985E+02  0.15452815491E+03  0.12499857791E+03 0.  0.
         23    2    1    2    0    0 -0.23066277430E+02  0.53505726933E+01 -0.47441186973E+02  0.10490905171E+03  0.90523815241E+02 0.  0.
          5    1    3    3  502    0  0.12421226775E+02  0.40989002665E+02 -0.96742979382E+02  0.10590410414E+03  0.47000000000E+01 0. -1.
         -5    1    3    3    0  502  0.10645050655E+02 -0.46339575359E+02  0.90296713974E+01  0.48624050771E+02  0.47000000000E+01 0. -1.
        -11    1    4    4    0    0 -0.89364059656E+01  0.10325745785E+02 -0.73550534452E+02  0.74807496254E+02  0.00000000000E+00 0.  1.
         11    1    4    4    0    0 -0.14129871464E+02 -0.49751730913E+01  0.26109347479E+02  0.30101555452E+02  0.00000000000E+00 0. -1.
<mgrwt>
<rscale>  0 0.11781595E+03</rscale>
<asrwt>0</asrwt>
<pdfrwt beam="1">  1        2 0.95602087E-02 0.12722156E+03</pdfrwt>
<pdfrwt beam="2">  1       -2 0.30353207E-01 0.12722156E+03</pdfrwt>
<totfact> 0.63903876E+03</totfact>
</mgrwt>
</event>
<event>
 8    1  0.1020295E-005  0.1263403E+03  0.7546771E-02  0.1246122E+00
          2   -1    0    0  501    0  0.00000000000E+00  0.00000000000E+00  0.99394681084E+02  0.99394681084E+02  0.00000000000E+00 0. -1.
         -2   -1    0    0    0  501 -0.00000000000E+00 -0.00000000000E+00 -0.14630624667E+03  0.14630624667E+03  0.00000000000E+00 0.  1.
         23    2    1    2    0    0 -0.17846568475E+02 -0.44176425351E+01 -0.72455451002E+02  0.14564221953E+03  0.12499539254E+03 0.  0.
         23    2    1    2    0    0  0.17846568475E+02  0.44176425351E+01  0.25543885412E+02  0.10005870823E+03  0.94980205510E+02 0.  0.
          5    1    3    3  502    0  0.36857601241E+01  0.14510108274E+01  0.35131112531E+02  0.35664763111E+02  0.47000000000E+01 0.  1.
         -5    1    3    3    0  502 -0.21532328600E+02 -0.58686533625E+01 -0.10758656353E+03  0.10997745642E+03  0.47000000000E+01 0.  1.
        -11    1    4    4    0    0  0.38040453534E+02  0.22424687471E+02 -0.18895273847E+02  0.48030970082E+02  0.00000000000E+00 0.  1.
         11    1    4    4    0    0 -0.20193885059E+02 -0.18007044936E+02  0.44439159259E+02  0.52027738148E+02  0.00000000000E+00 0. -1.
<mgrwt>
<rscale>  0 0.11818477E+03</rscale>
<asrwt>0</asrwt>
<pdfrwt beam="1">  1        2 0.15291489E-01 0.12634027E+03</pdfrwt>
<pdfrwt beam="2">  1       -2 0.22508653E-01 0.12634027E+03</pdfrwt>
<totfact> 0.61509548E+03</totfact>
</mgrwt>
</event>
<event>
 8    1  0.1020295E-005  0.1262681E+03  0.7546771E-02  0.1250790E+00
          1   -1    0    0  501    0  0.00000000000E+00  0.00000000000E+00  0.17836146577E+03  0.17836146577E+03  0.00000000000E+00 0. -1.
         -1   -1    0    0    0  501 -0.00000000000E+00 -0.00000000000E+00 -0.65515448047E+02  0.65515448047E+02  0.00000000000E+00 0.  1.
         23    2    1    2    0    0 -0.86876573136E-01  0.17879207293E+02  0.51372495916E+02  0.13631859004E+03  0.12499580414E+03 0.  0.
         23    2    1    2    0    0  0.86876573136E-01 -0.17879207293E+02  0.61473521805E+02  0.10755832377E+03  0.86429887936E+02 0.  0.
          5    1    3    3  502    0 -0.18428199968E+02  0.67614964415E+01  0.89810915578E+02  0.92051110505E+02  0.47000000000E+01 0.  1.
         -5    1    3    3    0  502  0.18341323395E+02  0.11117710852E+02 -0.38438419663E+02  0.44267479538E+02  0.47000000000E+01 0.  1.
        -11    1    4    4    0    0 -0.26140318183E+02 -0.81255213444E+01 -0.11281574026E+02  0.29607672052E+02  0.00000000000E+00 0.  1.
         11    1    4    4    0    0  0.26227194756E+02 -0.97536859488E+01  0.72755095831E+02  0.77950651721E+02  0.00000000000E+00 0. -1.
<mgrwt>
<rscale>  0 0.11545452E+03</rscale>
<asrwt>0</asrwt>
<pdfrwt beam="1">  1        1 0.27440225E-01 0.12626807E+03</pdfrwt>
<pdfrwt beam="2">  1       -1 0.10079300E-01 0.12626807E+03</pdfrwt>
<totfact> 0.95796358E+03</totfact>
</mgrwt>
</event>
<event>
 8    1  0.1020295E-005  0.1277155E+03  0.7546771E-02  0.1244510E+00
         -1   -1    0    0    0  501 -0.00000000000E+00  0.00000000000E+00  0.39867022877E+03  0.39867022877E+03  0.00000000000E+00 0.  1.
          1   -1    0    0  501    0  0.00000000000E+00 -0.00000000000E+00 -0.46725419829E+02  0.46725419829E+02  0.00000000000E+00 0. -1.
         23    2    1    2    0    0  0.19398505842E+02  0.17329991038E+02  0.31830904862E+03  0.34297508079E+03  0.12503849406E+03 0.  0.
         23    2    1    2    0    0 -0.19398505842E+02 -0.17329991038E+02  0.33635760326E+02  0.10242056781E+03  0.93177130879E+02 0.  0.
          5    1    3    3  502    0  0.69616365258E+02  0.28815224111E+02  0.17381041553E+03  0.18949645379E+03  0.47000000000E+01 0. -1.
         -5    1    3    3    0  502 -0.50217859416E+02 -0.11485233073E+02  0.14449863308E+03  0.15347862700E+03  0.47000000000E+01 0. -1.
        -11    1    4    4    0    0  0.15694613165E+02 -0.27827217424E+02 -0.19836570074E+02  0.37605377598E+02  0.00000000000E+00 0. -1.
         11    1    4    4    0    0 -0.35093119007E+02  0.10497226386E+02  0.53472330399E+02  0.64815190209E+02  0.00000000000E+00 0.  1.
<mgrwt>
<rscale>  0 0.11914729E+03</rscale>
<asrwt>0</asrwt>
<pdfrwt beam="2">  1        1 0.71885264E-02 0.12771553E+03</pdfrwt>
<pdfrwt beam="1">  1       -1 0.61333879E-01 0.12771553E+03</pdfrwt>
<totfact> 0.26998448E+03</totfact>
</mgrwt>
</event>
<event>
 8    1  0.1020295E-005  0.1654314E+03  0.7546771E-02  0.1189769E+00
         -1   -1    0    0    0  501 -0.00000000000E+00  0.00000000000E+00  0.31515947529E+02  0.31515947529E+02  0.00000000000E+00 0.  1.
          1   -1    0    0  501    0  0.00000000000E+00 -0.00000000000E+00 -0.74713148237E+03  0.74713148237E+03  0.00000000000E+00 0. -1.
         23    2    1    2    0    0 -0.85523395568E+02  0.66553324575E+02 -0.39606779817E+03  0.42922868617E+03  0.12499587225E+03 0.  0.
         23    2    1    2    0    0  0.85523395568E+02 -0.66553324575E+02 -0.31954773667E+03  0.34941874373E+03  0.90769522737E+02 0.  0.
          5    1    3    3  502    0 -0.10567700683E+03  0.14363377153E+02 -0.22204734029E+03  0.24637582615E+03  0.47000000000E+01 0.  1.
         -5    1    3    3    0  502  0.20153611267E+02  0.52189947422E+02 -0.17402045788E+03  0.18285286002E+03  0.47000000000E+01 0.  1.
        -11    1    4    4    0    0  0.48381088365E+02 -0.47401974731E+02 -0.73909288888E+02  0.10025098455E+03  0.00000000000E+00 0.  1.
         11    1    4    4    0    0  0.37142307202E+02 -0.19151349844E+02 -0.24563844778E+03  0.24916775918E+03  0.00000000000E+00 0. -1.
<mgrwt>
<rscale>  0 0.15905427E+03</rscale>
<asrwt>0</asrwt>
<pdfrwt beam="2">  1        1 0.11494330E+00 0.16543145E+03</pdfrwt>
<pdfrwt beam="1">  1       -1 0.48486073E-02 0.16543145E+03</pdfrwt>
<totfact> 0.46215272E+03</totfact>
</mgrwt>
</event>
<event>
 8    1  0.1020295E-005  0.1325252E+03  0.7546771E-02  0.1236627E+00
          1   -1    0    0  501    0  0.00000000000E+00  0.00000000000E+00  0.64364482815E+03  0.64364482815E+03  0.00000000000E+00 0. -1.
         -1   -1    0    0    0  501 -0.00000000000E+00 -0.00000000000E+00 -0.21303174098E+02  0.21303174098E+02  0.00000000000E+00 0.  1.
         23    2    1    2    0    0  0.37778755986E+02 -0.22579171417E+02  0.34453423049E+03  0.36914327368E+03  0.12500346850E+03 0.  0.
         23    2    1    2    0    0 -0.37778755986E+02  0.22579171417E+02  0.27780742356E+03  0.29580472857E+03  0.91577396078E+02 0.  0.
          5    1    3    3  502    0 -0.45123891205E+02 -0.19605356933E+02  0.13103293886E+03  0.14004376688E+03  0.47000000000E+01 0. -1.
         -5    1    3    3    0  502  0.82902647192E+02 -0.29738144837E+01  0.21350129164E+03  0.22909950680E+03  0.47000000000E+01 0. -1.
        -11    1    4    4    0    0  0.44915578037E+01 -0.11688139787E+02 -0.19885950633E+00  0.12523028719E+02  0.00000000000E+00 0.  1.
         11    1    4    4    0    0 -0.42270313790E+02  0.34267311204E+02  0.27800628307E+03  0.28328169985E+03  0.00000000000E+00 0. -1.
<mgrwt>
<rscale>  0 0.12400866E+03</rscale>
<asrwt>0</asrwt>
<pdfrwt beam="1">  1        1 0.99022267E-01 0.13252517E+03</pdfrwt>
<pdfrwt beam="2">  1       -1 0.32774119E-02 0.13252517E+03</pdfrwt>
<totfact> 0.10059415E+04</totfact>
</mgrwt>
</event>
<event>
 7    1  0.1020295E-005  0.3293084E+03  0.7546771E-02  0.1071443E+00
          2   -1    0    0  501    0  0.00000000000E+00  0.00000000000E+00  0.10644631905E+04  0.10644631905E+04  0.00000000000E+00 0. -1.
         -2   -1    0    0    0  501 -0.00000000000E+00 -0.00000000000E+00 -0.25469181681E+02  0.25469181681E+02  0.00000000000E+00 0.  1.
         23    2    1    2    0    0 -0.31160199507E+02  0.25713648036E+02  0.44489364594E+03  0.45588434165E+03  0.90928692035E+02 0.  0.
          5    1    1    2  502    0 -0.71054618330E+02  0.47213747256E+02  0.34009360336E+03  0.35066172554E+03  0.47000000000E+01 0. -1.
         -5    1    1    2    0  502  0.10221481784E+03 -0.72927395291E+02  0.25400675947E+03  0.28338630494E+03  0.47000000000E+01 0.  1.
        -11    1    3    3    0    0 -0.25895385693E+02 -0.32009412024E+02  0.20426047951E+03  0.20836870434E+03  0.00000000000E+00 0.  1.
         11    1    3    3    0    0 -0.52648138136E+01  0.57723060060E+02  0.24063316643E+03  0.24751563731E+03  0.00000000000E+00 0. -1.
<mgrwt>
<rscale>  0 0.32930840E+03</rscale>
<asrwt>0</asrwt>
<pdfrwt beam="1">  1        2 0.16376353E+00 0.32930840E+03</pdfrwt>
<pdfrwt beam="2">  1       -2 0.39183365E-02 0.32930840E+03</pdfrwt>
<totfact> 0.68236922E+03</totfact>
</mgrwt>
</event>
<event>
 8    1  0.1020295E-005  0.1825659E+03  0.7546771E-02  0.1171204E+00
         -3   -1    0    0    0  501 -0.00000000000E+00  0.00000000000E+00  0.43111087909E+03  0.43111087909E+03  0.00000000000E+00 0.  1.
          3   -1    0    0  501    0  0.00000000000E+00 -0.00000000000E+00 -0.73628351800E+02  0.73628351800E+02  0.00000000000E+00 0. -1.
         23    2    1    2    0    0 -0.10104427827E+03 -0.86571543564E+02  0.26010539102E+03  0.31778155499E+03  0.12500289567E+03 0.  0.
         23    2    1    2    0    0  0.10104427827E+03  0.86571543564E+02  0.97377136263E+02  0.18695767590E+03  0.88126543016E+02 0.  0.
          5    1    3    3  502    0 -0.64453382041E+02 -0.10238178470E+03  0.11411680467E+03  0.16637609023E+03  0.47000000000E+01 0.  1.
         -5    1    3    3    0  502 -0.36590896227E+02  0.15810241134E+02  0.14598858636E+03  0.15140546476E+03  0.47000000000E+01 0.  1.
        -11    1    4    4    0    0  0.68642359263E+02  0.69067120021E+01  0.21482040913E+02  0.72256170931E+02  0.00000000000E+00 0. -1.
         11    1    4    4    0    0  0.32401919004E+02  0.79664831562E+02  0.75895095350E+02  0.11470150496E+03  0.00000000000E+00 0.  1.
<mgrwt>
<rscale>  0 0.17653068E+03</rscale>
<asrwt>0</asrwt>
<pdfrwt beam="2">  1        3 0.11327439E-01 0.18256588E+03</pdfrwt>
<pdfrwt beam="1">  1       -3 0.66324749E-01 0.18256588E+03</pdfrwt>
<totfact> 0.32285047E+02</totfact>
</mgrwt>
</event>
<event>
 8    1  0.1020295E-005  0.1678853E+03  0.7546771E-02  0.1185959E+00
         -2   -1    0    0    0  501 -0.00000000000E+00  0.00000000000E+00  0.17215622009E+03  0.17215622009E+03  0.00000000000E+00 0. -1.
          2   -1    0    0  501    0  0.00000000000E+00 -0.00000000000E+00 -0.15217711415E+03  0.15217711415E+03  0.00000000000E+00 0.  1.
         23    2    1    2    0    0 -0.28296304388E+02  0.10844640410E+03  0.47786898868E+02  0.17455386884E+03  0.12499664803E+03 0.  0.
         23    2    1    2    0    0  0.28296304388E+02 -0.10844640410E+03 -0.27807792924E+02  0.14977946541E+03  0.95390311381E+02 0.  0.
          5    1    3    3  502    0 -0.85246784222E+01  0.97391391698E+01 -0.39123896142E+02  0.41476381511E+02  0.47000000000E+01 0.  1.
         -5    1    3    3    0  502 -0.19771625966E+02  0.98707264933E+02  0.86910795010E+02  0.13307748733E+03  0.47000000000E+01 0.  1.
        -11    1    4    4    0    0  0.17923980021E+02  0.14768102117E+02 -0.93698204705E+00  0.23243145985E+02  0.00000000000E+00 0.  1.
         11    1    4    4    0    0  0.10372324367E+02 -0.12321450622E+03 -0.26870810877E+02  0.12653631942E+03  0.00000000000E+00 0. -1.
<mgrwt>
<rscale>  0 0.16244947E+03</rscale>
<asrwt>0</asrwt>
<pdfrwt beam="2">  1        2 0.23411864E-01 0.16788527E+03</pdfrwt>
<pdfrwt beam="1">  1       -2 0.26485573E-01 0.16788527E+03</pdfrwt>
<totfact> 0.28977968E+03</totfact>
</mgrwt>
</event>
<event>
 7    1  0.1020295E-005  0.1489468E+03  0.7546771E-02  0.1214097E+00
         -2   -1    0    0    0  501 -0.00000000000E+00  0.00000000000E+00  0.40239016429E+03  0.40239016429E+03  0.00000000000E+00 0.  1.
          2   -1    0    0  501    0  0.00000000000E+00 -0.00000000000E+00 -0.46905296527E+02  0.46905296527E+02  0.00000000000E+00 0. -1.
         23    2    1    2    0    0  0.19603844694E+02  0.67666283752E+02  0.92666345109E+02  0.14720487285E+03  0.90106528019E+02 0.  0.
          5    1    1    2  502    0 -0.33424589606E+02 -0.91204729613E+01  0.27027352088E+01  0.35068233416E+02  0.47000000000E+01 0. -1.
         -5    1    1    2    0  502  0.13820744911E+02 -0.58545810791E+02  0.26011578744E+03  0.26702235455E+03  0.47000000000E+01 0.  1.
        -11    1    3    3    0    0 -0.24103046782E+02  0.66412627910E+02  0.57602694739E+02  0.91157360928E+02  0.00000000000E+00 0. -1.
         11    1    3    3    0    0  0.43706891477E+02  0.12536558423E+01  0.35063650370E+02  0.56047511924E+02  0.00000000000E+00 0.  1.
<mgrwt>
<rscale>  0 0.13943075E+03</rscale>
<asrwt>0</asrwt>
<pdfrwt beam="2">  1        2 0.72161997E-02 0.14894679E+03</pdfrwt>
<pdfrwt beam="1">  1       -2 0.61906177E-01 0.14894679E+03</pdfrwt>
<totfact> 0.23257789E+03</totfact>
</mgrwt>
</event>
<event>
 8    1  0.1020295E-005  0.1319026E+03  0.7546771E-02  0.1237981E+00
          3   -1    0    0  501    0  0.00000000000E+00  0.00000000000E+00  0.18579069194E+03  0.18579069194E+03  0.00000000000E+00 0. -1.
         -3   -1    0    0    0  501 -0.00000000000E+00 -0.00000000000E+00 -0.72610092255E+02  0.72610092255E+02  0.00000000000E+00 0.  1.
         23    2    1    2    0    0 -0.32963219642E+02  0.26205457635E+02  0.59680495374E+02  0.14477584783E+03  0.12499993891E+03 0.  0.
         23    2    1    2    0    0  0.32963219642E+02 -0.26205457635E+02  0.53500104310E+02  0.11362493637E+03  0.90967385056E+02 0.  0.
          5    1    3    3  502    0 -0.47303378355E+02  0.46131581235E+02  0.85950684972E+02  0.10851425085E+03  0.47000000000E+01 0.  1.
         -5    1    3    3    0  502  0.14340158713E+02 -0.19926123599E+02 -0.26270189598E+02  0.36261596974E+02  0.47000000000E+01 0.  1.
        -11    1    4    4    0    0  0.12484802009E+02 -0.24791569378E+02  0.77337054760E+02  0.82167586263E+02  0.00000000000E+00 0. -1.
         11    1    4    4    0    0  0.20478417633E+02 -0.14138882571E+01 -0.23836950450E+02  0.31457350103E+02  0.00000000000E+00 0.  1.
<mgrwt>
<rscale>  0 0.12315494E+03</rscale>
<asrwt>0</asrwt>
<pdfrwt beam="1">  1        3 0.28583183E-01 0.13190256E+03</pdfrwt>
<pdfrwt beam="2">  1       -3 0.11170784E-01 0.13190256E+03</pdfrwt>
<totfact> 0.16457084E+03</totfact>
</mgrwt>
</event>
<event>
 8    1  0.1020295E-005  0.1619784E+03  0.7546771E-02  0.1193756E+00
         -2   -1    0    0    0  501 -0.00000000000E+00  0.00000000000E+00  0.26446559543E+02  0.26446559543E+02  0.00000000000E+00 0.  1.
          2   -1    0    0  501    0  0.00000000000E+00 -0.00000000000E+00 -0.98308520912E+03  0.98308520912E+03  0.00000000000E+00 0. -1.
         23    2    1    2    0    0 -0.96759136713E+02 -0.35531567831E+02 -0.32646792054E+03  0.36444245022E+03  0.12494868360E+03 0.  0.
         23    2    1    2    0    0  0.96759136713E+02  0.35531567831E+02 -0.63017072904E+03  0.64508931845E+03  0.91652922387E+02 0.  0.
          5    1    3    3  502    0  0.25778257158E+02 -0.22892090814E+02 -0.10953579004E+03  0.11492930724E+03  0.47000000000E+01 0. -1.
         -5    1    3    3    0  502 -0.12253739387E+03 -0.12639477017E+02 -0.21693213050E+03  0.24951314298E+03  0.47000000000E+01 0. -1.
        -11    1    4    4    0    0 -0.16565174563E+02  0.12043966023E+02 -0.63501422993E+02  0.66722506308E+02  0.00000000000E+00 0.  1.
         11    1    4    4    0    0  0.11332431128E+03  0.23487601808E+02 -0.56666930605E+03  0.57836681214E+03  0.00000000000E+00 0. -1.
<mgrwt>
<rscale>  0 0.15559965E+03</rscale>
<asrwt>0</asrwt>
<pdfrwt beam="2">  1        2 0.15124389E+00 0.16197838E+03</pdfrwt>
<pdfrwt beam="1">  1       -2 0.40687012E-02 0.16197838E+03</pdfrwt>
<totfact> 0.70450183E+03</totfact>
</mgrwt>
</event>
<event>
 8    1  0.1020295E-005  0.1419776E+03  0.7546771E-02  0.1221168E+00
          2   -1    0    0  501    0  0.00000000000E+00  0.00000000000E+00  0.41087873059E+02  0.41087873059E+02  0.00000000000E+00 0. -1.
         -2   -1    0    0    0  501 -0.00000000000E+00 -0.00000000000E+00 -0.55218817384E+03  0.55218817384E+03  0.00000000000E+00 0.  1.
         23    2    1    2    0    0 -0.67326954474E+02 -0.43427788246E+00 -0.43193383800E+03  0.45466964894E+03  0.12499816741E+03 0.  0.
         23    2    1    2    0    0  0.67326954474E+02  0.43427788246E+00 -0.79166462781E+02  0.13860639797E+03  0.91713125187E+02 0.  0.
          5    1    3    3  502    0 -0.77146927678E+02  0.48529018546E+02 -0.25900086663E+03  0.27460927334E+03  0.47000000000E+01 0.  1.
         -5    1    3    3    0  502  0.98199732042E+01 -0.48963296429E+02 -0.17293297138E+03  0.18006037560E+03  0.47000000000E+01 0.  1.
        -11    1    4    4    0    0  0.28813853667E+02  0.30153337351E+02  0.43726892310E+01  0.41935454304E+02  0.00000000000E+00 0. -1.
         11    1    4    4    0    0  0.38513100807E+02 -0.29719059469E+02 -0.83539152012E+02  0.96670943661E+02  0.00000000000E+00 0.  1.
<mgrwt>
<rscale>  0 0.13433068E+03</rscale>
<asrwt>0</asrwt>
<pdfrwt beam="1">  1        2 0.63212119E-02 0.14197764E+03</pdfrwt>
<pdfrwt beam="2">  1       -2 0.84952018E-01 0.14197764E+03</pdfrwt>
<totfact> 0.13940322E+03</totfact>
</mgrwt>
</event>
<event>
 8    1  0.1020295E-005  0.1565059E+03  0.7546771E-02  0.1200687E+00
         -2   -1    0    0    0  501 -0.00000000000E+00  0.00000000000E+00  0.58951512436E+02  0.58951512436E+02  0.00000000000E+00 0.  1.
          2   -1    0    0  501    0  0.00000000000E+00 -0.00000000000E+00 -0.36606338233E+03  0.36606338233E+03  0.00000000000E+00 0. -1.
         23    2    1    2    0    0 -0.92930407733E+02  0.15177446202E+02 -0.12435763824E+03  0.19989730733E+03  0.12501078247E+03 0.  0.
         23    2    1    2    0    0  0.92930407733E+02 -0.15177446202E+02 -0.18275423166E+03  0.22511758744E+03  0.91719155198E+02 0.  0.
          5    1    3    3  502    0 -0.11095724920E+03  0.45464185040E+02 -0.10476325025E+03  0.15929824819E+03  0.47000000000E+01 0.  1.
         -5    1    3    3    0  502  0.18026841469E+02 -0.30286738838E+02 -0.19594387984E+02  0.40599059142E+02  0.47000000000E+01 0.  1.
        -11    1    4    4    0    0  0.26683694892E+02  0.36280813911E+02 -0.43904960735E+02  0.62896443526E+02  0.00000000000E+00 0.  1.
         11    1    4    4    0    0  0.66246712841E+02 -0.51458260113E+02 -0.13884927092E+03  0.16222114391E+03  0.00000000000E+00 0. -1.
<mgrwt>
<rscale>  0 0.14982607E+03</rscale>
<asrwt>0</asrwt>
<pdfrwt beam="2">  1        2 0.56317446E-01 0.15650595E+03</pdfrwt>
<pdfrwt beam="1">  1       -2 0.90694631E-02 0.15650595E+03</pdfrwt>
<totfact> 0.65779604E+03</totfact>
</mgrwt>
</event>
<event>
 8    1  0.1020295E-005  0.1562176E+03  0.7546771E-02  0.1201431E+00
          1   -1    0    0  501    0  0.00000000000E+00  0.00000000000E+00  0.16521348802E+03  0.16521348802E+03  0.00000000000E+00 0. -1.
         -1   -1    0    0    0  501 -0.00000000000E+00 -0.00000000000E+00 -0.12403712774E+03  0.12403712774E+03  0.00000000000E+00 0.  1.
         23    2    1    2    0    0 -0.93212586310E+02  0.95071428245E+01  0.24289085266E+02  0.15809455844E+03  0.12499983094E+03 0.  0.
         23    2    1    2    0    0  0.93212586310E+02 -0.95071428245E+01  0.16887275012E+02  0.13115605731E+03  0.90209529989E+02 0.  0.
          5    1    3    3  502    0 -0.17711309568E+02 -0.52641953026E+02 -0.48400395274E+01  0.55949814009E+02  0.47000000000E+01 0.  1.
         -5    1    3    3    0  502 -0.75501276742E+02  0.62149095850E+02  0.29129124793E+02  0.10214474444E+03  0.47000000000E+01 0.  1.
        -11    1    4    4    0    0  0.23699141928E+02 -0.32780427631E+02 -0.24184348139E+02  0.47128425167E+02  0.00000000000E+00 0.  1.
         11    1    4    4    0    0  0.69513444382E+02  0.23273284807E+02  0.41071623151E+02  0.84027632145E+02  0.00000000000E+00 0. -1.
<mgrwt>
<rscale>  0 0.14922341E+03</rscale>
<asrwt>0</asrwt>
<pdfrwt beam="1">  1        1 0.25417460E-01 0.15621757E+03</pdfrwt>
<pdfrwt beam="2">  1       -1 0.19082635E-01 0.15621757E+03</pdfrwt>
<totfact> 0.39482634E+03</totfact>
</mgrwt>
</event>
<event>
 8    1  0.1020295E-005  0.1789483E+03  0.7546771E-02  0.1174522E+00
         -1   -1    0    0    0  501 -0.00000000000E+00  0.00000000000E+00  0.33482547650E+02  0.33482547650E+02  0.00000000000E+00 0.  1.
          1   -1    0    0  501    0  0.00000000000E+00 -0.00000000000E+00 -0.97734351467E+03  0.97734351467E+03  0.00000000000E+00 0. -1.
         23    2    1    2    0    0 -0.12076081130E+03 -0.42555280808E+02 -0.31159260663E+03  0.35932221189E+03  0.12501349520E+03 0.  0.
         23    2    1    2    0    0  0.12076081130E+03  0.42555280808E+02 -0.63226836039E+03  0.65150385043E+03  0.91103578962E+02 0.  0.
          5    1    3    3  502    0 -0.67439736356E+02 -0.72646778623E+02 -0.10799189801E+03  0.14666292142E+03  0.47000000000E+01 0.  1.
         -5    1    3    3    0  502 -0.53321074942E+02  0.30091497815E+02 -0.20360070862E+03  0.21265929047E+03  0.47000000000E+01 0.  1.
        -11    1    4    4    0    0  0.10381020654E+02  0.40706494750E+02 -0.11122619394E+03  0.11889512405E+03  0.00000000000E+00 0. -1.
         11    1    4    4    0    0  0.11037979064E+03  0.18487860584E+01 -0.52104216645E+03  0.53260872638E+03  0.00000000000E+00 0.  1.
<mgrwt>
<rscale>  0 0.17322861E+03</rscale>
<asrwt>0</asrwt>
<pdfrwt beam="2">  1        1 0.15036052E+00 0.17894832E+03</pdfrwt>
<pdfrwt beam="1">  1       -1 0.51511620E-02 0.17894832E+03</pdfrwt>
<totfact> 0.27764639E+03</totfact>
</mgrwt>
</event>
<event>
 7    1  0.1020295E-005  0.2298635E+03  0.7546771E-02  0.1157789E+00
         -1   -1    0    0    0  501 -0.00000000000E+00  0.00000000000E+00  0.90316831564E+02  0.90316831564E+02  0.00000000000E+00 0.  1.
          1   -1    0    0  501    0  0.00000000000E+00 -0.00000000000E+00 -0.32179943875E+03  0.32179943875E+03  0.00000000000E+00 0. -1.
         23    2    1    2    0    0 -0.52507536686E+02 -0.26340063946E+02 -0.96317668579E+02  0.14545771431E+03  0.91815102217E+02 0.  0.
          5    1    1    2  502    0  0.46936504294E+02 -0.68062318141E+02 -0.14949330068E+03  0.17089719581E+03  0.47000000000E+01 0. -1.
         -5    1    1    2    0  502  0.55710323920E+01  0.94402382087E+02  0.14328362079E+02  0.95761360190E+02  0.47000000000E+01 0.  1.
        -11    1    3    3    0    0 -0.49398015054E+02  0.24811181991E+02 -0.34501188204E+02  0.65162033659E+02  0.00000000000E+00 0.  1.
         11    1    3    3    0    0 -0.31095216319E+01 -0.51151245937E+02 -0.61816480375E+02  0.80295680654E+02  0.00000000000E+00 0. -1.
<mgrwt>
<rscale>  0 0.19074732E+03</rscale>
<asrwt>0</asrwt>
<pdfrwt beam="2">  1        1 0.49507607E-01 0.22986349E+03</pdfrwt>
<pdfrwt beam="1">  1       -1 0.13894897E-01 0.22986349E+03</pdfrwt>
<totfact> 0.28826388E+03</totfact>
</mgrwt>
</event>
<event>
 8    1  0.1020295E-005  0.1418019E+03  0.7546771E-02  0.1220645E+00
          1   -1    0    0  501    0  0.00000000000E+00  0.00000000000E+00  0.15550472530E+03  0.15550472530E+03  0.00000000000E+00 0. -1.
         -1   -1    0    0    0  501 -0.00000000000E+00 -0.00000000000E+00 -0.10721545735E+03  0.10721545735E+03  0.00000000000E+00 0.  1.
         23    2    1    2    0    0  0.47380897464E+02 -0.47306073639E+02  0.15188652807E+02  0.14261306329E+03  0.12499990640E+03 0.  0.
         23    2    1    2    0    0 -0.47380897464E+02  0.47306073639E+02  0.33100615146E+02  0.12010711937E+03  0.94059849838E+02 0.  0.
          5    1    3    3  502    0  0.49895433180E+02 -0.53052298022E+02 -0.42460255093E+02  0.84433783762E+02  0.47000000000E+01 0. -1.
         -5    1    3    3    0  502 -0.25145357166E+01  0.57462243835E+01  0.57648907901E+02  0.58179279530E+02  0.47000000000E+01 0. -1.
        -11    1    4    4    0    0 -0.47437354120E+01  0.66918367576E+02  0.28707263042E+02  0.72970390543E+02  0.00000000000E+00 0.  1.
         11    1    4    4    0    0 -0.42637162052E+02 -0.19612293937E+02  0.43933521037E+01  0.47136728822E+02  0.00000000000E+00 0. -1.
<mgrwt>
<rscale>  0 0.13469941E+03</rscale>
<asrwt>0</asrwt>
<pdfrwt beam="1">  1        1 0.23923804E-01 0.14180194E+03</pdfrwt>
<pdfrwt beam="2">  1       -1 0.16494686E-01 0.14180194E+03</pdfrwt>
<totfact> 0.53441151E+03</totfact>
</mgrwt>
</event>
<event>
 8    1  0.1020295E-005  0.1780383E+03  0.7546771E-02  0.1172346E+00
          2   -1    0    0  501    0  0.00000000000E+00  0.00000000000E+00  0.50022069232E+03  0.50022069232E+03  0.00000000000E+00 0. -1.
         -2   -1    0    0    0  501 -0.00000000000E+00 -0.00000000000E+00 -0.59738209503E+02  0.59738209503E+02  0.00000000000E+00 0.  1.
         23    2    1    2    0    0  0.12660772358E+03  0.50052634747E+01  0.22308423664E+03  0.28541938169E+03  0.12507229300E+03 0.  0.
         23    2    1    2    0    0 -0.12660772358E+03 -0.50052634747E+01  0.21739824618E+03  0.27453952013E+03  0.10979700516E+03 0.  0.
          5    1    3    3  502    0 -0.90337741935E+01 -0.31055429943E+02  0.19369313330E+02  0.37990908175E+02  0.47000000000E+01 0.  1.
         -5    1    3    3    0  502  0.13564149777E+03  0.36060693418E+02  0.20371492331E+03  0.24742847352E+03  0.47000000000E+01 0.  1.
        -11    1    4    4    0    0 -0.67627016103E+01 -0.16568702437E+02 -0.75285629207E+01  0.19414821482E+02  0.00000000000E+00 0.  1.
         11    1    4    4    0    0 -0.11984502196E+03  0.11563438963E+02  0.22492680910E+03  0.25512469865E+03  0.00000000000E+00 0. -1.
<mgrwt>
<rscale>  0 0.17538508E+03</rscale>
<asrwt>0</asrwt>
<pdfrwt beam="1">  1        2 0.76957027E-01 0.17803833E+03</pdfrwt>
<pdfrwt beam="2">  1       -2 0.91904941E-02 0.17803833E+03</pdfrwt>
<totfact> 0.46213052E+03</totfact>
</mgrwt>
</event>
<event>
 8    1  0.1020295E-005  0.1368110E+03  0.7546771E-02  0.1229406E+00
         -4   -1    0    0    0  501 -0.00000000000E+00  0.00000000000E+00  0.98286506968E+02  0.98286506968E+02  0.00000000000E+00 0.  1.
          4   -1    0    0  501    0  0.00000000000E+00 -0.00000000000E+00 -0.15635762303E+03  0.15635762303E+03  0.00000000000E+00 0. -1.
         23    2    1    2    0    0 -0.47702558378E+02 -0.28587816275E+02 -0.98378090904E+01  0.13716427804E+03  0.12499783745E+03 0.  0.
         23    2    1    2    0    0  0.47702558378E+02  0.28587816275E+02 -0.48233306968E+02  0.11747985196E+03  0.91554718065E+02 0.  0.
          5    1    3    3  502    0 -0.99268451900E+01  0.37434818956E+02 -0.39375603676E+02  0.55429559718E+02  0.47000000000E+01 0. -1.
         -5    1    3    3    0  502 -0.37775713188E+02 -0.66022635231E+02  0.29537794585E+02  0.81734718319E+02  0.47000000000E+01 0. -1.
        -11    1    4    4    0    0 -0.83804629601E+01  0.14105471578E+02  0.21360919628E+02  0.26934835719E+02  0.00000000000E+00 0.  1.
         11    1    4    4    0    0  0.56083021338E+02  0.14482344697E+02 -0.69594226596E+02  0.90545016240E+02  0.00000000000E+00 0. -1.
<mgrwt>
<rscale>  0 0.12869457E+03</rscale>
<asrwt>0</asrwt>
<pdfrwt beam="2">  1        4 0.24055019E-01 0.13681103E+03</pdfrwt>
<pdfrwt beam="1">  1       -4 0.15121001E-01 0.13681103E+03</pdfrwt>
<totfact> 0.98892460E+02</totfact>
</mgrwt>
</event>
<event>
 8    1  0.1020295E-005  0.1573673E+03  0.7546771E-02  0.1200094E+00
         -1   -1    0    0    0  501 -0.00000000000E+00  0.00000000000E+00  0.37954536980E+02  0.37954536980E+02  0.00000000000E+00 0.  1.
          1   -1    0    0  501    0  0.00000000000E+00 -0.00000000000E+00 -0.55428434971E+03  0.55428434971E+03  0.00000000000E+00 0. -1.
         23    2    1    2    0    0  0.19552214194E+02  0.93568080460E+02 -0.24923184872E+03  0.29475580833E+03  0.12500878916E+03 0.  0.
         23    2    1    2    0    0 -0.19552214194E+02 -0.93568080460E+02 -0.26709796402E+03  0.29748307837E+03  0.89540966999E+02 0.  0.
          5    1    3    3  502    0 -0.40631066770E+02  0.62964450441E+02 -0.19186596736E+03  0.20603408707E+03  0.47000000000E+01 0.  1.
         -5    1    3    3    0  502  0.60183280964E+02  0.30603630019E+02 -0.57365881356E+02  0.88721721251E+02  0.47000000000E+01 0.  1.
        -11    1    4    4    0    0  0.23996837831E+00 -0.10304932132E+03 -0.24736005451E+03  0.26796682029E+03  0.00000000000E+00 0. -1.
         11    1    4    4    0    0 -0.19792182572E+02  0.94812408577E+01 -0.19737909511E+02  0.29516258080E+02  0.00000000000E+00 0.  1.
<mgrwt>
<rscale>  0 0.15030876E+03</rscale>
<asrwt>0</asrwt>
<pdfrwt beam="2">  1        1 0.85274511E-01 0.15736732E+03</pdfrwt>
<pdfrwt beam="1">  1       -1 0.58391598E-02 0.15736732E+03</pdfrwt>
<totfact> 0.53132216E+03</totfact>
</mgrwt>
</event>
<event>
 8    1  0.1020295E-005  0.1496155E+03  0.7546771E-02  0.1210671E+00
          2   -1    0    0  501    0  0.00000000000E+00  0.00000000000E+00  0.13597566675E+03  0.13597566675E+03  0.00000000000E+00 0. -1.
         -2   -1    0    0    0  501 -0.00000000000E+00 -0.00000000000E+00 -0.14389269891E+03  0.14389269891E+03  0.00000000000E+00 0.  1.
         23    2    1    2    0    0  0.81411923832E+02  0.11523582795E+02 -0.38915034468E+02  0.15459354096E+03  0.12499635473E+03 0.  0.
         23    2    1    2    0    0 -0.81411923832E+02 -0.11523582795E+02  0.30998002304E+02  0.12527482470E+03  0.89287240152E+02 0.  0.
          5    1    3    3  502    0 -0.15860703759E+02 -0.10805624423E+02 -0.50292432535E+02  0.54034639013E+02  0.47000000000E+01 0. -1.
         -5    1    3    3    0  502  0.97272627591E+02  0.22329207218E+02  0.11377398068E+02  0.10055890194E+03  0.47000000000E+01 0. -1.
        -11    1    4    4    0    0 -0.16607953870E+02 -0.81930654984E+01 -0.30623915135E+02  0.35787911817E+02  0.00000000000E+00 0.  1.
         11    1    4    4    0    0 -0.64803969962E+02 -0.33305172966E+01  0.61621917439E+02  0.89486912882E+02  0.00000000000E+00 0. -1.
<mgrwt>
<rscale>  0 0.14199347E+03</rscale>
<asrwt>0</asrwt>
<pdfrwt beam="1">  1        2 0.20919333E-01 0.14961545E+03</pdfrwt>
<pdfrwt beam="2">  1       -2 0.22137338E-01 0.14961545E+03</pdfrwt>
<totfact> 0.44683417E+03</totfact>
</mgrwt>
</event>
<event>
 8    1  0.1020295E-005  0.1740335E+03  0.7546771E-02  0.1179868E+00
         -4   -1    0    0    0  501 -0.00000000000E+00  0.00000000000E+00  0.33368526362E+03  0.33368526362E+03  0.00000000000E+00 0.  1.
          4   -1    0    0  501    0  0.00000000000E+00 -0.00000000000E+00 -0.80466984222E+02  0.80466984222E+02  0.00000000000E+00 0. -1.
         23    2    1    2    0    0 -0.35751985317E+02  0.11569279026E+03  0.15964820876E+03  0.23616772486E+03  0.12499847013E+03 0.  0.
         23    2    1    2    0    0  0.35751985317E+02 -0.11569279026E+03  0.93570070641E+02  0.17798452298E+03  0.90885126003E+02 0.  0.
          5    1    3    3  502    0  0.12952637370E+02  0.12302277596E+03  0.12375848351E+03  0.17504464134E+03  0.47000000000E+01 0. -1.
         -5    1    3    3    0  502 -0.48704622687E+02 -0.73299857006E+01  0.35889725253E+02  0.61123083530E+02  0.47000000000E+01 0. -1.
        -11    1    4    4    0    0  0.65695487273E+02 -0.64806994836E+02  0.59879391585E+02  0.11000629602E+03  0.00000000000E+00 0.  1.
         11    1    4    4    0    0 -0.29943501956E+02 -0.50885795425E+02  0.33690679056E+02  0.67978226960E+02  0.00000000000E+00 0. -1.
<mgrwt>
<rscale>  0 0.16807720E+03</rscale>
<asrwt>0</asrwt>
<pdfrwt beam="2">  1        4 0.12379536E-01 0.17403346E+03</pdfrwt>
<pdfrwt beam="1">  1       -4 0.51336194E-01 0.17403346E+03</pdfrwt>
<totfact> 0.33646399E+02</totfact>
</mgrwt>
</event>
<event>
 8    1  0.1020295E-005  0.1893443E+03  0.7546771E-02  0.1163936E+00
          2   -1    0    0  501    0  0.00000000000E+00  0.00000000000E+00  0.84297209321E+03  0.84297209321E+03  0.00000000000E+00 0. -1.
         -2   -1    0    0    0  501 -0.00000000000E+00 -0.00000000000E+00 -0.38804424036E+02  0.38804424036E+02  0.00000000000E+00 0.  1.
         23    2    1    2    0    0  0.14216428966E+03 -0.88555444174E+01  0.36487313825E+03  0.41107624331E+03  0.12474840629E+03 0.  0.
         23    2    1    2    0    0 -0.14216428966E+03  0.88555444174E+01  0.43929453092E+03  0.47070027394E+03  0.91049201364E+02 0.  0.
          5    1    3    3  502    0  0.80989507583E+02 -0.17367916113E+02  0.32941699507E+03  0.33970368189E+03  0.47000000000E+01 0.  1.
         -5    1    3    3    0  502  0.61174782073E+02  0.85123716960E+01  0.35456143180E+02  0.71372561413E+02  0.47000000000E+01 0.  1.
        -11    1    4    4    0    0 -0.81951732273E+02  0.48598373364E+02  0.21712081072E+03  0.23710616771E+03  0.00000000000E+00 0.  1.
         11    1    4    4    0    0 -0.60212557383E+02 -0.39742828947E+02  0.22217372020E+03  0.23359410623E+03  0.00000000000E+00 0. -1.
<mgrwt>
<rscale>  0 0.18405398E+03</rscale>
<asrwt>0</asrwt>
<pdfrwt beam="1">  1        2 0.12968800E+00 0.18934432E+03</pdfrwt>
<pdfrwt beam="2">  1       -2 0.59699120E-02 0.18934432E+03</pdfrwt>
<totfact> 0.48729693E+03</totfact>
</mgrwt>
</event>
<event>
 8    1  0.1020295E-005  0.1400143E+03  0.7546771E-02  0.1224547E+00
         -4   -1    0    0    0  501 -0.00000000000E+00  0.00000000000E+00  0.68799046201E+03  0.68799046201E+03  0.00000000000E+00 0.  1.
          4   -1    0    0  501    0  0.00000000000E+00 -0.00000000000E+00 -0.23970560685E+02  0.23970560685E+02  0.00000000000E+00 0. -1.
         23    2    1    2    0    0  0.47438212392E+02 -0.41588787915E+02  0.29142861210E+03  0.32331818170E+03  0.12499599750E+03 0.  0.
         23    2    1    2    0    0 -0.47438212392E+02  0.41588787915E+02  0.37259128923E+03  0.38864284100E+03  0.90768814994E+02 0.  0.
          5    1    3    3  502    0  0.50286370131E+02  0.21106550401E+02  0.51091868200E+02  0.74877730247E+02  0.47000000000E+01 0.  1.
         -5    1    3    3    0  502 -0.28481577393E+01 -0.62695338317E+02  0.24033674390E+03  0.24844045145E+03  0.47000000000E+01 0.  1.
        -11    1    4    4    0    0  0.72627892690E+01  0.12285685585E+02  0.39408588808E+01  0.14805963224E+02  0.00000000000E+00 0. -1.
         11    1    4    4    0    0 -0.54701001661E+02  0.29303102330E+02  0.36865043035E+03  0.37383687777E+03  0.00000000000E+00 0.  1.
<mgrwt>
<rscale>  0 0.13198019E+03</rscale>
<asrwt>0</asrwt>
<pdfrwt beam="2">  1        4 0.36877791E-02 0.14001432E+03</pdfrwt>
<pdfrwt beam="1">  1       -4 0.10584467E+00 0.14001432E+03</pdfrwt>
<totfact> 0.48733494E+02</totfact>
</mgrwt>
</event>
<event>
 8    1  0.1020295E-005  0.1640120E+03  0.7546771E-02  0.1191482E+00
         -1   -1    0    0    0  501 -0.00000000000E+00  0.00000000000E+00  0.11569979352E+03  0.11569979352E+03  0.00000000000E+00 0.  1.
          1   -1    0    0  501    0  0.00000000000E+00 -0.00000000000E+00 -0.21661662959E+03  0.21661662959E+03  0.00000000000E+00 0. -1.
         23    2    1    2    0    0 -0.56561386117E+02 -0.89868803152E+02 -0.73157575748E+01  0.16417506909E+03  0.12499736326E+03 0.  0.
         23    2    1    2    0    0  0.56561386117E+02  0.89868803152E+02 -0.93601078491E+02  0.16814135403E+03  0.90745583142E+02 0.  0.
          5    1    3    3  502    0  0.27087127134E+01 -0.49378255184E+01 -0.51107787749E+02  0.51631533137E+02  0.47000000000E+01 0.  1.
         -5    1    3    3    0  502 -0.59270098831E+02 -0.84930977633E+02  0.43792030175E+02  0.11254353595E+03  0.47000000000E+01 0.  1.
        -11    1    4    4    0    0 -0.13843943078E+02  0.32016562944E+02 -0.63006094278E+02  0.72017240844E+02  0.00000000000E+00 0. -1.
         11    1    4    4    0    0  0.70405329195E+02  0.57852240207E+02 -0.30594984214E+02  0.96124113182E+02  0.00000000000E+00 0.  1.
<mgrwt>
<rscale>  0 0.15755778E+03</rscale>
<asrwt>0</asrwt>
<pdfrwt beam="2">  1        1 0.33325635E-01 0.16401199E+03</pdfrwt>
<pdfrwt beam="1">  1       -1 0.17799968E-01 0.16401199E+03</pdfrwt>
<totfact> 0.31512520E+03</totfact>
</mgrwt>
</event>
<event>
 8    1  0.1020295E-005  0.2027592E+03  0.7546771E-02  0.1151549E+00
          2   -1    0    0  501    0  0.00000000000E+00  0.00000000000E+00  0.86000742043E+02  0.86000742043E+02  0.00000000000E+00 0. -1.
         -2   -1    0    0    0  501 -0.00000000000E+00 -0.00000000000E+00 -0.52696202039E+03  0.52696202039E+03  0.00000000000E+00 0.  1.
         23    2    1    2    0    0  0.15231481830E+03 -0.47812473384E+02 -0.35753375434E+03  0.41102517742E+03  0.12500189796E+03 0.  0.
         23    2    1    2    0    0 -0.15231481830E+03  0.47812473384E+02 -0.83427524003E+02  0.20193758502E+03  0.91284171666E+02 0.  0.
          5    1    3    3  502    0  0.61365083920E+02 -0.83138465725E+02 -0.15774974650E+03  0.18863920729E+03  0.47000000000E+01 0. -1.
         -5    1    3    3    0  502  0.90949734376E+02  0.35325992341E+02 -0.19978400784E+03  0.22238597012E+03  0.47000000000E+01 0. -1.
        -11    1    4    4    0    0 -0.11215778021E+03  0.68260004669E+02 -0.85744470635E+02  0.15681489133E+03  0.00000000000E+00 0. -1.
         11    1    4    4    0    0 -0.40157038090E+02 -0.20447531284E+02  0.23169466318E+01  0.45122693686E+02  0.00000000000E+00 0.  1.
<mgrwt>
<rscale>  0 0.19787003E+03</rscale>
<asrwt>0</asrwt>
<pdfrwt beam="1">  1        2 0.13230883E-01 0.20275924E+03</pdfrwt>
<pdfrwt beam="2">  1       -2 0.81071080E-01 0.20275924E+03</pdfrwt>
<totfact> 0.62405803E+02</totfact>
</mgrwt>
</event>
<event>
 8    1  0.1020295E-005  0.1827850E+03  0.7546771E-02  0.1170528E+00
          1   -1    0    0  501    0  0.00000000000E+00  0.00000000000E+00  0.74730382849E+03  0.74730382849E+03  0.00000000000E+00 0. -1.
         -1   -1    0    0    0  501 -0.00000000000E+00 -0.00000000000E+00 -0.41587552323E+02  0.41587552323E+02  0.00000000000E+00 0.  1.
         23    2    1    2    0    0  0.35989547797E+02 -0.12841542020E+03  0.28872430260E+03  0.34171929354E+03  0.12499833987E+03 0.  0.
         23    2    1    2    0    0 -0.35989547797E+02  0.12841542020E+03  0.41699197356E+03  0.44717208727E+03  0.91075803147E+02 0.  0.
          5    1    3    3  502    0  0.30695106376E+02 -0.12514881394E+01  0.60269403818E+01  0.31657065378E+02  0.47000000000E+01 0.  1.
         -5    1    3    3    0  502  0.52944414208E+01 -0.12716393207E+03  0.28269736222E+03  0.31006222816E+03  0.47000000000E+01 0.  1.
        -11    1    4    4    0    0 -0.48187421448E+02  0.11588459478E+03  0.40922428504E+03  0.42803712731E+03  0.00000000000E+00 0. -1.
         11    1    4    4    0    0  0.12197873652E+02  0.12530825429E+02  0.77676885268E+01  0.19134959959E+02  0.00000000000E+00 0.  1.
<mgrwt>
<rscale>  0 0.17721278E+03</rscale>
<asrwt>0</asrwt>
<pdfrwt beam="1">  1        1 0.11496981E+00 0.18278499E+03</pdfrwt>
<pdfrwt beam="2">  1       -1 0.63980855E-02 0.18278499E+03</pdfrwt>
<totfact> 0.30625594E+03</totfact>
</mgrwt>
</event>
<event>
 8    1  0.1020295E-005  0.1332475E+03  0.7546771E-02  0.1245704E+00
          1   -1    0    0  501    0  0.00000000000E+00  0.00000000000E+00  0.63016794820E+02  0.63016794820E+02  0.00000000000E+00 0. -1.
         -1   -1    0    0    0  501 -0.00000000000E+00 -0.00000000000E+00 -0.20335282426E+03  0.20335282426E+03  0.00000000000E+00 0.  1.
         23    2    1    2    0    0 -0.35947266914E+02 -0.28940402828E+02 -0.12317284475E+03  0.18145645356E+03  0.12500056775E+03 0.  0.
         23    2    1    2    0    0  0.35947266914E+02  0.28940402828E+02 -0.17163184688E+02  0.84913165524E+02  0.69180328535E+02 0.  0.
          5    1    3    3  502    0 -0.40082882789E+02  0.37863616686E+02 -0.20932236976E+02  0.59165357314E+02  0.47000000000E+01 0. -1.
         -5    1    3    3    0  502  0.41356158754E+01 -0.66804019514E+02 -0.10224060777E+03  0.12229109624E+03  0.47000000000E+01 0. -1.
        -11    1    4    4    0    0  0.41844819932E+02 -0.10546389926E+02 -0.70269874565E+01  0.43721777736E+02  0.00000000000E+00 0. -1.
         11    1    4    4    0    0 -0.58975530185E+01  0.39486792754E+02 -0.10136197231E+02  0.41191387788E+02  0.00000000000E+00 0.  1.
<mgrwt>
<rscale>  0 0.11843323E+03</rscale>
<asrwt>0</asrwt>
<pdfrwt beam="1">  1        1 0.96948915E-02 0.13324749E+03</pdfrwt>
<pdfrwt beam="2">  1       -1 0.31285050E-01 0.13324749E+03</pdfrwt>
<totfact> 0.60347684E+03</totfact>
</mgrwt>
</event>
<event>
 8    1  0.1020295E-005  0.1533657E+03  0.7546771E-02  0.1205037E+00
         -1   -1    0    0    0  501 -0.00000000000E+00  0.00000000000E+00  0.39941797561E+03  0.39941797561E+03  0.00000000000E+00 0.  1.
          1   -1    0    0  501    0  0.00000000000E+00 -0.00000000000E+00 -0.87051924484E+02  0.87051924484E+02  0.00000000000E+00 0. -1.
         23    2    1    2    0    0 -0.35537688456E+02 -0.81387287545E+02  0.32432032583E+03  0.35875440845E+03  0.12503693041E+03 0.  0.
         23    2    1    2    0    0  0.35537688456E+02  0.81387287545E+02 -0.11954274697E+02  0.12771549164E+03  0.91002880436E+02 0.  0.
          5    1    3    3  502    0 -0.43937850898E+01 -0.93296657064E+02  0.12235541710E+03  0.15400165473E+03  0.47000000000E+01 0.  1.
         -5    1    3    3    0  502 -0.31143903366E+02  0.11909369518E+02  0.20196490872E+03  0.20475275372E+03  0.47000000000E+01 0.  1.
        -11    1    4    4    0    0  0.14614900229E+02  0.79192675798E+02  0.25743670424E+02  0.84544732394E+02  0.00000000000E+00 0.  1.
         11    1    4    4    0    0  0.20922788227E+02  0.21946117479E+01 -0.37697945121E+02  0.43170759251E+02  0.00000000000E+00 0. -1.
<mgrwt>
<rscale>  0 0.14634553E+03</rscale>
<asrwt>0</asrwt>
<pdfrwt beam="2">  1        1 0.13392604E-01 0.15336575E+03</pdfrwt>
<pdfrwt beam="1">  1       -1 0.61448918E-01 0.15336575E+03</pdfrwt>
<totfact> 0.11861046E+03</totfact>
</mgrwt>
</event>
<event>
 8    1  0.1020295E-005  0.1493552E+03  0.7546771E-02  0.1210562E+00
          1   -1    0    0  501    0  0.00000000000E+00  0.00000000000E+00  0.34204986769E+03  0.34204986769E+03  0.00000000000E+00 0. -1.
         -1   -1    0    0    0  501 -0.00000000000E+00 -0.00000000000E+00 -0.54040002202E+02  0.54040002202E+02  0.00000000000E+00 0.  1.
         23    2    1    2    0    0 -0.45953996708E+02 -0.67612758218E+02  0.14973658106E+03  0.21149003220E+03  0.12499494040E+03 0.  0.
         23    2    1    2    0    0  0.45953996708E+02  0.67612758218E+02  0.13827328442E+03  0.18459983769E+03  0.90963421235E+02 0.  0.
          5    1    3    3  502    0 -0.16932283859E+02  0.29677691883E+02  0.53248180367E+01  0.34898586208E+02  0.47000000000E+01 0. -1.
         -5    1    3    3    0  502 -0.29021712849E+02 -0.97290450101E+02  0.14441176302E+03  0.17659144599E+03  0.47000000000E+01 0. -1.
        -11    1    4    4    0    0  0.23322512354E+02  0.87681184811E+02  0.11472747517E+03  0.14626798457E+03  0.00000000000E+00 0.  1.
         11    1    4    4    0    0  0.22631484353E+02 -0.20068426593E+02  0.23545809254E+02  0.38331853117E+02  0.00000000000E+00 0. -1.
<mgrwt>
<rscale>  0 0.14207678E+03</rscale>
<asrwt>0</asrwt>
<pdfrwt beam="1">  1        1 0.52623055E-01 0.14935525E+03</pdfrwt>
<pdfrwt beam="2">  1       -1 0.83138467E-02 0.14935525E+03</pdfrwt>
<totfact> 0.57901752E+03</totfact>
</mgrwt>
</event>
<event>
 8    1  0.1020295E-005  0.1267014E+03  0.7546771E-02  0.1265005E+00
          2   -1    0    0  501    0  0.00000000000E+00  0.00000000000E+00  0.45986991192E+03  0.45986991192E+03  0.00000000000E+00 0. -1.
         -2   -1    0    0    0  501 -0.00000000000E+00 -0.00000000000E+00 -0.20359078865E+02  0.20359078865E+02  0.00000000000E+00 0.  1.
         23    2    1    2    0    0 -0.20746494742E+02 -0.44577671939E+00  0.26743619419E+03  0.29593132962E+03  0.12499047213E+03 0.  0.
         23    2    1    2    0    0  0.20746494742E+02  0.44577671939E+00  0.17207463886E+03  0.18429766117E+03  0.62652460532E+02 0.  0.
          5    1    3    3  502    0 -0.25055385763E+02 -0.53723408512E+02  0.72616858627E+02  0.93857738812E+02  0.47000000000E+01 0.  1.
         -5    1    3    3    0  502  0.43088910216E+01  0.53277631793E+02  0.19481933557E+03  0.20207359081E+03  0.47000000000E+01 0.  1.
        -11    1    4    4    0    0  0.94189408680E+01  0.23819801059E+02  0.28196852448E+02  0.38094118411E+02  0.00000000000E+00 0.  1.
         11    1    4    4    0    0  0.11327553874E+02 -0.23374024339E+02  0.14387778641E+03  0.14620354275E+03  0.00000000000E+00 0. -1.
<mgrwt>
<rscale>  0 0.10763940E+03</rscale>
<asrwt>0</asrwt>
<pdfrwt beam="1">  1        2 0.70749209E-01 0.12670136E+03</pdfrwt>
<pdfrwt beam="2">  1       -2 0.31321663E-02 0.12670136E+03</pdfrwt>
<totfact> 0.25247390E+04</totfact>
</mgrwt>
</event>
<event>
 8    1  0.1020295E-005  0.1371226E+03  0.7546771E-02  0.1227892E+00
          2   -1    0    0  501    0  0.00000000000E+00  0.00000000000E+00  0.50169448921E+03  0.50169448921E+03  0.00000000000E+00 0. -1.
         -2   -1    0    0    0  501 -0.00000000000E+00 -0.00000000000E+00 -0.33658952167E+02  0.33658952167E+02  0.00000000000E+00 0.  1.
         23    2    1    2    0    0  0.26009975263E+02  0.50006204361E+02  0.17429068526E+03  0.22176530481E+03  0.12500187263E+03 0.  0.
         23    2    1    2    0    0 -0.26009975263E+02 -0.50006204361E+02  0.29374485178E+03  0.31358813656E+03  0.94203726886E+02 0.  0.
          5    1    3    3  502    0  0.73866916846E+02  0.30837004718E+02  0.13403557239E+03  0.15618856210E+03  0.47000000000E+01 0.  1.
         -5    1    3    3    0  502 -0.47856941583E+02  0.19169199644E+02  0.40255112872E+02  0.65576742714E+02  0.47000000000E+01 0.  1.
        -11    1    4    4    0    0  0.46289854900E+01 -0.60854592620E+02  0.25865614303E+03  0.26575874261E+03  0.00000000000E+00 0. -1.
         11    1    4    4    0    0 -0.30638960753E+02  0.10848388259E+02  0.35088708752E+02  0.47829393951E+02  0.00000000000E+00 0.  1.
<mgrwt>
<rscale>  0 0.12970653E+03</rscale>
<asrwt>0</asrwt>
<pdfrwt beam="1">  1        2 0.77183762E-01 0.13712260E+03</pdfrwt>
<pdfrwt beam="2">  1       -2 0.51783007E-02 0.13712260E+03</pdfrwt>
<totfact> 0.10950341E+04</totfact>
</mgrwt>
</event>
<event>
 8    1  0.1020295E-005  0.1381666E+03  0.7546771E-02  0.1228707E+00
          2   -1    0    0  501    0  0.00000000000E+00  0.00000000000E+00  0.24297891651E+03  0.24297891651E+03  0.00000000000E+00 0.  1.
         -2   -1    0    0    0  501 -0.00000000000E+00 -0.00000000000E+00 -0.61097599866E+02  0.61097599866E+02  0.00000000000E+00 0. -1.
         23    2    1    2    0    0  0.14299249789E+02 -0.61646021395E+02  0.10401062795E+03  0.17293995533E+03  0.12282229816E+03 0.  0.
         23    2    1    2    0    0 -0.14299249789E+02  0.61646021395E+02  0.77870688689E+02  0.13113656104E+03  0.84428981911E+02 0.  0.
          5    1    3    3  502    0  0.91222267665E+00 -0.83324967371E+02  0.21118084250E+02  0.86092658340E+02  0.47000000000E+01 0.  1.
         -5    1    3    3    0  502  0.13387027112E+02  0.21678945976E+02  0.82892543705E+02  0.86847296995E+02  0.47000000000E+01 0.  1.
        -11    1    4    4    0    0  0.53262408303E+01  0.41295868294E+02  0.90918322407E+02  0.99999294641E+02  0.00000000000E+00 0. -1.
         11    1    4    4    0    0 -0.19625490619E+02  0.20350153101E+02 -0.13047633717E+02  0.31137266401E+02  0.00000000000E+00 0.  1.
<mgrwt>
<rscale>  0 0.12916019E+03</rscale>
<asrwt>0</asrwt>
<pdfrwt beam="1">  1        2 0.37381371E-01 0.13816663E+03</pdfrwt>
<pdfrwt beam="2">  1       -2 0.93996309E-02 0.13816663E+03</pdfrwt>
<totfact> 0.95413678E+03</totfact>
</mgrwt>
</event>
<event>
 8    1  0.1020295E-005  0.1571058E+03  0.7546771E-02  0.1200069E+00
         -1   -1    0    0    0  501 -0.00000000000E+00  0.00000000000E+00  0.18238027123E+02  0.18238027123E+02  0.00000000000E+00 0.  1.
          1   -1    0    0  501    0  0.00000000000E+00 -0.00000000000E+00 -0.11598843293E+04  0.11598843293E+04  0.00000000000E+00 0. -1.
         23    2    1    2    0    0 -0.95152716002E+02  0.23944862177E+01 -0.55029481496E+03  0.57228192696E+03  0.12498979009E+03 0.  0.
         23    2    1    2    0    0  0.95152716002E+02 -0.23944862177E+01 -0.59135148724E+03  0.60584042948E+03  0.91028960291E+02 0.  0.
          5    1    3    3  502    0  0.16367890381E+02 -0.35364610229E+02 -0.13346028041E+03  0.13911254415E+03  0.47000000000E+01 0.  1.
         -5    1    3    3    0  502 -0.11152060638E+03  0.37759096446E+02 -0.41683453455E+03  0.43316938281E+03  0.47000000000E+01 0.  1.
        -11    1    4    4    0    0  0.36000228622E+02 -0.43812764941E+02 -0.32315796682E+03  0.32809548359E+03  0.00000000000E+00 0. -1.
         11    1    4    4    0    0  0.59152487379E+02  0.41418278723E+02 -0.26819352042E+03  0.27774494590E+03  0.00000000000E+00 0.  1.
<mgrwt>
<rscale>  0 0.15032948E+03</rscale>
<asrwt>0</asrwt>
<pdfrwt beam="2">  1        1 0.17844382E+00 0.15710576E+03</pdfrwt>
<pdfrwt beam="1">  1       -1 0.28058491E-02 0.15710576E+03</pdfrwt>
<totfact> 0.50082851E+03</totfact>
</mgrwt>
</event>
<event>
 8    1  0.1020295E-005  0.1447514E+03  0.7546771E-02  0.1216759E+00
          2   -1    0    0  501    0  0.00000000000E+00  0.00000000000E+00  0.13792866978E+03  0.13792866978E+03  0.00000000000E+00 0.  1.
         -2   -1    0    0    0  501 -0.00000000000E+00 -0.00000000000E+00 -0.12523517081E+03  0.12523517081E+03  0.00000000000E+00 0. -1.
         23    2    1    2    0    0  0.71345646442E+02  0.15565332724E+02  0.56668377163E+00  0.14475250815E+03  0.12498194524E+03 0.  0.
         23    2    1    2    0    0 -0.71345646442E+02 -0.15565332724E+02  0.12126815191E+02  0.11841133244E+03  0.92421334954E+02 0.  0.
          5    1    3    3  502    0 -0.81129281092E+01  0.54173304424E+02  0.96561842616E+01  0.55820232974E+02  0.47000000000E+01 0. -1.
         -5    1    3    3    0  502  0.79458574552E+02 -0.38607971701E+02 -0.90895004900E+01  0.88932275175E+02  0.47000000000E+01 0. -1.
        -11    1    4    4    0    0 -0.29918390315E+02 -0.25645416687E+02 -0.36519050391E+02  0.53725585316E+02  0.00000000000E+00 0. -1.
         11    1    4    4    0    0 -0.41427256127E+02  0.10080083963E+02  0.48645865582E+02  0.64685747125E+02  0.00000000000E+00 0.  1.
<mgrwt>
<rscale>  0 0.13748110E+03</rscale>
<asrwt>0</asrwt>
<pdfrwt beam="1">  1        2 0.21219795E-01 0.14475140E+03</pdfrwt>
<pdfrwt beam="2">  1       -2 0.19266949E-01 0.14475140E+03</pdfrwt>
<totfact> 0.55587358E+03</totfact>
</mgrwt>
</event>
<event>
 8    1  0.1020295E-005  0.1223603E+03  0.7546771E-02  0.1251763E+00
         -2   -1    0    0    0  501 -0.00000000000E+00  0.00000000000E+00  0.74398438366E+02  0.74398438366E+02  0.00000000000E+00 0.  1.
          2   -1    0    0  501    0  0.00000000000E+00 -0.00000000000E+00 -0.17281670962E+03  0.17281670962E+03  0.00000000000E+00 0. -1.
         23    2    1    2    0    0 -0.86779127841E+01 -0.27568290388E+02 -0.20104262471E+02  0.12400090430E+03  0.11889796505E+03 0.  0.
         23    2    1    2    0    0  0.86779127841E+01  0.27568290388E+02 -0.78314008782E+02  0.12321424368E+03  0.90627529317E+02 0.  0.
          5    1    3    3  502    0  0.25569028762E+02  0.37514373591E+02 -0.21140779508E+02  0.50300358010E+02  0.47000000000E+01 0. -1.
         -5    1    3    3    0  502 -0.34246941546E+02 -0.65082663979E+02  0.10365170372E+01  0.73700546290E+02  0.47000000000E+01 0.  1.
        -11    1    4    4    0    0 -0.37162655265E+01 -0.23165259156E+02  0.58348894234E+01  0.24176141045E+02  0.00000000000E+00 0.  1.
         11    1    4    4    0    0  0.12394178311E+02  0.50733549544E+02 -0.84148898206E+02  0.99038102640E+02  0.00000000000E+00 0. -1.
<mgrwt>
<rscale>  0 0.11489562E+03</rscale>
<asrwt>0</asrwt>
<pdfrwt beam="2">  1        2 0.26587186E-01 0.12236030E+03</pdfrwt>
<pdfrwt beam="1">  1       -2 0.11445914E-01 0.12236030E+03</pdfrwt>
<totfact> 0.10007998E+04</totfact>
</mgrwt>
</event>
<event>
 8    1  0.1020295E-005  0.1281398E+03  0.7546771E-02  0.1245106E+00
          3   -1    0    0  501    0  0.00000000000E+00  0.00000000000E+00  0.21377677027E+03  0.21377677027E+03  0.00000000000E+00 0. -1.
         -3   -1    0    0    0  501 -0.00000000000E+00 -0.00000000000E+00 -0.59831971214E+02  0.59831971214E+02  0.00000000000E+00 0.  1.
         23    2    1    2    0    0  0.45535106033E+01  0.27808240662E+02  0.64787500284E+02  0.14358698147E+03  0.12500307335E+03 0.  0.
         23    2    1    2    0    0 -0.45535106033E+01 -0.27808240662E+02  0.89157298772E+02  0.13002176001E+03  0.90347116418E+02 0.  0.
          5    1    3    3  502    0 -0.13237457324E+02  0.68889369526E+02  0.68831937766E+02  0.98391570608E+02  0.47000000000E+01 0.  1.
         -5    1    3    3    0  502  0.17790967927E+02 -0.41081128864E+02 -0.40444374825E+01  0.45195410863E+02  0.47000000000E+01 0.  1.
        -11    1    4    4    0    0  0.35980478071E+02 -0.38473085984E+02  0.47549232006E+02  0.70962684643E+02  0.00000000000E+00 0. -1.
         11    1    4    4    0    0 -0.40533988674E+02  0.10664845322E+02  0.41608066766E+02  0.59059075371E+02  0.00000000000E+00 0.  1.
<mgrwt>
<rscale>  0 0.11879032E+03</rscale>
<asrwt>0</asrwt>
<pdfrwt beam="1">  1        3 0.32888734E-01 0.12813977E+03</pdfrwt>
<pdfrwt beam="2">  1       -3 0.92049187E-02 0.12813977E+03</pdfrwt>
<totfact> 0.17385965E+03</totfact>
</mgrwt>
</event>
<event>
 8    1  0.1020295E-005  0.1260326E+03  0.7546771E-02  0.1249122E+00
          1   -1    0    0  501    0  0.00000000000E+00  0.00000000000E+00  0.33878595679E+03  0.33878595679E+03  0.00000000000E+00 0. -1.
         -1   -1    0    0    0  501 -0.00000000000E+00 -0.00000000000E+00 -0.35216828852E+02  0.35216828852E+02  0.00000000000E+00 0.  1.
         23    2    1    2    0    0 -0.21961947849E+00  0.16025100953E+02  0.16114610152E+03  0.20457828885E+03  0.12500943220E+03 0.  0.
         23    2    1    2    0    0  0.21961947849E+00 -0.16025100953E+02  0.14242302641E+03  0.16942449679E+03  0.90352031332E+02 0.  0.
          5    1    3    3  502    0  0.40387023832E+02  0.22688739840E+02  0.96872686119E+01  0.47558635206E+02  0.47000000000E+01 0.  1.
         -5    1    3    3    0  502 -0.40606643310E+02 -0.66636388872E+01  0.15145883291E+03  0.15701965364E+03  0.47000000000E+01 0.  1.
        -11    1    4    4    0    0 -0.27003978515E+02  0.16330148442E+02  0.14566711391E+02  0.34757411937E+02  0.00000000000E+00 0.  1.
         11    1    4    4    0    0  0.27223597994E+02 -0.32355249395E+02  0.12785631502E+03  0.13466708485E+03  0.00000000000E+00 0. -1.
<mgrwt>
<rscale>  0 0.11642020E+03</rscale>
<asrwt>0</asrwt>
<pdfrwt beam="1">  1        1 0.52120914E-01 0.12603258E+03</pdfrwt>
<pdfrwt beam="2">  1       -1 0.54179739E-02 0.12603258E+03</pdfrwt>
<totfact> 0.10997417E+04</totfact>
</mgrwt>
</event>
<event>
 8    1  0.1020295E-005  0.2725510E+03  0.7546771E-02  0.1101931E+00
         -1   -1    0    0    0  501 -0.00000000000E+00  0.00000000000E+00  0.37616832128E+03  0.37616832128E+03  0.00000000000E+00 0.  1.
          1   -1    0    0  501    0  0.00000000000E+00 -0.00000000000E+00 -0.19828926736E+03  0.19828926736E+03  0.00000000000E+00 0. -1.
         23    2    1    2    0    0  0.13926001425E+03  0.19815357846E+03  0.15928618367E+03  0.31568356297E+03  0.12500332554E+03 0.  0.
         23    2    1    2    0    0 -0.13926001425E+03 -0.19815357846E+03  0.18592870248E+02  0.25877402567E+03  0.89219444705E+02 0.  0.
          5    1    3    3  502    0  0.10460141015E+03  0.62458671720E+02  0.11782029901E+03  0.16954720150E+03  0.47000000000E+01 0.  1.
         -5    1    3    3    0  502  0.34658604102E+02  0.13569490674E+03  0.41465884660E+02  0.14613636147E+03  0.47000000000E+01 0.  1.
        -11    1    4    4    0    0 -0.79783972588E+01 -0.29622037855E+02 -0.26381715852E+02  0.40461276312E+02  0.00000000000E+00 0.  1.
         11    1    4    4    0    0 -0.13128161699E+03 -0.16853154061E+03  0.44974586101E+02  0.21831274936E+03  0.00000000000E+00 0. -1.
<mgrwt>
<rscale>  0 0.26886544E+03</rscale>
<asrwt>0</asrwt>
<pdfrwt beam="2">  1        1 0.30506041E-01 0.27255096E+03</pdfrwt>
<pdfrwt beam="1">  1       -1 0.57872049E-01 0.27255096E+03</pdfrwt>
<totfact> 0.46390123E+02</totfact>
</mgrwt>
</event>
<event>
 7    1  0.1020295E-005  0.1529959E+03  0.7546771E-02  0.1212417E+00
         -1   -1    0    0    0  501 -0.00000000000E+00  0.00000000000E+00  0.18700572828E+04  0.18700572828E+04  0.00000000000E+00 0.  1.
          1   -1    0    0  501    0  0.00000000000E+00 -0.00000000000E+00 -0.14202120647E+02  0.14202120647E+02  0.00000000000E+00 0. -1.
         23    2    1    2    0    0  0.59320431949E+02  0.13378766861E+02  0.27397910259E+03  0.29500184075E+03  0.90904523215E+02 0.  0.
          5    1    1    2  502    0 -0.35830579582E+02 -0.20156013942E+02  0.11581188821E+03  0.12298202626E+03  0.47000000000E+01 0. -1.
         -5    1    1    2    0  502 -0.23489852367E+02  0.67772470811E+01  0.14660641713E+04  0.14662755364E+04  0.47000000000E+01 0.  1.
        -11    1    3    3    0    0  0.31403697088E+01 -0.31654475679E+02  0.13237927066E+03  0.13614749007E+03  0.00000000000E+00 0.  1.
         11    1    3    3    0    0  0.56180062240E+02  0.45033242540E+02  0.14159983193E+03  0.15885435068E+03  0.00000000000E+00 0. -1.
<mgrwt>
<rscale>  0 0.14068025E+03</rscale>
<asrwt>0</asrwt>
<pdfrwt beam="2">  1        1 0.21849431E-02 0.15299586E+03</pdfrwt>
<pdfrwt beam="1">  1       -1 0.28770093E+00 0.15299586E+03</pdfrwt>
<totfact> 0.24710026E+02</totfact>
</mgrwt>
</event>
<event>
 8    1  0.1020295E-005  0.1386798E+03  0.7546771E-02  0.1226389E+00
          2   -1    0    0  501    0  0.00000000000E+00  0.00000000000E+00  0.21885135469E+02  0.21885135469E+02  0.00000000000E+00 0. -1.
         -2   -1    0    0    0  501 -0.00000000000E+00 -0.00000000000E+00 -0.70550592182E+03  0.70550592182E+03  0.00000000000E+00 0.  1.
         23    2    1    2    0    0 -0.44891088240E+02  0.39914190821E+02 -0.40113389212E+03  0.42442960384E+03  0.12499494699E+03 0.  0.
         23    2    1    2    0    0  0.44891088240E+02 -0.39914190821E+02 -0.28248689424E+03  0.30296145346E+03  0.91533843101E+02 0.  0.
          5    1    3    3  502    0 -0.58398386636E+02  0.16006821036E+02 -0.72328916058E+02  0.94446556207E+02  0.47000000000E+01 0. -1.
         -5    1    3    3    0  502  0.13507298395E+02  0.23907369786E+02 -0.32880497606E+03  0.32998304763E+03  0.47000000000E+01 0. -1.
        -11    1    4    4    0    0  0.68050826821E+02 -0.69808182525E+01 -0.19511184542E+03  0.20675656962E+03  0.00000000000E+00 0.  1.
         11    1    4    4    0    0 -0.23159738580E+02 -0.32933372569E+02 -0.87375048812E+02  0.96204883841E+02  0.00000000000E+00 0. -1.
<mgrwt>
<rscale>  0 0.13072174E+03</rscale>
<asrwt>0</asrwt>
<pdfrwt beam="1">  1        2 0.33669445E-02 0.13867981E+03</pdfrwt>
<pdfrwt beam="2">  1       -2 0.10853935E+00 0.13867981E+03</pdfrwt>
<totfact> 0.18195446E+03</totfact>
</mgrwt>
</event>
<event>
 7    1  0.1020295E-005  0.1524352E+03  0.7546771E-02  0.1218652E+00
          2   -1    0    0  501    0  0.00000000000E+00  0.00000000000E+00  0.29262263358E+03  0.29262263358E+03  0.00000000000E+00 0. -1.
         -2   -1    0    0    0  501 -0.00000000000E+00 -0.00000000000E+00 -0.71214637043E+02  0.71214637043E+02  0.00000000000E+00 0.  1.
         23    2    1    2    0    0  0.25497486474E+02  0.18134512827E+02  0.18230796659E+03  0.20646729660E+03  0.91725500889E+02 0.  0.
          5    1    1    2  502    0 -0.81354116916E+02 -0.26927663597E+02  0.50383010911E+02  0.99519491530E+02  0.47000000000E+01 0. -1.
         -5    1    1    2    0  502  0.55856630442E+02  0.87931507697E+01 -0.11282980962E+02  0.57850482489E+02  0.47000000000E+01 0.  1.
        -11    1    3    3    0    0 -0.11731141513E+02  0.30799833599E+02  0.15530748801E+03  0.15876607088E+03  0.00000000000E+00 0.  1.
         11    1    3    3    0    0  0.37228627987E+02 -0.12665320772E+02  0.27000478579E+02  0.47701225724E+02  0.00000000000E+00 0. -1.
<mgrwt>
<rscale>  0 0.13611686E+03</rscale>
<asrwt>0</asrwt>
<pdfrwt beam="1">  1        2 0.45018866E-01 0.15243522E+03</pdfrwt>
<pdfrwt beam="2">  1       -2 0.10956098E-01 0.15243522E+03</pdfrwt>
<totfact> 0.61897228E+03</totfact>
</mgrwt>
</event>
<event>
 8    1  0.1020295E-005  0.1466280E+03  0.7546771E-02  0.1214396E+00
          3   -1    0    0  501    0  0.00000000000E+00  0.00000000000E+00  0.11767313161E+03  0.11767313161E+03  0.00000000000E+00 0. -1.
         -3   -1    0    0    0  501 -0.00000000000E+00 -0.00000000000E+00 -0.15013175131E+03  0.15013175131E+03  0.00000000000E+00 0.  1.
         23    2    1    2    0    0 -0.29005460607E+02  0.70947216295E+02 -0.20949009573E+02  0.14811695370E+03  0.12499978691E+03 0.  0.
         23    2    1    2    0    0  0.29005460607E+02 -0.70947216295E+02 -0.11509610129E+02  0.11968792922E+03  0.91202549470E+02 0.  0.
          5    1    3    3  502    0 -0.24848865705E+02  0.36990234568E+02 -0.72998605597E+02  0.85654130077E+02  0.47000000000E+01 0.  1.
         -5    1    3    3    0  502 -0.41565949018E+01  0.33956981727E+02  0.52049596024E+02  0.62462823627E+02  0.47000000000E+01 0.  1.
        -11    1    4    4    0    0 -0.17512653106E+02  0.64157534883E+01 -0.21962318988E+02  0.28813163085E+02  0.00000000000E+00 0.  1.
         11    1    4    4    0    0  0.46518113712E+02 -0.77362969783E+02  0.10452708859E+02  0.90874766132E+02  0.00000000000E+00 0. -1.
<mgrwt>
<rscale>  0 0.13921016E+03</rscale>
<asrwt>0</asrwt>
<pdfrwt beam="1">  1        3 0.18103559E-01 0.14662800E+03</pdfrwt>
<pdfrwt beam="2">  1       -3 0.23097193E-01 0.14662800E+03</pdfrwt>
<totfact> 0.10824132E+03</totfact>
</mgrwt>
</event>
<event>
 8    1  0.1020295E-005  0.1479764E+03  0.7546771E-02  0.1212053E+00
          2   -1    0    0  501    0  0.00000000000E+00  0.00000000000E+00  0.74059096464E+03  0.74059096464E+03  0.00000000000E+00 0. -1.
         -2   -1    0    0    0  501 -0.00000000000E+00 -0.00000000000E+00 -0.41026283287E+02  0.41026283287E+02  0.00000000000E+00 0.  1.
         23    2    1    2    0    0  0.68137467230E+02 -0.40342606687E+02  0.12328804145E+03  0.19260571276E+03  0.12500711607E+03 0.  0.
         23    2    1    2    0    0 -0.68137467230E+02  0.40342606687E+02  0.57627663991E+03  0.58901153517E+03  0.92572039565E+02 0.  0.
          5    1    3    3  502    0  0.89712124627E+01 -0.96446801524E+01  0.12498278949E+03  0.12576283305E+03  0.47000000000E+01 0.  1.
         -5    1    3    3    0  502  0.59166254767E+02 -0.30697926534E+02 -0.16947480408E+01  0.66842879707E+02  0.47000000000E+01 0.  1.
        -11    1    4    4    0    0  0.14835326408E+02  0.27363652910E+02  0.83155058516E+02  0.88789752601E+02  0.00000000000E+00 0.  1.
         11    1    4    4    0    0 -0.82972793638E+02  0.12978953776E+02  0.49312158139E+03  0.50022178257E+03  0.00000000000E+00 0. -1.
<mgrwt>
<rscale>  0 0.14095256E+03</rscale>
<asrwt>0</asrwt>
<pdfrwt beam="1">  1        2 0.11393706E+00 0.14797642E+03</pdfrwt>
<pdfrwt beam="2">  1       -2 0.63117364E-02 0.14797642E+03</pdfrwt>
<totfact> 0.52111699E+03</totfact>
</mgrwt>
</event>
<event>
 8    1  0.1020295E-005  0.1287726E+03  0.7546771E-02  0.1244754E+00
          1   -1    0    0  501    0  0.00000000000E+00  0.00000000000E+00  0.18934003765E+03  0.18934003765E+03  0.00000000000E+00 0. -1.
         -1   -1    0    0    0  501 -0.00000000000E+00 -0.00000000000E+00 -0.70023082332E+02  0.70023082332E+02  0.00000000000E+00 0.  1.
         23    2    1    2    0    0  0.86747417488E+01 -0.29667140000E+02  0.35728957466E+02  0.13363734160E+03  0.12500796106E+03 0.  0.
         23    2    1    2    0    0 -0.86747417488E+01  0.29667140000E+02  0.83587997850E+02  0.12572577838E+03  0.88682735777E+02 0.  0.
          5    1    3    3  502    0 -0.28624519640E+02 -0.62080209219E+01  0.71034146871E+02  0.76979495127E+02  0.47000000000E+01 0.  1.
         -5    1    3    3    0  502  0.37299261389E+02 -0.23459119078E+02 -0.35305189404E+02  0.56657846473E+02  0.47000000000E+01 0.  1.
        -11    1    4    4    0    0 -0.43117581808E+02  0.34046415218E+02  0.32113270801E+02  0.63636046481E+02  0.00000000000E+00 0.  1.
         11    1    4    4    0    0  0.34442840059E+02 -0.43792752173E+01  0.51474727049E+02  0.62089731901E+02  0.00000000000E+00 0. -1.
<mgrwt>
<rscale>  0 0.11900118E+03</rscale>
<asrwt>0</asrwt>
<pdfrwt beam="1">  1        1 0.29129236E-01 0.12877259E+03</pdfrwt>
<pdfrwt beam="2">  1       -1 0.10772782E-01 0.12877259E+03</pdfrwt>
<totfact> 0.80463438E+03</totfact>
</mgrwt>
</event>
<event>
 8    1  0.1020295E-005  0.1805929E+03  0.7546771E-02  0.1170308E+00
          2   -1    0    0  501    0  0.00000000000E+00  0.00000000000E+00  0.47431661632E+02  0.47431661632E+02  0.00000000000E+00 0. -1.
         -2   -1    0    0    0  501 -0.00000000000E+00 -0.00000000000E+00 -0.64390234214E+03  0.64390234214E+03  0.00000000000E+00 0.  1.
         23    2    1    2    0    0 -0.87577347127E+02 -0.11186796691E+03 -0.28784839069E+03  0.33980949528E+03  0.11148795143E+03 0.  0.
         23    2    1    2    0    0  0.87577347127E+02  0.11186796691E+03 -0.30862228982E+03  0.35152450849E+03  0.90208250985E+02 0.  0.
          5    1    3    3  502    0 -0.93083872090E+02 -0.74273941525E+02 -0.12575399796E+03  0.17325525572E+03  0.47000000000E+01 0. -1.
         -5    1    3    3    0  502  0.55065249626E+01 -0.37594025381E+02 -0.16209439272E+03  0.16655423956E+03  0.47000000000E+01 0.  1.
        -11    1    4    4    0    0  0.58542541958E+02  0.85371789974E+02 -0.29020876919E+03  0.30811799924E+03  0.00000000000E+00 0.  1.
         11    1    4    4    0    0  0.29034805169E+02  0.26496176932E+02 -0.18413520633E+02  0.43406509251E+02  0.00000000000E+00 0. -1.
<mgrwt>
<rscale>  0 0.17743551E+03</rscale>
<asrwt>0</asrwt>
<pdfrwt beam="1">  1        2 0.72971786E-02 0.18059290E+03</pdfrwt>
<pdfrwt beam="2">  1       -2 0.99061901E-01 0.18059290E+03</pdfrwt>
<totfact> 0.82791763E+02</totfact>
</mgrwt>
</event>
<event>
 8    1  0.1020295E-005  0.1580413E+03  0.7546771E-02  0.1193819E+00
          1   -1    0    0  501    0  0.00000000000E+00  0.00000000000E+00  0.44447746494E+02  0.44447746494E+02  0.00000000000E+00 0. -1.
         -1   -1    0    0    0  501 -0.00000000000E+00 -0.00000000000E+00 -0.96700749777E+03  0.96700749777E+03  0.00000000000E+00 0.  1.
         23    2    1    2    0    0 -0.96685930114E+02 -0.14191244912E+01 -0.81002109497E+03  0.82529462165E+03  0.12500742065E+03 0.  0.
         23    2    1    2    0    0  0.96685930114E+02  0.14191244912E+01 -0.11253865631E+03  0.18616062262E+03  0.11243062419E+03 0.  0.
          5    1    3    3  502    0 -0.63545406607E+02  0.59061302856E+02 -0.38433893783E+03  0.39403650253E+03  0.47000000000E+01 0.  1.
         -5    1    3    3    0  502 -0.33140523507E+02 -0.60480427347E+02 -0.42568215715E+03  0.43125811912E+03  0.47000000000E+01 0.  1.
        -11    1    4    4    0    0  0.77415340203E+02 -0.24650534859E+02 -0.12691875618E+03  0.15069556874E+03  0.00000000000E+00 0.  1.
         11    1    4    4    0    0  0.19270589911E+02  0.26069659351E+02  0.14380099877E+02  0.35465053879E+02  0.00000000000E+00 0. -1.
<mgrwt>
<rscale>  0 0.15554571E+03</rscale>
<asrwt>0</asrwt>
<pdfrwt beam="1">  1        1 0.68381154E-02 0.15804125E+03</pdfrwt>
<pdfrwt beam="2">  1       -1 0.14877037E+00 0.15804125E+03</pdfrwt>
<totfact> 0.41658886E+02</totfact>
</mgrwt>
</event>
<event>
 8    1  0.1020295E-005  0.1398615E+03  0.7546771E-02  0.1224450E+00
          1   -1    0    0  501    0  0.00000000000E+00  0.00000000000E+00  0.20780326030E+03  0.20780326030E+03  0.00000000000E+00 0. -1.
         -1   -1    0    0    0  501 -0.00000000000E+00 -0.00000000000E+00 -0.15676610141E+03  0.15676610141E+03  0.00000000000E+00 0.  1.
         23    2    1    2    0    0  0.62998969487E+02 -0.27011500387E+01 -0.10366579276E+03  0.17409143074E+03  0.12484015099E+03 0.  0.
         23    2    1    2    0    0 -0.62998969487E+02  0.27011500387E+01  0.15470295165E+03  0.19047793097E+03  0.91502309102E+02 0.  0.
          5    1    3    3  502    0 -0.11052939545E+02 -0.49581956692E+02 -0.27921344152E+02  0.58156937344E+02  0.47000000000E+01 0.  1.
         -5    1    3    3    0  502  0.74051909032E+02  0.46880806653E+02 -0.75744448610E+02  0.11593449340E+03  0.47000000000E+01 0.  1.
        -11    1    4    4    0    0 -0.64811466618E+02  0.19359726862E+02  0.15933034154E+03  0.17309385594E+03  0.00000000000E+00 0. -1.
         11    1    4    4    0    0  0.18124971308E+01 -0.16658576824E+02 -0.46273898882E+01  0.17384075035E+02  0.00000000000E+00 0.  1.
<mgrwt>
<rscale>  0 0.13204648E+03</rscale>
<asrwt>0</asrwt>
<pdfrwt beam="1">  1        1 0.31969732E-01 0.13986147E+03</pdfrwt>
<pdfrwt beam="2">  1       -1 0.24117862E-01 0.13986147E+03</pdfrwt>
<totfact> 0.20182268E+03</totfact>
</mgrwt>
</event>
<event>
 8    1  0.1020295E-005  0.1265453E+03  0.7546771E-02  0.1248096E+00
         -1   -1    0    0    0  501 -0.00000000000E+00  0.00000000000E+00  0.85956980545E+02  0.85956980545E+02  0.00000000000E+00 0.  1.
          1   -1    0    0  501    0  0.00000000000E+00 -0.00000000000E+00 -0.16060120458E+03  0.16060120458E+03  0.00000000000E+00 0. -1.
         23    2    1    2    0    0 -0.46459546273E+01 -0.19641963602E+02  0.17599319796E+01  0.12655754049E+03  0.12492526592E+03 0.  0.
         23    2    1    2    0    0  0.46459546273E+01  0.19641963602E+02 -0.76404156011E+02  0.12000064463E+03  0.90305968949E+02 0.  0.
          5    1    3    3  502    0 -0.55307320698E+02  0.16990105028E+02 -0.18079583018E+02  0.60799051915E+02  0.47000000000E+01 0.  1.
         -5    1    3    3    0  502  0.50661366070E+02 -0.36632068630E+02  0.19839514998E+02  0.65758488574E+02  0.47000000000E+01 0.  1.
        -11    1    4    4    0    0  0.27393192215E+02  0.24173545502E+02  0.35915250289E+01  0.36710302830E+02  0.00000000000E+00 0.  1.
         11    1    4    4    0    0 -0.22747237588E+02 -0.45315818998E+01 -0.79995681039E+02  0.83290341801E+02  0.00000000000E+00 0. -1.
<mgrwt>
<rscale>  0 0.11701997E+03</rscale>
<asrwt>0</asrwt>
<pdfrwt beam="2">  1        1 0.24707877E-01 0.12654530E+03</pdfrwt>
<pdfrwt beam="1">  1       -1 0.13224151E-01 0.12654530E+03</pdfrwt>
<totfact> 0.71968586E+03</totfact>
</mgrwt>
</event>
<event>
 8    1  0.1020295E-005  0.1767680E+03  0.7546771E-02  0.1176315E+00
          1   -1    0    0  501    0  0.00000000000E+00  0.00000000000E+00  0.81472099687E+03  0.81472099687E+03  0.00000000000E+00 0. -1.
         -1   -1    0    0    0  501 -0.00000000000E+00 -0.00000000000E+00 -0.34257915818E+02  0.34257915818E+02  0.00000000000E+00 0.  1.
         23    2    1    2    0    0  0.36743381836E+02 -0.12157423744E+03  0.38408818908E+03  0.42281280737E+03  0.12294942767E+03 0.  0.
         23    2    1    2    0    0 -0.36743381836E+02  0.12157423744E+03  0.39637489197E+03  0.42616610532E+03  0.91510234529E+02 0.  0.
          5    1    3    3  502    0  0.32268612053E+02 -0.31813475691E+02  0.28635464513E+03  0.28995591621E+03  0.47000000000E+01 0. -1.
         -5    1    3    3    0  502  0.44747697826E+01 -0.89760761746E+02  0.97733543954E+02  0.13285689116E+03  0.47000000000E+01 0.  1.
        -11    1    4    4    0    0 -0.26694555175E+02 -0.62434287518E+01  0.53742661244E+02  0.60331196873E+02  0.00000000000E+00 0.  1.
         11    1    4    4    0    0 -0.10048826662E+02  0.12781766619E+03  0.34263223073E+03  0.36583490845E+03  0.00000000000E+00 0. -1.
<mgrwt>
<rscale>  0 0.17147803E+03</rscale>
<asrwt>0</asrwt>
<pdfrwt beam="1">  1        1 0.12534168E+00 0.17676802E+03</pdfrwt>
<pdfrwt beam="2">  1       -1 0.52704492E-02 0.17676802E+03</pdfrwt>
<totfact> 0.35915833E+03</totfact>
</mgrwt>
</event>
<event>
 8    1  0.1020295E-005  0.1273701E+03  0.7546771E-02  0.1242143E+00
          1   -1    0    0  501    0  0.00000000000E+00  0.00000000000E+00  0.31034247864E+03  0.31034247864E+03  0.00000000000E+00 0. -1.
         -1   -1    0    0    0  501 -0.00000000000E+00 -0.00000000000E+00 -0.44094707028E+02  0.44094707028E+02  0.00000000000E+00 0.  1.
         23    2    1    2    0    0 -0.40320743722E+02 -0.73620146935E+01  0.11355825478E+03  0.17064181256E+03  0.12059514638E+03 0.  0.
         23    2    1    2    0    0  0.40320743722E+02  0.73620146935E+01  0.15268951684E+03  0.18379537311E+03  0.93737340427E+02 0.  0.
          5    1    3    3  502    0  0.26194569694E+02 -0.39459527262E+02  0.70378880483E+02  0.84961677192E+02  0.47000000000E+01 0. -1.
         -5    1    3    3    0  502 -0.66515313416E+02  0.32097512569E+02  0.43179374293E+02  0.85680135365E+02  0.47000000000E+01 0.  1.
        -11    1    4    4    0    0  0.55386853157E+02  0.33187678855E+02  0.13342531166E+03  0.14822766045E+03  0.00000000000E+00 0.  1.
         11    1    4    4    0    0 -0.15066109435E+02 -0.25825664161E+02  0.19264205175E+02  0.35567712661E+02  0.00000000000E+00 0. -1.
<mgrwt>
<rscale>  0 0.12058039E+03</rscale>
<asrwt>0</asrwt>
<pdfrwt beam="1">  1        1 0.47744995E-01 0.12737013E+03</pdfrwt>
<pdfrwt beam="2">  1       -1 0.67838013E-02 0.12737013E+03</pdfrwt>
<totfact> 0.87818771E+03</totfact>
</mgrwt>
</event>
<event>
 8    1  0.1020295E-005  0.1469094E+03  0.7546771E-02  0.1214054E+00
          2   -1    0    0  501    0  0.00000000000E+00  0.00000000000E+00  0.27897643304E+03  0.27897643304E+03  0.00000000000E+00 0. -1.
         -2   -1    0    0    0  501 -0.00000000000E+00 -0.00000000000E+00 -0.70102593841E+02  0.70102593841E+02  0.00000000000E+00 0.  1.
         23    2    1    2    0    0  0.72631583268E+02 -0.26128508342E+02  0.60991197419E+02  0.15906695802E+03  0.12499730051E+03 0.  0.
         23    2    1    2    0    0 -0.72631583268E+02  0.26128508342E+02  0.14788264178E+03  0.19001206886E+03  0.90979474260E+02 0.  0.
          5    1    3    3  502    0  0.72914714735E+02  0.16259681029E+02 -0.10734715974E+02  0.75619157487E+02  0.47000000000E+01 0. -1.
         -5    1    3    3    0  502 -0.28313146706E+00 -0.42388189371E+02  0.71725913394E+02  0.83447800533E+02  0.47000000000E+01 0. -1.
        -11    1    4    4    0    0 -0.63528593211E+02 -0.65209594341E+01  0.36436618222E+02  0.73525724850E+02  0.00000000000E+00 0.  1.
         11    1    4    4    0    0 -0.91029900572E+01  0.32649467776E+02  0.11144602356E+03  0.11648634401E+03  0.00000000000E+00 0. -1.
<mgrwt>
<rscale>  0 0.13946269E+03</rscale>
<asrwt>0</asrwt>
<pdfrwt beam="1">  1        2 0.42919451E-01 0.14690940E+03</pdfrwt>
<pdfrwt beam="2">  1       -2 0.10785015E-01 0.14690940E+03</pdfrwt>
<totfact> 0.66613725E+03</totfact>
</mgrwt>
</event>
<event>
 8    1  0.1020295E-005  0.1311494E+03  0.7546771E-02  0.1238381E+00
          2   -1    0    0  501    0  0.00000000000E+00  0.00000000000E+00  0.12583505291E+04  0.12583505291E+04  0.00000000000E+00 0.  1.
         -2   -1    0    0    0  501 -0.00000000000E+00 -0.00000000000E+00 -0.10755046425E+02  0.10755046425E+02  0.00000000000E+00 0. -1.
         23    2    1    2    0    0 -0.17290642979E+02  0.35733156096E+02  0.73948530034E+03  0.75102508442E+03  0.12499737292E+03 0.  0.
         23    2    1    2    0    0  0.17290642979E+02 -0.35733156096E+02  0.50811018234E+03  0.51808049110E+03  0.93035547432E+02 0.  0.
          5    1    3    3  502    0 -0.50068226924E+02  0.56865340609E+02  0.28807988146E+03  0.29791374996E+03  0.47000000000E+01 0. -1.
         -5    1    3    3    0  502  0.32777583945E+02 -0.21132184514E+02  0.45140541888E+03  0.45311133447E+03  0.47000000000E+01 0. -1.
        -11    1    4    4    0    0 -0.20955825844E+02 -0.54379542473E+02  0.31387178245E+03  0.31923624026E+03  0.00000000000E+00 0. -1.
         11    1    4    4    0    0  0.38246468823E+02  0.18646386377E+02  0.19423839989E+03  0.19884425085E+03  0.00000000000E+00 0.  1.
<mgrwt>
<rscale>  0 0.12290423E+03</rscale>
<asrwt>0</asrwt>
<pdfrwt beam="1">  1        2 0.19359227E+00 0.13114941E+03</pdfrwt>
<pdfrwt beam="2">  1       -2 0.16546235E-02 0.13114941E+03</pdfrwt>
<totfact> 0.18140290E+04</totfact>
</mgrwt>
</event>
<event>
 8    1  0.1020295E-005  0.1305234E+03  0.7546771E-02  0.1239243E+00
          1   -1    0    0  501    0  0.00000000000E+00  0.00000000000E+00  0.34544288588E+03  0.34544288588E+03  0.00000000000E+00 0. -1.
         -1   -1    0    0    0  501 -0.00000000000E+00 -0.00000000000E+00 -0.49405388508E+02  0.49405388508E+02  0.00000000000E+00 0.  1.
         23    2    1    2    0    0 -0.22786213001E+02  0.29767462796E+02  0.71763132522E+02  0.14895066730E+03  0.12502416068E+03 0.  0.
         23    2    1    2    0    0  0.22786213001E+02 -0.29767462796E+02  0.22427436485E+03  0.24589760709E+03  0.93601971666E+02 0.  0.
          5    1    3    3  502    0  0.35476351298E+02  0.87391887561E+01 -0.17031204556E+02  0.40584440986E+02  0.47000000000E+01 0.  1.
         -5    1    3    3    0  502 -0.58262564299E+02  0.21028274039E+02  0.88794337077E+02  0.10836622631E+03  0.47000000000E+01 0.  1.
        -11    1    4    4    0    0 -0.35456475053E+02 -0.15852624787E+02  0.64760144589E+02  0.75513864045E+02  0.00000000000E+00 0. -1.
         11    1    4    4    0    0  0.58242688055E+02 -0.13914838008E+02  0.15951422026E+03  0.17038374305E+03  0.00000000000E+00 0.  1.
<mgrwt>
<rscale>  0 0.12236675E+03</rscale>
<asrwt>0</asrwt>
<pdfrwt beam="1">  1        1 0.53145058E-01 0.13052339E+03</pdfrwt>
<pdfrwt beam="2">  1       -1 0.76008292E-02 0.13052339E+03</pdfrwt>
<totfact> 0.64949211E+03</totfact>
</mgrwt>
</event>
<event>
 8    1  0.1020295E-005  0.1253745E+03  0.7546771E-02  0.1250245E+00
         -3   -1    0    0    0  501 -0.00000000000E+00  0.00000000000E+00  0.40482460197E+03  0.40482460197E+03  0.00000000000E+00 0.  1.
          3   -1    0    0  501    0  0.00000000000E+00 -0.00000000000E+00 -0.33195608718E+02  0.33195608718E+02  0.00000000000E+00 0. -1.
         23    2    1    2    0    0 -0.96554440993E+01  0.73564304110E+00  0.28888337811E+03  0.31491645363E+03  0.12499999138E+03 0.  0.
         23    2    1    2    0    0  0.96554440993E+01 -0.73564304110E+00  0.82745615136E+02  0.12310375706E+03  0.90630731022E+02 0.  0.
          5    1    3    3  502    0  0.50194740131E+02 -0.29108685371E+02  0.12750443913E+03  0.14016525781E+03  0.47000000000E+01 0.  1.
         -5    1    3    3    0  502 -0.59850184231E+02  0.29844328412E+02  0.16137893898E+03  0.17475119581E+03  0.47000000000E+01 0.  1.
        -11    1    4    4    0    0  0.10906712300E+02 -0.38938608732E+02  0.73325709618E+02  0.83736678428E+02  0.00000000000E+00 0.  1.
         11    1    4    4    0    0 -0.12512682004E+01  0.38202965691E+02  0.94199055180E+01  0.39367078628E+02  0.00000000000E+00 0. -1.
<mgrwt>
<rscale>  0 0.11576893E+03</rscale>
<asrwt>0</asrwt>
<pdfrwt beam="2">  1        3 0.51070170E-02 0.12537451E+03</pdfrwt>
<pdfrwt beam="1">  1       -3 0.62280705E-01 0.12537451E+03</pdfrwt>
<totfact> 0.12750950E+03</totfact>
</mgrwt>
</event>
<event>
 7    1  0.1020295E-005  0.1858979E+03  0.7546771E-02  0.1178972E+00
          2   -1    0    0  501    0  0.00000000000E+00  0.00000000000E+00  0.68163096688E+03  0.68163096688E+03  0.00000000000E+00 0. -1.
         -2   -1    0    0    0  501 -0.00000000000E+00 -0.00000000000E+00 -0.36379580296E+02  0.36379580296E+02  0.00000000000E+00 0.  1.
         23    2    1    2    0    0  0.89478126784E+02 -0.17704446832E+01  0.30493247892E+03  0.33022843066E+03  0.89763745853E+02 0.  0.
          5    1    1    2  502    0 -0.73913790998E+02  0.45672717948E+02  0.32803778076E+03  0.33938196957E+03  0.47000000000E+01 0. -1.
         -5    1    1    2    0  502 -0.15564335786E+02 -0.43902273265E+02  0.12281126908E+02  0.48400146947E+02  0.47000000000E+01 0.  1.
        -11    1    3    3    0    0  0.35179158137E+02 -0.44578620614E+02  0.11899386841E+03  0.13184979068E+03  0.00000000000E+00 0.  1.
         11    1    3    3    0    0  0.54298968647E+02  0.42808175930E+02  0.18593861051E+03  0.19837863998E+03  0.00000000000E+00 0. -1.
<mgrwt>
<rscale>  0 0.16892644E+03</rscale>
<asrwt>0</asrwt>
<pdfrwt beam="1">  1        2 0.10486629E+00 0.18589785E+03</pdfrwt>
<pdfrwt beam="2">  1       -2 0.55968590E-02 0.18589785E+03</pdfrwt>
<totfact> 0.69875582E+03</totfact>
</mgrwt>
</event>
<event>
 8    1  0.1020295E-005  0.1559888E+03  0.7546771E-02  0.1201154E+00
          1   -1    0    0  501    0  0.00000000000E+00  0.00000000000E+00  0.41586718597E+03  0.41586718597E+03  0.00000000000E+00 0. -1.
         -1   -1    0    0    0  501 -0.00000000000E+00 -0.00000000000E+00 -0.69393017070E+02  0.69393017070E+02  0.00000000000E+00 0.  1.
         23    2    1    2    0    0  0.42726198191E+01  0.93224336496E+02  0.54783028382E+02  0.16532903096E+03  0.12499390419E+03 0.  0.
         23    2    1    2    0    0 -0.42726198191E+01 -0.93224336496E+02  0.29169114052E+03  0.31993117208E+03  0.92537566514E+02 0.  0.
          5    1    3    3  502    0 -0.34557272088E+02  0.10309262897E+03  0.17175835108E+02  0.11017892046E+03  0.47000000000E+01 0. -1.
         -5    1    3    3    0  502  0.38829891907E+02 -0.98682924754E+01  0.37607193274E+02  0.55150110497E+02  0.47000000000E+01 0. -1.
        -11    1    4    4    0    0 -0.32365282822E+02  0.14086053869E+01  0.81954383565E+02  0.88125006025E+02  0.00000000000E+00 0. -1.
         11    1    4    4    0    0  0.28092663003E+02 -0.94632941883E+02  0.20973675695E+03  0.23180616605E+03  0.00000000000E+00 0.  1.
<mgrwt>
<rscale>  0 0.14944750E+03</rscale>
<asrwt>0</asrwt>
<pdfrwt beam="1">  1        1 0.63979565E-01 0.15598881E+03</pdfrwt>
<pdfrwt beam="2">  1       -1 0.10675849E-01 0.15598881E+03</pdfrwt>
<totfact> 0.30975374E+03</totfact>
</mgrwt>
</event>
<event>
 8    1  0.1020295E-005  0.1451068E+03  0.7546771E-02  0.1215468E+00
         -2   -1    0    0    0  501 -0.00000000000E+00  0.00000000000E+00  0.10458490934E+03  0.10458490934E+03  0.00000000000E+00 0.  1.
          2   -1    0    0  501    0  0.00000000000E+00 -0.00000000000E+00 -0.17547199442E+03  0.17547199442E+03  0.00000000000E+00 0. -1.
         23    2    1    2    0    0 -0.54435664177E+02 -0.49705844576E+02 -0.10261907275E+02  0.14546922962E+03  0.12498830948E+03 0.  0.
         23    2    1    2    0    0  0.54435664177E+02  0.49705844576E+02 -0.60625177813E+02  0.13458767414E+03  0.94892135217E+02 0.  0.
          5    1    3    3  502    0 -0.13379087759E+02  0.41797190010E+02 -0.90739983131E+01  0.45060320986E+02  0.47000000000E+01 0.  1.
         -5    1    3    3    0  502 -0.41056576418E+02 -0.91503034586E+02 -0.11879089618E+01  0.10040890863E+03  0.47000000000E+01 0.  1.
        -11    1    4    4    0    0 -0.75290439230E+01 -0.18802193407E+02  0.54977665302E+01  0.20986529397E+02  0.00000000000E+00 0.  1.
         11    1    4    4    0    0  0.61964708100E+02  0.68508037983E+02 -0.66122944343E+02  0.11360114474E+03  0.00000000000E+00 0. -1.
<mgrwt>
<rscale>  0 0.13842224E+03</rscale>
<asrwt>0</asrwt>
<pdfrwt beam="2">  1        2 0.26995691E-01 0.14510682E+03</pdfrwt>
<pdfrwt beam="1">  1       -2 0.16089986E-01 0.14510682E+03</pdfrwt>
<totfact> 0.57464989E+03</totfact>
</mgrwt>
</event>
<event>
 8    1  0.1020295E-005  0.1563463E+03  0.7546771E-02  0.1198111E+00
         -1   -1    0    0    0  501 -0.00000000000E+00  0.00000000000E+00  0.82996520426E+02  0.82996520426E+02  0.00000000000E+00 0.  1.
          1   -1    0    0  501    0  0.00000000000E+00 -0.00000000000E+00 -0.46844858691E+03  0.46844858691E+03  0.00000000000E+00 0. -1.
         23    2    1    2    0    0  0.10424366341E+03  0.36275758279E+02 -0.16734790170E+02  0.15723940732E+03  0.11073168477E+03 0.  0.
         23    2    1    2    0    0 -0.10424366341E+03 -0.36275758279E+02 -0.36871727632E+03  0.39420570002E+03  0.85223424431E+02 0.  0.
          5    1    3    3  502    0 -0.50696241376E+01 -0.26770211517E+02  0.75193895088E+01  0.28652688044E+02  0.47000000000E+01 0. -1.
         -5    1    3    3    0  502  0.10931328755E+03  0.63045969796E+02 -0.24254179678E+02  0.12858671928E+03  0.47000000000E+01 0.  1.
        -11    1    4    4    0    0 -0.42249731364E+02 -0.35179257719E+02 -0.28371291428E+03  0.28899072252E+03  0.00000000000E+00 0. -1.
         11    1    4    4    0    0 -0.61993932048E+02 -0.10965005601E+01 -0.85004362033E+02  0.10521497749E+03  0.00000000000E+00 0.  1.
<mgrwt>
<rscale>  0 0.15193882E+03</rscale>
<asrwt>0</asrwt>
<pdfrwt beam="2">  1        1 0.72069015E-01 0.15634634E+03</pdfrwt>
<pdfrwt beam="1">  1       -1 0.12768695E-01 0.15634634E+03</pdfrwt>
<totfact> 0.20161707E+03</totfact>
</mgrwt>
</event>
<event>
 8    1  0.1020295E-005  0.1778073E+03  0.7546771E-02  0.1175816E+00
          1   -1    0    0  501    0  0.00000000000E+00  0.00000000000E+00  0.47751777688E+02  0.47751777688E+02  0.00000000000E+00 0. -1.
         -1   -1    0    0    0  501 -0.00000000000E+00 -0.00000000000E+00 -0.60486613014E+03  0.60486613014E+03  0.00000000000E+00 0.  1.
         23    2    1    2    0    0  0.34693623513E+02 -0.12130500416E+03 -0.35998885145E+03  0.40150641028E+03  0.12528716127E+03 0.  0.
         23    2    1    2    0    0 -0.34693623513E+02  0.12130500416E+03 -0.19712550101E+03  0.25111149756E+03  0.90994337796E+02 0.  0.
          5    1    3    3  502    0  0.79431312113E+01 -0.76926310492E+02 -0.33489590934E+03  0.34374134269E+03  0.47000000000E+01 0. -1.
         -5    1    3    3    0  502  0.26750492302E+02 -0.44378693665E+02 -0.25092942107E+02  0.57765067588E+02  0.47000000000E+01 0. -1.
        -11    1    4    4    0    0 -0.38211508449E+02  0.94276841310E+01 -0.28002970098E+02  0.48302866792E+02  0.00000000000E+00 0. -1.
         11    1    4    4    0    0  0.35178849362E+01  0.11187732003E+03 -0.16912253091E+03  0.20280863076E+03  0.00000000000E+00 0.  1.
<mgrwt>
<rscale>  0 0.17196329E+03</rscale>
<asrwt>0</asrwt>
<pdfrwt beam="1">  1        1 0.73464269E-02 0.17780727E+03</pdfrwt>
<pdfrwt beam="2">  1       -1 0.93056333E-01 0.17780727E+03</pdfrwt>
<totfact> 0.11427050E+03</totfact>
</mgrwt>
</event>
<event>
 8    1  0.1020295E-005  0.1326492E+03  0.7546771E-02  0.1235624E+00
         -4   -1    0    0    0  501 -0.00000000000E+00  0.00000000000E+00  0.82021791055E+02  0.82021791055E+02  0.00000000000E+00 0.  1.
          4   -1    0    0  501    0  0.00000000000E+00 -0.00000000000E+00 -0.19539757148E+03  0.19539757148E+03  0.00000000000E+00 0. -1.
         23    2    1    2    0    0 -0.33429954258E+02  0.29094831461E+02 -0.12976064431E+02  0.13328237564E+03  0.12502696648E+03 0.  0.
         23    2    1    2    0    0  0.33429954258E+02 -0.29094831461E+02 -0.10039971599E+03  0.14413698690E+03  0.93441409240E+02 0.  0.
          5    1    3    3  502    0 -0.56005987470E+02  0.51668885328E+02  0.27829948220E+02  0.81258478705E+02  0.47000000000E+01 0.  1.
         -5    1    3    3    0  502  0.22576033212E+02 -0.22574053867E+02 -0.40806012651E+02  0.52023896932E+02  0.47000000000E+01 0.  1.
        -11    1    4    4    0    0 -0.44830656371E+01 -0.34405401565E+02  0.20614369762E+01  0.34757431677E+02  0.00000000000E+00 0.  1.
         11    1    4    4    0    0  0.37913019895E+02  0.53105701040E+01 -0.10246115297E+03  0.10937955522E+03  0.00000000000E+00 0. -1.
<mgrwt>
<rscale>  0 0.12464589E+03</rscale>
<asrwt>0</asrwt>
<pdfrwt beam="2">  1        4 0.30061165E-01 0.13264921E+03</pdfrwt>
<pdfrwt beam="1">  1       -4 0.12618737E-01 0.13264921E+03</pdfrwt>
<totfact> 0.88751285E+02</totfact>
</mgrwt>
</event>
<event>
 8    1  0.1020295E-005  0.1481082E+03  0.7546771E-02  0.1213327E+00
          2   -1    0    0  501    0  0.00000000000E+00  0.00000000000E+00  0.17241214617E+03  0.17241214617E+03  0.00000000000E+00 0.  1.
         -2   -1    0    0    0  501 -0.00000000000E+00 -0.00000000000E+00 -0.10575316455E+03  0.10575316455E+03  0.00000000000E+00 0. -1.
         23    2    1    2    0    0 -0.11434347766E+02 -0.78616124636E+02  0.14147316445E+02  0.14878236429E+03  0.12499922400E+03 0.  0.
         23    2    1    2    0    0  0.11434347766E+02  0.78616124636E+02  0.52511665178E+02  0.12938294642E+03  0.87585572350E+02 0.  0.
          5    1    3    3  502    0  0.10447426128E+02 -0.96560297276E+02 -0.24857718583E+02  0.10036451512E+03  0.47000000000E+01 0.  1.
         -5    1    3    3    0  502 -0.21881773894E+02  0.17944172640E+02  0.39005035027E+02  0.48417849167E+02  0.47000000000E+01 0.  1.
        -11    1    4    4    0    0  0.39517969318E+02  0.58071787928E+01  0.21935306259E+02  0.45569187893E+02  0.00000000000E+00 0. -1.
         11    1    4    4    0    0 -0.28083621552E+02  0.72808945844E+02  0.30576358919E+02  0.83813758531E+02  0.00000000000E+00 0.  1.
<mgrwt>
<rscale>  0 0.14000140E+03</rscale>
<asrwt>0</asrwt>
<pdfrwt beam="1">  1        2 0.26524946E-01 0.14810822E+03</pdfrwt>
<pdfrwt beam="2">  1       -2 0.16269718E-01 0.14810822E+03</pdfrwt>
<totfact> 0.57596425E+03</totfact>
</mgrwt>
</event>
<event>
 8    1  0.1020295E-005  0.1422456E+03  0.7546771E-02  0.1219942E+00
         -2   -1    0    0    0  501 -0.00000000000E+00  0.00000000000E+00  0.34285521013E+02  0.34285521013E+02  0.00000000000E+00 0.  1.
          2   -1    0    0  501    0  0.00000000000E+00 -0.00000000000E+00 -0.49136302590E+03  0.49136302590E+03  0.00000000000E+00 0. -1.
         23    2    1    2    0    0  0.16048565376E+02  0.65975983079E+02 -0.22568196048E+03  0.26676985884E+03  0.12499369386E+03 0.  0.
         23    2    1    2    0    0 -0.16048565376E+02 -0.65975983079E+02 -0.23139554440E+03  0.25887868807E+03  0.94148236165E+02 0.  0.
          5    1    3    3  502    0 -0.74234557564E+01  0.47502010101E+01  0.14581977334E+02  0.17674732473E+02  0.47000000000E+01 0.  1.
         -5    1    3    3    0  502  0.23472021132E+02  0.61225782069E+02 -0.24026393782E+03  0.24909512637E+03  0.47000000000E+01 0.  1.
        -11    1    4    4    0    0 -0.41817273667E+02 -0.75903341554E+02 -0.19320417294E+03  0.21174950786E+03  0.00000000000E+00 0.  1.
         11    1    4    4    0    0  0.25768708291E+02  0.99273584752E+01 -0.38191371461E+02  0.47129180210E+02  0.00000000000E+00 0. -1.
<mgrwt>
<rscale>  0 0.13519708E+03</rscale>
<asrwt>0</asrwt>
<pdfrwt beam="2">  1        2 0.75594307E-01 0.14224560E+03</pdfrwt>
<pdfrwt beam="1">  1       -2 0.52746959E-02 0.14224560E+03</pdfrwt>
<totfact> 0.10924440E+04</totfact>
</mgrwt>
</event>
<event>
 8    1  0.1020295E-005  0.1697669E+03  0.7546771E-02  0.1183675E+00
          2   -1    0    0  501    0  0.00000000000E+00  0.00000000000E+00  0.44626359818E+03  0.44626359818E+03  0.00000000000E+00 0. -1.
         -2   -1    0    0    0  501 -0.00000000000E+00 -0.00000000000E+00 -0.58004542939E+02  0.58004542939E+02  0.00000000000E+00 0.  1.
         23    2    1    2    0    0  0.88312783835E+02 -0.73456716435E+02  0.17645141063E+03  0.24485894733E+03  0.12500306714E+03 0.  0.
         23    2    1    2    0    0 -0.88312783835E+02  0.73456716435E+02  0.21180764461E+03  0.25940919379E+03  0.96102104711E+02 0.  0.
          5    1    3    3  502    0 -0.11953965294E+02 -0.53484269291E+02  0.21284612841E+02  0.58979565034E+02  0.47000000000E+01 0.  1.
         -5    1    3    3    0  502  0.10026674913E+03 -0.19972447144E+02  0.15516679779E+03  0.18587938229E+03  0.47000000000E+01 0.  1.
        -11    1    4    4    0    0 -0.62385129239E+02  0.90782378057E+02  0.12213785294E+03  0.16447188099E+03  0.00000000000E+00 0.  1.
         11    1    4    4    0    0 -0.25927654596E+02 -0.17325661622E+02  0.89669791673E+02  0.94937312802E+02  0.00000000000E+00 0. -1.
<mgrwt>
<rscale>  0 0.16452997E+03</rscale>
<asrwt>0</asrwt>
<pdfrwt beam="1">  1        2 0.68655936E-01 0.16976691E+03</pdfrwt>
<pdfrwt beam="2">  1       -2 0.89237761E-02 0.16976691E+03</pdfrwt>
<totfact> 0.54741733E+03</totfact>
</mgrwt>
</event>
<event>
 8    1  0.1020295E-005  0.1650629E+03  0.7546771E-02  0.1190173E+00
         -1   -1    0    0    0  501 -0.00000000000E+00  0.00000000000E+00  0.14272883534E+03  0.14272883534E+03  0.00000000000E+00 0.  1.
          1   -1    0    0  501    0  0.00000000000E+00 -0.00000000000E+00 -0.18062536613E+03  0.18062536613E+03  0.00000000000E+00 0. -1.
         23    2    1    2    0    0 -0.92415349385E+02 -0.55482906521E+02  0.28429817307E+02  0.16749335190E+03  0.12500727460E+03 0.  0.
         23    2    1    2    0    0  0.92415349385E+02  0.55482906521E+02 -0.66326348100E+02  0.15586084957E+03  0.90964115227E+02 0.  0.
          5    1    3    3  502    0  0.17975081220E+02  0.22572174787E+01 -0.25524514641E+02  0.31651057222E+02  0.47000000000E+01 0. -1.
         -5    1    3    3    0  502 -0.11039043061E+03 -0.57740123999E+02  0.53954331947E+02  0.13584229468E+03  0.47000000000E+01 0. -1.
        -11    1    4    4    0    0  0.29549091922E+02  0.90709692891E+00  0.20186602056E+02  0.35797633453E+02  0.00000000000E+00 0.  1.
         11    1    4    4    0    0  0.62866257463E+02  0.54575809592E+02 -0.86512950157E+02  0.12006321612E+03  0.00000000000E+00 0. -1.
<mgrwt>
<rscale>  0 0.15869960E+03</rscale>
<asrwt>0</asrwt>
<pdfrwt beam="2">  1        1 0.27788518E-01 0.16506292E+03</pdfrwt>
<pdfrwt beam="1">  1       -1 0.21958282E-01 0.16506292E+03</pdfrwt>
<totfact> 0.28204264E+03</totfact>
</mgrwt>
</event>
<event>
 8    1  0.1020295E-005  0.1796527E+03  0.7546771E-02  0.1173735E+00
          2   -1    0    0  501    0  0.00000000000E+00  0.00000000000E+00  0.55513652881E+03  0.55513652881E+03  0.00000000000E+00 0. -1.
         -2   -1    0    0    0  501 -0.00000000000E+00 -0.00000000000E+00 -0.52688250952E+02  0.52688250952E+02  0.00000000000E+00 0.  1.
         23    2    1    2    0    0  0.86750459006E+02 -0.95520721738E+02  0.21894682488E+03  0.28321862457E+03  0.12500090703E+03 0.  0.
         23    2    1    2    0    0 -0.86750459006E+02  0.95520721738E+02  0.28350145297E+03  0.32460615519E+03  0.91357713032E+02 0.  0.
          5    1    3    3  502    0 -0.34892100051E+01  0.52588707061E+01 -0.12690465350E+02  0.14932120357E+02  0.47000000000E+01 0. -1.
         -5    1    3    3    0  502  0.90239669011E+02 -0.10077959244E+03  0.23163729023E+03  0.26828650422E+03  0.47000000000E+01 0. -1.
        -11    1    4    4    0    0 -0.20056584701E+00  0.62734064629E+02  0.85547946518E+02  0.10608512735E+03  0.00000000000E+00 0.  1.
         11    1    4    4    0    0 -0.86549893159E+02  0.32786657110E+02  0.19795350646E+03  0.21852102784E+03  0.00000000000E+00 0. -1.
<mgrwt>
<rscale>  0 0.17400400E+03</rscale>
<asrwt>0</asrwt>
<pdfrwt beam="1">  1        2 0.85405616E-01 0.17965266E+03</pdfrwt>
<pdfrwt beam="2">  1       -2 0.81058851E-02 0.17965266E+03</pdfrwt>
<totfact> 0.50066864E+03</totfact>
</mgrwt>
</event>
<event>
 8    1  0.1020295E-005  0.1846140E+03  0.7546771E-02  0.1168277E+00
         -1   -1    0    0    0  501 -0.00000000000E+00  0.00000000000E+00  0.27643622517E+02  0.27643622517E+02  0.00000000000E+00 0.  1.
          1   -1    0    0  501    0  0.00000000000E+00 -0.00000000000E+00 -0.11623725112E+04  0.11623725112E+04  0.00000000000E+00 0. -1.
         23    2    1    2    0    0 -0.13216263657E+03  0.31431479517E+02 -0.46631326879E+03  0.50152804807E+03  0.12500967139E+03 0.  0.
         23    2    1    2    0    0  0.13216263657E+03 -0.31431479517E+02 -0.66841561993E+03  0.68848808569E+03  0.93709672683E+02 0.  0.
          5    1    3    3  502    0 -0.17309603153E+01  0.18118911911E+02 -0.18471879035E+01  0.18888972857E+02  0.47000000000E+01 0.  1.
         -5    1    3    3    0  502 -0.13043167626E+03  0.13312567606E+02 -0.46446608089E+03  0.48263907521E+03  0.47000000000E+01 0.  1.
        -11    1    4    4    0    0  0.11266153197E+03 -0.40157761109E+02 -0.64797229638E+03  0.65891832835E+03  0.00000000000E+00 0. -1.
         11    1    4    4    0    0  0.19501104597E+02  0.87262815916E+01 -0.20443323550E+02  0.29569757332E+02  0.00000000000E+00 0.  1.
<mgrwt>
<rscale>  0 0.17951144E+03</rscale>
<asrwt>0</asrwt>
<pdfrwt beam="2">  1        1 0.17882650E+00 0.18461397E+03</pdfrwt>
<pdfrwt beam="1">  1       -1 0.42528659E-02 0.18461397E+03</pdfrwt>
<totfact> 0.27169349E+03</totfact>
</mgrwt>
</event>
<event>
 8    1  0.1020295E-005  0.1903500E+03  0.7546771E-02  0.1162896E+00
         -4   -1    0    0    0  501 -0.00000000000E+00  0.00000000000E+00  0.30620734655E+03  0.30620734655E+03  0.00000000000E+00 0.  1.
          4   -1    0    0  501    0  0.00000000000E+00 -0.00000000000E+00 -0.12663039693E+03  0.12663039693E+03  0.00000000000E+00 0. -1.
         23    2    1    2    0    0  0.12261804516E+03 -0.74797110131E+02  0.18060129333E+03  0.26239272849E+03  0.12491326643E+03 0.  0.
         23    2    1    2    0    0 -0.12261804516E+03  0.74797110131E+02 -0.10243437122E+01  0.17044501498E+03  0.91764160586E+02 0.  0.
          5    1    3    3  502    0  0.48735517793E+02  0.28251821269E+02  0.90750580525E+02  0.10691620067E+03  0.47000000000E+01 0. -1.
         -5    1    3    3    0  502  0.73882527369E+02 -0.10304893140E+03  0.89850712806E+02  0.15547652783E+03  0.47000000000E+01 0. -1.
        -11    1    4    4    0    0 -0.77123536126E+02  0.64230462350E+02  0.40228958059E+02  0.10812937244E+03  0.00000000000E+00 0.  1.
         11    1    4    4    0    0 -0.45494509036E+02  0.10566647781E+02 -0.41253301772E+02  0.62315642537E+02  0.00000000000E+00 0. -1.
<mgrwt>
<rscale>  0 0.18516494E+03</rscale>
<asrwt>0</asrwt>
<pdfrwt beam="2">  1        4 0.19481600E-01 0.19034999E+03</pdfrwt>
<pdfrwt beam="1">  1       -4 0.47108822E-01 0.19034999E+03</pdfrwt>
<totfact> 0.18291519E+02</totfact>
</mgrwt>
</event>
<event>
 8    1  0.1020295E-005  0.1326786E+03  0.7546771E-02  0.1236069E+00
         -1   -1    0    0    0  501 -0.00000000000E+00  0.00000000000E+00  0.10697514911E+03  0.10697514911E+03  0.00000000000E+00 0.  1.
          1   -1    0    0  501    0  0.00000000000E+00 -0.00000000000E+00 -0.12988235239E+03  0.12988235239E+03  0.00000000000E+00 0. -1.
         23    2    1    2    0    0  0.43911727108E+02 -0.70190944579E+01 -0.41700310994E+01  0.13274416260E+03  0.12500446424E+03 0.  0.
         23    2    1    2    0    0 -0.43911727108E+02  0.70190944579E+01 -0.18737172182E+02  0.10411333890E+03  0.92255071682E+02 0.  0.
          5    1    3    3  502    0 -0.24059895337E+01 -0.32505703811E+02  0.48072670587E+02  0.58270757874E+02  0.47000000000E+01 0.  1.
         -5    1    3    3    0  502  0.46317716642E+02  0.25486609353E+02 -0.52242701687E+02  0.74473404721E+02  0.47000000000E+01 0.  1.
        -11    1    4    4    0    0 -0.60879506817E+02  0.24842196521E+02  0.97469345223E+01  0.66471436052E+02  0.00000000000E+00 0.  1.
         11    1    4    4    0    0  0.16967779708E+02 -0.17823102063E+02 -0.28484106704E+02  0.37641902849E+02  0.00000000000E+00 0. -1.
<mgrwt>
<rscale>  0 0.12436265E+03</rscale>
<asrwt>0</asrwt>
<pdfrwt beam="2">  1        1 0.19981900E-01 0.13267865E+03</pdfrwt>
<pdfrwt beam="1">  1       -1 0.16457715E-01 0.13267865E+03</pdfrwt>
<totfact> 0.67055179E+03</totfact>
</mgrwt>
</event>
<event>
 8    1  0.1020295E-005  0.2151542E+03  0.7546771E-02  0.1141182E+00
          1   -1    0    0  501    0  0.00000000000E+00  0.00000000000E+00  0.48049619608E+03  0.48049619608E+03  0.00000000000E+00 0. -1.
         -1   -1    0    0    0  501 -0.00000000000E+00 -0.00000000000E+00 -0.23256461385E+03  0.23256461385E+03  0.00000000000E+00 0.  1.
         23    2    1    2    0    0 -0.76386528695E+02  0.15757878197E+03 -0.15455600125E+03  0.26491299425E+03  0.12500145081E+03 0.  0.
         23    2    1    2    0    0  0.76386528695E+02 -0.15757878197E+03  0.40248758347E+03  0.44814781569E+03  0.90411479149E+02 0.  0.
          5    1    3    3  502    0 -0.28369910214E+02  0.95076324744E+02 -0.15715348014E+03  0.18591305939E+03  0.47000000000E+01 0.  1.
         -5    1    3    3    0  502 -0.48016618482E+02  0.62502457228E+02  0.25974788930E+01  0.78999934852E+02  0.47000000000E+01 0.  1.
        -11    1    4    4    0    0  0.48336825792E+02 -0.27119645261E+02  0.18368573868E+03  0.19186551144E+03  0.00000000000E+00 0.  1.
         11    1    4    4    0    0  0.28049702903E+02 -0.13045913671E+03  0.21880184480E+03  0.25628230425E+03  0.00000000000E+00 0. -1.
<mgrwt>
<rscale>  0 0.21048570E+03</rscale>
<asrwt>0</asrwt>
<pdfrwt beam="1">  1        1 0.73922492E-01 0.21515422E+03</pdfrwt>
<pdfrwt beam="2">  1       -1 0.35779171E-01 0.21515422E+03</pdfrwt>
<totfact> 0.36248535E+02</totfact>
</mgrwt>
</event>
<event>
 8    1  0.2037332E-005  0.1417701E+03  0.7546771E-02  0.1217877E+00
         -2   -1    0    0    0  501 -0.00000000000E+00  0.00000000000E+00  0.13093887116E+02  0.13093887116E+02  0.00000000000E+00 0.  1.
          2   -1    0    0  501    0  0.00000000000E+00 -0.00000000000E+00 -0.13330308846E+04  0.13330308846E+04  0.00000000000E+00 0. -1.
         23    2    1    2    0    0  0.39826991344E+02  0.53732680581E+02 -0.70340242057E+03  0.71754701758E+03  0.12500146788E+03 0.  0.
         23    2    1    2    0    0 -0.39826991344E+02 -0.53732680581E+02 -0.61653457689E+03  0.62857775412E+03  0.10257542718E+03 0.  0.
          5    1    3    3  502    0  0.58056536603E+02 -0.22998462883E+02 -0.29521927791E+03  0.30178800968E+03  0.47000000000E+01 0.  1.
         -5    1    3    3    0  502 -0.18229545259E+02  0.76731143464E+02 -0.40818314265E+03  0.41575900789E+03  0.47000000000E+01 0.  1.
        -11    1    4    4    0    0 -0.22127087807E+02 -0.84031181514E+02 -0.46309002745E+03  0.47117217766E+03  0.00000000000E+00 0.  1.
         11    1    4    4    0    0 -0.17699903537E+02  0.30298500933E+02 -0.15344454945E+03  0.15740557645E+03  0.00000000000E+00 0. -1.
<mgrwt>
<rscale>  0 0.13667282E+03</rscale>
<asrwt>0</asrwt>
<pdfrwt beam="2">  1        2 0.20508173E+00 0.14177009E+03</pdfrwt>
<pdfrwt beam="1">  1       -2 0.20144437E-02 0.14177009E+03</pdfrwt>
<totfact> 0.12487882E+04</totfact>
</mgrwt>
</event>
<event>
 7    1  0.1020295E-005  0.1393365E+03  0.7546771E-02  0.1234523E+00
          3   -1    0    0  501    0  0.00000000000E+00  0.00000000000E+00  0.74399695275E+03  0.74399695275E+03  0.00000000000E+00 0. -1.
         -3   -1    0    0    0  501 -0.00000000000E+00 -0.00000000000E+00 -0.20147901450E+02  0.20147901450E+02  0.00000000000E+00 0.  1.
         23    2    1    2    0    0  0.26274536885E+01  0.45051919596E+02  0.42101561221E+03  0.43079404803E+03  0.79327089450E+02 0.  0.
          5    1    1    2  502    0  0.60346380062E+02 -0.20880997571E+02  0.20232216692E+03  0.21221227786E+03  0.47000000000E+01 0. -1.
         -5    1    1    2    0  502 -0.62973833751E+02 -0.24170922026E+02  0.10051127217E+03  0.12113852831E+03  0.47000000000E+01 0.  1.
        -11    1    3    3    0    0  0.37427386251E+02  0.41844712717E+02  0.27234395346E+03  0.27807016778E+03  0.00000000000E+00 0. -1.
         11    1    3    3    0    0 -0.34799932563E+02  0.32072068792E+01  0.14867165875E+03  0.15272388025E+03  0.00000000000E+00 0.  1.
<mgrwt>
<rscale>  0 0.12535026E+03</rscale>
<asrwt>0</asrwt>
<pdfrwt beam="1">  1        3 0.11446105E+00 0.13933653E+03</pdfrwt>
<pdfrwt beam="2">  1       -3 0.30996777E-02 0.13933653E+03</pdfrwt>
<totfact> 0.74605014E+02</totfact>
</mgrwt>
</event>
<event>
 8    1  0.1020295E-005  0.1602431E+03  0.7546771E-02  0.1196390E+00
          1   -1    0    0  501    0  0.00000000000E+00  0.00000000000E+00  0.44224044814E+03  0.44224044814E+03  0.00000000000E+00 0. -1.
         -1   -1    0    0    0  501 -0.00000000000E+00 -0.00000000000E+00 -0.49211428551E+02  0.49211428551E+02  0.00000000000E+00 0.  1.
         23    2    1    2    0    0  0.88292833518E+02  0.47530562268E+02  0.20209399394E+03  0.25791436964E+03  0.12499224328E+03 0.  0.
         23    2    1    2    0    0 -0.88292833518E+02 -0.47530562268E+02  0.19093502565E+03  0.23353750706E+03  0.89603595802E+02 0.  0.
          5    1    3    3  502    0  0.11337680213E+03  0.39292368669E+02  0.19685391491E+03  0.23058998962E+03  0.47000000000E+01 0.  1.
         -5    1    3    3    0  502 -0.25083968611E+02  0.82381935985E+01  0.52400790240E+01  0.27324380016E+02  0.47000000000E+01 0.  1.
        -11    1    4    4    0    0 -0.14797285467E+02 -0.33184747669E+02  0.99489667544E+01  0.37671860513E+02  0.00000000000E+00 0.  1.
         11    1    4    4    0    0 -0.73495548051E+02 -0.14345814599E+02  0.18098605890E+03  0.19586564654E+03  0.00000000000E+00 0. -1.
<mgrwt>
<rscale>  0 0.15337162E+03</rscale>
<asrwt>0</asrwt>
<pdfrwt beam="1">  1        1 0.68036989E-01 0.16024306E+03</pdfrwt>
<pdfrwt beam="2">  1       -1 0.75709893E-02 0.16024306E+03</pdfrwt>
<totfact> 0.48395303E+03</totfact>
</mgrwt>
</event>
<event>
 8    1  0.1020295E-005  0.1730596E+03  0.7546771E-02  0.1180892E+00
          2   -1    0    0  501    0  0.00000000000E+00  0.00000000000E+00  0.40324740074E+03  0.40324740074E+03  0.00000000000E+00 0. -1.
         -2   -1    0    0    0  501 -0.00000000000E+00 -0.00000000000E+00 -0.65271911759E+02  0.65271911759E+02  0.00000000000E+00 0.  1.
         23    2    1    2    0    0 -0.11726626551E+03 -0.23899501804E+02  0.16293442180E+03  0.23769147183E+03  0.12500818676E+03 0.  0.
         23    2    1    2    0    0  0.11726626551E+03  0.23899501804E+02  0.17504106718E+03  0.23082784067E+03  0.91211587076E+02 0.  0.
          5    1    3    3  502    0 -0.74150382475E+01  0.25991770914E+02 -0.78509508212E+01  0.28535633448E+02  0.47000000000E+01 0. -1.
         -5    1    3    3    0  502 -0.10985122727E+03 -0.49891272718E+02  0.17078537262E+03  0.20915583838E+03  0.47000000000E+01 0. -1.
        -11    1    4    4    0    0  0.32018583291E+02  0.47161115103E+02  0.99052707764E+02  0.11428385437E+03  0.00000000000E+00 0. -1.
         11    1    4    4    0    0  0.85247682222E+02 -0.23261613299E+02  0.75988359412E+02  0.11654398630E+03  0.00000000000E+00 0.  1.
<mgrwt>
<rscale>  0 0.16711342E+03</rscale>
<asrwt>0</asrwt>
<pdfrwt beam="1">  1        2 0.62038060E-01 0.17305956E+03</pdfrwt>
<pdfrwt beam="2">  1       -2 0.10041833E-01 0.17305956E+03</pdfrwt>
<totfact> 0.50791305E+03</totfact>
</mgrwt>
</event>
<event>
 8    1  0.1020295E-005  0.1589166E+03  0.7546771E-02  0.1198144E+00
          2   -1    0    0  501    0  0.00000000000E+00  0.00000000000E+00  0.16718941856E+03  0.16718941856E+03  0.00000000000E+00 0. -1.
         -2   -1    0    0    0  501 -0.00000000000E+00 -0.00000000000E+00 -0.14588114472E+03  0.14588114472E+03  0.00000000000E+00 0.  1.
         23    2    1    2    0    0 -0.54717302339E+02 -0.81451832292E+02 -0.44395671564E+02  0.16500142839E+03  0.12500444616E+03 0.  0.
         23    2    1    2    0    0  0.54717302339E+02  0.81451832292E+02  0.65703945406E+02  0.14806913489E+03  0.89325674393E+02 0.  0.
          5    1    3    3  502    0 -0.18041637814E+02  0.29404892595E+02 -0.32341686035E+02  0.47520764505E+02  0.47000000000E+01 0. -1.
         -5    1    3    3    0  502 -0.36675664524E+02 -0.11085672489E+03 -0.12053985529E+02  0.11748066389E+03  0.47000000000E+01 0. -1.
        -11    1    4    4    0    0  0.49420501641E+02  0.62684041135E+02  0.30363128089E+00  0.79823349888E+02  0.00000000000E+00 0.  1.
         11    1    4    4    0    0  0.52968006974E+01  0.18767791157E+02  0.65400314125E+02  0.68245785000E+02  0.00000000000E+00 0. -1.
<mgrwt>
<rscale>  0 0.15191096E+03</rscale>
<asrwt>0</asrwt>
<pdfrwt beam="1">  1        2 0.25721449E-01 0.15891663E+03</pdfrwt>
<pdfrwt beam="2">  1       -2 0.22443253E-01 0.15891663E+03</pdfrwt>
<totfact> 0.34767333E+03</totfact>
</mgrwt>
</event>
<event>
 8    1  0.1020295E-005  0.1462995E+03  0.7546771E-02  0.1213808E+00
          1   -1    0    0  501    0  0.00000000000E+00  0.00000000000E+00  0.12697835815E+03  0.12697835815E+03  0.00000000000E+00 0. -1.
         -1   -1    0    0    0  501 -0.00000000000E+00 -0.00000000000E+00 -0.14661748724E+03  0.14661748724E+03  0.00000000000E+00 0.  1.
         23    2    1    2    0    0  0.66506662158E+02  0.36633608161E+02 -0.37033191222E+02  0.15091389296E+03  0.12505354244E+03 0.  0.
         23    2    1    2    0    0 -0.66506662158E+02 -0.36633608161E+02  0.17394062137E+02  0.12268195243E+03  0.94779484579E+02 0.  0.
          5    1    3    3  502    0  0.84697102103E+02  0.53642169152E+02  0.64630734564E+01  0.10057307162E+03  0.47000000000E+01 0.  1.
         -5    1    3    3    0  502 -0.18190439945E+02 -0.17008560991E+02 -0.43496264679E+02  0.50340821342E+02  0.47000000000E+01 0.  1.
        -11    1    4    4    0    0  0.24441598811E+02 -0.44697741263E+01  0.13035108030E+01  0.24881112788E+02  0.00000000000E+00 0.  1.
         11    1    4    4    0    0 -0.90948260969E+02 -0.32163834035E+02  0.16090551334E+02  0.97800839646E+02  0.00000000000E+00 0. -1.
<mgrwt>
<rscale>  0 0.13964485E+03</rscale>
<asrwt>0</asrwt>
<pdfrwt beam="1">  1        1 0.19535132E-01 0.14629951E+03</pdfrwt>
<pdfrwt beam="2">  1       -1 0.22556536E-01 0.14629951E+03</pdfrwt>
<totfact> 0.41911393E+03</totfact>
</mgrwt>
</event>
<event>
 8    1  0.1020295E-005  0.1435328E+03  0.7546771E-02  0.1219166E+00
          2   -1    0    0  501    0  0.00000000000E+00  0.00000000000E+00  0.12150884112E+03  0.12150884112E+03  0.00000000000E+00 0. -1.
         -2   -1    0    0    0  501 -0.00000000000E+00 -0.00000000000E+00 -0.13749701408E+03  0.13749701408E+03  0.00000000000E+00 0.  1.
         23    2    1    2    0    0  0.66430921329E+02  0.23299026982E+02 -0.13087936078E+02  0.14412831987E+03  0.12508303862E+03 0.  0.
         23    2    1    2    0    0 -0.66430921329E+02 -0.23299026982E+02 -0.29002368840E+01  0.11487753532E+03  0.90733261712E+02 0.  0.
          5    1    3    3  502    0  0.89455528370E+02  0.52621230306E+02  0.12780470042E+01  0.10389903194E+03  0.47000000000E+01 0.  1.
         -5    1    3    3    0  502 -0.23024607041E+02 -0.29322203324E+02 -0.14365983083E+02  0.40229287927E+02  0.47000000000E+01 0.  1.
        -11    1    4    4    0    0  0.87593876984E+01  0.22787905332E+02 -0.10042317340E+02  0.26398174933E+02  0.00000000000E+00 0.  1.
         11    1    4    4    0    0 -0.75190309027E+02 -0.46086932313E+02  0.71420804560E+01  0.88479360389E+02  0.00000000000E+00 0. -1.
<mgrwt>
<rscale>  0 0.13574931E+03</rscale>
<asrwt>0</asrwt>
<pdfrwt beam="1">  1        2 0.18693668E-01 0.14353285E+03</pdfrwt>
<pdfrwt beam="2">  1       -2 0.21153387E-01 0.14353285E+03</pdfrwt>
<totfact> 0.54736787E+03</totfact>
</mgrwt>
</event>
<event>
 8    1  0.1020295E-005  0.1296598E+03  0.7546771E-02  0.1242659E+00
          1   -1    0    0  501    0  0.00000000000E+00  0.00000000000E+00  0.19173106420E+03  0.19173106420E+03  0.00000000000E+00 0. -1.
         -1   -1    0    0    0  501 -0.00000000000E+00 -0.00000000000E+00 -0.66527248732E+02  0.66527248732E+02  0.00000000000E+00 0.  1.
         23    2    1    2    0    0  0.32579651969E+02  0.11088978639E+02  0.65970490325E+02  0.14547775706E+03  0.12500909181E+03 0.  0.
         23    2    1    2    0    0 -0.32579651969E+02 -0.11088978639E+02  0.59233325140E+02  0.11278055587E+03  0.89590556452E+02 0.  0.
          5    1    3    3  502    0 -0.42634437722E+02  0.48427512425E+01 -0.28109548923E+01  0.43256664074E+02  0.47000000000E+01 0.  1.
         -5    1    3    3    0  502  0.75214089691E+02  0.62462273968E+01  0.68781445217E+02  0.10222109298E+03  0.47000000000E+01 0.  1.
        -11    1    4    4    0    0 -0.42651347946E+01 -0.39555663836E+02  0.60730770502E+02  0.72602123950E+02  0.00000000000E+00 0. -1.
         11    1    4    4    0    0 -0.28314517175E+02  0.28466685196E+02 -0.14974453615E+01  0.40178431920E+02  0.00000000000E+00 0.  1.
<mgrwt>
<rscale>  0 0.12026566E+03</rscale>
<asrwt>0</asrwt>
<pdfrwt beam="1">  1        1 0.29497087E-01 0.12965983E+03</pdfrwt>
<pdfrwt beam="2">  1       -1 0.10234961E-01 0.12965983E+03</pdfrwt>
<totfact> 0.85713271E+03</totfact>
</mgrwt>
</event>
<event>
 8    1  0.1020295E-005  0.1704741E+03  0.7546771E-02  0.1180769E+00
          1   -1    0    0  501    0  0.00000000000E+00  0.00000000000E+00  0.70638279474E+02  0.70638279474E+02  0.00000000000E+00 0. -1.
         -1   -1    0    0    0  501 -0.00000000000E+00 -0.00000000000E+00 -0.38566660362E+03  0.38566660362E+03  0.00000000000E+00 0.  1.
         23    2    1    2    0    0 -0.12214321639E+02 -0.11527102164E+03 -0.18711217762E+03  0.25312521376E+03  0.12499923498E+03 0.  0.
         23    2    1    2    0    0  0.12214321639E+02  0.11527102164E+03 -0.12791614653E+03  0.20317966933E+03  0.10715801139E+03 0.  0.
          5    1    3    3  502    0  0.42284896558E+02 -0.63518817482E+02 -0.36457057737E+02  0.84698640545E+02  0.47000000000E+01 0. -1.
         -5    1    3    3    0  502 -0.54499218197E+02 -0.51752204159E+02 -0.15065511988E+03  0.16842657322E+03  0.47000000000E+01 0. -1.
        -11    1    4    4    0    0 -0.46472373065E+02  0.68466992662E+02 -0.64650688764E+02  0.10501010475E+03  0.00000000000E+00 0.  1.
         11    1    4    4    0    0  0.58686694704E+02  0.46804028980E+02 -0.63265457765E+02  0.98169564582E+02  0.00000000000E+00 0. -1.
<mgrwt>
<rscale>  0 0.16722878E+03</rscale>
<asrwt>0</asrwt>
<pdfrwt beam="1">  1        1 0.10867428E-01 0.17047406E+03</pdfrwt>
<pdfrwt beam="2">  1       -1 0.59333323E-01 0.17047406E+03</pdfrwt>
<totfact> 0.16756008E+03</totfact>
</mgrwt>
</event>
<event>
 8    1  0.1020295E-005  0.1338042E+03  0.7546771E-02  0.1239171E+00
         -2   -1    0    0    0  501 -0.00000000000E+00  0.00000000000E+00  0.20439671306E+03  0.20439671306E+03  0.00000000000E+00 0.  1.
          2   -1    0    0  501    0  0.00000000000E+00 -0.00000000000E+00 -0.84529647101E+02  0.84529647101E+02  0.00000000000E+00 0. -1.
         23    2    1    2    0    0 -0.47686629355E+02  0.21713904549E+01  0.13935297462E+03  0.19319112711E+03  0.12499932201E+03 0.  0.
         23    2    1    2    0    0  0.47686629355E+02 -0.21713904549E+01 -0.19485908667E+02  0.95735233047E+02  0.80664767118E+02 0.  0.
          5    1    3    3  502    0 -0.30934638203E+01 -0.57646230403E+02  0.73386854751E+02  0.93489987958E+02  0.47000000000E+01 0.  1.
         -5    1    3    3    0  502 -0.44593165535E+02  0.59817620858E+02  0.65966119873E+02  0.99701139154E+02  0.47000000000E+01 0.  1.
        -11    1    4    4    0    0  0.14701279696E+02  0.25514603532E+02  0.21362137037E+02  0.36379438106E+02  0.00000000000E+00 0.  1.
         11    1    4    4    0    0  0.32985349658E+02 -0.27685993987E+02 -0.40848045704E+02  0.59355794940E+02  0.00000000000E+00 0. -1.
<mgrwt>
<rscale>  0 0.12241180E+03</rscale>
<asrwt>0</asrwt>
<pdfrwt beam="2">  1        2 0.13004561E-01 0.13380419E+03</pdfrwt>
<pdfrwt beam="1">  1       -2 0.31445648E-01 0.13380419E+03</pdfrwt>
<totfact> 0.41456970E+03</totfact>
</mgrwt>
</event>
<event>
 8    1  0.1020295E-005  0.1603183E+03  0.7546771E-02  0.1196037E+00
         -1   -1    0    0    0  501 -0.00000000000E+00  0.00000000000E+00  0.58843014362E+02  0.58843014362E+02  0.00000000000E+00 0.  1.
          1   -1    0    0  501    0  0.00000000000E+00 -0.00000000000E+00 -0.37340368427E+03  0.37340368427E+03  0.00000000000E+00 0. -1.
         23    2    1    2    0    0  0.19290589653E+02 -0.98511454220E+02 -0.15452619115E+03  0.22266637843E+03  0.12500135547E+03 0.  0.
         23    2    1    2    0    0 -0.19290589653E+02  0.98511454220E+02 -0.16003447876E+03  0.20958032021E+03  0.90753747933E+02 0.  0.
          5    1    3    3  502    0  0.20867151328E+02 -0.11543030598E+03 -0.16474151676E+03  0.20229051111E+03  0.47000000000E+01 0.  1.
         -5    1    3    3    0  502 -0.15765616742E+01  0.16918851761E+02  0.10215325604E+02  0.20375867315E+02  0.47000000000E+01 0.  1.
        -11    1    4    4    0    0 -0.99072828166E+01  0.16731696258E+02  0.91069448408E+01  0.21471850335E+02  0.00000000000E+00 0.  1.
         11    1    4    4    0    0 -0.93833068369E+01  0.81779757962E+02 -0.16914142360E+03  0.18810846987E+03  0.00000000000E+00 0. -1.
<mgrwt>
<rscale>  0 0.15366749E+03</rscale>
<asrwt>0</asrwt>
<pdfrwt beam="2">  1        1 0.57446719E-01 0.16031835E+03</pdfrwt>
<pdfrwt beam="1">  1       -1 0.90527717E-02 0.16031835E+03</pdfrwt>
<totfact> 0.45749198E+03</totfact>
</mgrwt>
</event>
<event>
 8    1  0.1020295E-005  0.1316561E+03  0.7546771E-02  0.1238239E+00
         -2   -1    0    0    0  501 -0.00000000000E+00  0.00000000000E+00  0.94722146651E+02  0.94722146651E+02  0.00000000000E+00 0. -1.
          2   -1    0    0  501    0  0.00000000000E+00 -0.00000000000E+00 -0.14244947865E+03  0.14244947865E+03  0.00000000000E+00 0.  1.
         23    2    1    2    0    0  0.20798577240E+00 -0.41326911965E+02 -0.20306149715E+02  0.13321281939E+03  0.12500143449E+03 0.  0.
         23    2    1    2    0    0 -0.20798577240E+00  0.41326911965E+02 -0.27421182279E+02  0.10395880590E+03  0.91364955954E+02 0.  0.
          5    1    3    3  502    0  0.43321291229E+02  0.22267187944E+02 -0.27102054755E+02  0.55939014155E+02  0.47000000000E+01 0.  1.
         -5    1    3    3    0  502 -0.43113305457E+02 -0.63594099909E+02  0.67959050404E+01  0.77273805238E+02  0.47000000000E+01 0.  1.
        -11    1    4    4    0    0 -0.26664467442E+02  0.19100607044E+02 -0.52052473135E+02  0.61524685882E+02  0.00000000000E+00 0.  1.
         11    1    4    4    0    0  0.26456481669E+02  0.22226304921E+02  0.24631290855E+02  0.42434120021E+02  0.00000000000E+00 0. -1.
<mgrwt>
<rscale>  0 0.12299321E+03</rscale>
<asrwt>0</asrwt>
<pdfrwt beam="2">  1        2 0.21915304E-01 0.13165605E+03</pdfrwt>
<pdfrwt beam="1">  1       -2 0.14572638E-01 0.13165605E+03</pdfrwt>
<totfact> 0.84565209E+03</totfact>
</mgrwt>
</event>
<event>
 7    1  0.1020295E-005  0.1332022E+03  0.7546771E-02  0.1238861E+00
         -1   -1    0    0    0  501 -0.00000000000E+00  0.00000000000E+00  0.18523769889E+03  0.18523769889E+03  0.00000000000E+00 0.  1.
          1   -1    0    0  501    0  0.00000000000E+00 -0.00000000000E+00 -0.22086252622E+03  0.22086252622E+03  0.00000000000E+00 0. -1.
         23    2    1    2    0    0 -0.56154294509E+01 -0.22160453273E+02 -0.18360074459E+03  0.20700302668E+03  0.92835342967E+02 0.  0.
          5    1    1    2  502    0 -0.33694078433E+02 -0.28636268071E+02  0.82272645687E+01  0.45222833312E+02  0.47000000000E+01 0. -1.
         -5    1    1    2    0  502  0.39309507884E+02  0.50796721344E+02  0.13974865269E+03  0.15387436511E+03  0.47000000000E+01 0.  1.
        -11    1    3    3    0    0  0.69748759781E+01  0.33149961540E+02 -0.10310937557E+03  0.10853161832E+03  0.00000000000E+00 0.  1.
         11    1    3    3    0    0 -0.12590305429E+02 -0.55310414813E+02 -0.80491369021E+02  0.98471408360E+02  0.00000000000E+00 0. -1.
<mgrwt>
<rscale>  0 0.12260490E+03</rscale>
<asrwt>0</asrwt>
<pdfrwt beam="2">  1        1 0.33978850E-01 0.13320219E+03</pdfrwt>
<pdfrwt beam="1">  1       -1 0.28498107E-01 0.13320219E+03</pdfrwt>
<totfact> 0.14182072E+03</totfact>
</mgrwt>
</event>
<event>
 8    1  0.1020295E-005  0.1489592E+03  0.7546771E-02  0.1207024E+00
         -2   -1    0    0    0  501 -0.00000000000E+00  0.00000000000E+00  0.23148461398E+02  0.23148461398E+02  0.00000000000E+00 0.  1.
          2   -1    0    0  501    0  0.00000000000E+00 -0.00000000000E+00 -0.90831801961E+03  0.90831801961E+03  0.00000000000E+00 0. -1.
         23    2    1    2    0    0 -0.45772219582E+02  0.85569165958E+02 -0.35732224607E+03  0.38712791703E+03  0.11301176204E+03 0.  0.
         23    2    1    2    0    0  0.45772219582E+02 -0.85569165958E+02 -0.52784731213E+03  0.54433856397E+03  0.90909345230E+02 0.  0.
          5    1    3    3  502    0 -0.17108099080E+02  0.87319884582E+02 -0.34358089680E+03  0.35494699878E+03  0.47000000000E+01 0. -1.
         -5    1    3    3    0  502 -0.28664120501E+02 -0.17507186240E+01 -0.13741349277E+02  0.32180918255E+02  0.47000000000E+01 0.  1.
        -11    1    4    4    0    0  0.64143078088E+02 -0.50818894777E+02 -0.44715382873E+03  0.45458051111E+03  0.00000000000E+00 0. -1.
         11    1    4    4    0    0 -0.18370858507E+02 -0.34750271181E+02 -0.80693483402E+02  0.89758052858E+02  0.00000000000E+00 0.  1.
<mgrwt>
<rscale>  0 0.14479078E+03</rscale>
<asrwt>0</asrwt>
<pdfrwt beam="2">  1        2 0.13974122E+00 0.14895918E+03</pdfrwt>
<pdfrwt beam="1">  1       -2 0.35613021E-02 0.14895918E+03</pdfrwt>
<totfact> 0.95145304E+03</totfact>
</mgrwt>
</event>
<event>
 8    1  0.1020295E-005  0.1276854E+03  0.7546771E-02  0.1245534E+00
          1   -1    0    0  501    0  0.00000000000E+00  0.00000000000E+00  0.17651604074E+02  0.17651604074E+02  0.00000000000E+00 0. -1.
         -1   -1    0    0    0  501 -0.00000000000E+00 -0.00000000000E+00 -0.73652466951E+03  0.73652466951E+03  0.00000000000E+00 0.  1.
         23    2    1    2    0    0  0.23659969258E+02  0.10868825757E+02 -0.49159989130E+03  0.50791141713E+03  0.12500251600E+03 0.  0.
         23    2    1    2    0    0 -0.23659969258E+02 -0.10868825757E+02 -0.22727317414E+03  0.24626485645E+03  0.91188586586E+02 0.  0.
          5    1    3    3  502    0  0.52821085894E+02  0.23948883589E+02 -0.10566317049E+03  0.12062508751E+03  0.47000000000E+01 0. -1.
         -5    1    3    3    0  502 -0.29161116636E+02 -0.13080057832E+02 -0.38593672082E+03  0.38728632962E+03  0.47000000000E+01 0. -1.
        -11    1    4    4    0    0  0.27685838019E+02  0.18050810904E+02 -0.11239367325E+03  0.11715235887E+03  0.00000000000E+00 0.  1.
         11    1    4    4    0    0 -0.51345807277E+02 -0.28919636661E+02 -0.11487950088E+03  0.12911249758E+03  0.00000000000E+00 0. -1.
<mgrwt>
<rscale>  0 0.11853474E+03</rscale>
<asrwt>0</asrwt>
<pdfrwt beam="1">  1        1 0.27156325E-02 0.12768537E+03</pdfrwt>
<pdfrwt beam="2">  1       -1 0.11331144E+00 0.12768537E+03</pdfrwt>
<totfact> 0.28534850E+03</totfact>
</mgrwt>
</event>
<event>
 8    1  0.1020295E-005  0.2467084E+03  0.7546771E-02  0.1118040E+00
          1   -1    0    0  501    0  0.00000000000E+00  0.00000000000E+00  0.16302251519E+03  0.16302251519E+03  0.00000000000E+00 0. -1.
         -1   -1    0    0    0  501 -0.00000000000E+00 -0.00000000000E+00 -0.38243633526E+03  0.38243633526E+03  0.00000000000E+00 0.  1.
         23    2    1    2    0    0 -0.50139535834E+02 -0.20669006457E+03 -0.19270520772E+03  0.31305004039E+03  0.12502109766E+03 0.  0.
         23    2    1    2    0    0  0.50139535834E+02  0.20669006457E+03 -0.26708612348E+02  0.23240881007E+03  0.89809516084E+02 0.  0.
          5    1    3    3  502    0 -0.24593716263E+02 -0.51610539135E+02  0.81798183636E+01  0.57943921664E+02  0.47000000000E+01 0.  1.
         -5    1    3    3    0  502 -0.25545819572E+02 -0.15507952543E+03 -0.20088502608E+03  0.25510611872E+03  0.47000000000E+01 0.  1.
        -11    1    4    4    0    0  0.32253689033E+01  0.94336069538E+02  0.28672554836E+02  0.98649948917E+02  0.00000000000E+00 0. -1.
         11    1    4    4    0    0  0.46914166931E+02  0.11235399503E+03 -0.55381167184E+02  0.13375886115E+03  0.00000000000E+00 0.  1.
<mgrwt>
<rscale>  0 0.24264948E+03</rscale>
<asrwt>0</asrwt>
<pdfrwt beam="1">  1        1 0.25080387E-01 0.24670839E+03</pdfrwt>
<pdfrwt beam="2">  1       -1 0.58836359E-01 0.24670839E+03</pdfrwt>
<totfact> 0.57674083E+02</totfact>
</mgrwt>
</event>
<event>
 8    1  0.1020295E-005  0.2074689E+03  0.7546771E-02  0.1147941E+00
         -1   -1    0    0    0  501 -0.00000000000E+00  0.00000000000E+00  0.29084921946E+02  0.29084921946E+02  0.00000000000E+00 0.  1.
          1   -1    0    0  501    0  0.00000000000E+00 -0.00000000000E+00 -0.13591913827E+04  0.13591913827E+04  0.00000000000E+00 0. -1.
         23    2    1    2    0    0 -0.15679821498E+03 -0.53236230479E+02 -0.61127753321E+03  0.64552581078E+03  0.12499429314E+03 0.  0.
         23    2    1    2    0    0  0.15679821498E+03  0.53236230479E+02 -0.71882892756E+03  0.74275049388E+03  0.86853282073E+02 0.  0.
          5    1    3    3  502    0  0.10206890943E+02  0.15273183330E+02 -0.21223556990E+02  0.28460149737E+02  0.47000000000E+01 0.  1.
         -5    1    3    3    0  502 -0.16700510592E+03 -0.68509413808E+02 -0.59005397622E+03  0.61706566104E+03  0.47000000000E+01 0.  1.
        -11    1    4    4    0    0  0.35708213118E+02  0.39675270301E+02 -0.11546174607E+03  0.12720305957E+03  0.00000000000E+00 0.  1.
         11    1    4    4    0    0  0.12109000186E+03  0.13560960177E+02 -0.60336718149E+03  0.61554743431E+03  0.00000000000E+00 0. -1.
<mgrwt>
<rscale>  0 0.20214652E+03</rscale>
<asrwt>0</asrwt>
<pdfrwt beam="2">  1        1 0.20910637E+00 0.20746891E+03</pdfrwt>
<pdfrwt beam="1">  1       -1 0.44746034E-02 0.20746891E+03</pdfrwt>
<totfact> 0.18496886E+03</totfact>
</mgrwt>
</event>
<event>
 8    1  0.1020295E-005  0.1259039E+03  0.7546771E-02  0.1247896E+00
          1   -1    0    0  501    0  0.00000000000E+00  0.00000000000E+00  0.18105957023E+03  0.18105957023E+03  0.00000000000E+00 0. -1.
         -1   -1    0    0    0  501 -0.00000000000E+00 -0.00000000000E+00 -0.67122542565E+02  0.67122542565E+02  0.00000000000E+00 0.  1.
         23    2    1    2    0    0 -0.12792136220E+02 -0.77628241385E+01  0.59305130495E+02  0.13917214621E+03  0.12501154983E+03 0.  0.
         23    2    1    2    0    0  0.12792136220E+02  0.77628241385E+01  0.54631897171E+02  0.10900996659E+03  0.93137685386E+02 0.  0.
          5    1    3    3  502    0  0.40141267924E+02 -0.41646363216E+02  0.47627272296E+02  0.75074549789E+02  0.47000000000E+01 0. -1.
         -5    1    3    3    0  502 -0.52933404144E+02  0.33883539077E+02  0.11677858200E+02  0.64097596420E+02  0.47000000000E+01 0. -1.
        -11    1    4    4    0    0 -0.19943369274E+02  0.38450922585E+02  0.75453100495E+01  0.43967523575E+02  0.00000000000E+00 0.  1.
         11    1    4    4    0    0  0.32735505494E+02 -0.30688098446E+02  0.47086587122E+02  0.65042443012E+02  0.00000000000E+00 0. -1.
<mgrwt>
<rscale>  0 0.11713701E+03</rscale>
<asrwt>0</asrwt>
<pdfrwt beam="1">  1        1 0.27855318E-01 0.12590388E+03</pdfrwt>
<pdfrwt beam="2">  1       -1 0.10326545E-01 0.12590388E+03</pdfrwt>
<totfact> 0.90589836E+03</totfact>
</mgrwt>
</event>
<event>
 8    1  0.1020295E-005  0.1345677E+03  0.7546771E-02  0.1234358E+00
         -4   -1    0    0    0  501 -0.00000000000E+00  0.00000000000E+00  0.11504201491E+03  0.11504201491E+03  0.00000000000E+00 0.  1.
          4   -1    0    0  501    0  0.00000000000E+00 -0.00000000000E+00 -0.12135031023E+03  0.12135031023E+03  0.00000000000E+00 0. -1.
         23    2    1    2    0    0  0.14925297949E+02  0.47561415218E+02 -0.66691175628E+01  0.13473286392E+03  0.12499445890E+03 0.  0.
         23    2    1    2    0    0 -0.14925297949E+02 -0.47561415218E+02  0.36082223746E+00  0.10165946122E+03  0.88598324622E+02 0.  0.
          5    1    3    3  502    0  0.60880645170E+02 -0.81686990026E+01  0.31338737006E+01  0.61685425864E+02  0.47000000000E+01 0.  1.
         -5    1    3    3    0  502 -0.45955347221E+02  0.55730114221E+02 -0.98029912634E+01  0.73047438059E+02  0.47000000000E+01 0.  1.
        -11    1    4    4    0    0  0.23515504394E+02 -0.26483659523E+02 -0.31552816939E+02  0.47433568551E+02  0.00000000000E+00 0.  1.
         11    1    4    4    0    0 -0.38440802343E+02 -0.21077755695E+02  0.31913639177E+02  0.54225892666E+02  0.00000000000E+00 0. -1.
<mgrwt>
<rscale>  0 0.12545613E+03</rscale>
<asrwt>0</asrwt>
<pdfrwt beam="2">  1        4 0.18669278E-01 0.13456771E+03</pdfrwt>
<pdfrwt beam="1">  1       -4 0.17698772E-01 0.13456771E+03</pdfrwt>
<totfact> 0.11820597E+03</totfact>
</mgrwt>
</event>
<event>
 8    1  0.1020295E-005  0.1449906E+03  0.7546771E-02  0.1216760E+00
          1   -1    0    0  501    0  0.00000000000E+00  0.00000000000E+00  0.40009234556E+02  0.40009234556E+02  0.00000000000E+00 0. -1.
         -1   -1    0    0    0  501 -0.00000000000E+00 -0.00000000000E+00 -0.43538335819E+03  0.43538335819E+03  0.00000000000E+00 0.  1.
         23    2    1    2    0    0  0.63489529033E+02 -0.36966294250E+02 -0.24568116340E+03  0.28527441947E+03  0.12499933257E+03 0.  0.
         23    2    1    2    0    0 -0.63489529033E+02  0.36966294250E+02 -0.14969296023E+03  0.19011817328E+03  0.91320919074E+02 0.  0.
          5    1    3    3  502    0 -0.88977791869E+01  0.16142840152E+02 -0.15985068272E+03  0.16097854680E+03  0.47000000000E+01 0. -1.
         -5    1    3    3    0  502  0.72387308220E+02 -0.53109134402E+02 -0.85830480678E+02  0.12429587267E+03  0.47000000000E+01 0. -1.
        -11    1    4    4    0    0 -0.45796870057E+02  0.63360852555E+02 -0.13287080915E+03  0.15416420748E+03  0.00000000000E+00 0.  1.
         11    1    4    4    0    0 -0.17692658977E+02 -0.26394558305E+02 -0.16822151084E+02  0.35953965802E+02  0.00000000000E+00 0. -1.
<mgrwt>
<rscale>  0 0.13748047E+03</rscale>
<asrwt>0</asrwt>
<pdfrwt beam="1">  1        1 0.61552667E-02 0.14499055E+03</pdfrwt>
<pdfrwt beam="2">  1       -1 0.66982057E-01 0.14499055E+03</pdfrwt>
<totfact> 0.28283508E+03</totfact>
</mgrwt>
</event>
<event>
 8    1  0.1020295E-005  0.1266820E+03  0.7546771E-02  0.1247355E+00
         -2   -1    0    0    0  501 -0.00000000000E+00  0.00000000000E+00  0.39454218777E+02  0.39454218777E+02  0.00000000000E+00 0.  1.
          2   -1    0    0  501    0  0.00000000000E+00 -0.00000000000E+00 -0.37448059819E+03  0.37448059819E+03  0.00000000000E+00 0. -1.
         23    2    1    2    0    0  0.20545448120E+02  0.11875260737E+01 -0.10145124934E+03  0.16229809836E+03  0.12499916433E+03 0.  0.
         23    2    1    2    0    0 -0.20545448120E+02 -0.11875260737E+01 -0.23357513008E+03  0.25163671861E+03  0.91324537259E+02 0.  0.
          5    1    3    3  502    0 -0.10060812232E+01  0.22813349554E+01  0.29257172365E+02  0.29736994189E+02  0.47000000000E+01 0.  1.
         -5    1    3    3    0  502  0.21551529343E+02 -0.10938088816E+01 -0.13070842170E+03  0.13256110417E+03  0.47000000000E+01 0.  1.
        -11    1    4    4    0    0 -0.25467394081E+02 -0.37078537979E+02 -0.18857859613E+03  0.19386926796E+03  0.00000000000E+00 0.  1.
         11    1    4    4    0    0  0.49219459605E+01  0.35891011906E+02 -0.44996533948E+02  0.57767450653E+02  0.00000000000E+00 0. -1.
<mgrwt>
<rscale>  0 0.11745513E+03</rscale>
<asrwt>0</asrwt>
<pdfrwt beam="2">  1        2 0.57612398E-01 0.12668195E+03</pdfrwt>
<pdfrwt beam="1">  1       -2 0.60698800E-02 0.12668195E+03</pdfrwt>
<totfact> 0.11736776E+04</totfact>
</mgrwt>
</event>
<event>
 8    1  0.1020295E-005  0.1750274E+03  0.7546771E-02  0.1178603E+00
          2   -1    0    0  501    0  0.00000000000E+00  0.00000000000E+00  0.33644199959E+03  0.33644199959E+03  0.00000000000E+00 0.  1.
         -2   -1    0    0    0  501 -0.00000000000E+00 -0.00000000000E+00 -0.10283206682E+03  0.10283206682E+03  0.00000000000E+00 0. -1.
         23    2    1    2    0    0  0.66408622836E+02 -0.10296056924E+03  0.19607062958E+02  0.17612223450E+03  0.12499448213E+03 0.  0.
         23    2    1    2    0    0 -0.66408622836E+02  0.10296056924E+03  0.21400286981E+03  0.26315183191E+03  0.91873142663E+02 0.  0.
          5    1    3    3  502    0 -0.29037221167E+02 -0.55993290662E+02 -0.13381422992E+02  0.64649526631E+02  0.47000000000E+01 0.  1.
         -5    1    3    3    0  502  0.95445844003E+02 -0.46967278577E+02  0.32988485950E+02  0.11147270787E+03  0.47000000000E+01 0.  1.
        -11    1    4    4    0    0 -0.21445539212E+02  0.59448448645E+02  0.32292710365E+02  0.70970756943E+02  0.00000000000E+00 0. -1.
         11    1    4    4    0    0 -0.44963083624E+02  0.43512120595E+02  0.18171015945E+03  0.19218107496E+03  0.00000000000E+00 0.  1.
<mgrwt>
<rscale>  0 0.16927830E+03</rscale>
<asrwt>0</asrwt>
<pdfrwt beam="1">  1        2 0.51760307E-01 0.17502744E+03</pdfrwt>
<pdfrwt beam="2">  1       -2 0.15820318E-01 0.17502744E+03</pdfrwt>
<totfact> 0.29625480E+03</totfact>
</mgrwt>
</event>
<event>
 8    1  0.1020295E-005  0.1691272E+03  0.7546771E-02  0.1185203E+00
         -2   -1    0    0    0  501 -0.00000000000E+00  0.00000000000E+00  0.14697795154E+03  0.14697795154E+03  0.00000000000E+00 0.  1.
          2   -1    0    0  501    0  0.00000000000E+00 -0.00000000000E+00 -0.19507776372E+03  0.19507776372E+03  0.00000000000E+00 0. -1.
         23    2    1    2    0    0  0.11297665194E+03 -0.14721905291E+02  0.36427952052E+02  0.17300579568E+03  0.12499420495E+03 0.  0.
         23    2    1    2    0    0 -0.11297665194E+03  0.14721905291E+02 -0.84527764234E+02  0.16904991957E+03  0.91937337370E+02 0.  0.
          5    1    3    3  502    0  0.99253339011E+02 -0.63276043216E+02  0.18455079478E+02  0.11923826109E+03  0.47000000000E+01 0. -1.
         -5    1    3    3    0  502  0.13723312926E+02  0.48554137925E+02  0.17972872574E+02  0.53767534590E+02  0.47000000000E+01 0. -1.
        -11    1    4    4    0    0 -0.29682291876E+02  0.43651456755E+02 -0.10281764788E+02  0.53779204299E+02  0.00000000000E+00 0.  1.
         11    1    4    4    0    0 -0.83294360061E+02 -0.28929551464E+02 -0.74245999447E+02  0.11527071527E+03  0.00000000000E+00 0. -1.
<mgrwt>
<rscale>  0 0.16313430E+03</rscale>
<asrwt>0</asrwt>
<pdfrwt beam="2">  1        2 0.30011963E-01 0.16912720E+03</pdfrwt>
<pdfrwt beam="1">  1       -2 0.22611993E-01 0.16912720E+03</pdfrwt>
<totfact> 0.29060623E+03</totfact>
</mgrwt>
</event>
<event>
 7    1  0.1020295E-005  0.3583021E+03  0.7546771E-02  0.1059258E+00
          1   -1    0    0  501    0  0.00000000000E+00  0.00000000000E+00  0.32516802594E+03  0.32516802594E+03  0.00000000000E+00 0. -1.
         -1   -1    0    0    0  501 -0.00000000000E+00 -0.00000000000E+00 -0.98703129905E+02  0.98703129905E+02  0.00000000000E+00 0.  1.
         23    2    1    2    0    0 -0.59451874615E+02  0.20305479788E+02  0.78107513211E+02  0.13612984198E+03  0.92107070041E+02 0.  0.
          5    1    1    2  502    0  0.14869651469E+03  0.81011103333E+01  0.66075166287E+02  0.16298557933E+03  0.47000000000E+01 0. -1.
         -5    1    1    2    0  502 -0.89244640071E+02 -0.28406590121E+02  0.82282216540E+02  0.12475573455E+03  0.47000000000E+01 0.  1.
        -11    1    3    3    0    0 -0.68984232237E+02  0.18777777421E+01  0.16265997577E+02  0.70900867582E+02  0.00000000000E+00 0.  1.
         11    1    3    3    0    0  0.95323576222E+01  0.18427702046E+02  0.61841515635E+02  0.65228974394E+02  0.00000000000E+00 0. -1.
<mgrwt>
<rscale>  0 0.35830212E+03</rscale>
<asrwt>0</asrwt>
<pdfrwt beam="1">  1        1 0.50025850E-01 0.35830212E+03</pdfrwt>
<pdfrwt beam="2">  1       -1 0.15185097E-01 0.35830212E+03</pdfrwt>
<totfact> 0.25005496E+03</totfact>
</mgrwt>
</event>
<event>
 8    1  0.1020295E-005  0.2027900E+03  0.7546771E-02  0.1151610E+00
         -1   -1    0    0    0  501 -0.00000000000E+00  0.00000000000E+00  0.77402483604E+03  0.77402483604E+03  0.00000000000E+00 0.  1.
          1   -1    0    0  501    0  0.00000000000E+00 -0.00000000000E+00 -0.49598770023E+02  0.49598770023E+02  0.00000000000E+00 0. -1.
         23    2    1    2    0    0  0.47974209663E+02 -0.15230647516E+03  0.44861557278E+03  0.49232074964E+03  0.12500000484E+03 0.  0.
         23    2    1    2    0    0 -0.47974209663E+02  0.15230647516E+03  0.27581049324E+03  0.33130285643E+03  0.90506172890E+02 0.  0.
          5    1    3    3  502    0 -0.26611411133E+02 -0.10955901001E+03  0.20599778325E+03  0.23487980029E+03  0.47000000000E+01 0. -1.
         -5    1    3    3    0  502  0.74585620796E+02 -0.42747465151E+02  0.24261778953E+03  0.25744094935E+03  0.47000000000E+01 0. -1.
        -11    1    4    4    0    0 -0.29410129941E+02  0.12356770148E+03  0.13085667952E+03  0.18236612396E+03  0.00000000000E+00 0. -1.
         11    1    4    4    0    0 -0.18564079722E+02  0.28738773679E+02  0.14495381372E+03  0.14893673247E+03  0.00000000000E+00 0.  1.
<mgrwt>
<rscale>  0 0.19779841E+03</rscale>
<asrwt>0</asrwt>
<pdfrwt beam="2">  1        1 0.76305806E-02 0.20279001E+03</pdfrwt>
<pdfrwt beam="1">  1       -1 0.11908074E+00 0.20279001E+03</pdfrwt>
<totfact> 0.62347656E+02</totfact>
</mgrwt>
</event>
<event>
 8    1  0.1020295E-005  0.1452184E+03  0.7546771E-02  0.1217824E+00
          2   -1    0    0  501    0  0.00000000000E+00  0.00000000000E+00  0.15234719887E+02  0.15234719887E+02  0.00000000000E+00 0. -1.
         -2   -1    0    0    0  501 -0.00000000000E+00 -0.00000000000E+00 -0.11051996660E+04  0.11051996660E+04  0.00000000000E+00 0.  1.
         23    2    1    2    0    0 -0.59180250775E+02  0.44275015187E+02 -0.63402878953E+03  0.65044667589E+03  0.12500317263E+03 0.  0.
         23    2    1    2    0    0  0.59180250775E+02 -0.44275015187E+02 -0.45593615654E+03  0.46998770996E+03  0.86879742283E+02 0.  0.
          5    1    3    3  502    0  0.37958890489E+02  0.25885703590E+02 -0.19329491557E+03  0.19873590869E+03  0.47000000000E+01 0. -1.
         -5    1    3    3    0  502 -0.97139141263E+02  0.18389311597E+02 -0.44073387396E+03  0.45171076720E+03  0.47000000000E+01 0. -1.
        -11    1    4    4    0    0  0.28047772683E+02  0.25340352020E+02 -0.14901852221E+03  0.15373786441E+03  0.00000000000E+00 0. -1.
         11    1    4    4    0    0  0.31132478092E+02 -0.69615367207E+02 -0.30691763433E+03  0.31624984555E+03  0.00000000000E+00 0.  1.
<mgrwt>
<rscale>  0 0.13671104E+03</rscale>
<asrwt>0</asrwt>
<pdfrwt beam="1">  1        2 0.23438021E-02 0.14521836E+03</pdfrwt>
<pdfrwt beam="2">  1       -2 0.17003079E+00 0.14521836E+03</pdfrwt>
<totfact> 0.97196957E+02</totfact>
</mgrwt>
</event>
<event>
 8    1  0.1020295E-005  0.1312548E+03  0.7546771E-02  0.1239227E+00
          2   -1    0    0  501    0  0.00000000000E+00  0.00000000000E+00  0.33683449055E+02  0.33683449055E+02  0.00000000000E+00 0. -1.
         -2   -1    0    0    0  501 -0.00000000000E+00 -0.00000000000E+00 -0.48853754923E+03  0.48853754923E+03  0.00000000000E+00 0.  1.
         23    2    1    2    0    0  0.38698188670E+02  0.10239960863E+02 -0.36684204958E+03  0.38961637192E+03  0.12500168529E+03 0.  0.
         23    2    1    2    0    0 -0.38698188670E+02 -0.10239960863E+02 -0.88012050592E+02  0.13260462636E+03  0.90749431282E+02 0.  0.
          5    1    3    3  502    0  0.80701928775E+02  0.21519575193E+02 -0.19290088636E+03  0.21025873438E+03  0.47000000000E+01 0.  1.
         -5    1    3    3    0  502 -0.42003740105E+02 -0.11279614330E+02 -0.17394116322E+03  0.17935763754E+03  0.47000000000E+01 0.  1.
        -11    1    4    4    0    0 -0.35395344031E+02  0.60734246905E+01  0.66219637996E+01  0.36518040352E+02  0.00000000000E+00 0. -1.
         11    1    4    4    0    0 -0.33028446381E+01 -0.16313385554E+02 -0.94634014391E+02  0.96086586008E+02  0.00000000000E+00 0.  1.
<mgrwt>
<rscale>  0 0.12237679E+03</rscale>
<asrwt>0</asrwt>
<pdfrwt beam="1">  1        2 0.51820690E-02 0.13125482E+03</pdfrwt>
<pdfrwt beam="2">  1       -2 0.75159625E-01 0.13125482E+03</pdfrwt>
<totfact> 0.23453627E+03</totfact>
</mgrwt>
</event>
<event>
 8    1  0.1020295E-005  0.1368819E+03  0.7546771E-02  0.1229872E+00
          3   -1    0    0  501    0  0.00000000000E+00  0.00000000000E+00  0.32210790069E+03  0.32210790069E+03  0.00000000000E+00 0. -1.
         -3   -1    0    0    0  501 -0.00000000000E+00 -0.00000000000E+00 -0.46069991976E+02  0.46069991976E+02  0.00000000000E+00 0.  1.
         23    2    1    2    0    0  0.55455617829E+02 -0.59519447279E+01  0.17048598067E+03  0.21863696707E+03  0.12500361022E+03 0.  0.
         23    2    1    2    0    0 -0.55455617829E+02  0.59519447279E+01  0.10555192804E+03  0.14954092560E+03  0.90058468347E+02 0.  0.
          5    1    3    3  502    0  0.67154554368E+02  0.42694483230E+02  0.13615995768E+03  0.15777888688E+03  0.47000000000E+01 0. -1.
         -5    1    3    3    0  502 -0.11698936539E+02 -0.48646427958E+02  0.34326022998E+02  0.60858080187E+02  0.47000000000E+01 0. -1.
        -11    1    4    4    0    0 -0.38637650136E+02  0.47398200603E+02  0.58662976619E+02  0.84739614433E+02  0.00000000000E+00 0.  1.
         11    1    4    4    0    0 -0.16817967693E+02 -0.41446255875E+02  0.46888951419E+02  0.64801311164E+02  0.00000000000E+00 0. -1.
<mgrwt>
<rscale>  0 0.12838515E+03</rscale>
<asrwt>0</asrwt>
<pdfrwt beam="1">  1        3 0.49555060E-01 0.13688190E+03</pdfrwt>
<pdfrwt beam="2">  1       -3 0.70876913E-02 0.13688190E+03</pdfrwt>
<totfact> 0.12199631E+03</totfact>
</mgrwt>
</event>
<event>
 8    1  0.1020295E-005  0.1650968E+03  0.7546771E-02  0.1189855E+00
          2   -1    0    0  501    0  0.00000000000E+00  0.00000000000E+00  0.34424385170E+02  0.34424385170E+02  0.00000000000E+00 0. -1.
         -2   -1    0    0    0  501 -0.00000000000E+00 -0.00000000000E+00 -0.69544604795E+03  0.69544604795E+03  0.00000000000E+00 0.  1.
         23    2    1    2    0    0  0.54730182608E+02 -0.92935860765E+02 -0.40033655277E+03  0.43304309737E+03  0.12499800633E+03 0.  0.
         23    2    1    2    0    0 -0.54730182608E+02  0.92935860765E+02 -0.26068511000E+03  0.29682733575E+03  0.92289076093E+02 0.  0.
          5    1    3    3  502    0  0.12442494040E+02 -0.79130807517E+02 -0.37093338493E+03  0.37951306487E+03  0.47000000000E+01 0.  1.
         -5    1    3    3    0  502  0.42287688568E+02 -0.13805053248E+02 -0.29403167849E+02  0.53530032497E+02  0.47000000000E+01 0.  1.
        -11    1    4    4    0    0 -0.29631871638E+02 -0.10809006017E+02 -0.91520894276E+02  0.96803700947E+02  0.00000000000E+00 0. -1.
         11    1    4    4    0    0 -0.25098310969E+02  0.10374486678E+03 -0.16916421573E+03  0.20002363480E+03  0.00000000000E+00 0.  1.
<mgrwt>
<rscale>  0 0.15897827E+03</rscale>
<asrwt>0</asrwt>
<pdfrwt beam="1">  1        2 0.52960592E-02 0.16509685E+03</pdfrwt>
<pdfrwt beam="2">  1       -2 0.10699170E+00 0.16509685E+03</pdfrwt>
<totfact> 0.10432477E+03</totfact>
</mgrwt>
</event>
<event>
 7    1  0.1020295E-005  0.1462676E+03  0.7546771E-02  0.1216659E+00
          2   -1    0    0  501    0  0.00000000000E+00  0.00000000000E+00  0.40567034500E+03  0.40567034500E+03  0.00000000000E+00 0. -1.
         -2   -1    0    0    0  501 -0.00000000000E+00 -0.00000000000E+00 -0.42037076661E+02  0.42037076661E+02  0.00000000000E+00 0.  1.
         23    2    1    2    0    0  0.19340136320E+02 -0.55901384839E+02  0.17345277157E+03  0.20778488478E+03  0.97926955834E+02 0.  0.
          5    1    1    2  502    0  0.18145974126E+02  0.89722303939E+02  0.94582470382E+02  0.13170915650E+03  0.47000000000E+01 0. -1.
         -5    1    1    2    0  502 -0.37486110446E+02 -0.33820919100E+02  0.95598026386E+02  0.10821338038E+03  0.47000000000E+01 0.  1.
        -11    1    3    3    0    0  0.53147848317E+02 -0.52903050189E+02  0.14599728433E+03  0.16412992881E+03  0.00000000000E+00 0.  1.
         11    1    3    3    0    0 -0.33807711997E+02 -0.29983346498E+01  0.27455487238E+02  0.43654955969E+02  0.00000000000E+00 0. -1.
<mgrwt>
<rscale>  0 0.13755395E+03</rscale>
<asrwt>0</asrwt>
<pdfrwt beam="1">  1        2 0.62410820E-01 0.14626757E+03</pdfrwt>
<pdfrwt beam="2">  1       -2 0.64672428E-02 0.14626757E+03</pdfrwt>
<totfact> 0.98903828E+03</totfact>
</mgrwt>
</event>
<event>
 8    1  0.1020295E-005  0.1313654E+03  0.7546771E-02  0.1236137E+00
         -1   -1    0    0    0  501 -0.00000000000E+00  0.00000000000E+00  0.11845509540E+03  0.11845509540E+03  0.00000000000E+00 0.  1.
          1   -1    0    0  501    0  0.00000000000E+00 -0.00000000000E+00 -0.41195519733E+03  0.41195519733E+03  0.00000000000E+00 0. -1.
         23    2    1    2    0    0 -0.89645600252E+01 -0.47827011210E+02  0.72154300338E+02  0.14987702539E+03  0.12202087258E+03 0.  0.
         23    2    1    2    0    0  0.89645600252E+01  0.47827011210E+02 -0.36565440226E+03  0.38053326734E+03  0.93459292339E+02 0.  0.
          5    1    3    3  502    0 -0.33878082124E+02 -0.33785284893E+02 -0.20894042369E+02  0.52419661676E+02  0.47000000000E+01 0. -1.
         -5    1    3    3    0  502  0.24913522099E+02 -0.14041726317E+02  0.93048342707E+02  0.97457363713E+02  0.47000000000E+01 0.  1.
        -11    1    4    4    0    0  0.43719966576E+02  0.90745424982E+01 -0.24639668958E+03  0.25040988685E+03  0.00000000000E+00 0. -1.
         11    1    4    4    0    0 -0.34755406551E+02  0.38752468712E+02 -0.11925771268E+03  0.13012338049E+03  0.00000000000E+00 0.  1.
<mgrwt>
<rscale>  0 0.12431917E+03</rscale>
<asrwt>0</asrwt>
<pdfrwt beam="2">  1        1 0.63377723E-01 0.13136544E+03</pdfrwt>
<pdfrwt beam="1">  1       -1 0.18223861E-01 0.13136544E+03</pdfrwt>
<totfact> 0.13528431E+03</totfact>
</mgrwt>
</event>
<event>
 8    1  0.1020295E-005  0.1303405E+03  0.7546771E-02  0.1239981E+00
          1   -1    0    0  501    0  0.00000000000E+00  0.00000000000E+00  0.47185800552E+02  0.47185800552E+02  0.00000000000E+00 0. -1.
         -1   -1    0    0    0  501 -0.00000000000E+00 -0.00000000000E+00 -0.35821484683E+03  0.35821484683E+03  0.00000000000E+00 0.  1.
         23    2    1    2    0    0  0.35846769085E+02  0.88529832585E+01 -0.26546784673E+03  0.29573943618E+03  0.12500108118E+03 0.  0.
         23    2    1    2    0    0 -0.35846769085E+02 -0.88529832585E+01 -0.45561199549E+02  0.10966121121E+03  0.92662787422E+02 0.  0.
          5    1    3    3  502    0  0.32348116744E+02 -0.50198466520E+02 -0.19295906530E+03  0.20204350417E+03  0.47000000000E+01 0.  1.
         -5    1    3    3    0  502  0.34986523410E+01  0.59051449779E+02 -0.72508781432E+02  0.93695932003E+02  0.47000000000E+01 0.  1.
        -11    1    4    4    0    0 -0.50548878785E+02 -0.40395419395E+02 -0.25959654010E+02  0.69720030772E+02  0.00000000000E+00 0.  1.
         11    1    4    4    0    0  0.14702109700E+02  0.31542436137E+02 -0.19601545539E+02  0.39941180435E+02  0.00000000000E+00 0. -1.
<mgrwt>
<rscale>  0 0.12190907E+03</rscale>
<asrwt>0</asrwt>
<pdfrwt beam="1">  1        1 0.72593540E-02 0.13034046E+03</pdfrwt>
<pdfrwt beam="2">  1       -1 0.55109976E-01 0.13034046E+03</pdfrwt>
<totfact> 0.32630844E+03</totfact>
</mgrwt>
</event>
<event>
 8    1  0.1020295E-005  0.1788339E+03  0.7546771E-02  0.1174948E+00
         -1   -1    0    0    0  501 -0.00000000000E+00  0.00000000000E+00  0.26589553588E+03  0.26589553588E+03  0.00000000000E+00 0.  1.
          1   -1    0    0  501    0  0.00000000000E+00 -0.00000000000E+00 -0.10541757051E+03  0.10541757051E+03  0.00000000000E+00 0. -1.
         23    2    1    2    0    0 -0.12399901642E+03 -0.31303775772E+02  0.89775198532E+02  0.20010287294E+03  0.12500356409E+03 0.  0.
         23    2    1    2    0    0  0.12399901642E+03  0.31303775772E+02  0.70702766840E+02  0.17121023346E+03  0.89209754804E+02 0.  0.
          5    1    3    3  502    0 -0.10389407691E+03 -0.87164046422E+01 -0.93564408508E+00  0.10436915424E+03  0.47000000000E+01 0. -1.
         -5    1    3    3    0  502 -0.20104939508E+02 -0.22587371130E+02  0.90710842617E+02  0.95733718697E+02  0.47000000000E+01 0. -1.
        -11    1    4    4    0    0  0.13021292360E+03  0.67212100074E+01  0.56031578002E+02  0.14191588308E+03  0.00000000000E+00 0.  1.
         11    1    4    4    0    0 -0.62139071870E+01  0.24582565764E+02  0.14671188839E+02  0.29294350377E+02  0.00000000000E+00 0. -1.
<mgrwt>
<rscale>  0 0.17281030E+03</rscale>
<asrwt>0</asrwt>
<pdfrwt beam="2">  1        1 0.16218088E-01 0.17883393E+03</pdfrwt>
<pdfrwt beam="1">  1       -1 0.40907005E-01 0.17883393E+03</pdfrwt>
<totfact> 0.19617670E+03</totfact>
</mgrwt>
</event>
<event>
 8    1  0.1020295E-005  0.1866491E+03  0.7546771E-02  0.1166598E+00
         -3   -1    0    0    0  501 -0.00000000000E+00  0.00000000000E+00  0.50051795676E+03  0.50051795676E+03  0.00000000000E+00 0.  1.
          3   -1    0    0  501    0  0.00000000000E+00 -0.00000000000E+00 -0.62255235158E+02  0.62255235158E+02  0.00000000000E+00 0. -1.
         23    2    1    2    0    0 -0.11188191637E+03  0.81823386261E+02  0.24560787826E+03  0.30848197642E+03  0.12500108064E+03 0.  0.
         23    2    1    2    0    0  0.11188191637E+03 -0.81823386261E+02  0.19265484335E+03  0.25429121551E+03  0.91298980662E+02 0.  0.
          5    1    3    3  502    0 -0.19974596043E+00 -0.28741452638E+02  0.45021451687E+02  0.53620258394E+02  0.47000000000E+01 0. -1.
         -5    1    3    3    0  502 -0.11168217041E+03  0.11056483890E+03  0.20058642657E+03  0.25486171802E+03  0.47000000000E+01 0. -1.
        -11    1    4    4    0    0  0.12186964859E+02  0.20033595408E+02  0.27111112471E+02  0.35845215536E+02  0.00000000000E+00 0. -1.
         11    1    4    4    0    0  0.99694951507E+02 -0.10185698167E+03  0.16554373087E+03  0.21844599997E+03  0.00000000000E+00 0.  1.
<mgrwt>
<rscale>  0 0.18125125E+03</rscale>
<asrwt>0</asrwt>
<pdfrwt beam="2">  1        3 0.95777288E-02 0.18664914E+03</pdfrwt>
<pdfrwt beam="1">  1       -3 0.77002760E-01 0.18664914E+03</pdfrwt>
<totfact> 0.31121050E+02</totfact>
</mgrwt>
</event>
<event>
 8    1  0.1020295E-005  0.3181789E+03  0.7546771E-02  0.1077837E+00
          2   -1    0    0  501    0  0.00000000000E+00  0.00000000000E+00  0.17588492835E+04  0.17588492835E+04  0.00000000000E+00 0.  1.
         -2   -1    0    0    0  501 -0.00000000000E+00 -0.00000000000E+00 -0.62022375892E+02  0.62022375892E+02  0.00000000000E+00 0. -1.
         23    2    1    2    0    0  0.29257694836E+03 -0.33613808786E+01  0.56742014253E+03  0.65054085575E+03  0.12500086902E+03 0.  0.
         23    2    1    2    0    0 -0.29257694836E+03  0.33613808786E+01  0.11294067651E+04  0.11703308037E+04  0.92206178583E+02 0.  0.
          5    1    3    3  502    0  0.17475794674E+02 -0.98006797146E+01  0.14448700228E+03  0.14594533412E+03  0.47000000000E+01 0.  1.
         -5    1    3    3    0  502  0.27510115368E+03  0.64392988360E+01  0.42293314025E+03  0.50459552163E+03  0.47000000000E+01 0.  1.
        -11    1    4    4    0    0 -0.22966079973E+03 -0.22155183316E+02  0.97008866720E+03  0.99714941574E+03  0.00000000000E+00 0.  1.
         11    1    4    4    0    0 -0.62916148629E+02  0.25516564194E+02  0.15931809791E+03  0.17318138794E+03  0.00000000000E+00 0. -1.
<mgrwt>
<rscale>  0 0.31529028E+03</rscale>
<asrwt>0</asrwt>
<pdfrwt beam="1">  1        2 0.27059216E+00 0.31817886E+03</pdfrwt>
<pdfrwt beam="2">  1       -2 0.95419053E-02 0.31817886E+03</pdfrwt>
<totfact> 0.70865893E+02</totfact>
</mgrwt>
</event>
<event>
 8    1  0.1020295E-005  0.1399095E+03  0.7546771E-02  0.1224140E+00
         -2   -1    0    0    0  501 -0.00000000000E+00  0.00000000000E+00  0.53749539474E+02  0.53749539474E+02  0.00000000000E+00 0.  1.
          2   -1    0    0  501    0  0.00000000000E+00 -0.00000000000E+00 -0.30226112076E+03  0.30226112076E+03  0.00000000000E+00 0. -1.
         23    2    1    2    0    0  0.27948916662E+02  0.56281773905E+02 -0.10951842479E+03  0.17767655982E+03  0.12500357805E+03 0.  0.
         23    2    1    2    0    0 -0.27948916662E+02 -0.56281773905E+02 -0.13899315650E+03  0.17833410041E+03  0.92386004349E+02 0.  0.
          5    1    3    3  502    0 -0.29280619891E+02  0.62231624813E+02 -0.96337107956E+02  0.11846120967E+03  0.47000000000E+01 0.  1.
         -5    1    3    3    0  502  0.57229536553E+02 -0.59498509079E+01 -0.13181316831E+02  0.59215350149E+02  0.47000000000E+01 0.  1.
        -11    1    4    4    0    0  0.27003447182E+02 -0.80153251762E+01 -0.78560802812E+02  0.83457961488E+02  0.00000000000E+00 0. -1.
         11    1    4    4    0    0 -0.54952363844E+02 -0.48266448729E+02 -0.60432353689E+02  0.94876138925E+02  0.00000000000E+00 0.  1.
<mgrwt>
<rscale>  0 0.13226029E+03</rscale>
<asrwt>0</asrwt>
<pdfrwt beam="2">  1        2 0.46501711E-01 0.13990952E+03</pdfrwt>
<pdfrwt beam="1">  1       -2 0.82691599E-02 0.13990952E+03</pdfrwt>
<totfact> 0.92440678E+03</totfact>
</mgrwt>
</event>
<event>
 8    1  0.1020295E-005  0.1375564E+03  0.7546771E-02  0.1228440E+00
          2   -1    0    0  501    0  0.00000000000E+00  0.00000000000E+00  0.22188332037E+03  0.22188332037E+03  0.00000000000E+00 0.  1.
         -2   -1    0    0    0  501 -0.00000000000E+00 -0.00000000000E+00 -0.67918955352E+02  0.67918955352E+02  0.00000000000E+00 0. -1.
         23    2    1    2    0    0  0.30525001737E+02  0.48653061579E+02  0.77703860840E+02  0.15798620310E+03  0.12499141669E+03 0.  0.
         23    2    1    2    0    0 -0.30525001737E+02 -0.48653061579E+02  0.76260504174E+02  0.13181607262E+03  0.90889583412E+02 0.  0.
          5    1    3    3  502    0  0.11662712220E+02 -0.35364547297E+02 -0.57607537217E+01  0.37972968613E+02  0.47000000000E+01 0. -1.
         -5    1    3    3    0  502  0.18862289517E+02  0.84017608876E+02  0.83464614562E+02  0.12001323448E+03  0.47000000000E+01 0. -1.
        -11    1    4    4    0    0 -0.47511935437E+02 -0.67116757649E+02  0.54990849137E+02  0.98924398684E+02  0.00000000000E+00 0. -1.
         11    1    4    4    0    0  0.16986933700E+02  0.18463696069E+02  0.21269655037E+02  0.32891673938E+02  0.00000000000E+00 0.  1.
<mgrwt>
<rscale>  0 0.12933895E+03</rscale>
<asrwt>0</asrwt>
<pdfrwt beam="1">  1        2 0.34135895E-01 0.13755635E+03</pdfrwt>
<pdfrwt beam="2">  1       -2 0.10449070E-01 0.13755635E+03</pdfrwt>
<totfact> 0.89020608E+03</totfact>
</mgrwt>
</event>
<event>
 8    1  0.1020295E-005  0.1678692E+03  0.7546771E-02  0.1187003E+00
          1   -1    0    0  501    0  0.00000000000E+00  0.00000000000E+00  0.54960462655E+03  0.54960462655E+03  0.00000000000E+00 0. -1.
         -1   -1    0    0    0  501 -0.00000000000E+00 -0.00000000000E+00 -0.44197522163E+02  0.44197522163E+02  0.00000000000E+00 0.  1.
         23    2    1    2    0    0  0.88156692493E+01 -0.11170642159E+03  0.27054809684E+03  0.31839653458E+03  0.12499615946E+03 0.  0.
         23    2    1    2    0    0 -0.88156692493E+01  0.11170642159E+03  0.23485900754E+03  0.27540561412E+03  0.90185687448E+02 0.  0.
          5    1    3    3  502    0  0.12438502633E+02  0.21723123952E+02  0.91757557123E+02  0.95226833147E+02  0.47000000000E+01 0. -1.
         -5    1    3    3    0  502 -0.36228333835E+01 -0.13342954554E+03  0.17879053972E+03  0.22316970144E+03  0.47000000000E+01 0. -1.
        -11    1    4    4    0    0 -0.24107427839E+02  0.12265416837E+03  0.20218195976E+03  0.23770308779E+03  0.00000000000E+00 0.  1.
         11    1    4    4    0    0  0.15291758590E+02 -0.10947746774E+02  0.32677047780E+02  0.37702526332E+02  0.00000000000E+00 0. -1.
<mgrwt>
<rscale>  0 0.16150913E+03</rscale>
<asrwt>0</asrwt>
<pdfrwt beam="1">  1        1 0.84554553E-01 0.16786924E+03</pdfrwt>
<pdfrwt beam="2">  1       -1 0.67996192E-02 0.16786924E+03</pdfrwt>
<totfact> 0.42894563E+03</totfact>
</mgrwt>
</event>
<event>
 7    1  0.1020295E-005  0.2192907E+03  0.7546771E-02  0.1161588E+00
         -4   -1    0    0    0  501 -0.00000000000E+00  0.00000000000E+00  0.30824283786E+03  0.30824283786E+03  0.00000000000E+00 0.  1.
          4   -1    0    0  501    0  0.00000000000E+00 -0.00000000000E+00 -0.59316569687E+03  0.59316569687E+03  0.00000000000E+00 0. -1.
         23    2    1    2    0    0  0.67600736939E+02 -0.12358843217E+02 -0.54742921366E+03  0.55935884065E+03  0.92092171213E+02 0.  0.
          5    1    1    2  502    0 -0.10522486139E+03  0.80640484554E+02  0.11687406827E+03  0.17679591918E+03  0.47000000000E+01 0. -1.
         -5    1    1    2    0  502  0.37624124456E+02 -0.68281641336E+02  0.14563228637E+03  0.16525377490E+03  0.47000000000E+01 0.  1.
        -11    1    3    3    0    0 -0.14677347553E+02  0.15044555412E+02 -0.47201534911E+02  0.51669604959E+02  0.00000000000E+00 0.  1.
         11    1    3    3    0    0  0.82278084492E+02 -0.27403398629E+02 -0.50022767875E+03  0.50768923569E+03  0.00000000000E+00 0. -1.
<mgrwt>
<rscale>  0 0.18657419E+03</rscale>
<asrwt>0</asrwt>
<pdfrwt beam="2">  1        4 0.91256260E-01 0.21929069E+03</pdfrwt>
<pdfrwt beam="1">  1       -4 0.47421976E-01 0.21929069E+03</pdfrwt>
<totfact> 0.81547943E+00</totfact>
</mgrwt>
</event>
<event>
 8    1  0.1020295E-005  0.1897812E+03  0.7546771E-02  0.1163531E+00
          1   -1    0    0  501    0  0.00000000000E+00  0.00000000000E+00  0.17230504469E+03  0.17230504469E+03  0.00000000000E+00 0. -1.
         -1   -1    0    0    0  501 -0.00000000000E+00 -0.00000000000E+00 -0.21418843011E+03  0.21418843011E+03  0.00000000000E+00 0.  1.
         23    2    1    2    0    0  0.14187568055E+03 -0.16196649588E+02 -0.90405047578E+02  0.21021408045E+03  0.12500338717E+03 0.  0.
         23    2    1    2    0    0 -0.14187568055E+03  0.16196649588E+02  0.48521662154E+02  0.17627939435E+03  0.91263535893E+02 0.  0.
          5    1    3    3  502    0  0.10882909840E+03  0.22486201963E+02 -0.58002372314E+01  0.11137834031E+03  0.47000000000E+01 0. -1.
         -5    1    3    3    0  502  0.33046582148E+02 -0.38682851551E+02 -0.84604810347E+02  0.98835740143E+02  0.47000000000E+01 0. -1.
        -11    1    4    4    0    0 -0.97240770590E+02  0.53728450940E+02  0.29665397706E+02  0.11498934614E+03  0.00000000000E+00 0. -1.
         11    1    4    4    0    0 -0.44634909963E+02 -0.37531801353E+02  0.18856264447E+02  0.61290048206E+02  0.00000000000E+00 0.  1.
<mgrwt>
<rscale>  0 0.18448583E+03</rscale>
<asrwt>0</asrwt>
<pdfrwt beam="1">  1        1 0.26508468E-01 0.18978116E+03</pdfrwt>
<pdfrwt beam="2">  1       -1 0.32952066E-01 0.18978116E+03</pdfrwt>
<totfact> 0.15272769E+03</totfact>
</mgrwt>
</event>
<event>
 8    1  0.1247852E-005  0.1633684E+03  0.7546771E-02  0.1192313E+00
         -1   -1    0    0    0  501 -0.00000000000E+00  0.00000000000E+00  0.26029003865E+02  0.26029003865E+02  0.00000000000E+00 0.  1.
          1   -1    0    0  501    0  0.00000000000E+00 -0.00000000000E+00 -0.93698902457E+03  0.93698902457E+03  0.00000000000E+00 0. -1.
         23    2    1    2    0    0  0.73064665522E+02  0.75670664767E+02 -0.36852623753E+03  0.40311391193E+03  0.12499897357E+03 0.  0.
         23    2    1    2    0    0 -0.73064665522E+02 -0.75670664767E+02 -0.54243378318E+03  0.55990411650E+03  0.90519145442E+02 0.  0.
          5    1    3    3  502    0 -0.29509420536E+02 -0.74850060113E+01 -0.81793057497E+02  0.87401518694E+02  0.47000000000E+01 0. -1.
         -5    1    3    3    0  502  0.10257408606E+03  0.83155670778E+02 -0.28673318003E+03  0.31571239324E+03  0.47000000000E+01 0. -1.
        -11    1    4    4    0    0 -0.60376677444E+02 -0.16473246916E+01 -0.30325041363E+03  0.30920684052E+03  0.00000000000E+00 0. -1.
         11    1    4    4    0    0 -0.12687988079E+02 -0.74023340076E+02 -0.23918336954E+03  0.25069727598E+03  0.00000000000E+00 0.  1.
<mgrwt>
<rscale>  0 0.15683864E+03</rscale>
<asrwt>0</asrwt>
<pdfrwt beam="2">  1        1 0.14415216E+00 0.16336841E+03</pdfrwt>
<pdfrwt beam="1">  1       -1 0.40044622E-02 0.16336841E+03</pdfrwt>
<totfact> 0.43152615E+03</totfact>
</mgrwt>
</event>
<event>
 8    1  0.1020295E-005  0.1267276E+03  0.7546771E-02  0.1247364E+00
          1   -1    0    0  501    0  0.00000000000E+00  0.00000000000E+00  0.12904807205E+03  0.12904807205E+03  0.00000000000E+00 0. -1.
         -1   -1    0    0    0  501 -0.00000000000E+00 -0.00000000000E+00 -0.95006543737E+02  0.95006543737E+02  0.00000000000E+00 0.  1.
         23    2    1    2    0    0 -0.16985242427E+01 -0.20785504583E+02  0.79123678922E+01  0.12697441762E+03  0.12499989991E+03 0.  0.
         23    2    1    2    0    0  0.16985242427E+01  0.20785504583E+02  0.26129160418E+02  0.97080198169E+02  0.91142249626E+02 0.  0.
          5    1    3    3  502    0  0.34033028196E+02 -0.52191971890E+02 -0.26705560254E+02  0.67952379549E+02  0.47000000000E+01 0.  1.
         -5    1    3    3    0  502 -0.35731552438E+02  0.31406467307E+02  0.34617928146E+02  0.59022038066E+02  0.47000000000E+01 0.  1.
        -11    1    4    4    0    0  0.16508570020E+02 -0.30452995587E+02  0.26708941503E+02  0.43741117733E+02  0.00000000000E+00 0. -1.
         11    1    4    4    0    0 -0.14810045778E+02  0.51238500170E+02 -0.57978108514E+00  0.53339080436E+02  0.00000000000E+00 0.  1.
<mgrwt>
<rscale>  0 0.11745022E+03</rscale>
<asrwt>0</asrwt>
<pdfrwt beam="1">  1        1 0.19853550E-01 0.12672765E+03</pdfrwt>
<pdfrwt beam="2">  1       -1 0.14616391E-01 0.12672765E+03</pdfrwt>
<totfact> 0.81160736E+03</totfact>
</mgrwt>
</event>
<event>
 8    1  0.1020295E-005  0.1487775E+03  0.7546771E-02  0.1212886E+00
         -1   -1    0    0    0  501 -0.00000000000E+00  0.00000000000E+00  0.32644092144E+03  0.32644092144E+03  0.00000000000E+00 0.  1.
          1   -1    0    0  501    0  0.00000000000E+00 -0.00000000000E+00 -0.62791092794E+02  0.62791092794E+02  0.00000000000E+00 0. -1.
         23    2    1    2    0    0 -0.33265179917E+02 -0.73505704851E+02  0.21581870963E+03  0.26213063150E+03  0.12500036681E+03 0.  0.
         23    2    1    2    0    0  0.33265179917E+02  0.73505704851E+02  0.47831119015E+02  0.12710138274E+03  0.85774615747E+02 0.  0.
          5    1    3    3  502    0 -0.76171817845E+02 -0.67254791968E+02  0.12327968352E+03  0.15982904381E+03  0.47000000000E+01 0. -1.
         -5    1    3    3    0  502  0.42906637929E+02 -0.62509128835E+01  0.92539026108E+02  0.10230158769E+03  0.47000000000E+01 0. -1.
        -11    1    4    4    0    0  0.12964971192E+02  0.47908790499E+02 -0.18655127308E+02  0.53022226094E+02  0.00000000000E+00 0. -1.
         11    1    4    4    0    0  0.20300208725E+02  0.25596914353E+02  0.66486246324E+02  0.74079156643E+02  0.00000000000E+00 0.  1.
<mgrwt>
<rscale>  0 0.14033003E+03</rscale>
<asrwt>0</asrwt>
<pdfrwt beam="2">  1        1 0.96601683E-02 0.14877753E+03</pdfrwt>
<pdfrwt beam="1">  1       -1 0.50221679E-01 0.14877753E+03</pdfrwt>
<totfact> 0.26603812E+03</totfact>
</mgrwt>
</event>
<event>
 8    1  0.1020295E-005  0.1683494E+03  0.7546771E-02  0.1186224E+00
         -1   -1    0    0    0  501 -0.00000000000E+00  0.00000000000E+00  0.22596558369E+03  0.22596558369E+03  0.00000000000E+00 0.  1.
          1   -1    0    0  501    0  0.00000000000E+00 -0.00000000000E+00 -0.10895606985E+03  0.10895606985E+03  0.00000000000E+00 0. -1.
         23    2    1    2    0    0  0.10675419960E+03  0.36349380268E+02  0.54793019220E+02  0.17704181677E+03  0.12499517331E+03 0.  0.
         23    2    1    2    0    0 -0.10675419960E+03 -0.36349380268E+02  0.62216494619E+02  0.15787983678E+03  0.91309441358E+02 0.  0.
          5    1    3    3  502    0  0.59399687419E+02 -0.35664377456E+02 -0.85632877729E+01  0.69969211674E+02  0.47000000000E+01 0.  1.
         -5    1    3    3    0  502  0.47354512180E+02  0.72013757724E+02  0.63356306993E+02  0.10707260509E+03  0.47000000000E+01 0.  1.
        -11    1    4    4    0    0 -0.89570664077E+02 -0.36990843819E+02  0.37975455328E+01  0.96982718779E+02  0.00000000000E+00 0. -1.
         11    1    4    4    0    0 -0.17183535523E+02  0.64146355168E+00  0.58418949087E+02  0.60897118002E+02  0.00000000000E+00 0.  1.
<mgrwt>
<rscale>  0 0.16221034E+03</rscale>
<asrwt>0</asrwt>
<pdfrwt beam="2">  1        1 0.16762472E-01 0.16834943E+03</pdfrwt>
<pdfrwt beam="1">  1       -1 0.34763936E-01 0.16834943E+03</pdfrwt>
<totfact> 0.24917780E+03</totfact>
</mgrwt>
</event>
<event>
 8    1  0.1020295E-005  0.1324557E+03  0.7546771E-02  0.1236533E+00
         -2   -1    0    0    0  501 -0.00000000000E+00  0.00000000000E+00  0.83943671968E+02  0.83943671968E+02  0.00000000000E+00 0.  1.
          2   -1    0    0  501    0  0.00000000000E+00 -0.00000000000E+00 -0.17256176933E+03  0.17256176933E+03  0.00000000000E+00 0. -1.
         23    2    1    2    0    0  0.40146232114E+02  0.17542685209E+02 -0.20869939372E+02  0.13408980848E+03  0.12500022645E+03 0.  0.
         23    2    1    2    0    0 -0.40146232114E+02 -0.17542685209E+02 -0.67748157993E+02  0.12241563282E+03  0.92066869666E+02 0.  0.
          5    1    3    3  502    0  0.77874932720E+02  0.80689004394E+01 -0.42630864513E+02  0.89269776014E+02  0.47000000000E+01 0.  1.
         -5    1    3    3    0  502 -0.37728700606E+02  0.94737847693E+01  0.21760925141E+02  0.44820032466E+02  0.47000000000E+01 0.  1.
        -11    1    4    4    0    0 -0.27950912690E+02  0.36816721039E+02 -0.29391427705E+02  0.54777554626E+02  0.00000000000E+00 0.  1.
         11    1    4    4    0    0 -0.12195319424E+02 -0.54359406248E+02 -0.38356730288E+02  0.67638078195E+02  0.00000000000E+00 0. -1.
<mgrwt>
<rscale>  0 0.12406812E+03</rscale>
<asrwt>0</asrwt>
<pdfrwt beam="2">  1        2 0.26547964E-01 0.13245574E+03</pdfrwt>
<pdfrwt beam="1">  1       -2 0.12914411E-01 0.13245574E+03</pdfrwt>
<totfact> 0.83196100E+03</totfact>
</mgrwt>
</event>
<event>
 8    1  0.1020295E-005  0.1577764E+03  0.7546771E-02  0.1198962E+00
         -3   -1    0    0    0  501 -0.00000000000E+00  0.00000000000E+00  0.65019188514E+03  0.65019188514E+03  0.00000000000E+00 0.  1.
          3   -1    0    0  501    0  0.00000000000E+00 -0.00000000000E+00 -0.71646797089E+02  0.71646797089E+02  0.00000000000E+00 0. -1.
         23    2    1    2    0    0  0.51817838801E+01 -0.96134700100E+02  0.56654084716E+03  0.58810026141E+03  0.12499861812E+03 0.  0.
         23    2    1    2    0    0 -0.51817838801E+01  0.96134700100E+02  0.12004240895E+02  0.13373842081E+03  0.92049616811E+02 0.  0.
          5    1    3    3  502    0 -0.53896152833E+02 -0.33525509646E+02  0.15374520187E+03  0.16639841401E+03  0.47000000000E+01 0.  1.
         -5    1    3    3    0  502  0.59077936713E+02 -0.62609190455E+02  0.41279564529E+03  0.42170184741E+03  0.47000000000E+01 0.  1.
        -11    1    4    4    0    0  0.18586811018E+02  0.17270889147E+01  0.29416941284E+02  0.34839759104E+02  0.00000000000E+00 0.  1.
         11    1    4    4    0    0 -0.23768594898E+02  0.94407611186E+02 -0.17412700389E+02  0.98898661710E+02  0.00000000000E+00 0. -1.
<mgrwt>
<rscale>  0 0.15123642E+03</rscale>
<asrwt>0</asrwt>
<pdfrwt beam="2">  1        3 0.11022585E-01 0.15777638E+03</pdfrwt>
<pdfrwt beam="1">  1       -3 0.10002952E+00 0.15777638E+03</pdfrwt>
<totfact> 0.13520071E+02</totfact>
</mgrwt>
</event>
<event>
 8    1  0.1020295E-005  0.1207086E+03  0.7546771E-02  0.1253428E+00
         -1   -1    0    0    0  501 -0.00000000000E+00  0.00000000000E+00  0.14310572189E+04  0.14310572189E+04  0.00000000000E+00 0.  1.
          1   -1    0    0  501    0  0.00000000000E+00 -0.00000000000E+00 -0.13880980890E+02  0.13880980890E+02  0.00000000000E+00 0. -1.
         23    2    1    2    0    0 -0.16387233159E+02 -0.24541232408E+02  0.12172515049E+04  0.12232218861E+04  0.11704590147E+03 0.  0.
         23    2    1    2    0    0  0.16387233159E+02  0.24541232408E+02  0.19992473311E+03  0.22171631365E+03  0.91199842822E+02 0.  0.
          5    1    3    3  502    0  0.15149600070E+02 -0.45049060058E+01  0.22594588077E+02  0.27971592210E+02  0.47000000000E+01 0. -1.
         -5    1    3    3    0  502 -0.31536833229E+02 -0.20036326402E+02  0.11946569168E+04  0.11952502939E+04  0.47000000000E+01 0.  1.
        -11    1    4    4    0    0 -0.31600708964E+02  0.26661059278E+02  0.13341376010E+03  0.13967336279E+03  0.00000000000E+00 0.  1.
         11    1    4    4    0    0  0.47987942123E+02 -0.21198268697E+01  0.66510973005E+02  0.82042950856E+02  0.00000000000E+00 0. -1.
<mgrwt>
<rscale>  0 0.11394821E+03</rscale>
<asrwt>0</asrwt>
<pdfrwt beam="2">  1        1 0.21355367E-02 0.12070856E+03</pdfrwt>
<pdfrwt beam="1">  1       -1 0.22016253E+00 0.12070856E+03</pdfrwt>
<totfact> 0.66780886E+02</totfact>
</mgrwt>
</event>
<event>
 8    1  0.1020295E-005  0.1366174E+03  0.7546771E-02  0.1229520E+00
          2   -1    0    0  501    0  0.00000000000E+00  0.00000000000E+00  0.34920011327E+03  0.34920011327E+03  0.00000000000E+00 0. -1.
         -2   -1    0    0    0  501 -0.00000000000E+00 -0.00000000000E+00 -0.43728062292E+02  0.43728062292E+02  0.00000000000E+00 0.  1.
         23    2    1    2    0    0  0.31427521083E+02 -0.45279356020E+02  0.13930947055E+03  0.19511901750E+03  0.12500557284E+03 0.  0.
         23    2    1    2    0    0 -0.31427521083E+02  0.45279356020E+02  0.16616258043E+03  0.19780915807E+03  0.92089905615E+02 0.  0.
          5    1    3    3  502    0 -0.15740518997E+02 -0.74090368501E+02  0.53162685832E+02  0.92658015346E+02  0.47000000000E+01 0.  1.
         -5    1    3    3    0  502  0.47168040080E+02  0.28811012481E+02  0.86146784716E+02  0.10246100215E+03  0.47000000000E+01 0.  1.
        -11    1    4    4    0    0  0.14823484963E+02  0.27504231915E+02  0.13656421036E+03  0.14009283361E+03  0.00000000000E+00 0. -1.
         11    1    4    4    0    0 -0.46251006047E+02  0.17775124105E+02  0.29598370078E+02  0.57716324455E+02  0.00000000000E+00 0.  1.
<mgrwt>
<rscale>  0 0.12861858E+03</rscale>
<asrwt>0</asrwt>
<pdfrwt beam="1">  1        2 0.53723093E-01 0.13661736E+03</pdfrwt>
<pdfrwt beam="2">  1       -2 0.67273944E-02 0.13661736E+03</pdfrwt>
<totfact> 0.10874256E+04</totfact>
</mgrwt>
</event>
<event>
 8    1  0.1020295E-005  0.1444988E+03  0.7546771E-02  0.1217205E+00
         -2   -1    0    0    0  501 -0.00000000000E+00  0.00000000000E+00  0.79725820594E+02  0.79725820594E+02  0.00000000000E+00 0.  1.
          2   -1    0    0  501    0  0.00000000000E+00 -0.00000000000E+00 -0.23545197996E+03  0.23545197996E+03  0.00000000000E+00 0. -1.
         23    2    1    2    0    0  0.62433256130E+02  0.36782757639E+02 -0.38938802124E+02  0.14965337147E+03  0.12501607317E+03 0.  0.
         23    2    1    2    0    0 -0.62433256130E+02 -0.36782757639E+02 -0.11678735724E+03  0.16552442908E+03  0.92239726150E+02 0.  0.
          5    1    3    3  502    0  0.45647106753E+02 -0.42968073261E+02 -0.16838571751E+02  0.65081035435E+02  0.47000000000E+01 0.  1.
         -5    1    3    3    0  502  0.16786149377E+02  0.79750830900E+02 -0.22100230373E+02  0.84572336037E+02  0.47000000000E+01 0.  1.
        -11    1    4    4    0    0 -0.46515427685E+02 -0.61774866833E+01 -0.34468601582E+01  0.47050262480E+02  0.00000000000E+00 0.  1.
         11    1    4    4    0    0 -0.15917828445E+02 -0.30605270956E+02 -0.11334049708E+03  0.11847416660E+03  0.00000000000E+00 0. -1.
<mgrwt>
<rscale>  0 0.13715818E+03</rscale>
<asrwt>0</asrwt>
<pdfrwt beam="2">  1        2 0.36223381E-01 0.14449879E+03</pdfrwt>
<pdfrwt beam="1">  1       -2 0.12265511E-01 0.14449879E+03</pdfrwt>
<totfact> 0.64962398E+03</totfact>
</mgrwt>
</event>
<event>
 8    1  0.1020295E-005  0.1269591E+03  0.7546771E-02  0.1247488E+00
          1   -1    0    0  501    0  0.00000000000E+00  0.00000000000E+00  0.58542313219E+02  0.58542313219E+02  0.00000000000E+00 0. -1.
         -1   -1    0    0    0  501 -0.00000000000E+00 -0.00000000000E+00 -0.23353806008E+03  0.23353806008E+03  0.00000000000E+00 0.  1.
         23    2    1    2    0    0  0.21870979967E+02 -0.41807232910E+01 -0.14899335143E+03  0.19574892054E+03  0.12499121133E+03 0.  0.
         23    2    1    2    0    0 -0.21870979967E+02  0.41807232910E+01 -0.26002395429E+02  0.96331452758E+02  0.90043356282E+02 0.  0.
          5    1    3    3  502    0  0.14547223758E+02 -0.42521979998E+02 -0.38222040466E+01  0.45347985025E+02  0.47000000000E+01 0.  1.
         -5    1    3    3    0  502  0.73237562094E+01  0.38341256707E+02 -0.14517114738E+03  0.15040093551E+03  0.47000000000E+01 0.  1.
        -11    1    4    4    0    0 -0.71150495842E+01 -0.16415002852E+02 -0.54992901121E+02  0.57829883477E+02  0.00000000000E+00 0.  1.
         11    1    4    4    0    0 -0.14755930383E+02  0.20595726143E+02  0.28990505692E+02  0.38501569281E+02  0.00000000000E+00 0. -1.
<mgrwt>
<rscale>  0 0.11737704E+03</rscale>
<asrwt>0</asrwt>
<pdfrwt beam="1">  1        1 0.90065095E-02 0.12695913E+03</pdfrwt>
<pdfrwt beam="2">  1       -1 0.35928933E-01 0.12695913E+03</pdfrwt>
<totfact> 0.52392207E+03</totfact>
</mgrwt>
</event>
<event>
 8    1  0.1020295E-005  0.1424692E+03  0.7546771E-02  0.1220277E+00
         -2   -1    0    0    0  501 -0.00000000000E+00  0.00000000000E+00  0.33765271227E+02  0.33765271227E+02  0.00000000000E+00 0.  1.
          2   -1    0    0  501    0  0.00000000000E+00 -0.00000000000E+00 -0.48976923031E+03  0.48976923031E+03  0.00000000000E+00 0. -1.
         23    2    1    2    0    0  0.65304549724E+02 -0.20212089086E+02 -0.25382659008E+03  0.29107628631E+03  0.12499701541E+03 0.  0.
         23    2    1    2    0    0 -0.65304549724E+02  0.20212089086E+02 -0.20217736900E+03  0.23245821522E+03  0.92129911149E+02 0.  0.
          5    1    3    3  502    0  0.82887651283E+01 -0.46215754539E+02 -0.20803753955E+03  0.21332207448E+03  0.47000000000E+01 0. -1.
         -5    1    3    3    0  502  0.57015784595E+02  0.26003665453E+02 -0.45789050523E+02  0.77754211833E+02  0.47000000000E+01 0. -1.
        -11    1    4    4    0    0 -0.40504549821E+02 -0.52059852616E+00 -0.16093632972E+02  0.43587780412E+02  0.00000000000E+00 0.  1.
         11    1    4    4    0    0 -0.24799999903E+02  0.20732687613E+02 -0.18608373603E+03  0.18887043481E+03  0.00000000000E+00 0. -1.
<mgrwt>
<rscale>  0 0.13495915E+03</rscale>
<asrwt>0</asrwt>
<pdfrwt beam="2">  1        2 0.75349111E-01 0.14246918E+03</pdfrwt>
<pdfrwt beam="1">  1       -2 0.51946572E-02 0.14246918E+03</pdfrwt>
<totfact> 0.11220186E+04</totfact>
</mgrwt>
</event>
<event>
 8    1  0.1020295E-005  0.1373183E+03  0.7546771E-02  0.1228558E+00
         -2   -1    0    0    0  501 -0.00000000000E+00  0.00000000000E+00  0.11084149776E+03  0.11084149776E+03  0.00000000000E+00 0.  1.
          2   -1    0    0  501    0  0.00000000000E+00 -0.00000000000E+00 -0.19379776739E+03  0.19379776739E+03  0.00000000000E+00 0. -1.
         23    2    1    2    0    0 -0.43424533630E+02 -0.36678204472E+02  0.38127115301E+02  0.14251317439E+03  0.12500138859E+03 0.  0.
         23    2    1    2    0    0  0.43424533630E+02  0.36678204472E+02 -0.12108338494E+03  0.16212609076E+03  0.91611693535E+02 0.  0.
          5    1    3    3  502    0 -0.63283920197E+02 -0.90094729610E+01  0.70506551587E+02  0.95285303039E+02  0.47000000000E+01 0. -1.
         -5    1    3    3    0  502  0.19859386566E+02 -0.27668731511E+02 -0.32379436287E+02  0.47227871352E+02  0.47000000000E+01 0. -1.
        -11    1    4    4    0    0  0.70781555703E+02  0.16354687358E+02 -0.92700729959E+02  0.11777491143E+03  0.00000000000E+00 0. -1.
         11    1    4    4    0    0 -0.27357022073E+02  0.20323517115E+02 -0.28382654980E+02  0.44351179334E+02  0.00000000000E+00 0.  1.
<mgrwt>
<rscale>  0 0.12926007E+03</rscale>
<asrwt>0</asrwt>
<pdfrwt beam="2">  1        2 0.29815041E-01 0.13731835E+03</pdfrwt>
<pdfrwt beam="1">  1       -2 0.17052538E-01 0.13731835E+03</pdfrwt>
<totfact> 0.46687463E+03</totfact>
</mgrwt>
</event>
<event>
 8    1  0.1020295E-005  0.1303932E+03  0.7546771E-02  0.1240132E+00
          4   -1    0    0  501    0  0.00000000000E+00  0.00000000000E+00  0.32253634189E+03  0.32253634189E+03  0.00000000000E+00 0. -1.
         -4   -1    0    0    0  501 -0.00000000000E+00 -0.00000000000E+00 -0.40905957741E+02  0.40905957741E+02  0.00000000000E+00 0.  1.
         23    2    1    2    0    0 -0.22286504864E+02 -0.29666871074E+02  0.15792191745E+03  0.20479674971E+03  0.12500226056E+03 0.  0.
         23    2    1    2    0    0  0.22286504864E+02  0.29666871074E+02  0.12370846670E+03  0.15864554992E+03  0.92129334292E+02 0.  0.
          5    1    3    3  502    0 -0.41554090608E+02 -0.66097487432E+02  0.60407406435E+02  0.98826944925E+02  0.47000000000E+01 0.  1.
         -5    1    3    3    0  502  0.19267585744E+02  0.36430616358E+02  0.97514511012E+02  0.10596980479E+03  0.47000000000E+01 0.  1.
        -11    1    4    4    0    0 -0.57526942251E+01  0.41777900324E+02  0.12081730002E+03  0.12796603624E+03  0.00000000000E+00 0. -1.
         11    1    4    4    0    0  0.28039199089E+02 -0.12111029251E+02  0.28911666842E+01  0.30679513683E+02  0.00000000000E+00 0.  1.
<mgrwt>
<rscale>  0 0.12181512E+03</rscale>
<asrwt>0</asrwt>
<pdfrwt beam="1">  1        4 0.49620974E-01 0.13039316E+03</pdfrwt>
<pdfrwt beam="2">  1       -4 0.62932245E-02 0.13039316E+03</pdfrwt>
<totfact> 0.10593608E+03</totfact>
</mgrwt>
</event>
<event>
 8    1  0.1020295E-005  0.1652860E+03  0.7546771E-02  0.1189968E+00
          1   -1    0    0  501    0  0.00000000000E+00  0.00000000000E+00  0.82019133870E+03  0.82019133870E+03  0.00000000000E+00 0. -1.
         -1   -1    0    0    0  501 -0.00000000000E+00 -0.00000000000E+00 -0.42445949614E+02  0.42445949614E+02  0.00000000000E+00 0.  1.
         23    2    1    2    0    0  0.10664072052E+03  0.17932982406E+02  0.16386350409E+03  0.23274601209E+03  0.12500249214E+03 0.  0.
         23    2    1    2    0    0 -0.10664072052E+03 -0.17932982406E+02  0.61388188500E+03  0.62989127623E+03  0.90654376659E+02 0.  0.
          5    1    3    3  502    0  0.11683213889E+03 -0.25651290788E+02  0.11019849696E+03  0.16270690253E+03  0.47000000000E+01 0. -1.
         -5    1    3    3    0  502 -0.10191418374E+02  0.43584273193E+02  0.53665007125E+02  0.70039109561E+02  0.47000000000E+01 0. -1.
        -11    1    4    4    0    0 -0.40174263015E+02 -0.50903181907E+02  0.23329222153E+03  0.24213708093E+03  0.00000000000E+00 0.  1.
         11    1    4    4    0    0 -0.66466457503E+02  0.32970199501E+02  0.38058966347E+03  0.38775419530E+03  0.00000000000E+00 0. -1.
<mgrwt>
<rscale>  0 0.15887901E+03</rscale>
<asrwt>0</asrwt>
<pdfrwt beam="1">  1        1 0.12618327E+00 0.16528599E+03</pdfrwt>
<pdfrwt beam="2">  1       -1 0.65301467E-02 0.16528599E+03</pdfrwt>
<totfact> 0.25746263E+03</totfact>
</mgrwt>
</event>
<event>
 8    1  0.1020295E-005  0.1551425E+03  0.7546771E-02  0.1207702E+00
         -1   -1    0    0    0  501 -0.00000000000E+00  0.00000000000E+00  0.36897768448E+03  0.36897768448E+03  0.00000000000E+00 0.  1.
          1   -1    0    0  501    0  0.00000000000E+00 -0.00000000000E+00 -0.49822932944E+02  0.49822932944E+02  0.00000000000E+00 0. -1.
         23    2    1    2    0    0 -0.84207282353E+02 -0.36800389195E+02  0.18568945310E+03  0.24197058153E+03  0.12499621709E+03 0.  0.
         23    2    1    2    0    0  0.84207282353E+02  0.36800389195E+02  0.13346529844E+03  0.17683003590E+03  0.70786585326E+02 0.  0.
          5    1    3    3  502    0 -0.74818161812E+02  0.14776342540E+02  0.17104684696E+03  0.18733715993E+03  0.47000000000E+01 0.  1.
         -5    1    3    3    0  502 -0.93891205417E+01 -0.51576731736E+02  0.14642606143E+02  0.54633421600E+02  0.47000000000E+01 0.  1.
        -11    1    4    4    0    0  0.25438776937E+02  0.34500641055E+02  0.10084240702E+03  0.10957470812E+03  0.00000000000E+00 0.  1.
         11    1    4    4    0    0  0.58768505416E+02  0.22997481400E+01  0.32622891417E+02  0.67255327780E+02  0.00000000000E+00 0. -1.
<mgrwt>
<rscale>  0 0.14426535E+03</rscale>
<asrwt>0</asrwt>
<pdfrwt beam="2">  1        1 0.76650668E-02 0.15514248E+03</pdfrwt>
<pdfrwt beam="1">  1       -1 0.56765796E-01 0.15514248E+03</pdfrwt>
<totfact> 0.28962129E+03</totfact>
</mgrwt>
</event>
<event>
 8    1  0.1020295E-005  0.1359410E+03  0.7546771E-02  0.1235536E+00
          1   -1    0    0  501    0  0.00000000000E+00  0.00000000000E+00  0.89816972939E+02  0.89816972939E+02  0.00000000000E+00 0. -1.
         -1   -1    0    0    0  501 -0.00000000000E+00 -0.00000000000E+00 -0.15012484703E+03  0.15012484703E+03  0.00000000000E+00 0.  1.
         23    2    1    2    0    0 -0.83234782198E+01 -0.52740046303E+02 -0.33105794454E+02  0.13991406525E+03  0.12501663591E+03 0.  0.
         23    2    1    2    0    0  0.83234782198E+01  0.52740046303E+02 -0.27202079636E+02  0.10002775472E+03  0.80092482822E+02 0.  0.
          5    1    3    3  502    0 -0.36954849044E+02 -0.85230872460E+01  0.36264579734E+02  0.52683143673E+02  0.47000000000E+01 0.  1.
         -5    1    3    3    0  502  0.28631370824E+02 -0.44216959057E+02 -0.69370374187E+02  0.87230921573E+02  0.47000000000E+01 0.  1.
        -11    1    4    4    0    0 -0.35992819005E+02  0.23906514205E+02 -0.92095710958E+01  0.44179414223E+02  0.00000000000E+00 0. -1.
         11    1    4    4    0    0  0.44316297225E+02  0.28833532099E+02 -0.17992508540E+02  0.55848340500E+02  0.00000000000E+00 0.  1.
<mgrwt>
<rscale>  0 0.12470159E+03</rscale>
<asrwt>0</asrwt>
<pdfrwt beam="1">  1        1 0.13817996E-01 0.13594099E+03</pdfrwt>
<pdfrwt beam="2">  1       -1 0.23096130E-01 0.13594099E+03</pdfrwt>
<totfact> 0.62714191E+03</totfact>
</mgrwt>
</event>
<event>
 8    1  0.1020295E-005  0.2625517E+03  0.7546771E-02  0.1107841E+00
         -2   -1    0    0    0  501 -0.00000000000E+00  0.00000000000E+00  0.95178275296E+02  0.95178275296E+02  0.00000000000E+00 0.  1.
          2   -1    0    0  501    0  0.00000000000E+00 -0.00000000000E+00 -0.92382337853E+03  0.92382337853E+03  0.00000000000E+00 0. -1.
         23    2    1    2    0    0 -0.19163718314E+03 -0.12877719145E+03 -0.16394102411E+03  0.30953201562E+03  0.12500013722E+03 0.  0.
         23    2    1    2    0    0  0.19163718314E+03  0.12877719145E+03 -0.66470407913E+03  0.70946963821E+03  0.90594038107E+02 0.  0.
          5    1    3    3  502    0 -0.13713076233E+03 -0.19388441821E+02 -0.69619091969E+02  0.15507954611E+03  0.47000000000E+01 0.  1.
         -5    1    3    3    0  502 -0.54506420808E+02 -0.10938874963E+03 -0.94321932141E+02  0.15445246951E+03  0.47000000000E+01 0.  1.
        -11    1    4    4    0    0  0.12776599179E+03  0.45826568303E+02 -0.45911156386E+03  0.47875635880E+03  0.00000000000E+00 0. -1.
         11    1    4    4    0    0  0.63871191356E+02  0.82950623145E+02 -0.20559251527E+03  0.23071327942E+03  0.00000000000E+00 0.  1.
<mgrwt>
<rscale>  0 0.25884177E+03</rscale>
<asrwt>0</asrwt>
<pdfrwt beam="2">  1        2 0.14212667E+00 0.26255173E+03</pdfrwt>
<pdfrwt beam="1">  1       -2 0.14642812E-01 0.26255173E+03</pdfrwt>
<totfact> 0.10467579E+03</totfact>
</mgrwt>
</event>
<event>
 8    1  0.1020295E-005  0.1805794E+03  0.7546771E-02  0.1171516E+00
          3   -1    0    0  501    0  0.00000000000E+00  0.00000000000E+00  0.39800313156E+02  0.39800313156E+02  0.00000000000E+00 0. -1.
         -3   -1    0    0    0  501 -0.00000000000E+00 -0.00000000000E+00 -0.10078193622E+04  0.10078193622E+04  0.00000000000E+00 0.  1.
         23    2    1    2    0    0 -0.13025752226E+03 -0.44288625864E+01 -0.76888522571E+03  0.78980593698E+03  0.12498916290E+03 0.  0.
         23    2    1    2    0    0  0.13025752226E+03  0.44288625864E+01 -0.19913382336E+03  0.25781373840E+03  0.99131262347E+02 0.  0.
          5    1    3    3  502    0 -0.14970086338E+03  0.10003271324E+02 -0.57146967722E+03  0.59085539341E+03  0.47000000000E+01 0.  1.
         -5    1    3    3    0  502  0.19443341119E+02 -0.14432133911E+02 -0.19741554849E+03  0.19895054357E+03  0.47000000000E+01 0.  1.
        -11    1    4    4    0    0  0.76216320066E+02  0.53761602824E+01 -0.18757874025E+03  0.20254287037E+03  0.00000000000E+00 0.  1.
         11    1    4    4    0    0  0.54041202192E+02 -0.94729769605E+00 -0.11555083107E+02  0.55270868031E+02  0.00000000000E+00 0. -1.
<mgrwt>
<rscale>  0 0.17621614E+03</rscale>
<asrwt>0</asrwt>
<pdfrwt beam="1">  1        3 0.61231257E-02 0.18057942E+03</pdfrwt>
<pdfrwt beam="2">  1       -3 0.15504912E+00 0.18057942E+03</pdfrwt>
<totfact> 0.12560558E+02</totfact>
</mgrwt>
</event>
<event>
 8    1  0.1020295E-005  0.1369595E+03  0.7546771E-02  0.1230977E+00
          2   -1    0    0  501    0  0.00000000000E+00  0.00000000000E+00  0.52395896829E+03  0.52395896829E+03  0.00000000000E+00 0.  1.
         -2   -1    0    0    0  501 -0.00000000000E+00 -0.00000000000E+00 -0.27558792635E+02  0.27558792635E+02  0.00000000000E+00 0. -1.
         23    2    1    2    0    0  0.29453996220E+02  0.47595855693E+02  0.28108957032E+03  0.31268076758E+03  0.12500005002E+03 0.  0.
         23    2    1    2    0    0 -0.29453996220E+02 -0.47595855693E+02  0.21531060534E+03  0.23883699334E+03  0.86899650425E+02 0.  0.
          5    1    3    3  502    0  0.27024601077E+02  0.88412713112E+02  0.16076761276E+03  0.18551402161E+03  0.47000000000E+01 0. -1.
         -5    1    3    3    0  502  0.24293951430E+01 -0.40816857418E+02  0.12032195756E+03  0.12716674597E+03  0.47000000000E+01 0. -1.
        -11    1    4    4    0    0 -0.67741546200E+01  0.24280610842E+02  0.32733797848E+02  0.41315115337E+02  0.00000000000E+00 0. -1.
         11    1    4    4    0    0 -0.22679841600E+02 -0.71876466536E+02  0.18257680749E+03  0.19752187801E+03  0.00000000000E+00 0.  1.
<mgrwt>
<rscale>  0 0.12765512E+03</rscale>
<asrwt>0</asrwt>
<pdfrwt beam="1">  1        2 0.80609065E-01 0.13695954E+03</pdfrwt>
<pdfrwt beam="2">  1       -2 0.42398146E-02 0.13695954E+03</pdfrwt>
<totfact> 0.14080135E+04</totfact>
</mgrwt>
</event>
<event>
 8    1  0.1020295E-005  0.1636512E+03  0.7546771E-02  0.1191541E+00
         -1   -1    0    0    0  501 -0.00000000000E+00  0.00000000000E+00  0.40548724238E+03  0.40548724238E+03  0.00000000000E+00 0.  1.
          1   -1    0    0  501    0  0.00000000000E+00 -0.00000000000E+00 -0.57029636000E+02  0.57029636000E+02  0.00000000000E+00 0. -1.
         23    2    1    2    0    0 -0.93709257904E+02 -0.48662516577E+02  0.18288809603E+03  0.24541751202E+03  0.12502893265E+03 0.  0.
         23    2    1    2    0    0  0.93709257904E+02  0.48662516577E+02  0.16556951034E+03  0.21709936636E+03  0.92571089335E+02 0.  0.
          5    1    3    3  502    0 -0.34130516325E+02  0.29233728870E+02  0.95156922428E+01  0.46175117186E+02  0.47000000000E+01 0. -1.
         -5    1    3    3    0  502 -0.59578741579E+02 -0.77896245447E+02  0.17337240379E+03  0.19924239483E+03  0.47000000000E+01 0. -1.
        -11    1    4    4    0    0  0.27655293998E+02  0.59510031688E+02  0.46239591355E+02  0.80276764797E+02  0.00000000000E+00 0. -1.
         11    1    4    4    0    0  0.66053963906E+02 -0.10847515111E+02  0.11932991899E+03  0.13682260156E+03  0.00000000000E+00 0.  1.
<mgrwt>
<rscale>  0 0.15750689E+03</rscale>
<asrwt>0</asrwt>
<pdfrwt beam="2">  1        1 0.87737904E-02 0.16365115E+03</pdfrwt>
<pdfrwt beam="1">  1       -1 0.62382651E-01 0.16365115E+03</pdfrwt>
<totfact> 0.20227091E+03</totfact>
</mgrwt>
</event>
<event>
 8    1  0.1020295E-005  0.1253280E+03  0.7546771E-02  0.1250009E+00
         -1   -1    0    0    0  501 -0.00000000000E+00  0.00000000000E+00  0.23379537811E+02  0.23379537811E+02  0.00000000000E+00 0.  1.
          1   -1    0    0  501    0  0.00000000000E+00 -0.00000000000E+00 -0.51762581190E+03  0.51762581190E+03  0.00000000000E+00 0. -1.
         23    2    1    2    0    0 -0.75604859829E+01  0.49544503929E+01 -0.24033268890E+03  0.27104779257E+03  0.12500158790E+03 0.  0.
         23    2    1    2    0    0  0.75604859829E+01 -0.49544503929E+01 -0.25391358519E+03  0.26995755714E+03  0.91231937318E+02 0.  0.
          5    1    3    3  502    0 -0.46600339395E+02 -0.39001692458E+02 -0.16132769913E+03  0.17245706756E+03  0.47000000000E+01 0. -1.
         -5    1    3    3    0  502  0.39039853412E+02  0.43956142850E+02 -0.79004989770E+02  0.98590725007E+02  0.47000000000E+01 0. -1.
        -11    1    4    4    0    0 -0.37384038410E+02  0.71175857801E+01 -0.16792801618E+03  0.17218607659E+03  0.00000000000E+00 0. -1.
         11    1    4    4    0    0  0.44944524393E+02 -0.12072036173E+02 -0.85985569010E+02  0.97771480547E+02  0.00000000000E+00 0.  1.
<mgrwt>
<rscale>  0 0.11590525E+03</rscale>
<asrwt>0</asrwt>
<pdfrwt beam="2">  1        1 0.79634738E-01 0.12532799E+03</pdfrwt>
<pdfrwt beam="1">  1       -1 0.35968521E-02 0.12532799E+03</pdfrwt>
<totfact> 0.11728273E+04</totfact>
</mgrwt>
</event>
<event>
 8    1  0.1020295E-005  0.1453476E+03  0.7546771E-02  0.1216351E+00
         -4   -1    0    0    0  501 -0.00000000000E+00  0.00000000000E+00  0.41865565373E+03  0.41865565373E+03  0.00000000000E+00 0.  1.
          4   -1    0    0  501    0  0.00000000000E+00 -0.00000000000E+00 -0.41636881089E+02  0.41636881089E+02  0.00000000000E+00 0. -1.
         23    2    1    2    0    0 -0.41145981305E+02 -0.61722599300E+02  0.23156384070E+03  0.27340034724E+03  0.12499306583E+03 0.  0.
         23    2    1    2    0    0  0.41145981305E+02  0.61722599300E+02  0.14545493193E+03  0.18689218758E+03  0.90933390521E+02 0.  0.
          5    1    3    3  502    0  0.35521793383E+02 -0.55645300773E+02  0.84095541788E+02  0.10701564116E+03  0.47000000000E+01 0. -1.
         -5    1    3    3    0  502 -0.76667774689E+02 -0.60772985270E+01  0.14746829892E+03  0.16638470608E+03  0.47000000000E+01 0. -1.
        -11    1    4    4    0    0  0.88030123826E+01  0.73293161779E+02  0.61149874056E+02  0.95857642823E+02  0.00000000000E+00 0.  1.
         11    1    4    4    0    0  0.32342968922E+02 -0.11570562479E+02  0.84305057879E+02  0.91034544755E+02  0.00000000000E+00 0. -1.
<mgrwt>
<rscale>  0 0.13777768E+03</rscale>
<asrwt>0</asrwt>
<pdfrwt beam="2">  1        4 0.64056743E-02 0.14534764E+03</pdfrwt>
<pdfrwt beam="1">  1       -4 0.64408559E-01 0.14534764E+03</pdfrwt>
<totfact> 0.61154808E+02</totfact>
</mgrwt>
</event>
<event>
 8    1  0.1020295E-005  0.1305323E+03  0.7546771E-02  0.1240093E+00
          3   -1    0    0  501    0  0.00000000000E+00  0.00000000000E+00  0.31277106476E+03  0.31277106476E+03  0.00000000000E+00 0. -1.
         -3   -1    0    0    0  501 -0.00000000000E+00 -0.00000000000E+00 -0.42306337671E+02  0.42306337671E+02  0.00000000000E+00 0.  1.
         23    2    1    2    0    0 -0.27257958097E+02 -0.25898649869E+02  0.14270943079E+03  0.19340285986E+03  0.12499979288E+03 0.  0.
         23    2    1    2    0    0  0.27257958097E+02  0.25898649869E+02  0.12775529630E+03  0.16167454257E+03  0.91670636738E+02 0.  0.
          5    1    3    3  502    0 -0.26103693339E+02 -0.46630801191E+02  0.48008517504E+01  0.53860677708E+02  0.47000000000E+01 0. -1.
         -5    1    3    3    0  502 -0.11542647585E+01  0.20732151322E+02  0.13790857904E+03  0.13954218215E+03  0.47000000000E+01 0. -1.
        -11    1    4    4    0    0 -0.32922411929E+02  0.15698098220E+02  0.62176394932E+02  0.72084808259E+02  0.00000000000E+00 0.  1.
         11    1    4    4    0    0  0.60180370026E+02  0.10200551650E+02  0.65578901365E+02  0.89589734315E+02  0.00000000000E+00 0. -1.
<mgrwt>
<rscale>  0 0.12183925E+03</rscale>
<asrwt>0</asrwt>
<pdfrwt beam="1">  1        3 0.48118624E-01 0.13053231E+03</pdfrwt>
<pdfrwt beam="2">  1       -3 0.65086675E-02 0.13053231E+03</pdfrwt>
<totfact> 0.14718926E+03</totfact>
</mgrwt>
</event>
<event>
 8    1  0.1020295E-005  0.3599685E+03  0.7546771E-02  0.1059682E+00
         -2   -1    0    0    0  501 -0.00000000000E+00  0.00000000000E+00  0.24682816945E+03  0.24682816945E+03  0.00000000000E+00 0.  1.
          2   -1    0    0  501    0  0.00000000000E+00 -0.00000000000E+00 -0.71577121637E+03  0.71577121637E+03  0.00000000000E+00 0. -1.
         23    2    1    2    0    0 -0.23127089715E+03 -0.24589904302E+03  0.21431676439E+02  0.36060595401E+03  0.12499908034E+03 0.  0.
         23    2    1    2    0    0  0.23127089715E+03  0.24589904302E+03 -0.49037472336E+03  0.60199343181E+03  0.89309324283E+02 0.  0.
          5    1    3    3  502    0 -0.19985978307E+03 -0.15501919674E+03 -0.24081039425E+02  0.25411979598E+03  0.47000000000E+01 0. -1.
         -5    1    3    3    0  502 -0.31411114074E+02 -0.90879846276E+02  0.45512715864E+02  0.10648615803E+03  0.47000000000E+01 0. -1.
        -11    1    4    4    0    0  0.36887487690E+02  0.55153460866E+02 -0.45764299811E+02  0.80603735216E+02  0.00000000000E+00 0. -1.
         11    1    4    4    0    0  0.19438340946E+03  0.19074558215E+03 -0.44461042355E+03  0.52138969659E+03  0.00000000000E+00 0.  1.
<mgrwt>
<rscale>  0 0.35724129E+03</rscale>
<asrwt>0</asrwt>
<pdfrwt beam="2">  1        2 0.11011865E+00 0.35996852E+03</pdfrwt>
<pdfrwt beam="1">  1       -2 0.37973565E-01 0.35996852E+03</pdfrwt>
<totfact> 0.26878462E+02</totfact>
</mgrwt>
</event>
<event>
 8    1  0.1020295E-005  0.1974301E+03  0.7546771E-02  0.1156396E+00
         -2   -1    0    0    0  501 -0.00000000000E+00  0.00000000000E+00  0.13162535166E+03  0.13162535166E+03  0.00000000000E+00 0.  1.
          2   -1    0    0  501    0  0.00000000000E+00 -0.00000000000E+00 -0.33636941684E+03  0.33636941684E+03  0.00000000000E+00 0. -1.
         23    2    1    2    0    0 -0.13562833632E+03 -0.70042284509E+02 -0.74002278317E+00  0.19743152754E+03  0.12521059541E+03 0.  0.
         23    2    1    2    0    0  0.13562833632E+03  0.70042284509E+02 -0.20400404240E+03  0.27056324095E+03  0.91026648901E+02 0.  0.
          5    1    3    3  502    0 -0.21389774270E+02 -0.56193658409E+02 -0.43732972646E+02  0.74497735436E+02  0.47000000000E+01 0.  1.
         -5    1    3    3    0  502 -0.11423856205E+03 -0.13848626100E+02  0.42992949863E+02  0.12293379211E+03  0.47000000000E+01 0.  1.
        -11    1    4    4    0    0  0.13619334181E+03  0.32319793474E+02 -0.15884422840E+03  0.21171840803E+03  0.00000000000E+00 0.  1.
         11    1    4    4    0    0 -0.56500549715E+00  0.37722491035E+02 -0.45159813997E+02  0.58844832920E+02  0.00000000000E+00 0. -1.
<mgrwt>
<rscale>  0 0.19230843E+03</rscale>
<asrwt>0</asrwt>
<pdfrwt beam="2">  1        2 0.51749141E-01 0.19743014E+03</pdfrwt>
<pdfrwt beam="1">  1       -2 0.20250054E-01 0.19743014E+03</pdfrwt>
<totfact> 0.19651689E+03</totfact>
</mgrwt>
</event>
<event>
 8    1  0.1020295E-005  0.1965671E+03  0.7546771E-02  0.1157285E+00
         -3   -1    0    0    0  501 -0.00000000000E+00  0.00000000000E+00  0.50418018503E+03  0.50418018503E+03  0.00000000000E+00 0.  1.
          3   -1    0    0  501    0  0.00000000000E+00 -0.00000000000E+00 -0.10175990178E+03  0.10175990178E+03  0.00000000000E+00 0. -1.
         23    2    1    2    0    0 -0.14278133823E+03 -0.51283436869E+02  0.38042387660E+03  0.42820667064E+03  0.12498850127E+03 0.  0.
         23    2    1    2    0    0  0.14278133823E+03  0.51283436869E+02  0.21996406642E+02  0.17773341617E+03  0.89937888975E+02 0.  0.
          5    1    3    3  502    0 -0.77519424120E+02  0.40604406475E+01  0.65020640275E+02  0.10136824925E+03  0.47000000000E+01 0. -1.
         -5    1    3    3    0  502 -0.65261914109E+02 -0.55343877517E+02  0.31540323633E+03  0.32683842139E+03  0.47000000000E+01 0. -1.
        -11    1    4    4    0    0 -0.11167091086E+01  0.28127382804E+02  0.14808398969E+02  0.31807002101E+02  0.00000000000E+00 0.  1.
         11    1    4    4    0    0  0.14389804734E+03  0.23156054065E+02  0.71880076736E+01  0.14592641407E+03  0.00000000000E+00 0. -1.
<mgrwt>
<rscale>  0 0.19130991E+03</rscale>
<asrwt>0</asrwt>
<pdfrwt beam="2">  1        3 0.15655370E-01 0.19656711E+03</pdfrwt>
<pdfrwt beam="1">  1       -3 0.77566181E-01 0.19656711E+03</pdfrwt>
<totfact> 0.13405814E+02</totfact>
</mgrwt>
</event>
<event>
 8    1  0.2580182E-005  0.3336304E+03  0.7546771E-02  0.1069890E+00
          1   -1    0    0  501    0  0.00000000000E+00  0.00000000000E+00  0.61432157232E+03  0.61432157232E+03  0.00000000000E+00 0. -1.
         -1   -1    0    0    0  501 -0.00000000000E+00 -0.00000000000E+00 -0.18116882020E+03  0.18116882020E+03  0.00000000000E+00 0.  1.
         23    2    1    2    0    0 -0.70211327662E+02  0.30125539188E+03  0.17908741871E+03  0.37865755930E+03  0.12499920801E+03 0.  0.
         23    2    1    2    0    0  0.70211327662E+02 -0.30125539188E+03  0.25406533341E+03  0.41683283322E+03  0.11625822783E+03 0.  0.
          5    1    3    3  502    0 -0.78448885660E+01  0.19402023575E+03  0.52166497342E+02  0.20111893894E+03  0.47000000000E+01 0.  1.
         -5    1    3    3    0  502 -0.62366439096E+02  0.10723515613E+03  0.12692092137E+03  0.17753862035E+03  0.47000000000E+01 0.  1.
        -11    1    4    4    0    0 -0.28963255816E+01 -0.19497359288E+03  0.11171993694E+03  0.22473191792E+03  0.00000000000E+00 0.  1.
         11    1    4    4    0    0  0.73107653243E+02 -0.10628179900E+03  0.14234539647E+03  0.19210091530E+03  0.00000000000E+00 0. -1.
<mgrwt>
<rscale>  0 0.33283367E+03</rscale>
<asrwt>0</asrwt>
<pdfrwt beam="1">  1        1 0.94511010E-01 0.33363040E+03</pdfrwt>
<pdfrwt beam="2">  1       -1 0.27872127E-01 0.33363040E+03</pdfrwt>
<totfact> 0.39508778E+02</totfact>
</mgrwt>
</event>
<event>
 8    1  0.1020295E-005  0.1372672E+03  0.7546771E-02  0.1230321E+00
          3   -1    0    0  501    0  0.00000000000E+00  0.00000000000E+00  0.36289825097E+03  0.36289825097E+03  0.00000000000E+00 0. -1.
         -3   -1    0    0    0  501 -0.00000000000E+00 -0.00000000000E+00 -0.44703631957E+02  0.44703631957E+02  0.00000000000E+00 0.  1.
         23    2    1    2    0    0 -0.31542928756E+02  0.47132501381E+02  0.11406668513E+03  0.17847547714E+03  0.12500343291E+03 0.  0.
         23    2    1    2    0    0  0.31542928756E+02 -0.47132501381E+02  0.20412793388E+03  0.22912640579E+03  0.87259769658E+02 0.  0.
          5    1    3    3  502    0 -0.72564087469E+02  0.57596781015E+02  0.91392943753E+02  0.13022171916E+03  0.47000000000E+01 0. -1.
         -5    1    3    3    0  502  0.41021158714E+02 -0.10464279633E+02  0.22673741381E+02  0.48253757975E+02  0.47000000000E+01 0. -1.
        -11    1    4    4    0    0  0.17187001916E+02 -0.65017164900E+02  0.19145809486E+03  0.20292566830E+03  0.00000000000E+00 0. -1.
         11    1    4    4    0    0  0.14355926840E+02  0.17884663518E+02  0.12669839021E+02  0.26200737498E+02  0.00000000000E+00 0.  1.
<mgrwt>
<rscale>  0 0.12808762E+03</rscale>
<asrwt>0</asrwt>
<pdfrwt beam="1">  1        3 0.55830498E-01 0.13726721E+03</pdfrwt>
<pdfrwt beam="2">  1       -3 0.68774821E-02 0.13726721E+03</pdfrwt>
<totfact> 0.10079568E+03</totfact>
</mgrwt>
</event>
<event>
 8    1  0.1020295E-005  0.1565349E+03  0.7546771E-02  0.1199781E+00
         -2   -1    0    0    0  501 -0.00000000000E+00  0.00000000000E+00  0.32774482336E+02  0.32774482336E+02  0.00000000000E+00 0.  1.
          2   -1    0    0  501    0  0.00000000000E+00 -0.00000000000E+00 -0.65185547059E+03  0.65185547059E+03  0.00000000000E+00 0. -1.
         23    2    1    2    0    0  0.94184070599E+02 -0.28274972060E+01 -0.37118136308E+03  0.40283839652E+03  0.12499814207E+03 0.  0.
         23    2    1    2    0    0 -0.94184070599E+02  0.28274972060E+01 -0.24789962517E+03  0.28179155640E+03  0.95255567831E+02 0.  0.
          5    1    3    3  502    0  0.10299000753E+03 -0.25792380672E+02 -0.17267068594E+03  0.20275464072E+03  0.47000000000E+01 0.  1.
         -5    1    3    3    0  502 -0.88059369259E+01  0.22964883466E+02 -0.19851067714E+03  0.20008375580E+03  0.47000000000E+01 0.  1.
        -11    1    4    4    0    0  0.47111883293E+01 -0.25158345064E+02 -0.22556936053E+02  0.34116755207E+02  0.00000000000E+00 0.  1.
         11    1    4    4    0    0 -0.98895258929E+02  0.27985842270E+02 -0.22534268912E+03  0.24767480119E+03  0.00000000000E+00 0. -1.
<mgrwt>
<rscale>  0 0.15056472E+03</rscale>
<asrwt>0</asrwt>
<pdfrwt beam="2">  1        2 0.10028545E+00 0.15653488E+03</pdfrwt>
<pdfrwt beam="1">  1       -2 0.50422282E-02 0.15653488E+03</pdfrwt>
<totfact> 0.85498924E+03</totfact>
</mgrwt>
</event>
<event>
 8    1  0.1020295E-005  0.1427262E+03  0.7546771E-02  0.1220057E+00
         -1   -1    0    0    0  501 -0.00000000000E+00  0.00000000000E+00  0.27174608199E+03  0.27174608199E+03  0.00000000000E+00 0.  1.
          1   -1    0    0  501    0  0.00000000000E+00 -0.00000000000E+00 -0.72965643566E+02  0.72965643566E+02  0.00000000000E+00 0. -1.
         23    2    1    2    0    0  0.55394687400E+02  0.40950199963E+02  0.17809287277E+03  0.22822760375E+03  0.12500111004E+03 0.  0.
         23    2    1    2    0    0 -0.55394687400E+02 -0.40950199963E+02  0.20687565650E+02  0.11648412180E+03  0.91624696403E+02 0.  0.
          5    1    3    3  502    0  0.27576743822E+02  0.34822352125E+02 -0.30758434687E+01  0.44773025589E+02  0.47000000000E+01 0. -1.
         -5    1    3    3    0  502  0.27817943578E+02  0.61278478375E+01  0.18116871624E+03  0.18345457816E+03  0.47000000000E+01 0. -1.
        -11    1    4    4    0    0 -0.46534491150E+02  0.14473754269E+02 -0.13747162122E+02  0.50635292984E+02  0.00000000000E+00 0. -1.
         11    1    4    4    0    0 -0.88601962504E+01 -0.55423954231E+02  0.34434727772E+02  0.65848828820E+02  0.00000000000E+00 0.  1.
<mgrwt>
<rscale>  0 0.13511531E+03</rscale>
<asrwt>0</asrwt>
<pdfrwt beam="2">  1        1 0.11225484E-01 0.14272620E+03</pdfrwt>
<pdfrwt beam="1">  1       -1 0.41807089E-01 0.14272620E+03</pdfrwt>
<totfact> 0.30259654E+03</totfact>
</mgrwt>
</event>
<event>
 8    1  0.1020295E-005  0.1916854E+03  0.7546771E-02  0.1161755E+00
          2   -1    0    0  501    0  0.00000000000E+00  0.00000000000E+00  0.73320869289E+03  0.73320869289E+03  0.00000000000E+00 0. -1.
         -2   -1    0    0    0  501 -0.00000000000E+00 -0.00000000000E+00 -0.45912832707E+02  0.45912832707E+02  0.00000000000E+00 0.  1.
         23    2    1    2    0    0 -0.11186529754E+03 -0.92754156580E+02  0.30598282210E+03  0.36106615091E+03  0.12500439817E+03 0.  0.
         23    2    1    2    0    0  0.11186529754E+03  0.92754156580E+02  0.38131303808E+03  0.41805537468E+03  0.90848692507E+02 0.  0.
          5    1    3    3  502    0 -0.23085759322E+02 -0.13494230459E+02  0.19938552455E+03  0.20122555489E+03  0.47000000000E+01 0.  1.
         -5    1    3    3    0  502 -0.88779538214E+02 -0.79259926121E+02  0.10659729754E+03  0.15984059603E+03  0.47000000000E+01 0.  1.
        -11    1    4    4    0    0  0.15177820385E+02  0.55842183851E+02  0.21073905119E+03  0.21853984402E+03  0.00000000000E+00 0.  1.
         11    1    4    4    0    0  0.96687477151E+02  0.36911972729E+02  0.17057398689E+03  0.19951553066E+03  0.00000000000E+00 0. -1.
<mgrwt>
<rscale>  0 0.18639357E+03</rscale>
<asrwt>0</asrwt>
<pdfrwt beam="1">  1        2 0.11280133E+00 0.19168536E+03</pdfrwt>
<pdfrwt beam="2">  1       -2 0.70635133E-02 0.19168536E+03</pdfrwt>
<totfact> 0.44846156E+03</totfact>
</mgrwt>
</event>
<event>
 8    1  0.1020295E-005  0.1626411E+03  0.7546771E-02  0.1190074E+00
          1   -1    0    0  501    0  0.00000000000E+00  0.00000000000E+00  0.22354277330E+02  0.22354277330E+02  0.00000000000E+00 0. -1.
         -1   -1    0    0    0  501 -0.00000000000E+00 -0.00000000000E+00 -0.16969428095E+04  0.16969428095E+04  0.00000000000E+00 0.  1.
         23    2    1    2    0    0  0.65229513927E+02  0.95721869198E+02 -0.13817742861E+04  0.13913131562E+04  0.11416897593E+03 0.  0.
         23    2    1    2    0    0 -0.65229513927E+02 -0.95721869198E+02 -0.29281424601E+03  0.32798393060E+03  0.91737180779E+02 0.  0.
          5    1    3    3  502    0 -0.16716279491E+02 -0.94255085325E+01 -0.68811620820E+02  0.71591922526E+02  0.47000000000E+01 0. -1.
         -5    1    3    3    0  502  0.81945793418E+02  0.10514737773E+03 -0.13129626653E+04  0.13197212337E+04  0.47000000000E+01 0.  1.
        -11    1    4    4    0    0 -0.28777025397E+02 -0.37363906785E+02 -0.29044642394E+02  0.55387453207E+02  0.00000000000E+00 0. -1.
         11    1    4    4    0    0 -0.36452488530E+02 -0.58357962413E+02 -0.26376960361E+03  0.27259647739E+03  0.00000000000E+00 0.  1.
<mgrwt>
<rscale>  0 0.15878612E+03</rscale>
<asrwt>0</asrwt>
<pdfrwt beam="1">  1        1 0.34391190E-02 0.16264108E+03</pdfrwt>
<pdfrwt beam="2">  1       -1 0.26106817E+00 0.16264108E+03</pdfrwt>
<totfact> 0.19156541E+02</totfact>
</mgrwt>
</event>
<event>
 8    1  0.1020295E-005  0.1269791E+03  0.7546771E-02  0.1253688E+00
         -2   -1    0    0    0  501 -0.00000000000E+00  0.00000000000E+00  0.47788726331E+02  0.47788726331E+02  0.00000000000E+00 0. -1.
          2   -1    0    0  501    0  0.00000000000E+00 -0.00000000000E+00 -0.22837285408E+03  0.22837285408E+03  0.00000000000E+00 0.  1.
         23    2    1    2    0    0  0.29722664509E+01  0.22172057782E+02 -0.11231397359E+03  0.16952324837E+03  0.12499307405E+03 0.  0.
         23    2    1    2    0    0 -0.29722664509E+01 -0.22172057782E+02 -0.68270154161E+02  0.10663833204E+03  0.78806632956E+02 0.  0.
          5    1    3    3  502    0  0.21635155117E+02  0.70098103619E+02 -0.51594978168E+02  0.89810666627E+02  0.47000000000E+01 0.  1.
         -5    1    3    3    0  502 -0.18662888666E+02 -0.47926045837E+02 -0.60718995423E+02  0.79712581743E+02  0.47000000000E+01 0.  1.
        -11    1    4    4    0    0  0.16389097828E+02 -0.20876171056E+02 -0.79778611531E+02  0.84077606432E+02  0.00000000000E+00 0.  1.
         11    1    4    4    0    0 -0.19361364278E+02 -0.12958867261E+01  0.11508457369E+02  0.22560725612E+02  0.00000000000E+00 0. -1.
<mgrwt>
<rscale>  0 0.11380126E+03</rscale>
<asrwt>0</asrwt>
<pdfrwt beam="2">  1        2 0.35134285E-01 0.12697914E+03</pdfrwt>
<pdfrwt beam="1">  1       -2 0.73521119E-02 0.12697914E+03</pdfrwt>
<totfact> 0.14809331E+04</totfact>
</mgrwt>
</event>
<event>
 8    1  0.1020295E-005  0.1304336E+03  0.7546771E-02  0.1241166E+00
         -3   -1    0    0    0  501 -0.00000000000E+00  0.00000000000E+00  0.14382534425E+03  0.14382534425E+03  0.00000000000E+00 0.  1.
          3   -1    0    0  501    0  0.00000000000E+00 -0.00000000000E+00 -0.94532476190E+02  0.94532476190E+02  0.00000000000E+00 0. -1.
         23    2    1    2    0    0  0.29726920430E+02  0.22454975548E+02  0.53776779988E+02  0.14108462434E+03  0.12500005374E+03 0.  0.
         23    2    1    2    0    0 -0.29726920430E+02 -0.22454975548E+02 -0.44839119300E+01  0.97273196093E+02  0.89744378581E+02 0.  0.
          5    1    3    3  502    0 -0.10059648600E+02 -0.41392453998E+02  0.49661336751E+02  0.65596266249E+02  0.47000000000E+01 0.  1.
         -5    1    3    3    0  502  0.39786569030E+02  0.63847429546E+02  0.41154432366E+01  0.75488358095E+02  0.47000000000E+01 0.  1.
        -11    1    4    4    0    0 -0.25792238771E+02 -0.56885581523E+02 -0.13091612963E+01  0.62473377284E+02  0.00000000000E+00 0.  1.
         11    1    4    4    0    0 -0.39346816582E+01  0.34430605975E+02 -0.31747506338E+01  0.34799818809E+02  0.00000000000E+00 0. -1.
<mgrwt>
<rscale>  0 0.12117834E+03</rscale>
<asrwt>0</asrwt>
<pdfrwt beam="2">  1        3 0.14543458E-01 0.13043362E+03</pdfrwt>
<pdfrwt beam="1">  1       -3 0.22126976E-01 0.13043362E+03</pdfrwt>
<totfact> 0.16725268E+03</totfact>
</mgrwt>
</event>
<event>
 7    1  0.1020295E-005  0.3474807E+03  0.7546771E-02  0.1108461E+00
         -3   -1    0    0    0  501 -0.00000000000E+00  0.00000000000E+00  0.12234232282E+03  0.12234232282E+03  0.00000000000E+00 0.  1.
          3   -1    0    0  501    0  0.00000000000E+00 -0.00000000000E+00 -0.50385827682E+03  0.50385827682E+03  0.00000000000E+00 0. -1.
         23    2    1    2    0    0 -0.52833126512E+02  0.40214091400E+01 -0.21813887942E+03  0.24222805155E+03  0.91007402191E+02 0.  0.
          5    1    1    2  502    0 -0.12135052471E+03  0.33083254524E+02  0.20977062922E+02  0.12760320821E+03  0.47000000000E+01 0. -1.
         -5    1    1    2    0  502  0.17418365122E+03 -0.37104663664E+02 -0.18435413750E+03  0.25636933988E+03  0.47000000000E+01 0.  1.
        -11    1    3    3    0    0  0.98208252539E+01  0.31593825749E+02 -0.10400445886E+03  0.10914002885E+03  0.00000000000E+00 0. -1.
         11    1    3    3    0    0 -0.62653951766E+02 -0.27572416609E+02 -0.11413442056E+03  0.13308802270E+03  0.00000000000E+00 0.  1.
<mgrwt>
<rscale>  0 0.25781832E+03</rscale>
<asrwt>0</asrwt>
<pdfrwt beam="2">  1        3 0.77516659E-01 0.34748072E+03</pdfrwt>
<pdfrwt beam="1">  1       -3 0.18821896E-01 0.34748072E+03</pdfrwt>
<totfact> 0.10189581E+02</totfact>
</mgrwt>
</event>
<event>
 8    1  0.1020295E-005  0.1255216E+03  0.7546771E-02  0.1240665E+00
         -3   -1    0    0    0  501 -0.00000000000E+00  0.00000000000E+00  0.80951061627E+03  0.80951061627E+03  0.00000000000E+00 0.  1.
          3   -1    0    0  501    0  0.00000000000E+00 -0.00000000000E+00 -0.17845606051E+02  0.17845606051E+02  0.00000000000E+00 0. -1.
         23    2    1    2    0    0 -0.39679120266E+01 -0.10790485450E+02  0.50206809621E+03  0.51752106204E+03  0.12499398997E+03 0.  0.
         23    2    1    2    0    0  0.39679120266E+01  0.10790485450E+02  0.28959691401E+03  0.30983516028E+03  0.10954120246E+03 0.  0.
          5    1    3    3  502    0 -0.40594500565E+02 -0.54367119382E+02  0.25244961009E+03  0.26145093762E+03  0.47000000000E+01 0. -1.
         -5    1    3    3    0  502  0.36626588538E+02  0.43576633931E+02  0.24961848611E+03  0.25607012442E+03  0.47000000000E+01 0. -1.
        -11    1    4    4    0    0  0.27210606116E+02  0.53629033883E+02  0.13629973134E+03  0.14897686775E+03  0.00000000000E+00 0. -1.
         11    1    4    4    0    0 -0.23242694090E+02 -0.42838548432E+02  0.15329718267E+03  0.16085829253E+03  0.00000000000E+00 0.  1.
<mgrwt>
<rscale>  0 0.12148649E+03</rscale>
<asrwt>0</asrwt>
<pdfrwt beam="2">  1        3 0.27454785E-02 0.12552162E+03</pdfrwt>
<pdfrwt beam="1">  1       -3 0.12454007E+00 0.12552162E+03</pdfrwt>
<totfact> 0.72405044E+02</totfact>
</mgrwt>
</event>
<event>
 8    1  0.1020295E-005  0.1304198E+03  0.7546771E-02  0.1238399E+00
         -2   -1    0    0    0  501 -0.00000000000E+00  0.00000000000E+00  0.27780071942E+03  0.27780071942E+03  0.00000000000E+00 0.  1.
          2   -1    0    0  501    0  0.00000000000E+00 -0.00000000000E+00 -0.50642652910E+02  0.50642652910E+02  0.00000000000E+00 0. -1.
         23    2    1    2    0    0  0.36451395239E+02 -0.74400016663E+01  0.15632723822E+03  0.20358669185E+03  0.12500111140E+03 0.  0.
         23    2    1    2    0    0 -0.36451395239E+02  0.74400016663E+01  0.70830828289E+02  0.12485668048E+03  0.95854716024E+02 0.  0.
          5    1    3    3  502    0  0.53099536098E+02  0.40000889415E+02  0.13126055936E+03  0.14721092463E+03  0.47000000000E+01 0. -1.
         -5    1    3    3    0  502 -0.16648140860E+02 -0.47440891082E+02  0.25066678865E+02  0.56375767224E+02  0.47000000000E+01 0. -1.
        -11    1    4    4    0    0 -0.16079074347E+02  0.25157324907E+02 -0.16036096404E+02  0.33890765943E+02  0.00000000000E+00 0. -1.
         11    1    4    4    0    0 -0.20372320892E+02 -0.17717323241E+02  0.86866924693E+02  0.90965914534E+02  0.00000000000E+00 0.  1.
<mgrwt>
<rscale>  0 0.12289334E+03</rscale>
<asrwt>0</asrwt>
<pdfrwt beam="2">  1        2 0.77911776E-02 0.13041984E+03</pdfrwt>
<pdfrwt beam="1">  1       -2 0.42738571E-01 0.13041984E+03</pdfrwt>
<totfact> 0.43772566E+03</totfact>
</mgrwt>
</event>
<event>
 8    1  0.1020295E-005  0.1306792E+03  0.7546771E-02  0.1241171E+00
          2   -1    0    0  501    0  0.00000000000E+00  0.00000000000E+00  0.16827257895E+03  0.16827257895E+03  0.00000000000E+00 0. -1.
         -2   -1    0    0    0  501 -0.00000000000E+00 -0.00000000000E+00 -0.97074214108E+02  0.97074214108E+02  0.00000000000E+00 0.  1.
         23    2    1    2    0    0  0.18055969527E+02  0.33645242702E+02 -0.20343043096E+02  0.13225309858E+03  0.12497608687E+03 0.  0.
         23    2    1    2    0    0 -0.18055969527E+02 -0.33645242702E+02  0.91541407943E+02  0.13309369448E+03  0.88747291508E+02 0.  0.
          5    1    3    3  502    0  0.42374434648E+02 -0.21652837662E+02  0.27400335157E+02  0.55111763329E+02  0.47000000000E+01 0. -1.
         -5    1    3    3    0  502 -0.24318465121E+02  0.55298080364E+02 -0.47743378253E+02  0.77141335254E+02  0.47000000000E+01 0. -1.
        -11    1    4    4    0    0 -0.37594690443E+02 -0.49367239572E+02  0.88130062612E+02  0.10778401101E+03  0.00000000000E+00 0. -1.
         11    1    4    4    0    0  0.19538720915E+02  0.15721996870E+02  0.34113453308E+01  0.25309683474E+02  0.00000000000E+00 0.  1.
<mgrwt>
<rscale>  0 0.12117522E+03</rscale>
<asrwt>0</asrwt>
<pdfrwt beam="1">  1        2 0.25888089E-01 0.13067916E+03</pdfrwt>
<pdfrwt beam="2">  1       -2 0.14934494E-01 0.13067916E+03</pdfrwt>
<totfact> 0.67521764E+03</totfact>
</mgrwt>
</event>
<event>
 8    1  0.1020295E-005  0.2525617E+03  0.7546771E-02  0.1114118E+00
         -2   -1    0    0    0  501 -0.00000000000E+00  0.00000000000E+00  0.38960172460E+02  0.38960172460E+02  0.00000000000E+00 0.  1.
          2   -1    0    0  501    0  0.00000000000E+00 -0.00000000000E+00 -0.15966595901E+04  0.15966595901E+04  0.00000000000E+00 0. -1.
         23    2    1    2    0    0  0.10558868220E+03 -0.19238886585E+03 -0.64964624666E+03  0.69701338588E+03  0.12499987511E+03 0.  0.
         23    2    1    2    0    0 -0.10558868220E+03  0.19238886585E+03 -0.90805317093E+03  0.93860637663E+03  0.90878619625E+02 0.  0.
          5    1    3    3  502    0  0.13183317020E+02 -0.14980959078E+03 -0.37213685833E+03  0.40140334412E+03  0.47000000000E+01 0.  1.
         -5    1    3    3    0  502  0.92405365185E+02 -0.42579275075E+02 -0.27750938833E+03  0.29561004177E+03  0.47000000000E+01 0.  1.
        -11    1    4    4    0    0 -0.16092797432E+02 -0.48018504003E+01 -0.31462873151E+02  0.35664383962E+02  0.00000000000E+00 0.  1.
         11    1    4    4    0    0 -0.89495884773E+02  0.19719071625E+03 -0.87659029778E+03  0.90294199267E+03  0.00000000000E+00 0. -1.
<mgrwt>
<rscale>  0 0.24871735E+03</rscale>
<asrwt>0</asrwt>
<pdfrwt beam="2">  1        2 0.24563998E+00 0.25256170E+03</pdfrwt>
<pdfrwt beam="1">  1       -2 0.59938716E-02 0.25256170E+03</pdfrwt>
<totfact> 0.17978259E+03</totfact>
</mgrwt>
</event>
<event>
 8    1  0.1020295E-005  0.1360928E+03  0.7546771E-02  0.1230469E+00
          1   -1    0    0  501    0  0.00000000000E+00  0.00000000000E+00  0.24691636407E+03  0.24691636407E+03  0.00000000000E+00 0.  1.
         -1   -1    0    0    0  501 -0.00000000000E+00 -0.00000000000E+00 -0.60799947864E+02  0.60799947864E+02  0.00000000000E+00 0. -1.
         23    2    1    2    0    0  0.53437967254E+02  0.63458091836E+01  0.82460090659E+02  0.15912547463E+03  0.12500145793E+03 0.  0.
         23    2    1    2    0    0 -0.53437967254E+02 -0.63458091836E+01  0.10365632555E+03  0.14859083731E+03  0.91862492167E+02 0.  0.
          5    1    3    3  502    0 -0.19330886843E+02  0.25037504717E+02  0.77320037638E+02  0.83672205953E+02  0.47000000000E+01 0. -1.
         -5    1    3    3    0  502  0.72768854097E+02 -0.18691695534E+02  0.51400530208E+01  0.75453268674E+02  0.47000000000E+01 0. -1.
        -11    1    4    4    0    0  0.30509348928E+01  0.25813567523E+02 -0.28864354877E+00  0.25994841547E+02  0.00000000000E+00 0. -1.
         11    1    4    4    0    0 -0.56488902147E+02 -0.32159376706E+02  0.10394496910E+03  0.12259599576E+03  0.00000000000E+00 0.  1.
<mgrwt>
<rscale>  0 0.12799033E+03</rscale>
<asrwt>0</asrwt>
<pdfrwt beam="1">  1        1 0.37987132E-01 0.13609280E+03</pdfrwt>
<pdfrwt beam="2">  1       -1 0.93538383E-02 0.13609280E+03</pdfrwt>
<totfact> 0.72109962E+03</totfact>
</mgrwt>
</event>
<event>
 8    1  0.1020295E-005  0.1277771E+03  0.7546771E-02  0.1242460E+00
          3   -1    0    0  501    0  0.00000000000E+00  0.00000000000E+00  0.19620542868E+03  0.19620542868E+03  0.00000000000E+00 0.  1.
         -3   -1    0    0    0  501 -0.00000000000E+00 -0.00000000000E+00 -0.66654672924E+02  0.66654672924E+02  0.00000000000E+00 0. -1.
         23    2    1    2    0    0 -0.14586631564E+02 -0.22119783922E+02  0.66242511247E+02  0.14392727741E+03  0.12499974490E+03 0.  0.
         23    2    1    2    0    0  0.14586631564E+02  0.22119783922E+02  0.63308244513E+02  0.11893282420E+03  0.97134073255E+02 0.  0.
          5    1    3    3  502    0  0.55427423748E+02 -0.92500637288E+01  0.31141042765E+02  0.64417524998E+02  0.47000000000E+01 0.  1.
         -5    1    3    3    0  502 -0.70014055312E+02 -0.12869720193E+02  0.35101468482E+02  0.79509752412E+02  0.47000000000E+01 0.  1.
        -11    1    4    4    0    0  0.37237524464E+02  0.22370821405E+02  0.79837747123E+02  0.90890883724E+02  0.00000000000E+00 0.  1.
         11    1    4    4    0    0 -0.22650892900E+02 -0.25103748386E+00 -0.16529502610E+02  0.28041940473E+02  0.00000000000E+00 0. -1.
<mgrwt>
<rscale>  0 0.12038682E+03</rscale>
<asrwt>0</asrwt>
<pdfrwt beam="1">  1        3 0.30185450E-01 0.12777711E+03</pdfrwt>
<pdfrwt beam="2">  1       -3 0.10254565E-01 0.12777711E+03</pdfrwt>
<totfact> 0.17059959E+03</totfact>
</mgrwt>
</event>
<event>
 8    1  0.1020295E-005  0.1319478E+03  0.7546771E-02  0.1237913E+00
          2   -1    0    0  501    0  0.00000000000E+00  0.00000000000E+00  0.77195450293E+02  0.77195450293E+02  0.00000000000E+00 0. -1.
         -2   -1    0    0    0  501 -0.00000000000E+00 -0.00000000000E+00 -0.18863730946E+03  0.18863730946E+03  0.00000000000E+00 0.  1.
         23    2    1    2    0    0 -0.32486621147E+02  0.27011438484E+02 -0.98637192157E+02  0.16474073950E+03  0.12500086884E+03 0.  0.
         23    2    1    2    0    0  0.32486621147E+02 -0.27011438484E+02 -0.12804667010E+02  0.10109202025E+03  0.90943051957E+02 0.  0.
          5    1    3    3  502    0  0.78850861659E+01 -0.37734372878E+02 -0.75446339401E+02  0.84854567404E+02  0.47000000000E+01 0. -1.
         -5    1    3    3    0  502 -0.40371707313E+02  0.64745811362E+02 -0.23190852756E+02  0.79886172094E+02  0.47000000000E+01 0. -1.
        -11    1    4    4    0    0  0.97774214618E+01 -0.52365055216E+02  0.16930567586E+02  0.55895805720E+02  0.00000000000E+00 0. -1.
         11    1    4    4    0    0  0.22709199685E+02  0.25353616732E+02 -0.29735234596E+02  0.45196214534E+02  0.00000000000E+00 0.  1.
<mgrwt>
<rscale>  0 0.12319774E+03</rscale>
<asrwt>0</asrwt>
<pdfrwt beam="1">  1        2 0.11876223E-01 0.13194778E+03</pdfrwt>
<pdfrwt beam="2">  1       -2 0.29021125E-01 0.13194778E+03</pdfrwt>
<totfact> 0.53340985E+03</totfact>
</mgrwt>
</event>
<event>
 8    1  0.1020295E-005  0.1236906E+03  0.7546771E-02  0.1244001E+00
          1   -1    0    0  501    0  0.00000000000E+00  0.00000000000E+00  0.86825952431E+02  0.86825952431E+02  0.00000000000E+00 0. -1.
         -1   -1    0    0    0  501 -0.00000000000E+00 -0.00000000000E+00 -0.16871964640E+03  0.16871964640E+03  0.00000000000E+00 0.  1.
         23    2    1    2    0    0 -0.40532748963E+02  0.36614905371E+02 -0.81178086743E+02  0.14795016329E+03  0.11097663726E+03 0.  0.
         23    2    1    2    0    0  0.40532748963E+02 -0.36614905371E+02 -0.71560722553E+00  0.10759543554E+03  0.92696874929E+02 0.  0.
          5    1    3    3  502    0 -0.70834159295E+02  0.28732373470E+02 -0.20137826509E+02  0.79187432493E+02  0.47000000000E+01 0. -1.
         -5    1    3    3    0  502  0.30301410332E+02  0.78825319010E+01 -0.61040260234E+02  0.68762730797E+02  0.47000000000E+01 0.  1.
        -11    1    4    4    0    0 -0.12200989544E+02 -0.49860251812E+02 -0.10382996263E+02  0.52370941065E+02  0.00000000000E+00 0. -1.
         11    1    4    4    0    0  0.52733738507E+02  0.13245346441E+02  0.96673890370E+01  0.55224494475E+02  0.00000000000E+00 0.  1.
<mgrwt>
<rscale>  0 0.11945343E+03</rscale>
<asrwt>0</asrwt>
<pdfrwt beam="1">  1        1 0.13357839E-01 0.12369062E+03</pdfrwt>
<pdfrwt beam="2">  1       -1 0.25956868E-01 0.12369062E+03</pdfrwt>
<totfact> 0.53778746E+03</totfact>
</mgrwt>
</event>
<event>
 8    1  0.1020295E-005  0.1337566E+03  0.7546771E-02  0.1234761E+00
          2   -1    0    0  501    0  0.00000000000E+00  0.00000000000E+00  0.54825516371E+03  0.54825516371E+03  0.00000000000E+00 0. -1.
         -2   -1    0    0    0  501 -0.00000000000E+00 -0.00000000000E+00 -0.26281844017E+02  0.26281844017E+02  0.00000000000E+00 0.  1.
         23    2    1    2    0    0 -0.87514937021E+00 -0.47607608245E+02  0.24477362629E+03  0.27893541284E+03  0.12499434453E+03 0.  0.
         23    2    1    2    0    0  0.87514937021E+00  0.47607608245E+02  0.27719969341E+03  0.29560159489E+03  0.90958136653E+02 0.  0.
          5    1    3    3  502    0  0.46911089626E+02 -0.47699094490E+02  0.67032013255E+02  0.94822121607E+02  0.47000000000E+01 0.  1.
         -5    1    3    3    0  502 -0.47786238996E+02  0.91486244796E-01  0.17774161303E+03  0.18411329124E+03  0.47000000000E+01 0.  1.
        -11    1    4    4    0    0 -0.11845375522E+01 -0.13909199818E+02  0.26145235121E+01  0.14202278056E+02  0.00000000000E+00 0.  1.
         11    1    4    4    0    0  0.20596869224E+01  0.61516808063E+02  0.27458516990E+03  0.28139931683E+03  0.00000000000E+00 0. -1.
<mgrwt>
<rscale>  0 0.12519726E+03</rscale>
<asrwt>0</asrwt>
<pdfrwt beam="1">  1        2 0.84346940E-01 0.13375663E+03</pdfrwt>
<pdfrwt beam="2">  1       -2 0.40433610E-02 0.13375663E+03</pdfrwt>
<totfact> 0.14342253E+04</totfact>
</mgrwt>
</event>
<event>
 7    1  0.1020295E-005  0.2336415E+03  0.7546771E-02  0.1146428E+00
         -1   -1    0    0    0  501 -0.00000000000E+00  0.00000000000E+00  0.11186100500E+03  0.11186100500E+03  0.00000000000E+00 0.  1.
          1   -1    0    0  501    0  0.00000000000E+00 -0.00000000000E+00 -0.34417138318E+03  0.34417138318E+03  0.00000000000E+00 0. -1.
         23    2    1    2    0    0 -0.41397165549E+02  0.10373309377E+03 -0.16344891507E+03  0.21245437960E+03  0.77117024809E+02 0.  0.
          5    1    1    2  502    0  0.11829269665E+03 -0.83431777666E+02 -0.76052417629E+02  0.16358509661E+03  0.47000000000E+01 0. -1.
         -5    1    1    2    0  502 -0.76895531104E+02 -0.20301316105E+02  0.71909545150E+01  0.79992911975E+02  0.47000000000E+01 0.  1.
        -11    1    3    3    0    0 -0.48484172523E+02  0.90902251852E+02 -0.87689556631E+02  0.13529003185E+03  0.00000000000E+00 0.  1.
         11    1    3    3    0    0  0.70870069743E+01  0.12830841919E+02 -0.75759358435E+02  0.77164347743E+02  0.00000000000E+00 0. -1.
<mgrwt>
<rscale>  0 0.20397529E+03</rscale>
<asrwt>0</asrwt>
<pdfrwt beam="2">  1        1 0.52949443E-01 0.23364149E+03</pdfrwt>
<pdfrwt beam="1">  1       -1 0.17209385E-01 0.23364149E+03</pdfrwt>
<totfact> 0.18846229E+03</totfact>
</mgrwt>
</event>
<event>
 8    1  0.1020295E-005  0.2338338E+03  0.7546771E-02  0.1126891E+00
         -1   -1    0    0    0  501 -0.00000000000E+00  0.00000000000E+00  0.13230518652E+03  0.13230518652E+03  0.00000000000E+00 0.  1.
          1   -1    0    0  501    0  0.00000000000E+00 -0.00000000000E+00 -0.56951841477E+03  0.56951841477E+03  0.00000000000E+00 0. -1.
         23    2    1    2    0    0 -0.22021766242E+02 -0.19641084586E+03 -0.24265318026E+02  0.23508947156E+03  0.12496429657E+03 0.  0.
         23    2    1    2    0    0  0.22021766242E+02  0.19641084586E+03 -0.41294791023E+03  0.46673412974E+03  0.90843782050E+02 0.  0.
          5    1    3    3  502    0  0.26411771512E+01 -0.11352657978E+03  0.46945496825E+02  0.12296840978E+03  0.47000000000E+01 0. -1.
         -5    1    3    3    0  502 -0.24662943393E+02 -0.82884266085E+02 -0.71210814852E+02  0.11212106177E+03  0.47000000000E+01 0. -1.
        -11    1    4    4    0    0  0.71460707785E+00  0.10776200649E+02  0.26004770378E+01  0.11108539262E+02  0.00000000000E+00 0.  1.
         11    1    4    4    0    0  0.21307159164E+02  0.18563464521E+03 -0.41554838727E+03  0.45562559047E+03  0.00000000000E+00 0. -1.
<mgrwt>
<rscale>  0 0.22964399E+03</rscale>
<asrwt>0</asrwt>
<pdfrwt beam="2">  1        1 0.87618216E-01 0.23383382E+03</pdfrwt>
<pdfrwt beam="1">  1       -1 0.20354644E-01 0.23383382E+03</pdfrwt>
<totfact> 0.74403626E+02</totfact>
</mgrwt>
</event>
<event>
 8    1  0.1020295E-005  0.1595225E+03  0.7546771E-02  0.1196810E+00
         -1   -1    0    0    0  501 -0.00000000000E+00  0.00000000000E+00  0.35975939110E+03  0.35975939110E+03  0.00000000000E+00 0.  1.
          1   -1    0    0  501    0  0.00000000000E+00 -0.00000000000E+00 -0.61554609252E+02  0.61554609252E+02  0.00000000000E+00 0. -1.
         23    2    1    2    0    0 -0.33067276085E+02 -0.93421478724E+02  0.19116393947E+03  0.24898010058E+03  0.12500568505E+03 0.  0.
         23    2    1    2    0    0  0.33067276085E+02  0.93421478724E+02  0.10704084238E+03  0.17233389978E+03  0.91761722084E+02 0.  0.
          5    1    3    3  502    0 -0.42814727707E+02 -0.70712119930E+02  0.33493053512E+02  0.89315057225E+02  0.47000000000E+01 0.  1.
         -5    1    3    3    0  502  0.97474516222E+01 -0.22709358794E+02  0.15767088596E+03  0.15966504335E+03  0.47000000000E+01 0.  1.
        -11    1    4    4    0    0 -0.10444538499E+02  0.68287129212E+02  0.20150970351E+02  0.71960280756E+02  0.00000000000E+00 0. -1.
         11    1    4    4    0    0  0.43511814585E+02  0.25134349512E+02  0.86889872029E+02  0.10037361902E+03  0.00000000000E+00 0.  1.
<mgrwt>
<rscale>  0 0.15302004E+03</rscale>
<asrwt>0</asrwt>
<pdfrwt beam="2">  1        1 0.94699401E-02 0.15952253E+03</pdfrwt>
<pdfrwt beam="1">  1       -1 0.55347597E-01 0.15952253E+03</pdfrwt>
<totfact> 0.22895225E+03</totfact>
</mgrwt>
</event>
<event>
 8    1  0.1020295E-005  0.1342619E+03  0.7546771E-02  0.1233857E+00
         -2   -1    0    0    0  501 -0.00000000000E+00  0.00000000000E+00  0.39056536583E+03  0.39056536583E+03  0.00000000000E+00 0.  1.
          2   -1    0    0  501    0  0.00000000000E+00 -0.00000000000E+00 -0.40732834162E+02  0.40732834162E+02  0.00000000000E+00 0. -1.
         23    2    1    2    0    0 -0.25755379342E+02  0.41698447046E+02  0.26679681255E+03  0.29867506246E+03  0.12499661475E+03 0.  0.
         23    2    1    2    0    0  0.25755379342E+02 -0.41698447046E+02  0.83035719116E+02  0.13262313753E+03  0.91059683217E+02 0.  0.
          5    1    3    3  502    0  0.50142704342E+02  0.15299604322E+02  0.87025794885E+02  0.10170519980E+03  0.47000000000E+01 0. -1.
         -5    1    3    3    0  502 -0.75898083685E+02  0.26398842724E+02  0.17977101766E+03  0.19696986266E+03  0.47000000000E+01 0. -1.
        -11    1    4    4    0    0  0.95494408977E+01 -0.58541760010E+02  0.90394895367E+02  0.10811829908E+03  0.00000000000E+00 0.  1.
         11    1    4    4    0    0  0.16205938445E+02  0.16843312964E+02 -0.73591762513E+01  0.24504838452E+02  0.00000000000E+00 0. -1.
<mgrwt>
<rscale>  0 0.12577864E+03</rscale>
<asrwt>0</asrwt>
<pdfrwt beam="2">  1        2 0.62665902E-02 0.13426188E+03</pdfrwt>
<pdfrwt beam="1">  1       -2 0.60086977E-01 0.13426188E+03</pdfrwt>
<totfact> 0.29429995E+03</totfact>
</mgrwt>
</event>
<event>
 8    1  0.1020295E-005  0.1699338E+03  0.7546771E-02  0.1184323E+00
         -2   -1    0    0    0  501 -0.00000000000E+00  0.00000000000E+00  0.25394930092E+02  0.25394930092E+02  0.00000000000E+00 0.  1.
          2   -1    0    0  501    0  0.00000000000E+00 -0.00000000000E+00 -0.10180388276E+04  0.10180388276E+04  0.00000000000E+00 0. -1.
         23    2    1    2    0    0 -0.67086216624E+02 -0.93541319956E+02 -0.44457551404E+03  0.47594630501E+03  0.12500783405E+03 0.  0.
         23    2    1    2    0    0  0.67086216624E+02  0.93541319956E+02 -0.54806838348E+03  0.56748745269E+03  0.91719774248E+02 0.  0.
          5    1    3    3  502    0 -0.61741991431E+01 -0.29730625064E+02 -0.32921539970E+03  0.33064618583E+03  0.47000000000E+01 0.  1.
         -5    1    3    3    0  502 -0.60912017481E+02 -0.63810694892E+02 -0.11536011434E+03  0.14530011919E+03  0.47000000000E+01 0.  1.
        -11    1    4    4    0    0  0.89332210016E+02  0.69444383168E+02 -0.39160166931E+03  0.40762069808E+03  0.00000000000E+00 0. -1.
         11    1    4    4    0    0 -0.22245993392E+02  0.24096936787E+02 -0.15646671417E+03  0.15986675461E+03  0.00000000000E+00 0.  1.
<mgrwt>
<rscale>  0 0.16393618E+03</rscale>
<asrwt>0</asrwt>
<pdfrwt beam="2">  1        2 0.15662138E+00 0.16993380E+03</pdfrwt>
<pdfrwt beam="1">  1       -2 0.39069118E-02 0.16993380E+03</pdfrwt>
<totfact> 0.71450247E+03</totfact>
</mgrwt>
</event>
<event>
 8    1  0.1020295E-005  0.1226491E+03  0.7546771E-02  0.1248596E+00
          4   -1    0    0  501    0  0.00000000000E+00  0.00000000000E+00  0.59233408822E+03  0.59233408822E+03  0.00000000000E+00 0. -1.
         -4   -1    0    0    0  501 -0.00000000000E+00 -0.00000000000E+00 -0.21098485458E+02  0.21098485458E+02  0.00000000000E+00 0.  1.
         23    2    1    2    0    0 -0.41296377520E+02  0.81143162824E+01  0.32980785027E+03  0.35187500761E+03  0.11520230013E+03 0.  0.
         23    2    1    2    0    0  0.41296377520E+02 -0.81143162824E+01  0.24142775249E+03  0.26155756607E+03  0.91398948411E+02 0.  0.
          5    1    3    3  502    0 -0.12254604375E+02 -0.26509786068E+01  0.31817635039E+03  0.31845797676E+03  0.47000000000E+01 0. -1.
         -5    1    3    3    0  502 -0.29041773144E+02  0.10765294889E+02  0.11631499887E+02  0.33417030853E+02  0.47000000000E+01 0.  1.
        -11    1    4    4    0    0  0.52754017830E+02  0.28571917122E+02  0.17254970361E+03  0.18268207647E+03  0.00000000000E+00 0.  1.
         11    1    4    4    0    0 -0.11457640311E+02 -0.36686233404E+02  0.68878048878E+02  0.78875489603E+02  0.00000000000E+00 0. -1.
<mgrwt>
<rscale>  0 0.11672736E+03</rscale>
<asrwt>0</asrwt>
<pdfrwt beam="1">  1        4 0.91128309E-01 0.12264910E+03</pdfrwt>
<pdfrwt beam="2">  1       -4 0.32459213E-02 0.12264910E+03</pdfrwt>
<totfact> 0.81891032E+02</totfact>
</mgrwt>
</event>
<event>
 8    1  0.1020295E-005  0.1535609E+03  0.7546771E-02  0.1206605E+00
          2   -1    0    0  501    0  0.00000000000E+00  0.00000000000E+00  0.11589906589E+02  0.11589906589E+02  0.00000000000E+00 0. -1.
         -2   -1    0    0    0  501 -0.00000000000E+00 -0.00000000000E+00 -0.24741045227E+04  0.24741045227E+04  0.00000000000E+00 0.  1.
         23    2    1    2    0    0 -0.17537226332E+02  0.87451914990E+02 -0.20404599598E+04  0.20462301435E+04  0.12500224375E+03 0.  0.
         23    2    1    2    0    0  0.17537226332E+02 -0.87451914990E+02 -0.42205465637E+03  0.43946428583E+03  0.83924572184E+02 0.  0.
          5    1    3    3  502    0 -0.43968040332E+02  0.57978843012E+02 -0.18595754731E+04  0.18610045042E+04  0.47000000000E+01 0.  1.
         -5    1    3    3    0  502  0.26430813999E+02  0.29473071978E+02 -0.18088448672E+03  0.18522563925E+03  0.47000000000E+01 0.  1.
        -11    1    4    4    0    0  0.23485745313E+01 -0.10128589470E+03 -0.33301674006E+03  0.34808691074E+03  0.00000000000E+00 0. -1.
         11    1    4    4    0    0  0.15188651801E+02  0.13833979712E+02 -0.89037916303E+02  0.91377375086E+02  0.00000000000E+00 0.  1.
<mgrwt>
<rscale>  0 0.14511667E+03</rscale>
<asrwt>0</asrwt>
<pdfrwt beam="1">  1        2 0.17830632E-02 0.15356091E+03</pdfrwt>
<pdfrwt beam="2">  1       -2 0.38063133E+00 0.15356091E+03</pdfrwt>
<totfact> 0.77967706E+01</totfact>
</mgrwt>
</event>
<event>
 8    1  0.1020295E-005  0.2219985E+03  0.7546771E-02  0.1135707E+00
          2   -1    0    0  501    0  0.00000000000E+00  0.00000000000E+00  0.20310911507E+03  0.20310911507E+03  0.00000000000E+00 0. -1.
         -2   -1    0    0    0  501 -0.00000000000E+00 -0.00000000000E+00 -0.24071065838E+03  0.24071065838E+03  0.00000000000E+00 0.  1.
         23    2    1    2    0    0  0.17232201216E+03  0.62955613032E+02 -0.77539378416E+02  0.23515036450E+03  0.12500021454E+03 0.  0.
         23    2    1    2    0    0 -0.17232201216E+03 -0.62955613032E+02  0.39937835110E+02  0.20866940895E+03  0.91047276028E+02 0.  0.
          5    1    3    3  502    0  0.15574025836E+03 -0.55475132229E+00 -0.60738736846E+02  0.16723223366E+03  0.47000000000E+01 0.  1.
         -5    1    3    3    0  502  0.16581753800E+02  0.63510364355E+02 -0.16800641570E+02  0.67918130839E+02  0.47000000000E+01 0.  1.
        -11    1    4    4    0    0 -0.32986686117E+02 -0.13773965492E+01 -0.26637253629E+02  0.42421244243E+02  0.00000000000E+00 0.  1.
         11    1    4    4    0    0 -0.13933532604E+03 -0.61578216483E+02  0.66575088739E+02  0.16624816471E+03  0.00000000000E+00 0. -1.
<mgrwt>
<rscale>  0 0.21757115E+03</rscale>
<asrwt>0</asrwt>
<pdfrwt beam="1">  1        2 0.31247556E-01 0.22199851E+03</pdfrwt>
<pdfrwt beam="2">  1       -2 0.37032409E-01 0.22199851E+03</pdfrwt>
<totfact> 0.11529439E+03</totfact>
</mgrwt>
</event>
<event>
 8    1  0.1020295E-005  0.1528888E+03  0.7546771E-02  0.1205660E+00
          2   -1    0    0  501    0  0.00000000000E+00  0.00000000000E+00  0.45432777889E+02  0.45432777889E+02  0.00000000000E+00 0. -1.
         -2   -1    0    0    0  501 -0.00000000000E+00 -0.00000000000E+00 -0.42999368123E+03  0.42999368123E+03  0.00000000000E+00 0.  1.
         23    2    1    2    0    0  0.51628835889E+01  0.87872787171E+02 -0.21271570163E+03  0.26195982588E+03  0.12500679407E+03 0.  0.
         23    2    1    2    0    0 -0.51628835889E+01 -0.87872787171E+02 -0.17184520171E+03  0.21346663324E+03  0.91043660197E+02 0.  0.
          5    1    3    3  502    0 -0.50208658054E+02  0.45599832593E+02 -0.16192386176E+03  0.17561799761E+03  0.47000000000E+01 0. -1.
         -5    1    3    3    0  502  0.55371541643E+02  0.42272954579E+02 -0.50791839869E+02  0.86341828276E+02  0.47000000000E+01 0. -1.
        -11    1    4    4    0    0  0.16010720596E+02 -0.72614169169E+02 -0.51812711343E+02  0.90629563581E+02  0.00000000000E+00 0. -1.
         11    1    4    4    0    0 -0.21173604185E+02 -0.15258618002E+02 -0.12003249037E+03  0.12283706966E+03  0.00000000000E+00 0.  1.
<mgrwt>
<rscale>  0 0.14585553E+03</rscale>
<asrwt>0</asrwt>
<pdfrwt beam="1">  1        2 0.69896582E-02 0.15288879E+03</pdfrwt>
<pdfrwt beam="2">  1       -2 0.66152874E-01 0.15288879E+03</pdfrwt>
<totfact> 0.21121527E+03</totfact>
</mgrwt>
</event>
<event>
 8    1  0.1020295E-005  0.1317309E+03  0.7546771E-02  0.1238647E+00
          1   -1    0    0  501    0  0.00000000000E+00  0.00000000000E+00  0.59054130938E+02  0.59054130938E+02  0.00000000000E+00 0. -1.
         -1   -1    0    0    0  501 -0.00000000000E+00 -0.00000000000E+00 -0.25361255159E+03  0.25361255159E+03  0.00000000000E+00 0.  1.
         23    2    1    2    0    0  0.24064544380E+02 -0.33945416255E+02 -0.16065743315E+03  0.20775911323E+03  0.12498657817E+03 0.  0.
         23    2    1    2    0    0 -0.24064544380E+02  0.33945416255E+02 -0.33900987501E+02  0.10490756929E+03  0.90138380066E+02 0.  0.
          5    1    3    3  502    0  0.59299035291E+02 -0.44633991518E+02 -0.15262753890E+03  0.16978169636E+03  0.47000000000E+01 0.  1.
         -5    1    3    3    0  502 -0.35234490911E+02  0.10688575263E+02 -0.80298942430E+01  0.37977416875E+02  0.47000000000E+01 0.  1.
        -11    1    4    4    0    0 -0.25677820150E+02 -0.26376963917E+02 -0.25354435200E+01  0.36898823111E+02  0.00000000000E+00 0. -1.
         11    1    4    4    0    0  0.16132757696E+01  0.60322380172E+02 -0.31365543981E+02  0.68008746184E+02  0.00000000000E+00 0.  1.
<mgrwt>
<rscale>  0 0.12273832E+03</rscale>
<asrwt>0</asrwt>
<pdfrwt beam="1">  1        1 0.90852510E-02 0.13173093E+03</pdfrwt>
<pdfrwt beam="2">  1       -1 0.39017315E-01 0.13173093E+03</pdfrwt>
<totfact> 0.45010901E+03</totfact>
</mgrwt>
</event>
<event>
 8    1  0.1020295E-005  0.1495035E+03  0.7546771E-02  0.1213173E+00
          2   -1    0    0  501    0  0.00000000000E+00  0.00000000000E+00  0.10191139270E+03  0.10191139270E+03  0.00000000000E+00 0. -1.
         -2   -1    0    0    0  501 -0.00000000000E+00 -0.00000000000E+00 -0.26150237016E+03  0.26150237016E+03  0.00000000000E+00 0.  1.
         23    2    1    2    0    0  0.75712640856E+02 -0.31553604748E+02 -0.19224664437E+03  0.24353661165E+03  0.12499309974E+03 0.  0.
         23    2    1    2    0    0 -0.75712640856E+02  0.31553604748E+02  0.32655666907E+02  0.11987715122E+03  0.81093186177E+02 0.  0.
          5    1    3    3  502    0  0.75643138089E+02 -0.59820684936E+02 -0.19196594834E+03  0.21487999909E+03  0.47000000000E+01 0. -1.
         -5    1    3    3    0  502  0.69502767141E-01  0.28267080188E+02 -0.28069602853E+00  0.28656612557E+02  0.47000000000E+01 0. -1.
        -11    1    4    4    0    0 -0.55074598734E+02  0.41068040477E+02 -0.12028704082E+02  0.69745860782E+02  0.00000000000E+00 0.  1.
         11    1    4    4    0    0 -0.20638042122E+02 -0.95144357291E+01  0.44684370989E+02  0.50131290434E+02  0.00000000000E+00 0. -1.
<mgrwt>
<rscale>  0 0.14011575E+03</rscale>
<asrwt>0</asrwt>
<pdfrwt beam="1">  1        2 0.15678676E-01 0.14950354E+03</pdfrwt>
<pdfrwt beam="2">  1       -2 0.40231133E-01 0.14950354E+03</pdfrwt>
<totfact> 0.21189144E+03</totfact>
</mgrwt>
</event>
<event>
 8    1  0.1020295E-005  0.1317919E+03  0.7546771E-02  0.1237941E+00
          1   -1    0    0  501    0  0.00000000000E+00  0.00000000000E+00  0.94627433483E+02  0.94627433483E+02  0.00000000000E+00 0. -1.
         -1   -1    0    0    0  501 -0.00000000000E+00 -0.00000000000E+00 -0.14772616665E+03  0.14772616665E+03  0.00000000000E+00 0.  1.
         23    2    1    2    0    0 -0.10406345968E+02 -0.40443974581E+02 -0.52257336524E+02  0.14177425432E+03  0.12500041141E+03 0.  0.
         23    2    1    2    0    0  0.10406345968E+02  0.40443974581E+02 -0.84139664499E+00  0.10057934581E+03  0.91495845478E+02 0.  0.
          5    1    3    3  502    0 -0.15778141287E+02 -0.84971108180E+02 -0.31182658576E+02  0.91997212804E+02  0.47000000000E+01 0.  1.
         -5    1    3    3    0  502  0.53717953197E+01  0.44527133600E+02 -0.21074677948E+02  0.49777041517E+02  0.47000000000E+01 0.  1.
        -11    1    4    4    0    0  0.38739342260E+02 -0.34950178389E+01 -0.21406675823E+02  0.44398170663E+02  0.00000000000E+00 0.  1.
         11    1    4    4    0    0 -0.28332996292E+02  0.43938992420E+02  0.20565279178E+02  0.56181175151E+02  0.00000000000E+00 0. -1.
<mgrwt>
<rscale>  0 0.12317994E+03</rscale>
<asrwt>0</asrwt>
<pdfrwt beam="1">  1        1 0.14558067E-01 0.13179192E+03</pdfrwt>
<pdfrwt beam="2">  1       -1 0.22727103E-01 0.13179192E+03</pdfrwt>
<totfact> 0.60034795E+03</totfact>
</mgrwt>
</event>
<event>
 8    1  0.1020295E-005  0.1825146E+03  0.7546771E-02  0.1170332E+00
          2   -1    0    0  501    0  0.00000000000E+00  0.00000000000E+00  0.10555298835E+03  0.10555298835E+03  0.00000000000E+00 0. -1.
         -2   -1    0    0    0  501 -0.00000000000E+00 -0.00000000000E+00 -0.36837116353E+03  0.36837116353E+03  0.00000000000E+00 0.  1.
         23    2    1    2    0    0 -0.13532087747E+03 -0.21654911248E+02 -0.25128639636E+03  0.31057437483E+03  0.12054424185E+03 0.  0.
         23    2    1    2    0    0  0.13532087747E+03  0.21654911248E+02 -0.11531778816E+02  0.16334977705E+03  0.88144725753E+02 0.  0.
          5    1    3    3  502    0 -0.95014400997E+02  0.40794074441E+02 -0.11118519534E+03  0.15190829657E+03  0.47000000000E+01 0. -1.
         -5    1    3    3    0  502 -0.40306476476E+02 -0.62448985689E+02 -0.14010120103E+03  0.15866607826E+03  0.47000000000E+01 0.  1.
        -11    1    4    4    0    0  0.13490014704E+03  0.36313876189E+02 -0.26722682497E+02  0.14223518915E+03  0.00000000000E+00 0. -1.
         11    1    4    4    0    0  0.42073043654E+00 -0.14658964942E+02  0.15190903681E+02  0.21114587893E+02  0.00000000000E+00 0.  1.
<mgrwt>
<rscale>  0 0.17741146E+03</rscale>
<asrwt>0</asrwt>
<pdfrwt beam="1">  1        2 0.16238921E-01 0.18251463E+03</pdfrwt>
<pdfrwt beam="2">  1       -2 0.56672487E-01 0.18251463E+03</pdfrwt>
<totfact> 0.10440950E+03</totfact>
</mgrwt>
</event>
<event>
 8    1  0.1020295E-005  0.1370470E+03  0.7546771E-02  0.1223945E+00
          1   -1    0    0  501    0  0.00000000000E+00  0.00000000000E+00  0.52406226343E+02  0.52406226343E+02  0.00000000000E+00 0. -1.
         -1   -1    0    0    0  501 -0.00000000000E+00 -0.00000000000E+00 -0.35084784400E+03  0.35084784400E+03  0.00000000000E+00 0.  1.
         23    2    1    2    0    0 -0.50206231781E+02 -0.24109378725E+02 -0.22394435324E+03  0.26255085345E+03  0.12521960487E+03 0.  0.
         23    2    1    2    0    0  0.50206231781E+02  0.24109378725E+02 -0.74497264414E+02  0.14070321689E+03  0.10557284209E+03 0.  0.
          5    1    3    3  502    0 -0.62135922064E+02  0.76054535357E+01 -0.21920332775E+03  0.22801514123E+03  0.47000000000E+01 0. -1.
         -5    1    3    3    0  502  0.11929690283E+02 -0.31714832261E+02 -0.47410254931E+01  0.34535712216E+02  0.47000000000E+01 0. -1.
        -11    1    4    4    0    0  0.24677566143E+02 -0.41294855982E+02 -0.21276381737E+02  0.52601633255E+02  0.00000000000E+00 0. -1.
         11    1    4    4    0    0  0.25528665638E+02  0.65404234707E+02 -0.53220882677E+02  0.88101583640E+02  0.00000000000E+00 0.  1.
<mgrwt>
<rscale>  0 0.13239441E+03</rscale>
<asrwt>0</asrwt>
<pdfrwt beam="1">  1        1 0.80624961E-02 0.13704699E+03</pdfrwt>
<pdfrwt beam="2">  1       -1 0.53976593E-01 0.13704699E+03</pdfrwt>
<totfact> 0.29537759E+03</totfact>
</mgrwt>
</event>
<event>
 8    1  0.1020295E-005  0.1332678E+03  0.7546771E-02  0.1235934E+00
          2   -1    0    0  501    0  0.00000000000E+00  0.00000000000E+00  0.17477448744E+03  0.17477448744E+03  0.00000000000E+00 0. -1.
         -2   -1    0    0    0  501 -0.00000000000E+00 -0.00000000000E+00 -0.87252150714E+02  0.87252150714E+02  0.00000000000E+00 0.  1.
         23    2    1    2    0    0  0.39611513093E+02  0.24223121393E+02  0.85348333287E+01  0.13354078633E+03  0.12491783962E+03 0.  0.
         23    2    1    2    0    0 -0.39611513093E+02 -0.24223121393E+02  0.78987503396E+02  0.12848585182E+03  0.90076394497E+02 0.  0.
          5    1    3    3  502    0 -0.26736869940E+02  0.33974666813E+02  0.40207793092E+02  0.59227483693E+02  0.47000000000E+01 0. -1.
         -5    1    3    3    0  502  0.66348383033E+02 -0.97515454199E+01 -0.31672959763E+02  0.74313302641E+02  0.47000000000E+01 0. -1.
        -11    1    4    4    0    0  0.84863058646E+01 -0.14169274546E+02  0.77590244026E+02  0.79328631001E+02  0.00000000000E+00 0. -1.
         11    1    4    4    0    0 -0.48097818958E+02 -0.10053846847E+02  0.13972593699E+01  0.49157220819E+02  0.00000000000E+00 0.  1.
<mgrwt>
<rscale>  0 0.12444802E+03</rscale>
<asrwt>0</asrwt>
<pdfrwt beam="1">  1        2 0.26888383E-01 0.13326777E+03</pdfrwt>
<pdfrwt beam="2">  1       -2 0.13423408E-01 0.13326777E+03</pdfrwt>
<totfact> 0.77124318E+03</totfact>
</mgrwt>
</event>
<event>
 8    1  0.1020295E-005  0.1568873E+03  0.7546771E-02  0.1201710E+00
         -1   -1    0    0    0  501 -0.00000000000E+00  0.00000000000E+00  0.13154708854E+03  0.13154708854E+03  0.00000000000E+00 0.  1.
          1   -1    0    0  501    0  0.00000000000E+00 -0.00000000000E+00 -0.18136672588E+03  0.18136672588E+03  0.00000000000E+00 0. -1.
         23    2    1    2    0    0  0.86818024472E+02  0.38099119081E+02  0.33593570122E+02  0.16044360385E+03  0.12499883926E+03 0.  0.
         23    2    1    2    0    0 -0.86818024472E+02 -0.38099119081E+02 -0.83413207471E+02  0.15247021057E+03  0.85442903050E+02 0.  0.
          5    1    3    3  502    0  0.25533190188E+02 -0.24345811738E+02 -0.34428858242E+02  0.49518669512E+02  0.47000000000E+01 0.  1.
         -5    1    3    3    0  502  0.61284834283E+02  0.62444930819E+02  0.68022428364E+02  0.11092493434E+03  0.47000000000E+01 0.  1.
        -11    1    4    4    0    0 -0.64703752695E+02  0.16943552585E+02 -0.55494041446E+02  0.86909425398E+02  0.00000000000E+00 0. -1.
         11    1    4    4    0    0 -0.22114271777E+02 -0.55042671666E+02 -0.27919166024E+02  0.65560785168E+02  0.00000000000E+00 0.  1.
<mgrwt>
<rscale>  0 0.14899749E+03</rscale>
<asrwt>0</asrwt>
<pdfrwt beam="2">  1        1 0.27902573E-01 0.15688729E+03</pdfrwt>
<pdfrwt beam="1">  1       -1 0.20238014E-01 0.15688729E+03</pdfrwt>
<totfact> 0.31954682E+03</totfact>
</mgrwt>
</event>
<event>
 7    1  0.1020295E-005  0.1360915E+03  0.7546771E-02  0.1231644E+00
          1   -1    0    0  501    0  0.00000000000E+00  0.00000000000E+00  0.60879459013E+02  0.60879459013E+02  0.00000000000E+00 0. -1.
         -1   -1    0    0    0  501 -0.00000000000E+00 -0.00000000000E+00 -0.33066591866E+03  0.33066591866E+03  0.00000000000E+00 0.  1.
         23    2    1    2    0    0 -0.42357704864E+02  0.94102913666E+01 -0.18186067436E+02  0.10549705790E+03  0.94425459660E+02 0.  0.
          5    1    1    2  502    0  0.17431432276E+02  0.18362222873E+02  0.53991615050E+01  0.26310967390E+02  0.47000000000E+01 0. -1.
         -5    1    1    2    0  502  0.24926272588E+02 -0.27772514240E+02 -0.25699955372E+03  0.25973735239E+03  0.47000000000E+01 0.  1.
        -11    1    3    3    0    0  0.12296471383E+02 -0.22541186445E+00 -0.42986084738E+02  0.44710820838E+02  0.00000000000E+00 0.  1.
         11    1    3    3    0    0 -0.54654176247E+02  0.96357032310E+01  0.24800017302E+02  0.60786237062E+02  0.00000000000E+00 0. -1.
<mgrwt>
<rscale>  0 0.12721712E+03</rscale>
<asrwt>0</asrwt>
<pdfrwt beam="1">  1        1 0.93660703E-02 0.13609145E+03</pdfrwt>
<pdfrwt beam="2">  1       -1 0.50871681E-01 0.13609145E+03</pdfrwt>
<totfact> 0.26958828E+03</totfact>
</mgrwt>
</event>
<event>
 8    1  0.1020295E-005  0.1842056E+03  0.7546771E-02  0.1168793E+00
          1   -1    0    0  501    0  0.00000000000E+00  0.00000000000E+00  0.26474447610E+03  0.26474447610E+03  0.00000000000E+00 0. -1.
         -1   -1    0    0    0  501 -0.00000000000E+00 -0.00000000000E+00 -0.18501020333E+03  0.18501020333E+03  0.00000000000E+00 0.  1.
         23    2    1    2    0    0  0.12797876226E+03  0.43871679461E+02 -0.97288140411E+02  0.20831873534E+03  0.12501370076E+03 0.  0.
         23    2    1    2    0    0 -0.12797876226E+03 -0.43871679461E+02  0.17702241318E+03  0.24143594410E+03  0.93011249243E+02 0.  0.
          5    1    3    3  502    0  0.31113240564E+01  0.57087918606E+02 -0.41693034233E+02  0.70916217409E+02  0.47000000000E+01 0. -1.
         -5    1    3    3    0  502  0.12486743821E+03 -0.13216239144E+02 -0.55595106178E+02  0.13740251793E+03  0.47000000000E+01 0. -1.
        -11    1    4    4    0    0 -0.18009786755E+02  0.25201269516E+02  0.16944302652E+02  0.35306738684E+02  0.00000000000E+00 0.  1.
         11    1    4    4    0    0 -0.10996897551E+03 -0.69072948977E+02  0.16007811052E+03  0.20612920541E+03  0.00000000000E+00 0. -1.
<mgrwt>
<rscale>  0 0.17898055E+03</rscale>
<asrwt>0</asrwt>
<pdfrwt beam="1">  1        1 0.40729919E-01 0.18420563E+03</pdfrwt>
<pdfrwt beam="2">  1       -1 0.28463108E-01 0.18420563E+03</pdfrwt>
<totfact> 0.11425782E+03</totfact>
</mgrwt>
</event>
<event>
 8    1  0.1020295E-005  0.1457591E+03  0.7546771E-02  0.1215244E+00
         -1   -1    0    0    0  501 -0.00000000000E+00  0.00000000000E+00  0.33783367898E+03  0.33783367898E+03  0.00000000000E+00 0.  1.
          1   -1    0    0  501    0  0.00000000000E+00 -0.00000000000E+00 -0.52030521235E+02  0.52030521235E+02  0.00000000000E+00 0. -1.
         23    2    1    2    0    0  0.69263724326E+02  0.28672747994E+02  0.16625904256E+03  0.22110582682E+03  0.12500450966E+03 0.  0.
         23    2    1    2    0    0 -0.69263724326E+02 -0.28672747994E+02  0.11954411518E+03  0.16875837340E+03  0.92568910178E+02 0.  0.
          5    1    3    3  502    0  0.21175416141E+02  0.20924102947E+02  0.16940976256E+03  0.17206967770E+03  0.47000000000E+01 0.  1.
         -5    1    3    3    0  502  0.48088308185E+02  0.77486450463E+01 -0.31507199966E+01  0.49036149121E+02  0.47000000000E+01 0.  1.
        -11    1    4    4    0    0 -0.32736749754E+02 -0.17092398428E+02  0.12473729841E+03  0.13008934807E+03  0.00000000000E+00 0.  1.
         11    1    4    4    0    0 -0.36526974572E+02 -0.11580349565E+02 -0.51931832227E+01  0.38669025323E+02  0.00000000000E+00 0. -1.
<mgrwt>
<rscale>  0 0.13858595E+03</rscale>
<asrwt>0</asrwt>
<pdfrwt beam="2">  1        1 0.80046958E-02 0.14575911E+03</pdfrwt>
<pdfrwt beam="1">  1       -1 0.51974411E-01 0.14575911E+03</pdfrwt>
<totfact> 0.32087813E+03</totfact>
</mgrwt>
</event>
<event>
 8    1  0.1020295E-005  0.1318934E+03  0.7546771E-02  0.1232370E+00
          1   -1    0    0  501    0  0.00000000000E+00  0.00000000000E+00  0.41424424150E+03  0.41424424150E+03  0.00000000000E+00 0. -1.
         -1   -1    0    0    0  501 -0.00000000000E+00 -0.00000000000E+00 -0.11567793362E+03  0.11567793362E+03  0.00000000000E+00 0.  1.
         23    2    1    2    0    0  0.45998287980E+02  0.48989839688E+02 -0.66652478375E+02  0.14777824358E+03  0.11349012959E+03 0.  0.
         23    2    1    2    0    0 -0.45998287980E+02 -0.48989839688E+02  0.36521878626E+03  0.38214393154E+03  0.90185229866E+02 0.  0.
          5    1    3    3  502    0 -0.51175282037E+01  0.48875788446E+02  0.14766781852E+02  0.51528435231E+02  0.47000000000E+01 0. -1.
         -5    1    3    3    0  502  0.51115816184E+02  0.11405124192E+00 -0.81419260227E+02  0.96249808352E+02  0.47000000000E+01 0.  1.
        -11    1    4    4    0    0  0.19731098560E+02 -0.41898374411E+02  0.14509365666E+03  0.15230547998E+03  0.00000000000E+00 0.  1.
         11    1    4    4    0    0 -0.65729386540E+02 -0.70914652768E+01  0.22012512960E+03  0.22983845156E+03  0.00000000000E+00 0. -1.
<mgrwt>
<rscale>  0 0.12674334E+03</rscale>
<asrwt>0</asrwt>
<pdfrwt beam="1">  1        1 0.63729882E-01 0.13189335E+03</pdfrwt>
<pdfrwt beam="2">  1       -1 0.17796605E-01 0.13189335E+03</pdfrwt>
<totfact> 0.13951352E+03</totfact>
</mgrwt>
</event>
<event>
 8    1  0.1020295E-005  0.1346202E+03  0.7546771E-02  0.1234489E+00
         -2   -1    0    0    0  501 -0.00000000000E+00  0.00000000000E+00  0.47183706299E+02  0.47183706299E+02  0.00000000000E+00 0.  1.
          2   -1    0    0  501    0  0.00000000000E+00 -0.00000000000E+00 -0.39166487234E+03  0.39166487234E+03  0.00000000000E+00 0. -1.
         23    2    1    2    0    0  0.41859658160E+02  0.27335358619E+02 -0.82286869420E+02  0.15777745165E+03  0.12499257001E+03 0.  0.
         23    2    1    2    0    0 -0.41859658160E+02 -0.27335358619E+02 -0.26219429662E+03  0.28107112699E+03  0.88066318383E+02 0.  0.
          5    1    3    3  502    0  0.52711773303E+02  0.29330457123E+02  0.12877314816E+02  0.61860504335E+02  0.47000000000E+01 0. -1.
         -5    1    3    3    0  502 -0.10852115143E+02 -0.19950985037E+01 -0.95164184236E+02  0.95916947316E+02  0.47000000000E+01 0. -1.
        -11    1    4    4    0    0  0.27329789224E+02 -0.97406563863E+01 -0.60082250798E+02  0.66720870998E+02  0.00000000000E+00 0. -1.
         11    1    4    4    0    0 -0.69189447384E+02 -0.17594702233E+02 -0.20211204582E+03  0.21435025599E+03  0.00000000000E+00 0.  1.
<mgrwt>
<rscale>  0 0.12537192E+03</rscale>
<asrwt>0</asrwt>
<pdfrwt beam="2">  1        2 0.60256136E-01 0.13462019E+03</pdfrwt>
<pdfrwt beam="1">  1       -2 0.72590316E-02 0.13462019E+03</pdfrwt>
<totfact> 0.85575177E+03</totfact>
</mgrwt>
</event>
<event>
 8    1  0.1020295E-005  0.1339195E+03  0.7546771E-02  0.1234293E+00
          3   -1    0    0  501    0  0.00000000000E+00  0.00000000000E+00  0.17279707854E+02  0.17279707854E+02  0.00000000000E+00 0. -1.
         -3   -1    0    0    0  501 -0.00000000000E+00 -0.00000000000E+00 -0.85059721067E+03  0.85059721067E+03  0.00000000000E+00 0.  1.
         23    2    1    2    0    0  0.96439968949E+01  0.47080224135E+02 -0.55743657378E+03  0.57329745075E+03  0.12499951628E+03 0.  0.
         23    2    1    2    0    0 -0.96439968949E+01 -0.47080224135E+02 -0.27588092904E+03  0.29457946778E+03  0.91417840964E+02 0.  0.
          5    1    3    3  502    0 -0.37747781506E+02  0.70070256223E+02 -0.29491131691E+03  0.30549878995E+03  0.47000000000E+01 0.  1.
         -5    1    3    3    0  502  0.47391778401E+02 -0.22990032088E+02 -0.26252525686E+03  0.26779866080E+03  0.47000000000E+01 0.  1.
        -11    1    4    4    0    0  0.26743235652E+02 -0.28395068378E+02 -0.42683655951E+02  0.57821925311E+02  0.00000000000E+00 0. -1.
         11    1    4    4    0    0 -0.36387232547E+02 -0.18685155757E+02 -0.23319727309E+03  0.23675754246E+03  0.00000000000E+00 0.  1.
<mgrwt>
<rscale>  0 0.12549806E+03</rscale>
<asrwt>0</asrwt>
<pdfrwt beam="1">  1        3 0.26584172E-02 0.13391950E+03</pdfrwt>
<pdfrwt beam="2">  1       -3 0.13086108E+00 0.13391950E+03</pdfrwt>
<totfact> 0.68271416E+02</totfact>
</mgrwt>
</event>
<event>
 8    1  0.1020295E-005  0.1281118E+03  0.7546771E-02  0.1246756E+00
         -3   -1    0    0    0  501 -0.00000000000E+00  0.00000000000E+00  0.34518397705E+03  0.34518397705E+03  0.00000000000E+00 0.  1.
          3   -1    0    0  501    0  0.00000000000E+00 -0.00000000000E+00 -0.36443805234E+02  0.36443805234E+02  0.00000000000E+00 0. -1.
         23    2    1    2    0    0  0.13449678936E+02 -0.24568829058E+02  0.21689760407E+03  0.25190713491E+03  0.12501245035E+03 0.  0.
         23    2    1    2    0    0 -0.13449678936E+02  0.24568829058E+02  0.91842567737E+02  0.12972064737E+03  0.87223092583E+02 0.  0.
          5    1    3    3  502    0  0.40542042861E+01 -0.47105211693E+02  0.22157028091E+03  0.22660718639E+03  0.47000000000E+01 0.  1.
         -5    1    3    3    0  502  0.93954746495E+01  0.22536382635E+02 -0.46726768415E+01  0.25299948518E+02  0.47000000000E+01 0.  1.
        -11    1    4    4    0    0 -0.31146223936E+02  0.21503189417E+02  0.17854915019E+01  0.37890135926E+02  0.00000000000E+00 0. -1.
         11    1    4    4    0    0  0.17696545000E+02  0.30656396406E+01  0.90057076235E+02  0.91830511441E+02  0.00000000000E+00 0.  1.
<mgrwt>
<rscale>  0 0.11780875E+03</rscale>
<asrwt>0</asrwt>
<pdfrwt beam="2">  1        3 0.56067395E-02 0.12811180E+03</pdfrwt>
<pdfrwt beam="1">  1       -3 0.53105225E-01 0.12811180E+03</pdfrwt>
<totfact> 0.15281207E+03</totfact>
</mgrwt>
</event>
<event>
 8    1  0.1020295E-005  0.1302941E+03  0.7546771E-02  0.1241022E+00
          1   -1    0    0  501    0  0.00000000000E+00  0.00000000000E+00  0.20902050355E+02  0.20902050355E+02  0.00000000000E+00 0. -1.
         -1   -1    0    0    0  501 -0.00000000000E+00 -0.00000000000E+00 -0.66481248218E+03  0.66481248218E+03  0.00000000000E+00 0.  1.
         23    2    1    2    0    0 -0.16579561411E+01  0.36739112226E+02 -0.45101192398E+03  0.46945532586E+03  0.12499614481E+03 0.  0.
         23    2    1    2    0    0  0.16579561411E+01 -0.36739112226E+02 -0.19289850784E+03  0.21625920668E+03  0.90585313155E+02 0.  0.
          5    1    3    3  502    0 -0.18562680097E+02 -0.43724524918E+02 -0.15296050590E+03  0.16023549400E+03  0.47000000000E+01 0.  1.
         -5    1    3    3    0  502  0.16904723956E+02  0.80463637144E+02 -0.29805141809E+03  0.30921983186E+03  0.47000000000E+01 0.  1.
        -11    1    4    4    0    0 -0.43392186375E+02 -0.16981336249E+02 -0.72312020673E+02  0.86024856600E+02  0.00000000000E+00 0. -1.
         11    1    4    4    0    0  0.45050142516E+02 -0.19757775978E+02 -0.12058648717E+03  0.13023435008E+03  0.00000000000E+00 0.  1.
<mgrwt>
<rscale>  0 0.12126643E+03</rscale>
<asrwt>0</asrwt>
<pdfrwt beam="1">  1        1 0.32157001E-02 0.13029408E+03</pdfrwt>
<pdfrwt beam="2">  1       -1 0.10227884E+00 0.13029408E+03</pdfrwt>
<totfact> 0.28485983E+03</totfact>
</mgrwt>
</event>
<event>
 7    1  0.1020295E-005  0.1569280E+03  0.7546771E-02  0.1212921E+00
          2   -1    0    0  501    0  0.00000000000E+00  0.00000000000E+00  0.29972478757E+02  0.29972478757E+02  0.00000000000E+00 0. -1.
         -2   -1    0    0    0  501 -0.00000000000E+00 -0.00000000000E+00 -0.55590998983E+03  0.55590998983E+03  0.00000000000E+00 0.  1.
         23    2    1    2    0    0 -0.89053449075E+01  0.37658057659E+02 -0.18080241865E+03  0.20674578970E+03  0.92503364789E+02 0.  0.
          5    1    1    2  502    0 -0.22268302733E+02  0.19152988262E+02 -0.18999713590E+01  0.29806277143E+02  0.47000000000E+01 0. -1.
         -5    1    1    2    0  502  0.31173647640E+02 -0.56811045920E+02 -0.34323512107E+03  0.34933040174E+03  0.47000000000E+01 0.  1.
        -11    1    3    3    0    0 -0.37730097934E+02  0.22730975646E+02 -0.16474266686E+03  0.17052977402E+03  0.00000000000E+00 0. -1.
         11    1    3    3    0    0  0.28824753027E+02  0.14927082012E+02 -0.16059751788E+02  0.36216015683E+02  0.00000000000E+00 0.  1.
<mgrwt>
<rscale>  0 0.14030376E+03</rscale>
<asrwt>0</asrwt>
<pdfrwt beam="1">  1        2 0.46111504E-02 0.15692797E+03</pdfrwt>
<pdfrwt beam="2">  1       -2 0.85524617E-01 0.15692797E+03</pdfrwt>
<totfact> 0.20821348E+03</totfact>
</mgrwt>
</event>
<event>
 7    1  0.1020295E-005  0.3129424E+03  0.7546771E-02  0.1122508E+00
         -1   -1    0    0    0  501 -0.00000000000E+00  0.00000000000E+00  0.89512241221E+03  0.89512241221E+03  0.00000000000E+00 0.  1.
          1   -1    0    0  501    0  0.00000000000E+00 -0.00000000000E+00 -0.95183087690E+02  0.95183087690E+02  0.00000000000E+00 0. -1.
         23    2    1    2    0    0 -0.22067826450E+02 -0.16204683005E+02 -0.28191857364E+02  0.10501784812E+03  0.97387816928E+02 0.  0.
          5    1    1    2  502    0  0.79469300030E+02 -0.90694776644E+02  0.13282765567E+03  0.17946082655E+03  0.47000000000E+01 0. -1.
         -5    1    1    2    0  502 -0.57401473580E+02  0.10689945965E+03  0.69530352622E+03  0.70582682523E+03  0.47000000000E+01 0.  1.
        -11    1    3    3    0    0  0.40830500959E+01  0.12971874653E+02 -0.55576117481E+02  0.57215781602E+02  0.00000000000E+00 0.  1.
         11    1    3    3    0    0 -0.26150876546E+02 -0.29176557658E+02  0.27384260117E+02  0.47802066514E+02  0.00000000000E+00 0. -1.
<mgrwt>
<rscale>  0 0.23596840E+03</rscale>
<asrwt>0</asrwt>
<pdfrwt beam="2">  1        1 0.14643553E-01 0.31294244E+03</pdfrwt>
<pdfrwt beam="1">  1       -1 0.13771113E+00 0.31294244E+03</pdfrwt>
<totfact> 0.18130519E+02</totfact>
</mgrwt>
</event>
<event>
 7    1  0.1020295E-005  0.1803041E+03  0.7546771E-02  0.1194712E+00
          1   -1    0    0  501    0  0.00000000000E+00  0.00000000000E+00  0.12539609825E+03  0.12539609825E+03  0.00000000000E+00 0. -1.
         -1   -1    0    0    0  501 -0.00000000000E+00 -0.00000000000E+00 -0.24390766569E+03  0.24390766569E+03  0.00000000000E+00 0.  1.
         23    2    1    2    0    0  0.13369289595E+02 -0.76488804557E+01  0.60595202425E+02  0.11516047486E+03  0.96710460326E+02 0.  0.
          5    1    1    2  502    0  0.99651671611E+01  0.30785862832E+02  0.28818331889E+02  0.43585091026E+02  0.47000000000E+01 0. -1.
         -5    1    1    2    0  502 -0.23334456756E+02 -0.23136982376E+02 -0.20792510176E+03  0.21055819805E+03  0.47000000000E+01 0.  1.
        -11    1    3    3    0    0 -0.12593679617E+02 -0.41857325967E+02  0.36864325294E+01  0.43866003786E+02  0.00000000000E+00 0.  1.
         11    1    3    3    0    0  0.25962969211E+02  0.34208445511E+02  0.56908769896E+02  0.71294471073E+02  0.00000000000E+00 0. -1.
<mgrwt>
<rscale>  0 0.15478628E+03</rscale>
<asrwt>0</asrwt>
<pdfrwt beam="1">  1        1 0.19291708E-01 0.18030412E+03</pdfrwt>
<pdfrwt beam="2">  1       -1 0.37524256E-01 0.18030412E+03</pdfrwt>
<totfact> 0.18254382E+03</totfact>
</mgrwt>
</event>
<event>
 8    1  0.1020295E-005  0.1256465E+03  0.7546771E-02  0.1249974E+00
         -2   -1    0    0    0  501 -0.00000000000E+00  0.00000000000E+00  0.26701342918E+02  0.26701342918E+02  0.00000000000E+00 0.  1.
          2   -1    0    0  501    0  0.00000000000E+00 -0.00000000000E+00 -0.44932121134E+03  0.44932121134E+03  0.00000000000E+00 0. -1.
         23    2    1    2    0    0 -0.11904780562E+02  0.37804781504E+01 -0.20982658197E+03  0.24456950041E+03  0.12502411853E+03 0.  0.
         23    2    1    2    0    0  0.11904780562E+02 -0.37804781504E+01 -0.21279328646E+03  0.23145305385E+03  0.90186016436E+02 0.  0.
          5    1    3    3  502    0 -0.66273125625E+02  0.97458211878E+01 -0.14377515599E+03  0.15868362767E+03  0.47000000000E+01 0. -1.
         -5    1    3    3    0  502  0.54368345063E+02 -0.59653430374E+01 -0.66051425978E+02  0.85885872739E+02  0.47000000000E+01 0. -1.
        -11    1    4    4    0    0  0.26840854266E+02  0.32748404024E+02 -0.58646707083E+02  0.72334816482E+02  0.00000000000E+00 0.  1.
         11    1    4    4    0    0 -0.14936073704E+02 -0.36528882174E+02 -0.15414657937E+03  0.15911823737E+03  0.00000000000E+00 0. -1.
<mgrwt>
<rscale>  0 0.11592553E+03</rscale>
<asrwt>0</asrwt>
<pdfrwt beam="2">  1        2 0.69126339E-01 0.12564651E+03</pdfrwt>
<pdfrwt beam="1">  1       -2 0.41078990E-02 0.12564651E+03</pdfrwt>
<totfact> 0.17331723E+04</totfact>
</mgrwt>
</event>
<event>
 8    1  0.1020295E-005  0.1525630E+03  0.7546771E-02  0.1206771E+00
          2   -1    0    0  501    0  0.00000000000E+00  0.00000000000E+00  0.46412486985E+02  0.46412486985E+02  0.00000000000E+00 0. -1.
         -2   -1    0    0    0  501 -0.00000000000E+00 -0.00000000000E+00 -0.50191971402E+03  0.50191971402E+03  0.00000000000E+00 0.  1.
         23    2    1    2    0    0  0.76082772334E+02 -0.43151734689E+02 -0.36148769091E+03  0.39236313324E+03  0.12499926877E+03 0.  0.
         23    2    1    2    0    0 -0.76082772334E+02  0.43151734689E+02 -0.94019536124E+02  0.15596906777E+03  0.88521276959E+02 0.  0.
          5    1    3    3  502    0  0.19834574109E+01 -0.35084611494E+01  0.98344363230E+01  0.11621081737E+02  0.47000000000E+01 0. -1.
         -5    1    3    3    0  502  0.74099314923E+02 -0.39643273539E+02 -0.37132212724E+03  0.38074205151E+03  0.47000000000E+01 0. -1.
        -11    1    4    4    0    0 -0.58349612287E+02  0.57439982127E+02 -0.10292173453E+03  0.13151772595E+03  0.00000000000E+00 0.  1.
         11    1    4    4    0    0 -0.17733160046E+02 -0.14288247438E+02  0.89021984064E+01  0.24451341815E+02  0.00000000000E+00 0. -1.
<mgrwt>
<rscale>  0 0.14498790E+03</rscale>
<asrwt>0</asrwt>
<pdfrwt beam="1">  1        2 0.71403821E-02 0.15256303E+03</pdfrwt>
<pdfrwt beam="2">  1       -2 0.77218423E-01 0.15256303E+03</pdfrwt>
<totfact> 0.14764775E+03</totfact>
</mgrwt>
</event>
<event>
 8    1  0.1020295E-005  0.1521619E+03  0.7546771E-02  0.1205644E+00
         -1   -1    0    0    0  501 -0.00000000000E+00  0.00000000000E+00  0.15286316484E+03  0.15286316484E+03  0.00000000000E+00 0.  1.
          1   -1    0    0  501    0  0.00000000000E+00 -0.00000000000E+00 -0.14074931986E+03  0.14074931986E+03  0.00000000000E+00 0. -1.
         23    2    1    2    0    0 -0.85603030419E+02 -0.14123015118E+02  0.49103044792E+02  0.15988853685E+03  0.12500358729E+03 0.  0.
         23    2    1    2    0    0  0.85603030419E+02  0.14123015118E+02 -0.36989199813E+02  0.13372394785E+03  0.94797441696E+02 0.  0.
          5    1    3    3  502    0 -0.25013543473E+02  0.54624654370E+02  0.22847525993E+02  0.64448659149E+02  0.47000000000E+01 0. -1.
         -5    1    3    3    0  502 -0.60589486946E+02 -0.68747669488E+02  0.26255518798E+02  0.95439877703E+02  0.47000000000E+01 0. -1.
        -11    1    4    4    0    0  0.37960088144E+02 -0.76030088044E+00 -0.65890587938E+02  0.76046800906E+02  0.00000000000E+00 0. -1.
         11    1    4    4    0    0  0.47642942275E+02  0.14883315999E+02  0.28901388124E+02  0.57677146941E+02  0.00000000000E+00 0.  1.
<mgrwt>
<rscale>  0 0.14586818E+03</rscale>
<asrwt>0</asrwt>
<pdfrwt beam="2">  1        1 0.21653741E-01 0.15216187E+03</pdfrwt>
<pdfrwt beam="1">  1       -1 0.23517410E-01 0.15216187E+03</pdfrwt>
<totfact> 0.34417764E+03</totfact>
</mgrwt>
</event>
<event>
 8    1  0.1020295E-005  0.1389755E+03  0.7546771E-02  0.1226168E+00
          1   -1    0    0  501    0  0.00000000000E+00  0.00000000000E+00  0.47552044217E+03  0.47552044217E+03  0.00000000000E+00 0. -1.
         -1   -1    0    0    0  501 -0.00000000000E+00 -0.00000000000E+00 -0.47631861371E+02  0.47631861371E+02  0.00000000000E+00 0.  1.
         23    2    1    2    0    0 -0.33723365731E+02 -0.50521038703E+02  0.84167956744E+02  0.16247598846E+03  0.12499824453E+03 0.  0.
         23    2    1    2    0    0  0.33723365731E+02  0.50521038703E+02  0.34372062406E+03  0.36067631509E+03  0.90850955485E+02 0.  0.
          5    1    3    3  502    0  0.91774833956E+01 -0.46286176184E+02 -0.18596337285E+02  0.50936726118E+02  0.47000000000E+01 0.  1.
         -5    1    3    3    0  502 -0.42900849127E+02 -0.42348625192E+01  0.10276429403E+03  0.11153926234E+03  0.47000000000E+01 0.  1.
        -11    1    4    4    0    0  0.12169569228E+02 -0.24791833625E+02  0.55387073527E+02  0.61890720981E+02  0.00000000000E+00 0.  1.
         11    1    4    4    0    0  0.21553796503E+02  0.75312872328E+02  0.28833355053E+03  0.29878559410E+03  0.00000000000E+00 0. -1.
<mgrwt>
<rscale>  0 0.13087160E+03</rscale>
<asrwt>0</asrwt>
<pdfrwt beam="1">  1        1 0.73156988E-01 0.13897554E+03</pdfrwt>
<pdfrwt beam="2">  1       -1 0.73279790E-02 0.13897554E+03</pdfrwt>
<totfact> 0.45969487E+03</totfact>
</mgrwt>
</event>
<event>
 8    1  0.1020295E-005  0.1302213E+03  0.7546771E-02  0.1239065E+00
         -1   -1    0    0    0  501 -0.00000000000E+00  0.00000000000E+00  0.13137555027E+04  0.13137555027E+04  0.00000000000E+00 0.  1.
          1   -1    0    0  501    0  0.00000000000E+00 -0.00000000000E+00 -0.12124736974E+02  0.12124736974E+02  0.00000000000E+00 0. -1.
         23    2    1    2    0    0 -0.29471219694E+02  0.21527899500E+02  0.97676605571E+03  0.98540829548E+03  0.12500231182E+03 0.  0.
         23    2    1    2    0    0  0.29471219694E+02 -0.21527899500E+02  0.32486471002E+03  0.34047194420E+03  0.95142323519E+02 0.  0.
          5    1    3    3  502    0 -0.72120476485E+01  0.49285574060E+02  0.89142359992E+03  0.89282652623E+03  0.47000000000E+01 0.  1.
         -5    1    3    3    0  502 -0.22259172046E+02 -0.27757674560E+02  0.85342455793E+02  0.92581769252E+02  0.47000000000E+01 0.  1.
        -11    1    4    4    0    0 -0.23040032647E+01  0.33486264665E+02  0.16629617814E+03  0.16964980759E+03  0.00000000000E+00 0.  1.
         11    1    4    4    0    0  0.31775222959E+02 -0.55014164165E+02  0.15856853188E+03  0.17082213661E+03  0.00000000000E+00 0. -1.
<mgrwt>
<rscale>  0 0.12247780E+03</rscale>
<asrwt>0</asrwt>
<pdfrwt beam="2">  1        1 0.18653452E-02 0.13022128E+03</pdfrwt>
<pdfrwt beam="1">  1       -1 0.20211612E+00 0.13022128E+03</pdfrwt>
<totfact> 0.10562232E+03</totfact>
</mgrwt>
</event>
<event>
 8    1  0.1020295E-005  0.1404528E+03  0.7546771E-02  0.1223666E+00
         -2   -1    0    0    0  501 -0.00000000000E+00  0.00000000000E+00  0.23768511317E+02  0.23768511317E+02  0.00000000000E+00 0.  1.
          2   -1    0    0  501    0  0.00000000000E+00 -0.00000000000E+00 -0.68031821759E+03  0.68031821759E+03  0.00000000000E+00 0. -1.
         23    2    1    2    0    0  0.60208884084E+02  0.21856781268E+02 -0.31798545414E+03  0.34762298487E+03  0.12499664777E+03 0.  0.
         23    2    1    2    0    0 -0.60208884084E+02 -0.21856781268E+02 -0.33856425213E+03  0.35646374404E+03  0.91311660720E+02 0.  0.
          5    1    3    3  502    0  0.48818441299E+02 -0.34827786955E+01 -0.28623824372E+02  0.56892734862E+02  0.47000000000E+01 0. -1.
         -5    1    3    3    0  502  0.11390442785E+02  0.25339559964E+02 -0.28936162977E+03  0.29073025001E+03  0.47000000000E+01 0. -1.
        -11    1    4    4    0    0 -0.56815514357E+02  0.26313982493E+02 -0.17207479799E+03  0.18311243664E+03  0.00000000000E+00 0.  1.
         11    1    4    4    0    0 -0.33933697272E+01 -0.48170763761E+02 -0.16648945413E+03  0.17335130740E+03  0.00000000000E+00 0. -1.
<mgrwt>
<rscale>  0 0.13258769E+03</rscale>
<asrwt>0</asrwt>
<pdfrwt beam="2">  1        2 0.10466434E+00 0.14045281E+03</pdfrwt>
<pdfrwt beam="1">  1       -2 0.36566941E-02 0.14045281E+03</pdfrwt>
<totfact> 0.13051738E+04</totfact>
</mgrwt>
</event>
<event>
 8    1  0.1020295E-005  0.1527014E+03  0.7546771E-02  0.1205319E+00
         -2   -1    0    0    0  501 -0.00000000000E+00  0.00000000000E+00  0.36346729993E+02  0.36346729993E+02  0.00000000000E+00 0.  1.
          2   -1    0    0  501    0  0.00000000000E+00 -0.00000000000E+00 -0.60018295960E+03  0.60018295960E+03  0.00000000000E+00 0. -1.
         23    2    1    2    0    0  0.87690442009E+02  0.16239485223E+01 -0.20563349794E+03  0.25613054685E+03  0.12500188288E+03 0.  0.
         23    2    1    2    0    0 -0.87690442009E+02 -0.16239485223E+01 -0.35820273166E+03  0.38039914274E+03  0.93284832631E+02 0.  0.
          5    1    3    3  502    0  0.10443398810E+03 -0.35367690136E+02 -0.16491381890E+03  0.19843384047E+03  0.47000000000E+01 0.  1.
         -5    1    3    3    0  502 -0.16743546094E+02  0.36991638658E+02 -0.40719679039E+02  0.57696706383E+02  0.47000000000E+01 0.  1.
        -11    1    4    4    0    0 -0.36538756064E+02 -0.22611396123E+02 -0.44493554919E+02  0.61854929946E+02  0.00000000000E+00 0.  1.
         11    1    4    4    0    0 -0.51151685945E+02  0.20987447601E+02 -0.31370917674E+03  0.31854421279E+03  0.00000000000E+00 0. -1.
<mgrwt>
<rscale>  0 0.14612312E+03</rscale>
<asrwt>0</asrwt>
<pdfrwt beam="2">  1        2 0.92335832E-01 0.15270141E+03</pdfrwt>
<pdfrwt beam="1">  1       -2 0.55918051E-02 0.15270141E+03</pdfrwt>
<totfact> 0.80335303E+03</totfact>
</mgrwt>
</event>
<event>
 8    1  0.1020295E-005  0.1672808E+03  0.7546771E-02  0.1188644E+00
         -4   -1    0    0    0  501 -0.00000000000E+00  0.00000000000E+00  0.86015760901E+02  0.86015760901E+02  0.00000000000E+00 0.  1.
          4   -1    0    0  501    0  0.00000000000E+00 -0.00000000000E+00 -0.29477129539E+03  0.29477129539E+03  0.00000000000E+00 0. -1.
         23    2    1    2    0    0  0.98382788258E+02 -0.51756215988E+02 -0.63491470093E+02  0.17892464770E+03  0.12499993545E+03 0.  0.
         23    2    1    2    0    0 -0.98382788258E+02  0.51756215988E+02 -0.14526406439E+03  0.20186240859E+03  0.85375082299E+02 0.  0.
          5    1    3    3  502    0  0.69198828869E+02  0.38938720347E+01  0.21865874376E+02  0.72827512786E+02  0.47000000000E+01 0. -1.
         -5    1    3    3    0  502  0.29183959388E+02 -0.55650088022E+02 -0.85357344469E+02  0.10609713492E+03  0.47000000000E+01 0. -1.
        -11    1    4    4    0    0 -0.66494121551E+02  0.56587609962E+02 -0.48531348158E+02  0.99894532163E+02  0.00000000000E+00 0.  1.
         11    1    4    4    0    0 -0.31888666706E+02 -0.48313939746E+01 -0.96732716234E+02  0.10196787642E+03  0.00000000000E+00 0. -1.
<mgrwt>
<rscale>  0 0.16004643E+03</rscale>
<asrwt>0</asrwt>
<pdfrwt beam="2">  1        4 0.45349430E-01 0.16728079E+03</pdfrwt>
<pdfrwt beam="1">  1       -4 0.13233194E-01 0.16728079E+03</pdfrwt>
<totfact> 0.38332589E+02</totfact>
</mgrwt>
</event>
<event>
 8    1  0.1020295E-005  0.1250745E+03  0.7546771E-02  0.1254744E+00
          2   -1    0    0  501    0  0.00000000000E+00  0.00000000000E+00  0.22473134248E+03  0.22473134248E+03  0.00000000000E+00 0. -1.
         -2   -1    0    0    0  501 -0.00000000000E+00 -0.00000000000E+00 -0.56766761355E+02  0.56766761355E+02  0.00000000000E+00 0.  1.
         23    2    1    2    0    0 -0.12021222992E+01 -0.42049393959E+01  0.45639664501E+02  0.13314130636E+03  0.12499800746E+03 0.  0.
         23    2    1    2    0    0  0.12021222992E+01  0.42049393959E+01  0.12232491663E+03  0.14835679748E+03  0.83828560273E+02 0.  0.
          5    1    3    3  502    0 -0.26459110166E+02  0.44541209757E+02  0.56692109551E+02  0.76942115663E+02  0.47000000000E+01 0.  1.
         -5    1    3    3    0  502  0.25256987866E+02 -0.48746149153E+02 -0.11052445050E+02  0.56199190696E+02  0.47000000000E+01 0.  1.
        -11    1    4    4    0    0 -0.22599355279E+02 -0.21737461716E+02  0.13791200912E+02  0.34255588208E+02  0.00000000000E+00 0.  1.
         11    1    4    4    0    0  0.23801477578E+02  0.25942401112E+02  0.10853371572E+03  0.11410120927E+03  0.00000000000E+00 0. -1.
<mgrwt>
<rscale>  0 0.11320670E+03</rscale>
<asrwt>0</asrwt>
<pdfrwt beam="1">  1        2 0.34574052E-01 0.12507449E+03</pdfrwt>
<pdfrwt beam="2">  1       -2 0.87333480E-02 0.12507449E+03</pdfrwt>
<totfact> 0.11538813E+04</totfact>
</mgrwt>
</event>
<event>
 8    1  0.1020295E-005  0.1603354E+03  0.7546771E-02  0.1196062E+00
         -2   -1    0    0    0  501 -0.00000000000E+00  0.00000000000E+00  0.37789366902E+02  0.37789366902E+02  0.00000000000E+00 0.  1.
          2   -1    0    0  501    0  0.00000000000E+00 -0.00000000000E+00 -0.58580839405E+03  0.58580839405E+03  0.00000000000E+00 0. -1.
         23    2    1    2    0    0 -0.93168458959E+01 -0.99947176585E+02 -0.33319849429E+03  0.36976841678E+03  0.12502481243E+03 0.  0.
         23    2    1    2    0    0  0.93168458959E+01  0.99947176585E+02 -0.21482053286E+03  0.25382934418E+03  0.90582740646E+02 0.  0.
          5    1    3    3  502    0 -0.39201877180E+02 -0.11586491499E+03 -0.22296302472E+03  0.25435421382E+03  0.47000000000E+01 0. -1.
         -5    1    3    3    0  502  0.29885031284E+02  0.15917738402E+02 -0.11023546958E+03  0.11541420296E+03  0.47000000000E+01 0. -1.
        -11    1    4    4    0    0  0.96017333191E+01  0.13903924526E+02  0.51210208977E+01  0.17656082662E+02  0.00000000000E+00 0.  1.
         11    1    4    4    0    0 -0.28488742322E+00  0.86043252059E+02 -0.21994155376E+03  0.23617326152E+03  0.00000000000E+00 0. -1.
<mgrwt>
<rscale>  0 0.15364679E+03</rscale>
<asrwt>0</asrwt>
<pdfrwt beam="2">  1        2 0.90124367E-01 0.16033542E+03</pdfrwt>
<pdfrwt beam="1">  1       -2 0.58137488E-02 0.16033542E+03</pdfrwt>
<totfact> 0.78073095E+03</totfact>
</mgrwt>
</event>
<event>
 8    1  0.1020295E-005  0.1298408E+03  0.7546771E-02  0.1239803E+00
         -1   -1    0    0    0  501 -0.00000000000E+00  0.00000000000E+00  0.72749140050E+03  0.72749140050E+03  0.00000000000E+00 0.  1.
          1   -1    0    0  501    0  0.00000000000E+00 -0.00000000000E+00 -0.39552563352E+02  0.39552563352E+02  0.00000000000E+00 0. -1.
         23    2    1    2    0    0  0.24497892032E+02  0.25162883026E+02  0.64347494965E+03  0.65644393580E+03  0.12500125048E+03 0.  0.
         23    2    1    2    0    0 -0.24497892032E+02 -0.25162883026E+02  0.44463887496E+02  0.11060002805E+03  0.94984269843E+02 0.  0.
          5    1    3    3  502    0 -0.42571751239E+02  0.21272311816E+02  0.42866386902E+03  0.43132315942E+03  0.47000000000E+01 0.  1.
         -5    1    3    3    0  502  0.67069643271E+02  0.38905712103E+01  0.21481108064E+03  0.22512077638E+03  0.47000000000E+01 0.  1.
        -11    1    4    4    0    0 -0.33302597420E+02 -0.51350744462E+02  0.53747114190E+02  0.81453755196E+02  0.00000000000E+00 0.  1.
         11    1    4    4    0    0  0.88047053876E+01  0.26187861436E+02 -0.92832266945E+01  0.29146272856E+02  0.00000000000E+00 0. -1.
<mgrwt>
<rscale>  0 0.12201889E+03</rscale>
<asrwt>0</asrwt>
<pdfrwt beam="2">  1        1 0.60850103E-02 0.12984079E+03</pdfrwt>
<pdfrwt beam="1">  1       -1 0.11192174E+00 0.12984079E+03</pdfrwt>
<totfact> 0.97072253E+02</totfact>
</mgrwt>
</event>
<event>
 8    1  0.1020295E-005  0.1669302E+03  0.7546771E-02  0.1188728E+00
         -1   -1    0    0    0  501 -0.00000000000E+00  0.00000000000E+00  0.93497733361E+02  0.93497733361E+02  0.00000000000E+00 0.  1.
          1   -1    0    0  501    0  0.00000000000E+00 -0.00000000000E+00 -0.27369227907E+03  0.27369227907E+03  0.00000000000E+00 0. -1.
         23    2    1    2    0    0  0.13699869695E+02  0.10981814949E+03 -0.47099347156E+02  0.17344749853E+03  0.12497189227E+03 0.  0.
         23    2    1    2    0    0 -0.13699869695E+02 -0.10981814949E+03 -0.13309519855E+03  0.19374251390E+03  0.87029405539E+02 0.  0.
          5    1    3    3  502    0  0.22421989050E+02  0.12672970035E+03 -0.71892725353E+01  0.12898425557E+03  0.47000000000E+01 0. -1.
         -5    1    3    3    0  502 -0.87221193549E+01 -0.16911550866E+02 -0.39910074621E+02  0.44463242965E+02  0.47000000000E+01 0. -1.
        -11    1    4    4    0    0  0.80031378845E+01  0.12187718426E+02 -0.47472385036E+01  0.15333850457E+02  0.00000000000E+00 0.  1.
         11    1    4    4    0    0 -0.21703007580E+02 -0.12200586791E+03 -0.12834796005E+03  0.17840866344E+03  0.00000000000E+00 0. -1.
<mgrwt>
<rscale>  0 0.15997205E+03</rscale>
<asrwt>0</asrwt>
<pdfrwt beam="2">  1        1 0.42106503E-01 0.16693018E+03</pdfrwt>
<pdfrwt beam="1">  1       -1 0.14384267E-01 0.16693018E+03</pdfrwt>
<totfact> 0.33026155E+03</totfact>
</mgrwt>
</event>
<event>
 8    1  0.1020295E-005  0.1370948E+03  0.7546771E-02  0.1229062E+00
          2   -1    0    0  501    0  0.00000000000E+00  0.00000000000E+00  0.59075001922E+03  0.59075001922E+03  0.00000000000E+00 0. -1.
         -2   -1    0    0    0  501 -0.00000000000E+00 -0.00000000000E+00 -0.25927955768E+02  0.25927955768E+02  0.00000000000E+00 0.  1.
         23    2    1    2    0    0 -0.17835472741E+02 -0.53383655677E+02  0.26690916086E+03  0.30005911387E+03  0.12500821125E+03 0.  0.
         23    2    1    2    0    0  0.17835472741E+02  0.53383655677E+02  0.29791290259E+03  0.31661886113E+03  0.91255065109E+02 0.  0.
          5    1    3    3  502    0 -0.32024549875E+02  0.34476858698E+02  0.78699635695E+02  0.91814749572E+02  0.47000000000E+01 0.  1.
         -5    1    3    3    0  502  0.14189077134E+02 -0.87860514375E+02  0.18820952517E+03  0.20824436430E+03  0.47000000000E+01 0.  1.
        -11    1    4    4    0    0 -0.56229855659E+01 -0.10064132954E+02  0.42426928340E+00  0.11536236094E+02  0.00000000000E+00 0.  1.
         11    1    4    4    0    0  0.23458458307E+02  0.63447788631E+02  0.29748863331E+03  0.30508262503E+03  0.00000000000E+00 0. -1.
<mgrwt>
<rscale>  0 0.12892323E+03</rscale>
<asrwt>0</asrwt>
<pdfrwt beam="1">  1        2 0.90884608E-01 0.13709475E+03</pdfrwt>
<pdfrwt beam="2">  1       -2 0.39889167E-02 0.13709475E+03</pdfrwt>
<totfact> 0.13480692E+04</totfact>
</mgrwt>
</event>
<event>
 8    1  0.1020295E-005  0.1524179E+03  0.7546771E-02  0.1205874E+00
          4   -1    0    0  501    0  0.00000000000E+00  0.00000000000E+00  0.62955628699E+02  0.62955628699E+02  0.00000000000E+00 0. -1.
         -4   -1    0    0    0  501 -0.00000000000E+00 -0.00000000000E+00 -0.37191515088E+03  0.37191515088E+03  0.00000000000E+00 0.  1.
         23    2    1    2    0    0  0.77406527276E+02  0.40160705758E+02 -0.25412172624E+03  0.29632594899E+03  0.12500625404E+03 0.  0.
         23    2    1    2    0    0 -0.77406527276E+02 -0.40160705758E+02 -0.54837795943E+02  0.13854483058E+03  0.92643582970E+02 0.  0.
          5    1    3    3  502    0 -0.18844890085E+02  0.32472790994E+02 -0.19497021509E+02  0.42565665565E+02  0.47000000000E+01 0. -1.
         -5    1    3    3    0  502  0.96251417361E+02  0.76879147635E+01 -0.23462470473E+03  0.25376028343E+03  0.47000000000E+01 0. -1.
        -11    1    4    4    0    0 -0.66027691572E+02 -0.33210276058E+02 -0.80710512000E+02  0.10943840842E+03  0.00000000000E+00 0.  1.
         11    1    4    4    0    0 -0.11378835704E+02 -0.69504297000E+01  0.25872716057E+02  0.29106422163E+02  0.00000000000E+00 0. -1.
<mgrwt>
<rscale>  0 0.14568821E+03</rscale>
<asrwt>0</asrwt>
<pdfrwt beam="1">  1        4 0.96854812E-02 0.15241790E+03</pdfrwt>
<pdfrwt beam="2">  1       -4 0.57217716E-01 0.15241790E+03</pdfrwt>
<totfact> 0.39893862E+02</totfact>
</mgrwt>
</event>
<event>
 8    1  0.1020295E-005  0.1809098E+03  0.7546771E-02  0.1172808E+00
         -2   -1    0    0    0  501 -0.00000000000E+00  0.00000000000E+00  0.28894869823E+02  0.28894869823E+02  0.00000000000E+00 0.  1.
          2   -1    0    0  501    0  0.00000000000E+00 -0.00000000000E+00 -0.10921971358E+04  0.10921971358E+04  0.00000000000E+00 0. -1.
         23    2    1    2    0    0 -0.12370823785E+03  0.42409573598E+02 -0.39690481396E+03  0.43619009632E+03  0.12500427487E+03 0.  0.
         23    2    1    2    0    0  0.12370823785E+03 -0.42409573598E+02 -0.66639745205E+03  0.68490190933E+03  0.88897476181E+02 0.  0.
          5    1    3    3  502    0 -0.47061029104E+02  0.80507160790E+02 -0.17596167267E+03  0.19920026016E+03  0.47000000000E+01 0. -1.
         -5    1    3    3    0  502 -0.76647208748E+02 -0.38097587192E+02 -0.22094314130E+03  0.23698983616E+03  0.47000000000E+01 0. -1.
        -11    1    4    4    0    0  0.75599867018E+02 -0.67771871274E+02 -0.37662457825E+03  0.39006978782E+03  0.00000000000E+00 0.  1.
         11    1    4    4    0    0  0.48108370834E+02  0.25362297677E+02 -0.28977287380E+03  0.29483212151E+03  0.00000000000E+00 0. -1.
<mgrwt>
<rscale>  0 0.17492429E+03</rscale>
<asrwt>0</asrwt>
<pdfrwt beam="2">  1        2 0.16803031E+00 0.18090984E+03</pdfrwt>
<pdfrwt beam="1">  1       -2 0.44453651E-02 0.18090984E+03</pdfrwt>
<totfact> 0.53366800E+03</totfact>
</mgrwt>
</event>
<event>
 8    1  0.1020295E-005  0.1326462E+03  0.7546771E-02  0.1235972E+00
         -1   -1    0    0    0  501 -0.00000000000E+00  0.00000000000E+00  0.49498583595E+02  0.49498583595E+02  0.00000000000E+00 0.  1.
          1   -1    0    0  501    0  0.00000000000E+00 -0.00000000000E+00 -0.28495237464E+03  0.28495237464E+03  0.00000000000E+00 0. -1.
         23    2    1    2    0    0 -0.41904817839E+02 -0.14647928120E+02 -0.10996965472E+03  0.17230304924E+03  0.12499776102E+03 0.  0.
         23    2    1    2    0    0  0.41904817839E+02  0.14647928120E+02 -0.12548413633E+03  0.16214790900E+03  0.92601837821E+02 0.  0.
          5    1    3    3  502    0 -0.77806150471E+02  0.52458540817E+01 -0.32718671667E+02  0.84698981763E+02  0.47000000000E+01 0. -1.
         -5    1    3    3    0  502  0.35901332631E+02 -0.19893782201E+02 -0.77250983055E+02  0.87604067473E+02  0.47000000000E+01 0. -1.
        -11    1    4    4    0    0  0.28425804865E+02  0.35964724389E+02 -0.14125464859E+02  0.47968912225E+02  0.00000000000E+00 0.  1.
         11    1    4    4    0    0  0.13479012975E+02 -0.21316796270E+02 -0.11135867147E+03  0.11417899678E+03  0.00000000000E+00 0. -1.
<mgrwt>
<rscale>  0 0.12442436E+03</rscale>
<asrwt>0</asrwt>
<pdfrwt beam="2">  1        1 0.43838828E-01 0.13264621E+03</pdfrwt>
<pdfrwt beam="1">  1       -1 0.76151666E-02 0.13264621E+03</pdfrwt>
<totfact> 0.82303551E+03</totfact>
</mgrwt>
</event>
<event>
 8    1  0.1020295E-005  0.1468495E+03  0.7546771E-02  0.1213938E+00
          1   -1    0    0  501    0  0.00000000000E+00  0.00000000000E+00  0.54390114241E+02  0.54390114241E+02  0.00000000000E+00 0. -1.
         -1   -1    0    0    0  501 -0.00000000000E+00 -0.00000000000E+00 -0.32888322259E+03  0.32888322259E+03  0.00000000000E+00 0.  1.
         23    2    1    2    0    0  0.66952870617E+02  0.38161791611E+02 -0.16665097522E+03  0.22212005370E+03  0.12500304594E+03 0.  0.
         23    2    1    2    0    0 -0.66952870617E+02 -0.38161791611E+02 -0.10784213313E+03  0.16115328313E+03  0.91659400834E+02 0.  0.
          5    1    3    3  502    0 -0.85562195269E+01 -0.12390485380E+02 -0.11778827123E+03  0.11883980756E+03  0.47000000000E+01 0. -1.
         -5    1    3    3    0  502  0.75509090144E+02  0.50552276990E+02 -0.48862703983E+02  0.10328024615E+03  0.47000000000E+01 0. -1.
        -11    1    4    4    0    0 -0.53133619094E+02 -0.54119811714E+02 -0.31807573008E+02  0.82242672614E+02  0.00000000000E+00 0. -1.
         11    1    4    4    0    0 -0.13819251523E+02  0.15958020103E+02 -0.76034560125E+02  0.78910610514E+02  0.00000000000E+00 0.  1.
<mgrwt>
<rscale>  0 0.13954834E+03</rscale>
<asrwt>0</asrwt>
<pdfrwt beam="1">  1        1 0.83677098E-02 0.14684948E+03</pdfrwt>
<pdfrwt beam="2">  1       -1 0.50597419E-01 0.14684948E+03</pdfrwt>
<totfact> 0.31775355E+03</totfact>
</mgrwt>
</event>
<event>
 8    1  0.1020295E-005  0.1936381E+03  0.7546771E-02  0.1159743E+00
         -1   -1    0    0    0  501 -0.00000000000E+00  0.00000000000E+00  0.49513683744E+02  0.49513683744E+02  0.00000000000E+00 0.  1.
          1   -1    0    0  501    0  0.00000000000E+00 -0.00000000000E+00 -0.72957892358E+03  0.72957892358E+03  0.00000000000E+00 0. -1.
         23    2    1    2    0    0  0.10138976947E+03  0.10766064959E+03 -0.25876063727E+03  0.32319155513E+03  0.12500005232E+03 0.  0.
         23    2    1    2    0    0 -0.10138976947E+03 -0.10766064959E+03 -0.42130460257E+03  0.45590105220E+03  0.92073342657E+02 0.  0.
          5    1    3    3  502    0  0.26551135825E+02  0.26590808847E+02 -0.18858265816E+03  0.19234745355E+03  0.47000000000E+01 0. -1.
         -5    1    3    3    0  502  0.74838633647E+02  0.81069840748E+02 -0.70177979112E+02  0.13084410158E+03  0.47000000000E+01 0. -1.
        -11    1    4    4    0    0 -0.38883929345E+02 -0.18602203037E+01 -0.19034380169E+03  0.19428376984E+03  0.00000000000E+00 0. -1.
         11    1    4    4    0    0 -0.62505840127E+02 -0.10580042929E+03 -0.23096080087E+03  0.26161728236E+03  0.00000000000E+00 0.  1.
<mgrwt>
<rscale>  0 0.18858612E+03</rscale>
<asrwt>0</asrwt>
<pdfrwt beam="2">  1        1 0.11224290E+00 0.19363810E+03</pdfrwt>
<pdfrwt beam="1">  1       -1 0.76174904E-02 0.19363810E+03</pdfrwt>
<totfact> 0.24410819E+03</totfact>
</mgrwt>
</event>
<event>
 8    1  0.1020295E-005  0.1356673E+03  0.7546771E-02  0.1231106E+00
         -1   -1    0    0    0  501 -0.00000000000E+00  0.00000000000E+00  0.15000255511E+03  0.15000255511E+03  0.00000000000E+00 0.  1.
          1   -1    0    0  501    0  0.00000000000E+00 -0.00000000000E+00 -0.11433451345E+03  0.11433451345E+03  0.00000000000E+00 0. -1.
         23    2    1    2    0    0 -0.88302130789E+01  0.51986992754E+02  0.70248910817E+02  0.15277605547E+03  0.12499997431E+03 0.  0.
         23    2    1    2    0    0  0.88302130789E+01 -0.51986992754E+02 -0.34580869163E+02  0.11156101309E+03  0.92029359723E+02 0.  0.
          5    1    3    3  502    0 -0.81278269245E+01  0.88731573265E+02  0.21921460346E+02  0.91880324816E+02  0.47000000000E+01 0. -1.
         -5    1    3    3    0  502 -0.70238615438E+00 -0.36744580511E+02  0.48327450471E+02  0.60895730657E+02  0.47000000000E+01 0. -1.
        -11    1    4    4    0    0  0.21951287984E+02  0.20462592408E+02  0.47498889125E+00  0.30013369465E+02  0.00000000000E+00 0.  1.
         11    1    4    4    0    0 -0.13121074905E+02 -0.72449585162E+02 -0.35055858054E+02  0.81547643625E+02  0.00000000000E+00 0. -1.
<mgrwt>
<rscale>  0 0.12757058E+03</rscale>
<asrwt>0</asrwt>
<pdfrwt beam="2">  1        1 0.17589925E-01 0.13566729E+03</pdfrwt>
<pdfrwt beam="1">  1       -1 0.23077316E-01 0.13566729E+03</pdfrwt>
<totfact> 0.45976600E+03</totfact>
</mgrwt>
</event>
<event>
 7    1  0.1020295E-005  0.2663723E+03  0.7546771E-02  0.1110159E+00
          2   -1    0    0  501    0  0.00000000000E+00  0.00000000000E+00  0.52349402991E+03  0.52349402991E+03  0.00000000000E+00 0. -1.
         -2   -1    0    0    0  501 -0.00000000000E+00 -0.00000000000E+00 -0.11817914182E+03  0.11817914182E+03  0.00000000000E+00 0.  1.
         23    2    1    2    0    0 -0.16214685622E+03 -0.90551620784E+02  0.13132751635E+03  0.25954322320E+03  0.12499827658E+03 0.  0.
          5    1    3    3  502    0 -0.24650446953E+02  0.18988101935E+02 -0.10968471853E+02  0.33325514623E+02  0.47000000000E+01 0. -1.
         -5    1    3    3    0  502 -0.13749640927E+03 -0.10953972272E+03  0.14229598820E+03  0.22621770858E+03  0.47000000000E+01 0. -1.
        -11    1    1    2    0    0  0.19408388144E+03  0.71655046065E+02  0.27603907720E+03  0.34496459355E+03  0.00000000000E+00 0.  1.
         11    1    1    2    0    0 -0.31937025217E+02  0.18896574719E+02 -0.20517054548E+01  0.37165354984E+02  0.00000000000E+00 0. -1.
<mgrwt>
<rscale>  0 0.25504313E+03</rscale>
<asrwt>0</asrwt>
<pdfrwt beam="1">  1        2 0.80537542E-01 0.26637233E+03</pdfrwt>
<pdfrwt beam="2">  1       -2 0.18181407E-01 0.26637233E+03</pdfrwt>
<totfact> 0.14620381E+03</totfact>
</mgrwt>
</event>
<event>
 8    1  0.1020295E-005  0.1320581E+03  0.7546771E-02  0.1235617E+00
          3   -1    0    0  501    0  0.00000000000E+00  0.00000000000E+00  0.18804009104E+03  0.18804009104E+03  0.00000000000E+00 0. -1.
         -3   -1    0    0    0  501 -0.00000000000E+00 -0.00000000000E+00 -0.81892369135E+02  0.81892369135E+02  0.00000000000E+00 0.  1.
         23    2    1    2    0    0 -0.11299302966E+02 -0.41043143104E+02  0.18612569155E+02  0.13336329096E+03  0.12500850292E+03 0.  0.
         23    2    1    2    0    0  0.11299302966E+02  0.41043143104E+02  0.87535152752E+02  0.13656916921E+03  0.95794160412E+02 0.  0.
          5    1    3    3  502    0 -0.67297855215E+02 -0.31926164624E+02  0.48449299801E+01  0.74792009271E+02  0.47000000000E+01 0. -1.
         -5    1    3    3    0  502  0.55998552249E+02 -0.91169784801E+01  0.13767639175E+02  0.58571281692E+02  0.47000000000E+01 0. -1.
        -11    1    4    4    0    0 -0.15541697730E+02 -0.88577853711E+00 -0.15605359237E+02  0.22042146194E+02  0.00000000000E+00 0.  1.
         11    1    4    4    0    0  0.26841000696E+02  0.41928921641E+02  0.10314051199E+03  0.11452702302E+03  0.00000000000E+00 0. -1.
<mgrwt>
<rscale>  0 0.12464998E+03</rscale>
<asrwt>0</asrwt>
<pdfrwt beam="1">  1        3 0.28929245E-01 0.13205809E+03</pdfrwt>
<pdfrwt beam="2">  1       -3 0.12598826E-01 0.13205809E+03</pdfrwt>
<totfact> 0.13163813E+03</totfact>
</mgrwt>
</event>
<event>
 8    1  0.1020295E-005  0.1521107E+03  0.7546771E-02  0.1207178E+00
         -2   -1    0    0    0  501 -0.00000000000E+00  0.00000000000E+00  0.34193632389E+03  0.34193632389E+03  0.00000000000E+00 0.  1.
          2   -1    0    0  501    0  0.00000000000E+00 -0.00000000000E+00 -0.57903567399E+02  0.57903567399E+02  0.00000000000E+00 0. -1.
         23    2    1    2    0    0  0.41145254027E+02 -0.76282401652E+02  0.19247737859E+03  0.24532672729E+03  0.12500290045E+03 0.  0.
         23    2    1    2    0    0 -0.41145254027E+02  0.76282401652E+02  0.91555377901E+02  0.15451316400E+03  0.89330811574E+02 0.  0.
          5    1    3    3  502    0  0.66973265700E+02 -0.88853608062E+02  0.18388260064E+03  0.21497740068E+03  0.47000000000E+01 0. -1.
         -5    1    3    3    0  502 -0.25828011673E+02  0.12571206410E+02  0.85947779475E+01  0.30349326608E+02  0.47000000000E+01 0. -1.
        -11    1    4    4    0    0  0.52331850648E+01  0.49147112733E+02  0.87666518888E+02  0.10063917453E+03  0.00000000000E+00 0.  1.
         11    1    4    4    0    0 -0.46378439092E+02  0.27135288919E+02  0.38888590129E+01  0.53873989473E+02  0.00000000000E+00 0. -1.
<mgrwt>
<rscale>  0 0.14467150E+03</rscale>
<asrwt>0</asrwt>
<pdfrwt beam="2">  1        2 0.89082413E-02 0.15211069E+03</pdfrwt>
<pdfrwt beam="1">  1       -2 0.52605587E-01 0.15211069E+03</pdfrwt>
<totfact> 0.24884192E+03</totfact>
</mgrwt>
</event>
<event>
 8    1  0.1020295E-005  0.1417246E+03  0.7546771E-02  0.1221632E+00
          2   -1    0    0  501    0  0.00000000000E+00  0.00000000000E+00  0.78842654922E+03  0.78842654922E+03  0.00000000000E+00 0. -1.
         -2   -1    0    0    0  501 -0.00000000000E+00 -0.00000000000E+00 -0.20921632123E+02  0.20921632123E+02  0.00000000000E+00 0.  1.
         23    2    1    2    0    0 -0.61770259856E+02  0.21628062758E+02  0.47434188115E+03  0.49506170912E+03  0.12570814423E+03 0.  0.
         23    2    1    2    0    0  0.61770259856E+02 -0.21628062758E+02  0.29316303595E+03  0.31428647222E+03  0.92455842830E+02 0.  0.
          5    1    3    3  502    0 -0.46295993546E+02  0.10827948188E+02  0.46143499932E+02  0.66421954701E+02  0.47000000000E+01 0.  1.
         -5    1    3    3    0  502 -0.15474266310E+02  0.10800114570E+02  0.42819838121E+03  0.42863975442E+03  0.47000000000E+01 0.  1.
        -11    1    4    4    0    0 -0.14518343268E+02 -0.23712723415E+02  0.14480292573E+03  0.14744817002E+03  0.00000000000E+00 0. -1.
         11    1    4    4    0    0  0.76288603124E+02  0.20846606563E+01  0.14836011022E+03  0.16683830220E+03  0.00000000000E+00 0.  1.
<mgrwt>
<rscale>  0 0.13400419E+03</rscale>
<asrwt>0</asrwt>
<pdfrwt beam="1">  1        2 0.12129637E+00 0.14172465E+03</pdfrwt>
<pdfrwt beam="2">  1       -2 0.32187132E-02 0.14172465E+03</pdfrwt>
<totfact> 0.13198284E+04</totfact>
</mgrwt>
</event>
<event>
 8    1  0.1020295E-005  0.1391006E+03  0.7546771E-02  0.1225909E+00
          2   -1    0    0  501    0  0.00000000000E+00  0.00000000000E+00  0.33872665641E+02  0.33872665641E+02  0.00000000000E+00 0. -1.
         -2   -1    0    0    0  501 -0.00000000000E+00 -0.00000000000E+00 -0.45653825741E+03  0.45653825741E+03  0.00000000000E+00 0.  1.
         23    2    1    2    0    0  0.71715339446E+01 -0.60595710707E+02 -0.24014438613E+03  0.27752169474E+03  0.12500277520E+03 0.  0.
         23    2    1    2    0    0 -0.71715339446E+01  0.60595710707E+02 -0.18252120564E+03  0.21288922831E+03  0.91019569137E+02 0.  0.
          5    1    3    3  502    0  0.61673638713E+02 -0.50108652187E+02 -0.17186339699E+03  0.18940335784E+03  0.47000000000E+01 0. -1.
         -5    1    3    3    0  502 -0.54502104769E+02 -0.10487058520E+02 -0.68280989135E+02  0.88118336899E+02  0.47000000000E+01 0. -1.
        -11    1    4    4    0    0 -0.45692251867E+02  0.49640490542E+02 -0.93759215750E+02  0.11551082512E+03  0.00000000000E+00 0.  1.
         11    1    4    4    0    0  0.38520717922E+02  0.10955220165E+02 -0.88761989891E+02  0.97378403188E+02  0.00000000000E+00 0. -1.
<mgrwt>
<rscale>  0 0.13104780E+03</rscale>
<asrwt>0</asrwt>
<pdfrwt beam="1">  1        2 0.52111795E-02 0.13910056E+03</pdfrwt>
<pdfrwt beam="2">  1       -2 0.70236653E-01 0.13910056E+03</pdfrwt>
<totfact> 0.27019352E+03</totfact>
</mgrwt>
</event>
<event>
 8    1  0.1020295E-005  0.1547778E+03  0.7546771E-02  0.1201205E+00
         -1   -1    0    0    0  501 -0.00000000000E+00  0.00000000000E+00  0.11126480818E+03  0.11126480818E+03  0.00000000000E+00 0.  1.
          1   -1    0    0  501    0  0.00000000000E+00 -0.00000000000E+00 -0.21220684471E+03  0.21220684471E+03  0.00000000000E+00 0. -1.
         23    2    1    2    0    0  0.16630118147E+02 -0.89749808997E+02  0.10285385656E+01  0.15478124552E+03  0.12499834811E+03 0.  0.
         23    2    1    2    0    0 -0.16630118147E+02  0.89749808997E+02 -0.10197057509E+03  0.16869040737E+03  0.98624876723E+02 0.  0.
          5    1    3    3  502    0 -0.40900378216E+02  0.71579249374E+01  0.37256603248E+01  0.41952918522E+02  0.47000000000E+01 0. -1.
         -5    1    3    3    0  502  0.57530496363E+02 -0.96907733935E+02 -0.26971217591E+01  0.11282832700E+03  0.47000000000E+01 0. -1.
        -11    1    4    4    0    0  0.25235190814E+02  0.86706403833E+02 -0.82900062995E+02  0.12258562626E+03  0.00000000000E+00 0.  1.
         11    1    4    4    0    0 -0.41865308961E+02  0.30434051640E+01 -0.19070512099E+02  0.46104781109E+02  0.00000000000E+00 0. -1.
<mgrwt>
<rscale>  0 0.14940552E+03</rscale>
<asrwt>0</asrwt>
<pdfrwt beam="2">  1        1 0.32647207E-01 0.15477783E+03</pdfrwt>
<pdfrwt beam="1">  1       -1 0.17117663E-01 0.15477783E+03</pdfrwt>
<totfact> 0.34315264E+03</totfact>
</mgrwt>
</event>
<event>
 8    1  0.1020295E-005  0.1395068E+03  0.7546771E-02  0.1225212E+00
          1   -1    0    0  501    0  0.00000000000E+00  0.00000000000E+00  0.20082448737E+03  0.20082448737E+03  0.00000000000E+00 0. -1.
         -1   -1    0    0    0  501 -0.00000000000E+00 -0.00000000000E+00 -0.79968954893E+02  0.79968954893E+02  0.00000000000E+00 0.  1.
         23    2    1    2    0    0  0.27901266218E+02  0.55305135693E+02  0.43456240325E+02  0.14611842475E+03  0.12500004215E+03 0.  0.
         23    2    1    2    0    0 -0.27901266218E+02 -0.55305135693E+02  0.77399292154E+02  0.13467501751E+03  0.91156849585E+02 0.  0.
          5    1    3    3  502    0  0.22419167978E+02  0.89702032869E+02  0.56695103640E+02  0.10856103615E+03  0.47000000000E+01 0. -1.
         -5    1    3    3    0  502  0.54820982396E+01 -0.34396897176E+02 -0.13238863315E+02  0.37557388598E+02  0.47000000000E+01 0. -1.
        -11    1    4    4    0    0  0.13526613112E+02  0.19817706722E+02  0.22002702667E+02  0.32555025520E+02  0.00000000000E+00 0.  1.
         11    1    4    4    0    0 -0.41427879330E+02 -0.75122842415E+02  0.55396589487E+02  0.10211999199E+03  0.00000000000E+00 0. -1.
<mgrwt>
<rscale>  0 0.13152366E+03</rscale>
<asrwt>0</asrwt>
<pdfrwt beam="1">  1        1 0.30896075E-01 0.13950681E+03</pdfrwt>
<pdfrwt beam="2">  1       -1 0.12302916E-01 0.13950681E+03</pdfrwt>
<totfact> 0.61301716E+03</totfact>
</mgrwt>
</event>
<event>
 7    1  0.1020295E-005  0.1633620E+03  0.7546771E-02  0.1200413E+00
         -2   -1    0    0    0  501 -0.00000000000E+00  0.00000000000E+00  0.50010236151E+03  0.50010236151E+03  0.00000000000E+00 0. -1.
          2   -1    0    0  501    0  0.00000000000E+00 -0.00000000000E+00 -0.18695983549E+03  0.18695983549E+03  0.00000000000E+00 0.  1.
         23    2    1    2    0    0 -0.52956630401E+02 -0.49828163507E+02 -0.15354929508E+03  0.19260451017E+03  0.90729602322E+02 0.  0.
          5    1    1    2  502    0  0.75033268197E+02 -0.25973851981E+02  0.17490749624E+03  0.19214409843E+03  0.47000000000E+01 0.  1.
         -5    1    1    2    0  502 -0.22076637795E+02  0.75802015489E+02  0.29178432486E+03  0.30231358839E+03  0.47000000000E+01 0. -1.
        -11    1    3    3    0    0 -0.77799015754E+02 -0.33247805099E+02 -0.97471839325E+02  0.12906921731E+03  0.00000000000E+00 0.  1.
         11    1    3    3    0    0  0.24842385353E+02 -0.16580358408E+02 -0.56077455754E+02  0.63535292860E+02  0.00000000000E+00 0. -1.
<mgrwt>
<rscale>  0 0.15004856E+03</rscale>
<asrwt>0</asrwt>
<pdfrwt beam="2">  1        2 0.28763052E-01 0.16336202E+03</pdfrwt>
<pdfrwt beam="1">  1       -2 0.76938824E-01 0.16336202E+03</pdfrwt>
<totfact> 0.28702570E+02</totfact>
</mgrwt>
</event>
<event>
 8    1  0.1020295E-005  0.1727174E+03  0.7546771E-02  0.1180838E+00
         -2   -1    0    0    0  501 -0.00000000000E+00  0.00000000000E+00  0.22539408194E+02  0.22539408194E+02  0.00000000000E+00 0.  1.
          2   -1    0    0  501    0  0.00000000000E+00 -0.00000000000E+00 -0.12316131956E+04  0.12316131956E+04  0.00000000000E+00 0. -1.
         23    2    1    2    0    0  0.10927294208E+03  0.47580424391E+02 -0.49779696067E+03  0.52690902726E+03  0.12500734499E+03 0.  0.
         23    2    1    2    0    0 -0.10927294208E+03 -0.47580424391E+02 -0.71127682672E+03  0.72724357652E+03  0.93616359147E+02 0.  0.
          5    1    3    3  502    0  0.12021882415E+03  0.42702078958E+02 -0.49793046013E+03  0.51403586096E+03  0.47000000000E+01 0. -1.
         -5    1    3    3    0  502 -0.10945882067E+02  0.48783454334E+01  0.13349946575E+00  0.12873166297E+02  0.47000000000E+01 0. -1.
        -11    1    4    4    0    0  0.36234741083E+01  0.19741925956E+02 -0.99760214868E+02  0.10175939109E+03  0.00000000000E+00 0. -1.
         11    1    4    4    0    0 -0.11289641619E+03 -0.67322350347E+02 -0.61151661185E+03  0.62548418543E+03  0.00000000000E+00 0.  1.
<mgrwt>
<rscale>  0 0.16716436E+03</rscale>
<asrwt>0</asrwt>
<pdfrwt beam="2">  1        2 0.18947901E+00 0.17271743E+03</pdfrwt>
<pdfrwt beam="1">  1       -2 0.34676002E-02 0.17271743E+03</pdfrwt>
<totfact> 0.64390122E+03</totfact>
</mgrwt>
</event>
<event>
 8    1  0.1020295E-005  0.1515071E+03  0.7546771E-02  0.1209245E+00
         -1   -1    0    0    0  501 -0.00000000000E+00  0.00000000000E+00  0.43102536083E+03  0.43102536083E+03  0.00000000000E+00 0.  1.
          1   -1    0    0  501    0  0.00000000000E+00 -0.00000000000E+00 -0.44090766839E+02  0.44090766839E+02  0.00000000000E+00 0. -1.
         23    2    1    2    0    0 -0.36238775853E+02  0.77564239452E+02  0.25346910953E+03  0.29529815565E+03  0.12499980453E+03 0.  0.
         23    2    1    2    0    0  0.36238775853E+02 -0.77564239452E+02  0.13346548447E+03  0.17981797201E+03  0.84805703808E+02 0.  0.
          5    1    3    3  502    0 -0.43598820320E+02  0.10973146624E+03  0.19656600918E+03  0.22935155936E+03  0.47000000000E+01 0.  1.
         -5    1    3    3    0  502  0.73600444664E+01 -0.32167226788E+02  0.56903100342E+02  0.65946596290E+02  0.47000000000E+01 0.  1.
        -11    1    4    4    0    0 -0.26184768988E+02 -0.25280560749E+02  0.24856573505E+02  0.44074914919E+02  0.00000000000E+00 0. -1.
         11    1    4    4    0    0  0.62423544841E+02 -0.52283678703E+02  0.10860891096E+03  0.13574305709E+03  0.00000000000E+00 0.  1.
<mgrwt>
<rscale>  0 0.14307907E+03</rscale>
<asrwt>0</asrwt>
<pdfrwt beam="2">  1        1 0.67831952E-02 0.15150713E+03</pdfrwt>
<pdfrwt beam="1">  1       -1 0.66311591E-01 0.15150713E+03</pdfrwt>
<totfact> 0.25337915E+03</totfact>
</mgrwt>
</event>
<event>
 8    1  0.1020295E-005  0.1381784E+03  0.7546771E-02  0.1230250E+00
          1   -1    0    0  501    0  0.00000000000E+00  0.00000000000E+00  0.29611557430E+03  0.29611557430E+03  0.00000000000E+00 0. -1.
         -1   -1    0    0    0  501 -0.00000000000E+00 -0.00000000000E+00 -0.82755814420E+02  0.82755814420E+02  0.00000000000E+00 0.  1.
         23    2    1    2    0    0 -0.37839854999E+02  0.40751163388E+02 -0.44892531076E+01  0.13825130630E+03  0.12649410404E+03 0.  0.
         23    2    1    2    0    0  0.37839854999E+02 -0.40751163388E+02  0.21784901298E+03  0.24062008242E+03  0.85716507513E+02 0.  0.
          5    1    3    3  502    0  0.28811223945E+01 -0.41695006924E+02  0.14023895698E+02  0.44334344691E+02  0.47000000000E+01 0. -1.
         -5    1    3    3    0  502 -0.40720977394E+02  0.82446170312E+02 -0.18513148806E+02  0.93916961608E+02  0.47000000000E+01 0.  1.
        -11    1    4    4    0    0  0.61305440438E+02 -0.81982885353E+01  0.12476898599E+03  0.13925828100E+03  0.00000000000E+00 0. -1.
         11    1    4    4    0    0 -0.23465585439E+02 -0.32552874852E+02  0.93080026993E+02  0.10136180141E+03  0.00000000000E+00 0.  1.
<mgrwt>
<rscale>  0 0.12813471E+03</rscale>
<asrwt>0</asrwt>
<pdfrwt beam="1">  1        1 0.45556242E-01 0.13817840E+03</pdfrwt>
<pdfrwt beam="2">  1       -1 0.12731664E-01 0.13817840E+03</pdfrwt>
<totfact> 0.35920060E+03</totfact>
</mgrwt>
</event>
<event>
 8    1  0.1020295E-005  0.1434908E+03  0.7546771E-02  0.1219875E+00
         -1   -1    0    0    0  501 -0.00000000000E+00  0.00000000000E+00  0.33001641932E+03  0.33001641932E+03  0.00000000000E+00 0.  1.
          1   -1    0    0  501    0  0.00000000000E+00 -0.00000000000E+00 -0.49947778792E+02  0.49947778792E+02  0.00000000000E+00 0. -1.
         23    2    1    2    0    0 -0.63277143674E+02 -0.30876222917E+02  0.15301880068E+03  0.20977216940E+03  0.12502908318E+03 0.  0.
         23    2    1    2    0    0  0.63277143674E+02  0.30876222917E+02  0.12704983985E+03  0.17019202872E+03  0.88692315220E+02 0.  0.
          5    1    3    3  502    0 -0.26905426707E+02 -0.77863604799E+02  0.10288355881E+03  0.13188540333E+03  0.47000000000E+01 0. -1.
         -5    1    3    3    0  502 -0.36371716967E+02  0.46987381881E+02  0.50135241869E+02  0.77886766068E+02  0.47000000000E+01 0. -1.
        -11    1    4    4    0    0  0.65142469825E+02 -0.86761060773E+01  0.46716692506E+02  0.80630425711E+02  0.00000000000E+00 0. -1.
         11    1    4    4    0    0 -0.18653261508E+01  0.39552328995E+02  0.80333147346E+02  0.89561603007E+02  0.00000000000E+00 0.  1.
<mgrwt>
<rscale>  0 0.13524448E+03</rscale>
<asrwt>0</asrwt>
<pdfrwt beam="2">  1        1 0.76842739E-02 0.14349080E+03</pdfrwt>
<pdfrwt beam="1">  1       -1 0.50771756E-01 0.14349080E+03</pdfrwt>
<totfact> 0.35359791E+03</totfact>
</mgrwt>
</event>
<event>
 8    1  0.1020295E-005  0.1420893E+03  0.7546771E-02  0.1222951E+00
         -1   -1    0    0    0  501 -0.00000000000E+00  0.00000000000E+00  0.47166013722E+02  0.47166013722E+02  0.00000000000E+00 0.  1.
          1   -1    0    0  501    0  0.00000000000E+00 -0.00000000000E+00 -0.33936177711E+03  0.33936177711E+03  0.00000000000E+00 0. -1.
         23    2    1    2    0    0  0.67205641721E+02  0.69371634740E+01 -0.14339836855E+03  0.20187236129E+03  0.12499854253E+03 0.  0.
         23    2    1    2    0    0 -0.67205641721E+02 -0.69371634740E+01 -0.14879739484E+03  0.18465542954E+03  0.85978139267E+02 0.  0.
          5    1    3    3  502    0  0.71132336261E+02  0.32653625962E+02 -0.15445463091E+03  0.17321775764E+03  0.47000000000E+01 0. -1.
         -5    1    3    3    0  502 -0.39266945399E+01 -0.25716462488E+02  0.11056262366E+02  0.28654603651E+02  0.47000000000E+01 0. -1.
        -11    1    4    4    0    0 -0.48010294068E+02 -0.26789221646E+02 -0.14704317416E+03  0.15698517700E+03  0.00000000000E+00 0. -1.
         11    1    4    4    0    0 -0.19195347653E+02  0.19852058172E+02 -0.17542206807E+01  0.27670252535E+02  0.00000000000E+00 0.  1.
<mgrwt>
<rscale>  0 0.13308330E+03</rscale>
<asrwt>0</asrwt>
<pdfrwt beam="2">  1        1 0.52209503E-01 0.14208926E+03</pdfrwt>
<pdfrwt beam="1">  1       -1 0.72563100E-02 0.14208926E+03</pdfrwt>
<totfact> 0.71583694E+03</totfact>
</mgrwt>
</event>
<event>
 8    1  0.1020295E-005  0.1262729E+03  0.7546771E-02  0.1246726E+00
         -2   -1    0    0    0  501 -0.00000000000E+00  0.00000000000E+00  0.33848923151E+02  0.33848923151E+02  0.00000000000E+00 0.  1.
          2   -1    0    0  501    0  0.00000000000E+00 -0.00000000000E+00 -0.37125050983E+03  0.37125050983E+03  0.00000000000E+00 0. -1.
         23    2    1    2    0    0  0.14347957016E+02 -0.10744084896E+02 -0.16343094110E+03  0.20652971461E+03  0.12499420498E+03 0.  0.
         23    2    1    2    0    0 -0.14347957016E+02  0.10744084896E+02 -0.17397064558E+03  0.19856971837E+03  0.94036420063E+02 0.  0.
          5    1    3    3  502    0  0.50341821183E+02  0.27941522249E+02 -0.34925207272E+02  0.67504723750E+02  0.47000000000E+01 0. -1.
         -5    1    3    3    0  502 -0.35993864167E+02 -0.38685607145E+02 -0.12850573383E+03  0.13902499086E+03  0.47000000000E+01 0. -1.
        -11    1    4    4    0    0  0.16891194377E+02  0.27893524030E+02 -0.15434339235E+02  0.36077416175E+02  0.00000000000E+00 0.  1.
         11    1    4    4    0    0 -0.31239151392E+02 -0.17149439134E+02 -0.15853630634E+03  0.16249230219E+03  0.00000000000E+00 0. -1.
<mgrwt>
<rscale>  0 0.11782683E+03</rscale>
<asrwt>0</asrwt>
<pdfrwt beam="2">  1        2 0.57115461E-01 0.12627292E+03</pdfrwt>
<pdfrwt beam="1">  1       -2 0.52075268E-02 0.12627292E+03</pdfrwt>
<totfact> 0.14920361E+04</totfact>
</mgrwt>
</event>
<event>
 7    1  0.1020295E-005  0.3364228E+03  0.7546771E-02  0.1114399E+00
          1   -1    0    0  501    0  0.00000000000E+00  0.00000000000E+00  0.89779144263E+03  0.89779144263E+03  0.00000000000E+00 0. -1.
         -1   -1    0    0    0  501 -0.00000000000E+00 -0.00000000000E+00 -0.53017633362E+02  0.53017633362E+02  0.00000000000E+00 0.  1.
         23    2    1    2    0    0  0.18468404407E+02 -0.36723170245E+02  0.20315709202E+03  0.22634217898E+03  0.90930219148E+02 0.  0.
          5    1    1    2  502    0  0.61962483377E+02  0.10002100129E+03  0.60392106148E+03  0.61529366042E+03  0.47000000000E+01 0. -1.
         -5    1    1    2    0  502 -0.80430887784E+02 -0.63297831041E+02  0.37695655762E+02  0.10917323659E+03  0.47000000000E+01 0.  1.
        -11    1    3    3    0    0 -0.15449745385E+02  0.21859162154E+02  0.95422787035E+02  0.99106134462E+02  0.00000000000E+00 0.  1.
         11    1    3    3    0    0  0.33918149792E+02 -0.58582332399E+02  0.10773430498E+03  0.12723604452E+03  0.00000000000E+00 0. -1.
<mgrwt>
<rscale>  0 0.24827639E+03</rscale>
<asrwt>0</asrwt>
<pdfrwt beam="1">  1        1 0.13812175E+00 0.33642276E+03</pdfrwt>
<pdfrwt beam="2">  1       -1 0.81565597E-02 0.33642276E+03</pdfrwt>
<totfact> 0.16030632E+03</totfact>
</mgrwt>
</event>
<event>
 8    1  0.1020295E-005  0.1664075E+03  0.7546771E-02  0.1188529E+00
         -1   -1    0    0    0  501 -0.00000000000E+00  0.00000000000E+00  0.84668431411E+02  0.84668431411E+02  0.00000000000E+00 0.  1.
          1   -1    0    0  501    0  0.00000000000E+00 -0.00000000000E+00 -0.32181271184E+03  0.32181271184E+03  0.00000000000E+00 0. -1.
         23    2    1    2    0    0 -0.68885777617E+02 -0.85569247950E+02 -0.55416563462E+02  0.17539231496E+03  0.12499648830E+03 0.  0.
         23    2    1    2    0    0  0.68885777617E+02  0.85569247950E+02 -0.18172771696E+03  0.23108882829E+03  0.91157758283E+02 0.  0.
          5    1    3    3  502    0 -0.39354753516E+02 -0.11669314713E+03 -0.40375172524E+02  0.12968551102E+03  0.47000000000E+01 0.  1.
         -5    1    3    3    0  502 -0.29531024101E+02  0.31123899183E+02 -0.15041390937E+02  0.45706803937E+02  0.47000000000E+01 0.  1.
        -11    1    4    4    0    0  0.65246082966E+02  0.64805336483E+02 -0.65346364737E+02  0.11281369759E+03  0.00000000000E+00 0.  1.
         11    1    4    4    0    0  0.36396946509E+01  0.20763911467E+02 -0.11638135223E+03  0.11827513070E+03  0.00000000000E+00 0. -1.
<mgrwt>
<rscale>  0 0.16014836E+03</rscale>
<asrwt>0</asrwt>
<pdfrwt beam="2">  1        1 0.49509648E-01 0.16640754E+03</pdfrwt>
<pdfrwt beam="1">  1       -1 0.13025912E-01 0.16640754E+03</pdfrwt>
<totfact> 0.31519620E+03</totfact>
</mgrwt>
</event>
<event>
 8    1  0.1020295E-005  0.1155297E+03  0.7546771E-02  0.1259401E+00
         -2   -1    0    0    0  501 -0.00000000000E+00  0.00000000000E+00  0.62488711879E+02  0.62488711879E+02  0.00000000000E+00 0.  1.
          2   -1    0    0  501    0  0.00000000000E+00 -0.00000000000E+00 -0.18126110389E+03  0.18126110389E+03  0.00000000000E+00 0. -1.
         23    2    1    2    0    0 -0.33371388504E+02  0.66616984958E+01 -0.59654033486E+02  0.13002198996E+03  0.11040419541E+03 0.  0.
         23    2    1    2    0    0  0.33371388504E+02 -0.66616984958E+01 -0.59118358527E+02  0.11372782582E+03  0.91000056331E+02 0.  0.
          5    1    3    3  502    0 -0.73050141016E+02 -0.93969038426E+00 -0.48610880566E+02  0.87876696740E+02  0.47000000000E+01 0. -1.
         -5    1    3    3    0  502  0.39678752512E+02  0.76013888800E+01 -0.11043152919E+02  0.42145293215E+02  0.47000000000E+01 0.  1.
        -11    1    4    4    0    0 -0.21380952169E+02 -0.16322378536E+02  0.65491909750E+01  0.27684960884E+02  0.00000000000E+00 0. -1.
         11    1    4    4    0    0  0.54752340672E+02  0.96606800405E+01 -0.65667549502E+02  0.86042864931E+02  0.00000000000E+00 0.  1.
<mgrwt>
<rscale>  0 0.11063339E+03</rscale>
<asrwt>0</asrwt>
<pdfrwt beam="2">  1        2 0.27886323E-01 0.11552971E+03</pdfrwt>
<pdfrwt beam="1">  1       -2 0.96136481E-02 0.11552971E+03</pdfrwt>
<totfact> 0.12439913E+04</totfact>
</mgrwt>
</event>
<event>
 7    1  0.1020295E-005  0.1649824E+03  0.7546771E-02  0.1203159E+00
         -2   -1    0    0    0  501 -0.00000000000E+00  0.00000000000E+00  0.42993791534E+02  0.42993791534E+02  0.00000000000E+00 0.  1.
          2   -1    0    0  501    0  0.00000000000E+00 -0.00000000000E+00 -0.45114509724E+03  0.45114509724E+03  0.00000000000E+00 0. -1.
         23    2    1    2    0    0  0.56196333471E+02 -0.49166699520E+01 -0.21678228995E+03  0.24147056600E+03  0.90173563032E+02 0.  0.
          5    1    1    2  502    0 -0.60411183948E+02 -0.34477964879E+02 -0.20003942173E+03  0.21183980140E+03  0.47000000000E+01 0. -1.
         -5    1    1    2    0  502  0.42148504776E+01  0.39394634831E+02  0.86704059779E+01  0.40828521377E+02  0.47000000000E+01 0.  1.
        -11    1    3    3    0    0 -0.17311314820E+02  0.20579723941E+02 -0.38621410341E+02  0.47061874112E+02  0.00000000000E+00 0.  1.
         11    1    3    3    0    0  0.73507648290E+02 -0.25496393893E+02 -0.17816087961E+03  0.19440869189E+03  0.00000000000E+00 0. -1.
<mgrwt>
<rscale>  0 0.14783513E+03</rscale>
<asrwt>0</asrwt>
<pdfrwt beam="2">  1        2 0.69406935E-01 0.16498237E+03</pdfrwt>
<pdfrwt beam="1">  1       -2 0.66144298E-02 0.16498237E+03</pdfrwt>
<totfact> 0.85867861E+03</totfact>
</mgrwt>
</event>
<event>
 8    1  0.1020295E-005  0.1305768E+03  0.7546771E-02  0.1240972E+00
         -1   -1    0    0    0  501 -0.00000000000E+00  0.00000000000E+00  0.19391572020E+03  0.19391572020E+03  0.00000000000E+00 0.  1.
          1   -1    0    0  501    0  0.00000000000E+00 -0.00000000000E+00 -0.67297981776E+02  0.67297981776E+02  0.00000000000E+00 0. -1.
         23    2    1    2    0    0 -0.15800857947E+02  0.34277801359E+02  0.82376885343E+02  0.15438995018E+03  0.12500268277E+03 0.  0.
         23    2    1    2    0    0  0.15800857947E+02 -0.34277801359E+02  0.44240853085E+02  0.10682375180E+03  0.89607064951E+02 0.  0.
          5    1    3    3  502    0 -0.10853237249E+02  0.13815201773E+02 -0.32641761637E+02  0.37366123181E+02  0.47000000000E+01 0.  1.
         -5    1    3    3    0  502 -0.49476206983E+01  0.20462599586E+02  0.11501864698E+03  0.11702382700E+03  0.47000000000E+01 0.  1.
        -11    1    4    4    0    0  0.58489335312E+01  0.23338196548E+02 -0.10937306475E+02  0.26429266250E+02  0.00000000000E+00 0. -1.
         11    1    4    4    0    0  0.99519244161E+01 -0.57615997907E+02  0.55178159560E+02  0.80394485550E+02  0.00000000000E+00 0.  1.
<mgrwt>
<rscale>  0 0.12129750E+03</rscale>
<asrwt>0</asrwt>
<pdfrwt beam="2">  1        1 0.10353536E-01 0.13057682E+03</pdfrwt>
<pdfrwt beam="1">  1       -1 0.29833188E-01 0.13057682E+03</pdfrwt>
<totfact> 0.59833106E+03</totfact>
</mgrwt>
</event>
<event>
 8    1  0.1020295E-005  0.2419367E+03  0.7546771E-02  0.1121285E+00
          2   -1    0    0  501    0  0.00000000000E+00  0.00000000000E+00  0.10929130571E+04  0.10929130571E+04  0.00000000000E+00 0. -1.
         -2   -1    0    0    0  501 -0.00000000000E+00 -0.00000000000E+00 -0.52247162035E+02  0.52247162035E+02  0.00000000000E+00 0.  1.
         23    2    1    2    0    0  0.20608285438E+03  0.20916991477E+02  0.41959552784E+03  0.48434880273E+03  0.12500276924E+03 0.  0.
         23    2    1    2    0    0 -0.20608285438E+03 -0.20916991477E+02  0.62107036725E+03  0.66081141644E+03  0.89641863057E+02 0.  0.
          5    1    3    3  502    0  0.93753452283E+02 -0.20928602242E+02  0.83082514014E+02  0.12709252670E+03  0.47000000000E+01 0.  1.
         -5    1    3    3    0  502  0.11232940210E+03  0.41845593719E+02  0.33651301383E+03  0.35725627603E+03  0.47000000000E+01 0.  1.
        -11    1    4    4    0    0 -0.63849557252E+02 -0.43710633217E+02  0.28172876013E+03  0.29216173552E+03  0.00000000000E+00 0. -1.
         11    1    4    4    0    0 -0.14223329713E+03  0.22793641740E+02  0.33934160712E+03  0.36864968091E+03  0.00000000000E+00 0.  1.
<mgrwt>
<rscale>  0 0.23777281E+03</rscale>
<asrwt>0</asrwt>
<pdfrwt beam="1">  1        2 0.16814045E+00 0.24193668E+03</pdfrwt>
<pdfrwt beam="2">  1       -2 0.80380257E-02 0.24193668E+03</pdfrwt>
<totfact> 0.21621065E+03</totfact>
</mgrwt>
</event>
<event>
 8    1  0.1020295E-005  0.2134338E+03  0.7546771E-02  0.1142730E+00
         -2   -1    0    0    0  501 -0.00000000000E+00  0.00000000000E+00  0.44147358249E+03  0.44147358249E+03  0.00000000000E+00 0.  1.
          2   -1    0    0  501    0  0.00000000000E+00 -0.00000000000E+00 -0.13553989140E+03  0.13553989140E+03  0.00000000000E+00 0. -1.
         23    2    1    2    0    0  0.17251850737E+03 -0.65324642441E+01  0.31703944567E+03  0.38218842389E+03  0.12549371604E+03 0.  0.
         23    2    1    2    0    0 -0.17251850737E+03  0.65324642441E+01 -0.11105754586E+02  0.19482505000E+03  0.89599965664E+02 0.  0.
          5    1    3    3  502    0  0.15894306839E+03 -0.93479820204E+01  0.16462132763E+03  0.22906888761E+03  0.47000000000E+01 0.  1.
         -5    1    3    3    0  502  0.13575438981E+02  0.28155177763E+01  0.15241811804E+03  0.15311953628E+03  0.47000000000E+01 0.  1.
        -11    1    4    4    0    0 -0.93051616085E+02 -0.35574841700E+02 -0.27642061180E+02  0.10338402277E+03  0.00000000000E+00 0. -1.
         11    1    4    4    0    0 -0.79466891288E+02  0.42107305944E+02  0.16536306594E+02  0.91441027228E+02  0.00000000000E+00 0.  1.
<mgrwt>
<rscale>  0 0.20853641E+03</rscale>
<asrwt>0</asrwt>
<pdfrwt beam="2">  1        2 0.20852291E-01 0.21343379E+03</pdfrwt>
<pdfrwt beam="1">  1       -2 0.67919012E-01 0.21343379E+03</pdfrwt>
<totfact> 0.53829528E+02</totfact>
</mgrwt>
</event>
<event>
 8    1  0.1020295E-005  0.3233569E+03  0.7546771E-02  0.1075422E+00
         -1   -1    0    0    0  501 -0.00000000000E+00  0.00000000000E+00  0.14732915445E+04  0.14732915445E+04  0.00000000000E+00 0.  1.
          1   -1    0    0  501    0  0.00000000000E+00 -0.00000000000E+00 -0.85040880626E+02  0.85040880626E+02  0.00000000000E+00 0. -1.
         23    2    1    2    0    0  0.27699501660E+03 -0.11085987661E+03  0.10475411401E+04  0.10963129602E+04  0.12467363379E+03 0.  0.
         23    2    1    2    0    0 -0.27699501660E+03  0.11085987661E+03  0.34070952380E+03  0.46201946499E+03  0.91448646536E+02 0.  0.
          5    1    3    3  502    0  0.82066472874E+02 -0.60856375539E+02  0.19346396447E+03  0.21883509764E+03  0.47000000000E+01 0. -1.
         -5    1    3    3    0  502  0.19492854373E+03 -0.50003501075E+02  0.85407717564E+03  0.87747786253E+03  0.47000000000E+01 0. -1.
        -11    1    4    4    0    0 -0.16500898359E+03  0.92230198721E+02  0.26519552967E+03  0.32567321533E+03  0.00000000000E+00 0. -1.
         11    1    4    4    0    0 -0.11198603301E+03  0.18629677894E+02  0.75513994130E+02  0.13634624966E+03  0.00000000000E+00 0.  1.
<mgrwt>
<rscale>  0 0.32049388E+03</rscale>
<asrwt>0</asrwt>
<pdfrwt beam="2">  1        1 0.13083213E-01 0.32335687E+03</pdfrwt>
<pdfrwt beam="1">  1       -1 0.22666022E+00 0.32335687E+03</pdfrwt>
<totfact> 0.49606606E+01</totfact>
</mgrwt>
</event>
<event>
 8    1  0.1020295E-005  0.1315759E+03  0.7546771E-02  0.1239379E+00
          3   -1    0    0  501    0  0.00000000000E+00  0.00000000000E+00  0.14581136405E+03  0.14581136405E+03  0.00000000000E+00 0. -1.
         -3   -1    0    0    0  501 -0.00000000000E+00 -0.00000000000E+00 -0.19233433330E+03  0.19233433330E+03  0.00000000000E+00 0.  1.
         23    2    1    2    0    0  0.37591985161E+01 -0.40900830393E+02 -0.14727057714E+03  0.19748632974E+03  0.12500087217E+03 0.  0.
         23    2    1    2    0    0 -0.37591985161E+01  0.40900830393E+02  0.10074760789E+03  0.14065936761E+03  0.89151375206E+02 0.  0.
          5    1    3    3  502    0  0.58781712030E+02 -0.41292923428E+02 -0.10771602176E+03  0.12955781156E+03  0.47000000000E+01 0. -1.
         -5    1    3    3    0  502 -0.55022513514E+02  0.39209303482E+00 -0.39554555382E+02  0.67928518178E+02  0.47000000000E+01 0. -1.
        -11    1    4    4    0    0 -0.29105584796E+02  0.43297514132E+02  0.10263129860E+03  0.11513033157E+03  0.00000000000E+00 0. -1.
         11    1    4    4    0    0  0.25346386280E+02 -0.23966837382E+01 -0.18836907072E+01  0.25529036039E+02  0.00000000000E+00 0.  1.
<mgrwt>
<rscale>  0 0.12228233E+03</rscale>
<asrwt>0</asrwt>
<pdfrwt beam="1">  1        3 0.22432518E-01 0.13157594E+03</pdfrwt>
<pdfrwt beam="2">  1       -3 0.29589897E-01 0.13157594E+03</pdfrwt>
<totfact> 0.46527310E+02</totfact>
</mgrwt>
</event>
<event>
 8    1  0.1020295E-005  0.1352062E+03  0.7546771E-02  0.1232704E+00
          2   -1    0    0  501    0  0.00000000000E+00  0.00000000000E+00  0.51329100604E+02  0.51329100604E+02  0.00000000000E+00 0. -1.
         -2   -1    0    0    0  501 -0.00000000000E+00 -0.00000000000E+00 -0.28107863911E+03  0.28107863911E+03  0.00000000000E+00 0.  1.
         23    2    1    2    0    0 -0.19317637419E+02 -0.47787007859E+02 -0.14721558291E+03  0.19988285859E+03  0.12499584021E+03 0.  0.
         23    2    1    2    0    0  0.19317637419E+02  0.47787007859E+02 -0.82533955589E+02  0.13252488112E+03  0.89967889023E+02 0.  0.
          5    1    3    3  502    0 -0.32215583422E+02 -0.40690712496E+02 -0.25566994942E+00  0.52112697741E+02  0.47000000000E+01 0.  1.
         -5    1    3    3    0  502  0.12897946004E+02 -0.70962953623E+01 -0.14695991296E+03  0.14777016085E+03  0.47000000000E+01 0.  1.
        -11    1    4    4    0    0 -0.18179128692E+02  0.52899456348E+02 -0.75612225449E+02  0.94053398871E+02  0.00000000000E+00 0.  1.
         11    1    4    4    0    0  0.37496766111E+02 -0.51124484890E+01 -0.69217301406E+01  0.38471482250E+02  0.00000000000E+00 0. -1.
<mgrwt>
<rscale>  0 0.12652566E+03</rscale>
<asrwt>0</asrwt>
<pdfrwt beam="1">  1        2 0.78967845E-02 0.13520625E+03</pdfrwt>
<pdfrwt beam="2">  1       -2 0.43242869E-01 0.13520625E+03</pdfrwt>
<totfact> 0.42187311E+03</totfact>
</mgrwt>
</event>
<event>
 8    1  0.1020295E-005  0.1253152E+03  0.7546771E-02  0.1250219E+00
          2   -1    0    0  501    0  0.00000000000E+00  0.00000000000E+00  0.23278064101E+03  0.23278064101E+03  0.00000000000E+00 0. -1.
         -2   -1    0    0    0  501 -0.00000000000E+00 -0.00000000000E+00 -0.50492659446E+02  0.50492659446E+02  0.00000000000E+00 0.  1.
         23    2    1    2    0    0  0.62928698987E+01 -0.53570921187E+01  0.99564408441E+02  0.16005303498E+03  0.12504240853E+03 0.  0.
         23    2    1    2    0    0 -0.62928698987E+01  0.53570921187E+01  0.82723573123E+02  0.12322026548E+03  0.90949137580E+02 0.  0.
          5    1    3    3  502    0  0.63308039846E+02 -0.83849566202E+01  0.72387679241E+02  0.96645131862E+02  0.47000000000E+01 0. -1.
         -5    1    3    3    0  502 -0.57015169948E+02  0.30278645015E+01  0.27176729200E+02  0.63407903116E+02  0.47000000000E+01 0. -1.
        -11    1    4    4    0    0 -0.43653769907E+01  0.25476083111E+02 -0.10449915071E+02  0.27879886153E+02  0.00000000000E+00 0.  1.
         11    1    4    4    0    0 -0.19274929080E+01 -0.20118990992E+02  0.93173488194E+02  0.95340379324E+02  0.00000000000E+00 0. -1.
<mgrwt>
<rscale>  0 0.11578409E+03</rscale>
<asrwt>0</asrwt>
<pdfrwt beam="1">  1        2 0.35812406E-01 0.12531521E+03</pdfrwt>
<pdfrwt beam="2">  1       -2 0.77681016E-02 0.12531521E+03</pdfrwt>
<totfact> 0.13318781E+04</totfact>
</mgrwt>
</event>
<event>
 8    1  0.1020295E-005  0.1316185E+03  0.7546771E-02  0.1237972E+00
         -2   -1    0    0    0  501 -0.00000000000E+00  0.00000000000E+00  0.37490485865E+02  0.37490485865E+02  0.00000000000E+00 0.  1.
          2   -1    0    0  501    0  0.00000000000E+00 -0.00000000000E+00 -0.36088214935E+03  0.36088214935E+03  0.00000000000E+00 0. -1.
         23    2    1    2    0    0  0.15972198089E+02  0.37986329114E+02 -0.17710277249E+03  0.22065541738E+03  0.12500139553E+03 0.  0.
         23    2    1    2    0    0 -0.15972198089E+02 -0.37986329114E+02 -0.14628889100E+03  0.17771721784E+03  0.92113503762E+02 0.  0.
          5    1    3    3  502    0 -0.14243598566E+02 -0.41353473829E+02 -0.82219859969E+02  0.93247977303E+02  0.47000000000E+01 0.  1.
         -5    1    3    3    0  502  0.30215796655E+02  0.79339802943E+02 -0.94882912525E+02  0.12740744008E+03  0.47000000000E+01 0.  1.
        -11    1    4    4    0    0 -0.36516100943E+02  0.18300957656E+02 -0.64031907464E+02  0.75950219570E+02  0.00000000000E+00 0. -1.
         11    1    4    4    0    0  0.20543902854E+02 -0.56287286770E+02 -0.82256983531E+02  0.10176699827E+03  0.00000000000E+00 0.  1.
<mgrwt>
<rscale>  0 0.12316064E+03</rscale>
<asrwt>0</asrwt>
<pdfrwt beam="2">  1        2 0.55520332E-01 0.13161847E+03</pdfrwt>
<pdfrwt beam="1">  1       -2 0.57677669E-02 0.13161847E+03</pdfrwt>
<totfact> 0.13228369E+04</totfact>
</mgrwt>
</event>
<event>
 8    1  0.1020295E-005  0.1719977E+03  0.7546771E-02  0.1182290E+00
          2   -1    0    0  501    0  0.00000000000E+00  0.00000000000E+00  0.55889350776E+03  0.55889350776E+03  0.00000000000E+00 0. -1.
         -2   -1    0    0    0  501 -0.00000000000E+00 -0.00000000000E+00 -0.55547552521E+02  0.55547552521E+02  0.00000000000E+00 0.  1.
         23    2    1    2    0    0 -0.88771420493E+02  0.77969578604E+02  0.13956241724E+03  0.22149692905E+03  0.12499440382E+03 0.  0.
         23    2    1    2    0    0  0.88771420493E+02 -0.77969578604E+02  0.36378353800E+03  0.39294413124E+03  0.90038921976E+02 0.  0.
          5    1    3    3  502    0 -0.11992265536E+03  0.70094394130E+02  0.11974242139E+03  0.18345300444E+03  0.47000000000E+01 0.  1.
         -5    1    3    3    0  502  0.31151234866E+02  0.78751844742E+01  0.19819995853E+02  0.38043924611E+02  0.47000000000E+01 0.  1.
        -11    1    4    4    0    0 -0.69053911020E+01  0.13045288199E+02  0.21572497640E+02  0.26138795398E+02  0.00000000000E+00 0.  1.
         11    1    4    4    0    0  0.95676811595E+02 -0.91014866803E+02  0.34221104036E+03  0.36680533584E+03  0.00000000000E+00 0. -1.
<mgrwt>
<rscale>  0 0.16580936E+03</rscale>
<asrwt>0</asrwt>
<pdfrwt beam="1">  1        2 0.85983613E-01 0.17199774E+03</pdfrwt>
<pdfrwt beam="2">  1       -2 0.85457777E-02 0.17199774E+03</pdfrwt>
<totfact> 0.45672231E+03</totfact>
</mgrwt>
</event>
<event>
 8    1  0.1020295E-005  0.1385273E+03  0.7546771E-02  0.1226208E+00
          2   -1    0    0  501    0  0.00000000000E+00  0.00000000000E+00  0.88771345240E+02  0.88771345240E+02  0.00000000000E+00 0. -1.
         -2   -1    0    0    0  501 -0.00000000000E+00 -0.00000000000E+00 -0.17575430478E+03  0.17575430478E+03  0.00000000000E+00 0.  1.
         23    2    1    2    0    0  0.57600838961E+02  0.15551065835E+02 -0.60308320348E+02  0.15108572800E+03  0.12502044394E+03 0.  0.
         23    2    1    2    0    0 -0.57600838961E+02 -0.15551065835E+02 -0.26674639195E+02  0.11343992203E+03  0.92722096802E+02 0.  0.
          5    1    3    3  502    0 -0.23855462257E+02  0.44895044474E+02 -0.30087308994E+02  0.59261996763E+02  0.47000000000E+01 0. -1.
         -5    1    3    3    0  502  0.81456301218E+02 -0.29343978639E+02 -0.30221011354E+02  0.91823731234E+02  0.47000000000E+01 0. -1.
        -11    1    4    4    0    0 -0.38555344867E+02  0.98969982295E+01  0.29055994427E+02  0.49282004869E+02  0.00000000000E+00 0. -1.
         11    1    4    4    0    0 -0.19045494095E+02 -0.25448064065E+02 -0.55730633622E+02  0.64157917157E+02  0.00000000000E+00 0.  1.
<mgrwt>
<rscale>  0 0.13084439E+03</rscale>
<asrwt>0</asrwt>
<pdfrwt beam="1">  1        2 0.13657130E-01 0.13852727E+03</pdfrwt>
<pdfrwt beam="2">  1       -2 0.27039123E-01 0.13852727E+03</pdfrwt>
<totfact> 0.51367862E+03</totfact>
</mgrwt>
</event>
<event>
 8    1  0.1020295E-005  0.1625969E+03  0.7546771E-02  0.1193510E+00
         -1   -1    0    0    0  501 -0.00000000000E+00  0.00000000000E+00  0.58290743271E+02  0.58290743271E+02  0.00000000000E+00 0.  1.
          1   -1    0    0  501    0  0.00000000000E+00 -0.00000000000E+00 -0.47587733787E+03  0.47587733787E+03  0.00000000000E+00 0. -1.
         23    2    1    2    0    0 -0.91450943103E+02 -0.49544206579E+02 -0.10694193652E+03  0.19461325530E+03  0.12497935010E+03 0.  0.
         23    2    1    2    0    0  0.91450943103E+02  0.49544206579E+02 -0.31064465808E+03  0.33955482584E+03  0.89327894649E+02 0.  0.
          5    1    3    3  502    0 -0.14343544063E+02  0.73181049662E+01  0.25840734055E+02  0.30807879724E+02  0.47000000000E+01 0.  1.
         -5    1    3    3    0  502 -0.77107399040E+02 -0.56862311545E+02 -0.13278267058E+03  0.16380537557E+03  0.47000000000E+01 0.  1.
        -11    1    4    4    0    0  0.93648789990E+02  0.25359382241E+02 -0.29529670441E+03  0.31082686140E+03  0.00000000000E+00 0. -1.
         11    1    4    4    0    0 -0.21978468866E+01  0.24184824338E+02 -0.15347953667E+02  0.28727964441E+02  0.00000000000E+00 0.  1.
<mgrwt>
<rscale>  0 0.15581034E+03</rscale>
<asrwt>0</asrwt>
<pdfrwt beam="2">  1        1 0.73211897E-01 0.16259687E+03</pdfrwt>
<pdfrwt beam="1">  1       -1 0.89678068E-02 0.16259687E+03</pdfrwt>
<totfact> 0.34069121E+03</totfact>
</mgrwt>
</event>
<event>
 8    1  0.1020295E-005  0.1433492E+03  0.7546771E-02  0.1220054E+00
          2   -1    0    0  501    0  0.00000000000E+00  0.00000000000E+00  0.15823687138E+03  0.15823687138E+03  0.00000000000E+00 0. -1.
         -2   -1    0    0    0  501 -0.00000000000E+00 -0.00000000000E+00 -0.15936912360E+03  0.15936912360E+03  0.00000000000E+00 0.  1.
         23    2    1    2    0    0  0.20275426375E+02 -0.67159539508E+02 -0.93834090716E+02  0.17132962598E+03  0.12501002958E+03 0.  0.
         23    2    1    2    0    0 -0.20275426375E+02  0.67159539508E+02  0.92701838498E+02  0.14627636900E+03  0.88778649497E+02 0.  0.
          5    1    3    3  502    0  0.48776413754E+02 -0.65169759679E+02 -0.94100852071E+01  0.82078473541E+02  0.47000000000E+01 0.  1.
         -5    1    3    3    0  502 -0.28500987379E+02 -0.19897798298E+01 -0.84424005508E+02  0.89251152438E+02  0.47000000000E+01 0.  1.
        -11    1    4    4    0    0 -0.53226720455E+02  0.41053237053E+02  0.37770365280E+02  0.77104166789E+02  0.00000000000E+00 0. -1.
         11    1    4    4    0    0  0.32951294080E+02  0.26106302456E+02  0.54931473217E+02  0.69172202215E+02  0.00000000000E+00 0.  1.
<mgrwt>
<rscale>  0 0.13511735E+03</rscale>
<asrwt>0</asrwt>
<pdfrwt beam="1">  1        2 0.24344134E-01 0.14334924E+03</pdfrwt>
<pdfrwt beam="2">  1       -2 0.24518327E-01 0.14334924E+03</pdfrwt>
<totfact> 0.31529172E+03</totfact>
</mgrwt>
</event>
<event>
 8    1  0.1020295E-005  0.1391990E+03  0.7546771E-02  0.1226110E+00
          2   -1    0    0  501    0  0.00000000000E+00  0.00000000000E+00  0.73765352936E+03  0.73765352936E+03  0.00000000000E+00 0. -1.
         -2   -1    0    0    0  501 -0.00000000000E+00 -0.00000000000E+00 -0.21881361800E+02  0.21881361800E+02  0.00000000000E+00 0.  1.
         23    2    1    2    0    0 -0.12749671741E+02  0.59958110253E+02  0.31809544716E+03  0.34721907840E+03  0.12497538073E+03 0.  0.
         23    2    1    2    0    0  0.12749671741E+02 -0.59958110253E+02  0.39767672040E+03  0.41231581276E+03  0.90000146597E+02 0.  0.
          5    1    3    3  502    0 -0.17569349023E+02  0.95441969473E+02  0.18079791728E+03  0.20525064788E+03  0.47000000000E+01 0.  1.
         -5    1    3    3    0  502  0.48196772819E+01 -0.35483859220E+02  0.13729752988E+03  0.14196843052E+03  0.47000000000E+01 0.  1.
        -11    1    4    4    0    0  0.46961378590E+02 -0.13350012818E+02  0.22433818996E+03  0.22958923624E+03  0.00000000000E+00 0. -1.
         11    1    4    4    0    0 -0.34211706849E+02 -0.46608097435E+02  0.17333853044E+03  0.18272657652E+03  0.00000000000E+00 0.  1.
<mgrwt>
<rscale>  0 0.13091114E+03</rscale>
<asrwt>0</asrwt>
<pdfrwt beam="1">  1        2 0.11348514E+00 0.13919905E+03</pdfrwt>
<pdfrwt beam="2">  1       -2 0.33663639E-02 0.13919905E+03</pdfrwt>
<totfact> 0.13384898E+04</totfact>
</mgrwt>
</event>
<event>
 8    1  0.1020295E-005  0.1259169E+03  0.7546771E-02  0.1244187E+00
          1   -1    0    0  501    0  0.00000000000E+00  0.00000000000E+00  0.78745889365E+02  0.78745889365E+02  0.00000000000E+00 0. -1.
         -1   -1    0    0    0  501 -0.00000000000E+00 -0.00000000000E+00 -0.17397662581E+03  0.17397662581E+03  0.00000000000E+00 0.  1.
         23    2    1    2    0    0 -0.42063315180E+02  0.39373822033E+00 -0.81988321130E+02  0.15025692589E+03  0.11868269235E+03 0.  0.
         23    2    1    2    0    0  0.42063315180E+02 -0.39373822033E+00 -0.13242415316E+02  0.10246558928E+03  0.92489771920E+02 0.  0.
          5    1    3    3  502    0 -0.45287952313E+02 -0.54321373492E+02 -0.44638947864E+02  0.83764765320E+02  0.47000000000E+01 0. -1.
         -5    1    3    3    0  502  0.32246371338E+01  0.54715111712E+02 -0.37349373266E+02  0.66492160574E+02  0.47000000000E+01 0.  1.
        -11    1    4    4    0    0 -0.33731116534E+01  0.40120802128E+02 -0.47537635957E+00  0.40265154020E+02  0.00000000000E+00 0.  1.
         11    1    4    4    0    0  0.45436426833E+02 -0.40514540348E+02 -0.12767038957E+02  0.62200435261E+02  0.00000000000E+00 0. -1.
<mgrwt>
<rscale>  0 0.11934194E+03</rscale>
<asrwt>0</asrwt>
<pdfrwt beam="1">  1        1 0.12114752E-01 0.12591687E+03</pdfrwt>
<pdfrwt beam="2">  1       -1 0.26765634E-01 0.12591687E+03</pdfrwt>
<totfact> 0.58145233E+03</totfact>
</mgrwt>
</event>
<event>
 8    1  0.1020295E-005  0.1253480E+03  0.7546771E-02  0.1250080E+00
          2   -1    0    0  501    0  0.00000000000E+00  0.00000000000E+00  0.81528769717E+03  0.81528769717E+03  0.00000000000E+00 0. -1.
         -2   -1    0    0    0  501 -0.00000000000E+00 -0.00000000000E+00 -0.15152439728E+02  0.15152439728E+02  0.00000000000E+00 0.  1.
         23    2    1    2    0    0 -0.21572398202E+01 -0.98959030089E+01  0.54972859964E+03  0.56383832886E+03  0.12493816571E+03 0.  0.
         23    2    1    2    0    0  0.21572398202E+01  0.98959030089E+01  0.25040665780E+03  0.26660180803E+03  0.90941999083E+02 0.  0.
          5    1    3    3  502    0  0.60958757550E+02 -0.69834050115E+01  0.24694060963E+03  0.25449261827E+03  0.47000000000E+01 0. -1.
         -5    1    3    3    0  502 -0.63115997370E+02 -0.29124979974E+01  0.30278799000E+03  0.30934571059E+03  0.47000000000E+01 0. -1.
        -11    1    4    4    0    0  0.39161320029E+02  0.26372800158E+02  0.96166232399E+02  0.10713112446E+03  0.00000000000E+00 0.  1.
         11    1    4    4    0    0 -0.37004080209E+02 -0.16476897149E+02  0.15424042540E+03  0.15947068357E+03  0.00000000000E+00 0. -1.
<mgrwt>
<rscale>  0 0.11586398E+03</rscale>
<asrwt>0</asrwt>
<pdfrwt beam="1">  1        2 0.12542884E+00 0.12534803E+03</pdfrwt>
<pdfrwt beam="2">  1       -2 0.23311452E-02 0.12534803E+03</pdfrwt>
<totfact> 0.20124535E+04</totfact>
</mgrwt>
</event>
<event>
 8    1  0.1020295E-005  0.1372328E+03  0.7546771E-02  0.1228793E+00
          1   -1    0    0  501    0  0.00000000000E+00  0.00000000000E+00  0.11918187127E+04  0.11918187127E+04  0.00000000000E+00 0. -1.
         -1   -1    0    0    0  501 -0.00000000000E+00 -0.00000000000E+00 -0.12830388529E+02  0.12830388529E+02  0.00000000000E+00 0.  1.
         23    2    1    2    0    0 -0.31510669441E+02  0.47062359150E+02  0.74601402857E+03  0.75853132552E+03  0.12500021210E+03 0.  0.
         23    2    1    2    0    0  0.31510669441E+02 -0.47062359150E+02  0.43297429556E+03  0.44611777567E+03  0.91359406850E+02 0.  0.
          5    1    3    3  502    0 -0.68418679471E+02  0.13486617738E+02  0.23798057545E+03  0.24803195126E+03  0.47000000000E+01 0. -1.
         -5    1    3    3    0  502  0.36908010030E+02  0.33575741413E+02  0.50803345313E+03  0.51049937425E+03  0.47000000000E+01 0. -1.
        -11    1    4    4    0    0  0.61454108368E+02 -0.16481172698E+02  0.28875120951E+03  0.29567803010E+03  0.00000000000E+00 0.  1.
         11    1    4    4    0    0 -0.29943438927E+02 -0.30581186452E+02  0.14422308604E+03  0.15043974557E+03  0.00000000000E+00 0. -1.
<mgrwt>
<rscale>  0 0.12910306E+03</rscale>
<asrwt>0</asrwt>
<pdfrwt beam="1">  1        1 0.18335664E+00 0.13723280E+03</pdfrwt>
<pdfrwt beam="2">  1       -1 0.19739069E-02 0.13723280E+03</pdfrwt>
<totfact> 0.78855095E+03</totfact>
</mgrwt>
</event>
<event>
 8    1  0.1020295E-005  0.1664419E+03  0.7546771E-02  0.1186379E+00
         -3   -1    0    0    0  501 -0.00000000000E+00  0.00000000000E+00  0.40029647575E+03  0.40029647575E+03  0.00000000000E+00 0.  1.
          3   -1    0    0  501    0  0.00000000000E+00 -0.00000000000E+00 -0.69830942882E+02  0.69830942882E+02  0.00000000000E+00 0. -1.
         23    2    1    2    0    0 -0.33996715556E+01 -0.10985981683E+03  0.24970001040E+03  0.30008834853E+03  0.12498873794E+03 0.  0.
         23    2    1    2    0    0  0.33996715556E+01  0.10985981683E+03  0.80765522470E+02  0.17003907010E+03  0.10153560273E+03 0.  0.
          5    1    3    3  502    0  0.68682930873E+01 -0.13580447167E+03  0.22272261149E+03  0.26099325594E+03  0.47000000000E+01 0.  1.
         -5    1    3    3    0  502 -0.10267964643E+02  0.25944654846E+02  0.26977398911E+02  0.39095092595E+02  0.47000000000E+01 0.  1.
        -11    1    4    4    0    0 -0.12573615509E+02  0.11120572685E+02 -0.21309620621E+02  0.27126792564E+02  0.00000000000E+00 0. -1.
         11    1    4    4    0    0  0.15973287065E+02  0.98739244143E+02  0.10207514309E+03  0.14291227754E+03  0.00000000000E+00 0.  1.
<mgrwt>
<rscale>  0 0.16207065E+03</rscale>
<asrwt>0</asrwt>
<pdfrwt beam="2">  1        3 0.10743222E-01 0.16644195E+03</pdfrwt>
<pdfrwt beam="1">  1       -3 0.61584072E-01 0.16644195E+03</pdfrwt>
<totfact> 0.40740309E+02</totfact>
</mgrwt>
</event>
<event>
 8    1  0.1020295E-005  0.2955469E+03  0.7546771E-02  0.1089150E+00
         -2   -1    0    0    0  501 -0.00000000000E+00  0.00000000000E+00  0.16302425087E+03  0.16302425087E+03  0.00000000000E+00 0.  1.
          2   -1    0    0  501    0  0.00000000000E+00 -0.00000000000E+00 -0.86813431777E+03  0.86813431777E+03  0.00000000000E+00 0. -1.
         23    2    1    2    0    0 -0.95452854893E+02 -0.25022204479E+03 -0.27407905560E+02  0.29681504820E+03  0.12500264135E+03 0.  0.
         23    2    1    2    0    0  0.95452854893E+02  0.25022204479E+03 -0.67770216134E+03  0.73434352043E+03  0.90872808404E+02 0.  0.
          5    1    3    3  502    0 -0.55792460028E+02 -0.23394666622E+03 -0.53470843391E+02  0.24642455707E+03  0.47000000000E+01 0. -1.
         -5    1    3    3    0  502 -0.39660394864E+02 -0.16275378572E+02  0.26062937831E+02  0.50390491135E+02  0.47000000000E+01 0. -1.
        -11    1    4    4    0    0  0.35164788638E+02  0.45769897874E+02 -0.24863409742E+03  0.25524568618E+03  0.00000000000E+00 0. -1.
         11    1    4    4    0    0  0.60288066255E+02  0.20445214692E+03 -0.42906806392E+03  0.47909783426E+03  0.00000000000E+00 0.  1.
<mgrwt>
<rscale>  0 0.29230929E+03</rscale>
<asrwt>0</asrwt>
<pdfrwt beam="2">  1        2 0.13355913E+00 0.29554692E+03</pdfrwt>
<pdfrwt beam="1">  1       -2 0.25080654E-01 0.29554692E+03</pdfrwt>
<totfact> 0.45242648E+02</totfact>
</mgrwt>
</event>
<event>
 8    1  0.1020295E-005  0.1255070E+03  0.7546771E-02  0.1247897E+00
          2   -1    0    0  501    0  0.00000000000E+00  0.00000000000E+00  0.91157184712E+02  0.91157184712E+02  0.00000000000E+00 0. -1.
         -2   -1    0    0    0  501 -0.00000000000E+00 -0.00000000000E+00 -0.13787282958E+03  0.13787282958E+03  0.00000000000E+00 0.  1.
         23    2    1    2    0    0 -0.10358703484E+02  0.47409276222E+01 -0.46374289131E+02  0.13380050020E+03  0.12498887962E+03 0.  0.
         23    2    1    2    0    0  0.10358703484E+02 -0.47409276222E+01 -0.34135573957E+00  0.95229514096E+02  0.94545040582E+02 0.  0.
          5    1    3    3  502    0  0.17045323443E+02 -0.33057657811E+02 -0.71383065165E+02  0.80628678419E+02  0.47000000000E+01 0. -1.
         -5    1    3    3    0  502 -0.27404026927E+02  0.37798585434E+02  0.25008776034E+02  0.53171821779E+02  0.47000000000E+01 0. -1.
        -11    1    4    4    0    0  0.34664692238E+02 -0.79010285529E+01 -0.36882820493E+02  0.51228991672E+02  0.00000000000E+00 0.  1.
         11    1    4    4    0    0 -0.24305988755E+02  0.31601009308E+01  0.36541464754E+02  0.44000522424E+02  0.00000000000E+00 0. -1.
<mgrwt>
<rscale>  0 0.11713672E+03</rscale>
<asrwt>0</asrwt>
<pdfrwt beam="1">  1        2 0.14024182E-01 0.12550697E+03</pdfrwt>
<pdfrwt beam="2">  1       -2 0.21211204E-01 0.12550697E+03</pdfrwt>
<totfact> 0.75304040E+03</totfact>
</mgrwt>
</event>
<event>
 8    1  0.1020295E-005  0.1572194E+03  0.7546771E-02  0.1199246E+00
          1   -1    0    0  501    0  0.00000000000E+00  0.00000000000E+00  0.52883914608E+03  0.52883914608E+03  0.00000000000E+00 0. -1.
         -1   -1    0    0    0  501 -0.00000000000E+00 -0.00000000000E+00 -0.40647493267E+02  0.40647493267E+02  0.00000000000E+00 0.  1.
         23    2    1    2    0    0 -0.95312737708E+02  0.30081672881E+01  0.22857832686E+03  0.27742746105E+03  0.12499751036E+03 0.  0.
         23    2    1    2    0    0  0.95312737708E+02 -0.30081672881E+01  0.25961332595E+03  0.29205917829E+03  0.93839850673E+02 0.  0.
          5    1    3    3  502    0  0.22889837143E+01 -0.28140972630E+02  0.13691631244E+03  0.13987608945E+03  0.47000000000E+01 0.  1.
         -5    1    3    3    0  502 -0.97601721422E+02  0.31149139918E+02  0.91662014415E+02  0.13755137160E+03  0.47000000000E+01 0.  1.
        -11    1    4    4    0    0  0.19388150213E+02 -0.28536429098E+02  0.21066958376E+02  0.40423321110E+02  0.00000000000E+00 0.  1.
         11    1    4    4    0    0  0.75924587495E+02  0.25528261810E+02  0.23854636758E+03  0.25163585719E+03  0.00000000000E+00 0. -1.
<mgrwt>
<rscale>  0 0.15100270E+03</rscale>
<asrwt>0</asrwt>
<pdfrwt beam="1">  1        1 0.81359864E-01 0.15721942E+03</pdfrwt>
<pdfrwt beam="2">  1       -1 0.62534609E-02 0.15721942E+03</pdfrwt>
<totfact> 0.51054013E+03</totfact>
</mgrwt>
</event>
<event>
 8    1  0.1020295E-005  0.3569385E+03  0.7546771E-02  0.1060852E+00
          2   -1    0    0  501    0  0.00000000000E+00  0.00000000000E+00  0.10469623868E+04  0.10469623868E+04  0.00000000000E+00 0. -1.
         -2   -1    0    0    0  501 -0.00000000000E+00 -0.00000000000E+00 -0.14288222278E+03  0.14288222278E+03  0.00000000000E+00 0.  1.
         23    2    1    2    0    0 -0.14104980283E+03  0.30312541754E+03  0.21026221585E+03  0.41426475716E+03  0.12500009590E+03 0.  0.
         23    2    1    2    0    0  0.14104980283E+03 -0.30312541754E+03  0.69381794812E+03  0.77557985238E+03  0.91436845099E+02 0.  0.
          5    1    3    3  502    0 -0.98580146191E+02  0.21170458796E+03  0.74633399317E+02  0.24521238158E+03  0.47000000000E+01 0.  1.
         -5    1    3    3    0  502 -0.42469656641E+02  0.91420829579E+02  0.13562881653E+03  0.16905237558E+03  0.47000000000E+01 0.  1.
        -11    1    4    4    0    0  0.37387322768E+02 -0.10672994558E+03  0.14759802605E+03  0.18594157814E+03  0.00000000000E+00 0.  1.
         11    1    4    4    0    0  0.10366248006E+03 -0.19639547196E+03  0.54621992207E+03  0.58963827424E+03  0.00000000000E+00 0. -1.
<mgrwt>
<rscale>  0 0.35432871E+03</rscale>
<asrwt>0</asrwt>
<pdfrwt beam="1">  1        2 0.16107113E+00 0.35693850E+03</pdfrwt>
<pdfrwt beam="2">  1       -2 0.21981881E-01 0.35693850E+03</pdfrwt>
<totfact> 0.43749827E+02</totfact>
</mgrwt>
</event>
<event>
 8    1  0.1020295E-005  0.1401982E+03  0.7546771E-02  0.1224256E+00
          1   -1    0    0  501    0  0.00000000000E+00  0.00000000000E+00  0.90505657029E+03  0.90505657029E+03  0.00000000000E+00 0. -1.
         -1   -1    0    0    0  501 -0.00000000000E+00 -0.00000000000E+00 -0.17627938454E+02  0.17627938454E+02  0.00000000000E+00 0.  1.
         23    2    1    2    0    0  0.63468265141E+02 -0.48795935121E+00  0.44280756239E+03  0.46447182227E+03  0.12500831009E+03 0.  0.
         23    2    1    2    0    0 -0.63468265141E+02  0.48795935121E+00  0.44462106945E+03  0.45821268647E+03  0.90788280431E+02 0.  0.
          5    1    3    3  502    0  0.52436598143E+02 -0.34152619011E+02  0.89199542449E+02  0.10906258104E+03  0.47000000000E+01 0.  1.
         -5    1    3    3    0  502  0.11031666998E+02  0.33664659660E+02  0.35360801994E+03  0.35540924123E+03  0.47000000000E+01 0.  1.
        -11    1    4    4    0    0 -0.94367762426E+01 -0.34498007505E+02  0.75768712573E+02  0.83785816656E+02  0.00000000000E+00 0. -1.
         11    1    4    4    0    0 -0.54031488899E+02  0.34985966856E+02  0.36885235687E+03  0.37442686982E+03  0.00000000000E+00 0.  1.
<mgrwt>
<rscale>  0 0.13218029E+03</rscale>
<asrwt>0</asrwt>
<pdfrwt beam="1">  1        1 0.13923944E+00 0.14019820E+03</pdfrwt>
<pdfrwt beam="2">  1       -1 0.27119912E-02 0.14019820E+03</pdfrwt>
<totfact> 0.80221706E+03</totfact>
</mgrwt>
</event>
<event>
 8    1  0.1020295E-005  0.1626918E+03  0.7546771E-02  0.1193080E+00
         -2   -1    0    0    0  501 -0.00000000000E+00  0.00000000000E+00  0.55602767112E+02  0.55602767112E+02  0.00000000000E+00 0.  1.
          2   -1    0    0  501    0  0.00000000000E+00 -0.00000000000E+00 -0.42424378220E+03  0.42424378220E+03  0.00000000000E+00 0. -1.
         23    2    1    2    0    0 -0.42549314067E+02  0.95039001002E+02 -0.15047170268E+03  0.22160856140E+03  0.12500306131E+03 0.  0.
         23    2    1    2    0    0  0.42549314067E+02 -0.95039001002E+02 -0.21816931241E+03  0.25823798792E+03  0.90808334899E+02 0.  0.
          5    1    3    3  502    0  0.70556394405E+01  0.25161028600E+02 -0.13092132747E+03  0.13358646411E+03  0.47000000000E+01 0.  1.
         -5    1    3    3    0  502 -0.49604953507E+02  0.69877972402E+02 -0.19550375213E+02  0.88022097285E+02  0.47000000000E+01 0.  1.
        -11    1    4    4    0    0  0.49733591745E+02 -0.75889376212E+01 -0.84488452874E+02  0.98332704586E+02  0.00000000000E+00 0.  1.
         11    1    4    4    0    0 -0.71842776786E+01 -0.87450063381E+02 -0.13368085954E+03  0.15990528333E+03  0.00000000000E+00 0. -1.
<mgrwt>
<rscale>  0 0.15617883E+03</rscale>
<asrwt>0</asrwt>
<pdfrwt beam="2">  1        2 0.65268275E-01 0.16269180E+03</pdfrwt>
<pdfrwt beam="1">  1       -2 0.85542718E-02 0.16269180E+03</pdfrwt>
<totfact> 0.61644909E+03</totfact>
</mgrwt>
</event>
<event>
 8    1  0.1020295E-005  0.1523018E+03  0.7546771E-02  0.1206380E+00
         -2   -1    0    0    0  501 -0.00000000000E+00  0.00000000000E+00  0.27487985937E+03  0.27487985937E+03  0.00000000000E+00 0.  1.
          2   -1    0    0  501    0  0.00000000000E+00 -0.00000000000E+00 -0.86273457059E+02  0.86273457059E+02  0.00000000000E+00 0. -1.
         23    2    1    2    0    0  0.64464415492E+02  0.58454953210E+02  0.17844623086E+03  0.23460368708E+03  0.12499276084E+03 0.  0.
         23    2    1    2    0    0 -0.64464415492E+02 -0.58454953210E+02  0.10160171453E+02  0.12654962935E+03  0.91317781325E+02 0.  0.
          5    1    3    3  502    0 -0.10362674334E+02  0.43327790160E+02  0.14383883625E+03  0.15065318860E+03  0.47000000000E+01 0. -1.
         -5    1    3    3    0  502  0.74827089826E+02  0.15127163051E+02  0.34607394609E+02  0.83950498482E+02  0.47000000000E+01 0. -1.
        -11    1    4    4    0    0  0.10206202733E+02 -0.19173663160E+02  0.32664805038E+02  0.39227355523E+02  0.00000000000E+00 0.  1.
         11    1    4    4    0    0 -0.74670618225E+02 -0.39281290050E+02 -0.22504633585E+02  0.87322273830E+02  0.00000000000E+00 0. -1.
<mgrwt>
<rscale>  0 0.14529240E+03</rscale>
<asrwt>0</asrwt>
<pdfrwt beam="2">  1        2 0.13272840E-01 0.15230178E+03</pdfrwt>
<pdfrwt beam="1">  1       -2 0.42289209E-01 0.15230178E+03</pdfrwt>
<totfact> 0.23470091E+03</totfact>
</mgrwt>
</event>
<event>
 8    1  0.1020295E-005  0.2074837E+03  0.7546771E-02  0.1147398E+00
         -3   -1    0    0    0  501 -0.00000000000E+00  0.00000000000E+00  0.22050084153E+03  0.22050084153E+03  0.00000000000E+00 0.  1.
          3   -1    0    0  501    0  0.00000000000E+00 -0.00000000000E+00 -0.21519083757E+03  0.21519083757E+03  0.00000000000E+00 0. -1.
         23    2    1    2    0    0  0.50605490364E+02 -0.15768490415E+03  0.92548287068E+02  0.22718859926E+03  0.12499611811E+03 0.  0.
         23    2    1    2    0    0 -0.50605490364E+02  0.15768490415E+03 -0.87238283115E+02  0.20850307984E+03  0.91856255143E+02 0.  0.
          5    1    3    3  502    0  0.99949433974E+01 -0.66203702362E+02  0.10663814191E+03  0.12600243017E+03  0.47000000000E+01 0. -1.
         -5    1    3    3    0  502  0.40610546966E+02 -0.91481201788E+02 -0.14089854839E+02  0.10118616909E+03  0.47000000000E+01 0. -1.
        -11    1    4    4    0    0 -0.57236698190E+02  0.10675311737E+03 -0.98260068118E+02  0.15597214070E+03  0.00000000000E+00 0. -1.
         11    1    4    4    0    0  0.66312078265E+01  0.50931786784E+02  0.11021785003E+02  0.52530939140E+02  0.00000000000E+00 0.  1.
<mgrwt>
<rscale>  0 0.20280039E+03</rscale>
<asrwt>0</asrwt>
<pdfrwt beam="2">  1        3 0.33106282E-01 0.20748367E+03</pdfrwt>
<pdfrwt beam="1">  1       -3 0.33923207E-01 0.20748367E+03</pdfrwt>
<totfact> 0.18636258E+02</totfact>
</mgrwt>
</event>
<event>
 8    1  0.1020295E-005  0.1295585E+03  0.7546771E-02  0.1231507E+00
         -1   -1    0    0    0  501 -0.00000000000E+00  0.00000000000E+00  0.38951029641E+02  0.38951029641E+02  0.00000000000E+00 0.  1.
          1   -1    0    0  501    0  0.00000000000E+00 -0.00000000000E+00 -0.42972210987E+03  0.42972210987E+03  0.00000000000E+00 0. -1.
         23    2    1    2    0    0 -0.57111800918E+02  0.12260096932E+02 -0.14257945362E+03  0.19265071061E+03  0.11564310581E+03 0.  0.
         23    2    1    2    0    0  0.57111800918E+02 -0.12260096932E+02 -0.24819162661E+03  0.27602242890E+03  0.10572241937E+03 0.  0.
          5    1    3    3  502    0  0.24385539884E+02  0.33847976354E+02 -0.28584427347E+02  0.50788773813E+02  0.47000000000E+01 0. -1.
         -5    1    3    3    0  502 -0.81497340803E+02 -0.21587879422E+02 -0.11399502627E+03  0.14186193679E+03  0.47000000000E+01 0.  1.
        -11    1    4    4    0    0  0.30142160390E+02  0.45387619754E+02 -0.14359713309E+03  0.15358620540E+03  0.00000000000E+00 0. -1.
         11    1    4    4    0    0  0.26969640529E+02 -0.57647716686E+02 -0.10459449353E+03  0.12243622350E+03  0.00000000000E+00 0.  1.
<mgrwt>
<rscale>  0 0.12730740E+03</rscale>
<asrwt>0</asrwt>
<pdfrwt beam="2">  1        1 0.66111095E-01 0.12955846E+03</pdfrwt>
<pdfrwt beam="1">  1       -1 0.59924660E-02 0.12955846E+03</pdfrwt>
<totfact> 0.70428264E+03</totfact>
</mgrwt>
</event>
<event>
 8    1  0.1020295E-005  0.1757141E+03  0.7546771E-02  0.1177749E+00
         -2   -1    0    0    0  501 -0.00000000000E+00  0.00000000000E+00  0.55312599689E+02  0.55312599689E+02  0.00000000000E+00 0. -1.
          2   -1    0    0  501    0  0.00000000000E+00 -0.00000000000E+00 -0.49257722464E+03  0.49257722464E+03  0.00000000000E+00 0.  1.
         23    2    1    2    0    0  0.27658897326E+02  0.12036000511E+03 -0.24019410727E+03  0.29760484575E+03  0.12499555838E+03 0.  0.
         23    2    1    2    0    0 -0.27658897326E+02 -0.12036000511E+03 -0.19707051769E+03  0.25028497859E+03  0.92489113582E+02 0.  0.
          5    1    3    3  502    0 -0.49225699494E+02  0.53339285450E+02 -0.85493535949E+02  0.11224742114E+03  0.47000000000E+01 0.  1.
         -5    1    3    3    0  502  0.76884596819E+02  0.67020719662E+02 -0.15470057132E+03  0.18535742461E+03  0.47000000000E+01 0.  1.
        -11    1    4    4    0    0 -0.36074712248E+02 -0.95919209674E+02 -0.78935267729E+02  0.12935476852E+03  0.00000000000E+00 0. -1.
         11    1    4    4    0    0  0.84158149223E+01 -0.24440795439E+02 -0.11813524996E+03  0.12093021006E+03  0.00000000000E+00 0.  1.
<mgrwt>
<rscale>  0 0.17009448E+03</rscale>
<asrwt>0</asrwt>
<pdfrwt beam="2">  1        2 0.75781108E-01 0.17571407E+03</pdfrwt>
<pdfrwt beam="1">  1       -2 0.85096311E-02 0.17571407E+03</pdfrwt>
<totfact> 0.52996654E+03</totfact>
</mgrwt>
</event>
<event>
 8    1  0.1020295E-005  0.2085870E+03  0.7546771E-02  0.1144873E+00
         -2   -1    0    0    0  501 -0.00000000000E+00  0.00000000000E+00  0.80529789176E+02  0.80529789176E+02  0.00000000000E+00 0.  1.
          2   -1    0    0  501    0  0.00000000000E+00 -0.00000000000E+00 -0.86785060994E+03  0.86785060994E+03  0.00000000000E+00 0. -1.
         23    2    1    2    0    0 -0.14569322711E+03  0.81588605150E+02 -0.96632284805E+02  0.22988332088E+03  0.12500130334E+03 0.  0.
         23    2    1    2    0    0  0.14569322711E+03 -0.81588605150E+02 -0.69068853596E+03  0.71849707823E+03  0.10632112117E+03 0.  0.
          5    1    3    3  502    0 -0.71026617966E+02  0.10707106995E+03 -0.48934117456E+02  0.13757046315E+03  0.47000000000E+01 0. -1.
         -5    1    3    3    0  502 -0.74666609146E+02 -0.25482464804E+02 -0.47698167349E+02  0.92312857730E+02  0.47000000000E+01 0. -1.
        -11    1    4    4    0    0  0.61608959805E+02  0.15020282234E+02 -0.32231458521E+03  0.32849347733E+03  0.00000000000E+00 0. -1.
         11    1    4    4    0    0  0.84084267308E+02 -0.96608887384E+02 -0.36837395075E+03  0.39000360091E+03  0.00000000000E+00 0.  1.
<mgrwt>
<rscale>  0 0.20587744E+03</rscale>
<asrwt>0</asrwt>
<pdfrwt beam="2">  1        2 0.13351548E+00 0.20858701E+03</pdfrwt>
<pdfrwt beam="1">  1       -2 0.12389199E-01 0.20858701E+03</pdfrwt>
<totfact> 0.14955714E+03</totfact>
</mgrwt>
</event>
<event>
 8    1  0.1020295E-005  0.1340882E+03  0.7546771E-02  0.1236666E+00
          2   -1    0    0  501    0  0.00000000000E+00  0.00000000000E+00  0.78954533288E+03  0.78954533288E+03  0.00000000000E+00 0. -1.
         -2   -1    0    0    0  501 -0.00000000000E+00 -0.00000000000E+00 -0.19510485784E+02  0.19510485784E+02  0.00000000000E+00 0.  1.
         23    2    1    2    0    0  0.44184405495E+02 -0.20027581623E+02  0.57923948942E+03  0.59455700889E+03  0.12500513992E+03 0.  0.
         23    2    1    2    0    0 -0.44184405495E+02  0.20027581623E+02  0.19079535768E+03  0.21449880977E+03  0.85167512396E+02 0.  0.
          5    1    3    3  502    0  0.52236511506E+02  0.81934140945E+01  0.55102626620E+03  0.55357729471E+03  0.47000000000E+01 0. -1.
         -5    1    3    3    0  502 -0.80521060118E+01 -0.28220995717E+02  0.28213223216E+02  0.40979714186E+02  0.47000000000E+01 0. -1.
        -11    1    4    4    0    0 -0.85213775974E+00  0.45253049349E+02  0.66203955841E+02  0.80196810305E+02  0.00000000000E+00 0. -1.
         11    1    4    4    0    0 -0.43332267735E+02 -0.25225467727E+02  0.12459140184E+03  0.13430199947E+03  0.00000000000E+00 0.  1.
<mgrwt>
<rscale>  0 0.12398402E+03</rscale>
<asrwt>0</asrwt>
<pdfrwt beam="1">  1        2 0.12146849E+00 0.13408822E+03</pdfrwt>
<pdfrwt beam="2">  1       -2 0.30016138E-02 0.13408822E+03</pdfrwt>
<totfact> 0.14546763E+04</totfact>
</mgrwt>
</event>
<event>
 8    1  0.1020295E-005  0.1156168E+03  0.7546771E-02  0.1262203E+00
         -1   -1    0    0    0  501 -0.00000000000E+00  0.00000000000E+00  0.94005509316E+03  0.94005509316E+03  0.00000000000E+00 0.  1.
          1   -1    0    0  501    0  0.00000000000E+00 -0.00000000000E+00 -0.23398451120E+02  0.23398451120E+02  0.00000000000E+00 0. -1.
         23    2    1    2    0    0  0.94581548582E+01  0.90465184198E+00  0.82744170430E+03  0.83548011916E+03  0.11522578013E+03 0.  0.
         23    2    1    2    0    0 -0.94581548582E+01 -0.90465184198E+00  0.89214937739E+02  0.12797342512E+03  0.91255779723E+02 0.  0.
          5    1    3    3  502    0 -0.55814496500E+00 -0.35182716552E+02  0.73178696987E+03  0.73264752394E+03  0.47000000000E+01 0. -1.
         -5    1    3    3    0  502  0.10016299823E+02  0.36087368394E+02  0.95654734439E+02  0.10283259522E+03  0.47000000000E+01 0.  1.
        -11    1    4    4    0    0 -0.48539696285E+02 -0.44625205772E+01  0.67073764304E+02  0.82915053297E+02  0.00000000000E+00 0.  1.
         11    1    4    4    0    0  0.39081541427E+02  0.35578687352E+01  0.22141173435E+02  0.45058371823E+02  0.00000000000E+00 0. -1.
<mgrwt>
<rscale>  0 0.10912299E+03</rscale>
<asrwt>0</asrwt>
<pdfrwt beam="2">  1        1 0.35997624E-02 0.11561685E+03</pdfrwt>
<pdfrwt beam="1">  1       -1 0.14462383E+00 0.11561685E+03</pdfrwt>
<totfact> 0.10693035E+03</totfact>
</mgrwt>
</event>
<event>
 8    1  0.1020295E-005  0.1411635E+03  0.7546771E-02  0.1217410E+00
         -2   -1    0    0    0  501 -0.00000000000E+00  0.00000000000E+00  0.55615177859E+03  0.55615177859E+03  0.00000000000E+00 0.  1.
          2   -1    0    0  501    0  0.00000000000E+00 -0.00000000000E+00 -0.91259231491E+02  0.91259231491E+02  0.00000000000E+00 0. -1.
         23    2    1    2    0    0  0.31546060775E+02 -0.81375612834E+02  0.49818073142E+03  0.51779451802E+03  0.11095033763E+03 0.  0.
         23    2    1    2    0    0 -0.31546060775E+02  0.81375612834E+02 -0.33288184318E+02  0.12961649206E+03  0.89862046966E+02 0.  0.
          5    1    3    3  502    0  0.20556515896E+02  0.23486187345E+02  0.69810906121E+02  0.76614776350E+02  0.47000000000E+01 0. -1.
         -5    1    3    3    0  502  0.10989544879E+02 -0.10486180018E+03  0.42836982530E+03  0.44117974167E+03  0.47000000000E+01 0.  1.
        -11    1    4    4    0    0  0.31064128116E+02  0.34235318822E+02 -0.18858388316E+02  0.49926705482E+02  0.00000000000E+00 0.  1.
         11    1    4    4    0    0 -0.62610188891E+02  0.47140294012E+02 -0.14429796003E+02  0.79689786581E+02  0.00000000000E+00 0. -1.
<mgrwt>
<rscale>  0 0.13701012E+03</rscale>
<asrwt>0</asrwt>
<pdfrwt beam="2">  1        2 0.14039882E-01 0.14116346E+03</pdfrwt>
<pdfrwt beam="1">  1       -2 0.85561810E-01 0.14116346E+03</pdfrwt>
<totfact> 0.51204612E+02</totfact>
</mgrwt>
</event>
<event>
 8    1  0.1020295E-005  0.1271319E+03  0.7546771E-02  0.1245920E+00
          2   -1    0    0  501    0  0.00000000000E+00  0.00000000000E+00  0.31945755731E+02  0.31945755731E+02  0.00000000000E+00 0.  1.
         -2   -1    0    0    0  501 -0.00000000000E+00 -0.00000000000E+00 -0.39773730808E+03  0.39773730808E+03  0.00000000000E+00 0. -1.
         23    2    1    2    0    0  0.22860765555E+02 -0.39318238165E+01 -0.24279657289E+03  0.27406693732E+03  0.12499774592E+03 0.  0.
         23    2    1    2    0    0 -0.22860765555E+02  0.39318238165E+01 -0.12299497946E+03  0.15561612649E+03  0.92469130047E+02 0.  0.
          5    1    3    3  502    0  0.23674949294E+02  0.23085429590E+02 -0.24431733199E+03  0.24658971794E+03  0.47000000000E+01 0. -1.
         -5    1    3    3    0  502 -0.81418373892E+00 -0.27017253406E+02  0.15207590976E+01  0.27477219383E+02  0.47000000000E+01 0. -1.
        -11    1    4    4    0    0 -0.14960471442E+02 -0.42826865628E+02 -0.42341266017E+02  0.62054322438E+02  0.00000000000E+00 0.  1.
         11    1    4    4    0    0 -0.79002941127E+01  0.46758689445E+02 -0.80653713444E+02  0.93561804055E+02  0.00000000000E+00 0. -1.
<mgrwt>
<rscale>  0 0.11830498E+03</rscale>
<asrwt>0</asrwt>
<pdfrwt beam="1">  1        2 0.49147315E-02 0.12713186E+03</pdfrwt>
<pdfrwt beam="2">  1       -2 0.61190357E-01 0.12713186E+03</pdfrwt>
<totfact> 0.38671580E+03</totfact>
</mgrwt>
</event>
<event>
 8    1  0.1020295E-005  0.1456639E+03  0.7546771E-02  0.1209771E+00
          2   -1    0    0  501    0  0.00000000000E+00  0.00000000000E+00  0.67892493438E+03  0.67892493438E+03  0.00000000000E+00 0. -1.
         -2   -1    0    0    0  501 -0.00000000000E+00 -0.00000000000E+00 -0.29804841904E+02  0.29804841904E+02  0.00000000000E+00 0.  1.
         23    2    1    2    0    0 -0.74582120034E+02  0.55187579178E+01  0.27307167208E+03  0.30949331045E+03  0.12500008722E+03 0.  0.
         23    2    1    2    0    0  0.74582120034E+02 -0.55187579178E+01  0.37604842040E+03  0.39923646583E+03  0.11128518253E+03 0.  0.
          5    1    3    3  502    0  0.23319048996E+02  0.22834432903E+02  0.22614080557E+02  0.39983446719E+02  0.47000000000E+01 0.  1.
         -5    1    3    3    0  502 -0.97901169030E+02 -0.17315674985E+02  0.25045759152E+03  0.26950986373E+03  0.47000000000E+01 0.  1.
        -11    1    4    4    0    0  0.94012651669E+02 -0.29911474275E+02  0.32267569669E+03  0.33742062800E+03  0.00000000000E+00 0. -1.
         11    1    4    4    0    0 -0.19430531635E+02  0.24392716357E+02  0.53372723706E+02  0.61815837830E+02  0.00000000000E+00 0.  1.
<mgrwt>
<rscale>  0 0.14267722E+03</rscale>
<asrwt>0</asrwt>
<pdfrwt beam="1">  1        2 0.10444998E+00 0.14566390E+03</pdfrwt>
<pdfrwt beam="2">  1       -2 0.45853608E-02 0.14566390E+03</pdfrwt>
<totfact> 0.93613272E+03</totfact>
</mgrwt>
</event>
<event>
 8    1  0.1020295E-005  0.1530433E+03  0.7546771E-02  0.1206646E+00
         -3   -1    0    0    0  501 -0.00000000000E+00  0.00000000000E+00  0.90877600887E+03  0.90877600887E+03  0.00000000000E+00 0.  1.
          3   -1    0    0  501    0  0.00000000000E+00 -0.00000000000E+00 -0.28535909523E+02  0.28535909523E+02  0.00000000000E+00 0. -1.
         23    2    1    2    0    0  0.65595089377E+02 -0.59081136189E+02  0.71362783759E+03  0.72985405560E+03  0.12501582099E+03 0.  0.
         23    2    1    2    0    0 -0.65595089377E+02  0.59081136189E+02  0.16661226176E+03  0.20745786279E+03  0.86520648752E+02 0.  0.
          5    1    3    3  502    0 -0.33771523551E+01 -0.70756547204E+02  0.21740458898E+03  0.22870229435E+03  0.47000000000E+01 0.  1.
         -5    1    3    3    0  502  0.68972241732E+02  0.11675411015E+02  0.49622324860E+03  0.50115176125E+03  0.47000000000E+01 0.  1.
        -11    1    4    4    0    0 -0.13026178192E+02  0.23459079095E+02 -0.23705155161E+01  0.26937502744E+02  0.00000000000E+00 0. -1.
         11    1    4    4    0    0 -0.52568911186E+02  0.35622057093E+02  0.16898277728E+03  0.18052036004E+03  0.00000000000E+00 0.  1.
<mgrwt>
<rscale>  0 0.14508517E+03</rscale>
<asrwt>0</asrwt>
<pdfrwt beam="2">  1        3 0.43901406E-02 0.15304330E+03</pdfrwt>
<pdfrwt beam="1">  1       -3 0.13981167E+00 0.15304330E+03</pdfrwt>
<totfact> 0.27122327E+02</totfact>
</mgrwt>
</event>
<event>
 8    1  0.1020295E-005  0.1588231E+03  0.7546771E-02  0.1197640E+00
          2   -1    0    0  501    0  0.00000000000E+00  0.00000000000E+00  0.10901094193E+04  0.10901094193E+04  0.00000000000E+00 0. -1.
         -2   -1    0    0    0  501 -0.00000000000E+00 -0.00000000000E+00 -0.23332709916E+02  0.23332709916E+02  0.00000000000E+00 0.  1.
         23    2    1    2    0    0  0.20423908863E+02 -0.95821374383E+02  0.35244698444E+03  0.38657944661E+03  0.12500367937E+03 0.  0.
         23    2    1    2    0    0 -0.20423908863E+02  0.95821374383E+02  0.71432972495E+03  0.72686268262E+03  0.91997454262E+02 0.  0.
          5    1    3    3  502    0  0.50581137057E+02 -0.11241332509E+03  0.25879211132E+03  0.28668912426E+03  0.47000000000E+01 0. -1.
         -5    1    3    3    0  502 -0.30157228195E+02  0.16591950708E+02  0.93654873122E+02  0.99890322355E+02  0.47000000000E+01 0. -1.
        -11    1    4    4    0    0  0.35762134861E+02  0.27609867602E+02  0.20459099972E+03  0.20952019532E+03  0.00000000000E+00 0.  1.
         11    1    4    4    0    0 -0.56186043724E+02  0.68211506782E+02  0.50973872523E+03  0.51734248730E+03  0.00000000000E+00 0. -1.
<mgrwt>
<rscale>  0 0.15232889E+03</rscale>
<asrwt>0</asrwt>
<pdfrwt beam="1">  1        2 0.16770910E+00 0.15882315E+03</pdfrwt>
<pdfrwt beam="2">  1       -2 0.35896485E-02 0.15882315E+03</pdfrwt>
<totfact> 0.73313639E+03</totfact>
</mgrwt>
</event>
<event>
 8    1  0.1020295E-005  0.2558754E+03  0.7546771E-02  0.1111969E+00
          2   -1    0    0  501    0  0.00000000000E+00  0.00000000000E+00  0.31661555714E+03  0.31661555714E+03  0.00000000000E+00 0. -1.
         -2   -1    0    0    0  501 -0.00000000000E+00 -0.00000000000E+00 -0.23531758168E+03  0.23531758168E+03  0.00000000000E+00 0.  1.
         23    2    1    2    0    0  0.22007371423E+03 -0.37536625049E+02 -0.72400687681E+02  0.26592116285E+03  0.12502306731E+03 0.  0.
         23    2    1    2    0    0 -0.22007371423E+03  0.37536625049E+02  0.15369866314E+03  0.28601197597E+03  0.91313380347E+02 0.  0.
          5    1    3    3  502    0  0.14872947253E+02  0.34035611946E+02 -0.19447026945E+02  0.42188912021E+02  0.47000000000E+01 0. -1.
         -5    1    3    3    0  502  0.20520076697E+03 -0.71572236995E+02 -0.52953660736E+02  0.22373225083E+03  0.47000000000E+01 0. -1.
        -11    1    4    4    0    0 -0.14287218979E+03  0.19453120481E+02  0.44187492063E+02  0.15080922043E+03  0.00000000000E+00 0.  1.
         11    1    4    4    0    0 -0.77201524433E+02  0.18083504568E+02  0.10951117108E+03  0.13520275553E+03  0.00000000000E+00 0. -1.
<mgrwt>
<rscale>  0 0.25212603E+03</rscale>
<asrwt>0</asrwt>
<pdfrwt beam="1">  1        2 0.48710086E-01 0.25587537E+03</pdfrwt>
<pdfrwt beam="2">  1       -2 0.36202705E-01 0.25587537E+03</pdfrwt>
<totfact> 0.74482971E+02</totfact>
</mgrwt>
</event>
<event>
 8    1  0.1020295E-005  0.1675100E+03  0.7546771E-02  0.1186512E+00
         -2   -1    0    0    0  501 -0.00000000000E+00  0.00000000000E+00  0.50824719075E+02  0.50824719075E+02  0.00000000000E+00 0.  1.
          2   -1    0    0  501    0  0.00000000000E+00 -0.00000000000E+00 -0.49166679710E+03  0.49166679710E+03  0.00000000000E+00 0. -1.
         23    2    1    2    0    0 -0.42962890555E+02  0.10289747924E+03 -0.26758530069E+03  0.31569210246E+03  0.12500363677E+03 0.  0.
         23    2    1    2    0    0  0.42962890555E+02 -0.10289747924E+03 -0.17325677733E+03  0.22679941372E+03  0.94796423845E+02 0.  0.
          5    1    3    3  502    0 -0.22159805697E+02 -0.35109963004E+01  0.39607033378E+01  0.23262872876E+02  0.47000000000E+01 0.  1.
         -5    1    3    3    0  502 -0.20803084858E+02  0.10640847554E+03 -0.27154600403E+03  0.29242922958E+03  0.47000000000E+01 0.  1.
        -11    1    4    4    0    0 -0.19682322160E+02 -0.10568949174E+02 -0.74564057612E+02  0.77838905310E+02  0.00000000000E+00 0.  1.
         11    1    4    4    0    0  0.62645212715E+02 -0.92328530065E+02 -0.98692719715E+02  0.14896050841E+03  0.00000000000E+00 0. -1.
<mgrwt>
<rscale>  0 0.16195084E+03</rscale>
<asrwt>0</asrwt>
<pdfrwt beam="2">  1        2 0.75641044E-01 0.16751003E+03</pdfrwt>
<pdfrwt beam="1">  1       -2 0.78191877E-02 0.16751003E+03</pdfrwt>
<totfact> 0.60431365E+03</totfact>
</mgrwt>
</event>
<event>
 8    1  0.1020295E-005  0.1296961E+03  0.7546771E-02  0.1246146E+00
         -1   -1    0    0    0  501 -0.00000000000E+00  0.00000000000E+00  0.54550595058E+03  0.54550595058E+03  0.00000000000E+00 0.  1.
          1   -1    0    0  501    0  0.00000000000E+00 -0.00000000000E+00 -0.22113501992E+02  0.22113501992E+02  0.00000000000E+00 0. -1.
         23    2    1    2    0    0  0.21900612023E+02  0.26796976717E+02  0.28924945984E+03  0.31699578235E+03  0.12499344480E+03 0.  0.
         23    2    1    2    0    0 -0.21900612023E+02 -0.26796976717E+02  0.23414298875E+03  0.25062367022E+03  0.82410983045E+02 0.  0.
          5    1    3    3  502    0  0.59403191570E+02  0.53366886390E+02  0.14596599052E+03  0.16644796220E+03  0.47000000000E+01 0.  1.
         -5    1    3    3    0  502 -0.37502579547E+02 -0.26569909673E+02  0.14328346932E+03  0.15054782015E+03  0.47000000000E+01 0.  1.
        -11    1    4    4    0    0 -0.11020811331E+02 -0.45864774133E+02  0.21883267700E+03  0.22385883121E+03  0.00000000000E+00 0.  1.
         11    1    4    4    0    0 -0.10879800692E+02  0.19067797416E+02  0.15310311755E+02  0.26764839014E+02  0.00000000000E+00 0. -1.
<mgrwt>
<rscale>  0 0.11817039E+03</rscale>
<asrwt>0</asrwt>
<pdfrwt beam="2">  1        1 0.34020776E-02 0.12969609E+03</pdfrwt>
<pdfrwt beam="1">  1       -1 0.83923982E-01 0.12969609E+03</pdfrwt>
<totfact> 0.40237280E+03</totfact>
</mgrwt>
</event>
<event>
 8    1  0.1020295E-005  0.1748830E+03  0.7546771E-02  0.1178974E+00
          1   -1    0    0  501    0  0.00000000000E+00  0.00000000000E+00  0.11329983948E+04  0.11329983948E+04  0.00000000000E+00 0. -1.
         -1   -1    0    0    0  501 -0.00000000000E+00 -0.00000000000E+00 -0.23616563288E+02  0.23616563288E+02  0.00000000000E+00 0.  1.
         23    2    1    2    0    0 -0.64802332445E+02 -0.10372724085E+03  0.58487598108E+03  0.61046211122E+03  0.12500157281E+03 0.  0.
         23    2    1    2    0    0  0.64802332445E+02  0.10372724085E+03  0.52450585044E+03  0.54615284688E+03  0.90652425353E+02 0.  0.
          5    1    3    3  502    0 -0.73641040751E+02 -0.42029017736E+02  0.48687152529E+03  0.49422202840E+03  0.47000000000E+01 0. -1.
         -5    1    3    3    0  502  0.88387083063E+01 -0.61698223112E+02  0.98004455788E+02  0.11624008282E+03  0.47000000000E+01 0. -1.
        -11    1    4    4    0    0 -0.22921923647E+02  0.29259269608E+02  0.12810719064E+03  0.13339029850E+03  0.00000000000E+00 0. -1.
         11    1    4    4    0    0  0.87724256092E+02  0.74467971240E+02  0.39639865980E+03  0.41276254837E+03  0.00000000000E+00 0.  1.
<mgrwt>
<rscale>  0 0.16892419E+03</rscale>
<asrwt>0</asrwt>
<pdfrwt beam="1">  1        1 0.17430740E+00 0.17488304E+03</pdfrwt>
<pdfrwt beam="2">  1       -1 0.36333183E-02 0.17488304E+03</pdfrwt>
<totfact> 0.35914538E+03</totfact>
</mgrwt>
</event>
<event>
 8    1  0.1020295E-005  0.2470520E+03  0.7546771E-02  0.1117754E+00
          1   -1    0    0  501    0  0.00000000000E+00  0.00000000000E+00  0.35352609327E+03  0.35352609327E+03  0.00000000000E+00 0. -1.
         -1   -1    0    0    0  501 -0.00000000000E+00 -0.00000000000E+00 -0.19308750285E+03  0.19308750285E+03  0.00000000000E+00 0.  1.
         23    2    1    2    0    0 -0.12530577240E+03  0.17231517567E+03 -0.27234182422E+02  0.24854861483E+03  0.12506261184E+03 0.  0.
         23    2    1    2    0    0  0.12530577240E+03 -0.17231517567E+03  0.18767277284E+03  0.29806498129E+03  0.90706157698E+02 0.  0.
          5    1    3    3  502    0  0.15224997998E+02  0.73356225369E+02 -0.61262054988E+01  0.75316377755E+02  0.47000000000E+01 0. -1.
         -5    1    3    3    0  502 -0.14053077039E+03  0.98958950303E+02 -0.21107976923E+02  0.17323223708E+03  0.47000000000E+01 0. -1.
        -11    1    4    4    0    0  0.10775800053E+03 -0.13183459363E+03  0.93935458123E+02  0.19446340799E+03  0.00000000000E+00 0.  1.
         11    1    4    4    0    0  0.17547771870E+02 -0.40480582045E+02  0.93737314717E+02  0.10360157330E+03  0.00000000000E+00 0. -1.
<mgrwt>
<rscale>  0 0.24308540E+03</rscale>
<asrwt>0</asrwt>
<pdfrwt beam="1">  1        1 0.54388630E-01 0.24705205E+03</pdfrwt>
<pdfrwt beam="2">  1       -1 0.29705770E-01 0.24705205E+03</pdfrwt>
<totfact> 0.74064862E+02</totfact>
</mgrwt>
</event>
<event>
 8    1  0.1020295E-005  0.1422196E+03  0.7546771E-02  0.1220532E+00
          2   -1    0    0  501    0  0.00000000000E+00  0.00000000000E+00  0.48510725489E+03  0.48510725489E+03  0.00000000000E+00 0. -1.
         -2   -1    0    0    0  501 -0.00000000000E+00 -0.00000000000E+00 -0.49101745887E+02  0.49101745887E+02  0.00000000000E+00 0.  1.
         23    2    1    2    0    0  0.67652135156E+02  0.49926524263E+01  0.86732018105E+02  0.16657991024E+03  0.12499874224E+03 0.  0.
         23    2    1    2    0    0 -0.67652135156E+02 -0.49926524263E+01  0.34927349090E+03  0.36762909053E+03  0.92506425691E+02 0.  0.
          5    1    3    3  502    0  0.73495111488E+02 -0.23410020865E+02  0.10619932171E+03  0.13133905140E+03  0.47000000000E+01 0. -1.
         -5    1    3    3    0  502 -0.58429763325E+01  0.28402673291E+02 -0.19467303606E+02  0.35240858846E+02  0.47000000000E+01 0. -1.
        -11    1    4    4    0    0 -0.64535178388E+02 -0.41391956414E+02  0.26280181419E+03  0.27375696676E+03  0.00000000000E+00 0. -1.
         11    1    4    4    0    0 -0.31169567676E+01  0.36399303987E+02  0.86471676703E+02  0.93872123775E+02  0.00000000000E+00 0.  1.
<mgrwt>
<rscale>  0 0.13477932E+03</rscale>
<asrwt>0</asrwt>
<pdfrwt beam="1">  1        2 0.74631882E-01 0.14221963E+03</pdfrwt>
<pdfrwt beam="2">  1       -2 0.75541151E-02 0.14221963E+03</pdfrwt>
<totfact> 0.64112253E+03</totfact>
</mgrwt>
</event>
<event>
 8    1  0.1020295E-005  0.1880706E+03  0.7546771E-02  0.1165262E+00
          2   -1    0    0  501    0  0.00000000000E+00  0.00000000000E+00  0.62745723851E+03  0.62745723851E+03  0.00000000000E+00 0.  1.
         -2   -1    0    0    0  501 -0.00000000000E+00 -0.00000000000E+00 -0.52534983553E+02  0.52534983553E+02  0.00000000000E+00 0. -1.
         23    2    1    2    0    0 -0.14032363669E+03  0.80749131984E+01  0.23386109808E+03  0.30010256977E+03  0.12495844091E+03 0.  0.
         23    2    1    2    0    0  0.14032363669E+03 -0.80749131984E+01  0.34106115688E+03  0.37988965229E+03  0.90760718072E+02 0.  0.
          5    1    3    3  502    0 -0.64393263756E+02  0.64880447995E+02  0.13432306465E+03  0.16254458049E+03  0.47000000000E+01 0. -1.
         -5    1    3    3    0  502 -0.75930372938E+02 -0.56805534797E+02  0.99538033429E+02  0.13755798929E+03  0.47000000000E+01 0. -1.
        -11    1    4    4    0    0  0.11230581704E+03 -0.44524920281E+02  0.23307381541E+03  0.26252327229E+03  0.00000000000E+00 0.  1.
         11    1    4    4    0    0  0.28017819650E+02  0.36450007083E+02  0.10798734148E+03  0.11736638000E+03  0.00000000000E+00 0. -1.
<mgrwt>
<rscale>  0 0.18265125E+03</rscale>
<asrwt>0</asrwt>
<pdfrwt beam="1">  1        2 0.96531878E-01 0.18807057E+03</pdfrwt>
<pdfrwt beam="2">  1       -2 0.80823056E-02 0.18807057E+03</pdfrwt>
<totfact> 0.43785967E+03</totfact>
</mgrwt>
</event>
<event>
 8    1  0.1020295E-005  0.1851845E+03  0.7546771E-02  0.1168084E+00
         -1   -1    0    0    0  501 -0.00000000000E+00  0.00000000000E+00  0.12429412932E+04  0.12429412932E+04  0.00000000000E+00 0.  1.
          1   -1    0    0  501    0  0.00000000000E+00 -0.00000000000E+00 -0.25063356493E+02  0.25063356493E+02  0.00000000000E+00 0. -1.
         23    2    1    2    0    0  0.58861274164E+02 -0.12330392459E+03  0.73458006996E+03  0.75756266150E+03  0.12499919795E+03 0.  0.
         23    2    1    2    0    0 -0.58861274164E+02  0.12330392459E+03  0.48329786675E+03  0.51044198821E+03  0.91135546855E+02 0.  0.
          5    1    3    3  502    0  0.11103914529E+02 -0.49631955733E+02  0.67154980933E+02  0.84371259394E+02  0.47000000000E+01 0.  1.
         -5    1    3    3    0  502  0.47757359635E+02 -0.73671968860E+02  0.66742508903E+03  0.67319140210E+03  0.47000000000E+01 0.  1.
        -11    1    4    4    0    0 -0.72136891174E+02  0.86495865514E+02  0.42884450739E+03  0.44338795354E+03  0.00000000000E+00 0.  1.
         11    1    4    4    0    0  0.13275617011E+02  0.36808059078E+02  0.54453359361E+02  0.67054034672E+02  0.00000000000E+00 0. -1.
<mgrwt>
<rscale>  0 0.17970993E+03</rscale>
<asrwt>0</asrwt>
<pdfrwt beam="2">  1        1 0.38559020E-02 0.18518452E+03</pdfrwt>
<pdfrwt beam="1">  1       -1 0.19122169E+00 0.18518452E+03</pdfrwt>
<totfact> 0.45738172E+02</totfact>
</mgrwt>
</event>
<event>
 8    1  0.1020295E-005  0.1593983E+03  0.7546771E-02  0.1204565E+00
          3   -1    0    0  501    0  0.00000000000E+00  0.00000000000E+00  0.23510421806E+03  0.23510421806E+03  0.00000000000E+00 0. -1.
         -3   -1    0    0    0  501 -0.00000000000E+00 -0.00000000000E+00 -0.10709835951E+03  0.10709835951E+03  0.00000000000E+00 0.  1.
         23    2    1    2    0    0  0.93322261013E+02 -0.32760185208E+02 -0.13800935478E+02  0.15999460806E+03  0.12500213859E+03 0.  0.
         23    2    1    2    0    0 -0.93322261013E+02  0.32760185208E+02  0.14180679403E+03  0.18220796951E+03  0.57517851021E+02 0.  0.
          5    1    3    3  502    0  0.11448559172E+03 -0.45154772231E+02 -0.34123375206E+02  0.12779827425E+03  0.47000000000E+01 0. -1.
         -5    1    3    3    0  502 -0.21163330708E+02  0.12394587023E+02  0.20322439728E+02  0.32196333807E+02  0.47000000000E+01 0. -1.
        -11    1    4    4    0    0 -0.35566123266E+02  0.42371196711E+02  0.77781068743E+02  0.95447169102E+02  0.00000000000E+00 0. -1.
         11    1    4    4    0    0 -0.57756137748E+02 -0.96110115030E+01  0.64025725285E+02  0.86760800411E+02  0.00000000000E+00 0.  1.
<mgrwt>
<rscale>  0 0.14671772E+03</rscale>
<asrwt>0</asrwt>
<pdfrwt beam="1">  1        3 0.36169880E-01 0.15939827E+03</pdfrwt>
<pdfrwt beam="2">  1       -3 0.16476671E-01 0.15939827E+03</pdfrwt>
<totfact> 0.56405091E+02</totfact>
</mgrwt>
</event>
<event>
 8    1  0.1020295E-005  0.1690069E+03  0.7546771E-02  0.1185666E+00
          2   -1    0    0  501    0  0.00000000000E+00  0.00000000000E+00  0.85856989327E+02  0.85856989327E+02  0.00000000000E+00 0. -1.
         -2   -1    0    0    0  501 -0.00000000000E+00 -0.00000000000E+00 -0.30687318492E+03  0.30687318492E+03  0.00000000000E+00 0.  1.
         23    2    1    2    0    0  0.74098152448E+01  0.11350275328E+03 -0.16757104578E+03  0.23799869861E+03  0.12500217915E+03 0.  0.
         23    2    1    2    0    0 -0.74098152448E+01 -0.11350275328E+03 -0.53445149817E+02  0.15473147564E+03  0.90264417966E+02 0.  0.
          5    1    3    3  502    0  0.40042044216E+02  0.32089704031E+02 -0.13469064119E+03  0.14421086378E+03  0.47000000000E+01 0. -1.
         -5    1    3    3    0  502 -0.32632228971E+02  0.81413049247E+02 -0.32880404591E+02  0.93787834826E+02  0.47000000000E+01 0. -1.
        -11    1    4    4    0    0  0.13054663645E+02 -0.11755853978E+03 -0.60308796918E+02  0.13276891768E+03  0.00000000000E+00 0.  1.
         11    1    4    4    0    0 -0.20464478890E+02  0.40557864991E+01  0.68636471013E+01  0.21962557954E+02  0.00000000000E+00 0. -1.
<mgrwt>
<rscale>  0 0.16271445E+03</rscale>
<asrwt>0</asrwt>
<pdfrwt beam="1">  1        2 0.13208768E-01 0.16900688E+03</pdfrwt>
<pdfrwt beam="2">  1       -2 0.47211259E-01 0.16900688E+03</pdfrwt>
<totfact> 0.19158768E+03</totfact>
</mgrwt>
</event>
<event>
 8    1  0.1020295E-005  0.1755323E+03  0.7546771E-02  0.1178083E+00
         -1   -1    0    0    0  501 -0.00000000000E+00  0.00000000000E+00  0.13008130138E+03  0.13008130138E+03  0.00000000000E+00 0.  1.
          1   -1    0    0  501    0  0.00000000000E+00 -0.00000000000E+00 -0.25791844244E+03  0.25791844244E+03  0.00000000000E+00 0. -1.
         23    2    1    2    0    0  0.46324598916E+02 -0.11419495071E+03  0.17664162248E+02  0.17641882725E+03  0.12500049899E+03 0.  0.
         23    2    1    2    0    0 -0.46324598916E+02  0.11419495071E+03 -0.14550130331E+03  0.21158091657E+03  0.91702779451E+02 0.  0.
          5    1    3    3  502    0  0.25469390257E+02  0.11256716648E+02 -0.29370827053E+02  0.40744803246E+02  0.47000000000E+01 0. -1.
         -5    1    3    3    0  502  0.20855208659E+02 -0.12545166736E+03  0.47034989301E+02  0.13567402400E+03  0.47000000000E+01 0. -1.
        -11    1    4    4    0    0 -0.16923957961E+02  0.10900505424E+03 -0.14438901558E+03  0.18170500825E+03  0.00000000000E+00 0. -1.
         11    1    4    4    0    0 -0.29400640956E+02  0.51898964708E+01 -0.11122877305E+01  0.29875908320E+02  0.00000000000E+00 0.  1.
<mgrwt>
<rscale>  0 0.16977440E+03</rscale>
<asrwt>0</asrwt>
<pdfrwt beam="2">  1        1 0.39679760E-01 0.17553228E+03</pdfrwt>
<pdfrwt beam="1">  1       -1 0.20012508E-01 0.17553228E+03</pdfrwt>
<totfact> 0.21058366E+03</totfact>
</mgrwt>
</event>
<event>
 8    1  0.1020295E-005  0.2004924E+03  0.7546771E-02  0.1153522E+00
          4   -1    0    0  501    0  0.00000000000E+00  0.00000000000E+00  0.14286191881E+03  0.14286191881E+03  0.00000000000E+00 0. -1.
         -4   -1    0    0    0  501 -0.00000000000E+00 -0.00000000000E+00 -0.30433275987E+03  0.30433275987E+03  0.00000000000E+00 0.  1.
         23    2    1    2    0    0  0.14969609411E+03  0.46517545350E+02 -0.17364140396E+03  0.26523295796E+03  0.12499752878E+03 0.  0.
         23    2    1    2    0    0 -0.14969609411E+03 -0.46517545350E+02  0.12170562904E+02  0.18196172072E+03  0.91592262711E+02 0.  0.
          5    1    3    3  502    0  0.13520091840E+03  0.84245757422E+02 -0.14512604639E+03  0.21554650385E+03  0.47000000000E+01 0.  1.
         -5    1    3    3    0  502  0.14495175709E+02 -0.37728212072E+02 -0.28515357569E+02  0.49686454112E+02  0.47000000000E+01 0.  1.
        -11    1    4    4    0    0 -0.12210092426E+03 -0.72095826061E+02  0.20918376244E+02  0.14333186075E+03  0.00000000000E+00 0.  1.
         11    1    4    4    0    0 -0.27595169845E+02  0.25578280711E+02 -0.87478133393E+01  0.38629859968E+02  0.00000000000E+00 0. -1.
<mgrwt>
<rscale>  0 0.19558024E+03</rscale>
<asrwt>0</asrwt>
<pdfrwt beam="1">  1        4 0.21978757E-01 0.20049236E+03</pdfrwt>
<pdfrwt beam="2">  1       -4 0.46820424E-01 0.20049236E+03</pdfrwt>
<totfact> 0.14984511E+02</totfact>
</mgrwt>
</event>
<event>
 8    1  0.1020295E-005  0.1328461E+03  0.7546771E-02  0.1236469E+00
         -1   -1    0    0    0  501 -0.00000000000E+00  0.00000000000E+00  0.91949882812E+02  0.91949882812E+02  0.00000000000E+00 0.  1.
          1   -1    0    0  501    0  0.00000000000E+00 -0.00000000000E+00 -0.16280549630E+03  0.16280549630E+03  0.00000000000E+00 0. -1.
         23    2    1    2    0    0  0.55792240529E+01  0.44636107653E+02 -0.29328527097E+01  0.13287848829E+03  0.12499832470E+03 0.  0.
         23    2    1    2    0    0 -0.55792240529E+01 -0.44636107653E+02 -0.67922760776E+02  0.12187689082E+03  0.90647477825E+02 0.  0.
          5    1    3    3  502    0  0.30406442287E+02 -0.18169867543E+02 -0.41660775979E+02  0.54885390354E+02  0.47000000000E+01 0.  1.
         -5    1    3    3    0  502 -0.24827218234E+02  0.62805975197E+02  0.38727923269E+02  0.77993097941E+02  0.47000000000E+01 0.  1.
        -11    1    4    4    0    0  0.13473864483E+02 -0.40956122094E+02  0.77055666318E+01  0.43798683978E+02  0.00000000000E+00 0.  1.
         11    1    4    4    0    0 -0.19053088536E+02 -0.36799855591E+01 -0.75628327408E+02  0.78078206837E+02  0.00000000000E+00 0. -1.
<mgrwt>
<rscale>  0 0.12410854E+03</rscale>
<asrwt>0</asrwt>
<pdfrwt beam="2">  1        1 0.25046999E-01 0.13284612E+03</pdfrwt>
<pdfrwt beam="1">  1       -1 0.14146136E-01 0.13284612E+03</pdfrwt>
<totfact> 0.63933303E+03</totfact>
</mgrwt>
</event>
<event>
 8    1  0.1020295E-005  0.1464235E+03  0.7546771E-02  0.1215568E+00
         -1   -1    0    0    0  501 -0.00000000000E+00  0.00000000000E+00  0.64243649757E+02  0.64243649757E+02  0.00000000000E+00 0.  1.
          1   -1    0    0  501    0  0.00000000000E+00 -0.00000000000E+00 -0.46031276028E+03  0.46031276028E+03  0.00000000000E+00 0. -1.
         23    2    1    2    0    0  0.75716551821E+02  0.88810486593E+01 -0.42860044925E+02  0.15256745847E+03  0.12501190619E+03 0.  0.
         23    2    1    2    0    0 -0.75716551821E+02 -0.88810486593E+01 -0.35320906560E+03  0.37198895156E+03  0.88358739343E+02 0.  0.
          5    1    3    3  502    0  0.41405166827E+02  0.62262484712E+02 -0.47595044110E+02  0.88760256119E+02  0.47000000000E+01 0. -1.
         -5    1    3    3    0  502  0.34311384993E+02 -0.53381436053E+02  0.47349991854E+01  0.63807202356E+02  0.47000000000E+01 0. -1.
        -11    1    4    4    0    0 -0.78084426217E+02 -0.20808431515E+02 -0.35028065093E+03  0.35948115786E+03  0.00000000000E+00 0. -1.
         11    1    4    4    0    0  0.23678743960E+01  0.11927382856E+02 -0.29284146739E+01  0.12507793708E+02  0.00000000000E+00 0.  1.
<mgrwt>
<rscale>  0 0.13834925E+03</rscale>
<asrwt>0</asrwt>
<pdfrwt beam="2">  1        1 0.70817345E-01 0.14642352E+03</pdfrwt>
<pdfrwt beam="1">  1       -1 0.98836388E-02 0.14642352E+03</pdfrwt>
<totfact> 0.30535570E+03</totfact>
</mgrwt>
</event>
<event>
 8    1  0.1020295E-005  0.1777807E+03  0.7546771E-02  0.1174973E+00
          2   -1    0    0  501    0  0.00000000000E+00  0.00000000000E+00  0.14618455443E+03  0.14618455443E+03  0.00000000000E+00 0. -1.
         -2   -1    0    0    0  501 -0.00000000000E+00 -0.00000000000E+00 -0.21093871625E+03  0.21093871625E+03  0.00000000000E+00 0.  1.
         23    2    1    2    0    0  0.82704930595E+02  0.95612591095E+02 -0.85272914619E+02  0.19717362441E+03  0.12499638024E+03 0.  0.
         23    2    1    2    0    0 -0.82704930595E+02 -0.95612591095E+02  0.20518752797E+02  0.15994964627E+03  0.95817519298E+02 0.  0.
          5    1    3    3  502    0  0.78650974272E+02  0.45252638339E+02 -0.10837167607E+03  0.14142237165E+03  0.47000000000E+01 0. -1.
         -5    1    3    3    0  502  0.40539563231E+01  0.50359952755E+02  0.23098761447E+02  0.55751252755E+02  0.47000000000E+01 0. -1.
        -11    1    4    4    0    0 -0.47728959504E+02 -0.94438020333E+02 -0.18627774439E+02  0.10744108730E+03  0.00000000000E+00 0.  1.
         11    1    4    4    0    0 -0.34975971092E+02 -0.11745707616E+01  0.39146527236E+02  0.52508558968E+02  0.00000000000E+00 0. -1.
<mgrwt>
<rscale>  0 0.17278595E+03</rscale>
<asrwt>0</asrwt>
<pdfrwt beam="1">  1        2 0.22489932E-01 0.17778067E+03</pdfrwt>
<pdfrwt beam="2">  1       -2 0.32452110E-01 0.17778067E+03</pdfrwt>
<totfact> 0.21076703E+03</totfact>
</mgrwt>
</event>
<event>
 8    1  0.1020295E-005  0.2660869E+03  0.7546771E-02  0.1105616E+00
         -2   -1    0    0    0  501 -0.00000000000E+00  0.00000000000E+00  0.28177285424E+03  0.28177285424E+03  0.00000000000E+00 0.  1.
          2   -1    0    0  501    0  0.00000000000E+00 -0.00000000000E+00 -0.23854405627E+03  0.23854405627E+03  0.00000000000E+00 0. -1.
         23    2    1    2    0    0 -0.20404738496E+03  0.11638624269E+03  0.15329693336E+02  0.26652809513E+03  0.12498453183E+03 0.  0.
         23    2    1    2    0    0  0.20404738496E+03 -0.11638624269E+03  0.27899104635E+02  0.25378881538E+03  0.91920128241E+02 0.  0.
          5    1    3    3  502    0 -0.66290217693E+02 -0.20834638512E+02 -0.10107954171E+02  0.70375676631E+02  0.47000000000E+01 0. -1.
         -5    1    3    3    0  502 -0.13775716727E+03  0.13722088120E+03  0.25437647507E+02  0.19615241850E+03  0.47000000000E+01 0. -1.
        -11    1    4    4    0    0  0.10102209191E+03 -0.29745423046E+02  0.51325600428E+02  0.11715191209E+03  0.00000000000E+00 0. -1.
         11    1    4    4    0    0  0.10302529305E+03 -0.86640819645E+02 -0.23426495793E+02  0.13663690330E+03  0.00000000000E+00 0.  1.
<mgrwt>
<rscale>  0 0.26255825E+03</rscale>
<asrwt>0</asrwt>
<pdfrwt beam="2">  1        2 0.36699086E-01 0.26608688E+03</pdfrwt>
<pdfrwt beam="1">  1       -2 0.43349670E-01 0.26608688E+03</pdfrwt>
<totfact> 0.71730404E+02</totfact>
</mgrwt>
</event>
<event>
 8    1  0.1020295E-005  0.1351766E+03  0.7546771E-02  0.1232435E+00
         -1   -1    0    0    0  501 -0.00000000000E+00  0.00000000000E+00  0.44259131423E+02  0.44259131423E+02  0.00000000000E+00 0.  1.
          1   -1    0    0  501    0  0.00000000000E+00 -0.00000000000E+00 -0.33380303811E+03  0.33380303811E+03  0.00000000000E+00 0. -1.
         23    2    1    2    0    0 -0.35563218793E+02 -0.37205841224E+02 -0.13077245827E+03  0.18808018503E+03  0.12499481193E+03 0.  0.
         23    2    1    2    0    0  0.35563218793E+02  0.37205841224E+02 -0.15877144842E+03  0.18998198450E+03  0.90751112662E+02 0.  0.
          5    1    3    3  502    0 -0.48059466680E+01 -0.77774857528E+02 -0.10495707496E+03  0.13080559304E+03  0.47000000000E+01 0.  1.
         -5    1    3    3    0  502 -0.30757272125E+02  0.40569016303E+02 -0.25815383306E+02  0.57274591990E+02  0.47000000000E+01 0.  1.
        -11    1    4    4    0    0  0.30114919928E+02 -0.17276868441E+02 -0.11425794763E+03  0.11941640248E+03  0.00000000000E+00 0. -1.
         11    1    4    4    0    0  0.54482988650E+01  0.54482709665E+02 -0.44513500790E+02  0.70565582018E+02  0.00000000000E+00 0.  1.
<mgrwt>
<rscale>  0 0.12670060E+03</rscale>
<asrwt>0</asrwt>
<pdfrwt beam="2">  1        1 0.51354312E-01 0.13517663E+03</pdfrwt>
<pdfrwt beam="1">  1       -1 0.68090974E-02 0.13517663E+03</pdfrwt>
<totfact> 0.80125702E+03</totfact>
</mgrwt>
</event>
<event>
 8    1  0.1020295E-005  0.2022010E+03  0.7546771E-02  0.1152045E+00
         -2   -1    0    0    0  501 -0.00000000000E+00  0.00000000000E+00  0.68467021925E+02  0.68467021925E+02  0.00000000000E+00 0.  1.
          2   -1    0    0  501    0  0.00000000000E+00 -0.00000000000E+00 -0.59824559866E+03  0.59824559866E+03  0.00000000000E+00 0. -1.
         23    2    1    2    0    0  0.10217339656E+03  0.12173724725E+03 -0.17507416005E+03  0.26746254951E+03  0.12500357412E+03 0.  0.
         23    2    1    2    0    0 -0.10217339656E+03 -0.12173724725E+03 -0.35470441669E+03  0.39925007107E+03  0.91247113395E+02 0.  0.
          5    1    3    3  502    0  0.86146154611E+02  0.10151420466E+02 -0.97239642210E+02  0.13039113969E+03  0.47000000000E+01 0.  1.
         -5    1    3    3    0  502  0.16027241946E+02  0.11158582678E+03 -0.77834517835E+02  0.13707140982E+03  0.47000000000E+01 0.  1.
        -11    1    4    4    0    0 -0.39348558415E+02 -0.11142694582E+03 -0.25343024963E+03  0.27962683120E+03  0.00000000000E+00 0.  1.
         11    1    4    4    0    0 -0.62824838142E+02 -0.10310301435E+02 -0.10127416706E+03  0.11962323987E+03  0.00000000000E+00 0. -1.
<mgrwt>
<rscale>  0 0.19729057E+03</rscale>
<asrwt>0</asrwt>
<pdfrwt beam="2">  1        2 0.92037788E-01 0.20220102E+03</pdfrwt>
<pdfrwt beam="1">  1       -2 0.10533388E-01 0.20220102E+03</pdfrwt>
<totfact> 0.30567695E+03</totfact>
</mgrwt>
</event>
<event>
 8    1  0.1020295E-005  0.1277881E+03  0.7546771E-02  0.1245765E+00
          1   -1    0    0  501    0  0.00000000000E+00  0.00000000000E+00  0.48527425594E+03  0.48527425594E+03  0.00000000000E+00 0. -1.
         -1   -1    0    0    0  501 -0.00000000000E+00 -0.00000000000E+00 -0.27239133257E+02  0.27239133257E+02  0.00000000000E+00 0.  1.
         23    2    1    2    0    0 -0.23350349670E+02  0.13087804360E+02  0.19509796131E+03  0.23322308571E+03  0.12495304618E+03 0.  0.
         23    2    1    2    0    0  0.23350349670E+02 -0.13087804360E+02  0.26293716137E+03  0.27929030349E+03  0.90280636560E+02 0.  0.
          5    1    3    3  502    0 -0.44096204581E+02  0.41108720376E+02  0.36198352424E+02  0.70475618959E+02  0.47000000000E+01 0.  1.
         -5    1    3    3    0  502  0.20745854911E+02 -0.28020916016E+02  0.15889960888E+03  0.16274746675E+03  0.47000000000E+01 0.  1.
        -11    1    4    4    0    0 -0.33166491419E+02 -0.17415143769E+02  0.10165427347E+03  0.10833694984E+03  0.00000000000E+00 0.  1.
         11    1    4    4    0    0  0.56516841089E+02  0.43273394093E+01  0.16128288790E+03  0.17095335365E+03  0.00000000000E+00 0. -1.
<mgrwt>
<rscale>  0 0.11839697E+03</rscale>
<asrwt>0</asrwt>
<pdfrwt beam="1">  1        1 0.74657571E-01 0.12778808E+03</pdfrwt>
<pdfrwt beam="2">  1       -1 0.41906363E-02 0.12778808E+03</pdfrwt>
<totfact> 0.10213801E+04</totfact>
</mgrwt>
</event>
<event>
 8    1  0.1020295E-005  0.1299072E+03  0.7546771E-02  0.1235127E+00
          2   -1    0    0  501    0  0.00000000000E+00  0.00000000000E+00  0.59037268631E+03  0.59037268631E+03  0.00000000000E+00 0. -1.
         -2   -1    0    0    0  501 -0.00000000000E+00 -0.00000000000E+00 -0.53206843838E+02  0.53206843838E+02  0.00000000000E+00 0.  1.
         23    2    1    2    0    0 -0.60484161764E+02 -0.11890821933E+02  0.42681129080E+02  0.13673903865E+03  0.11435104040E+03 0.  0.
         23    2    1    2    0    0  0.60484161764E+02  0.11890821933E+02  0.49448471339E+03  0.50684049150E+03  0.92587399656E+02 0.  0.
          5    1    3    3  502    0  0.27236192480E+02  0.17170351376E+02  0.28253250696E+02  0.43092543694E+02  0.47000000000E+01 0. -1.
         -5    1    3    3    0  502 -0.87720354243E+02 -0.29061173309E+02  0.14427878384E+02  0.93646494955E+02  0.47000000000E+01 0.  1.
        -11    1    4    4    0    0 -0.14870925314E+02  0.20803368784E+02  0.52583545181E+02  0.58471820532E+02  0.00000000000E+00 0.  1.
         11    1    4    4    0    0  0.75355087078E+02 -0.89125468506E+01  0.44190116821E+03  0.44836867097E+03  0.00000000000E+00 0. -1.
<mgrwt>
<rscale>  0 0.12496276E+03</rscale>
<asrwt>0</asrwt>
<pdfrwt beam="1">  1        2 0.90826562E-01 0.12990722E+03</pdfrwt>
<pdfrwt beam="2">  1       -2 0.81856687E-02 0.12990722E+03</pdfrwt>
<totfact> 0.45321701E+03</totfact>
</mgrwt>
</event>
<event>
 8    1  0.1020295E-005  0.1359092E+03  0.7546771E-02  0.1230259E+00
         -3   -1    0    0    0  501 -0.00000000000E+00  0.00000000000E+00  0.43067413022E+03  0.43067413022E+03  0.00000000000E+00 0.  1.
          3   -1    0    0  501    0  0.00000000000E+00 -0.00000000000E+00 -0.34787534504E+02  0.34787534504E+02  0.00000000000E+00 0. -1.
         23    2    1    2    0    0  0.45792776614E+02  0.27613255545E+02  0.24672901045E+03  0.28168513587E+03  0.12494735252E+03 0.  0.
         23    2    1    2    0    0 -0.45792776614E+02 -0.27613255545E+02  0.14915758527E+03  0.18377652885E+03  0.93093270667E+02 0.  0.
          5    1    3    3  502    0  0.26909368686E+02 -0.47681865812E+02  0.13303448962E+03  0.14393727758E+03  0.47000000000E+01 0.  1.
         -5    1    3    3    0  502  0.18883407927E+02  0.75295121357E+02  0.11369452083E+03  0.13774785828E+03  0.47000000000E+01 0.  1.
        -11    1    4    4    0    0 -0.68971471502E+01  0.33890146353E+02  0.48705110444E+02  0.59735252925E+02  0.00000000000E+00 0. -1.
         11    1    4    4    0    0 -0.38895629464E+02 -0.61503401897E+02  0.10045247482E+03  0.12404127593E+03  0.00000000000E+00 0.  1.
<mgrwt>
<rscale>  0 0.12812848E+03</rscale>
<asrwt>0</asrwt>
<pdfrwt beam="2">  1        3 0.53519287E-02 0.13590920E+03</pdfrwt>
<pdfrwt beam="1">  1       -3 0.66257555E-01 0.13590920E+03</pdfrwt>
<totfact> 0.10546860E+03</totfact>
</mgrwt>
</event>
<event>
 8    1  0.1020295E-005  0.1194853E+03  0.7546771E-02  0.1251251E+00
         -2   -1    0    0    0  501 -0.00000000000E+00  0.00000000000E+00  0.14916094761E+03  0.14916094761E+03  0.00000000000E+00 0.  1.
          2   -1    0    0  501    0  0.00000000000E+00 -0.00000000000E+00 -0.83917165648E+02  0.83917165648E+02  0.00000000000E+00 0. -1.
         23    2    1    2    0    0 -0.35199888471E+02  0.26673448705E+02  0.23635729253E+02  0.12180055709E+03  0.11102352452E+03 0.  0.
         23    2    1    2    0    0  0.35199888471E+02 -0.26673448705E+02  0.41608052713E+02  0.11127755617E+03  0.93278933540E+02 0.  0.
          5    1    3    3  502    0 -0.26993346974E+02  0.35300932350E+02 -0.38117012850E+02  0.58734940829E+02  0.47000000000E+01 0. -1.
         -5    1    3    3    0  502 -0.82065414973E+01 -0.86274836452E+01  0.61752742103E+02  0.63065616263E+02  0.47000000000E+01 0.  1.
        -11    1    4    4    0    0  0.56142409298E+02 -0.42530312310E+02  0.46715705332E+02  0.84517185895E+02  0.00000000000E+00 0.  1.
         11    1    4    4    0    0 -0.20942520827E+02  0.15856863605E+02 -0.51076526192E+01  0.26760370275E+02  0.00000000000E+00 0. -1.
<mgrwt>
<rscale>  0 0.11518924E+03</rscale>
<asrwt>0</asrwt>
<pdfrwt beam="2">  1        2 0.12910333E-01 0.11948526E+03</pdfrwt>
<pdfrwt beam="1">  1       -2 0.22947838E-01 0.11948526E+03</pdfrwt>
<totfact> 0.72300142E+03</totfact>
</mgrwt>
</event>
<event>
 8    1  0.1020295E-005  0.1251396E+03  0.7546771E-02  0.1250950E+00
         -3   -1    0    0    0  501 -0.00000000000E+00  0.00000000000E+00  0.42730865823E+03  0.42730865823E+03  0.00000000000E+00 0.  1.
          3   -1    0    0  501    0  0.00000000000E+00 -0.00000000000E+00 -0.32801961664E+02  0.32801961664E+02  0.00000000000E+00 0. -1.
         23    2    1    2    0    0 -0.33511518795E+01 -0.48486395651E+01  0.31786254356E+03  0.34160871076E+03  0.12500070056E+03 0.  0.
         23    2    1    2    0    0  0.33511518795E+01  0.48486395651E+01  0.76644153005E+02  0.11850190914E+03  0.90186677256E+02 0.  0.
          5    1    3    3  502    0 -0.28616410245E+02 -0.58605374741E+02  0.15745405800E+03  0.17049152256E+03  0.47000000000E+01 0. -1.
         -5    1    3    3    0  502  0.25265258366E+02  0.53756735175E+02  0.16040848556E+03  0.17111718819E+03  0.47000000000E+01 0. -1.
        -11    1    4    4    0    0 -0.67893268153E+01 -0.40191666117E+02  0.19931077453E+02  0.45373040809E+02  0.00000000000E+00 0. -1.
         11    1    4    4    0    0  0.10140478695E+02  0.45040305682E+02  0.56713075552E+02  0.73128868326E+02  0.00000000000E+00 0.  1.
<mgrwt>
<rscale>  0 0.11536206E+03</rscale>
<asrwt>0</asrwt>
<pdfrwt beam="2">  1        3 0.50464559E-02 0.12513958E+03</pdfrwt>
<pdfrwt beam="1">  1       -3 0.65739790E-01 0.12513958E+03</pdfrwt>
<totfact> 0.11608670E+03</totfact>
</mgrwt>
</event>
<event>
 8    1  0.1020295E-005  0.1287430E+03  0.7546771E-02  0.1243859E+00
         -1   -1    0    0    0  501 -0.00000000000E+00  0.00000000000E+00  0.61671994032E+02  0.61671994032E+02  0.00000000000E+00 0.  1.
          1   -1    0    0  501    0  0.00000000000E+00 -0.00000000000E+00 -0.24814622446E+03  0.24814622446E+03  0.00000000000E+00 0. -1.
         23    2    1    2    0    0 -0.22669941698E+02 -0.20847360019E+02 -0.39920927630E+02  0.13479040281E+03  0.12500493410E+03 0.  0.
         23    2    1    2    0    0  0.22669941698E+02  0.20847360019E+02 -0.14655330280E+03  0.17502781569E+03  0.90599818028E+02 0.  0.
          5    1    3    3  502    0 -0.40850628973E+01  0.44752253434E+02  0.14471499701E+02  0.47444348766E+02  0.47000000000E+01 0. -1.
         -5    1    3    3    0  502 -0.18584878800E+02 -0.65599613453E+02 -0.54392427331E+02  0.87346054039E+02  0.47000000000E+01 0. -1.
        -11    1    4    4    0    0 -0.43197384073E+01  0.16025357156E+02  0.77429408946E+01  0.18314621088E+02  0.00000000000E+00 0.  1.
         11    1    4    4    0    0  0.26989680105E+02  0.48220028627E+01 -0.15429624369E+03  0.15671319460E+03  0.00000000000E+00 0. -1.
<mgrwt>
<rscale>  0 0.11953943E+03</rscale>
<asrwt>0</asrwt>
<pdfrwt beam="2">  1        1 0.38176342E-01 0.12874305E+03</pdfrwt>
<pdfrwt beam="1">  1       -1 0.94879991E-02 0.12874305E+03</pdfrwt>
<totfact> 0.69866837E+03</totfact>
</mgrwt>
</event>
<event>
 8    1  0.1020295E-005  0.1301123E+03  0.7546771E-02  0.1240940E+00
         -1   -1    0    0    0  501 -0.00000000000E+00  0.00000000000E+00  0.71363998281E+02  0.71363998281E+02  0.00000000000E+00 0.  1.
          1   -1    0    0  501    0  0.00000000000E+00 -0.00000000000E+00 -0.18284916320E+03  0.18284916320E+03  0.00000000000E+00 0. -1.
         23    2    1    2    0    0 -0.38967240841E+01 -0.36052136467E+02 -0.64651234435E+02  0.14528930426E+03  0.12495702788E+03 0.  0.
         23    2    1    2    0    0  0.38967240841E+01  0.36052136467E+02 -0.46833930485E+02  0.10892385722E+03  0.91411425024E+02 0.  0.
          5    1    3    3  502    0  0.43944554334E+02  0.24446487476E+02 -0.39201024885E+02  0.63934067269E+02  0.47000000000E+01 0. -1.
         -5    1    3    3    0  502 -0.47841278418E+02 -0.60498623943E+02 -0.25450209550E+02  0.81355236991E+02  0.47000000000E+01 0. -1.
        -11    1    4    4    0    0 -0.36913061832E+02  0.19796190551E+02 -0.49586015322E+02  0.64909446228E+02  0.00000000000E+00 0. -1.
         11    1    4    4    0    0  0.40809785916E+02  0.16255945916E+02  0.27520848364E+01  0.44014410993E+02  0.00000000000E+00 0.  1.
<mgrwt>
<rscale>  0 0.12131724E+03</rscale>
<asrwt>0</asrwt>
<pdfrwt beam="2">  1        1 0.28130641E-01 0.13011226E+03</pdfrwt>
<pdfrwt beam="1">  1       -1 0.10979077E-01 0.13011226E+03</pdfrwt>
<totfact> 0.81690588E+03</totfact>
</mgrwt>
</event>
<event>
 7    1  0.1020295E-005  0.6065046E+03  0.7546771E-02  0.9994567E-01
          2   -1    0    0  501    0  0.00000000000E+00  0.00000000000E+00  0.45362248536E+03  0.45362248536E+03  0.00000000000E+00 0. -1.
         -2   -1    0    0    0  501 -0.00000000000E+00 -0.00000000000E+00 -0.61242286133E+03  0.61242286133E+03  0.00000000000E+00 0.  1.
         23    2    1    2    0    0  0.24959189819E+03  0.34787192482E+03  0.66542977794E+01  0.43737766098E+03  0.89128822044E+02 0.  0.
          5    1    1    2  502    0 -0.16978478198E+03 -0.28375775853E+03  0.98871742169E+02  0.34517104328E+03  0.47000000000E+01 0. -1.
         -5    1    1    2    0  502 -0.79807116210E+02 -0.64114166292E+02 -0.26432641592E+03  0.28349664243E+03  0.47000000000E+01 0.  1.
        -11    1    3    3    0    0  0.24126741523E+03  0.28362238135E+03  0.11947140001E+01  0.37236144832E+03  0.00000000000E+00 0. -1.
         11    1    3    3    0    0  0.83244829624E+01  0.64249543469E+02  0.54595837793E+01  0.65016212652E+02  0.00000000000E+00 0.  1.
<mgrwt>
<rscale>  0 0.55889104E+03</rscale>
<asrwt>0</asrwt>
<pdfrwt beam="1">  1        2 0.69788075E-01 0.60650458E+03</pdfrwt>
<pdfrwt beam="2">  1       -2 0.94218901E-01 0.60650458E+03</pdfrwt>
<totfact> 0.66835811E+01</totfact>
</mgrwt>
</event>
<event>
 8    1  0.1020295E-005  0.2303639E+03  0.7546771E-02  0.1129489E+00
          2   -1    0    0  501    0  0.00000000000E+00  0.00000000000E+00  0.99077453943E+02  0.99077453943E+02  0.00000000000E+00 0. -1.
         -2   -1    0    0    0  501 -0.00000000000E+00 -0.00000000000E+00 -0.52937311919E+03  0.52937311919E+03  0.00000000000E+00 0.  1.
         23    2    1    2    0    0 -0.98086873788E+02  0.16679644381E+03 -0.30068006213E+03  0.37878228580E+03  0.12500172716E+03 0.  0.
         23    2    1    2    0    0  0.98086873788E+02 -0.16679644381E+03 -0.12961560311E+03  0.24966828733E+03  0.89955325874E+02 0.  0.
          5    1    3    3  502    0 -0.11617761020E+03  0.91110617045E+02 -0.23116310954E+03  0.27432982860E+03  0.47000000000E+01 0. -1.
         -5    1    3    3    0  502  0.18090736407E+02  0.75685826762E+02 -0.69516952596E+02  0.10445245720E+03  0.47000000000E+01 0. -1.
        -11    1    4    4    0    0  0.68033074546E+02 -0.17005228054E+03 -0.11152161792E+03  0.21443728363E+03  0.00000000000E+00 0. -1.
         11    1    4    4    0    0  0.30053799242E+02  0.32558367282E+01 -0.18093985195E+02  0.35231003703E+02  0.00000000000E+00 0.  1.
<mgrwt>
<rscale>  0 0.22599708E+03</rscale>
<asrwt>0</asrwt>
<pdfrwt beam="1">  1        2 0.15242685E-01 0.23036389E+03</pdfrwt>
<pdfrwt beam="2">  1       -2 0.81442019E-01 0.23036389E+03</pdfrwt>
<totfact> 0.52291091E+02</totfact>
</mgrwt>
</event>
<event>
 8    1  0.1020295E-005  0.1309499E+03  0.7546771E-02  0.1236873E+00
          2   -1    0    0  501    0  0.00000000000E+00  0.00000000000E+00  0.90816317271E+03  0.90816317271E+03  0.00000000000E+00 0. -1.
         -2   -1    0    0    0  501 -0.00000000000E+00 -0.00000000000E+00 -0.15339767913E+02  0.15339767913E+02  0.00000000000E+00 0.  1.
         23    2    1    2    0    0 -0.32410819467E+02 -0.21738522323E+02  0.47185638320E+03  0.48969001871E+03  0.12499937395E+03 0.  0.
         23    2    1    2    0    0  0.32410819467E+02  0.21738522323E+02  0.42096702160E+03  0.43381292191E+03  0.97249130446E+02 0.  0.
          5    1    3    3  502    0 -0.19294270216E+02 -0.68745691438E+02  0.36734951718E+03  0.37425392012E+03  0.47000000000E+01 0.  1.
         -5    1    3    3    0  502 -0.13116549251E+02  0.47007169115E+02  0.10450686603E+03  0.11543609860E+03  0.47000000000E+01 0.  1.
        -11    1    4    4    0    0 -0.33134072437E+02 -0.57988122859E+01  0.14186199651E+03  0.14579546987E+03  0.00000000000E+00 0.  1.
         11    1    4    4    0    0  0.65544891904E+02  0.27537334609E+02  0.27910502508E+03  0.28801745204E+03  0.00000000000E+00 0. -1.
<mgrwt>
<rscale>  0 0.12385289E+03</rscale>
<asrwt>0</asrwt>
<pdfrwt beam="1">  1        2 0.13971737E+00 0.13094987E+03</pdfrwt>
<pdfrwt beam="2">  1       -2 0.23599650E-02 0.13094987E+03</pdfrwt>
<totfact> 0.17279367E+04</totfact>
</mgrwt>
</event>
<event>
 8    1  0.1020295E-005  0.1897383E+03  0.7546771E-02  0.1163523E+00
         -2   -1    0    0    0  501 -0.00000000000E+00  0.00000000000E+00  0.75813974162E+02  0.75813974162E+02  0.00000000000E+00 0.  1.
          2   -1    0    0  501    0  0.00000000000E+00 -0.00000000000E+00 -0.43238190939E+03  0.43238190939E+03  0.00000000000E+00 0. -1.
         23    2    1    2    0    0  0.93180134292E+02 -0.10813588097E+03 -0.15689012008E+03  0.24620141976E+03  0.12499889253E+03 0.  0.
         23    2    1    2    0    0 -0.93180134292E+02  0.10813588097E+03 -0.19967781515E+03  0.26199446379E+03  0.91618573534E+02 0.  0.
          5    1    3    3  502    0  0.69689307748E+01  0.87522713041E+01 -0.81675647992E+02  0.82572209151E+02  0.47000000000E+01 0. -1.
         -5    1    3    3    0  502  0.86211203517E+02 -0.11688815227E+03 -0.75214472088E+02  0.16362921061E+03  0.47000000000E+01 0. -1.
        -11    1    4    4    0    0 -0.48644080434E+02  0.36515935697E+02 -0.20888520814E+02  0.64311666305E+02  0.00000000000E+00 0.  1.
         11    1    4    4    0    0 -0.44536053857E+02  0.71619945270E+02 -0.17878929434E+03  0.19768279749E+03  0.00000000000E+00 0. -1.
<mgrwt>
<rscale>  0 0.18449454E+03</rscale>
<asrwt>0</asrwt>
<pdfrwt beam="2">  1        2 0.66520295E-01 0.18973832E+03</pdfrwt>
<pdfrwt beam="1">  1       -2 0.11663688E-01 0.18973832E+03</pdfrwt>
<totfact> 0.37255281E+03</totfact>
</mgrwt>
</event>
<event>
 8    1  0.1020295E-005  0.1272763E+03  0.7546771E-02  0.1253333E+00
          2   -1    0    0  501    0  0.00000000000E+00  0.00000000000E+00  0.52500575912E+02  0.52500575912E+02  0.00000000000E+00 0.  1.
         -2   -1    0    0    0  501 -0.00000000000E+00 -0.00000000000E+00 -0.21035776190E+03  0.21035776190E+03  0.00000000000E+00 0. -1.
         23    2    1    2    0    0 -0.23902786324E+02  0.23089161656E+01 -0.10825816749E+03  0.16709006763E+03  0.12499034196E+03 0.  0.
         23    2    1    2    0    0  0.23902786324E+02 -0.23089161656E+01 -0.49599018496E+02  0.95768270181E+02  0.78325121447E+02 0.  0.
          5    1    3    3  502    0  0.26464986057E+02  0.37057357953E-01 -0.11307320842E+03  0.11622408237E+03  0.47000000000E+01 0.  1.
         -5    1    3    3    0  502 -0.50367772382E+02  0.22718588077E+01  0.48150409314E+01  0.50865985258E+02  0.47000000000E+01 0.  1.
        -11    1    4    4    0    0  0.39963224926E+02 -0.15923532846E+02 -0.12535566108E+01  0.43037072960E+02  0.00000000000E+00 0.  1.
         11    1    4    4    0    0 -0.16060438602E+02  0.13614616681E+02 -0.48345461885E+02  0.52731197221E+02  0.00000000000E+00 0. -1.
<mgrwt>
<rscale>  0 0.11400217E+03</rscale>
<asrwt>0</asrwt>
<pdfrwt beam="1">  1        2 0.80770117E-02 0.12727631E+03</pdfrwt>
<pdfrwt beam="2">  1       -2 0.32362732E-01 0.12727631E+03</pdfrwt>
<totfact> 0.70154211E+03</totfact>
</mgrwt>
</event>
<event>
 8    1  0.1020295E-005  0.1252983E+03  0.7546771E-02  0.1250432E+00
          1   -1    0    0  501    0  0.00000000000E+00  0.00000000000E+00  0.16318905268E+02  0.16318905268E+02  0.00000000000E+00 0. -1.
         -1   -1    0    0    0  501 -0.00000000000E+00 -0.00000000000E+00 -0.96784505025E+03  0.96784505025E+03  0.00000000000E+00 0.  1.
         23    2    1    2    0    0 -0.83957539055E+01  0.21845883946E+01 -0.78006695598E+03  0.79006589589E+03  0.12499761171E+03 0.  0.
         23    2    1    2    0    0  0.83957539055E+01 -0.21845883946E+01 -0.17145918901E+03  0.19409805963E+03  0.90556844836E+02 0.  0.
          5    1    3    3  502    0 -0.32018784505E+02  0.49075345639E+02 -0.22684528998E+03  0.23433836155E+03  0.47000000000E+01 0.  1.
         -5    1    3    3    0  502  0.23623030599E+02 -0.46890757245E+02 -0.55322166600E+03  0.55572753434E+03  0.47000000000E+01 0.  1.
        -11    1    4    4    0    0 -0.66911918145E+01  0.42900409367E+02 -0.80405018938E+02  0.91379342535E+02  0.00000000000E+00 0.  1.
         11    1    4    4    0    0  0.15086945720E+02 -0.45084997762E+02 -0.91054170071E+02  0.10271871709E+03  0.00000000000E+00 0. -1.
<mgrwt>
<rscale>  0 0.11566052E+03</rscale>
<asrwt>0</asrwt>
<pdfrwt beam="1">  1        1 0.25106007E-02 0.12529830E+03</pdfrwt>
<pdfrwt beam="2">  1       -1 0.14889925E+00 0.12529830E+03</pdfrwt>
<totfact> 0.16378901E+03</totfact>
</mgrwt>
</event>
<event>
 8    1  0.1020295E-005  0.1691998E+03  0.7546771E-02  0.1185703E+00
          2   -1    0    0  501    0  0.00000000000E+00  0.00000000000E+00  0.99733903612E+03  0.99733903612E+03  0.00000000000E+00 0.  1.
         -2   -1    0    0    0  501 -0.00000000000E+00 -0.00000000000E+00 -0.25492890871E+02  0.25492890871E+02  0.00000000000E+00 0. -1.
         23    2    1    2    0    0  0.37617438262E+02 -0.10764818089E+03  0.43187238242E+03  0.46383436967E+03  0.12500146112E+03 0.  0.
         23    2    1    2    0    0 -0.37617438262E+02  0.10764818089E+03  0.53997376283E+03  0.55899755732E+03  0.88901080048E+02 0.  0.
          5    1    3    3  502    0 -0.19150806329E+02 -0.84044797238E+02  0.13223844240E+03  0.15792205981E+03  0.47000000000E+01 0.  1.
         -5    1    3    3    0  502  0.56768244592E+02 -0.23603383655E+02  0.29963394002E+03  0.30591230986E+03  0.47000000000E+01 0.  1.
        -11    1    4    4    0    0 -0.30407147726E+02 -0.12384173784E+01  0.66832778155E+02  0.73435335816E+02  0.00000000000E+00 0. -1.
         11    1    4    4    0    0 -0.72102905360E+01  0.10888659827E+03  0.47314098468E+03  0.48556222151E+03  0.00000000000E+00 0.  1.
<mgrwt>
<rscale>  0 0.16268042E+03</rscale>
<asrwt>0</asrwt>
<pdfrwt beam="1">  1        2 0.15343674E+00 0.16919979E+03</pdfrwt>
<pdfrwt beam="2">  1       -2 0.39219840E-02 0.16919979E+03</pdfrwt>
<totfact> 0.73091956E+03</totfact>
</mgrwt>
</event>
<event>
 8    1  0.1020295E-005  0.4107660E+03  0.7546771E-02  0.1040881E+00
         -2   -1    0    0    0  501 -0.00000000000E+00  0.00000000000E+00  0.63397013678E+03  0.63397013678E+03  0.00000000000E+00 0.  1.
          2   -1    0    0  501    0  0.00000000000E+00 -0.00000000000E+00 -0.29545253584E+03  0.29545253584E+03  0.00000000000E+00 0. -1.
         23    2    1    2    0    0  0.23958308139E+03 -0.30935575877E+03  0.33116853004E+03  0.52763747185E+03  0.12501067169E+03 0.  0.
         23    2    1    2    0    0 -0.23958308139E+03  0.30935575877E+03  0.73490708936E+01  0.40178520077E+03  0.90974174032E+02 0.  0.
          5    1    3    3  502    0  0.44883609756E+02 -0.43609086990E+00  0.44429678004E+02  0.63330994683E+02  0.47000000000E+01 0. -1.
         -5    1    3    3    0  502  0.19469947163E+03 -0.30891966790E+03  0.28673885204E+03  0.46430647717E+03  0.47000000000E+01 0. -1.
        -11    1    4    4    0    0 -0.16111295514E+03  0.26094088117E+03 -0.14548971029E+02  0.30701661248E+03  0.00000000000E+00 0.  1.
         11    1    4    4    0    0 -0.78470126246E+02  0.48414877602E+02  0.21898041923E+02  0.94768588289E+02  0.00000000000E+00 0. -1.
<mgrwt>
<rscale>  0 0.40848507E+03</rscale>
<asrwt>0</asrwt>
<pdfrwt beam="2">  1        2 0.45454236E-01 0.41076600E+03</pdfrwt>
<pdfrwt beam="1">  1       -2 0.97533867E-01 0.41076600E+03</pdfrwt>
<totfact> 0.10070812E+02</totfact>
</mgrwt>
</event>
<event>
 8    1  0.1020295E-005  0.1522353E+03  0.7546771E-02  0.1205133E+00
          2   -1    0    0  501    0  0.00000000000E+00  0.00000000000E+00  0.57661949409E+03  0.57661949409E+03  0.00000000000E+00 0. -1.
         -2   -1    0    0    0  501 -0.00000000000E+00 -0.00000000000E+00 -0.47592009822E+02  0.47592009822E+02  0.00000000000E+00 0.  1.
         23    2    1    2    0    0  0.73738165827E+02 -0.45980831517E+02  0.11630830643E+03  0.19158078239E+03  0.12499608022E+03 0.  0.
         23    2    1    2    0    0 -0.73738165827E+02  0.45980831517E+02  0.41271917784E+03  0.43263072152E+03  0.96336221018E+02 0.  0.
          5    1    3    3  502    0  0.14846907813E+02  0.27428896712E+02  0.87552810280E+02  0.93061053263E+02  0.47000000000E+01 0. -1.
         -5    1    3    3    0  502  0.58891258014E+02 -0.73409728229E+02  0.28755496149E+02  0.98519729130E+02  0.47000000000E+01 0. -1.
        -11    1    4    4    0    0 -0.96305740241E+02  0.46576179412E+02  0.33161198373E+03  0.34844030169E+03  0.00000000000E+00 0.  1.
         11    1    4    4    0    0  0.22567574413E+02 -0.59534789519E+00  0.81107194112E+02  0.84190419827E+02  0.00000000000E+00 0. -1.
<mgrwt>
<rscale>  0 0.14626961E+03</rscale>
<asrwt>0</asrwt>
<pdfrwt beam="1">  1        2 0.88710686E-01 0.15223526E+03</pdfrwt>
<pdfrwt beam="2">  1       -2 0.73218481E-02 0.15223526E+03</pdfrwt>
<totfact> 0.55706857E+03</totfact>
</mgrwt>
</event>
<event>
 8    1  0.1020295E-005  0.1274414E+03  0.7546771E-02  0.1244662E+00
         -2   -1    0    0    0  501 -0.00000000000E+00  0.00000000000E+00  0.47011564705E+02  0.47011564705E+02  0.00000000000E+00 0.  1.
          2   -1    0    0  501    0  0.00000000000E+00 -0.00000000000E+00 -0.32568968804E+03  0.32568968804E+03  0.00000000000E+00 0. -1.
         23    2    1    2    0    0 -0.16226296156E+02 -0.18779560239E+02 -0.77047173394E+02  0.14892140882E+03  0.12500141803E+03 0.  0.
         23    2    1    2    0    0  0.16226296156E+02  0.18779560239E+02 -0.20163094994E+03  0.22377984392E+03  0.93842495710E+02 0.  0.
          5    1    3    3  502    0  0.29092059514E+02 -0.12359856358E+02 -0.94464735560E+02  0.99723569132E+02  0.47000000000E+01 0. -1.
         -5    1    3    3    0  502 -0.45318355670E+02 -0.64197038815E+01  0.17417562166E+02  0.49197839692E+02  0.47000000000E+01 0. -1.
        -11    1    4    4    0    0 -0.28601234451E+02  0.38574116045E+02 -0.10319400868E+03  0.11382001787E+03  0.00000000000E+00 0.  1.
         11    1    4    4    0    0  0.44827530606E+02 -0.19794555806E+02 -0.98436941257E+02  0.10995982604E+03  0.00000000000E+00 0. -1.
<mgrwt>
<rscale>  0 0.11905648E+03</rscale>
<asrwt>0</asrwt>
<pdfrwt beam="2">  1        2 0.50106107E-01 0.12744143E+03</pdfrwt>
<pdfrwt beam="1">  1       -2 0.72325483E-02 0.12744143E+03</pdfrwt>
<totfact> 0.10425901E+04</totfact>
</mgrwt>
</event>
<event>
 8    1  0.1020295E-005  0.1755482E+03  0.7546771E-02  0.1178592E+00
         -1   -1    0    0    0  501 -0.00000000000E+00  0.00000000000E+00  0.99921145796E+02  0.99921145796E+02  0.00000000000E+00 0.  1.
          1   -1    0    0  501    0  0.00000000000E+00 -0.00000000000E+00 -0.32610098068E+03  0.32610098068E+03  0.00000000000E+00 0. -1.
         23    2    1    2    0    0 -0.37641776306E+02 -0.11736990038E+03 -0.30213764194E+02  0.17812927368E+03  0.12499827901E+03 0.  0.
         23    2    1    2    0    0  0.37641776306E+02  0.11736990038E+03 -0.19596607069E+03  0.24789285280E+03  0.88631646539E+02 0.  0.
          5    1    3    3  502    0  0.31575565626E+01 -0.12389458462E+03  0.42846870209E+01  0.12409789202E+03  0.47000000000E+01 0.  1.
         -5    1    3    3    0  502 -0.40799332869E+02  0.65246842399E+01 -0.34498451215E+02  0.54031381652E+02  0.47000000000E+01 0.  1.
        -11    1    4    4    0    0  0.28512758195E+02  0.85032779486E+02 -0.19459027244E+03  0.21426368123E+03  0.00000000000E+00 0. -1.
         11    1    4    4    0    0  0.91290181111E+01  0.32337120896E+02 -0.13757982507E+01  0.33629171568E+02  0.00000000000E+00 0.  1.
<mgrwt>
<rscale>  0 0.16928825E+03</rscale>
<asrwt>0</asrwt>
<pdfrwt beam="2">  1        1 0.50169383E-01 0.17554819E+03</pdfrwt>
<pdfrwt beam="1">  1       -1 0.15372483E-01 0.17554819E+03</pdfrwt>
<totfact> 0.23951667E+03</totfact>
</mgrwt>
</event>
<event>
 8    1  0.1020295E-005  0.1488913E+03  0.7546771E-02  0.1213343E+00
         -2   -1    0    0    0  501 -0.00000000000E+00  0.00000000000E+00  0.27883271433E+03  0.27883271433E+03  0.00000000000E+00 0. -1.
          2   -1    0    0  501    0  0.00000000000E+00 -0.00000000000E+00 -0.70765304699E+02  0.70765304699E+02  0.00000000000E+00 0.  1.
         23    2    1    2    0    0 -0.31905046623E+02 -0.74303210540E+02  0.17263256245E+03  0.22797066806E+03  0.12501889770E+03 0.  0.
         23    2    1    2    0    0  0.31905046623E+02  0.74303210540E+02  0.35434847177E+02  0.12162735097E+03  0.83658143729E+02 0.  0.
          5    1    3    3  502    0 -0.45744431140E+02 -0.10379555394E+03  0.11496582306E+03  0.16157134792E+03  0.47000000000E+01 0.  1.
         -5    1    3    3    0  502  0.13839384517E+02  0.29492343397E+02  0.57666739395E+02  0.66399320142E+02  0.47000000000E+01 0.  1.
        -11    1    4    4    0    0  0.60631583121E+02  0.46961941807E+02  0.23071224579E+02  0.80086792004E+02  0.00000000000E+00 0.  1.
         11    1    4    4    0    0 -0.28726536498E+02  0.27341268734E+02  0.12363622598E+02  0.41540558962E+02  0.00000000000E+00 0. -1.
<mgrwt>
<rscale>  0 0.13998925E+03</rscale>
<asrwt>0</asrwt>
<pdfrwt beam="2">  1        2 0.10886970E-01 0.14889132E+03</pdfrwt>
<pdfrwt beam="1">  1       -2 0.42897340E-01 0.14889132E+03</pdfrwt>
<totfact> 0.28961561E+03</totfact>
</mgrwt>
</event>
<event>
 8    1  0.1020295E-005  0.1799766E+03  0.7546771E-02  0.1173423E+00
          2   -1    0    0  501    0  0.00000000000E+00  0.00000000000E+00  0.29898140243E+02  0.29898140243E+02  0.00000000000E+00 0. -1.
         -2   -1    0    0    0  501 -0.00000000000E+00 -0.00000000000E+00 -0.10375022336E+04  0.10375022336E+04  0.00000000000E+00 0.  1.
         23    2    1    2    0    0 -0.45645779835E+02 -0.12117701930E+03 -0.68164689883E+03  0.70500644099E+03  0.12499671969E+03 0.  0.
         23    2    1    2    0    0  0.45645779835E+02  0.12117701930E+03 -0.32595719454E+03  0.36239393286E+03  0.91180385401E+02 0.  0.
          5    1    3    3  502    0 -0.70576530174E+02 -0.29037706132E+02 -0.40924502114E+03  0.41632656931E+03  0.47000000000E+01 0.  1.
         -5    1    3    3    0  502  0.24930750339E+02 -0.92139313164E+02 -0.27240187769E+03  0.28867987167E+03  0.47000000000E+01 0.  1.
        -11    1    4    4    0    0  0.35732847077E+02  0.10937524485E+03 -0.32728665414E+03  0.34692410485E+03  0.00000000000E+00 0.  1.
         11    1    4    4    0    0  0.99129327582E+01  0.11801774449E+02  0.13294596012E+01  0.15469828016E+02  0.00000000000E+00 0. -1.
<mgrwt>
<rscale>  0 0.17431340E+03</rscale>
<asrwt>0</asrwt>
<pdfrwt beam="1">  1        2 0.45997146E-02 0.17997663E+03</pdfrwt>
<pdfrwt beam="2">  1       -2 0.15961570E+00 0.17997663E+03</pdfrwt>
<totfact> 0.46843206E+02</totfact>
</mgrwt>
</event>
<event>
 8    1  0.1020295E-005  0.1541799E+03  0.7546771E-02  0.1203566E+00
          1   -1    0    0  501    0  0.00000000000E+00  0.00000000000E+00  0.19593664588E+03  0.19593664588E+03  0.00000000000E+00 0. -1.
         -1   -1    0    0    0  501 -0.00000000000E+00 -0.00000000000E+00 -0.10250417051E+03  0.10250417051E+03  0.00000000000E+00 0.  1.
         23    2    1    2    0    0  0.62221081907E+02 -0.65377396131E+02  0.47393837676E+02  0.16129976771E+03  0.12500308899E+03 0.  0.
         23    2    1    2    0    0 -0.62221081907E+02  0.65377396131E+02  0.46038637697E+02  0.13714104868E+03  0.92425343458E+02 0.  0.
          5    1    3    3  502    0  0.57253619933E+02 -0.65139301155E+02 -0.23580965995E+02  0.89995874947E+02  0.47000000000E+01 0. -1.
         -5    1    3    3    0  502  0.49674619746E+01 -0.23809497622E+00  0.70974803670E+02  0.71303892767E+02  0.47000000000E+01 0. -1.
        -11    1    4    4    0    0 -0.48295368245E+02  0.11051288273E+02  0.61493015007E+02  0.78968123069E+02  0.00000000000E+00 0. -1.
         11    1    4    4    0    0 -0.13925713662E+02  0.54326107858E+02 -0.15454377310E+02  0.58172925610E+02  0.00000000000E+00 0.  1.
<mgrwt>
<rscale>  0 0.14751008E+03</rscale>
<asrwt>0</asrwt>
<pdfrwt beam="1">  1        1 0.30144099E-01 0.15417989E+03</pdfrwt>
<pdfrwt beam="2">  1       -1 0.15769872E-01 0.15417989E+03</pdfrwt>
<totfact> 0.43150205E+03</totfact>
</mgrwt>
</event>
<event>
 8    1  0.1020295E-005  0.1257341E+03  0.7546771E-02  0.1248735E+00
          2   -1    0    0  501    0  0.00000000000E+00  0.00000000000E+00  0.21336056624E+03  0.21336056624E+03  0.00000000000E+00 0. -1.
         -2   -1    0    0    0  501 -0.00000000000E+00 -0.00000000000E+00 -0.56134376562E+02  0.56134376562E+02  0.00000000000E+00 0.  1.
         23    2    1    2    0    0 -0.13569094351E+02  0.56019030484E-01  0.89255061179E+02  0.15419318067E+03  0.12499979023E+03 0.  0.
         23    2    1    2    0    0  0.13569094351E+02 -0.56019030484E-01  0.67971128503E+02  0.11530176214E+03  0.92142816231E+02 0.  0.
          5    1    3    3  502    0  0.33819373443E+02 -0.47397322806E+02  0.38575782852E+02  0.70003123158E+02  0.47000000000E+01 0. -1.
         -5    1    3    3    0  502 -0.47388467795E+02  0.47453341836E+02  0.50679278327E+02  0.84190057507E+02  0.47000000000E+01 0. -1.
        -11    1    4    4    0    0 -0.92118343753E+01  0.41519324483E+02  0.47228117977E+02  0.63554758482E+02  0.00000000000E+00 0. -1.
         11    1    4    4    0    0  0.22780928727E+02 -0.41575343513E+02  0.20743010526E+02  0.51747003658E+02  0.00000000000E+00 0.  1.
<mgrwt>
<rscale>  0 0.11664603E+03</rscale>
<asrwt>0</asrwt>
<pdfrwt beam="1">  1        2 0.32824702E-01 0.12573413E+03</pdfrwt>
<pdfrwt beam="2">  1       -2 0.86360581E-02 0.12573413E+03</pdfrwt>
<totfact> 0.12417913E+04</totfact>
</mgrwt>
</event>
<event>
 7    1  0.1020295E-005  0.2049878E+03  0.7546771E-02  0.1155353E+00
          2   -1    0    0  501    0  0.00000000000E+00  0.00000000000E+00  0.70928074272E+03  0.70928074272E+03  0.00000000000E+00 0. -1.
         -2   -1    0    0    0  501 -0.00000000000E+00 -0.00000000000E+00 -0.47777497899E+02  0.47777497899E+02  0.00000000000E+00 0.  1.
         23    2    1    2    0    0 -0.32031921455E+02 -0.13053121297E+03  0.31178327267E+03  0.35168922628E+03  0.91717289587E+02 0.  0.
          5    1    1    2  502    0 -0.42368078890E+02  0.99148721847E+02  0.27433868206E+03  0.29480387655E+03  0.47000000000E+01 0. -1.
         -5    1    1    2    0  502  0.74400000346E+02  0.31382491120E+02  0.75381290087E+02  0.11056513779E+03  0.47000000000E+01 0.  1.
        -11    1    3    3    0    0  0.20783844654E+02 -0.64323427213E+02  0.78976516059E+02  0.10395557501E+03  0.00000000000E+00 0.  1.
         11    1    3    3    0    0 -0.52815766109E+02 -0.66207785754E+02  0.23280675661E+03  0.24773365127E+03  0.00000000000E+00 0. -1.
<mgrwt>
<rscale>  0 0.19348777E+03</rscale>
<asrwt>0</asrwt>
<pdfrwt beam="1">  1        2 0.10912011E+00 0.20498775E+03</pdfrwt>
<pdfrwt beam="2">  1       -2 0.73503848E-02 0.20498775E+03</pdfrwt>
<totfact> 0.44005815E+03</totfact>
</mgrwt>
</event>
<event>
 8    1  0.1020295E-005  0.1419585E+03  0.7546771E-02  0.1221468E+00
         -1   -1    0    0    0  501 -0.00000000000E+00  0.00000000000E+00  0.24480557957E+03  0.24480557957E+03  0.00000000000E+00 0.  1.
          1   -1    0    0  501    0  0.00000000000E+00 -0.00000000000E+00 -0.66666658928E+02  0.66666658928E+02  0.00000000000E+00 0. -1.
         23    2    1    2    0    0  0.28738124747E+02  0.60847276705E+02  0.10816515589E+03  0.17847107497E+03  0.12499581095E+03 0.  0.
         23    2    1    2    0    0 -0.28738124747E+02 -0.60847276705E+02  0.69973764750E+02  0.13300116353E+03  0.90910455125E+02 0.  0.
          5    1    3    3  502    0 -0.14983437526E+02 -0.29582296136E+02  0.40664679563E+01  0.33737839386E+02  0.47000000000E+01 0. -1.
         -5    1    3    3    0  502  0.43721562273E+02  0.90429572842E+02  0.10409868794E+03  0.14473323558E+03  0.47000000000E+01 0. -1.
        -11    1    4    4    0    0 -0.55365596955E+02 -0.14993397869E+02  0.21805606197E+02  0.61364776277E+02  0.00000000000E+00 0. -1.
         11    1    4    4    0    0  0.26627472208E+02 -0.45853878836E+02  0.48168158553E+02  0.71636387255E+02  0.00000000000E+00 0.  1.
<mgrwt>
<rscale>  0 0.13411970E+03</rscale>
<asrwt>0</asrwt>
<pdfrwt beam="2">  1        1 0.10256409E-01 0.14195853E+03</pdfrwt>
<pdfrwt beam="1">  1       -1 0.37662396E-01 0.14195853E+03</pdfrwt>
<totfact> 0.40930912E+03</totfact>
</mgrwt>
</event>
<event>
 7    1  0.1020295E-005  0.1308804E+03  0.7546771E-02  0.1241574E+00
          1   -1    0    0  501    0  0.00000000000E+00  0.00000000000E+00  0.58281930324E+02  0.58281930324E+02  0.00000000000E+00 0. -1.
         -1   -1    0    0    0  501 -0.00000000000E+00 -0.00000000000E+00 -0.22229923769E+03  0.22229923769E+03  0.00000000000E+00 0.  1.
         23    2    1    2    0    0  0.21863446245E+02  0.16992407461E+02 -0.54045530732E+02  0.10963244484E+03  0.91277606112E+02 0.  0.
          5    1    1    2  502    0 -0.38209914544E+02  0.49179007459E+02 -0.49141236487E+02  0.79470267821E+02  0.47000000000E+01 0. -1.
         -5    1    1    2    0  502  0.16346468299E+02 -0.66171414920E+02 -0.60830540147E+02  0.91478455348E+02  0.47000000000E+01 0.  1.
        -11    1    3    3    0    0  0.31725950362E+02  0.30926582267E+02  0.82264354212E+01  0.45062885580E+02  0.00000000000E+00 0. -1.
         11    1    3    3    0    0 -0.98625041176E+01 -0.13934174806E+02 -0.62271966154E+02  0.64569559265E+02  0.00000000000E+00 0.  1.
<mgrwt>
<rscale>  0 0.12092783E+03</rscale>
<asrwt>0</asrwt>
<pdfrwt beam="1">  1        1 0.89664509E-02 0.13088038E+03</pdfrwt>
<pdfrwt beam="2">  1       -1 0.34199883E-01 0.13088038E+03</pdfrwt>
<totfact> 0.57478107E+03</totfact>
</mgrwt>
</event>
<event>
 8    1  0.1020295E-005  0.1607252E+03  0.7546771E-02  0.1194156E+00
          1   -1    0    0  501    0  0.00000000000E+00  0.00000000000E+00  0.76513145386E+03  0.76513145386E+03  0.00000000000E+00 0. -1.
         -1   -1    0    0    0  501 -0.00000000000E+00 -0.00000000000E+00 -0.30139147086E+02  0.30139147086E+02  0.00000000000E+00 0.  1.
         23    2    1    2    0    0  0.85679792273E+02 -0.53545086990E+02  0.33642110352E+03  0.37284279332E+03  0.12499794595E+03 0.  0.
         23    2    1    2    0    0 -0.85679792273E+02  0.53545086990E+02  0.39857120326E+03  0.42242780763E+03  0.96840825316E+02 0.  0.
          5    1    3    3  502    0  0.49930993646E+02  0.30715674465E+02  0.20020237121E+03  0.20866153508E+03  0.47000000000E+01 0. -1.
         -5    1    3    3    0  502  0.35748798626E+02 -0.84260761455E+02  0.13621873230E+03  0.16418125823E+03  0.47000000000E+01 0. -1.
        -11    1    4    4    0    0 -0.71054646049E+02  0.41892622468E+01  0.32457051388E+03  0.33228351016E+03  0.00000000000E+00 0. -1.
         11    1    4    4    0    0 -0.14625146223E+02  0.49355824743E+02  0.74000689379E+02  0.90144297472E+02  0.00000000000E+00 0.  1.
<mgrwt>
<rscale>  0 0.15525904E+03</rscale>
<asrwt>0</asrwt>
<pdfrwt beam="1">  1        1 0.11771252E+00 0.16072520E+03</pdfrwt>
<pdfrwt beam="2">  1       -1 0.46367924E-02 0.16072520E+03</pdfrwt>
<totfact> 0.47616585E+03</totfact>
</mgrwt>
</event>
<event>
 8    1  0.1020295E-005  0.1342228E+03  0.7546771E-02  0.1234374E+00
          1   -1    0    0  501    0  0.00000000000E+00  0.00000000000E+00  0.38193570357E+03  0.38193570357E+03  0.00000000000E+00 0. -1.
         -1   -1    0    0    0  501 -0.00000000000E+00 -0.00000000000E+00 -0.47091703087E+02  0.47091703087E+02  0.00000000000E+00 0.  1.
         23    2    1    2    0    0 -0.17750655755E+02 -0.45589617213E+02  0.84654931510E+02  0.15868907614E+03  0.12498906544E+03 0.  0.
         23    2    1    2    0    0  0.17750655755E+02  0.45589617213E+02  0.25018906897E+03  0.27033833051E+03  0.89970793790E+02 0.  0.
          5    1    3    3  502    0 -0.11746097341E+02  0.37315242630E+02  0.60143808236E+02  0.71901083472E+02  0.47000000000E+01 0.  1.
         -5    1    3    3    0  502 -0.60045584136E+01 -0.82904859843E+02  0.24511123274E+02  0.86787992669E+02  0.47000000000E+01 0.  1.
        -11    1    4    4    0    0  0.52935838849E+02  0.26394026917E+02  0.18050415373E+03  0.18994893315E+03  0.00000000000E+00 0. -1.
         11    1    4    4    0    0 -0.35185183094E+02  0.19195590296E+02  0.69684915237E+02  0.80389397359E+02  0.00000000000E+00 0.  1.
<mgrwt>
<rscale>  0 0.12544623E+03</rscale>
<asrwt>0</asrwt>
<pdfrwt beam="1">  1        1 0.58759337E-01 0.13422282E+03</pdfrwt>
<pdfrwt beam="2">  1       -1 0.72448776E-02 0.13422282E+03</pdfrwt>
<totfact> 0.61677531E+03</totfact>
</mgrwt>
</event>
<event>
 8    1  0.1020295E-005  0.1275955E+03  0.7546771E-02  0.1245456E+00
          1   -1    0    0  501    0  0.00000000000E+00  0.00000000000E+00  0.48716708475E+02  0.48716708475E+02  0.00000000000E+00 0. -1.
         -1   -1    0    0    0  501 -0.00000000000E+00 -0.00000000000E+00 -0.29060922083E+03  0.29060922083E+03  0.00000000000E+00 0.  1.
         23    2    1    2    0    0 -0.91688838842E+01 -0.23897795670E+02 -0.19546289522E+03  0.23342313414E+03  0.12500177229E+03 0.  0.
         23    2    1    2    0    0  0.91688838842E+01  0.23897795670E+02 -0.46429617138E+02  0.10590279517E+03  0.91676167061E+02 0.  0.
          5    1    3    3  502    0  0.42670796653E+02 -0.26115756134E+02 -0.16628124732E+03  0.17370772239E+03  0.47000000000E+01 0.  1.
         -5    1    3    3    0  502 -0.51839680537E+02  0.22179604644E+01 -0.29181647895E+02  0.59715411752E+02  0.47000000000E+01 0.  1.
        -11    1    4    4    0    0 -0.23143578266E+02 -0.25422473337E+02 -0.73233368550E+01  0.35150513912E+02  0.00000000000E+00 0. -1.
         11    1    4    4    0    0  0.32312462151E+02  0.49320269007E+02 -0.39106280283E+02  0.70752281255E+02  0.00000000000E+00 0.  1.
<mgrwt>
<rscale>  0 0.11858117E+03</rscale>
<asrwt>0</asrwt>
<pdfrwt beam="1">  1        1 0.74948782E-02 0.12759552E+03</pdfrwt>
<pdfrwt beam="2">  1       -1 0.44709111E-01 0.12759552E+03</pdfrwt>
<totfact> 0.45689730E+03</totfact>
</mgrwt>
</event>
<event>
 8    1  0.1020295E-005  0.1403420E+03  0.7546771E-02  0.1224025E+00
         -2   -1    0    0    0  501 -0.00000000000E+00  0.00000000000E+00  0.46694460021E+03  0.46694460021E+03  0.00000000000E+00 0.  1.
          2   -1    0    0  501    0  0.00000000000E+00 -0.00000000000E+00 -0.60823597892E+02  0.60823597892E+02  0.00000000000E+00 0. -1.
         23    2    1    2    0    0  0.39012297894E+02  0.50487990883E+02  0.39143512435E+03  0.41583329104E+03  0.12499949099E+03 0.  0.
         23    2    1    2    0    0 -0.39012297894E+02 -0.50487990883E+02  0.14685877970E+02  0.11193490707E+03  0.90789601820E+02 0.  0.
          5    1    3    3  502    0  0.79439257401E+02  0.78036363915E+01  0.19567647238E+03  0.21138321646E+03  0.47000000000E+01 0.  1.
         -5    1    3    3    0  502 -0.40426959506E+02  0.42684354492E+02  0.19575865197E+03  0.20445007457E+03  0.47000000000E+01 0.  1.
        -11    1    4    4    0    0  0.28644981674E+02 -0.25644995147E+02  0.99028553539E+01  0.39702232876E+02  0.00000000000E+00 0.  1.
         11    1    4    4    0    0 -0.67657279569E+02 -0.24842995736E+02  0.47830226166E+01  0.72232674194E+02  0.00000000000E+00 0. -1.
<mgrwt>
<rscale>  0 0.13233949E+03</rscale>
<asrwt>0</asrwt>
<pdfrwt beam="2">  1        2 0.93574769E-02 0.14034197E+03</pdfrwt>
<pdfrwt beam="1">  1       -2 0.71837628E-01 0.14034197E+03</pdfrwt>
<totfact> 0.12240718E+03</totfact>
</mgrwt>
</event>
<event>
 8    1  0.1020295E-005  0.1345966E+03  0.7546771E-02  0.1233387E+00
          2   -1    0    0  501    0  0.00000000000E+00  0.00000000000E+00  0.22743587850E+03  0.22743587850E+03  0.00000000000E+00 0. -1.
         -2   -1    0    0    0  501 -0.00000000000E+00 -0.00000000000E+00 -0.72287523271E+02  0.72287523271E+02  0.00000000000E+00 0.  1.
         23    2    1    2    0    0 -0.21541818865E+02  0.45025115023E+02  0.31217762239E+02  0.13816943766E+03  0.12499973553E+03 0.  0.
         23    2    1    2    0    0  0.21541818865E+02 -0.45025115023E+02  0.12393059299E+03  0.16155396411E+03  0.90827201310E+02 0.  0.
          5    1    3    3  502    0 -0.56104348346E+02  0.65604489382E+01  0.56835583164E+02  0.80268990944E+02  0.47000000000E+01 0. -1.
         -5    1    3    3    0  502  0.34562529481E+02  0.38464666085E+02 -0.25617820925E+02  0.57900446717E+02  0.47000000000E+01 0. -1.
        -11    1    4    4    0    0 -0.34293592916E+02 -0.27879695332E+02  0.42282239088E+02  0.61164660296E+02  0.00000000000E+00 0.  1.
         11    1    4    4    0    0  0.55835411781E+02 -0.17145419691E+02  0.81648353898E+02  0.10038930381E+03  0.00000000000E+00 0. -1.
<mgrwt>
<rscale>  0 0.12608273E+03</rscale>
<asrwt>0</asrwt>
<pdfrwt beam="1">  1        2 0.34990135E-01 0.13459660E+03</pdfrwt>
<pdfrwt beam="2">  1       -2 0.11121158E-01 0.13459660E+03</pdfrwt>
<totfact> 0.78433343E+03</totfact>
</mgrwt>
</event>
<event>
 8    1  0.1020295E-005  0.2352271E+03  0.7546771E-02  0.1125868E+00
         -1   -1    0    0    0  501 -0.00000000000E+00  0.00000000000E+00  0.98565845863E+02  0.98565845863E+02  0.00000000000E+00 0.  1.
          1   -1    0    0  501    0  0.00000000000E+00 -0.00000000000E+00 -0.61963261135E+03  0.61963261135E+03  0.00000000000E+00 0. -1.
         23    2    1    2    0    0 -0.19271661634E+03  0.50670902187E+02 -0.12706454242E+03  0.26735216949E+03  0.12499820020E+03 0.  0.
         23    2    1    2    0    0  0.19271661634E+03 -0.50670902187E+02 -0.39400222307E+03  0.45084628772E+03  0.91199719439E+02 0.  0.
          5    1    3    3  502    0 -0.61007695554E+02  0.70077501170E+02 -0.17045617567E+02  0.94580326523E+02  0.47000000000E+01 0.  1.
         -5    1    3    3    0  502 -0.13170892078E+03 -0.19406598984E+02 -0.11001892485E+03  0.17277184297E+03  0.47000000000E+01 0.  1.
        -11    1    4    4    0    0  0.32548630265E+02 -0.34042318005E+02 -0.39443069960E+02  0.61433285075E+02  0.00000000000E+00 0.  1.
         11    1    4    4    0    0  0.16016798607E+03 -0.16628584182E+02 -0.35455915312E+03  0.38941300265E+03  0.00000000000E+00 0. -1.
<mgrwt>
<rscale>  0 0.23109923E+03</rscale>
<asrwt>0</asrwt>
<pdfrwt beam="2">  1        1 0.95328092E-01 0.23522709E+03</pdfrwt>
<pdfrwt beam="1">  1       -1 0.15163977E-01 0.23522709E+03</pdfrwt>
<totfact> 0.10630163E+03</totfact>
</mgrwt>
</event>
<event>
 8    1  0.1020295E-005  0.2010596E+03  0.7546771E-02  0.1153213E+00
          1   -1    0    0  501    0  0.00000000000E+00  0.00000000000E+00  0.26452996355E+03  0.26452996355E+03  0.00000000000E+00 0. -1.
         -1   -1    0    0    0  501 -0.00000000000E+00 -0.00000000000E+00 -0.14383301626E+03  0.14383301626E+03  0.00000000000E+00 0.  1.
         23    2    1    2    0    0 -0.68287840579E+02 -0.14190393935E+03  0.22968167988E+02  0.20236721935E+03  0.12499999021E+03 0.  0.
         23    2    1    2    0    0  0.68287840579E+02  0.14190393935E+03  0.97728779306E+02  0.20599576045E+03  0.89907629518E+02 0.  0.
          5    1    3    3  502    0  0.33840186036E+02 -0.49871381824E+02 -0.90678821177E+01  0.61127975609E+02  0.47000000000E+01 0. -1.
         -5    1    3    3    0  502 -0.10212802662E+03 -0.92032557530E+02  0.32036050106E+02  0.14123924374E+03  0.47000000000E+01 0. -1.
        -11    1    4    4    0    0  0.28523198374E+02  0.66957952752E+02  0.96851681057E+02  0.12114944658E+03  0.00000000000E+00 0. -1.
         11    1    4    4    0    0  0.39764642205E+02  0.74945986602E+02  0.87709824953E+00  0.84846313879E+02  0.00000000000E+00 0.  1.
<mgrwt>
<rscale>  0 0.19593660E+03</rscale>
<asrwt>0</asrwt>
<pdfrwt beam="1">  1        1 0.40696917E-01 0.20105958E+03</pdfrwt>
<pdfrwt beam="2">  1       -1 0.22128156E-01 0.20105958E+03</pdfrwt>
<totfact> 0.17394179E+03</totfact>
</mgrwt>
</event>
<event>
 8    1  0.1020295E-005  0.1432832E+03  0.7546771E-02  0.1219557E+00
          3   -1    0    0  501    0  0.00000000000E+00  0.00000000000E+00  0.56023441054E+03  0.56023441054E+03  0.00000000000E+00 0. -1.
         -3   -1    0    0    0  501 -0.00000000000E+00 -0.00000000000E+00 -0.30302023004E+02  0.30302023004E+02  0.00000000000E+00 0.  1.
         23    2    1    2    0    0 -0.19779008311E+02 -0.67193033568E+02  0.25097919967E+03  0.28899938448E+03  0.12499589046E+03 0.  0.
         23    2    1    2    0    0  0.19779008311E+02  0.67193033568E+02  0.27895318787E+03  0.30153704907E+03  0.90573715888E+02 0.  0.
          5    1    3    3  502    0 -0.70174880345E+02 -0.59418101843E+02  0.16027491169E+03  0.18483820486E+03  0.47000000000E+01 0. -1.
         -5    1    3    3    0  502  0.50395872034E+02 -0.77749317249E+01  0.90704287981E+02  0.10416117962E+03  0.47000000000E+01 0. -1.
        -11    1    4    4    0    0  0.35052812834E+02  0.55240608614E+02  0.27374640064E+03  0.28145570947E+03  0.00000000000E+00 0. -1.
         11    1    4    4    0    0 -0.15273804522E+02  0.11952424954E+02  0.52067872223E+01  0.20081339598E+02  0.00000000000E+00 0.  1.
<mgrwt>
<rscale>  0 0.13547079E+03</rscale>
<asrwt>0</asrwt>
<pdfrwt beam="1">  1        3 0.86189902E-01 0.14328324E+03</pdfrwt>
<pdfrwt beam="2">  1       -3 0.46618501E-02 0.14328324E+03</pdfrwt>
<totfact> 0.75285784E+02</totfact>
</mgrwt>
</event>
<event>
 7    1  0.1020295E-005  0.1492963E+03  0.7546771E-02  0.1216577E+00
          1   -1    0    0  501    0  0.00000000000E+00  0.00000000000E+00  0.37724743770E+03  0.37724743770E+03  0.00000000000E+00 0. -1.
         -1   -1    0    0    0  501 -0.00000000000E+00 -0.00000000000E+00 -0.43811513207E+02  0.43811513207E+02  0.00000000000E+00 0.  1.
         23    2    1    2    0    0  0.25713730086E+02 -0.38640838334E+02  0.14406589775E+03  0.17991503821E+03  0.97263188196E+02 0.  0.
          5    1    1    2  502    0  0.23372988072E+00 -0.14789333020E+02 -0.18936260378E+02  0.24483687588E+02  0.47000000000E+01 0. -1.
         -5    1    1    2    0  502 -0.25947459967E+02  0.53430171354E+02  0.20830628711E+03  0.21666022510E+03  0.47000000000E+01 0.  1.
        -11    1    3    3    0    0  0.89623719728E+01  0.27266549862E+02  0.11490613938E+02  0.30916388234E+02  0.00000000000E+00 0.  1.
         11    1    3    3    0    0  0.16751358114E+02 -0.65907388196E+02  0.13257528381E+03  0.14899864998E+03  0.00000000000E+00 0. -1.
<mgrwt>
<rscale>  0 0.13761365E+03</rscale>
<asrwt>0</asrwt>
<pdfrwt beam="1">  1        1 0.58038065E-01 0.14929628E+03</pdfrwt>
<pdfrwt beam="2">  1       -1 0.67402331E-02 0.14929628E+03</pdfrwt>
<totfact> 0.70264628E+03</totfact>
</mgrwt>
</event>
<event>
 8    1  0.1020295E-005  0.1425434E+03  0.7546771E-02  0.1219997E+00
         -2   -1    0    0    0  501 -0.00000000000E+00  0.00000000000E+00  0.34020938395E+02  0.34020938395E+02  0.00000000000E+00 0.  1.
          2   -1    0    0  501    0  0.00000000000E+00 -0.00000000000E+00 -0.48840227326E+03  0.48840227326E+03  0.00000000000E+00 0. -1.
         23    2    1    2    0    0 -0.68304184185E+02 -0.53792119657E+01 -0.25598743776E+03  0.29299862379E+03  0.12499691099E+03 0.  0.
         23    2    1    2    0    0  0.68304184185E+02  0.53792119657E+01 -0.19839389711E+03  0.22942458786E+03  0.92634257204E+02 0.  0.
          5    1    3    3  502    0  0.28527031353E+02 -0.54198104503E+00 -0.13713775176E+02  0.32003794944E+02  0.47000000000E+01 0. -1.
         -5    1    3    3    0  502 -0.96831215538E+02 -0.48372309207E+01 -0.24227366258E+03  0.26099482885E+03  0.47000000000E+01 0. -1.
        -11    1    4    4    0    0  0.12020897973E+02  0.39553563594E+02 -0.12069006164E+03  0.12757381141E+03  0.00000000000E+00 0. -1.
         11    1    4    4    0    0  0.56283286212E+02 -0.34174351628E+02 -0.77703835471E+02  0.10185077645E+03  0.00000000000E+00 0.  1.
<mgrwt>
<rscale>  0 0.13515800E+03</rscale>
<asrwt>0</asrwt>
<pdfrwt beam="2">  1        2 0.75138807E-01 0.14254342E+03</pdfrwt>
<pdfrwt beam="1">  1       -2 0.52339908E-02 0.14254342E+03</pdfrwt>
<totfact> 0.11127851E+04</totfact>
</mgrwt>
</event>
<event>
 8    1  0.1020295E-005  0.1937111E+03  0.7546771E-02  0.1159771E+00
          1   -1    0    0  501    0  0.00000000000E+00  0.00000000000E+00  0.19736917542E+03  0.19736917542E+03  0.00000000000E+00 0. -1.
         -1   -1    0    0    0  501 -0.00000000000E+00 -0.00000000000E+00 -0.21907028689E+03  0.21907028689E+03  0.00000000000E+00 0.  1.
         23    2    1    2    0    0  0.14687766808E+03 -0.17991954184E+02 -0.10855948173E+03  0.22205665544E+03  0.12500894911E+03 0.  0.
         23    2    1    2    0    0 -0.14687766808E+03  0.17991954184E+02  0.86858370259E+02  0.19438280687E+03  0.91342976325E+02 0.  0.
          5    1    3    3  502    0  0.48967225399E+02 -0.58697012064E+02 -0.10037964748E+02  0.77239750937E+02  0.47000000000E+01 0. -1.
         -5    1    3    3    0  502  0.97910442684E+02  0.40705057880E+02 -0.98521516977E+02  0.14481690451E+03  0.47000000000E+01 0. -1.
        -11    1    4    4    0    0 -0.96553490977E+02 -0.25427345200E+02  0.79266280113E+02  0.12748438989E+03  0.00000000000E+00 0.  1.
         11    1    4    4    0    0 -0.50324177106E+02  0.43419299384E+02  0.75920901452E+01  0.66898416971E+02  0.00000000000E+00 0. -1.
<mgrwt>
<rscale>  0 0.18855549E+03</rscale>
<asrwt>0</asrwt>
<pdfrwt beam="1">  1        1 0.30364489E-01 0.19371112E+03</pdfrwt>
<pdfrwt beam="2">  1       -1 0.33703121E-01 0.19371112E+03</pdfrwt>
<totfact> 0.12388505E+03</totfact>
</mgrwt>
</event>
<event>
 8    1  0.1020295E-005  0.1461222E+03  0.7546771E-02  0.1214943E+00
         -1   -1    0    0    0  501 -0.00000000000E+00  0.00000000000E+00  0.55424564866E+03  0.55424564866E+03  0.00000000000E+00 0.  1.
          1   -1    0    0  501    0  0.00000000000E+00 -0.00000000000E+00 -0.33206939006E+02  0.33206939006E+02  0.00000000000E+00 0. -1.
         23    2    1    2    0    0 -0.70529958509E+02  0.27434638704E+02  0.34819347910E+03  0.37761143827E+03  0.12499825988E+03 0.  0.
         23    2    1    2    0    0  0.70529958509E+02 -0.27434638704E+02  0.17284523055E+03  0.20984114940E+03  0.91818842340E+02 0.  0.
          5    1    3    3  502    0 -0.10609863679E+03  0.26831037621E+02  0.24549570927E+03  0.26882533098E+03  0.47000000000E+01 0.  1.
         -5    1    3    3    0  502  0.35568678282E+02  0.60360108332E+00  0.10269776984E+03  0.10878610729E+03  0.47000000000E+01 0.  1.
        -11    1    4    4    0    0  0.13313928056E+02 -0.24352824910E+02  0.14215808849E+03  0.14484213091E+03  0.00000000000E+00 0.  1.
         11    1    4    4    0    0  0.57216030453E+02 -0.30818137940E+01  0.30687142053E+02  0.64999018489E+02  0.00000000000E+00 0. -1.
<mgrwt>
<rscale>  0 0.13880713E+03</rscale>
<asrwt>0</asrwt>
<pdfrwt beam="2">  1        1 0.51087603E-02 0.14612221E+03</pdfrwt>
<pdfrwt beam="1">  1       -1 0.85268555E-01 0.14612221E+03</pdfrwt>
<totfact> 0.22410835E+03</totfact>
</mgrwt>
</event>
<event>
 8    1  0.1020295E-005  0.1396558E+03  0.7546771E-02  0.1224297E+00
         -1   -1    0    0    0  501 -0.00000000000E+00  0.00000000000E+00  0.21204520151E+02  0.21204520151E+02  0.00000000000E+00 0.  1.
          1   -1    0    0  501    0  0.00000000000E+00 -0.00000000000E+00 -0.74777103229E+03  0.74777103229E+03  0.00000000000E+00 0. -1.
         23    2    1    2    0    0 -0.74559015052E+02 -0.29893175063E+02 -0.38749300378E+03  0.41189145471E+03  0.11424138411E+03 0.  0.
         23    2    1    2    0    0  0.74559015052E+02  0.29893175063E+02 -0.33907350835E+03  0.35708409773E+03  0.78010000264E+02 0.  0.
          5    1    3    3  502    0 -0.25981890218E+02  0.40139242137E+02 -0.85586353824E+02  0.98149535605E+02  0.47000000000E+01 0. -1.
         -5    1    3    3    0  502 -0.48577124833E+02 -0.70032417200E+02 -0.30190664996E+03  0.31374191911E+03  0.47000000000E+01 0.  1.
        -11    1    4    4    0    0  0.11328599081E+02  0.45429525868E+02 -0.13701478844E+03  0.14479375411E+03  0.00000000000E+00 0. -1.
         11    1    4    4    0    0  0.63230415971E+02 -0.15536350805E+02 -0.20205871992E+03  0.21229034362E+03  0.00000000000E+00 0.  1.
<mgrwt>
<rscale>  0 0.13215198E+03</rscale>
<asrwt>0</asrwt>
<pdfrwt beam="2">  1        1 0.11504171E+00 0.13965580E+03</pdfrwt>
<pdfrwt beam="1">  1       -1 0.32622336E-02 0.13965580E+03</pdfrwt>
<totfact> 0.82048681E+03</totfact>
</mgrwt>
</event>
<event>
 8    1  0.1020295E-005  0.2384586E+03  0.7546771E-02  0.1123637E+00
         -1   -1    0    0    0  501 -0.00000000000E+00  0.00000000000E+00  0.27404639241E+03  0.27404639241E+03  0.00000000000E+00 0.  1.
          1   -1    0    0  501    0  0.00000000000E+00 -0.00000000000E+00 -0.71016727651E+03  0.71016727651E+03  0.00000000000E+00 0. -1.
         23    2    1    2    0    0 -0.14244427055E+03 -0.14494886295E+03  0.19945414001E+03  0.31087693440E+03  0.12474763040E+03 0.  0.
         23    2    1    2    0    0  0.14244427055E+03  0.14494886295E+03 -0.63557502411E+03  0.67333673453E+03  0.90145458667E+02 0.  0.
          5    1    3    3  502    0 -0.51016174979E+02 -0.22138149563E+02  0.13236630460E+03  0.14365123170E+03  0.47000000000E+01 0. -1.
         -5    1    3    3    0  502 -0.91428095569E+02 -0.12281071339E+03  0.67087835404E+02  0.16722570269E+03  0.47000000000E+01 0.  1.
        -11    1    4    4    0    0 -0.15314303829E+01  0.41373513527E+02 -0.17402715000E+03  0.17888421349E+03  0.00000000000E+00 0.  1.
         11    1    4    4    0    0  0.14397570093E+03  0.10357534942E+03 -0.46154787411E+03  0.49445252104E+03  0.00000000000E+00 0. -1.
<mgrwt>
<rscale>  0 0.23431766E+03</rscale>
<asrwt>0</asrwt>
<pdfrwt beam="2">  1        1 0.10925651E+00 0.23845862E+03</pdfrwt>
<pdfrwt beam="1">  1       -1 0.42160983E-01 0.23845862E+03</pdfrwt>
<totfact> 0.15765394E+02</totfact>
</mgrwt>
</event>
<event>
 8    1  0.1020295E-005  0.1704082E+03  0.7546771E-02  0.1182945E+00
          2   -1    0    0  501    0  0.00000000000E+00  0.00000000000E+00  0.93012301381E+02  0.93012301381E+02  0.00000000000E+00 0. -1.
         -2   -1    0    0    0  501 -0.00000000000E+00 -0.00000000000E+00 -0.33286495385E+03  0.33286495385E+03  0.00000000000E+00 0.  1.
         23    2    1    2    0    0  0.97913066799E+02 -0.60705353453E+02 -0.21333376196E+03  0.27303893780E+03  0.12556615377E+03 0.  0.
         23    2    1    2    0    0 -0.97913066799E+02  0.60705353453E+02 -0.26518890509E+02  0.15283831744E+03  0.96872034845E+02 0.  0.
          5    1    3    3  502    0  0.92474372275E+01 -0.70847703202E+02 -0.14072107062E+03  0.15789053759E+03  0.47000000000E+01 0.  1.
         -5    1    3    3    0  502  0.88665629572E+02  0.10142349749E+02 -0.72612691337E+02  0.11514840020E+03  0.47000000000E+01 0.  1.
        -11    1    4    4    0    0 -0.11666880727E+03  0.44419592353E+02 -0.28051415632E+02  0.12795152478E+03  0.00000000000E+00 0. -1.
         11    1    4    4    0    0  0.18755740474E+02  0.16285761100E+02  0.15325251224E+01  0.24886792654E+02  0.00000000000E+00 0.  1.
<mgrwt>
<rscale>  0 0.16520248E+03</rscale>
<asrwt>0</asrwt>
<pdfrwt beam="1">  1        2 0.14309585E-01 0.17040824E+03</pdfrwt>
<pdfrwt beam="2">  1       -2 0.51209993E-01 0.17040824E+03</pdfrwt>
<totfact> 0.14833547E+03</totfact>
</mgrwt>
</event>
<event>
 8    1  0.1020295E-005  0.1173674E+03  0.7546771E-02  0.1254537E+00
          3   -1    0    0  501    0  0.00000000000E+00  0.00000000000E+00  0.72629925760E+02  0.72629925760E+02  0.00000000000E+00 0. -1.
         -3   -1    0    0    0  501 -0.00000000000E+00 -0.00000000000E+00 -0.16569910301E+03  0.16569910301E+03  0.00000000000E+00 0.  1.
         23    2    1    2    0    0 -0.30922619474E+02 -0.15853644452E+02 -0.51799169075E+02  0.12828977453E+03  0.11210515553E+03 0.  0.
         23    2    1    2    0    0  0.30922619474E+02  0.15853644452E+02 -0.41270008178E+02  0.11003925424E+03  0.95905565328E+02 0.  0.
          5    1    3    3  502    0 -0.36683362414E+02 -0.57125773334E+02 -0.94764428986E+01  0.68708922470E+02  0.47000000000E+01 0. -1.
         -5    1    3    3    0  502  0.57607429403E+01  0.41272128882E+02 -0.42322726176E+02  0.59580852064E+02  0.47000000000E+01 0.  1.
        -11    1    4    4    0    0  0.55457579434E+02 -0.16742877987E+02 -0.10348063115E+02  0.58846830758E+02  0.00000000000E+00 0.  1.
         11    1    4    4    0    0 -0.24534959961E+02  0.32596522439E+02 -0.30921945062E+02  0.51192423481E+02  0.00000000000E+00 0. -1.
<mgrwt>
<rscale>  0 0.11332302E+03</rscale>
<asrwt>0</asrwt>
<pdfrwt beam="1">  1        3 0.11173835E-01 0.11736742E+03</pdfrwt>
<pdfrwt beam="2">  1       -3 0.25492170E-01 0.11736742E+03</pdfrwt>
<totfact> 0.19840350E+03</totfact>
</mgrwt>
</event>
<event>
 8    1  0.1020295E-005  0.1335955E+03  0.7546771E-02  0.1235300E+00
          2   -1    0    0  501    0  0.00000000000E+00  0.00000000000E+00  0.12700688492E+03  0.12700688492E+03  0.00000000000E+00 0.  1.
         -2   -1    0    0    0  501 -0.00000000000E+00 -0.00000000000E+00 -0.10935182619E+03  0.10935182619E+03  0.00000000000E+00 0. -1.
         23    2    1    2    0    0  0.46141820057E+02  0.96837960156E+01  0.52636757008E+01  0.13369915274E+03  0.12499965479E+03 0.  0.
         23    2    1    2    0    0 -0.46141820057E+02 -0.96837960156E+01  0.12391383034E+02  0.10265955838E+03  0.90347081242E+02 0.  0.
          5    1    3    3  502    0  0.53460823852E+02 -0.30769178956E+02  0.44869966450E+02  0.76421240174E+02  0.47000000000E+01 0.  1.
         -5    1    3    3    0  502 -0.73190037946E+01  0.40452974971E+02 -0.39606290749E+02  0.57277912562E+02  0.47000000000E+01 0.  1.
        -11    1    4    4    0    0 -0.11054414825E+02 -0.47034372680E+02  0.16968910612E+02  0.51209142034E+02  0.00000000000E+00 0.  1.
         11    1    4    4    0    0 -0.35087405232E+02  0.37350576664E+02 -0.45775275782E+01  0.51450416342E+02  0.00000000000E+00 0. -1.
<mgrwt>
<rscale>  0 0.12485242E+03</rscale>
<asrwt>0</asrwt>
<pdfrwt beam="1">  1        2 0.19539521E-01 0.13359550E+03</pdfrwt>
<pdfrwt beam="2">  1       -2 0.16823358E-01 0.13359550E+03</pdfrwt>
<totfact> 0.76103024E+03</totfact>
</mgrwt>
</event>
<event>
 8    1  0.1020295E-005  0.1316778E+03  0.7546771E-02  0.1244940E+00
          1   -1    0    0  501    0  0.00000000000E+00  0.00000000000E+00  0.67822707972E+02  0.67822707972E+02  0.00000000000E+00 0. -1.
         -1   -1    0    0    0  501 -0.00000000000E+00 -0.00000000000E+00 -0.18854376788E+03  0.18854376788E+03  0.00000000000E+00 0.  1.
         23    2    1    2    0    0 -0.39766763811E+02  0.11496316557E+02 -0.10277853425E+03  0.16704031797E+03  0.12500191969E+03 0.  0.
         23    2    1    2    0    0  0.39766763811E+02 -0.11496316557E+02 -0.17942525652E+02  0.89326157878E+02  0.77095184390E+02 0.  0.
          5    1    3    3  502    0  0.11306046828E+02 -0.19566746669E+02 -0.10453466585E+03  0.10705265356E+03  0.47000000000E+01 0. -1.
         -5    1    3    3    0  502 -0.51072810639E+02  0.31063063225E+02  0.17561315947E+01  0.59987664413E+02  0.47000000000E+01 0. -1.
        -11    1    4    4    0    0  0.55478826036E+01  0.30970587755E+02 -0.14600208267E+02  0.34686054672E+02  0.00000000000E+00 0. -1.
         11    1    4    4    0    0  0.34218881207E+02 -0.42466904311E+02 -0.33423173845E+01  0.54640103206E+02  0.00000000000E+00 0.  1.
<mgrwt>
<rscale>  0 0.11888946E+03</rscale>
<asrwt>0</asrwt>
<pdfrwt beam="1">  1        1 0.10434263E-01 0.13167779E+03</pdfrwt>
<pdfrwt beam="2">  1       -1 0.29006733E-01 0.13167779E+03</pdfrwt>
<totfact> 0.62112167E+03</totfact>
</mgrwt>
</event>
<event>
 8    1  0.1020295E-005  0.1185764E+03  0.7546771E-02  0.1255802E+00
         -1   -1    0    0    0  501 -0.00000000000E+00  0.00000000000E+00  0.51194541174E+02  0.51194541174E+02  0.00000000000E+00 0.  1.
          1   -1    0    0  501    0  0.00000000000E+00 -0.00000000000E+00 -0.48959620816E+03  0.48959620816E+03  0.00000000000E+00 0. -1.
         23    2    1    2    0    0  0.19676269463E+02 -0.27782928702E+02 -0.31611427290E+02  0.12271770188E+03  0.11358391309E+03 0.  0.
         23    2    1    2    0    0 -0.19676269463E+02  0.27782928702E+02 -0.40679023969E+03  0.41807304745E+03  0.90264761598E+02 0.  0.
          5    1    3    3  502    0  0.61953016346E+02 -0.62173321158E+01 -0.40194642616E+02  0.74259886534E+02  0.47000000000E+01 0. -1.
         -5    1    3    3    0  502 -0.42276746883E+02 -0.21565596587E+02  0.85832153255E+01  0.48457815350E+02  0.47000000000E+01 0.  1.
        -11    1    4    4    0    0 -0.46365920778E+02 -0.12594081874E+02 -0.20739420186E+03  0.21288674095E+03  0.00000000000E+00 0. -1.
         11    1    4    4    0    0  0.26689651315E+02  0.40377010576E+02 -0.19939603783E+03  0.20518630649E+03  0.00000000000E+00 0.  1.
<mgrwt>
<rscale>  0 0.11261558E+03</rscale>
<asrwt>0</asrwt>
<pdfrwt beam="2">  1        1 0.75322491E-01 0.11857636E+03</pdfrwt>
<pdfrwt beam="1">  1       -1 0.78760835E-02 0.11857636E+03</pdfrwt>
<totfact> 0.39409274E+03</totfact>
</mgrwt>
</event>
<event>
 8    1  0.1020295E-005  0.1388474E+03  0.7546771E-02  0.1226112E+00
          3   -1    0    0  501    0  0.00000000000E+00  0.00000000000E+00  0.20319969936E+03  0.20319969936E+03  0.00000000000E+00 0. -1.
         -3   -1    0    0    0  501 -0.00000000000E+00 -0.00000000000E+00 -0.11405400123E+03  0.11405400123E+03  0.00000000000E+00 0.  1.
         23    2    1    2    0    0  0.18902991569E+02 -0.57420605052E+02 -0.43134174261E+02  0.14539314608E+03  0.12499664380E+03 0.  0.
         23    2    1    2    0    0 -0.18902991569E+02  0.57420605052E+02  0.13227987239E+03  0.17186055451E+03  0.91562200619E+02 0.  0.
          5    1    3    3  502    0  0.64740152352E+02 -0.28597799086E+02 -0.55008269568E+02  0.89761468125E+02  0.47000000000E+01 0. -1.
         -5    1    3    3    0  502 -0.45837160783E+02 -0.28822805966E+02  0.11874095307E+02  0.55631677952E+02  0.47000000000E+01 0. -1.
        -11    1    4    4    0    0  0.33220666835E+02  0.31063438438E+02  0.86202559260E+02  0.97465025191E+02  0.00000000000E+00 0.  1.
         11    1    4    4    0    0 -0.52123658404E+02  0.26357166613E+02  0.46077313129E+02  0.74395529318E+02  0.00000000000E+00 0. -1.
<mgrwt>
<rscale>  0 0.13091008E+03</rscale>
<asrwt>0</asrwt>
<pdfrwt beam="1">  1        3 0.31261492E-01 0.13884743E+03</pdfrwt>
<pdfrwt beam="2">  1       -3 0.17546769E-01 0.13884743E+03</pdfrwt>
<totfact> 0.65247678E+02</totfact>
</mgrwt>
</event>
<event>
 8    1  0.1020295E-005  0.1266217E+03  0.7546771E-02  0.1254546E+00
          1   -1    0    0  501    0  0.00000000000E+00  0.00000000000E+00  0.12781116593E+03  0.12781116593E+03  0.00000000000E+00 0. -1.
         -1   -1    0    0    0  501 -0.00000000000E+00 -0.00000000000E+00 -0.86906722283E+02  0.86906722283E+02  0.00000000000E+00 0.  1.
         23    2    1    2    0    0 -0.69264827566E+01 -0.18922504771E+02  0.42249995166E+02  0.13348455288E+03  0.12500810540E+03 0.  0.
         23    2    1    2    0    0  0.69264827566E+01  0.18922504771E+02 -0.13455515158E+01  0.81233335337E+02  0.78682951845E+02 0.  0.
          5    1    3    3  502    0 -0.16631834244E+02 -0.70839312576E+02  0.31246132834E+02  0.79329924578E+02  0.47000000000E+01 0. -1.
         -5    1    3    3    0  502  0.97053514877E+01  0.51916807804E+02  0.11003862331E+02  0.54154628300E+02  0.47000000000E+01 0. -1.
        -11    1    4    4    0    0  0.11026270882E+02 -0.26555619855E+02 -0.16463207660E+02  0.33133318607E+02  0.00000000000E+00 0.  1.
         11    1    4    4    0    0 -0.40997881250E+01  0.45478124626E+02  0.15117656144E+02  0.48100016731E+02  0.00000000000E+00 0. -1.
<mgrwt>
<rscale>  0 0.11331825E+03</rscale>
<asrwt>0</asrwt>
<pdfrwt beam="1">  1        1 0.19663256E-01 0.12662173E+03</pdfrwt>
<pdfrwt beam="2">  1       -1 0.13370265E-01 0.12662173E+03</pdfrwt>
<totfact> 0.94374212E+03</totfact>
</mgrwt>
</event>
<event>
 8    1  0.1020295E-005  0.1698032E+03  0.7546771E-02  0.1183948E+00
          2   -1    0    0  501    0  0.00000000000E+00  0.00000000000E+00  0.87640376509E+03  0.87640376509E+03  0.00000000000E+00 0. -1.
         -2   -1    0    0    0  501 -0.00000000000E+00 -0.00000000000E+00 -0.34646965386E+02  0.34646965386E+02  0.00000000000E+00 0.  1.
         23    2    1    2    0    0  0.49143671661E+02 -0.10388544378E+03  0.25971329144E+03  0.31029682223E+03  0.12500335292E+03 0.  0.
         23    2    1    2    0    0 -0.49143671661E+02  0.10388544378E+03  0.58204350826E+03  0.60075390824E+03  0.94463362562E+02 0.  0.
          5    1    3    3  502    0  0.83727909794E+02 -0.97036621519E+02  0.23244451496E+03  0.26547883406E+03  0.47000000000E+01 0.  1.
         -5    1    3    3    0  502 -0.34584238134E+02 -0.68488222638E+01  0.27268776480E+02  0.44817988179E+02  0.47000000000E+01 0.  1.
        -11    1    4    4    0    0 -0.54292521968E+02  0.22233933873E+02  0.34588207910E+03  0.35082251695E+03  0.00000000000E+00 0. -1.
         11    1    4    4    0    0  0.51488503072E+01  0.81651509910E+02  0.23616142916E+03  0.24993139129E+03  0.00000000000E+00 0.  1.
<mgrwt>
<rscale>  0 0.16427957E+03</rscale>
<asrwt>0</asrwt>
<pdfrwt beam="1">  1        2 0.13483133E+00 0.16980319E+03</pdfrwt>
<pdfrwt beam="2">  1       -2 0.53303030E-02 0.16980319E+03</pdfrwt>
<totfact> 0.54831863E+03</totfact>
</mgrwt>
</event>
<event>
 8    1  0.1020295E-005  0.2397807E+03  0.7546771E-02  0.1122197E+00
         -1   -1    0    0    0  501 -0.00000000000E+00  0.00000000000E+00  0.24215225161E+02  0.24215225161E+02  0.00000000000E+00 0.  1.
          1   -1    0    0  501    0  0.00000000000E+00 -0.00000000000E+00 -0.23140085174E+04  0.23140085174E+04  0.00000000000E+00 0. -1.
         23    2    1    2    0    0 -0.11367742168E+02 -0.20430378306E+03 -0.13765631029E+04  0.13972904985E+04  0.12500199916E+03 0.  0.
         23    2    1    2    0    0  0.11367742168E+02  0.20430378306E+03 -0.91323018939E+03  0.94093324404E+03  0.97451165158E+02 0.  0.
          5    1    3    3  502    0  0.56433766302E+02 -0.91165554566E+02 -0.66140494974E+03  0.67005561401E+03  0.47000000000E+01 0.  1.
         -5    1    3    3    0  502 -0.67801508470E+02 -0.11313822850E+03 -0.71515815311E+03  0.72723488452E+03  0.47000000000E+01 0.  1.
        -11    1    4    4    0    0  0.43809405200E+02  0.46646369435E+02 -0.21092576379E+03  0.22041965792E+03  0.00000000000E+00 0. -1.
         11    1    4    4    0    0 -0.32441663032E+02  0.15765741363E+03 -0.70230442560E+03  0.72051358612E+03  0.00000000000E+00 0.  1.
<mgrwt>
<rscale>  0 0.23642591E+03</rscale>
<asrwt>0</asrwt>
<pdfrwt beam="2">  1        1 0.35600127E+00 0.23978065E+03</pdfrwt>
<pdfrwt beam="1">  1       -1 0.37254197E-02 0.23978065E+03</pdfrwt>
<totfact> 0.57803454E+02</totfact>
</mgrwt>
</event>
<event>
 8    1  0.1020295E-005  0.1381615E+03  0.7546771E-02  0.1226818E+00
         -2   -1    0    0    0  501 -0.00000000000E+00  0.00000000000E+00  0.39012899970E+03  0.39012899970E+03  0.00000000000E+00 0. -1.
          2   -1    0    0  501    0  0.00000000000E+00 -0.00000000000E+00 -0.39441156250E+02  0.39441156250E+02  0.00000000000E+00 0.  1.
         23    2    1    2    0    0 -0.17431443546E+01 -0.58826879154E+02  0.18707381097E+03  0.23256226120E+03  0.12499981729E+03 0.  0.
         23    2    1    2    0    0  0.17431443546E+01  0.58826879154E+02  0.16361403248E+03  0.19700789475E+03  0.92622452483E+02 0.  0.
          5    1    3    3  502    0  0.60039984761E+02 -0.33843588561E+02  0.11604429458E+03  0.13505020015E+03  0.47000000000E+01 0.  1.
         -5    1    3    3    0  502 -0.61783129115E+02 -0.24983290593E+02  0.71029516385E+02  0.97512061049E+02  0.47000000000E+01 0.  1.
        -11    1    4    4    0    0  0.10987045736E+02  0.54431698753E+02  0.17386765649E+03  0.18251982625E+03  0.00000000000E+00 0. -1.
         11    1    4    4    0    0 -0.92439013815E+01  0.43951804009E+01 -0.10253624003E+02  0.14488068495E+02  0.00000000000E+00 0.  1.
<mgrwt>
<rscale>  0 0.13043078E+03</rscale>
<asrwt>0</asrwt>
<pdfrwt beam="2">  1        2 0.60678705E-02 0.13816148E+03</pdfrwt>
<pdfrwt beam="1">  1       -2 0.60019843E-01 0.13816148E+03</pdfrwt>
<totfact> 0.30801607E+03</totfact>
</mgrwt>
</event>
<event>
 8    1  0.1020295E-005  0.1653745E+03  0.7546771E-02  0.1190120E+00
         -2   -1    0    0    0  501 -0.00000000000E+00  0.00000000000E+00  0.54404043675E+02  0.54404043675E+02  0.00000000000E+00 0. -1.
          2   -1    0    0  501    0  0.00000000000E+00 -0.00000000000E+00 -0.45858250459E+03  0.45858250459E+03  0.00000000000E+00 0.  1.
         23    2    1    2    0    0 -0.90612800398E+02 -0.59267188511E+02 -0.15335386658E+03  0.22553522609E+03  0.12500180232E+03 0.  0.
         23    2    1    2    0    0  0.90612800398E+02  0.59267188511E+02 -0.25082459433E+03  0.28745132217E+03  0.89398021597E+02 0.  0.
          5    1    3    3  502    0 -0.55383748624E+02 -0.81908980458E+02 -0.43968444145E+02  0.10831322529E+03  0.47000000000E+01 0. -1.
         -5    1    3    3    0  502 -0.35229051774E+02  0.22641791948E+02 -0.10938542243E+03  0.11722200080E+03  0.47000000000E+01 0. -1.
        -11    1    4    4    0    0  0.27844237008E+02  0.50800154678E+02 -0.48847354533E+02  0.75776126153E+02  0.00000000000E+00 0. -1.
         11    1    4    4    0    0  0.62768563390E+02  0.84670338326E+01 -0.20197723980E+03  0.21167519602E+03  0.00000000000E+00 0.  1.
<mgrwt>
<rscale>  0 0.15874564E+03</rscale>
<asrwt>0</asrwt>
<pdfrwt beam="2">  1        2 0.70551155E-01 0.16537451E+03</pdfrwt>
<pdfrwt beam="1">  1       -2 0.83698528E-02 0.16537451E+03</pdfrwt>
<totfact> 0.58651951E+03</totfact>
</mgrwt>
</event>
<event>
 8    1  0.1020295E-005  0.1255067E+03  0.7546771E-02  0.1248190E+00
          1   -1    0    0  501    0  0.00000000000E+00  0.00000000000E+00  0.15046540008E+03  0.15046540008E+03  0.00000000000E+00 0. -1.
         -1   -1    0    0    0  501 -0.00000000000E+00 -0.00000000000E+00 -0.85221848279E+02  0.85221848279E+02  0.00000000000E+00 0.  1.
         23    2    1    2    0    0 -0.40050366357E+01 -0.10523984047E+02  0.95959361814E+01  0.12587304455E+03  0.12500058718E+03 0.  0.
         23    2    1    2    0    0  0.40050366357E+01  0.10523984047E+02  0.55647615621E+02  0.10981420381E+03  0.93998445065E+02 0.  0.
          5    1    3    3  502    0  0.30193205218E+02  0.15894420191E+02 -0.44629654042E+02  0.56375156359E+02  0.47000000000E+01 0. -1.
         -5    1    3    3    0  502 -0.34198241854E+02 -0.26418404239E+02  0.54225590224E+02  0.69497888195E+02  0.47000000000E+01 0. -1.
        -11    1    4    4    0    0 -0.28447887078E+02  0.47608457418E+01 -0.14518950786E+02  0.32291606700E+02  0.00000000000E+00 0.  1.
         11    1    4    4    0    0  0.32452923713E+02  0.57631383054E+01  0.70166566407E+02  0.77522597106E+02  0.00000000000E+00 0. -1.
<mgrwt>
<rscale>  0 0.11696447E+03</rscale>
<asrwt>0</asrwt>
<pdfrwt beam="1">  1        1 0.23148523E-01 0.12550674E+03</pdfrwt>
<pdfrwt beam="2">  1       -1 0.13111054E-01 0.12550674E+03</pdfrwt>
<totfact> 0.79103244E+03</totfact>
</mgrwt>
</event>
<event>
 8    1  0.1020295E-005  0.1838017E+03  0.7546771E-02  0.1168717E+00
          2   -1    0    0  501    0  0.00000000000E+00  0.00000000000E+00  0.17096989815E+04  0.17096989815E+04  0.00000000000E+00 0. -1.
         -2   -1    0    0    0  501 -0.00000000000E+00 -0.00000000000E+00 -0.18001224580E+02  0.18001224580E+02  0.00000000000E+00 0.  1.
         23    2    1    2    0    0 -0.13278663643E+03  0.22963704083E+02  0.80969943696E+03  0.83029888156E+03  0.12499372780E+03 0.  0.
         23    2    1    2    0    0  0.13278663643E+03 -0.22963704083E+02  0.88199831992E+03  0.89740132448E+03  0.96169009130E+02 0.  0.
          5    1    3    3  502    0 -0.57125968175E+02 -0.95671073884E+01  0.98751868798E+02  0.11458153156E+03  0.47000000000E+01 0. -1.
         -5    1    3    3    0  502 -0.75660668255E+02  0.32530811471E+02  0.71094756816E+03  0.71571735000E+03  0.47000000000E+01 0. -1.
        -11    1    4    4    0    0  0.65179423959E+02 -0.59119196610E+02  0.42467847982E+03  0.43369949036E+03  0.00000000000E+00 0. -1.
         11    1    4    4    0    0  0.67607212470E+02  0.36155492528E+02  0.45731984010E+03  0.46370183412E+03  0.00000000000E+00 0.  1.
<mgrwt>
<rscale>  0 0.17905933E+03</rscale>
<asrwt>0</asrwt>
<pdfrwt beam="1">  1        2 0.26303048E+00 0.18380167E+03</pdfrwt>
<pdfrwt beam="2">  1       -2 0.27694205E-02 0.18380167E+03</pdfrwt>
<totfact> 0.50115040E+03</totfact>
</mgrwt>
</event>
<event>
 7    1  0.1020295E-005  0.1508777E+03  0.7546771E-02  0.1220261E+00
         -1   -1    0    0    0  501 -0.00000000000E+00  0.00000000000E+00  0.23326320654E+02  0.23326320654E+02  0.00000000000E+00 0.  1.
          1   -1    0    0  501    0  0.00000000000E+00 -0.00000000000E+00 -0.66960265476E+03  0.66960265476E+03  0.00000000000E+00 0. -1.
         23    2    1    2    0    0 -0.33834508519E+02  0.18400821500E+02 -0.30095919834E+03  0.31608948669E+03  0.88615801838E+02 0.  0.
          5    1    1    2  502    0  0.38207527996E+02 -0.63528149086E+02 -0.31109645454E+03  0.31984173422E+03  0.47000000000E+01 0. -1.
         -5    1    1    2    0  502 -0.43730194766E+01  0.45127327586E+02 -0.34220681229E+02  0.56997754501E+02  0.47000000000E+01 0.  1.
        -11    1    3    3    0    0  0.18393289995E+02  0.36303174209E+02 -0.10905757104E+03  0.11640355396E+03  0.00000000000E+00 0.  1.
         11    1    3    3    0    0 -0.52227798514E+02 -0.17902352709E+02 -0.19190162730E+03  0.19968593273E+03  0.00000000000E+00 0. -1.
<mgrwt>
<rscale>  0 0.13497073E+03</rscale>
<asrwt>0</asrwt>
<pdfrwt beam="2">  1        1 0.10301578E+00 0.15087769E+03</pdfrwt>
<pdfrwt beam="1">  1       -1 0.35886653E-02 0.15087769E+03</pdfrwt>
<totfact> 0.84019944E+03</totfact>
</mgrwt>
</event>
<event>
 8    1  0.1020295E-005  0.1322529E+03  0.7546771E-02  0.1234767E+00
         -1   -1    0    0    0  501 -0.00000000000E+00  0.00000000000E+00  0.23939378955E+02  0.23939378955E+02  0.00000000000E+00 0.  1.
          1   -1    0    0  501    0  0.00000000000E+00 -0.00000000000E+00 -0.59436977341E+03  0.59436977341E+03  0.00000000000E+00 0. -1.
         23    2    1    2    0    0  0.87472660256E+01 -0.42238275336E+02 -0.30661142610E+03  0.33391823674E+03  0.12502094083E+03 0.  0.
         23    2    1    2    0    0 -0.87472660256E+01  0.42238275336E+02 -0.26381896836E+03  0.28439091563E+03  0.97042043778E+02 0.  0.
          5    1    3    3  502    0  0.14213180355E+02  0.12161600645E+02 -0.26331135220E+03  0.26401681239E+03  0.47000000000E+01 0.  1.
         -5    1    3    3    0  502 -0.54659143292E+01 -0.54399875981E+02 -0.43300073895E+02  0.69901424345E+02  0.47000000000E+01 0.  1.
        -11    1    4    4    0    0  0.33456678465E+01 -0.26313179465E+02 -0.28243876098E+02  0.38746528154E+02  0.00000000000E+00 0.  1.
         11    1    4    4    0    0 -0.12092933872E+02  0.68551454801E+02 -0.23557509226E+03  0.24564438747E+03  0.00000000000E+00 0. -1.
<mgrwt>
<rscale>  0 0.12519345E+03</rscale>
<asrwt>0</asrwt>
<pdfrwt beam="2">  1        1 0.91441506E-01 0.13225287E+03</pdfrwt>
<pdfrwt beam="1">  1       -1 0.36829813E-02 0.13225287E+03</pdfrwt>
<totfact> 0.94609287E+03</totfact>
</mgrwt>
</event>
<event>
 8    1  0.1020295E-005  0.1826278E+03  0.7546771E-02  0.1170975E+00
          2   -1    0    0  501    0  0.00000000000E+00  0.00000000000E+00  0.36502000792E+03  0.36502000792E+03  0.00000000000E+00 0. -1.
         -2   -1    0    0    0  501 -0.00000000000E+00 -0.00000000000E+00 -0.11655455652E+03  0.11655455652E+03  0.00000000000E+00 0.  1.
         23    2    1    2    0    0 -0.13312211282E+03 -0.25180301482E+01 -0.38419169039E+01  0.18266825009E+03  0.12500036747E+03 0.  0.
         23    2    1    2    0    0  0.13312211282E+03  0.25180301482E+01  0.25230736830E+03  0.29890631435E+03  0.89208403545E+02 0.  0.
          5    1    3    3  502    0 -0.16701886541E+02 -0.50771197850E+02 -0.15955584134E+02  0.55976228975E+02  0.47000000000E+01 0. -1.
         -5    1    3    3    0  502 -0.11642022628E+03  0.48253167702E+02  0.12113667230E+02  0.12669202112E+03  0.47000000000E+01 0. -1.
        -11    1    4    4    0    0  0.28190864455E+01 -0.26293284025E+02  0.34522650209E+02  0.43486749829E+02  0.00000000000E+00 0.  1.
         11    1    4    4    0    0  0.13030302638E+03  0.28811314173E+02  0.21778471809E+03  0.25541956452E+03  0.00000000000E+00 0. -1.
<mgrwt>
<rscale>  0 0.17676133E+03</rscale>
<asrwt>0</asrwt>
<pdfrwt beam="1">  1        2 0.56156924E-01 0.18262784E+03</pdfrwt>
<pdfrwt beam="2">  1       -2 0.17931470E-01 0.18262784E+03</pdfrwt>
<totfact> 0.22065389E+03</totfact>
</mgrwt>
</event>
<event>
 8    1  0.1020295E-005  0.2628606E+03  0.7546771E-02  0.1107040E+00
         -1   -1    0    0    0  501 -0.00000000000E+00  0.00000000000E+00  0.15987591191E+03  0.15987591191E+03  0.00000000000E+00 0.  1.
          1   -1    0    0  501    0  0.00000000000E+00 -0.00000000000E+00 -0.41838131476E+03  0.41838131476E+03  0.00000000000E+00 0. -1.
         23    2    1    2    0    0  0.85351072284E+02  0.21491127821E+03 -0.15809727632E+03  0.30674162882E+03  0.12499606005E+03 0.  0.
         23    2    1    2    0    0 -0.85351072284E+02 -0.21491127821E+03 -0.10040812653E+03  0.27151559785E+03  0.10083285656E+03 0.  0.
          5    1    3    3  502    0 -0.17705213630E+02  0.64906301520E+01  0.79429786717E+01  0.20994851265E+02  0.47000000000E+01 0.  1.
         -5    1    3    3    0  502  0.10305628591E+03  0.20842064806E+03 -0.16604025499E+03  0.28574677755E+03  0.47000000000E+01 0.  1.
        -11    1    4    4    0    0 -0.24938693132E+02 -0.15631111818E+03 -0.28536778543E+02  0.16083983279E+03  0.00000000000E+00 0.  1.
         11    1    4    4    0    0 -0.60412379153E+02 -0.58600160026E+02 -0.71871347988E+02  0.11067576506E+03  0.00000000000E+00 0. -1.
<mgrwt>
<rscale>  0 0.26017133E+03</rscale>
<asrwt>0</asrwt>
<pdfrwt beam="2">  1        1 0.64366355E-01 0.26286057E+03</pdfrwt>
<pdfrwt beam="1">  1       -1 0.24596295E-01 0.26286057E+03</pdfrwt>
<totfact> 0.81998185E+02</totfact>
</mgrwt>
</event>
<event>
 8    1  0.1020295E-005  0.1284220E+03  0.7546771E-02  0.1249386E+00
         -1   -1    0    0    0  501 -0.00000000000E+00  0.00000000000E+00  0.77442361301E+02  0.77442361301E+02  0.00000000000E+00 0. -1.
          1   -1    0    0  501    0  0.00000000000E+00 -0.00000000000E+00 -0.14962247925E+03  0.14962247925E+03  0.00000000000E+00 0.  1.
         23    2    1    2    0    0 -0.59230470827E+01 -0.28903309950E+02 -0.34924205773E+02  0.13308614576E+03  0.12498695224E+03 0.  0.
         23    2    1    2    0    0  0.59230470827E+01  0.28903309950E+02 -0.37255912172E+02  0.93978694790E+02  0.81077174778E+02 0.  0.
          5    1    3    3  502    0 -0.38595169869E+02 -0.90975708226E+01  0.35109250621E+02  0.53170503206E+02  0.47000000000E+01 0. -1.
         -5    1    3    3    0  502  0.32672122786E+02 -0.19805739127E+02 -0.70033456393E+02  0.79915642550E+02  0.47000000000E+01 0. -1.
        -11    1    4    4    0    0  0.35972095609E+02  0.35284703374E+02 -0.38221039594E+02  0.63244365933E+02  0.00000000000E+00 0.  1.
         11    1    4    4    0    0 -0.30049048526E+02 -0.63813934242E+01  0.96512742120E+00  0.30734328857E+02  0.00000000000E+00 0. -1.
<mgrwt>
<rscale>  0 0.11626672E+03</rscale>
<asrwt>0</asrwt>
<pdfrwt beam="2">  1        1 0.23018843E-01 0.12842205E+03</pdfrwt>
<pdfrwt beam="1">  1       -1 0.11914209E-01 0.12842205E+03</pdfrwt>
<totfact> 0.92522119E+03</totfact>
</mgrwt>
</event>
<event>
 8    1  0.1020295E-005  0.1368571E+03  0.7546771E-02  0.1229495E+00
         -2   -1    0    0    0  501 -0.00000000000E+00  0.00000000000E+00  0.82515623681E+02  0.82515623681E+02  0.00000000000E+00 0.  1.
          2   -1    0    0  501    0  0.00000000000E+00 -0.00000000000E+00 -0.20248765575E+03  0.20248765575E+03  0.00000000000E+00 0. -1.
         23    2    1    2    0    0 -0.34351388028E+02 -0.43700934623E+02 -0.19280131728E+02  0.13820846697E+03  0.12506025475E+03 0.  0.
         23    2    1    2    0    0  0.34351388028E+02  0.43700934623E+02 -0.10069190034E+03  0.14679481245E+03  0.91214410172E+02 0.  0.
          5    1    3    3  502    0 -0.58253310918E+02  0.43353247711E+01  0.29440153794E+02  0.65582436133E+02  0.47000000000E+01 0. -1.
         -5    1    3    3    0  502  0.23901922890E+02 -0.48036259394E+02 -0.48720285522E+02  0.72626030841E+02  0.47000000000E+01 0. -1.
        -11    1    4    4    0    0  0.61467447458E+02  0.19622395155E+02 -0.39468789887E+02  0.75637760833E+02  0.00000000000E+00 0.  1.
         11    1    4    4    0    0 -0.27116059431E+02  0.24078539467E+02 -0.61223110450E+02  0.71157051619E+02  0.00000000000E+00 0. -1.
<mgrwt>
<rscale>  0 0.12863539E+03</rscale>
<asrwt>0</asrwt>
<pdfrwt beam="2">  1        2 0.31151947E-01 0.13685707E+03</pdfrwt>
<pdfrwt beam="1">  1       -2 0.12694711E-01 0.13685707E+03</pdfrwt>
<totfact> 0.72039894E+03</totfact>
</mgrwt>
</event>
<event>
 8    1  0.1020295E-005  0.1380173E+03  0.7546771E-02  0.1221750E+00
         -4   -1    0    0    0  501 -0.00000000000E+00  0.00000000000E+00  0.41027539600E+03  0.41027539600E+03  0.00000000000E+00 0.  1.
          4   -1    0    0  501    0  0.00000000000E+00 -0.00000000000E+00 -0.41639906206E+02  0.41639906206E+02  0.00000000000E+00 0. -1.
         23    2    1    2    0    0 -0.53855453696E+02 -0.62489553002E+02  0.17517932206E+03  0.22301697881E+03  0.11065000603E+03 0.  0.
         23    2    1    2    0    0  0.53855453696E+02  0.62489553002E+02  0.19345616773E+03  0.22889832339E+03  0.90353746405E+02 0.  0.
          5    1    3    3  502    0  0.26200228873E+02 -0.11583397280E+01  0.81771070501E+01  0.27870213914E+02  0.47000000000E+01 0. -1.
         -5    1    3    3    0  502 -0.80055682569E+02 -0.61331213274E+02  0.16700221501E+03  0.19514676490E+03  0.47000000000E+01 0.  1.
        -11    1    4    4    0    0 -0.76779642209E+01  0.41399852760E+02  0.13510489477E+03  0.14151406832E+03  0.00000000000E+00 0.  1.
         11    1    4    4    0    0  0.61533417917E+02  0.21089700242E+02  0.58351272965E+02  0.87384255066E+02  0.00000000000E+00 0. -1.
<mgrwt>
<rscale>  0 0.13392135E+03</rscale>
<asrwt>0</asrwt>
<pdfrwt beam="2">  1        4 0.64061397E-02 0.13801731E+03</pdfrwt>
<pdfrwt beam="1">  1       -4 0.63119289E-01 0.13801731E+03</pdfrwt>
<totfact> 0.63192048E+02</totfact>
</mgrwt>
</event>
<event>
 7    1  0.1020295E-005  0.1906976E+03  0.7546771E-02  0.1187143E+00
          4   -1    0    0  501    0  0.00000000000E+00  0.00000000000E+00  0.10785373960E+03  0.10785373960E+03  0.00000000000E+00 0. -1.
         -4   -1    0    0    0  501 -0.00000000000E+00 -0.00000000000E+00 -0.21675871553E+03  0.21675871553E+03  0.00000000000E+00 0.  1.
         23    2    1    2    0    0 -0.48825549380E+02 -0.27675134109E+02  0.12407479491E+02  0.98598566147E+02  0.80111699388E+02 0.  0.
          5    1    1    2  502    0  0.18009757435E+02  0.27048238771E+02  0.45613142428E+02  0.56201488820E+02  0.47000000000E+01 0. -1.
         -5    1    1    2    0  502  0.30815791945E+02  0.62689533810E+00 -0.16692559785E+03  0.16981240016E+03  0.47000000000E+01 0.  1.
        -11    1    3    3    0    0 -0.39075326697E+02 -0.54567807409E+02  0.17919313988E+02  0.69466744386E+02  0.00000000000E+00 0. -1.
         11    1    3    3    0    0 -0.97502226832E+01  0.26892673300E+02 -0.55118344969E+01  0.29131821761E+02  0.00000000000E+00 0.  1.
<mgrwt>
<rscale>  0 0.16138383E+03</rscale>
<asrwt>0</asrwt>
<pdfrwt beam="1">  1        4 0.16592883E-01 0.19069758E+03</pdfrwt>
<pdfrwt beam="2">  1       -4 0.33347494E-01 0.19069758E+03</pdfrwt>
<totfact> 0.48326701E+02</totfact>
</mgrwt>
</event>
<event>
 8    1  0.1020295E-005  0.1682214E+03  0.7546771E-02  0.1187045E+00
          2   -1    0    0  501    0  0.00000000000E+00  0.00000000000E+00  0.53735805547E+03  0.53735805547E+03  0.00000000000E+00 0. -1.
         -2   -1    0    0    0  501 -0.00000000000E+00 -0.00000000000E+00 -0.45485267474E+02  0.45485267474E+02  0.00000000000E+00 0.  1.
         23    2    1    2    0    0  0.10946155372E+03 -0.26320288729E+02  0.23600146074E+03  0.28981913087E+03  0.12499539913E+03 0.  0.
         23    2    1    2    0    0 -0.10946155372E+03  0.26320288729E+02  0.25587132726E+03  0.29302419208E+03  0.87854719209E+02 0.  0.
          5    1    3    3  502    0  0.82792914313E+02  0.10079171193E+01  0.23724915886E+03  0.25132635345E+03  0.47000000000E+01 0. -1.
         -5    1    3    3    0  502  0.26668639409E+02 -0.27328205848E+02 -0.12476981236E+01  0.38492777419E+02  0.47000000000E+01 0. -1.
        -11    1    4    4    0    0 -0.44761102216E+01  0.31986580054E+02  0.99358682448E+02  0.10447643105E+03  0.00000000000E+00 0.  1.
         11    1    4    4    0    0 -0.10498544350E+03 -0.56662913248E+01  0.15651264481E+03  0.18854776103E+03  0.00000000000E+00 0. -1.
<mgrwt>
<rscale>  0 0.16147161E+03</rscale>
<asrwt>0</asrwt>
<pdfrwt beam="1">  1        2 0.82670466E-01 0.16822140E+03</pdfrwt>
<pdfrwt beam="2">  1       -2 0.69977338E-02 0.16822140E+03</pdfrwt>
<totfact> 0.64993189E+03</totfact>
</mgrwt>
</event>
<event>
 8    1  0.1020295E-005  0.1392141E+03  0.7546771E-02  0.1224712E+00
          2   -1    0    0  501    0  0.00000000000E+00  0.00000000000E+00  0.76417374540E+03  0.76417374540E+03  0.00000000000E+00 0. -1.
         -2   -1    0    0    0  501 -0.00000000000E+00 -0.00000000000E+00 -0.23716653444E+02  0.23716653444E+02  0.00000000000E+00 0.  1.
         23    2    1    2    0    0  0.43851361262E+02 -0.42807062860E+02  0.26430200708E+03  0.29872416090E+03  0.12500074738E+03 0.  0.
         23    2    1    2    0    0 -0.43851361262E+02  0.42807062860E+02  0.47615508488E+03  0.48916623794E+03  0.93832600805E+02 0.  0.
          5    1    3    3  502    0  0.85982175692E+02 -0.40644766651E+02  0.16115019892E+03  0.18718014906E+03  0.47000000000E+01 0.  1.
         -5    1    3    3    0  502 -0.42130814430E+02 -0.21622962085E+01  0.10315180816E+03  0.11154401184E+03  0.47000000000E+01 0.  1.
        -11    1    4    4    0    0  0.12062071892E+02 -0.14589045043E+02  0.27335776619E+02  0.33250240554E+02  0.00000000000E+00 0.  1.
         11    1    4    4    0    0 -0.55913433154E+02  0.57396107903E+02  0.44881930826E+03  0.45591599739E+03  0.00000000000E+00 0. -1.
<mgrwt>
<rscale>  0 0.13186694E+03</rscale>
<asrwt>0</asrwt>
<pdfrwt beam="1">  1        2 0.11756517E+00 0.13921413E+03</pdfrwt>
<pdfrwt beam="2">  1       -2 0.36487165E-02 0.13921413E+03</pdfrwt>
<totfact> 0.11382177E+04</totfact>
</mgrwt>
</event>
<event>
 8    1  0.1020295E-005  0.1347716E+03  0.7546771E-02  0.1232830E+00
         -3   -1    0    0    0  501 -0.00000000000E+00  0.00000000000E+00  0.66679629204E+03  0.66679629204E+03  0.00000000000E+00 0.  1.
          3   -1    0    0  501    0  0.00000000000E+00 -0.00000000000E+00 -0.62512343676E+02  0.62512343676E+02  0.00000000000E+00 0. -1.
         23    2    1    2    0    0 -0.41122264546E+02  0.29093472426E+02  0.61001772039E+03  0.62472795040E+03  0.12500368815E+03 0.  0.
         23    2    1    2    0    0  0.41122264546E+02 -0.29093472426E+02 -0.57337720197E+01  0.10458068532E+03  0.91470065160E+02 0.  0.
          5    1    3    3  502    0  0.10515230132E+02 -0.39501303919E+02  0.11151940228E+03  0.11886795262E+03  0.47000000000E+01 0.  1.
         -5    1    3    3    0  502 -0.51637494678E+02  0.68594776346E+02  0.49849831811E+03  0.50585999778E+03  0.47000000000E+01 0.  1.
        -11    1    4    4    0    0  0.13023492827E+02 -0.28970588003E+01 -0.46612175806E+02  0.48484010235E+02  0.00000000000E+00 0. -1.
         11    1    4    4    0    0  0.28098771719E+02 -0.26196413626E+02  0.40878403787E+02  0.56096675081E+02  0.00000000000E+00 0.  1.
<mgrwt>
<rscale>  0 0.12644402E+03</rscale>
<asrwt>0</asrwt>
<pdfrwt beam="2">  1        3 0.96172841E-02 0.13477163E+03</pdfrwt>
<pdfrwt beam="1">  1       -3 0.10258404E+00 0.13477163E+03</pdfrwt>
<totfact> 0.15723434E+02</totfact>
</mgrwt>
</event>
<event>
 8    1  0.1020295E-005  0.1268995E+03  0.7546771E-02  0.1246554E+00
          2   -1    0    0  501    0  0.00000000000E+00  0.00000000000E+00  0.40786075344E+02  0.40786075344E+02  0.00000000000E+00 0. -1.
         -2   -1    0    0    0  501 -0.00000000000E+00 -0.00000000000E+00 -0.32906186039E+03  0.32906186039E+03  0.00000000000E+00 0.  1.
         23    2    1    2    0    0  0.21878788607E+02 -0.50769720697E+00 -0.21694726547E+03  0.25133563928E+03  0.12499819372E+03 0.  0.
         23    2    1    2    0    0 -0.21878788607E+02  0.50769720697E+00 -0.71328519582E+02  0.11851229645E+03  0.92078594457E+02 0.  0.
          5    1    3    3  502    0  0.49667857708E+02  0.48377237702E+02 -0.10406271728E+03  0.12513349810E+03  0.47000000000E+01 0. -1.
         -5    1    3    3    0  502 -0.27789069101E+02 -0.48884934908E+02 -0.11288454818E+03  0.12620214119E+03  0.47000000000E+01 0. -1.
        -11    1    4    4    0    0  0.37180880566E+01  0.14931352805E+02 -0.84803844556E+02  0.86188523174E+02  0.00000000000E+00 0.  1.
         11    1    4    4    0    0 -0.25596876663E+02 -0.14423655598E+02  0.13475324974E+02  0.32323773278E+02  0.00000000000E+00 0. -1.
<mgrwt>
<rscale>  0 0.11792823E+03</rscale>
<asrwt>0</asrwt>
<pdfrwt beam="1">  1        2 0.62747807E-02 0.12689952E+03</pdfrwt>
<pdfrwt beam="2">  1       -2 0.50624903E-01 0.12689952E+03</pdfrwt>
<totfact> 0.41344302E+03</totfact>
</mgrwt>
</event>
<event>
 8    1  0.1020295E-005  0.1292095E+03  0.7546771E-02  0.1248603E+00
          1   -1    0    0  501    0  0.00000000000E+00  0.00000000000E+00  0.30486118401E+03  0.30486118401E+03  0.00000000000E+00 0. -1.
         -1   -1    0    0    0  501 -0.00000000000E+00 -0.00000000000E+00 -0.40825545034E+02  0.40825545034E+02  0.00000000000E+00 0.  1.
         23    2    1    2    0    0  0.32589426050E+02  0.28996714369E+01  0.11202422878E+03  0.17101033160E+03  0.12499850758E+03 0.  0.
         23    2    1    2    0    0 -0.32589426050E+02 -0.28996714369E+01  0.15201141020E+03  0.17467639745E+03  0.79585778936E+02 0.  0.
          5    1    3    3  502    0 -0.81148708383E+01 -0.42747412258E+02  0.54237809256E+00  0.43767300093E+02  0.47000000000E+01 0. -1.
         -5    1    3    3    0  502  0.40704296889E+02  0.45647083695E+02  0.11148185069E+03  0.12724303151E+03  0.47000000000E+01 0. -1.
        -11    1    4    4    0    0 -0.16168123251E+02 -0.40906034992E+02  0.89070549889E+02  0.99339190483E+02  0.00000000000E+00 0. -1.
         11    1    4    4    0    0 -0.16421302800E+02  0.38006363555E+02  0.62940860311E+02  0.75337206963E+02  0.00000000000E+00 0.  1.
<mgrwt>
<rscale>  0 0.11672315E+03</rscale>
<asrwt>0</asrwt>
<pdfrwt beam="1">  1        1 0.46901719E-01 0.12920954E+03</pdfrwt>
<pdfrwt beam="2">  1       -1 0.62808533E-02 0.12920954E+03</pdfrwt>
<totfact> 0.10082487E+04</totfact>
</mgrwt>
</event>
<event>
 8    1  0.1020295E-005  0.1439948E+03  0.7546771E-02  0.1218492E+00
          2   -1    0    0  501    0  0.00000000000E+00  0.00000000000E+00  0.46663201637E+03  0.46663201637E+03  0.00000000000E+00 0. -1.
         -2   -1    0    0    0  501 -0.00000000000E+00 -0.00000000000E+00 -0.39272287486E+02  0.39272287486E+02  0.00000000000E+00 0.  1.
         23    2    1    2    0    0 -0.70641298780E+02  0.10918813109E+02  0.16314433219E+03  0.21760189893E+03  0.12500039888E+03 0.  0.
         23    2    1    2    0    0  0.70641298780E+02 -0.10918813109E+02  0.26421539670E+03  0.28830240493E+03  0.90548811487E+02 0.  0.
          5    1    3    3  502    0  0.31704279360E+02 -0.96638560339E+00  0.76318188626E+02  0.82780741396E+02  0.47000000000E+01 0. -1.
         -5    1    3    3    0  502 -0.10234557814E+03  0.11885198713E+02  0.86826143563E+02  0.13482115754E+03  0.47000000000E+01 0. -1.
        -11    1    4    4    0    0  0.65943605320E+02 -0.35925402952E+02  0.11785052749E+03  0.13974240763E+03  0.00000000000E+00 0.  1.
         11    1    4    4    0    0  0.46976934598E+01  0.25006589843E+02  0.14636486921E+03  0.14855999730E+03  0.00000000000E+00 0. -1.
<mgrwt>
<rscale>  0 0.13623112E+03</rscale>
<asrwt>0</asrwt>
<pdfrwt beam="1">  1        2 0.71789537E-01 0.14399484E+03</pdfrwt>
<pdfrwt beam="2">  1       -2 0.60418907E-02 0.14399484E+03</pdfrwt>
<totfact> 0.94198668E+03</totfact>
</mgrwt>
</event>
<event>
 8    1  0.1020295E-005  0.1377472E+03  0.7546771E-02  0.1231955E+00
          3   -1    0    0  501    0  0.00000000000E+00  0.00000000000E+00  0.42578244111E+03  0.42578244111E+03  0.00000000000E+00 0. -1.
         -3   -1    0    0    0  501 -0.00000000000E+00 -0.00000000000E+00 -0.33285396264E+02  0.33285396264E+02  0.00000000000E+00 0.  1.
         23    2    1    2    0    0 -0.57883070289E+02  0.91830058116E+00  0.20938964018E+03  0.25063581822E+03  0.12499199518E+03 0.  0.
         23    2    1    2    0    0  0.57883070289E+02 -0.91830058116E+00  0.18310740467E+03  0.20843201916E+03  0.81020317592E+02 0.  0.
          5    1    3    3  502    0  0.34056092648E+02 -0.53769608653E+01  0.20433487327E+02  0.40352776348E+02  0.47000000000E+01 0.  1.
         -5    1    3    3    0  502 -0.91939162938E+02  0.62952614464E+01  0.18895615285E+03  0.21028304187E+03  0.47000000000E+01 0.  1.
        -11    1    4    4    0    0  0.20144405876E+02  0.28987989918E+02  0.13803285335E+03  0.14247515310E+03  0.00000000000E+00 0.  1.
         11    1    4    4    0    0  0.37738664413E+02 -0.29906290500E+02  0.45074551323E+02  0.65956866057E+02  0.00000000000E+00 0. -1.
<mgrwt>
<rscale>  0 0.12701409E+03</rscale>
<asrwt>0</asrwt>
<pdfrwt beam="1">  1        3 0.65504987E-01 0.13774720E+03</pdfrwt>
<pdfrwt beam="2">  1       -3 0.51208305E-02 0.13774720E+03</pdfrwt>
<totfact> 0.11620895E+03</totfact>
</mgrwt>
</event>
<event>
 8    1  0.1020295E-005  0.1316624E+03  0.7546771E-02  0.1239834E+00
          1   -1    0    0  501    0  0.00000000000E+00  0.00000000000E+00  0.39481204462E+03  0.39481204462E+03  0.00000000000E+00 0. -1.
         -1   -1    0    0    0  501 -0.00000000000E+00 -0.00000000000E+00 -0.38565714342E+02  0.38565714342E+02  0.00000000000E+00 0.  1.
         23    2    1    2    0    0  0.34826834177E+02  0.22334469216E+02  0.12069387163E+03  0.17861127768E+03  0.12499296369E+03 0.  0.
         23    2    1    2    0    0 -0.34826834177E+02 -0.22334469216E+02  0.23555245864E+03  0.25476648127E+03  0.87802404942E+02 0.  0.
          5    1    3    3  502    0  0.52176288099E+02 -0.30765294776E+02  0.21080142262E+02  0.64306537772E+02  0.47000000000E+01 0. -1.
         -5    1    3    3    0  502 -0.17349453922E+02  0.53099763992E+02  0.99613729370E+02  0.11430473991E+03  0.47000000000E+01 0. -1.
        -11    1    4    4    0    0  0.63879880321E+01 -0.32718469098E+02  0.18822944020E+03  0.19115864294E+03  0.00000000000E+00 0. -1.
         11    1    4    4    0    0 -0.41214822209E+02  0.10383999882E+02  0.47323018441E+02  0.63607838335E+02  0.00000000000E+00 0.  1.
<mgrwt>
<rscale>  0 0.12199959E+03</rscale>
<asrwt>0</asrwt>
<pdfrwt beam="1">  1        1 0.60740312E-01 0.13166236E+03</pdfrwt>
<pdfrwt beam="2">  1       -1 0.59331871E-02 0.13166236E+03</pdfrwt>
<totfact> 0.79639775E+03</totfact>
</mgrwt>
</event>
<event>
 8    1  0.1020295E-005  0.1182578E+03  0.7546771E-02  0.1254834E+00
         -1   -1    0    0    0  501 -0.00000000000E+00  0.00000000000E+00  0.34116547132E+02  0.34116547132E+02  0.00000000000E+00 0.  1.
          1   -1    0    0  501    0  0.00000000000E+00 -0.00000000000E+00 -0.36282666867E+03  0.36282666867E+03  0.00000000000E+00 0. -1.
         23    2    1    2    0    0 -0.40131252282E+02  0.68915129688E+00 -0.13596236240E+03  0.18019616973E+03  0.11123804770E+03 0.  0.
         23    2    1    2    0    0  0.40131252282E+02 -0.68915129688E+00 -0.19274775914E+03  0.21674704608E+03  0.90645413507E+02 0.  0.
          5    1    3    3  502    0 -0.20826227755E+02  0.24781223831E+02 -0.14422955107E+03  0.14789217091E+03  0.47000000000E+01 0. -1.
         -5    1    3    3    0  502 -0.19305024527E+02 -0.24092072534E+02  0.82671886645E+01  0.32303998814E+02  0.47000000000E+01 0.  1.
        -11    1    4    4    0    0 -0.26074462164E+02  0.10546465923E+02 -0.87422280962E+02  0.91835509087E+02  0.00000000000E+00 0.  1.
         11    1    4    4    0    0  0.66205714446E+02 -0.11235617220E+02 -0.10532547818E+03  0.12491153699E+03  0.00000000000E+00 0. -1.
<mgrwt>
<rscale>  0 0.11315612E+03</rscale>
<asrwt>0</asrwt>
<pdfrwt beam="2">  1        1 0.55819486E-01 0.11825775E+03</pdfrwt>
<pdfrwt beam="1">  1       -1 0.52486997E-02 0.11825775E+03</pdfrwt>
<totfact> 0.10531140E+04</totfact>
</mgrwt>
</event>
<event>
 8    1  0.1020295E-005  0.1459254E+03  0.7546771E-02  0.1215355E+00
          1   -1    0    0  501    0  0.00000000000E+00  0.00000000000E+00  0.78495910105E+03  0.78495910105E+03  0.00000000000E+00 0. -1.
         -1   -1    0    0    0  501 -0.00000000000E+00 -0.00000000000E+00 -0.22825701269E+02  0.22825701269E+02  0.00000000000E+00 0.  1.
         23    2    1    2    0    0  0.62297013751E+01 -0.75043557124E+02  0.35631486384E+03  0.38503829957E+03  0.12499546110E+03 0.  0.
         23    2    1    2    0    0 -0.62297013751E+01  0.75043557124E+02  0.40581853594E+03  0.42274650275E+03  0.91408844371E+02 0.  0.
          5    1    3    3  502    0 -0.14692320965E+02 -0.78025422657E+02  0.35449979988E+03  0.36331257753E+03  0.47000000000E+01 0.  1.
         -5    1    3    3    0  502  0.20922022340E+02  0.29818655330E+01  0.18150639578E+01  0.21725722037E+02  0.47000000000E+01 0.  1.
        -11    1    4    4    0    0  0.27734932127E+02  0.19134672351E+02  0.45949325019E+02  0.56979843943E+02  0.00000000000E+00 0.  1.
         11    1    4    4    0    0 -0.33964633502E+02  0.55908884773E+02  0.35986921092E+03  0.36576665881E+03  0.00000000000E+00 0. -1.
<mgrwt>
<rscale>  0 0.13850470E+03</rscale>
<asrwt>0</asrwt>
<pdfrwt beam="1">  1        1 0.12076292E+00 0.14592536E+03</pdfrwt>
<pdfrwt beam="2">  1       -1 0.35116469E-02 0.14592536E+03</pdfrwt>
<totfact> 0.68716444E+03</totfact>
</mgrwt>
</event>
<event>
 8    1  0.1020295E-005  0.1524718E+03  0.7546771E-02  0.1205322E+00
         -2   -1    0    0    0  501 -0.00000000000E+00  0.00000000000E+00  0.48806938364E+03  0.48806938364E+03  0.00000000000E+00 0. -1.
          2   -1    0    0  501    0  0.00000000000E+00 -0.00000000000E+00 -0.71157387333E+02  0.71157387333E+02  0.00000000000E+00 0.  1.
         23    2    1    2    0    0 -0.80732635181E+02 -0.33250839858E+02  0.40176795802E+03  0.42972681358E+03  0.12499706188E+03 0.  0.
         23    2    1    2    0    0  0.80732635181E+02  0.33250839858E+02  0.15144038288E+02  0.12949995740E+03  0.94432623264E+02 0.  0.
          5    1    3    3  502    0  0.12643474966E+02 -0.34936322622E+02  0.23977547157E+03  0.24268244861E+03  0.47000000000E+01 0.  1.
         -5    1    3    3    0  502 -0.93376110146E+02  0.16854827636E+01  0.16199248646E+03  0.18704436497E+03  0.47000000000E+01 0.  1.
        -11    1    4    4    0    0 -0.12494159907E+02  0.35078435583E+01  0.27943625386E+02  0.30809985361E+02  0.00000000000E+00 0.  1.
         11    1    4    4    0    0  0.93226795088E+02  0.29742996300E+02 -0.12799587098E+02  0.98689972039E+02  0.00000000000E+00 0. -1.
<mgrwt>
<rscale>  0 0.14612078E+03</rscale>
<asrwt>0</asrwt>
<pdfrwt beam="2">  1        2 0.10947291E-01 0.15247178E+03</pdfrwt>
<pdfrwt beam="1">  1       -2 0.75087595E-01 0.15247178E+03</pdfrwt>
<totfact> 0.92092801E+02</totfact>
</mgrwt>
</event>
<event>
 8    1  0.1020295E-005  0.1861125E+03  0.7546771E-02  0.1167021E+00
         -1   -1    0    0    0  501 -0.00000000000E+00  0.00000000000E+00  0.19371731712E+03  0.19371731712E+03  0.00000000000E+00 0.  1.
          1   -1    0    0  501    0  0.00000000000E+00 -0.00000000000E+00 -0.18638102160E+03  0.18638102160E+03  0.00000000000E+00 0. -1.
         23    2    1    2    0    0  0.10046925084E+03  0.94444703106E+02  0.75493591063E+02  0.20084107384E+03  0.12499592929E+03 0.  0.
         23    2    1    2    0    0 -0.10046925084E+03 -0.94444703106E+02 -0.68157295541E+02  0.17925726488E+03  0.92053667856E+02 0.  0.
          5    1    3    3  502    0  0.19786334152E+02  0.82985036404E+02 -0.58006569304E+01  0.85637333605E+02  0.47000000000E+01 0.  1.
         -5    1    3    3    0  502  0.80682916692E+02  0.11459666702E+02  0.81294247993E+02  0.11520374023E+03  0.47000000000E+01 0.  1.
        -11    1    4    4    0    0 -0.38911840458E+02 -0.96658510844E+02 -0.42710621726E+02  0.11261081766E+03  0.00000000000E+00 0.  1.
         11    1    4    4    0    0 -0.61557410386E+02  0.22138077377E+01 -0.25446673815E+02  0.66646447215E+02  0.00000000000E+00 0. -1.
<mgrwt>
<rscale>  0 0.18081065E+03</rscale>
<asrwt>0</asrwt>
<pdfrwt beam="2">  1        1 0.28674003E-01 0.18611248E+03</pdfrwt>
<pdfrwt beam="1">  1       -1 0.29802664E-01 0.18611248E+03</pdfrwt>
<totfact> 0.16406340E+03</totfact>
</mgrwt>
</event>
<event>
 8    1  0.1020295E-005  0.1986365E+03  0.7546771E-02  0.1154801E+00
          2   -1    0    0  501    0  0.00000000000E+00  0.00000000000E+00  0.17160569619E+03  0.17160569619E+03  0.00000000000E+00 0. -1.
         -2   -1    0    0    0  501 -0.00000000000E+00 -0.00000000000E+00 -0.21036228419E+03  0.21036228419E+03  0.00000000000E+00 0.  1.
         23    2    1    2    0    0  0.54952471706E+01 -0.15427606154E+03 -0.14110102401E+02  0.19913699549E+03  0.12500058831E+03 0.  0.
         23    2    1    2    0    0 -0.54952471706E+01  0.15427606154E+03 -0.24646485599E+02  0.18283098488E+03  0.94807272262E+02 0.  0.
          5    1    3    3  502    0 -0.45153410430E+01 -0.11375835481E+03 -0.66546398057E+02  0.13195402490E+03  0.47000000000E+01 0.  1.
         -5    1    3    3    0  502  0.10010588214E+02 -0.40517706737E+02  0.52436295655E+02  0.67182970593E+02  0.47000000000E+01 0.  1.
        -11    1    4    4    0    0 -0.70907407731E+00  0.11655263915E+03  0.26077384765E+02  0.11943638673E+03  0.00000000000E+00 0. -1.
         11    1    4    4    0    0 -0.47861730933E+01  0.37723422389E+02 -0.50723870364E+02  0.63394598147E+02  0.00000000000E+00 0.  1.
<mgrwt>
<rscale>  0 0.19411590E+03</rscale>
<asrwt>0</asrwt>
<pdfrwt beam="1">  1        2 0.26400876E-01 0.19863647E+03</pdfrwt>
<pdfrwt beam="2">  1       -2 0.32363428E-01 0.19863647E+03</pdfrwt>
<totfact> 0.17781564E+03</totfact>
</mgrwt>
</event>
<event>
 8    1  0.1020295E-005  0.1366705E+03  0.7546771E-02  0.1228959E+00
          3   -1    0    0  501    0  0.00000000000E+00  0.00000000000E+00  0.40238256845E+02  0.40238256845E+02  0.00000000000E+00 0. -1.
         -3   -1    0    0    0  501 -0.00000000000E+00 -0.00000000000E+00 -0.37936868029E+03  0.37936868029E+03  0.00000000000E+00 0.  1.
         23    2    1    2    0    0 -0.16914930229E+02 -0.52611227172E+02 -0.16241513164E+03  0.21226749315E+03  0.12499903029E+03 0.  0.
         23    2    1    2    0    0  0.16914930229E+02  0.52611227172E+02 -0.17671529181E+03  0.20733944398E+03  0.93312885413E+02 0.  0.
          5    1    3    3  502    0  0.72551038735E+01 -0.28073736816E+02  0.13943315844E+02  0.32515800586E+02  0.47000000000E+01 0. -1.
         -5    1    3    3    0  502 -0.24170034103E+02 -0.24537490356E+02 -0.17635844748E+03  0.17975169256E+03  0.47000000000E+01 0. -1.
        -11    1    4    4    0    0  0.25472528212E+02  0.36874803635E+02 -0.18296011288E+03  0.18836932803E+03  0.00000000000E+00 0.  1.
         11    1    4    4    0    0 -0.85575979831E+01  0.15736423537E+02  0.62448210770E+01  0.18970115953E+02  0.00000000000E+00 0. -1.
<mgrwt>
<rscale>  0 0.12899211E+03</rscale>
<asrwt>0</asrwt>
<pdfrwt beam="1">  1        3 0.61905011E-02 0.13667046E+03</pdfrwt>
<pdfrwt beam="2">  1       -3 0.58364412E-01 0.13667046E+03</pdfrwt>
<totfact> 0.10886944E+03</totfact>
</mgrwt>
</event>
<event>
 8    1  0.1020295E-005  0.1677933E+03  0.7546771E-02  0.1187343E+00
          2   -1    0    0  501    0  0.00000000000E+00  0.00000000000E+00  0.12877005976E+04  0.12877005976E+04  0.00000000000E+00 0. -1.
         -2   -1    0    0    0  501 -0.00000000000E+00 -0.00000000000E+00 -0.19290343616E+02  0.19290343616E+02  0.00000000000E+00 0.  1.
         23    2    1    2    0    0  0.79612291957E+02 -0.78688272289E+02  0.57416342908E+03  0.59817909345E+03  0.12499849331E+03 0.  0.
         23    2    1    2    0    0 -0.79612291957E+02  0.78688272289E+02  0.69424682488E+03  0.70881184773E+03  0.88913555814E+02 0.  0.
          5    1    3    3  502    0 -0.62808463163E+01 -0.36976096173E+02  0.37877192652E+03  0.38065331082E+03  0.47000000000E+01 0.  1.
         -5    1    3    3    0  502  0.85893138273E+02 -0.41712176116E+02  0.19539150255E+03  0.21752578263E+03  0.47000000000E+01 0.  1.
        -11    1    4    4    0    0 -0.28069884077E+02 -0.17951478600E+02  0.17387984342E+03  0.17704342384E+03  0.00000000000E+00 0. -1.
         11    1    4    4    0    0 -0.51542407880E+02  0.96639750889E+02  0.52036698145E+03  0.53176842389E+03  0.00000000000E+00 0.  1.
<mgrwt>
<rscale>  0 0.16120529E+03</rscale>
<asrwt>0</asrwt>
<pdfrwt beam="1">  1        2 0.19810772E+00 0.16779328E+03</pdfrwt>
<pdfrwt beam="2">  1       -2 0.29677462E-02 0.16779328E+03</pdfrwt>
<totfact> 0.75457492E+03</totfact>
</mgrwt>
</event>
<event>
 8    1  0.1020295E-005  0.1324699E+03  0.7546771E-02  0.1236216E+00
         -2   -1    0    0    0  501 -0.00000000000E+00  0.00000000000E+00  0.29811086254E+03  0.29811086254E+03  0.00000000000E+00 0.  1.
          2   -1    0    0  501    0  0.00000000000E+00 -0.00000000000E+00 -0.46563314787E+02  0.46563314787E+02  0.00000000000E+00 0. -1.
         23    2    1    2    0    0  0.29647989784E+02  0.32310080552E+02  0.15363222949E+03  0.20285740886E+03  0.12500128715E+03 0.  0.
         23    2    1    2    0    0 -0.29647989784E+02 -0.32310080552E+02  0.97915318268E+02  0.14181676847E+03  0.92745035787E+02 0.  0.
          5    1    3    3  502    0 -0.31988292407E+02  0.35441115512E+02  0.13767512843E+02  0.49909497390E+02  0.47000000000E+01 0. -1.
         -5    1    3    3    0  502  0.61636282190E+02 -0.31310349593E+01  0.13986471664E+03  0.15294791147E+03  0.47000000000E+01 0. -1.
        -11    1    4    4    0    0 -0.35035445758E+02 -0.60104314115E+02  0.48302841470E+02  0.84694601532E+02  0.00000000000E+00 0. -1.
         11    1    4    4    0    0  0.53874559741E+01  0.27794233562E+02  0.49612476799E+02  0.57122166934E+02  0.00000000000E+00 0.  1.
<mgrwt>
<rscale>  0 0.12426919E+03</rscale>
<asrwt>0</asrwt>
<pdfrwt beam="2">  1        2 0.71635871E-02 0.13246987E+03</pdfrwt>
<pdfrwt beam="1">  1       -2 0.45863208E-01 0.13246987E+03</pdfrwt>
<totfact> 0.42523584E+03</totfact>
</mgrwt>
</event>
<event>
 8    1  0.1020295E-005  0.1378611E+03  0.7546771E-02  0.1216465E+00
         -1   -1    0    0    0  501 -0.00000000000E+00  0.00000000000E+00  0.18988505386E+03  0.18988505386E+03  0.00000000000E+00 0.  1.
          1   -1    0    0  501    0  0.00000000000E+00 -0.00000000000E+00 -0.11980888388E+03  0.11980888388E+03  0.00000000000E+00 0. -1.
         23    2    1    2    0    0 -0.51386034958E+02  0.23649176041E+02  0.98550457168E+02  0.16892297196E+03  0.12499187867E+03 0.  0.
         23    2    1    2    0    0  0.51386034958E+02 -0.23649176041E+02 -0.28474287189E+02  0.14077096578E+03  0.12572140494E+03 0.  0.
          5    1    3    3  502    0 -0.58429481024E+02 -0.38944456570E+02  0.71139298766E+02  0.10006780091E+03  0.47000000000E+01 0.  1.
         -5    1    3    3    0  502  0.70434460661E+01  0.62593632610E+02  0.27411158402E+02  0.68855171053E+02  0.47000000000E+01 0.  1.
        -11    1    4    4    0    0  0.16752275730E+01 -0.27709373148E+02 -0.70361013620E+02  0.75639196091E+02  0.00000000000E+00 0. -1.
         11    1    4    4    0    0  0.49710807385E+02  0.40601971070E+01  0.41886726431E+02  0.65131769686E+02  0.00000000000E+00 0.  1.
<mgrwt>
<rscale>  0 0.13769455E+03</rscale>
<asrwt>0</asrwt>
<pdfrwt beam="2">  1        1 0.18432136E-01 0.13786109E+03</pdfrwt>
<pdfrwt beam="1">  1       -1 0.29213085E-01 0.13786109E+03</pdfrwt>
<totfact> 0.29369590E+03</totfact>
</mgrwt>
</event>
<event>
 8    1  0.1020295E-005  0.1568246E+03  0.7546771E-02  0.1199878E+00
          1   -1    0    0  501    0  0.00000000000E+00  0.00000000000E+00  0.40988986404E+03  0.40988986404E+03  0.00000000000E+00 0. -1.
         -1   -1    0    0    0  501 -0.00000000000E+00 -0.00000000000E+00 -0.51225782947E+02  0.51225782947E+02  0.00000000000E+00 0.  1.
         23    2    1    2    0    0  0.72553830258E+02  0.60866109192E+02  0.19154013849E+03  0.24755116810E+03  0.12500085857E+03 0.  0.
         23    2    1    2    0    0 -0.72553830258E+02 -0.60866109192E+02  0.16712394261E+03  0.21356447889E+03  0.93330771538E+02 0.  0.
          5    1    3    3  502    0  0.79696935736E+02  0.42471937515E+02  0.20441608531E+03  0.22352515066E+03  0.47000000000E+01 0.  1.
         -5    1    3    3    0  502 -0.71431054780E+01  0.18394171677E+02 -0.12875946827E+02  0.24026017444E+02  0.47000000000E+01 0.  1.
        -11    1    4    4    0    0 -0.30929429158E+02 -0.69437817705E+02  0.14918670181E+03  0.16743629269E+03  0.00000000000E+00 0. -1.
         11    1    4    4    0    0 -0.41624401099E+02  0.85717085132E+01  0.17937240802E+02  0.46128186192E+02  0.00000000000E+00 0.  1.
<mgrwt>
<rscale>  0 0.15048528E+03</rscale>
<asrwt>0</asrwt>
<pdfrwt beam="1">  1        1 0.63059977E-01 0.15682460E+03</pdfrwt>
<pdfrwt beam="2">  1       -1 0.78808900E-02 0.15682460E+03</pdfrwt>
<totfact> 0.50132233E+03</totfact>
</mgrwt>
</event>
<event>
 8    1  0.1020295E-005  0.1513541E+03  0.7546771E-02  0.1207657E+00
          1   -1    0    0  501    0  0.00000000000E+00  0.00000000000E+00  0.46350643128E+03  0.46350643128E+03  0.00000000000E+00 0. -1.
         -1   -1    0    0    0  501 -0.00000000000E+00 -0.00000000000E+00 -0.41239021914E+02  0.41239021914E+02  0.00000000000E+00 0.  1.
         23    2    1    2    0    0  0.79916181230E+02 -0.29934245161E+02  0.22424116601E+03  0.27054052027E+03  0.12500167007E+03 0.  0.
         23    2    1    2    0    0 -0.79916181230E+02  0.29934245161E+02  0.19802624336E+03  0.23420493293E+03  0.91405155721E+02 0.  0.
          5    1    3    3  502    0  0.79256733458E+02  0.34557683667E+02  0.12355834247E+03  0.15087947936E+03  0.47000000000E+01 0.  1.
         -5    1    3    3    0  502  0.65944777230E+00 -0.64491928828E+02  0.10068282354E+03  0.11966104091E+03  0.47000000000E+01 0.  1.
        -11    1    4    4    0    0 -0.90000045207E+02  0.84492772782E+01  0.10669346906E+03  0.13983881708E+03  0.00000000000E+00 0.  1.
         11    1    4    4    0    0  0.10083863977E+02  0.21484967883E+02  0.91332774303E+02  0.94366115844E+02  0.00000000000E+00 0. -1.
<mgrwt>
<rscale>  0 0.14430016E+03</rscale>
<asrwt>0</asrwt>
<pdfrwt beam="1">  1        1 0.71308678E-01 0.15135413E+03</pdfrwt>
<pdfrwt beam="2">  1       -1 0.63444652E-02 0.15135413E+03</pdfrwt>
<totfact> 0.59247040E+03</totfact>
</mgrwt>
</event>
<event>
 8    1  0.1020295E-005  0.1452255E+03  0.7546771E-02  0.1214798E+00
          3   -1    0    0  501    0  0.00000000000E+00  0.00000000000E+00  0.65070501752E+02  0.65070501752E+02  0.00000000000E+00 0. -1.
         -3   -1    0    0    0  501 -0.00000000000E+00 -0.00000000000E+00 -0.27554296431E+03  0.27554296431E+03  0.00000000000E+00 0.  1.
         23    2    1    2    0    0  0.70984362325E+02 -0.20645341595E+02 -0.12915138210E+03  0.19434637303E+03  0.12500169353E+03 0.  0.
         23    2    1    2    0    0 -0.70984362325E+02  0.20645341595E+02 -0.81321080459E+02  0.14626709304E+03  0.96519089067E+02 0.  0.
          5    1    3    3  502    0 -0.34595959415E+02  0.18396254535E+00 -0.16962478713E+02  0.38816619304E+02  0.47000000000E+01 0. -1.
         -5    1    3    3    0  502  0.10558032174E+03 -0.20829304140E+02 -0.11218890339E+03  0.15552975373E+03  0.47000000000E+01 0. -1.
        -11    1    4    4    0    0  0.12405377943E+02  0.20174269946E+02 -0.53248330354E+02  0.58277605092E+02  0.00000000000E+00 0.  1.
         11    1    4    4    0    0 -0.83389740268E+02  0.47107164849E+00 -0.28072750105E+02  0.87989487945E+02  0.00000000000E+00 0. -1.
<mgrwt>
<rscale>  0 0.13891362E+03</rscale>
<asrwt>0</asrwt>
<pdfrwt beam="1">  1        3 0.10010846E-01 0.14522546E+03</pdfrwt>
<pdfrwt beam="2">  1       -3 0.42391225E-01 0.14522546E+03</pdfrwt>
<totfact> 0.95204491E+02</totfact>
</mgrwt>
</event>
<event>
 8    1  0.1020295E-005  0.1267961E+03  0.7546771E-02  0.1246694E+00
          2   -1    0    0  501    0  0.00000000000E+00  0.00000000000E+00  0.11136727197E+03  0.11136727197E+03  0.00000000000E+00 0.  1.
         -2   -1    0    0    0  501 -0.00000000000E+00 -0.00000000000E+00 -0.13606121042E+03  0.13606121042E+03  0.00000000000E+00 0. -1.
         23    2    1    2    0    0  0.16271310529E+02  0.13723706894E+02 -0.67433461377E+02  0.14361243008E+03  0.12499665069E+03 0.  0.
         23    2    1    2    0    0 -0.16271310529E+02 -0.13723706894E+02  0.42739522929E+02  0.10381605230E+03  0.92184652837E+02 0.  0.
          5    1    3    3  502    0 -0.17429887284E+02 -0.41108617388E+02 -0.65044889971E+02  0.79035733094E+02  0.47000000000E+01 0. -1.
         -5    1    3    3    0  502  0.33701197813E+02  0.54832324282E+02 -0.23885714053E+01  0.64576696986E+02  0.47000000000E+01 0. -1.
        -11    1    4    4    0    0 -0.66305414737E+01  0.39558120324E+02  0.22643320877E+02  0.46060058013E+02  0.00000000000E+00 0. -1.
         11    1    4    4    0    0 -0.96407690549E+01 -0.53281827218E+02  0.20096202052E+02  0.57755994292E+02  0.00000000000E+00 0.  1.
<mgrwt>
<rscale>  0 0.11784579E+03</rscale>
<asrwt>0</asrwt>
<pdfrwt beam="1">  1        2 0.17133427E-01 0.12679613E+03</pdfrwt>
<pdfrwt beam="2">  1       -2 0.20932494E-01 0.12679613E+03</pdfrwt>
<totfact> 0.61057413E+03</totfact>
</mgrwt>
</event>
<event>
 8    1  0.1020295E-005  0.1488070E+03  0.7546771E-02  0.1211278E+00
         -1   -1    0    0    0  501 -0.00000000000E+00  0.00000000000E+00  0.20250108983E+02  0.20250108983E+02  0.00000000000E+00 0.  1.
          1   -1    0    0  501    0  0.00000000000E+00 -0.00000000000E+00 -0.10653332437E+04  0.10653332437E+04  0.00000000000E+00 0. -1.
         23    2    1    2    0    0 -0.46197179797E+02  0.66366017202E+02 -0.77720128973E+03  0.79131875189E+03  0.12491955281E+03 0.  0.
         23    2    1    2    0    0  0.46197179797E+02 -0.66366017202E+02 -0.26788184500E+03  0.29426460081E+03  0.91062312437E+02 0.  0.
          5    1    3    3  502    0  0.36933883302E+02  0.15726251323E+02 -0.38810652818E+03  0.39020532279E+03  0.47000000000E+01 0.  1.
         -5    1    3    3    0  502 -0.83131063099E+02  0.50639765879E+02 -0.38909476155E+03  0.40111342910E+03  0.47000000000E+01 0.  1.
        -11    1    4    4    0    0  0.61688601386E+02 -0.14731367220E+02 -0.10472976614E+03  0.12243700681E+03  0.00000000000E+00 0.  1.
         11    1    4    4    0    0 -0.15491421588E+02 -0.51634649982E+02 -0.16315207887E+03  0.17182759400E+03  0.00000000000E+00 0. -1.
<mgrwt>
<rscale>  0 0.14153496E+03</rscale>
<asrwt>0</asrwt>
<pdfrwt beam="2">  1        1 0.16389738E+00 0.14880700E+03</pdfrwt>
<pdfrwt beam="1">  1       -1 0.31154021E-02 0.14880700E+03</pdfrwt>
<totfact> 0.50023012E+03</totfact>
</mgrwt>
</event>
<event>
 8    1  0.1020295E-005  0.1284145E+03  0.7546771E-02  0.1241417E+00
         -2   -1    0    0    0  501 -0.00000000000E+00  0.00000000000E+00  0.13178347984E+03  0.13178347984E+03  0.00000000000E+00 0.  1.
          2   -1    0    0  501    0  0.00000000000E+00 -0.00000000000E+00 -0.10408584245E+03  0.10408584245E+03  0.00000000000E+00 0. -1.
         23    2    1    2    0    0  0.27679420669E+02  0.10097061955E+02  0.38306933695E+02  0.13400635388E+03  0.12498872238E+03 0.  0.
         23    2    1    2    0    0 -0.27679420669E+02 -0.10097061955E+02 -0.10609296305E+02  0.10186296841E+03  0.96929903420E+02 0.  0.
          5    1    3    3  502    0 -0.48301511261E+02  0.95690850921E+01  0.15977074263E+01  0.49489858038E+02  0.47000000000E+01 0. -1.
         -5    1    3    3    0  502  0.75980931929E+02  0.52797686245E+00  0.36709226269E+02  0.84516495844E+02  0.47000000000E+01 0. -1.
        -11    1    4    4    0    0 -0.46942685479E+02 -0.26981025208E+02  0.23651974070E+02  0.59084746920E+02  0.00000000000E+00 0.  1.
         11    1    4    4    0    0  0.19263264811E+02  0.16883963253E+02 -0.34261270375E+02  0.42778221492E+02  0.00000000000E+00 0. -1.
<mgrwt>
<rscale>  0 0.12102428E+03</rscale>
<asrwt>0</asrwt>
<pdfrwt beam="2">  1        2 0.16013207E-01 0.12841449E+03</pdfrwt>
<pdfrwt beam="1">  1       -2 0.20274381E-01 0.12841449E+03</pdfrwt>
<totfact> 0.69758443E+03</totfact>
</mgrwt>
</event>
<event>
 8    1  0.1020295E-005  0.1415668E+03  0.7546771E-02  0.1221692E+00
         -2   -1    0    0    0  501 -0.00000000000E+00  0.00000000000E+00  0.22303125672E+03  0.22303125672E+03  0.00000000000E+00 0.  1.
          2   -1    0    0  501    0  0.00000000000E+00 -0.00000000000E+00 -0.74156986809E+02  0.74156986809E+02  0.00000000000E+00 0. -1.
         23    2    1    2    0    0 -0.31427770288E+02  0.58547859651E+02  0.63518314555E+02  0.15516361378E+03  0.12500245655E+03 0.  0.
         23    2    1    2    0    0  0.31427770288E+02 -0.58547859651E+02  0.85355955355E+02  0.14202462975E+03  0.92031514846E+02 0.  0.
          5    1    3    3  502    0  0.15316773051E+01  0.32125254844E+01 -0.36026775794E+02  0.36505957452E+02  0.47000000000E+01 0. -1.
         -5    1    3    3    0  502 -0.32959447593E+02  0.55335334167E+02  0.99545090349E+02  0.11865765633E+03  0.47000000000E+01 0. -1.
        -11    1    4    4    0    0 -0.24188891402E+02 -0.49945461677E+02  0.29998564586E+02  0.63083797338E+02  0.00000000000E+00 0.  1.
         11    1    4    4    0    0  0.55616661690E+02 -0.86023979744E+01  0.55357390769E+02  0.78940832408E+02  0.00000000000E+00 0. -1.
<mgrwt>
<rscale>  0 0.13396249E+03</rscale>
<asrwt>0</asrwt>
<pdfrwt beam="2">  1        2 0.11408767E-01 0.14156684E+03</pdfrwt>
<pdfrwt beam="1">  1       -2 0.34312501E-01 0.14156684E+03</pdfrwt>
<totfact> 0.41513081E+03</totfact>
</mgrwt>
</event>
<event>
 8    1  0.1020295E-005  0.1687475E+03  0.7546771E-02  0.1185062E+00
          1   -1    0    0  501    0  0.00000000000E+00  0.00000000000E+00  0.24568871115E+03  0.24568871115E+03  0.00000000000E+00 0.  1.
         -1   -1    0    0    0  501 -0.00000000000E+00 -0.00000000000E+00 -0.14194628128E+03  0.14194628128E+03  0.00000000000E+00 0. -1.
         23    2    1    2    0    0 -0.65654664885E+02 -0.92414511148E+02 -0.48332382336E+02  0.17553271031E+03  0.12499894525E+03 0.  0.
         23    2    1    2    0    0  0.65654664885E+02  0.92414511148E+02  0.15207481221E+03  0.21210228212E+03  0.94919190259E+02 0.  0.
          5    1    3    3  502    0 -0.56672763071E+02 -0.12276208518E+03 -0.47934044852E+02  0.14353429656E+03  0.47000000000E+01 0.  1.
         -5    1    3    3    0  502 -0.89819018141E+01  0.30347574033E+02 -0.39833748381E+00  0.31998413752E+02  0.47000000000E+01 0.  1.
        -11    1    4    4    0    0  0.11084790176E+02  0.79284816122E+02  0.12812400209E+03  0.15107850460E+03  0.00000000000E+00 0.  1.
         11    1    4    4    0    0  0.54569874709E+02  0.13129695026E+02  0.23950810120E+02  0.61023777519E+02  0.00000000000E+00 0. -1.
<mgrwt>
<rscale>  0 0.16326226E+03</rscale>
<asrwt>0</asrwt>
<pdfrwt beam="1">  1        1 0.37798263E-01 0.16874748E+03</pdfrwt>
<pdfrwt beam="2">  1       -1 0.21837889E-01 0.16874748E+03</pdfrwt>
<totfact> 0.19394702E+03</totfact>
</mgrwt>
</event>
<event>
 8    1  0.1020295E-005  0.1638989E+03  0.7546771E-02  0.1193139E+00
         -1   -1    0    0    0  501 -0.00000000000E+00  0.00000000000E+00  0.20262038301E+03  0.20262038301E+03  0.00000000000E+00 0.  1.
          1   -1    0    0  501    0  0.00000000000E+00 -0.00000000000E+00 -0.11074552737E+03  0.11074552737E+03  0.00000000000E+00 0. -1.
         23    2    1    2    0    0 -0.54715978042E+02  0.90797972206E+02  0.61325862934E+02  0.17499627218E+03  0.12499889521E+03 0.  0.
         23    2    1    2    0    0  0.54715978042E+02 -0.90797972206E+02  0.30548992716E+02  0.13836963820E+03  0.83515302845E+02 0.  0.
          5    1    3    3  502    0 -0.81937572276E+02  0.88106006174E+02  0.15476417816E+02  0.12140034424E+03  0.47000000000E+01 0. -1.
         -5    1    3    3    0  502  0.27221594234E+02  0.26919660327E+01  0.45849445119E+02  0.53595927937E+02  0.47000000000E+01 0. -1.
        -11    1    4    4    0    0  0.55588558108E+02 -0.15412604204E+02  0.24704319400E+02  0.62753004373E+02  0.00000000000E+00 0. -1.
         11    1    4    4    0    0 -0.87258006587E+00 -0.75385368002E+02  0.58446733156E+01  0.75616633825E+02  0.00000000000E+00 0.  1.
<mgrwt>
<rscale>  0 0.15612749E+03</rscale>
<asrwt>0</asrwt>
<pdfrwt beam="2">  1        1 0.17037773E-01 0.16389885E+03</pdfrwt>
<pdfrwt beam="1">  1       -1 0.31172367E-01 0.16389885E+03</pdfrwt>
<totfact> 0.29365588E+03</totfact>
</mgrwt>
</event>
<event>
 8    1  0.1020295E-005  0.1277869E+03  0.7546771E-02  0.1244845E+00
          2   -1    0    0  501    0  0.00000000000E+00  0.00000000000E+00  0.26258917582E+03  0.26258917582E+03  0.00000000000E+00 0. -1.
         -2   -1    0    0    0  501 -0.00000000000E+00 -0.00000000000E+00 -0.53622081731E+02  0.53622081731E+02  0.00000000000E+00 0.  1.
         23    2    1    2    0    0 -0.26297708354E+01 -0.26357344869E+02  0.65414113036E+02  0.14355657210E+03  0.12501143102E+03 0.  0.
         23    2    1    2    0    0  0.26297708354E+01  0.26357344869E+02  0.14355298105E+03  0.17265468545E+03  0.92198463732E+02 0.  0.
          5    1    3    3  502    0  0.52391305002E+02 -0.44390897579E+02  0.27124123725E+02  0.73981137566E+02  0.47000000000E+01 0.  1.
         -5    1    3    3    0  502 -0.55021075837E+02  0.18033552710E+02  0.38289989311E+02  0.69575434538E+02  0.47000000000E+01 0.  1.
        -11    1    4    4    0    0  0.38736447861E+02 -0.14464719531E+02  0.65438610637E+02  0.77407701594E+02  0.00000000000E+00 0. -1.
         11    1    4    4    0    0 -0.36106677025E+02  0.40822064400E+02  0.78114370417E+02  0.95246983854E+02  0.00000000000E+00 0.  1.
<mgrwt>
<rscale>  0 0.11894632E+03</rscale>
<asrwt>0</asrwt>
<pdfrwt beam="1">  1        2 0.40398334E-01 0.12778687E+03</pdfrwt>
<pdfrwt beam="2">  1       -2 0.82495512E-02 0.12778687E+03</pdfrwt>
<totfact> 0.10696652E+04</totfact>
</mgrwt>
</event>
<event>
 8    1  0.1020295E-005  0.1413376E+03  0.7546771E-02  0.1221957E+00
         -1   -1    0    0    0  501 -0.00000000000E+00  0.00000000000E+00  0.40164148786E+02  0.40164148786E+02  0.00000000000E+00 0.  1.
          1   -1    0    0  501    0  0.00000000000E+00 -0.00000000000E+00 -0.42621161581E+03  0.42621161581E+03  0.00000000000E+00 0. -1.
         23    2    1    2    0    0  0.89799837767E+01  0.65355344611E+02 -0.16016171918E+03  0.21360736593E+03  0.12499747721E+03 0.  0.
         23    2    1    2    0    0 -0.89799837767E+01 -0.65355344611E+02 -0.22588574784E+03  0.25276839867E+03  0.92279635407E+02 0.  0.
          5    1    3    3  502    0 -0.39204310399E+02  0.24691773948E+02 -0.59627471336E+01  0.46950037358E+02  0.47000000000E+01 0. -1.
         -5    1    3    3    0  502  0.48184294176E+02  0.40663570663E+02 -0.15419897205E+03  0.16665732857E+03  0.47000000000E+01 0. -1.
        -11    1    4    4    0    0  0.23038103258E+02 -0.60833463148E+02 -0.78851420009E+02  0.10222040343E+03  0.00000000000E+00 0.  1.
         11    1    4    4    0    0 -0.32018087035E+02 -0.45218814629E+01 -0.14703432783E+03  0.15054799524E+03  0.00000000000E+00 0. -1.
<mgrwt>
<rscale>  0 0.13377659E+03</rscale>
<asrwt>0</asrwt>
<pdfrwt beam="2">  1        1 0.65571017E-01 0.14133765E+03</pdfrwt>
<pdfrwt beam="1">  1       -1 0.61790999E-02 0.14133765E+03</pdfrwt>
<totfact> 0.68355448E+03</totfact>
</mgrwt>
</event>
<event>
 7    1  0.1020295E-005  0.4389041E+03  0.7546771E-02  0.1105783E+00
         -2   -1    0    0    0  501 -0.00000000000E+00  0.00000000000E+00  0.59853518600E+02  0.59853518600E+02  0.00000000000E+00 0.  1.
          2   -1    0    0  501    0  0.00000000000E+00 -0.00000000000E+00 -0.11327129273E+04  0.11327129273E+04  0.00000000000E+00 0. -1.
         23    2    1    2    0    0  0.45505847236E+01  0.98687626955E+01 -0.28739391514E+03  0.29279265259E+03  0.54901499529E+02 0.  0.
          5    1    1    2  502    0  0.55124693670E+02 -0.51100272899E+02 -0.81705593671E+03  0.82051963015E+03  0.47000000000E+01 0. -1.
         -5    1    1    2    0  502 -0.59675278394E+02  0.41231510203E+02  0.31590443132E+02  0.79254163186E+02  0.47000000000E+01 0.  1.
        -11    1    3    3    0    0  0.28662618024E+02  0.13304885452E+02 -0.16517217938E+03  0.16816781645E+03  0.00000000000E+00 0. -1.
         11    1    3    3    0    0 -0.24112033300E+02 -0.34361227562E+01 -0.12222173576E+03  0.12462483613E+03  0.00000000000E+00 0.  1.
<mgrwt>
<rscale>  0 0.26227672E+03</rscale>
<asrwt>0</asrwt>
<pdfrwt beam="2">  1        2 0.17426352E+00 0.43890413E+03</pdfrwt>
<pdfrwt beam="1">  1       -2 0.92082338E-02 0.43890413E+03</pdfrwt>
<totfact> 0.16506560E+03</totfact>
</mgrwt>
</event>
<event>
 8    1  0.1020295E-005  0.1421610E+03  0.7546771E-02  0.1220960E+00
         -1   -1    0    0    0  501 -0.00000000000E+00  0.00000000000E+00  0.15882729402E+02  0.15882729402E+02  0.00000000000E+00 0.  1.
          1   -1    0    0  501    0  0.00000000000E+00 -0.00000000000E+00 -0.10330631164E+04  0.10330631164E+04  0.00000000000E+00 0. -1.
         23    2    1    2    0    0  0.66531213515E+02 -0.12572251292E+02 -0.58519893882E+03  0.60221885940E+03  0.12500117102E+03 0.  0.
         23    2    1    2    0    0 -0.66531213515E+02  0.12572251292E+02 -0.43198144822E+03  0.44672698644E+03  0.91501720907E+02 0.  0.
          5    1    3    3  502    0  0.51723900843E+02 -0.43944503891E+02 -0.14009932972E+03  0.15574464206E+03  0.47000000000E+01 0. -1.
         -5    1    3    3    0  502  0.14807312672E+02  0.31372252599E+02 -0.44509960909E+03  0.44647421735E+03  0.47000000000E+01 0. -1.
        -11    1    4    4    0    0  0.14641298734E+02 -0.19936577174E+02 -0.13039374124E+03  0.13271911126E+03  0.00000000000E+00 0. -1.
         11    1    4    4    0    0 -0.81172512249E+02  0.32508828466E+02 -0.30158770698E+03  0.31400787518E+03  0.00000000000E+00 0.  1.
<mgrwt>
<rscale>  0 0.13447718E+03</rscale>
<asrwt>0</asrwt>
<pdfrwt beam="2">  1        1 0.15893276E+00 0.14216102E+03</pdfrwt>
<pdfrwt beam="1">  1       -1 0.24434972E-02 0.14216102E+03</pdfrwt>
<totfact> 0.75009976E+03</totfact>
</mgrwt>
</event>
<event>
 8    1  0.1020295E-005  0.1334770E+03  0.7546771E-02  0.1238732E+00
         -2   -1    0    0    0  501 -0.00000000000E+00  0.00000000000E+00  0.95566982858E+03  0.95566982858E+03  0.00000000000E+00 0.  1.
          2   -1    0    0  501    0  0.00000000000E+00 -0.00000000000E+00 -0.98402929378E+02  0.98402929378E+02  0.00000000000E+00 0. -1.
         23    2    1    2    0    0 -0.31941285153E+02  0.34197957121E+02  0.92665185470E+03  0.93621566086E+03  0.12500543134E+03 0.  0.
         23    2    1    2    0    0  0.31941285153E+02 -0.34197957121E+02 -0.69384955495E+02  0.11785709709E+03  0.82983596680E+02 0.  0.
          5    1    3    3  502    0  0.47847911091E+02  0.17313264649E+02  0.31158077368E+03  0.31574331387E+03  0.47000000000E+01 0.  1.
         -5    1    3    3    0  502 -0.79789196244E+02  0.16884692473E+02  0.61507108102E+03  0.62047234699E+03  0.47000000000E+01 0.  1.
        -11    1    4    4    0    0 -0.38749116593E+01 -0.35639107325E+02  0.41127694225E+01  0.36084287212E+02  0.00000000000E+00 0.  1.
         11    1    4    4    0    0  0.35816196812E+02  0.14411502035E+01 -0.73497724917E+02  0.81772809882E+02  0.00000000000E+00 0. -1.
<mgrwt>
<rscale>  0 0.12268507E+03</rscale>
<asrwt>0</asrwt>
<pdfrwt beam="2">  1        2 0.15138913E-01 0.13347698E+03</pdfrwt>
<pdfrwt beam="1">  1       -2 0.14702612E+00 0.13347698E+03</pdfrwt>
<totfact> 0.12988772E+02</totfact>
</mgrwt>
</event>
<event>
 8    1  0.1020295E-005  0.1912853E+03  0.7546771E-02  0.1160995E+00
         -2   -1    0    0    0  501 -0.00000000000E+00  0.00000000000E+00  0.27882010836E+03  0.27882010836E+03  0.00000000000E+00 0.  1.
          2   -1    0    0  501    0  0.00000000000E+00 -0.00000000000E+00 -0.12124675877E+03  0.12124675877E+03  0.00000000000E+00 0. -1.
         23    2    1    2    0    0  0.96099619430E+02 -0.10832574036E+03  0.96244144025E+02  0.21413316781E+03  0.12498190036E+03 0.  0.
         23    2    1    2    0    0 -0.96099619430E+02  0.10832574036E+03  0.61329205561E+02  0.18593369932E+03  0.99199124031E+02 0.  0.
          5    1    3    3  502    0  0.80167151141E+02 -0.98062728449E+02  0.12588438424E+03  0.17863941062E+03  0.47000000000E+01 0. -1.
         -5    1    3    3    0  502  0.15932468289E+02 -0.10263011911E+02 -0.29640240212E+02  0.35493757185E+02  0.47000000000E+01 0. -1.
        -11    1    4    4    0    0 -0.10539821273E+03  0.50573867634E+02  0.44215030338E+02  0.12498587217E+03  0.00000000000E+00 0.  1.
         11    1    4    4    0    0  0.92985932998E+01  0.57751872726E+02  0.17114175223E+02  0.60947827150E+02  0.00000000000E+00 0. -1.
<mgrwt>
<rscale>  0 0.18721810E+03</rscale>
<asrwt>0</asrwt>
<pdfrwt beam="2">  1        2 0.18653348E-01 0.19128533E+03</pdfrwt>
<pdfrwt beam="1">  1       -2 0.42895401E-01 0.19128533E+03</pdfrwt>
<totfact> 0.15473065E+03</totfact>
</mgrwt>
</event>
<event>
 8    1  0.1020295E-005  0.2509371E+03  0.7546771E-02  0.1114940E+00
          1   -1    0    0  501    0  0.00000000000E+00  0.00000000000E+00  0.85521450011E+03  0.85521450011E+03  0.00000000000E+00 0. -1.
         -1   -1    0    0    0  501 -0.00000000000E+00 -0.00000000000E+00 -0.71232479312E+02  0.71232479312E+02  0.00000000000E+00 0.  1.
         23    2    1    2    0    0  0.14128535191E+03  0.16547733935E+03  0.33384671708E+03  0.41763989124E+03  0.12500059101E+03 0.  0.
         23    2    1    2    0    0 -0.14128535191E+03 -0.16547733935E+03  0.45013530372E+03  0.50880708818E+03  0.94438132269E+02 0.  0.
          5    1    3    3  502    0  0.16323806354E+03  0.13673549502E+03  0.26758563897E+03  0.34200500752E+03  0.47000000000E+01 0.  1.
         -5    1    3    3    0  502 -0.21952711636E+02  0.28741844325E+02  0.66261078109E+02  0.75634883721E+02  0.47000000000E+01 0.  1.
        -11    1    4    4    0    0 -0.11146839680E+03 -0.95763523678E+02  0.37178909637E+03  0.39977867394E+03  0.00000000000E+00 0. -1.
         11    1    4    4    0    0 -0.29816955104E+02 -0.69713815668E+02  0.78346207349E+02  0.10902841424E+03  0.00000000000E+00 0.  1.
<mgrwt>
<rscale>  0 0.24742948E+03</rscale>
<asrwt>0</asrwt>
<pdfrwt beam="1">  1        1 0.13157145E+00 0.25093714E+03</pdfrwt>
<pdfrwt beam="2">  1       -1 0.10958844E-01 0.25093714E+03</pdfrwt>
<totfact> 0.10975610E+03</totfact>
</mgrwt>
</event>
<event>
 8    1  0.1020295E-005  0.1326790E+03  0.7546771E-02  0.1235523E+00
         -2   -1    0    0    0  501 -0.00000000000E+00  0.00000000000E+00  0.21843884329E+02  0.21843884329E+02  0.00000000000E+00 0.  1.
          2   -1    0    0  501    0  0.00000000000E+00 -0.00000000000E+00 -0.64891054436E+03  0.64891054436E+03  0.00000000000E+00 0. -1.
         23    2    1    2    0    0  0.16837893761E+02 -0.41158476408E+02 -0.30988757277E+03  0.33709645483E+03  0.12500470892E+03 0.  0.
         23    2    1    2    0    0 -0.16837893761E+02  0.41158476408E+02 -0.31717908726E+03  0.33365797386E+03  0.93528259256E+02 0.  0.
          5    1    3    3  502    0  0.29044373616E+02 -0.23858678379E+02 -0.13952901398E+02  0.40368126414E+02  0.47000000000E+01 0. -1.
         -5    1    3    3    0  502 -0.12206479855E+02 -0.17299798029E+02 -0.29593467137E+03  0.29672832841E+03  0.47000000000E+01 0. -1.
        -11    1    4    4    0    0 -0.10957087727E+02  0.71213527963E+02 -0.20153502106E+03  0.21402754274E+03  0.00000000000E+00 0.  1.
         11    1    4    4    0    0 -0.58808060336E+01 -0.30055051556E+02 -0.11564406619E+03  0.11963043112E+03  0.00000000000E+00 0. -1.
<mgrwt>
<rscale>  0 0.12471010E+03</rscale>
<asrwt>0</asrwt>
<pdfrwt beam="2">  1        2 0.99832400E-01 0.13267898E+03</pdfrwt>
<pdfrwt beam="1">  1       -2 0.33605973E-02 0.13267898E+03</pdfrwt>
<totfact> 0.15563143E+04</totfact>
</mgrwt>
</event>
<event>
 8    1  0.1020295E-005  0.1260715E+03  0.7546771E-02  0.1247118E+00
          2   -1    0    0  501    0  0.00000000000E+00  0.00000000000E+00  0.26009368476E+03  0.26009368476E+03  0.00000000000E+00 0. -1.
         -2   -1    0    0    0  501 -0.00000000000E+00 -0.00000000000E+00 -0.47291386768E+02  0.47291386768E+02  0.00000000000E+00 0.  1.
         23    2    1    2    0    0 -0.10213672692E+02 -0.13284401249E+02  0.11309080676E+03  0.16936216686E+03  0.12495286536E+03 0.  0.
         23    2    1    2    0    0  0.10213672692E+02  0.13284401249E+02  0.99711491230E+02  0.13802290467E+03  0.93952894069E+02 0.  0.
          5    1    3    3  502    0 -0.62275119301E+02  0.18137319566E+02  0.60707573431E+02  0.88964331711E+02  0.47000000000E+01 0. -1.
         -5    1    3    3    0  502  0.52061446609E+02 -0.31421720815E+02  0.52383233333E+02  0.80397835147E+02  0.47000000000E+01 0. -1.
        -11    1    4    4    0    0 -0.38064466041E+02 -0.53659233840E+01  0.65613131786E+02  0.76044590679E+02  0.00000000000E+00 0. -1.
         11    1    4    4    0    0  0.48278138733E+02  0.18650324633E+02  0.34098359444E+02  0.61978313992E+02  0.00000000000E+00 0.  1.
<mgrwt>
<rscale>  0 0.11759534E+03</rscale>
<asrwt>0</asrwt>
<pdfrwt beam="1">  1        2 0.40014412E-01 0.12607146E+03</pdfrwt>
<pdfrwt beam="2">  1       -2 0.72755981E-02 0.12607146E+03</pdfrwt>
<totfact> 0.13094468E+04</totfact>
</mgrwt>
</event>
<event>
 8    1  0.1020295E-005  0.1754251E+03  0.7546771E-02  0.1178354E+00
          2   -1    0    0  501    0  0.00000000000E+00  0.00000000000E+00  0.33942128017E+03  0.33942128017E+03  0.00000000000E+00 0. -1.
         -2   -1    0    0    0  501 -0.00000000000E+00 -0.00000000000E+00 -0.79520070885E+02  0.79520070885E+02  0.00000000000E+00 0.  1.
         23    2    1    2    0    0  0.12301698522E+03  0.39921478393E+01  0.14607923485E+03  0.22828298590E+03  0.12499945160E+03 0.  0.
         23    2    1    2    0    0 -0.12301698522E+03 -0.39921478393E+01  0.11382197444E+03  0.19065836516E+03  0.90807788439E+02 0.  0.
          5    1    3    3  502    0  0.55310778452E+02  0.59443390250E+02  0.39859029413E+02  0.90573898465E+02  0.47000000000E+01 0. -1.
         -5    1    3    3    0  502  0.67706206769E+02 -0.55451242411E+02  0.10622020544E+03  0.13770908744E+03  0.47000000000E+01 0. -1.
        -11    1    4    4    0    0 -0.20804228097E+02  0.22569480020E+01 -0.15253083393E+02  0.25895294438E+02  0.00000000000E+00 0.  1.
         11    1    4    4    0    0 -0.10221275712E+03 -0.62490958413E+01  0.12907505783E+03  0.16476307072E+03  0.00000000000E+00 0. -1.
<mgrwt>
<rscale>  0 0.16951559E+03</rscale>
<asrwt>0</asrwt>
<pdfrwt beam="1">  1        2 0.52218658E-01 0.17542514E+03</pdfrwt>
<pdfrwt beam="2">  1       -2 0.12233857E-01 0.17542514E+03</pdfrwt>
<totfact> 0.44635601E+03</totfact>
</mgrwt>
</event>
<event>
 8    1  0.1020295E-005  0.2069513E+03  0.7546771E-02  0.1147545E+00
          3   -1    0    0  501    0  0.00000000000E+00  0.00000000000E+00  0.79237058472E+03  0.79237058472E+03  0.00000000000E+00 0. -1.
         -3   -1    0    0    0  501 -0.00000000000E+00 -0.00000000000E+00 -0.49772905063E+02  0.49772905063E+02  0.00000000000E+00 0.  1.
         23    2    1    2    0    0 -0.16487198708E+03  0.19576478600E+01  0.39417010161E+03  0.44519534051E+03  0.12506885183E+03 0.  0.
         23    2    1    2    0    0  0.16487198708E+03 -0.19576478600E+01  0.34842757805E+03  0.39694814928E+03  0.94759968120E+02 0.  0.
          5    1    3    3  502    0 -0.18165910186E+03  0.74094961498E-01  0.38424119771E+03  0.42504520089E+03  0.47000000000E+01 0.  1.
         -5    1    3    3    0  502  0.16787114778E+02  0.18835528985E+01  0.99289038945E+01  0.20150139618E+02  0.47000000000E+01 0.  1.
        -11    1    4    4    0    0  0.71350144498E+02  0.45595053405E+02  0.17115800282E+03  0.19095762342E+03  0.00000000000E+00 0.  1.
         11    1    4    4    0    0  0.93521842585E+02 -0.47552701265E+02  0.17726957523E+03  0.20599052585E+03  0.00000000000E+00 0. -1.
<mgrwt>
<rscale>  0 0.20262298E+03</rscale>
<asrwt>0</asrwt>
<pdfrwt beam="1">  1        3 0.12190316E+00 0.20695126E+03</pdfrwt>
<pdfrwt beam="2">  1       -3 0.76573706E-02 0.20695126E+03</pdfrwt>
<totfact> 0.16039980E+02</totfact>
</mgrwt>
</event>
<event>
 8    1  0.1020295E-005  0.1381896E+03  0.7546771E-02  0.1227566E+00
         -2   -1    0    0    0  501 -0.00000000000E+00  0.00000000000E+00  0.73081886269E+02  0.73081886269E+02  0.00000000000E+00 0.  1.
          2   -1    0    0  501    0  0.00000000000E+00 -0.00000000000E+00 -0.22219677067E+03  0.22219677067E+03  0.00000000000E+00 0. -1.
         23    2    1    2    0    0 -0.38401462320E+02 -0.44644904963E+02 -0.12104723088E+03  0.18370847679E+03  0.12501412918E+03 0.  0.
         23    2    1    2    0    0  0.38401462320E+02  0.44644904963E+02 -0.28067653519E+02  0.11157018015E+03  0.90511171003E+02 0.  0.
          5    1    3    3  502    0 -0.70019167484E+02 -0.60724398412E+02 -0.11441166701E+03  0.14731685554E+03  0.47000000000E+01 0.  1.
         -5    1    3    3    0  502  0.31617705164E+02  0.16079493449E+02 -0.66355638671E+01  0.36391621250E+02  0.47000000000E+01 0.  1.
        -11    1    4    4    0    0  0.45761527404E+02  0.52646487158E+02  0.11357377474E+02  0.70673616177E+02  0.00000000000E+00 0.  1.
         11    1    4    4    0    0 -0.73600650838E+01 -0.80015821957E+01 -0.39425030993E+02  0.40896563969E+02  0.00000000000E+00 0. -1.
<mgrwt>
<rscale>  0 0.12992551E+03</rscale>
<asrwt>0</asrwt>
<pdfrwt beam="2">  1        2 0.34184117E-01 0.13818962E+03</pdfrwt>
<pdfrwt beam="1">  1       -2 0.11243368E-01 0.13818962E+03</pdfrwt>
<totfact> 0.79180255E+03</totfact>
</mgrwt>
</event>
<event>
 8    1  0.1020295E-005  0.1634744E+03  0.7546771E-02  0.1191388E+00
         -2   -1    0    0    0  501 -0.00000000000E+00  0.00000000000E+00  0.78477086239E+02  0.78477086239E+02  0.00000000000E+00 0.  1.
          2   -1    0    0  501    0  0.00000000000E+00 -0.00000000000E+00 -0.60445169306E+03  0.60445169306E+03  0.00000000000E+00 0. -1.
         23    2    1    2    0    0 -0.10760809381E+03  0.15598756614E+02 -0.28726131493E+02  0.16597916044E+03  0.12206993081E+03 0.  0.
         23    2    1    2    0    0  0.10760809381E+03 -0.15598756614E+02 -0.49724847533E+03  0.51694961886E+03  0.90321864235E+02 0.  0.
          5    1    3    3  502    0 -0.38185637566E+02  0.34909263664E+02 -0.66578244653E+02  0.84448518441E+02  0.47000000000E+01 0. -1.
         -5    1    3    3    0  502 -0.69422456249E+02 -0.19310507049E+02  0.37852113160E+02  0.81530641999E+02  0.47000000000E+01 0.  1.
        -11    1    4    4    0    0  0.42396253128E+02  0.38005815178E+02 -0.20080625070E+03  0.20872238640E+03  0.00000000000E+00 0. -1.
         11    1    4    4    0    0  0.65211840687E+02 -0.53604571793E+02 -0.29644222463E+03  0.30822723246E+03  0.00000000000E+00 0.  1.
<mgrwt>
<rscale>  0 0.15763918E+03</rscale>
<asrwt>0</asrwt>
<pdfrwt beam="2">  1        2 0.92992564E-01 0.16347444E+03</pdfrwt>
<pdfrwt beam="1">  1       -2 0.12073398E-01 0.16347444E+03</pdfrwt>
<totfact> 0.24140513E+03</totfact>
</mgrwt>
</event>
<event>
 8    1  0.1020295E-005  0.2364005E+03  0.7546771E-02  0.1125552E+00
         -2   -1    0    0    0  501 -0.00000000000E+00  0.00000000000E+00  0.69113753984E+02  0.69113753984E+02  0.00000000000E+00 0.  1.
          2   -1    0    0  501    0  0.00000000000E+00 -0.00000000000E+00 -0.11484851427E+04  0.11484851427E+04  0.00000000000E+00 0. -1.
         23    2    1    2    0    0 -0.17478439256E+03 -0.98545988900E+02 -0.19379838817E+03  0.30568446058E+03  0.12499711344E+03 0.  0.
         23    2    1    2    0    0  0.17478439256E+03  0.98545988900E+02 -0.88557300052E+03  0.91191443609E+03  0.84187313037E+02 0.  0.
          5    1    3    3  502    0 -0.12151733802E+03 -0.22092879705E+02 -0.48004393892E+02  0.13259362958E+03  0.47000000000E+01 0. -1.
         -5    1    3    3    0  502 -0.53267054539E+02 -0.76453109195E+02 -0.14579399428E+03  0.17309083099E+03  0.47000000000E+01 0. -1.
        -11    1    4    4    0    0  0.13351146710E+03  0.30370053704E+02 -0.51702849059E+03  0.53485148602E+03  0.00000000000E+00 0.  1.
         11    1    4    4    0    0  0.41272925461E+02  0.68175935195E+02 -0.36854450993E+03  0.37706295007E+03  0.00000000000E+00 0. -1.
<mgrwt>
<rscale>  0 0.23155246E+03</rscale>
<asrwt>0</asrwt>
<pdfrwt beam="2">  1        2 0.17669003E+00 0.23640045E+03</pdfrwt>
<pdfrwt beam="1">  1       -2 0.10632885E-01 0.23640045E+03</pdfrwt>
<totfact> 0.12891120E+03</totfact>
</mgrwt>
</event>
<event>
 8    1  0.1020295E-005  0.2071410E+03  0.7546771E-02  0.1147771E+00
         -1   -1    0    0    0  501 -0.00000000000E+00  0.00000000000E+00  0.92105731477E+02  0.92105731477E+02  0.00000000000E+00 0.  1.
          1   -1    0    0  501    0  0.00000000000E+00 -0.00000000000E+00 -0.43490646119E+03  0.43490646119E+03  0.00000000000E+00 0. -1.
         23    2    1    2    0    0  0.13880056832E+03  0.89535973765E+02 -0.13982716262E+03  0.24991808578E+03  0.12500050332E+03 0.  0.
         23    2    1    2    0    0 -0.13880056832E+03 -0.89535973765E+02 -0.20297356710E+03  0.27709410689E+03  0.91107556043E+02 0.  0.
          5    1    3    3  502    0 -0.22752699044E+00 -0.18572133550E+02 -0.47058962831E+02  0.50809565004E+02  0.47000000000E+01 0.  1.
         -5    1    3    3    0  502  0.13902809531E+03  0.10810810732E+03 -0.92768199786E+02  0.19910852077E+03  0.47000000000E+01 0.  1.
        -11    1    4    4    0    0 -0.66375113260E+02  0.26831522053E+01 -0.44506201771E+02  0.79960346185E+02  0.00000000000E+00 0. -1.
         11    1    4    4    0    0 -0.72425455063E+02 -0.92219125971E+02 -0.15846736533E+03  0.19713376071E+03  0.00000000000E+00 0.  1.
<mgrwt>
<rscale>  0 0.20235072E+03</rscale>
<asrwt>0</asrwt>
<pdfrwt beam="2">  1        1 0.66908687E-01 0.20714105E+03</pdfrwt>
<pdfrwt beam="1">  1       -1 0.14170112E-01 0.20714105E+03</pdfrwt>
<totfact> 0.18986005E+03</totfact>
</mgrwt>
</event>
<event>
 8    1  0.1020295E-005  0.1866525E+03  0.7546771E-02  0.1166443E+00
          2   -1    0    0  501    0  0.00000000000E+00  0.00000000000E+00  0.55874185171E+03  0.55874185171E+03  0.00000000000E+00 0. -1.
         -2   -1    0    0    0  501 -0.00000000000E+00 -0.00000000000E+00 -0.56016994559E+02  0.56016994559E+02  0.00000000000E+00 0.  1.
         23    2    1    2    0    0 -0.13080588357E+03 -0.45862254835E+02  0.28376311966E+03  0.33964785692E+03  0.12500253213E+03 0.  0.
         23    2    1    2    0    0  0.13080588357E+03  0.45862254835E+02  0.21896173749E+03  0.27511098935E+03  0.92348732411E+02 0.  0.
          5    1    3    3  502    0 -0.25326497904E+02 -0.66745698848E+02  0.68856769761E+02  0.99296347127E+02  0.47000000000E+01 0.  1.
         -5    1    3    3    0  502 -0.10547938567E+03  0.20883444012E+02  0.21490634990E+03  0.24035150980E+03  0.47000000000E+01 0.  1.
        -11    1    4    4    0    0  0.53962079573E+02  0.12476159646E+02  0.19416595920E+02  0.58690414792E+02  0.00000000000E+00 0.  1.
         11    1    4    4    0    0  0.76843803999E+02  0.33386095190E+02  0.19954514157E+03  0.21642057455E+03  0.00000000000E+00 0. -1.
<mgrwt>
<rscale>  0 0.18141251E+03</rscale>
<asrwt>0</asrwt>
<pdfrwt beam="1">  1        2 0.85960281E-01 0.18665251E+03</pdfrwt>
<pdfrwt beam="2">  1       -2 0.86179995E-02 0.18665251E+03</pdfrwt>
<totfact> 0.45245084E+03</totfact>
</mgrwt>
</event>
<event>
 8    1  0.1020295E-005  0.1368694E+03  0.7546771E-02  0.1229449E+00
         -2   -1    0    0    0  501 -0.00000000000E+00  0.00000000000E+00  0.12916315595E+03  0.12916315595E+03  0.00000000000E+00 0.  1.
          2   -1    0    0  501    0  0.00000000000E+00 -0.00000000000E+00 -0.11840567480E+03  0.11840567480E+03  0.00000000000E+00 0. -1.
         23    2    1    2    0    0 -0.23593294512E+02 -0.50508359858E+02  0.26839693314E+02  0.13947620365E+03  0.12500201713E+03 0.  0.
         23    2    1    2    0    0  0.23593294512E+02  0.50508359858E+02 -0.16082212169E+02  0.10809262710E+03  0.91201099359E+02 0.  0.
          5    1    3    3  502    0 -0.31026406877E+02  0.36838374153E+02  0.28836046673E+01  0.48477921880E+02  0.47000000000E+01 0.  1.
         -5    1    3    3    0  502  0.74331123655E+01 -0.87346734011E+02  0.23956088647E+02  0.90998281770E+02  0.47000000000E+01 0.  1.
        -11    1    4    4    0    0 -0.20362340229E+02  0.50194978245E+02 -0.30081931891E+02  0.61960337047E+02  0.00000000000E+00 0. -1.
         11    1    4    4    0    0  0.43955634741E+02  0.31338161302E+00  0.13999719722E+02  0.46132290056E+02  0.00000000000E+00 0.  1.
<mgrwt>
<rscale>  0 0.12866596E+03</rscale>
<asrwt>0</asrwt>
<pdfrwt beam="2">  1        2 0.18216258E-01 0.13686944E+03</pdfrwt>
<pdfrwt beam="1">  1       -2 0.19871255E-01 0.13686944E+03</pdfrwt>
<totfact> 0.62500227E+03</totfact>
</mgrwt>
</event>
<event>
 8    1  0.1020295E-005  0.1297175E+03  0.7546771E-02  0.1241694E+00
          2   -1    0    0  501    0  0.00000000000E+00  0.00000000000E+00  0.36821869642E+03  0.36821869642E+03  0.00000000000E+00 0. -1.
         -2   -1    0    0    0  501 -0.00000000000E+00 -0.00000000000E+00 -0.35294687677E+02  0.35294687677E+02  0.00000000000E+00 0.  1.
         23    2    1    2    0    0  0.31086852018E+02 -0.15296775536E+02  0.17592486528E+03  0.21857762757E+03  0.12500494926E+03 0.  0.
         23    2    1    2    0    0 -0.31086852018E+02  0.15296775536E+02  0.15699914347E+03  0.18493575653E+03  0.91389929879E+02 0.  0.
          5    1    3    3  502    0  0.74035325537E+02  0.60025158033E+01  0.69817199813E+02  0.10204798388E+03  0.47000000000E+01 0. -1.
         -5    1    3    3    0  502 -0.42948473518E+02 -0.21299291340E+02  0.10610766547E+03  0.11652964370E+03  0.47000000000E+01 0. -1.
        -11    1    4    4    0    0 -0.55824227247E+02  0.17243947266E+02  0.55989693268E+02  0.80923073454E+02  0.00000000000E+00 0.  1.
         11    1    4    4    0    0  0.24737375229E+02 -0.19471717294E+01  0.10100945020E+03  0.10401268307E+03  0.00000000000E+00 0. -1.
<mgrwt>
<rscale>  0 0.12085468E+03</rscale>
<asrwt>0</asrwt>
<pdfrwt beam="1">  1        2 0.56649028E-01 0.12971747E+03</pdfrwt>
<pdfrwt beam="2">  1       -2 0.54299522E-02 0.12971747E+03</pdfrwt>
<totfact> 0.14165686E+04</totfact>
</mgrwt>
</event>
<event>
 8    1  0.1020295E-005  0.1328447E+03  0.7546771E-02  0.1235652E+00
         -3   -1    0    0    0  501 -0.00000000000E+00  0.00000000000E+00  0.15259132447E+03  0.15259132447E+03  0.00000000000E+00 0.  1.
          3   -1    0    0  501    0  0.00000000000E+00 -0.00000000000E+00 -0.91935097257E+02  0.91935097257E+02  0.00000000000E+00 0. -1.
         23    2    1    2    0    0 -0.30101043016E+02 -0.33408540565E+02  0.46003261479E+02  0.14058451705E+03  0.12500201197E+03 0.  0.
         23    2    1    2    0    0  0.30101043016E+02  0.33408540565E+02  0.14652965732E+02  0.10394190467E+03  0.92558126431E+02 0.  0.
          5    1    3    3  502    0  0.17162404322E+02  0.17517361354E+02 -0.28979213148E+02  0.38252985054E+02  0.47000000000E+01 0.  1.
         -5    1    3    3    0  502 -0.47263447338E+02 -0.50925901919E+02  0.74982474626E+02  0.10233153200E+03  0.47000000000E+01 0.  1.
        -11    1    4    4    0    0 -0.71385413112E+01 -0.21722114391E+02  0.27935037254E+02  0.36099519831E+02  0.00000000000E+00 0.  1.
         11    1    4    4    0    0  0.37239584327E+02  0.55130654956E+02 -0.13282071522E+02  0.67842384839E+02  0.00000000000E+00 0. -1.
<mgrwt>
<rscale>  0 0.12462812E+03</rscale>
<asrwt>0</asrwt>
<pdfrwt beam="2">  1        3 0.14143861E-01 0.13284467E+03</pdfrwt>
<pdfrwt beam="1">  1       -3 0.23475588E-01 0.13284467E+03</pdfrwt>
<totfact> 0.15829454E+03</totfact>
</mgrwt>
</event>
<event>
 8    1  0.1020295E-005  0.1255671E+03  0.7546771E-02  0.1249348E+00
         -1   -1    0    0    0  501 -0.00000000000E+00  0.00000000000E+00  0.32066156550E+02  0.32066156550E+02  0.00000000000E+00 0.  1.
          1   -1    0    0  501    0  0.00000000000E+00 -0.00000000000E+00 -0.39707272653E+03  0.39707272653E+03  0.00000000000E+00 0. -1.
         23    2    1    2    0    0  0.48157012505E+01 -0.10930120989E+02 -0.15331395366E+03  0.19817230291E+03  0.12499773890E+03 0.  0.
         23    2    1    2    0    0 -0.48157012505E+01  0.10930120989E+02 -0.21169261631E+03  0.23096658017E+03  0.91592242192E+02 0.  0.
          5    1    3    3  502    0  0.24150294518E+02  0.65526867933E+01  0.13808135646E+02  0.28964271776E+02  0.47000000000E+01 0. -1.
         -5    1    3    3    0  502 -0.19334593268E+02 -0.17482807783E+02 -0.16712208931E+03  0.16920803113E+03  0.47000000000E+01 0. -1.
        -11    1    4    4    0    0 -0.10585945575E+02  0.39394224099E+02 -0.41053911166E+02  0.57873921226E+02  0.00000000000E+00 0.  1.
         11    1    4    4    0    0  0.57702443241E+01 -0.28464103109E+02 -0.17063870515E+03  0.17309265894E+03  0.00000000000E+00 0. -1.
<mgrwt>
<rscale>  0 0.11628854E+03</rscale>
<asrwt>0</asrwt>
<pdfrwt beam="2">  1        1 0.61088119E-01 0.12556709E+03</pdfrwt>
<pdfrwt beam="1">  1       -1 0.49332543E-02 0.12556709E+03</pdfrwt>
<totfact> 0.10357727E+04</totfact>
</mgrwt>
</event>
<event>
 8    1  0.1020295E-005  0.1543634E+03  0.7546771E-02  0.1203129E+00
          4   -1    0    0  501    0  0.00000000000E+00  0.00000000000E+00  0.23563627912E+03  0.23563627912E+03  0.00000000000E+00 0. -1.
         -4   -1    0    0    0  501 -0.00000000000E+00 -0.00000000000E+00 -0.91537676579E+02  0.91537676579E+02  0.00000000000E+00 0.  1.
         23    2    1    2    0    0 -0.42033644763E+02 -0.80212271052E+02  0.36882352131E+02  0.15870843567E+03  0.12500889542E+03 0.  0.
         23    2    1    2    0    0  0.42033644763E+02  0.80212271052E+02  0.10721625041E+03  0.16846552003E+03  0.93190511147E+02 0.  0.
          5    1    3    3  502    0 -0.33398924589E+02 -0.11248021736E+03  0.14720231387E+02  0.11834721236E+03  0.47000000000E+01 0.  1.
         -5    1    3    3    0  502 -0.86347201736E+01  0.32267946308E+02  0.22162120744E+02  0.40361223312E+02  0.47000000000E+01 0.  1.
        -11    1    4    4    0    0  0.49987952684E+02  0.34119092008E+02  0.11043354629E+02  0.61521244578E+02  0.00000000000E+00 0.  1.
         11    1    4    4    0    0 -0.79543079209E+01  0.46093179044E+02  0.96172895786E+02  0.10694427546E+03  0.00000000000E+00 0. -1.
<mgrwt>
<rscale>  0 0.14785870E+03</rscale>
<asrwt>0</asrwt>
<pdfrwt beam="1">  1        4 0.36251735E-01 0.15436340E+03</pdfrwt>
<pdfrwt beam="2">  1       -4 0.14082720E-01 0.15436340E+03</pdfrwt>
<totfact> 0.52821665E+02</totfact>
</mgrwt>
</event>
<event>
 8    1  0.1020295E-005  0.1603708E+03  0.7546771E-02  0.1195946E+00
          2   -1    0    0  501    0  0.00000000000E+00  0.00000000000E+00  0.28729170522E+03  0.28729170522E+03  0.00000000000E+00 0. -1.
         -2   -1    0    0    0  501 -0.00000000000E+00 -0.00000000000E+00 -0.81220022545E+02  0.81220022545E+02  0.00000000000E+00 0.  1.
         23    2    1    2    0    0  0.79334867375E+02 -0.61658272878E+02  0.65324464354E+02  0.17316492457E+03  0.12499216640E+03 0.  0.
         23    2    1    2    0    0 -0.79334867375E+02  0.61658272878E+02  0.14074721832E+03  0.19534680320E+03  0.90856096439E+02 0.  0.
          5    1    3    3  502    0  0.96856880682E+02 -0.80153589997E+02  0.73859995709E+02  0.14588777293E+03  0.47000000000E+01 0. -1.
         -5    1    3    3    0  502 -0.17522013308E+02  0.18495317119E+02 -0.85355313549E+01  0.27277151633E+02  0.47000000000E+01 0. -1.
        -11    1    4    4    0    0 -0.29063252842E+01  0.53515374486E+02  0.32809498448E+02  0.62839519584E+02  0.00000000000E+00 0.  1.
         11    1    4    4    0    0 -0.76428542090E+02  0.81428983911E+01  0.10793771988E+03  0.13250728362E+03  0.00000000000E+00 0. -1.
<mgrwt>
<rscale>  0 0.15374476E+03</rscale>
<asrwt>0</asrwt>
<pdfrwt beam="1">  1        2 0.44198723E-01 0.16037084E+03</pdfrwt>
<pdfrwt beam="2">  1       -2 0.12495388E-01 0.16037084E+03</pdfrwt>
<totfact> 0.51310557E+03</totfact>
</mgrwt>
</event>
<event>
 8    1  0.1020295E-005  0.1312861E+03  0.7546771E-02  0.1241624E+00
         -1   -1    0    0    0  501 -0.00000000000E+00  0.00000000000E+00  0.12022387963E+03  0.12022387963E+03  0.00000000000E+00 0.  1.
          1   -1    0    0  501    0  0.00000000000E+00 -0.00000000000E+00 -0.10707883031E+03  0.10707883031E+03  0.00000000000E+00 0. -1.
         23    2    1    2    0    0  0.39919377961E+02  0.64128026300E+01  0.19280296666E+02  0.13269428788E+03  0.12490541790E+03 0.  0.
         23    2    1    2    0    0 -0.39919377961E+02 -0.64128026300E+01 -0.61352473466E+01  0.94608422067E+02  0.85313723935E+02 0.  0.
          5    1    3    3  502    0 -0.33810764762E+02  0.29883696905E+01  0.43037790497E+02  0.55013085517E+02  0.47000000000E+01 0. -1.
         -5    1    3    3    0  502  0.73730142724E+02  0.34244329395E+01 -0.23757493831E+02  0.77681202360E+02  0.47000000000E+01 0. -1.
        -11    1    4    4    0    0  0.69751403177E+00  0.25753082974E+02 -0.28287137025E+02  0.38260553179E+02  0.00000000000E+00 0. -1.
         11    1    4    4    0    0 -0.40616891993E+02 -0.32165885604E+02  0.22151889678E+02  0.56347868888E+02  0.00000000000E+00 0.  1.
<mgrwt>
<rscale>  0 0.12089763E+03</rscale>
<asrwt>0</asrwt>
<pdfrwt beam="2">  1        1 0.16473666E-01 0.13128612E+03</pdfrwt>
<pdfrwt beam="1">  1       -1 0.18495982E-01 0.13128612E+03</pdfrwt>
<totfact> 0.71266148E+03</totfact>
</mgrwt>
</event>
<event>
 8    1  0.1020295E-005  0.1398351E+03  0.7546771E-02  0.1224198E+00
         -1   -1    0    0    0  501 -0.00000000000E+00  0.00000000000E+00  0.66693184228E+03  0.66693184228E+03  0.00000000000E+00 0.  1.
          1   -1    0    0  501    0  0.00000000000E+00 -0.00000000000E+00 -0.34191815428E+02  0.34191815428E+02  0.00000000000E+00 0. -1.
         23    2    1    2    0    0  0.18467837470E+02 -0.59898316834E+02  0.53392408100E+03  0.55193185515E+03  0.12499991633E+03 0.  0.
         23    2    1    2    0    0 -0.18467837470E+02  0.59898316834E+02  0.98815945861E+02  0.14919180256E+03  0.92545844936E+02 0.  0.
          5    1    3    3  502    0  0.59860851648E+02 -0.73536308671E+02  0.39540455050E+03  0.40664205244E+03  0.47000000000E+01 0.  1.
         -5    1    3    3    0  502 -0.41393014178E+02  0.13637991837E+02  0.13851953049E+03  0.14528980271E+03  0.47000000000E+01 0.  1.
        -11    1    4    4    0    0 -0.21550389449E+02  0.12055535790E+02 -0.12728640645E+02  0.27780812106E+02  0.00000000000E+00 0. -1.
         11    1    4    4    0    0  0.30825519792E+01  0.47842781044E+02  0.11154458651E+03  0.12141099046E+03  0.00000000000E+00 0.  1.
<mgrwt>
<rscale>  0 0.13222027E+03</rscale>
<asrwt>0</asrwt>
<pdfrwt beam="2">  1        1 0.52602798E-02 0.13983508E+03</pdfrwt>
<pdfrwt beam="1">  1       -1 0.10260489E+00 0.13983508E+03</pdfrwt>
<totfact> 0.14430221E+03</totfact>
</mgrwt>
</event>
<event>
 8    1  0.1020295E-005  0.1588947E+03  0.7546771E-02  0.1198268E+00
          1   -1    0    0  501    0  0.00000000000E+00  0.00000000000E+00  0.30615131285E+03  0.30615131285E+03  0.00000000000E+00 0. -1.
         -1   -1    0    0    0  501 -0.00000000000E+00 -0.00000000000E+00 -0.72342669335E+02  0.72342669335E+02  0.00000000000E+00 0.  1.
         23    2    1    2    0    0  0.52455165310E+02  0.82892866979E+02  0.88338909014E+02  0.18180012481E+03  0.12499900308E+03 0.  0.
         23    2    1    2    0    0 -0.52455165310E+02 -0.82892866979E+02  0.14546973450E+03  0.19669385738E+03  0.88905894691E+02 0.  0.
          5    1    3    3  502    0  0.57330905393E+02 -0.51522714937E+01  0.71486924719E+02  0.91901300428E+02  0.47000000000E+01 0. -1.
         -5    1    3    3    0  502 -0.48757400829E+01  0.88045138473E+02  0.16851984295E+02  0.89898824379E+02  0.47000000000E+01 0. -1.
        -11    1    4    4    0    0 -0.23790257004E+02 -0.17382948290E+02  0.11543402676E+03  0.11913503999E+03  0.00000000000E+00 0. -1.
         11    1    4    4    0    0 -0.28664908306E+02 -0.65509918689E+02  0.30035707739E+02  0.77558817386E+02  0.00000000000E+00 0.  1.
<mgrwt>
<rscale>  0 0.15180832E+03</rscale>
<asrwt>0</asrwt>
<pdfrwt beam="1">  1        1 0.47100201E-01 0.15889469E+03</pdfrwt>
<pdfrwt beam="2">  1       -1 0.11129642E-01 0.15889469E+03</pdfrwt>
<totfact> 0.42720372E+03</totfact>
</mgrwt>
</event>
<event>
 8    1  0.1020295E-005  0.1702377E+03  0.7546771E-02  0.1184171E+00
         -1   -1    0    0    0  501 -0.00000000000E+00  0.00000000000E+00  0.16927161780E+03  0.16927161780E+03  0.00000000000E+00 0.  1.
          1   -1    0    0  501    0  0.00000000000E+00 -0.00000000000E+00 -0.14862512040E+03  0.14862512040E+03  0.00000000000E+00 0. -1.
         23    2    1    2    0    0  0.93260412171E+02 -0.68249263820E+02  0.14912929277E+02  0.17088961057E+03  0.12500158820E+03 0.  0.
         23    2    1    2    0    0 -0.93260412171E+02  0.68249263820E+02  0.57335681283E+01  0.14700712763E+03  0.90679409348E+02 0.  0.
          5    1    3    3  502    0  0.10382542621E+03 -0.93875396925E+02  0.22313201689E+02  0.14181776421E+03  0.47000000000E+01 0.  1.
         -5    1    3    3    0  502 -0.10565014035E+02  0.25626133105E+02 -0.74002724118E+01  0.29071846368E+02  0.47000000000E+01 0.  1.
        -11    1    4    4    0    0 -0.68236958114E+02  0.17329901753E+02  0.39755528486E+02  0.80852396332E+02  0.00000000000E+00 0.  1.
         11    1    4    4    0    0 -0.25023454057E+02  0.50919362067E+02 -0.34021960358E+02  0.66154731296E+02  0.00000000000E+00 0. -1.
<mgrwt>
<rscale>  0 0.16407549E+03</rscale>
<asrwt>0</asrwt>
<pdfrwt beam="2">  1        1 0.22865403E-01 0.17023767E+03</pdfrwt>
<pdfrwt beam="1">  1       -1 0.26041787E-01 0.17023767E+03</pdfrwt>
<totfact> 0.27291941E+03</totfact>
</mgrwt>
</event>
<event>
 8    1  0.1020295E-005  0.1262022E+03  0.7546771E-02  0.1248513E+00
          4   -1    0    0  501    0  0.00000000000E+00  0.00000000000E+00  0.16049921491E+03  0.16049921491E+03  0.00000000000E+00 0.  1.
         -4   -1    0    0    0  501 -0.00000000000E+00 -0.00000000000E+00 -0.74689887753E+02  0.74689887753E+02  0.00000000000E+00 0. -1.
         23    2    1    2    0    0  0.15662270812E+02  0.72647452900E+01  0.55155561946E+02  0.13772844359E+03  0.12501561866E+03 0.  0.
         23    2    1    2    0    0 -0.15662270812E+02 -0.72647452900E+01  0.30653765210E+02  0.97460659071E+02  0.90889182491E+02 0.  0.
          5    1    3    3  502    0  0.26234726805E+02  0.42246039748E+02 -0.20173973948E+02  0.53870845452E+02  0.47000000000E+01 0. -1.
         -5    1    3    3    0  502 -0.10572455993E+02 -0.34981294458E+02  0.75329535893E+02  0.83857598139E+02  0.47000000000E+01 0. -1.
        -11    1    4    4    0    0 -0.17917258320E+02  0.39148604669E+02  0.27064842228E+02  0.50854174637E+02  0.00000000000E+00 0.  1.
         11    1    4    4    0    0  0.22549875076E+01 -0.46413349959E+02  0.35889229828E+01  0.46606484434E+02  0.00000000000E+00 0. -1.
<mgrwt>
<rscale>  0 0.11677572E+03</rscale>
<asrwt>0</asrwt>
<pdfrwt beam="1">  1        4 0.24692187E-01 0.12620217E+03</pdfrwt>
<pdfrwt beam="2">  1       -4 0.11490752E-01 0.12620217E+03</pdfrwt>
<totfact> 0.14867442E+03</totfact>
</mgrwt>
</event>
<event>
 8    1  0.1020295E-005  0.1763354E+03  0.7546771E-02  0.1177317E+00
         -1   -1    0    0    0  501 -0.00000000000E+00  0.00000000000E+00  0.10215361948E+03  0.10215361948E+03  0.00000000000E+00 0.  1.
          1   -1    0    0  501    0  0.00000000000E+00 -0.00000000000E+00 -0.37251007282E+03  0.37251007282E+03  0.00000000000E+00 0. -1.
         23    2    1    2    0    0  0.56928652827E+02  0.11058187852E+03 -0.15771202294E+02  0.17703929353E+03  0.12499982905E+03 0.  0.
         23    2    1    2    0    0 -0.56928652827E+02 -0.11058187852E+03 -0.25458525104E+03  0.29762439877E+03  0.91090116512E+02 0.  0.
          5    1    3    3  502    0 -0.16428348307E+02  0.93363239180E+02 -0.31338502660E+02  0.99953873398E+02  0.47000000000E+01 0.  1.
         -5    1    3    3    0  502  0.73357001134E+02  0.17218639337E+02  0.15567300366E+02  0.77085420130E+02  0.47000000000E+01 0.  1.
        -11    1    4    4    0    0  0.23119598399E+02 -0.97668227284E+01 -0.49185508631E+02  0.55218845657E+02  0.00000000000E+00 0. -1.
         11    1    4    4    0    0 -0.80048251226E+02 -0.10081505579E+03 -0.20539974241E+03  0.24240555312E+03  0.00000000000E+00 0.  1.
<mgrwt>
<rscale>  0 0.17051030E+03</rscale>
<asrwt>0</asrwt>
<pdfrwt beam="2">  1        1 0.57309242E-01 0.17633542E+03</pdfrwt>
<pdfrwt beam="1">  1       -1 0.15715942E-01 0.17633542E+03</pdfrwt>
<totfact> 0.19567515E+03</totfact>
</mgrwt>
</event>
<event>
 8    1  0.1020295E-005  0.1331254E+03  0.7546771E-02  0.1223884E+00
          1   -1    0    0  501    0  0.00000000000E+00  0.00000000000E+00  0.46382984226E+02  0.46382984226E+02  0.00000000000E+00 0. -1.
         -1   -1    0    0    0  501 -0.00000000000E+00 -0.00000000000E+00 -0.81453523327E+03  0.81453523327E+03  0.00000000000E+00 0.  1.
         23    2    1    2    0    0 -0.22765402166E+02 -0.34593829807E+02 -0.70236450360E+03  0.71486940865E+03  0.12652027074E+03 0.  0.
         23    2    1    2    0    0  0.22765402166E+02  0.34593829807E+02 -0.65787745446E+02  0.14604880885E+03  0.12364154042E+03 0.  0.
          5    1    3    3  502    0 -0.41253928668E+01  0.46337330073E+02 -0.18263809871E+03  0.18852833242E+03  0.47000000000E+01 0. -1.
         -5    1    3    3    0  502 -0.18640009299E+02 -0.80931159880E+02 -0.51972640489E+03  0.52634107623E+03  0.47000000000E+01 0.  1.
        -11    1    4    4    0    0 -0.26008407162E+02  0.52101314855E+02  0.48583773399E+01  0.58434476837E+02  0.00000000000E+00 0. -1.
         11    1    4    4    0    0  0.48773809328E+02 -0.17507485048E+02 -0.70646122786E+02  0.87614332011E+02  0.00000000000E+00 0.  1.
<mgrwt>
<rscale>  0 0.13243688E+03</rscale>
<asrwt>0</asrwt>
<pdfrwt beam="1">  1        1 0.71358432E-02 0.13312541E+03</pdfrwt>
<pdfrwt beam="2">  1       -1 0.12531312E+00 0.13312541E+03</pdfrwt>
<totfact> 0.60139036E+02</totfact>
</mgrwt>
</event>
<event>
 8    1  0.1020295E-005  0.1459293E+03  0.7546771E-02  0.1211156E+00
          4   -1    0    0  501    0  0.00000000000E+00  0.00000000000E+00  0.43058238472E+03  0.43058238472E+03  0.00000000000E+00 0. -1.
         -4   -1    0    0    0  501 -0.00000000000E+00 -0.00000000000E+00 -0.50600313098E+02  0.50600313098E+02  0.00000000000E+00 0.  1.
         23    2    1    2    0    0  0.33282482581E+02  0.85221722464E+02  0.11334885640E+03  0.18477913644E+03  0.11368773192E+03 0.  0.
         23    2    1    2    0    0 -0.33282482581E+02 -0.85221722464E+02  0.26663321522E+03  0.29640356138E+03  0.91604225401E+02 0.  0.
          5    1    3    3  502    0 -0.31745144888E+02  0.64961655025E+02  0.33805912429E+02  0.79954365502E+02  0.47000000000E+01 0. -1.
         -5    1    3    3    0  502  0.65027627469E+02  0.20260067439E+02  0.79542943970E+02  0.10482477094E+03  0.47000000000E+01 0.  1.
        -11    1    4    4    0    0 -0.18191663196E+02  0.16861826933E+02  0.35790180654E+02  0.43545319480E+02  0.00000000000E+00 0.  1.
         11    1    4    4    0    0 -0.15090819385E+02 -0.10208354940E+03  0.23084303457E+03  0.25285824190E+03  0.00000000000E+00 0. -1.
<mgrwt>
<rscale>  0 0.14162731E+03</rscale>
<asrwt>0</asrwt>
<pdfrwt beam="1">  1        4 0.66243441E-01 0.14592932E+03</pdfrwt>
<pdfrwt beam="2">  1       -4 0.77846638E-02 0.14592932E+03</pdfrwt>
<totfact> 0.41823963E+02</totfact>
</mgrwt>
</event>
<event>
 8    1  0.1182411E-005  0.4214930E+03  0.7546771E-02  0.1037246E+00
          1   -1    0    0  501    0  0.00000000000E+00  0.00000000000E+00  0.88433552886E+03  0.88433552886E+03  0.00000000000E+00 0. -1.
         -1   -1    0    0    0  501 -0.00000000000E+00 -0.00000000000E+00 -0.29634845881E+03  0.29634845881E+03  0.00000000000E+00 0.  1.
         23    2    1    2    0    0 -0.18540658052E+03 -0.35728900414E+03 -0.45830229285E+02  0.42397727504E+03  0.12500114901E+03 0.  0.
         23    2    1    2    0    0  0.18540658052E+03  0.35728900414E+03  0.63381729933E+03  0.75670671263E+03  0.94072564728E+02 0.  0.
          5    1    3    3  502    0 -0.90174341670E+02 -0.13987017467E+03  0.40535714705E+02  0.17134850984E+03  0.47000000000E+01 0. -1.
         -5    1    3    3    0  502 -0.95232238847E+02 -0.21741882947E+03 -0.86365943990E+02  0.25262876520E+03  0.47000000000E+01 0. -1.
        -11    1    4    4    0    0  0.13152527355E+03  0.21917802252E+03  0.31938125928E+03  0.40907492213E+03  0.00000000000E+00 0.  1.
         11    1    4    4    0    0  0.53881306968E+02  0.13811098163E+03  0.31443604005E+03  0.34763179050E+03  0.00000000000E+00 0. -1.
<mgrwt>
<rscale>  0 0.41944920E+03</rscale>
<asrwt>0</asrwt>
<pdfrwt beam="1">  1        1 0.13605162E+00 0.42149297E+03</pdfrwt>
<pdfrwt beam="2">  1       -1 0.45592071E-01 0.42149297E+03</pdfrwt>
<totfact> 0.94528124E+01</totfact>
</mgrwt>
</event>
<event>
 8    1  0.1020295E-005  0.1671766E+03  0.7546771E-02  0.1187609E+00
          2   -1    0    0  501    0  0.00000000000E+00  0.00000000000E+00  0.43513503813E+02  0.43513503813E+02  0.00000000000E+00 0. -1.
         -2   -1    0    0    0  501 -0.00000000000E+00 -0.00000000000E+00 -0.55551729616E+03  0.55551729616E+03  0.00000000000E+00 0.  1.
         23    2    1    2    0    0 -0.99960270730E+02  0.48268407051E+02 -0.28230845200E+03  0.32809463868E+03  0.12500453998E+03 0.  0.
         23    2    1    2    0    0  0.99960270730E+02 -0.48268407051E+02 -0.22969534035E+03  0.27093616129E+03  0.91239022768E+02 0.  0.
          5    1    3    3  502    0 -0.41564926301E+01  0.60831372403E+02 -0.60104560146E+02  0.85746022939E+02  0.47000000000E+01 0.  1.
         -5    1    3    3    0  502 -0.95803778099E+02 -0.12562965352E+02 -0.22220389186E+03  0.24234861574E+03  0.47000000000E+01 0.  1.
        -11    1    4    4    0    0  0.27258228328E+02  0.19082293152E+02 -0.19544529595E+02  0.38589293342E+02  0.00000000000E+00 0. -1.
         11    1    4    4    0    0  0.72702042401E+02 -0.67350700203E+02 -0.21015081075E+03  0.23234686795E+03  0.00000000000E+00 0.  1.
<mgrwt>
<rscale>  0 0.16096720E+03</rscale>
<asrwt>0</asrwt>
<pdfrwt beam="1">  1        2 0.66943857E-02 0.16717664E+03</pdfrwt>
<pdfrwt beam="2">  1       -2 0.85464193E-01 0.16717664E+03</pdfrwt>
<totfact> 0.12879393E+03</totfact>
</mgrwt>
</event>
<event>
 8    1  0.1020295E-005  0.1383835E+03  0.7546771E-02  0.1226897E+00
         -1   -1    0    0    0  501 -0.00000000000E+00  0.00000000000E+00  0.11412427964E+04  0.11412427964E+04  0.00000000000E+00 0.  1.
          1   -1    0    0  501    0  0.00000000000E+00 -0.00000000000E+00 -0.13508756242E+02  0.13508756242E+02  0.00000000000E+00 0. -1.
         23    2    1    2    0    0 -0.44165855492E+02  0.39705129920E+02  0.67937985905E+03  0.69333035949E+03  0.12499149718E+03 0.  0.
         23    2    1    2    0    0  0.44165855492E+02 -0.39705129920E+02  0.44835418107E+03  0.46142119312E+03  0.91438097327E+02 0.  0.
          5    1    3    3  502    0 -0.66271870872E+02  0.68671669827E+02  0.38560330002E+03  0.39726534469E+03  0.47000000000E+01 0.  1.
         -5    1    3    3    0  502  0.22106015380E+02 -0.28966539907E+02  0.29377655903E+03  0.29606501480E+03  0.47000000000E+01 0.  1.
        -11    1    4    4    0    0 -0.28043567286E+02 -0.65913624564E+01  0.14528951446E+03  0.14811796224E+03  0.00000000000E+00 0. -1.
         11    1    4    4    0    0  0.72209422778E+02 -0.33113767464E+02  0.30306466661E+03  0.31330323088E+03  0.00000000000E+00 0.  1.
<mgrwt>
<rscale>  0 0.13037732E+03</rscale>
<asrwt>0</asrwt>
<pdfrwt beam="2">  1        1 0.20782711E-02 0.13838351E+03</pdfrwt>
<pdfrwt beam="1">  1       -1 0.17557574E+00 0.13838351E+03</pdfrwt>
<totfact> 0.13743080E+03</totfact>
</mgrwt>
</event>
<event>
 8    1  0.1020295E-005  0.1256984E+03  0.7546771E-02  0.1249004E+00
          1   -1    0    0  501    0  0.00000000000E+00  0.00000000000E+00  0.41204506261E+02  0.41204506261E+02  0.00000000000E+00 0. -1.
         -1   -1    0    0    0  501 -0.00000000000E+00 -0.00000000000E+00 -0.29649794392E+03  0.29649794392E+03  0.00000000000E+00 0.  1.
         23    2    1    2    0    0 -0.89574286177E+01  0.97087296625E+01 -0.12069860656E+03  0.17426487645E+03  0.12500239429E+03 0.  0.
         23    2    1    2    0    0  0.89574286177E+01 -0.97087296625E+01 -0.13459483109E+03  0.16343757373E+03  0.91769150544E+02 0.  0.
          5    1    3    3  502    0 -0.20657449181E+02  0.55909992883E+02 -0.20493941781E+02  0.63204028041E+02  0.47000000000E+01 0. -1.
         -5    1    3    3    0  502  0.11700020563E+02 -0.46201263221E+02 -0.10020466478E+03  0.11106084841E+03  0.47000000000E+01 0. -1.
        -11    1    4    4    0    0 -0.17311373867E+02 -0.29830570044E+02 -0.12097847307E+02  0.36550027138E+02  0.00000000000E+00 0. -1.
         11    1    4    4    0    0  0.26268802485E+02  0.20121840382E+02 -0.12249698378E+03  0.12688754659E+03  0.00000000000E+00 0.  1.
<mgrwt>
<rscale>  0 0.11648899E+03</rscale>
<asrwt>0</asrwt>
<pdfrwt beam="1">  1        1 0.63391546E-02 0.12569842E+03</pdfrwt>
<pdfrwt beam="2">  1       -1 0.45615070E-01 0.12569842E+03</pdfrwt>
<totfact> 0.55180895E+03</totfact>
</mgrwt>
</event>
<event>
 8    1  0.1020295E-005  0.1394330E+03  0.7546771E-02  0.1223400E+00
         -1   -1    0    0    0  501 -0.00000000000E+00  0.00000000000E+00  0.65078422206E+02  0.65078422206E+02  0.00000000000E+00 0.  1.
          1   -1    0    0  501    0  0.00000000000E+00 -0.00000000000E+00 -0.45054839690E+03  0.45054839690E+03  0.00000000000E+00 0. -1.
         23    2    1    2    0    0  0.16312115513E+02  0.59500584041E+02 -0.30669457407E+02  0.14276619934E+03  0.12504066315E+03 0.  0.
         23    2    1    2    0    0 -0.16312115513E+02 -0.59500584041E+02 -0.35480051728E+03  0.37286061976E+03  0.96618994473E+02 0.  0.
          5    1    3    3  502    0 -0.10900264666E+02  0.61292767638E+02 -0.70561117495E+02  0.94215606121E+02  0.47000000000E+01 0.  1.
         -5    1    3    3    0  502  0.27212380179E+02 -0.17921835970E+01  0.39891660088E+02  0.48550593216E+02  0.47000000000E+01 0.  1.
        -11    1    4    4    0    0  0.29319623099E+02  0.87609807459E+01 -0.12944338856E+03  0.13301122481E+03  0.00000000000E+00 0.  1.
         11    1    4    4    0    0 -0.45631738611E+02 -0.68261564787E+02 -0.22535712872E+03  0.23984939496E+03  0.00000000000E+00 0. -1.
<mgrwt>
<rscale>  0 0.13277168E+03</rscale>
<asrwt>0</asrwt>
<pdfrwt beam="2">  1        1 0.69315137E-01 0.13943304E+03</pdfrwt>
<pdfrwt beam="1">  1       -1 0.10012065E-01 0.13943304E+03</pdfrwt>
<totfact> 0.30716504E+03</totfact>
</mgrwt>
</event>
<event>
 8    1  0.1020295E-005  0.1290671E+03  0.7546771E-02  0.1241821E+00
          1   -1    0    0  501    0  0.00000000000E+00  0.00000000000E+00  0.27133745911E+02  0.27133745911E+02  0.00000000000E+00 0. -1.
         -1   -1    0    0    0  501 -0.00000000000E+00 -0.00000000000E+00 -0.69672007323E+03  0.69672007323E+03  0.00000000000E+00 0.  1.
         23    2    1    2    0    0  0.77363726579E+01  0.31191267374E+02 -0.56624129581E+03  0.58076460765E+03  0.12500231118E+03 0.  0.
         23    2    1    2    0    0 -0.77363726579E+01 -0.31191267374E+02 -0.10334503151E+03  0.14308921149E+03  0.93603313424E+02 0.  0.
          5    1    3    3  502    0  0.28520079109E+02  0.72324993592E+02 -0.27325208751E+03  0.28413569459E+03  0.47000000000E+01 0.  1.
         -5    1    3    3    0  502 -0.20783706451E+02 -0.41133726218E+02 -0.29298920830E+03  0.29662891307E+03  0.47000000000E+01 0.  1.
        -11    1    4    4    0    0  0.41119423270E+02 -0.28339370675E+02 -0.55212241926E+02  0.74446749820E+02  0.00000000000E+00 0.  1.
         11    1    4    4    0    0 -0.48855795928E+02 -0.28518966986E+01 -0.48132789582E+02  0.68642461665E+02  0.00000000000E+00 0. -1.
<mgrwt>
<rscale>  0 0.12077681E+03</rscale>
<asrwt>0</asrwt>
<pdfrwt beam="1">  1        1 0.41744217E-02 0.12906713E+03</pdfrwt>
<pdfrwt beam="2">  1       -1 0.10718772E+00 0.12906713E+03</pdfrwt>
<totfact> 0.17900043E+03</totfact>
</mgrwt>
</event>
<event>
 8    1  0.1020295E-005  0.1365999E+03  0.7546771E-02  0.1229701E+00
         -2   -1    0    0    0  501 -0.00000000000E+00  0.00000000000E+00  0.14710191645E+03  0.14710191645E+03  0.00000000000E+00 0.  1.
          2   -1    0    0  501    0  0.00000000000E+00 -0.00000000000E+00 -0.11060525425E+03  0.11060525425E+03  0.00000000000E+00 0. -1.
         23    2    1    2    0    0  0.52021448566E+02 -0.18175518893E+02  0.58336102148E+02  0.14853493141E+03  0.12499177748E+03 0.  0.
         23    2    1    2    0    0 -0.52021448566E+02  0.18175518893E+02 -0.21839439957E+02  0.10917223929E+03  0.91678983933E+02 0.  0.
          5    1    3    3  502    0 -0.33666924262E+02  0.19368635948E+02  0.18857649477E+01  0.39169528427E+02  0.47000000000E+01 0.  1.
         -5    1    3    3    0  502  0.85688372828E+02 -0.37544154842E+02  0.56450337201E+02  0.10936540299E+03  0.47000000000E+01 0.  1.
        -11    1    4    4    0    0 -0.47698374848E+02  0.51665222975E+02 -0.26377100577E+02  0.75101142888E+02  0.00000000000E+00 0. -1.
         11    1    4    4    0    0 -0.43230737177E+01 -0.33489704081E+02  0.45376606203E+01  0.34071096398E+02  0.00000000000E+00 0.  1.
<mgrwt>
<rscale>  0 0.12849867E+03</rscale>
<asrwt>0</asrwt>
<pdfrwt beam="2">  1        2 0.17016193E-01 0.13659987E+03</pdfrwt>
<pdfrwt beam="1">  1       -2 0.22631064E-01 0.13659987E+03</pdfrwt>
<totfact> 0.54133557E+03</totfact>
</mgrwt>
</event>
<event>
 8    1  0.1020295E-005  0.1306876E+03  0.7546771E-02  0.1240160E+00
         -1   -1    0    0    0  501 -0.00000000000E+00  0.00000000000E+00  0.31076805464E+03  0.31076805464E+03  0.00000000000E+00 0.  1.
          1   -1    0    0  501    0  0.00000000000E+00 -0.00000000000E+00 -0.56746275288E+02  0.56746275288E+02  0.00000000000E+00 0. -1.
         23    2    1    2    0    0  0.55074320958E+01 -0.37628834975E+02  0.23232425605E+03  0.26655918884E+03  0.12503191663E+03 0.  0.
         23    2    1    2    0    0 -0.55074320958E+01  0.37628834975E+02  0.21697523308E+02  0.10095514109E+03  0.90966460663E+02 0.  0.
          5    1    3    3  502    0  0.14536752563E+02  0.54249284583E+01 -0.10775515868E+02  0.19466606435E+02  0.47000000000E+01 0. -1.
         -5    1    3    3    0  502 -0.90293204675E+01 -0.43053763433E+02  0.24309977192E+03  0.24709258240E+03  0.47000000000E+01 0. -1.
        -11    1    4    4    0    0  0.10284634850E+02  0.44216072336E+02  0.50218040313E+02  0.67695541505E+02  0.00000000000E+00 0.  1.
         11    1    4    4    0    0 -0.15792066946E+02 -0.65872373613E+01 -0.28520517005E+02  0.33259599587E+02  0.00000000000E+00 0. -1.
<mgrwt>
<rscale>  0 0.12179809E+03</rscale>
<asrwt>0</asrwt>
<pdfrwt beam="2">  1        1 0.87301964E-02 0.13068757E+03</pdfrwt>
<pdfrwt beam="1">  1       -1 0.47810469E-01 0.13068757E+03</pdfrwt>
<totfact> 0.33073868E+03</totfact>
</mgrwt>
</event>
<event>
 8    1  0.1020295E-005  0.1495429E+03  0.7546771E-02  0.1209284E+00
          4   -1    0    0  501    0  0.00000000000E+00  0.00000000000E+00  0.74168346992E+02  0.74168346992E+02  0.00000000000E+00 0. -1.
         -4   -1    0    0    0  501 -0.00000000000E+00 -0.00000000000E+00 -0.36619819136E+03  0.36619819136E+03  0.00000000000E+00 0.  1.
         23    2    1    2    0    0  0.67236490318E+02  0.47050385888E+02 -0.27629646539E+03  0.31417002639E+03  0.12501433619E+03 0.  0.
         23    2    1    2    0    0 -0.67236490318E+02 -0.47050385888E+02 -0.15733378976E+02  0.12619651196E+03  0.94570270034E+02 0.  0.
          5    1    3    3  502    0  0.65546148502E+02 -0.21795938919E+02 -0.78472077510E+02  0.10464854268E+03  0.47000000000E+01 0.  1.
         -5    1    3    3    0  502  0.16903418163E+01  0.68846324807E+02 -0.19782438788E+03  0.20952148371E+03  0.47000000000E+01 0.  1.
        -11    1    4    4    0    0 -0.40772809657E+00  0.25701045070E+02  0.21877151444E+01  0.25797210265E+02  0.00000000000E+00 0.  1.
         11    1    4    4    0    0 -0.66828762222E+02 -0.72751430958E+02 -0.17921094121E+02  0.10039930170E+03  0.00000000000E+00 0. -1.
<mgrwt>
<rscale>  0 0.14304928E+03</rscale>
<asrwt>0</asrwt>
<pdfrwt beam="1">  1        4 0.11410515E-01 0.14954287E+03</pdfrwt>
<pdfrwt beam="2">  1       -4 0.56338184E-01 0.14954287E+03</pdfrwt>
<totfact> 0.31098441E+02</totfact>
</mgrwt>
</event>
<event>
 8    1  0.1020295E-005  0.1398007E+03  0.7546771E-02  0.1224782E+00
          1   -1    0    0  501    0  0.00000000000E+00  0.00000000000E+00  0.91217068514E+02  0.91217068514E+02  0.00000000000E+00 0. -1.
         -1   -1    0    0    0  501 -0.00000000000E+00 -0.00000000000E+00 -0.18542448643E+03  0.18542448643E+03  0.00000000000E+00 0.  1.
         23    2    1    2    0    0  0.95461736557E+01  0.61868808523E+02 -0.89586159477E+02  0.16604193637E+03  0.12500146305E+03 0.  0.
         23    2    1    2    0    0 -0.95461736557E+01 -0.61868808523E+02 -0.46212584408E+01  0.11059961857E+03  0.91060642979E+02 0.  0.
          5    1    3    3  502    0 -0.52041638485E+01  0.86735128381E+02 -0.10213290590E+03  0.13417632535E+03  0.47000000000E+01 0.  1.
         -5    1    3    3    0  502  0.14750337504E+02 -0.24866319858E+02  0.12546746425E+02  0.31865611019E+02  0.47000000000E+01 0.  1.
        -11    1    4    4    0    0  0.15814595468E+02 -0.66298138017E+02  0.23853870857E+02  0.72211852831E+02  0.00000000000E+00 0. -1.
         11    1    4    4    0    0 -0.25360769124E+02  0.44293294937E+01 -0.28475129298E+02  0.38387765744E+02  0.00000000000E+00 0.  1.
<mgrwt>
<rscale>  0 0.13181828E+03</rscale>
<asrwt>0</asrwt>
<pdfrwt beam="1">  1        1 0.14033395E-01 0.13980073E+03</pdfrwt>
<pdfrwt beam="2">  1       -1 0.28526844E-01 0.13980073E+03</pdfrwt>
<totfact> 0.43470585E+03</totfact>
</mgrwt>
</event>
<event>
 8    1  0.1020295E-005  0.1396377E+03  0.7546771E-02  0.1225356E+00
          1   -1    0    0  501    0  0.00000000000E+00  0.00000000000E+00  0.15414934501E+03  0.15414934501E+03  0.00000000000E+00 0. -1.
         -1   -1    0    0    0  501 -0.00000000000E+00 -0.00000000000E+00 -0.11054056296E+03  0.11054056296E+03  0.00000000000E+00 0.  1.
         23    2    1    2    0    0  0.62063158292E+02  0.46834423363E+01 -0.14975474469E+02  0.14043843794E+03  0.12499967906E+03 0.  0.
         23    2    1    2    0    0 -0.62063158292E+02 -0.46834423363E+01  0.58584256521E+02  0.12425147004E+03  0.90180610144E+02 0.  0.
          5    1    3    3  502    0  0.99460999511E+02 -0.73910642628E+01 -0.72173808098E+01  0.10010643756E+03  0.47000000000E+01 0. -1.
         -5    1    3    3    0  502 -0.37397841219E+02  0.12074506599E+02 -0.77580936591E+01  0.40332000380E+02  0.47000000000E+01 0. -1.
        -11    1    4    4    0    0 -0.40265902738E+02  0.31045496730E+02  0.64339586283E+02  0.82004561785E+02  0.00000000000E+00 0. -1.
         11    1    4    4    0    0 -0.21797255554E+02 -0.35728939066E+02 -0.57553297623E+01  0.42246908256E+02  0.00000000000E+00 0.  1.
<mgrwt>
<rscale>  0 0.13142508E+03</rscale>
<asrwt>0</asrwt>
<pdfrwt beam="1">  1        1 0.23715284E-01 0.13963771E+03</pdfrwt>
<pdfrwt beam="2">  1       -1 0.17006240E-01 0.13963771E+03</pdfrwt>
<totfact> 0.51436524E+03</totfact>
</mgrwt>
</event>
<event>
 8    1  0.1020295E-005  0.2003789E+03  0.7546771E-02  0.1153713E+00
         -2   -1    0    0    0  501 -0.00000000000E+00  0.00000000000E+00  0.11198518041E+03  0.11198518041E+03  0.00000000000E+00 0.  1.
          2   -1    0    0  501    0  0.00000000000E+00 -0.00000000000E+00 -0.57185523603E+03  0.57185523603E+03  0.00000000000E+00 0. -1.
         23    2    1    2    0    0 -0.12210410639E+03 -0.98085857337E+02 -0.11973543864E+02  0.20073636623E+03  0.12498589827E+03 0.  0.
         23    2    1    2    0    0  0.12210410639E+03  0.98085857337E+02 -0.44789651175E+03  0.48310405022E+03  0.90818444661E+02 0.  0.
          5    1    3    3  502    0 -0.10406494480E+03 -0.12019945808E+03  0.16795038087E+02  0.15994244516E+03  0.47000000000E+01 0.  1.
         -5    1    3    3    0  502 -0.18039161596E+02  0.22113600741E+02 -0.28768581951E+02  0.40793921071E+02  0.47000000000E+01 0.  1.
        -11    1    4    4    0    0  0.14793135902E+02  0.64377065874E+01 -0.30618821483E+01  0.16421207575E+02  0.00000000000E+00 0.  1.
         11    1    4    4    0    0  0.10731097049E+03  0.91648150750E+02 -0.44483462960E+03  0.46668284264E+03  0.00000000000E+00 0. -1.
<mgrwt>
<rscale>  0 0.19536073E+03</rscale>
<asrwt>0</asrwt>
<pdfrwt beam="2">  1        2 0.87977728E-01 0.20037895E+03</pdfrwt>
<pdfrwt beam="1">  1       -2 0.17228489E-01 0.20037895E+03</pdfrwt>
<totfact> 0.14425322E+03</totfact>
</mgrwt>
</event>
<event>
 8    1  0.1020295E-005  0.1630146E+03  0.7546771E-02  0.1192689E+00
          1   -1    0    0  501    0  0.00000000000E+00  0.00000000000E+00  0.29477436515E+02  0.29477436515E+02  0.00000000000E+00 0. -1.
         -1   -1    0    0    0  501 -0.00000000000E+00 -0.00000000000E+00 -0.11044855280E+04  0.11044855280E+04  0.00000000000E+00 0.  1.
         23    2    1    2    0    0  0.10441501703E+03 -0.67910561662E+01 -0.87873588595E+03  0.89372843114E+03  0.12500054858E+03 0.  0.
         23    2    1    2    0    0 -0.10441501703E+03  0.67910561662E+01 -0.19627220558E+03  0.24023453342E+03  0.90781265349E+02 0.  0.
          5    1    3    3  502    0  0.15363109890E+02 -0.24596917981E+02 -0.59610329473E+03  0.59682682707E+03  0.47000000000E+01 0.  1.
         -5    1    3    3    0  502  0.89051907145E+02  0.17805861815E+02 -0.28263259121E+03  0.29690160407E+03  0.47000000000E+01 0.  1.
        -11    1    4    4    0    0 -0.80900861092E+02  0.36373115227E+02 -0.17661603974E+03  0.19763901014E+03  0.00000000000E+00 0.  1.
         11    1    4    4    0    0 -0.23514155943E+02 -0.29582059060E+02 -0.19656165845E+02  0.42595523282E+02  0.00000000000E+00 0. -1.
<mgrwt>
<rscale>  0 0.15651421E+03</rscale>
<asrwt>0</asrwt>
<pdfrwt beam="1">  1        1 0.45349912E-02 0.16301457E+03</pdfrwt>
<pdfrwt beam="2">  1       -1 0.16992081E+00 0.16301457E+03</pdfrwt>
<totfact> 0.51204523E+02</totfact>
</mgrwt>
</event>
<event>
 7    1  0.1020295E-005  0.1388929E+03  0.7546771E-02  0.1240806E+00
         -2   -1    0    0    0  501 -0.00000000000E+00  0.00000000000E+00  0.63611139581E+02  0.63611139581E+02  0.00000000000E+00 0.  1.
          2   -1    0    0  501    0  0.00000000000E+00 -0.00000000000E+00 -0.55368149128E+03  0.55368149128E+03  0.00000000000E+00 0. -1.
         23    2    1    2    0    0  0.56178942435E+02  0.54644959629E+02 -0.20049594125E+02  0.14033250294E+03  0.11466943782E+03 0.  0.
          5    1    3    3  502    0  0.29864178846E+02 -0.24761113802E+02 -0.38152956729E+02  0.54614284231E+02  0.47000000000E+01 0. -1.
         -5    1    3    3    0  502  0.26314763589E+02  0.79406073430E+02  0.18103362604E+02  0.85718218705E+02  0.47000000000E+01 0.  1.
        -11    1    1    2    0    0 -0.32185982444E+02 -0.44719507007E+02 -0.32092269664E+03  0.32561810298E+03  0.00000000000E+00 0. -1.
         11    1    1    2    0    0 -0.23992959991E+02 -0.99254526214E+01 -0.14909806094E+03  0.15134202494E+03  0.00000000000E+00 0.  1.
<mgrwt>
<rscale>  0 0.12139969E+03</rscale>
<asrwt>0</asrwt>
<pdfrwt beam="2">  1        2 0.85181768E-01 0.13889285E+03</pdfrwt>
<pdfrwt beam="1">  1       -2 0.97863291E-02 0.13889285E+03</pdfrwt>
<totfact> 0.36997696E+03</totfact>
</mgrwt>
</event>
<event>
 8    1  0.1125697E-005  0.1459970E+03  0.7546771E-02  0.1215545E+00
         -1   -1    0    0    0  501 -0.00000000000E+00  0.00000000000E+00  0.16884605332E+02  0.16884605332E+02  0.00000000000E+00 0.  1.
          1   -1    0    0  501    0  0.00000000000E+00 -0.00000000000E+00 -0.10303775868E+04  0.10303775868E+04  0.00000000000E+00 0. -1.
         23    2    1    2    0    0  0.62616250139E+02 -0.42062492701E+02 -0.55476848113E+03  0.57365772820E+03  0.12500029358E+03 0.  0.
         23    2    1    2    0    0 -0.62616250139E+02  0.42062492701E+02 -0.45872450035E+03  0.47360446394E+03  0.90459786490E+02 0.  0.
          5    1    3    3  502    0 -0.20231235285E+02 -0.40586333425E+02 -0.34610495165E+03  0.34909494539E+03  0.47000000000E+01 0.  1.
         -5    1    3    3    0  502  0.82847485424E+02 -0.14761592764E+01 -0.20866352949E+03  0.22456278281E+03  0.47000000000E+01 0.  1.
        -11    1    4    4    0    0 -0.11522884161E+01  0.49195646541E+02 -0.12783667336E+03  0.13698085436E+03  0.00000000000E+00 0. -1.
         11    1    4    4    0    0 -0.61463961723E+02 -0.71331538393E+01 -0.33088782699E+03  0.33662360958E+03  0.00000000000E+00 0.  1.
<mgrwt>
<rscale>  0 0.13836598E+03</rscale>
<asrwt>0</asrwt>
<pdfrwt beam="2">  1        1 0.15851964E+00 0.14599699E+03</pdfrwt>
<pdfrwt beam="1">  1       -1 0.25976314E-02 0.14599699E+03</pdfrwt>
<totfact> 0.69029333E+03</totfact>
</mgrwt>
</event>
<event>
 8    1  0.1020295E-005  0.1532624E+03  0.7546771E-02  0.1206601E+00
         -1   -1    0    0    0  501 -0.00000000000E+00  0.00000000000E+00  0.64366918260E+02  0.64366918260E+02  0.00000000000E+00 0.  1.
          1   -1    0    0  501    0  0.00000000000E+00 -0.00000000000E+00 -0.32343266535E+03  0.32343266535E+03  0.00000000000E+00 0. -1.
         23    2    1    2    0    0  0.84923920896E+02  0.25534092925E+02 -0.87177473785E+02  0.17632151458E+03  0.12500120930E+03 0.  0.
         23    2    1    2    0    0 -0.84923920896E+02 -0.25534092925E+02 -0.17188827331E+03  0.21147806903E+03  0.85518026976E+02 0.  0.
          5    1    3    3  502    0  0.16973485383E+02 -0.37994029767E+02 -0.70058673483E+02  0.81620789228E+02  0.47000000000E+01 0.  1.
         -5    1    3    3    0  502  0.67950435513E+02  0.63528122692E+02 -0.17118800303E+02  0.94700725356E+02  0.47000000000E+01 0.  1.
        -11    1    4    4    0    0 -0.41844829290E+02 -0.11686336827E+02 -0.11660975965E+02  0.44983758927E+02  0.00000000000E+00 0.  1.
         11    1    4    4    0    0 -0.43079091606E+02 -0.13847756098E+02 -0.16022729734E+03  0.16649431010E+03  0.00000000000E+00 0. -1.
<mgrwt>
<rscale>  0 0.14511970E+03</rscale>
<asrwt>0</asrwt>
<pdfrwt beam="2">  1        1 0.49758870E-01 0.15326240E+03</pdfrwt>
<pdfrwt beam="1">  1       -1 0.99026031E-02 0.15326240E+03</pdfrwt>
<totfact> 0.47645864E+03</totfact>
</mgrwt>
</event>
<event>
 8    1  0.1020295E-005  0.1258232E+03  0.7546771E-02  0.1249060E+00
         -2   -1    0    0    0  501 -0.00000000000E+00  0.00000000000E+00  0.18271079460E+03  0.18271079460E+03  0.00000000000E+00 0.  1.
          2   -1    0    0  501    0  0.00000000000E+00 -0.00000000000E+00 -0.71278575653E+02  0.71278575653E+02  0.00000000000E+00 0. -1.
         23    2    1    2    0    0 -0.47431855727E+01  0.13574443977E+02  0.10045162463E+03  0.16100310634E+03  0.12499883208E+03 0.  0.
         23    2    1    2    0    0  0.47431855727E+01 -0.13574443977E+02  0.10980594318E+02  0.92986263915E+02  0.91209146946E+02 0.  0.
          5    1    3    3  502    0  0.22955625465E+02  0.52043705056E+02  0.97870535040E+02  0.11329712973E+03  0.47000000000E+01 0.  1.
         -5    1    3    3    0  502 -0.27698811038E+02 -0.38469261079E+02  0.25810895929E+01  0.47705976611E+02  0.47000000000E+01 0.  1.
        -11    1    4    4    0    0  0.10579038146E+02  0.29981628064E+02  0.31260412002E+02  0.44587301197E+02  0.00000000000E+00 0.  1.
         11    1    4    4    0    0 -0.58358525733E+01 -0.43556072041E+02 -0.20279817684E+02  0.48398962718E+02  0.00000000000E+00 0. -1.
<mgrwt>
<rscale>  0 0.11645626E+03</rscale>
<asrwt>0</asrwt>
<pdfrwt beam="2">  1        2 0.10965935E-01 0.12582317E+03</pdfrwt>
<pdfrwt beam="1">  1       -2 0.28109353E-01 0.12582317E+03</pdfrwt>
<totfact> 0.61947816E+03</totfact>
</mgrwt>
</event>
<event>
 7    1  0.1020295E-005  0.1874255E+03  0.7546771E-02  0.1168733E+00
          2   -1    0    0  501    0  0.00000000000E+00  0.00000000000E+00  0.54333623374E+03  0.54333623374E+03  0.00000000000E+00 0. -1.
         -2   -1    0    0    0  501 -0.00000000000E+00 -0.00000000000E+00 -0.91607915902E+02  0.91607915902E+02  0.00000000000E+00 0.  1.
         23    2    1    2    0    0  0.93431082089E+02  0.22915914449E+01  0.11525141106E+02  0.15650172312E+03  0.12500136787E+03 0.  0.
          5    1    3    3  502    0  0.43165684807E+02  0.58106648607E+02  0.30810887811E+02  0.78810277026E+02  0.47000000000E+01 0. -1.
         -5    1    3    3    0  502  0.50265397282E+02 -0.55815057163E+02 -0.19285746705E+02  0.77691446093E+02  0.47000000000E+01 0. -1.
        -11    1    1    2    0    0 -0.17203020244E+02 -0.23417448220E+02 -0.20893124428E+01  0.29132216070E+02  0.00000000000E+00 0.  1.
         11    1    1    2    0    0 -0.76228061845E+02  0.21125856775E+02  0.44229248918E+03  0.44931021046E+03  0.00000000000E+00 0. -1.
<mgrwt>
<rscale>  0 0.17904248E+03</rscale>
<asrwt>0</asrwt>
<pdfrwt beam="1">  1        2 0.83590188E-01 0.18742550E+03</pdfrwt>
<pdfrwt beam="2">  1       -2 0.14093526E-01 0.18742550E+03</pdfrwt>
<totfact> 0.21286118E+03</totfact>
</mgrwt>
</event>
<event>
 8    1  0.1020295E-005  0.1315837E+03  0.7546771E-02  0.1237606E+00
         -3   -1    0    0    0  501 -0.00000000000E+00  0.00000000000E+00  0.21639680017E+03  0.21639680017E+03  0.00000000000E+00 0.  1.
          3   -1    0    0  501    0  0.00000000000E+00 -0.00000000000E+00 -0.65595368587E+02  0.65595368587E+02  0.00000000000E+00 0. -1.
         23    2    1    2    0    0 -0.40273470385E+02  0.82016968429E+01  0.11301140091E+03  0.17345275872E+03  0.12500025010E+03 0.  0.
         23    2    1    2    0    0  0.40273470385E+02 -0.82016968429E+01  0.37790030681E+02  0.10853941004E+03  0.93077907503E+02 0.  0.
          5    1    3    3  502    0  0.15035285182E+01  0.28558364337E+01  0.12828030672E+03  0.12840694487E+03  0.47000000000E+01 0.  1.
         -5    1    3    3    0  502 -0.41776998903E+02  0.53458604092E+01 -0.15268905810E+02  0.45045813851E+02  0.47000000000E+01 0.  1.
        -11    1    4    4    0    0  0.27670651850E+02 -0.21335518449E+02  0.66167072156E+02  0.74826136870E+02  0.00000000000E+00 0.  1.
         11    1    4    4    0    0  0.12602818535E+02  0.13133821606E+02 -0.28377041474E+02  0.33713273170E+02  0.00000000000E+00 0. -1.
<mgrwt>
<rscale>  0 0.12339100E+03</rscale>
<asrwt>0</asrwt>
<pdfrwt beam="2">  1        3 0.10091595E-01 0.13158375E+03</pdfrwt>
<pdfrwt beam="1">  1       -3 0.33291815E-01 0.13158375E+03</pdfrwt>
<totfact> 0.14671026E+03</totfact>
</mgrwt>
</event>
<event>
 8    1  0.1020295E-005  0.1356860E+03  0.7546771E-02  0.1227918E+00
         -1   -1    0    0    0  501 -0.00000000000E+00  0.00000000000E+00  0.12911551000E+03  0.12911551000E+03  0.00000000000E+00 0.  1.
          1   -1    0    0  501    0  0.00000000000E+00 -0.00000000000E+00 -0.12755748435E+03  0.12755748435E+03  0.00000000000E+00 0. -1.
         23    2    1    2    0    0  0.20274311513E+02 -0.73173635285E+02  0.32004115455E+02  0.13940934976E+03  0.11245121069E+03 0.  0.
         23    2    1    2    0    0 -0.20274311513E+02  0.73173635285E+02 -0.30446089802E+02  0.11726364459E+03  0.84014102084E+02 0.  0.
          5    1    3    3  502    0  0.57867693549E+02 -0.77358094286E+02  0.29888853011E+02  0.10123427405E+03  0.47000000000E+01 0. -1.
         -5    1    3    3    0  502 -0.37593382036E+02  0.41844590010E+01  0.21152624442E+01  0.38175075708E+02  0.47000000000E+01 0.  1.
        -11    1    4    4    0    0 -0.27736490343E+01  0.36668126297E+02 -0.57727981127E+02  0.68445338922E+02  0.00000000000E+00 0. -1.
         11    1    4    4    0    0 -0.17500662478E+02  0.36505508987E+02  0.27281891324E+02  0.48818305663E+02  0.00000000000E+00 0.  1.
<mgrwt>
<rscale>  0 0.12968910E+03</rscale>
<asrwt>0</asrwt>
<pdfrwt beam="2">  1        1 0.19624228E-01 0.13568605E+03</pdfrwt>
<pdfrwt beam="1">  1       -1 0.19863925E-01 0.13568605E+03</pdfrwt>
<totfact> 0.50944506E+03</totfact>
</mgrwt>
</event>
<event>
 8    1  0.1020295E-005  0.1389064E+03  0.7546771E-02  0.1222767E+00
         -1   -1    0    0    0  501 -0.00000000000E+00  0.00000000000E+00  0.25896425472E+02  0.25896425472E+02  0.00000000000E+00 0.  1.
          1   -1    0    0  501    0  0.00000000000E+00 -0.00000000000E+00 -0.78139653308E+03  0.78139653308E+03  0.00000000000E+00 0. -1.
         23    2    1    2    0    0  0.59133913466E+02  0.38821660464E+02 -0.22894016474E+03  0.26778457745E+03  0.11954513726E+03 0.  0.
         23    2    1    2    0    0 -0.59133913466E+02 -0.38821660464E+02 -0.52655994286E+03  0.53950838110E+03  0.93808202256E+02 0.  0.
          5    1    3    3  502    0 -0.10791271404E+02 -0.34771577989E+02 -0.50464613582E+02  0.62404177731E+02  0.47000000000E+01 0. -1.
         -5    1    3    3    0  502  0.69925184870E+02  0.73593238453E+02 -0.17847555116E+03  0.20538039972E+03  0.47000000000E+01 0.  1.
        -11    1    4    4    0    0 -0.84922858425E+02 -0.32077191914E+02 -0.41380274030E+03  0.42364318241E+03  0.00000000000E+00 0. -1.
         11    1    4    4    0    0  0.25788944959E+02 -0.67444685497E+01 -0.11275720256E+03  0.11586519869E+03  0.00000000000E+00 0.  1.
<mgrwt>
<rscale>  0 0.13321157E+03</rscale>
<asrwt>0</asrwt>
<pdfrwt beam="2">  1        1 0.12021483E+00 0.13890637E+03</pdfrwt>
<pdfrwt beam="1">  1       -1 0.39840660E-02 0.13890637E+03</pdfrwt>
<totfact> 0.57351514E+03</totfact>
</mgrwt>
</event>
<event>
 8    1  0.1020295E-005  0.2758966E+03  0.7546771E-02  0.1099795E+00
          1   -1    0    0  501    0  0.00000000000E+00  0.00000000000E+00  0.40530433114E+03  0.40530433114E+03  0.00000000000E+00 0. -1.
         -1   -1    0    0    0  501 -0.00000000000E+00 -0.00000000000E+00 -0.28053311773E+03  0.28053311773E+03  0.00000000000E+00 0.  1.
         23    2    1    2    0    0 -0.15488539378E+03  0.19105932068E+03 -0.14280385657E+03  0.31066356782E+03  0.12500304674E+03 0.  0.
         23    2    1    2    0    0  0.15488539378E+03 -0.19105932068E+03  0.26757506998E+03  0.37517388105E+03  0.93090674746E+02 0.  0.
          5    1    3    3  502    0  0.15644227737E+02  0.55617479384E+02 -0.26526373610E+02  0.63747818562E+02  0.47000000000E+01 0.  1.
         -5    1    3    3    0  502 -0.17052962151E+03  0.13544184130E+03 -0.11627748296E+03  0.24691574926E+03  0.47000000000E+01 0.  1.
        -11    1    4    4    0    0  0.45936102935E+02 -0.10607170536E+02  0.23507278131E+02  0.52680449359E+02  0.00000000000E+00 0. -1.
         11    1    4    4    0    0  0.10894929084E+03 -0.18045215015E+03  0.24406779184E+03  0.32249343169E+03  0.00000000000E+00 0.  1.
<mgrwt>
<rscale>  0 0.27260939E+03</rscale>
<asrwt>0</asrwt>
<pdfrwt beam="1">  1        1 0.62354513E-01 0.27589656E+03</pdfrwt>
<pdfrwt beam="2">  1       -1 0.43158941E-01 0.27589656E+03</pdfrwt>
<totfact> 0.32290338E+02</totfact>
</mgrwt>
</event>
<event>
 8    1  0.1020295E-005  0.1332579E+03  0.7546771E-02  0.1235334E+00
         -2   -1    0    0    0  501 -0.00000000000E+00  0.00000000000E+00  0.34729433863E+02  0.34729433863E+02  0.00000000000E+00 0.  1.
          2   -1    0    0  501    0  0.00000000000E+00 -0.00000000000E+00 -0.48047705455E+03  0.48047705455E+03  0.00000000000E+00 0. -1.
         23    2    1    2    0    0  0.37203795825E+02 -0.27385178370E+02 -0.14264634166E+03  0.19520670235E+03  0.12499442962E+03 0.  0.
         23    2    1    2    0    0 -0.37203795825E+02  0.27385178370E+02 -0.30310127903E+03  0.31999978606E+03  0.91626455304E+02 0.  0.
          5    1    3    3  502    0  0.44358964512E+02  0.36296331696E+02 -0.28418371156E+02  0.64146981584E+02  0.47000000000E+01 0.  1.
         -5    1    3    3    0  502 -0.71551686866E+01 -0.63681510065E+02 -0.11422797050E+03  0.13105972077E+03  0.47000000000E+01 0.  1.
        -11    1    4    4    0    0  0.25811585620E+02 -0.29596278210E+01 -0.39505971147E+02  0.47283391432E+02  0.00000000000E+00 0.  1.
         11    1    4    4    0    0 -0.63015381446E+02  0.30344806191E+02 -0.26359530788E+03  0.27271639463E+03  0.00000000000E+00 0. -1.
<mgrwt>
<rscale>  0 0.12483049E+03</rscale>
<asrwt>0</asrwt>
<pdfrwt beam="2">  1        2 0.73919545E-01 0.13325794E+03</pdfrwt>
<pdfrwt beam="1">  1       -2 0.53429900E-02 0.13325794E+03</pdfrwt>
<totfact> 0.10930392E+04</totfact>
</mgrwt>
</event>
<event>
 8    1  0.1020295E-005  0.1156605E+03  0.7546771E-02  0.1259565E+00
          1   -1    0    0  501    0  0.00000000000E+00  0.00000000000E+00  0.26262610615E+03  0.26262610615E+03  0.00000000000E+00 0. -1.
         -1   -1    0    0    0  501 -0.00000000000E+00 -0.00000000000E+00 -0.42893441796E+02  0.42893441796E+02  0.00000000000E+00 0.  1.
         23    2    1    2    0    0 -0.22723771878E+02  0.87009484630E+01  0.11516865814E+03  0.16322122997E+03  0.11307198496E+03 0.  0.
         23    2    1    2    0    0  0.22723771878E+02 -0.87009484630E+01  0.10456400622E+03  0.14229831798E+03  0.93397556665E+02 0.  0.
          5    1    3    3  502    0 -0.32676396091E+02 -0.36723428273E+02  0.10405738243E+03  0.11517979807E+03  0.47000000000E+01 0. -1.
         -5    1    3    3    0  502  0.99526242129E+01  0.45424376736E+02  0.11111275704E+02  0.48041431894E+02  0.47000000000E+01 0.  1.
        -11    1    4    4    0    0 -0.34721688648E+02 -0.16478856230E+02  0.45065517566E+02  0.59228787247E+02  0.00000000000E+00 0. -1.
         11    1    4    4    0    0  0.57445460527E+02  0.77779077666E+01  0.59498488656E+02  0.83069530736E+02  0.00000000000E+00 0.  1.
<mgrwt>
<rscale>  0 0.11054464E+03</rscale>
<asrwt>0</asrwt>
<pdfrwt beam="1">  1        1 0.40404015E-01 0.11566049E+03</pdfrwt>
<pdfrwt beam="2">  1       -1 0.65989912E-02 0.11566049E+03</pdfrwt>
<totfact> 0.11156335E+04</totfact>
</mgrwt>
</event>
<event>
 8    1  0.1020295E-005  0.1846880E+03  0.7546771E-02  0.1168846E+00
         -2   -1    0    0    0  501 -0.00000000000E+00  0.00000000000E+00  0.12812652543E+03  0.12812652543E+03  0.00000000000E+00 0.  1.
          2   -1    0    0  501    0  0.00000000000E+00 -0.00000000000E+00 -0.28391342779E+03  0.28391342779E+03  0.00000000000E+00 0. -1.
         23    2    1    2    0    0 -0.12768731129E+03  0.46692837344E+02  0.29793299143E+01  0.18471202557E+03  0.12500154182E+03 0.  0.
         23    2    1    2    0    0  0.12768731129E+03 -0.46692837344E+02 -0.15876623227E+03  0.22732792765E+03  0.89370015413E+02 0.  0.
          5    1    3    3  502    0 -0.83062282754E+02 -0.33883737737E+02  0.16997006915E+02  0.91424497501E+02  0.47000000000E+01 0. -1.
         -5    1    3    3    0  502 -0.44625028539E+02  0.80576575081E+02 -0.14017677001E+02  0.93287528064E+02  0.47000000000E+01 0. -1.
        -11    1    4    4    0    0  0.78170905441E+02 -0.57168480251E+02 -0.14588197073E+03  0.17510132774E+03  0.00000000000E+00 0. -1.
         11    1    4    4    0    0  0.49516405851E+02  0.10475642908E+02 -0.12884261543E+02  0.52226599911E+02  0.00000000000E+00 0.  1.
<mgrwt>
<rscale>  0 0.17892699E+03</rscale>
<asrwt>0</asrwt>
<pdfrwt beam="2">  1        2 0.43678989E-01 0.18468800E+03</pdfrwt>
<pdfrwt beam="1">  1       -2 0.19711773E-01 0.18468800E+03</pdfrwt>
<totfact> 0.24621446E+03</totfact>
</mgrwt>
</event>
<event>
 8    1  0.1020295E-005  0.1592260E+03  0.7546771E-02  0.1197868E+00
          1   -1    0    0  501    0  0.00000000000E+00  0.00000000000E+00  0.14146740414E+03  0.14146740414E+03  0.00000000000E+00 0. -1.
         -1   -1    0    0    0  501 -0.00000000000E+00 -0.00000000000E+00 -0.18002014831E+03  0.18002014831E+03  0.00000000000E+00 0.  1.
         23    2    1    2    0    0  0.54743233024E+02 -0.82046464839E+02 -0.85477917297E+02  0.18071908539E+03  0.12499787808E+03 0.  0.
         23    2    1    2    0    0 -0.54743233024E+02  0.82046464839E+02  0.46925173132E+02  0.14076846706E+03  0.88799467845E+02 0.  0.
          5    1    3    3  502    0  0.11501674143E+02  0.86587372899E+01 -0.78428591388E+02  0.79877382197E+02  0.47000000000E+01 0. -1.
         -5    1    3    3    0  502  0.43241558881E+02 -0.90705202129E+02 -0.70493259097E+01  0.10084170320E+03  0.47000000000E+01 0. -1.
        -11    1    4    4    0    0  0.11047236664E+02  0.23929503729E+01 -0.16159106844E+02  0.19720151708E+02  0.00000000000E+00 0.  1.
         11    1    4    4    0    0 -0.65790469689E+02  0.79653514466E+02  0.63084279976E+02  0.12104831535E+03  0.00000000000E+00 0. -1.
<mgrwt>
<rscale>  0 0.15213952E+03</rscale>
<asrwt>0</asrwt>
<pdfrwt beam="1">  1        1 0.21764216E-01 0.15922598E+03</pdfrwt>
<pdfrwt beam="2">  1       -1 0.27695407E-01 0.15922598E+03</pdfrwt>
<totfact> 0.26155200E+03</totfact>
</mgrwt>
</event>
<event>
 8    1  0.1020295E-005  0.1309514E+03  0.7546771E-02  0.1239650E+00
         -2   -1    0    0    0  501 -0.00000000000E+00  0.00000000000E+00  0.30394856237E+02  0.30394856237E+02  0.00000000000E+00 0.  1.
          2   -1    0    0  501    0  0.00000000000E+00 -0.00000000000E+00 -0.43826277336E+03  0.43826277336E+03  0.00000000000E+00 0. -1.
         23    2    1    2    0    0  0.38105385031E+02 -0.84777181032E+01 -0.21203133561E+03  0.24920984571E+03  0.12499747135E+03 0.  0.
         23    2    1    2    0    0 -0.38105385031E+02  0.84777181032E+01 -0.19583658150E+03  0.21944778388E+03  0.91002588552E+02 0.  0.
          5    1    3    3  502    0  0.49011085599E+01 -0.21005259453E+02 -0.21226544880E+03  0.21341029156E+03  0.47000000000E+01 0.  1.
         -5    1    3    3    0  502  0.33204276471E+02  0.12527541350E+02  0.23411318562E+00  0.35799554148E+02  0.47000000000E+01 0.  1.
        -11    1    4    4    0    0 -0.59409673747E+02  0.24550516502E+02 -0.91975706463E+02  0.11221304637E+03  0.00000000000E+00 0.  1.
         11    1    4    4    0    0  0.21304288716E+02 -0.16072798399E+02 -0.10386087504E+03  0.10723473752E+03  0.00000000000E+00 0. -1.
<mgrwt>
<rscale>  0 0.12211401E+03</rscale>
<asrwt>0</asrwt>
<pdfrwt beam="2">  1        2 0.67425043E-01 0.13095136E+03</pdfrwt>
<pdfrwt beam="1">  1       -2 0.46761317E-02 0.13095136E+03</pdfrwt>
<totfact> 0.14729726E+04</totfact>
</mgrwt>
</event>
<event>
 8    1  0.1020295E-005  0.1671011E+03  0.7546771E-02  0.1187822E+00
          1   -1    0    0  501    0  0.00000000000E+00  0.00000000000E+00  0.75901748849E+03  0.75901748849E+03  0.00000000000E+00 0. -1.
         -1   -1    0    0    0  501 -0.00000000000E+00 -0.00000000000E+00 -0.31726412157E+02  0.31726412157E+02  0.00000000000E+00 0.  1.
         23    2    1    2    0    0  0.41495228154E+02 -0.10284924155E+03  0.38429823834E+03  0.41905597702E+03  0.12499182151E+03 0.  0.
         23    2    1    2    0    0 -0.41495228154E+02  0.10284924155E+03  0.34299283799E+03  0.37168792362E+03  0.90598041942E+02 0.  0.
          5    1    3    3  502    0  0.22153169325E+02 -0.79873731003E+02  0.87180868327E+02  0.12038758083E+03  0.47000000000E+01 0.  1.
         -5    1    3    3    0  502  0.19342058829E+02 -0.22975510546E+02  0.29711737001E+03  0.29866839620E+03  0.47000000000E+01 0.  1.
        -11    1    4    4    0    0  0.23092867503E+02  0.63478082326E+02  0.16452889644E+03  0.17785529295E+03  0.00000000000E+00 0.  1.
         11    1    4    4    0    0 -0.64588095657E+02  0.39371159222E+02  0.17846394155E+03  0.19383263067E+03  0.00000000000E+00 0. -1.
<mgrwt>
<rscale>  0 0.16077719E+03</rscale>
<asrwt>0</asrwt>
<pdfrwt beam="1">  1        1 0.11677191E+00 0.16710109E+03</pdfrwt>
<pdfrwt beam="2">  1       -1 0.48809870E-02 0.16710109E+03</pdfrwt>
<totfact> 0.44721395E+03</totfact>
</mgrwt>
</event>
<event>
 8    1  0.1020295E-005  0.1391972E+03  0.7546771E-02  0.1225805E+00
         -2   -1    0    0    0  501 -0.00000000000E+00  0.00000000000E+00  0.22035010186E+02  0.22035010186E+02  0.00000000000E+00 0. -1.
          2   -1    0    0  501    0  0.00000000000E+00 -0.00000000000E+00 -0.74397685522E+03  0.74397685522E+03  0.00000000000E+00 0.  1.
         23    2    1    2    0    0 -0.44984056337E+02  0.41552082673E+02 -0.31139854940E+03  0.34109372657E+03  0.12500293132E+03 0.  0.
         23    2    1    2    0    0  0.44984056337E+02 -0.41552082673E+02 -0.41054329563E+03  0.42491813883E+03  0.90881715560E+02 0.  0.
          5    1    3    3  502    0 -0.20451981636E+02  0.51558390883E+01  0.45444461128E+01  0.22081852731E+02  0.47000000000E+01 0.  1.
         -5    1    3    3    0  502 -0.24532074701E+02  0.36396243585E+02 -0.31594299552E+03  0.31901187384E+03  0.47000000000E+01 0.  1.
        -11    1    4    4    0    0  0.36700460404E+02 -0.65724833277E+02 -0.36513435366E+03  0.37281332289E+03  0.00000000000E+00 0.  1.
         11    1    4    4    0    0  0.82835959336E+01  0.24172750604E+02 -0.45408941970E+02  0.52104815941E+02  0.00000000000E+00 0. -1.
<mgrwt>
<rscale>  0 0.13111856E+03</rscale>
<asrwt>0</asrwt>
<pdfrwt beam="2">  1        2 0.11445797E+00 0.13919725E+03</pdfrwt>
<pdfrwt beam="1">  1       -2 0.33900019E-02 0.13919725E+03</pdfrwt>
<totfact> 0.13111084E+04</totfact>
</mgrwt>
</event>
<event>
 8    1  0.1020295E-005  0.1504095E+03  0.7546771E-02  0.1209014E+00
          3   -1    0    0  501    0  0.00000000000E+00  0.00000000000E+00  0.17491443091E+03  0.17491443091E+03  0.00000000000E+00 0. -1.
         -3   -1    0    0    0  501 -0.00000000000E+00 -0.00000000000E+00 -0.15773382677E+03  0.15773382677E+03  0.00000000000E+00 0.  1.
         23    2    1    2    0    0  0.73239606710E+02  0.40024327247E+02 -0.84452141614E+02  0.17249686215E+03  0.12512800032E+03 0.  0.
         23    2    1    2    0    0 -0.73239606710E+02 -0.40024327247E+02  0.10163274575E+03  0.16015139554E+03  0.91396212840E+02 0.  0.
          5    1    3    3  502    0  0.14989257949E+01  0.66791655236E+02 -0.65052142925E+02  0.93366178496E+02  0.47000000000E+01 0.  1.
         -5    1    3    3    0  502  0.71740680915E+02 -0.26767327989E+02 -0.19399998689E+02  0.79130683650E+02  0.47000000000E+01 0.  1.
        -11    1    4    4    0    0 -0.30395674523E+02  0.82150246578E+01 -0.84094817307E+01  0.32589922412E+02  0.00000000000E+00 0.  1.
         11    1    4    4    0    0 -0.42843932187E+02 -0.48239351905E+02  0.11004222748E+03  0.12756147312E+03  0.00000000000E+00 0. -1.
<mgrwt>
<rscale>  0 0.14325542E+03</rscale>
<asrwt>0</asrwt>
<pdfrwt beam="1">  1        3 0.26909912E-01 0.15040945E+03</pdfrwt>
<pdfrwt beam="2">  1       -3 0.24266743E-01 0.15040945E+03</pdfrwt>
<totfact> 0.49006072E+02</totfact>
</mgrwt>
</event>
<event>
 8    1  0.1020295E-005  0.1393297E+03  0.7546771E-02  0.1226059E+00
         -3   -1    0    0    0  501 -0.00000000000E+00  0.00000000000E+00  0.29934550883E+03  0.29934550883E+03  0.00000000000E+00 0.  1.
          3   -1    0    0  501    0  0.00000000000E+00 -0.00000000000E+00 -0.51472995782E+02  0.51472995782E+02  0.00000000000E+00 0. -1.
         23    2    1    2    0    0 -0.53996079639E+02 -0.29527306358E+02  0.14666451668E+03  0.20229496893E+03  0.12500134225E+03 0.  0.
         23    2    1    2    0    0  0.53996079639E+02  0.29527306358E+02  0.10120799637E+03  0.14852353569E+03  0.89603257119E+02 0.  0.
          5    1    3    3  502    0 -0.22909100386E+02  0.39307409702E+02  0.10806162543E+03  0.11734267863E+03  0.47000000000E+01 0. -1.
         -5    1    3    3    0  502 -0.31086979253E+02 -0.68834716060E+02  0.38602891256E+02  0.84952290301E+02  0.47000000000E+01 0. -1.
        -11    1    4    4    0    0  0.11750700137E+02 -0.30321500045E+02  0.16281149929E+02  0.36366855263E+02  0.00000000000E+00 0. -1.
         11    1    4    4    0    0  0.42245379503E+02  0.59848806403E+02  0.84926846441E+02  0.11215668042E+03  0.00000000000E+00 0.  1.
<mgrwt>
<rscale>  0 0.13094608E+03</rscale>
<asrwt>0</asrwt>
<pdfrwt beam="2">  1        3 0.79189227E-02 0.13932973E+03</pdfrwt>
<pdfrwt beam="1">  1       -3 0.46053154E-01 0.13932973E+03</pdfrwt>
<totfact> 0.11813866E+03</totfact>
</mgrwt>
</event>
<event>
 8    1  0.1020295E-005  0.1481899E+03  0.7546771E-02  0.1209791E+00
          2   -1    0    0  501    0  0.00000000000E+00  0.00000000000E+00  0.19192367483E+03  0.19192367483E+03  0.00000000000E+00 0. -1.
         -2   -1    0    0    0  501 -0.00000000000E+00 -0.00000000000E+00 -0.10170615050E+03  0.10170615050E+03  0.00000000000E+00 0.  1.
         23    2    1    2    0    0  0.32540879343E+02 -0.72642016755E+02  0.23902456125E+02  0.15010516869E+03  0.12499785131E+03 0.  0.
         23    2    1    2    0    0 -0.32540879343E+02  0.72642016755E+02  0.66315068207E+02  0.14352465664E+03  0.99327072679E+02 0.  0.
          5    1    3    3  502    0  0.23651368061E+02 -0.62372338921E+02  0.72969461823E+02  0.98976402402E+02  0.47000000000E+01 0. -1.
         -5    1    3    3    0  502  0.88895112822E+01 -0.10269677834E+02 -0.49067005698E+02  0.51128766285E+02  0.47000000000E+01 0. -1.
        -11    1    4    4    0    0 -0.52262538037E+02  0.36049714233E+02  0.77781406403E+02  0.10040369495E+03  0.00000000000E+00 0. -1.
         11    1    4    4    0    0  0.19721658694E+02  0.36592302522E+02 -0.11466338196E+02  0.43120961690E+02  0.00000000000E+00 0.  1.
<mgrwt>
<rscale>  0 0.14266214E+03</rscale>
<asrwt>0</asrwt>
<pdfrwt beam="1">  1        2 0.29526719E-01 0.14818986E+03</pdfrwt>
<pdfrwt beam="2">  1       -2 0.15647100E-01 0.14818986E+03</pdfrwt>
<totfact> 0.54633596E+03</totfact>
</mgrwt>
</event>
<event>
 8    1  0.1020295E-005  0.1323837E+03  0.7546771E-02  0.1236585E+00
         -2   -1    0    0    0  501 -0.00000000000E+00  0.00000000000E+00  0.10181717255E+03  0.10181717255E+03  0.00000000000E+00 0.  1.
          2   -1    0    0  501    0  0.00000000000E+00 -0.00000000000E+00 -0.13923491579E+03  0.13923491579E+03  0.00000000000E+00 0. -1.
         23    2    1    2    0    0  0.22129051677E+02 -0.37567479159E+02  0.17931941552E-01  0.13238369680E+03  0.12499772973E+03 0.  0.
         23    2    1    2    0    0 -0.22129051677E+02  0.37567479159E+02 -0.37435675179E+02  0.10866839155E+03  0.92230033761E+02 0.  0.
          5    1    3    3  502    0  0.31140414415E+02 -0.78841056435E+02  0.17047123090E+02  0.86592909614E+02  0.47000000000E+01 0. -1.
         -5    1    3    3    0  502 -0.90113627377E+01  0.41273577276E+02 -0.17029191149E+02  0.45790787182E+02  0.47000000000E+01 0. -1.
        -11    1    4    4    0    0 -0.10019925702E+02  0.24492630354E+02  0.29366085539E+02  0.39530429198E+02  0.00000000000E+00 0.  1.
         11    1    4    4    0    0 -0.12109125975E+02  0.13074848806E+02 -0.66801760718E+02  0.69137962352E+02  0.00000000000E+00 0. -1.
<mgrwt>
<rscale>  0 0.12403481E+03</rscale>
<asrwt>0</asrwt>
<pdfrwt beam="2">  1        2 0.21420756E-01 0.13238370E+03</pdfrwt>
<pdfrwt beam="1">  1       -2 0.15664181E-01 0.13238370E+03</pdfrwt>
<totfact> 0.77127788E+03</totfact>
</mgrwt>
</event>
<event>
 8    1  0.1020295E-005  0.1331508E+03  0.7546771E-02  0.1235506E+00
          2   -1    0    0  501    0  0.00000000000E+00  0.00000000000E+00  0.84795517919E+02  0.84795517919E+02  0.00000000000E+00 0. -1.
         -2   -1    0    0    0  501 -0.00000000000E+00 -0.00000000000E+00 -0.19913070988E+03  0.19913070988E+03  0.00000000000E+00 0.  1.
         23    2    1    2    0    0 -0.41035243270E+02  0.20221767588E+02 -0.38352594489E+01  0.13320600949E+03  0.12504527450E+03 0.  0.
         23    2    1    2    0    0  0.41035243270E+02 -0.20221767588E+02 -0.11049993251E+03  0.15072021831E+03  0.91725340262E+02 0.  0.
          5    1    3    3  502    0  0.39558697245E+02 -0.90657002117E+00  0.22422275021E+02  0.45722650995E+02  0.47000000000E+01 0. -1.
         -5    1    3    3    0  502 -0.80593940515E+02  0.21128337610E+02 -0.26257534470E+02  0.87483358499E+02  0.47000000000E+01 0. -1.
        -11    1    4    4    0    0  0.14223189244E+02 -0.42222636836E+02 -0.11780007028E+02  0.46084907934E+02  0.00000000000E+00 0. -1.
         11    1    4    4    0    0  0.26812054026E+02  0.22000869248E+02 -0.98719925487E+02  0.10463531037E+03  0.00000000000E+00 0.  1.
<mgrwt>
<rscale>  0 0.12472091E+03</rscale>
<asrwt>0</asrwt>
<pdfrwt beam="1">  1        2 0.13045464E-01 0.13315079E+03</pdfrwt>
<pdfrwt beam="2">  1       -2 0.30635494E-01 0.13315079E+03</pdfrwt>
<totfact> 0.43284626E+03</totfact>
</mgrwt>
</event>
<event>
 8    1  0.1020295E-005  0.1459592E+03  0.7546771E-02  0.1215367E+00
         -1   -1    0    0    0  501 -0.00000000000E+00  0.00000000000E+00  0.85972996909E+02  0.85972996909E+02  0.00000000000E+00 0.  1.
          1   -1    0    0  501    0  0.00000000000E+00 -0.00000000000E+00 -0.22089223619E+03  0.22089223619E+03  0.00000000000E+00 0. -1.
         23    2    1    2    0    0  0.96074294680E+01  0.74737842401E+02 -0.30617370142E+02  0.14913592999E+03  0.12500421782E+03 0.  0.
         23    2    1    2    0    0 -0.96074294680E+01 -0.74737842401E+02 -0.10430186914E+03  0.15772930311E+03  0.91222833576E+02 0.  0.
          5    1    3    3  502    0 -0.13417366819E+01  0.95852308225E+02  0.15321381269E+02  0.97192077729E+02  0.47000000000E+01 0. -1.
         -5    1    3    3    0  502  0.10949166150E+02 -0.21114465824E+02 -0.45938751411E+02  0.51943852260E+02  0.47000000000E+01 0. -1.
        -11    1    4    4    0    0 -0.28237717034E+02 -0.75950403528E+02 -0.39219847785E+02  0.90022380104E+02  0.00000000000E+00 0.  1.
         11    1    4    4    0    0  0.18630287565E+02  0.12125611268E+01 -0.65082021355E+02  0.67706923005E+02  0.00000000000E+00 0. -1.
<mgrwt>
<rscale>  0 0.13849636E+03</rscale>
<asrwt>0</asrwt>
<pdfrwt beam="2">  1        1 0.33983420E-01 0.14595925E+03</pdfrwt>
<pdfrwt beam="1">  1       -1 0.13226615E-01 0.14595925E+03</pdfrwt>
<totfact> 0.48809117E+03</totfact>
</mgrwt>
</event>
<event>
 8    1  0.1020295E-005  0.1336260E+03  0.7546771E-02  0.1234928E+00
          2   -1    0    0  501    0  0.00000000000E+00  0.00000000000E+00  0.65221240056E+03  0.65221240056E+03  0.00000000000E+00 0. -1.
         -2   -1    0    0    0  501 -0.00000000000E+00 -0.00000000000E+00 -0.25212714382E+02  0.25212714382E+02  0.00000000000E+00 0.  1.
         23    2    1    2    0    0  0.47221351829E+02 -0.11045978769E+01  0.21754548613E+03  0.25530754901E+03  0.12499931937E+03 0.  0.
         23    2    1    2    0    0 -0.47221351829E+02  0.11045978769E+01  0.40945420005E+03  0.42211756593E+03  0.91101159834E+02 0.  0.
          5    1    3    3  502    0  0.52615138113E+02 -0.41281784258E+02  0.19990757946E+03  0.21084987265E+03  0.47000000000E+01 0.  1.
         -5    1    3    3    0  502 -0.53937862839E+01  0.40177186381E+02  0.17637906668E+02  0.44457676363E+02  0.47000000000E+01 0.  1.
        -11    1    4    4    0    0 -0.63106366133E+02 -0.28067502864E+02  0.26005033810E+03  0.26906574755E+03  0.00000000000E+00 0.  1.
         11    1    4    4    0    0  0.15885014305E+02  0.29172100740E+02  0.14940386195E+03  0.15305181837E+03  0.00000000000E+00 0. -1.
<mgrwt>
<rscale>  0 0.12509050E+03</rscale>
<asrwt>0</asrwt>
<pdfrwt beam="1">  1        2 0.10034036E+00 0.13362599E+03</pdfrwt>
<pdfrwt beam="2">  1       -2 0.38788796E-02 0.13362599E+03</pdfrwt>
<totfact> 0.12520700E+04</totfact>
</mgrwt>
</event>
<event>
 7    1  0.1020295E-005  0.1537041E+03  0.7546771E-02  0.1203748E+00
         -2   -1    0    0    0  501 -0.00000000000E+00  0.00000000000E+00  0.72046848450E+02  0.72046848450E+02  0.00000000000E+00 0.  1.
          2   -1    0    0  501    0  0.00000000000E+00 -0.00000000000E+00 -0.27928821042E+03  0.27928821042E+03  0.00000000000E+00 0. -1.
         23    2    1    2    0    0  0.13646125608E+02  0.32505029263E+02 -0.10009271645E+03  0.16396964977E+03  0.12499880194E+03 0.  0.
          5    1    3    3  502    0  0.46362030139E+02  0.16801822313E+01 -0.10841238105E+03  0.11801523298E+03  0.47000000000E+01 0. -1.
         -5    1    3    3    0  502 -0.32715904531E+02  0.30824847032E+02  0.83196645919E+01  0.45954416792E+02  0.47000000000E+01 0. -1.
        -11    1    1    2    0    0 -0.60231563488E+02 -0.49219983078E+02 -0.11336330023E+03  0.13748340196E+03  0.00000000000E+00 0. -1.
         11    1    1    2    0    0  0.46585437880E+02  0.16714953815E+02  0.62146547119E+01  0.49882007144E+02  0.00000000000E+00 0.  1.
<mgrwt>
<rscale>  0 0.14736539E+03</rscale>
<asrwt>0</asrwt>
<pdfrwt beam="2">  1        2 0.42967417E-01 0.15370415E+03</pdfrwt>
<pdfrwt beam="1">  1       -2 0.11084130E-01 0.15370415E+03</pdfrwt>
<totfact> 0.63888855E+03</totfact>
</mgrwt>
</event>
<event>
 8    1  0.1020295E-005  0.1266358E+03  0.7546771E-02  0.1248773E+00
         -1   -1    0    0    0  501 -0.00000000000E+00  0.00000000000E+00  0.74229515568E+03  0.74229515568E+03  0.00000000000E+00 0.  1.
          1   -1    0    0  501    0  0.00000000000E+00 -0.00000000000E+00 -0.17657536401E+02  0.17657536401E+02  0.00000000000E+00 0. -1.
         23    2    1    2    0    0  0.17158248208E+02 -0.10824660486E+02  0.53199062056E+03  0.54685522218E+03  0.12500013963E+03 0.  0.
         23    2    1    2    0    0 -0.17158248208E+02  0.10824660486E+02  0.19264699872E+03  0.21309746990E+03  0.88803641850E+02 0.  0.
          5    1    3    3  502    0 -0.27984755875E+02 -0.32316977036E+02  0.70090597974E+02  0.82233299159E+02  0.47000000000E+01 0.  1.
         -5    1    3    3    0  502  0.45143004083E+02  0.21492316550E+02  0.46190002259E+03  0.46462192303E+03  0.47000000000E+01 0.  1.
        -11    1    4    4    0    0  0.28540346161E+02  0.14198970280E+02  0.13869954138E+03  0.14231558205E+03  0.00000000000E+00 0.  1.
         11    1    4    4    0    0 -0.45698594369E+02 -0.33743097937E+01  0.53947457341E+02  0.70781887849E+02  0.00000000000E+00 0. -1.
<mgrwt>
<rscale>  0 0.11662368E+03</rscale>
<asrwt>0</asrwt>
<pdfrwt beam="2">  1        1 0.27165446E-02 0.12663575E+03</pdfrwt>
<pdfrwt beam="1">  1       -1 0.11419923E+00 0.12663575E+03</pdfrwt>
<totfact> 0.28001126E+03</totfact>
</mgrwt>
</event>
<event>
 8    1  0.1020295E-005  0.1341800E+03  0.7546771E-02  0.1235411E+00
          2   -1    0    0  501    0  0.00000000000E+00  0.00000000000E+00  0.53524706422E+03  0.53524706422E+03  0.00000000000E+00 0. -1.
         -2   -1    0    0    0  501 -0.00000000000E+00 -0.00000000000E+00 -0.36114016620E+02  0.36114016620E+02  0.00000000000E+00 0.  1.
         23    2    1    2    0    0 -0.45146648496E+02  0.22054232439E+02  0.12284492517E+03  0.18192069164E+03  0.12441725511E+03 0.  0.
         23    2    1    2    0    0  0.45146648496E+02 -0.22054232439E+02  0.37628812243E+03  0.38944038920E+03  0.86870343702E+02 0.  0.
          5    1    3    3  502    0 -0.14898051287E+02 -0.23047747969E+02  0.12431175246E+03  0.12739172822E+03  0.47000000000E+01 0. -1.
         -5    1    3    3    0  502 -0.30248597209E+02  0.45101980408E+02 -0.14668272934E+01  0.54528963424E+02  0.47000000000E+01 0.  1.
        -11    1    4    4    0    0  0.17425709748E+02 -0.54740735017E+02  0.20947931126E+03  0.21721368575E+03  0.00000000000E+00 0. -1.
         11    1    4    4    0    0  0.27720938748E+02  0.32686502578E+02  0.16680881118E+03  0.17222670345E+03  0.00000000000E+00 0.  1.
<mgrwt>
<rscale>  0 0.12478149E+03</rscale>
<asrwt>0</asrwt>
<pdfrwt beam="1">  1        2 0.82345696E-01 0.13417996E+03</pdfrwt>
<pdfrwt beam="2">  1       -2 0.55560029E-02 0.13417996E+03</pdfrwt>
<totfact> 0.91550857E+03</totfact>
</mgrwt>
</event>
<event>
 8    1  0.1020295E-005  0.1261962E+03  0.7546771E-02  0.1242321E+00
         -2   -1    0    0    0  501 -0.00000000000E+00  0.00000000000E+00  0.35526079024E+02  0.35526079024E+02  0.00000000000E+00 0. -1.
          2   -1    0    0  501    0  0.00000000000E+00 -0.00000000000E+00 -0.37559307065E+03  0.37559307065E+03  0.00000000000E+00 0.  1.
         23    2    1    2    0    0  0.16789200344E+02 -0.46229703269E+01 -0.18305531865E+03  0.22233922034E+03  0.12498891997E+03 0.  0.
         23    2    1    2    0    0 -0.16789200344E+02  0.46229703269E+01 -0.15701167297E+03  0.18877992933E+03  0.10335350581E+03 0.  0.
          5    1    3    3  502    0  0.36012773542E+02 -0.34104793781E+02 -0.17992296867E+03  0.18669338893E+03  0.47000000000E+01 0.  1.
         -5    1    3    3    0  502 -0.19223573198E+02  0.29481823455E+02 -0.31323499844E+01  0.35645831413E+02  0.47000000000E+01 0.  1.
        -11    1    4    4    0    0 -0.34319234692E+02 -0.41692393146E+02 -0.67081582819E+02  0.86116225356E+02  0.00000000000E+00 0. -1.
         11    1    4    4    0    0  0.17530034348E+02  0.46315363473E+02 -0.89930090155E+02  0.10266370397E+03  0.00000000000E+00 0.  1.
<mgrwt>
<rscale>  0 0.12047187E+03</rscale>
<asrwt>0</asrwt>
<pdfrwt beam="2">  1        2 0.57783553E-01 0.12619619E+03</pdfrwt>
<pdfrwt beam="1">  1       -2 0.54655503E-02 0.12619619E+03</pdfrwt>
<totfact> 0.13703037E+04</totfact>
</mgrwt>
</event>
<event>
 8    1  0.1020295E-005  0.1619199E+03  0.7546771E-02  0.1193850E+00
          1   -1    0    0  501    0  0.00000000000E+00  0.00000000000E+00  0.87305634448E+03  0.87305634448E+03  0.00000000000E+00 0. -1.
         -1   -1    0    0    0  501 -0.00000000000E+00 -0.00000000000E+00 -0.27031772585E+02  0.27031772585E+02  0.00000000000E+00 0.  1.
         23    2    1    2    0    0 -0.57025488118E+02 -0.85681565568E+02  0.35668863019E+03  0.39172035772E+03  0.12499929109E+03 0.  0.
         23    2    1    2    0    0  0.57025488118E+02  0.85681565568E+02  0.48933594171E+03  0.50836775934E+03  0.91623566415E+02 0.  0.
          5    1    3    3  502    0 -0.82748742682E+01 -0.81965483075E+02  0.31985211736E+03  0.33032450853E+03  0.47000000000E+01 0.  1.
         -5    1    3    3    0  502 -0.48750613850E+02 -0.37160824935E+01  0.36836512835E+02  0.61395849189E+02  0.47000000000E+01 0.  1.
        -11    1    4    4    0    0  0.54025912662E+01 -0.88166952817E+01  0.37708616824E+01  0.11006430207E+02  0.00000000000E+00 0.  1.
         11    1    4    4    0    0  0.51622896852E+02  0.94498260850E+02  0.48556508002E+03  0.49736132914E+03  0.00000000000E+00 0. -1.
<mgrwt>
<rscale>  0 0.15551971E+03</rscale>
<asrwt>0</asrwt>
<pdfrwt beam="1">  1        1 0.13431634E+00 0.16191992E+03</pdfrwt>
<pdfrwt beam="2">  1       -1 0.41587349E-02 0.16191992E+03</pdfrwt>
<totfact> 0.45707936E+03</totfact>
</mgrwt>
</event>
<event>
 8    1  0.1020295E-005  0.2385254E+03  0.7546771E-02  0.1123549E+00
          1   -1    0    0  501    0  0.00000000000E+00  0.00000000000E+00  0.83792963511E+03  0.83792963511E+03  0.00000000000E+00 0. -1.
         -1   -1    0    0    0  501 -0.00000000000E+00 -0.00000000000E+00 -0.67624822063E+02  0.67624822063E+02  0.00000000000E+00 0.  1.
         23    2    1    2    0    0 -0.17761111455E+03 -0.98613163106E+02  0.51008436424E+03  0.56309893076E+03  0.12499633288E+03 0.  0.
         23    2    1    2    0    0  0.17761111455E+03  0.98613163106E+02  0.26022044880E+03  0.34245552641E+03  0.91054058893E+02 0.  0.
          5    1    3    3  502    0 -0.61005382577E+02 -0.48475060778E+02  0.69316511249E+02  0.10439519602E+03  0.47000000000E+01 0.  1.
         -5    1    3    3    0  502 -0.11660573198E+03 -0.50138102328E+02  0.44076785299E+03  0.45870373474E+03  0.47000000000E+01 0.  1.
        -11    1    4    4    0    0  0.56534949961E+02 -0.12800143103E+02  0.62913118791E+02  0.85545921858E+02  0.00000000000E+00 0. -1.
         11    1    4    4    0    0  0.12107616459E+03  0.11141330621E+03  0.19730733001E+03  0.25690960455E+03  0.00000000000E+00 0.  1.
<mgrwt>
<rscale>  0 0.23444639E+03</rscale>
<asrwt>0</asrwt>
<pdfrwt beam="1">  1        1 0.12891224E+00 0.23852536E+03</pdfrwt>
<pdfrwt beam="2">  1       -1 0.10403819E-01 0.23852536E+03</pdfrwt>
<totfact> 0.12290025E+03</totfact>
</mgrwt>
</event>
<event>
 8    1  0.1020295E-005  0.1813716E+03  0.7546771E-02  0.1171495E+00
          1   -1    0    0  501    0  0.00000000000E+00  0.00000000000E+00  0.92882821670E+03  0.92882821670E+03  0.00000000000E+00 0. -1.
         -1   -1    0    0    0  501 -0.00000000000E+00 -0.00000000000E+00 -0.31811700037E+02  0.31811700037E+02  0.00000000000E+00 0.  1.
         23    2    1    2    0    0  0.67486048147E+00  0.13142663389E+03  0.44297245883E+03  0.47866508773E+03  0.12498900513E+03 0.  0.
         23    2    1    2    0    0 -0.67486048147E+00 -0.13142663389E+03  0.45404405784E+03  0.48197482901E+03  0.94182343370E+02 0.  0.
          5    1    3    3  502    0 -0.41082865106E+02  0.17420190307E+02  0.49271170192E+02  0.66640851193E+02  0.47000000000E+01 0.  1.
         -5    1    3    3    0  502  0.41757725587E+02  0.11400644358E+03  0.39370128863E+03  0.41202423654E+03  0.47000000000E+01 0.  1.
        -11    1    4    4    0    0 -0.14355607973E+02 -0.14285318513E+03  0.41236876634E+03  0.43664758723E+03  0.00000000000E+00 0.  1.
         11    1    4    4    0    0  0.13680747491E+02  0.11426551241E+02  0.41675291498E+02  0.45327241772E+02  0.00000000000E+00 0. -1.
<mgrwt>
<rscale>  0 0.17623735E+03</rscale>
<asrwt>0</asrwt>
<pdfrwt beam="1">  1        1 0.14289663E+00 0.18137163E+03</pdfrwt>
<pdfrwt beam="2">  1       -1 0.48941084E-02 0.18137163E+03</pdfrwt>
<totfact> 0.32615590E+03</totfact>
</mgrwt>
</event>
<event>
 8    1  0.1020295E-005  0.1453074E+03  0.7546771E-02  0.1215945E+00
          1   -1    0    0  501    0  0.00000000000E+00  0.00000000000E+00  0.89615914944E+02  0.89615914944E+02  0.00000000000E+00 0. -1.
         -1   -1    0    0    0  501 -0.00000000000E+00 -0.00000000000E+00 -0.19658635822E+03  0.19658635822E+03  0.00000000000E+00 0.  1.
         23    2    1    2    0    0 -0.73995201450E+02 -0.36761997346E+01 -0.74901903872E+02  0.16347637634E+03  0.12500170453E+03 0.  0.
         23    2    1    2    0    0  0.73995201450E+02  0.36761997346E+01 -0.32068539402E+02  0.12272589682E+03  0.92436195559E+02 0.  0.
          5    1    3    3  502    0 -0.23443967054E+02 -0.38224847880E+02  0.20889279793E+02  0.49691152099E+02  0.47000000000E+01 0.  1.
         -5    1    3    3    0  502 -0.50551234396E+02  0.34548648145E+02 -0.95791183666E+02  0.11378522424E+03  0.47000000000E+01 0.  1.
        -11    1    4    4    0    0  0.67945502090E+00 -0.31254336908E+02  0.78521774684E+01  0.32232777195E+02  0.00000000000E+00 0. -1.
         11    1    4    4    0    0  0.73315746429E+02  0.34930536643E+02 -0.39920716871E+02  0.90493119628E+02  0.00000000000E+00 0.  1.
<mgrwt>
<rscale>  0 0.13807356E+03</rscale>
<asrwt>0</asrwt>
<pdfrwt beam="1">  1        1 0.13787064E-01 0.14530737E+03</pdfrwt>
<pdfrwt beam="2">  1       -1 0.30244055E-01 0.14530737E+03</pdfrwt>
<totfact> 0.40420747E+03</totfact>
</mgrwt>
</event>
<event>
 8    1  0.1435520E-005  0.1723584E+03  0.7546771E-02  0.1182837E+00
         -4   -1    0    0    0  501 -0.00000000000E+00  0.00000000000E+00  0.12188655122E+03  0.12188655122E+03  0.00000000000E+00 0.  1.
          4   -1    0    0  501    0  0.00000000000E+00 -0.00000000000E+00 -0.22143357614E+03  0.22143357614E+03  0.00000000000E+00 0. -1.
         23    2    1    2    0    0  0.11560713450E+03 -0.26778848344E+02 -0.10977575488E+02  0.17270760453E+03  0.12500117293E+03 0.  0.
         23    2    1    2    0    0 -0.11560713450E+03  0.26778848344E+02 -0.88569449434E+02  0.17061252283E+03  0.84746500262E+02 0.  0.
          5    1    3    3  502    0  0.11379110108E+03 -0.50842202958E+02  0.26863184989E+02  0.12758160132E+03  0.47000000000E+01 0.  1.
         -5    1    3    3    0  502  0.18160334174E+01  0.24063354614E+02 -0.37840760477E+02  0.45126003214E+02  0.47000000000E+01 0.  1.
        -11    1    4    4    0    0 -0.42653846622E+02 -0.30638168818E+02 -0.38634449017E+02  0.65197152323E+02  0.00000000000E+00 0.  1.
         11    1    4    4    0    0 -0.72953287877E+02  0.57417017162E+02 -0.49935000417E+02  0.10541537050E+03  0.00000000000E+00 0. -1.
<mgrwt>
<rscale>  0 0.16530277E+03</rscale>
<asrwt>0</asrwt>
<pdfrwt beam="2">  1        4 0.34066704E-01 0.17235838E+03</pdfrwt>
<pdfrwt beam="1">  1       -4 0.18751777E-01 0.17235838E+03</pdfrwt>
<totfact> 0.36638522E+02</totfact>
</mgrwt>
</event>
<event>
 8    1  0.1020295E-005  0.1284715E+03  0.7546771E-02  0.1243327E+00
          2   -1    0    0  501    0  0.00000000000E+00  0.00000000000E+00  0.62558119548E+02  0.62558119548E+02  0.00000000000E+00 0. -1.
         -2   -1    0    0    0  501 -0.00000000000E+00 -0.00000000000E+00 -0.22480756782E+03  0.22480756782E+03  0.00000000000E+00 0.  1.
         23    2    1    2    0    0 -0.21233835830E+01  0.29880868265E+02 -0.13483252282E+03  0.18623840921E+03  0.12493022375E+03 0.  0.
         23    2    1    2    0    0  0.21233835830E+01 -0.29880868265E+02 -0.27416925454E+02  0.10112727817E+03  0.92615676544E+02 0.  0.
          5    1    3    3  502    0  0.10359902673E+02 -0.13177221705E+02 -0.13980813255E+03  0.14088779466E+03  0.47000000000E+01 0. -1.
         -5    1    3    3    0  502 -0.12483286256E+02  0.43058089970E+02  0.49756097331E+01  0.45350614547E+02  0.47000000000E+01 0. -1.
        -11    1    4    4    0    0 -0.51151004360E+00 -0.15433461341E+02 -0.61820744937E+02  0.63720152825E+02  0.00000000000E+00 0.  1.
         11    1    4    4    0    0  0.26348936266E+01 -0.14447406924E+02  0.34403819483E+02  0.37407125340E+02  0.00000000000E+00 0. -1.
<mgrwt>
<rscale>  0 0.11986098E+03</rscale>
<asrwt>0</asrwt>
<pdfrwt beam="1">  1        2 0.96243263E-02 0.12847154E+03</pdfrwt>
<pdfrwt beam="2">  1       -2 0.34585779E-01 0.12847154E+03</pdfrwt>
<totfact> 0.50018197E+03</totfact>
</mgrwt>
</event>
<event>
 8    1  0.1020295E-005  0.1276285E+03  0.7546771E-02  0.1245632E+00
         -2   -1    0    0    0  501 -0.00000000000E+00  0.00000000000E+00  0.55867129448E+02  0.55867129448E+02  0.00000000000E+00 0.  1.
          2   -1    0    0  501    0  0.00000000000E+00 -0.00000000000E+00 -0.29536430120E+03  0.29536430120E+03  0.00000000000E+00 0. -1.
         23    2    1    2    0    0 -0.24956337128E+02  0.64435585647E+01 -0.45810527328E+02  0.13560103437E+03  0.12499879159E+03 0.  0.
         23    2    1    2    0    0  0.24956337128E+02 -0.64435585647E+01 -0.19368664442E+03  0.21563039627E+03  0.91200950431E+02 0.  0.
          5    1    3    3  502    0  0.25154382716E+02  0.16388576759E+02 -0.71890387802E+02  0.78048999202E+02  0.47000000000E+01 0. -1.
         -5    1    3    3    0  502 -0.50110719844E+02 -0.99450181946E+01  0.26079860474E+02  0.57552035173E+02  0.47000000000E+01 0. -1.
        -11    1    4    4    0    0 -0.19007631242E+02  0.27162168530E+02 -0.11320997880E+03  0.11796428589E+03  0.00000000000E+00 0. -1.
         11    1    4    4    0    0  0.43963968370E+02 -0.33605727095E+02 -0.80476665621E+02  0.97666110386E+02  0.00000000000E+00 0.  1.
<mgrwt>
<rscale>  0 0.11847647E+03</rscale>
<asrwt>0</asrwt>
<pdfrwt beam="2">  1        2 0.45440663E-01 0.12762851E+03</pdfrwt>
<pdfrwt beam="1">  1       -2 0.85949428E-02 0.12762851E+03</pdfrwt>
<totfact> 0.88631273E+03</totfact>
</mgrwt>
</event>
<event>
 8    1  0.1020295E-005  0.1334515E+03  0.7546771E-02  0.1235280E+00
          3   -1    0    0  501    0  0.00000000000E+00  0.00000000000E+00  0.33577483504E+02  0.33577483504E+02  0.00000000000E+00 0. -1.
         -3   -1    0    0    0  501 -0.00000000000E+00 -0.00000000000E+00 -0.50068757844E+03  0.50068757844E+03  0.00000000000E+00 0.  1.
         23    2    1    2    0    0  0.39542566175E+02  0.24906014075E+02 -0.36958729920E+03  0.39294283875E+03  0.12500151487E+03 0.  0.
         23    2    1    2    0    0 -0.39542566175E+02 -0.24906014075E+02 -0.97522795732E+02  0.14132222319E+03  0.90979948355E+02 0.  0.
          5    1    3    3  502    0 -0.20208040369E+02 -0.27208014837E+02 -0.34570023245E+02  0.48639669757E+02  0.47000000000E+01 0.  1.
         -5    1    3    3    0  502  0.59750606544E+02  0.52114028912E+02 -0.33501727596E+03  0.34430316900E+03  0.47000000000E+01 0.  1.
        -11    1    4    4    0    0 -0.14718065529E+02 -0.30231439278E+02  0.64995499864E+01  0.34246248317E+02  0.00000000000E+00 0. -1.
         11    1    4    4    0    0 -0.24824500646E+02  0.53254252036E+01 -0.10402234572E+03  0.10707597487E+03  0.00000000000E+00 0.  1.
<mgrwt>
<rscale>  0 0.12486499E+03</rscale>
<asrwt>0</asrwt>
<pdfrwt beam="1">  1        3 0.51657667E-02 0.13345150E+03</pdfrwt>
<pdfrwt beam="2">  1       -3 0.77028858E-01 0.13345150E+03</pdfrwt>
<totfact> 0.80772485E+02</totfact>
</mgrwt>
</event>
<event>
 8    1  0.1020295E-005  0.1362415E+03  0.7546771E-02  0.1230441E+00
         -2   -1    0    0    0  501 -0.00000000000E+00  0.00000000000E+00  0.72115814082E+03  0.72115814082E+03  0.00000000000E+00 0.  1.
          2   -1    0    0  501    0  0.00000000000E+00 -0.00000000000E+00 -0.26076608958E+02  0.26076608958E+02  0.00000000000E+00 0. -1.
         23    2    1    2    0    0  0.54053602675E+02  0.37444812655E+01  0.55490803761E+03  0.57138837293E+03  0.12500371758E+03 0.  0.
         23    2    1    2    0    0 -0.54053602675E+02 -0.37444812655E+01  0.14017349424E+03  0.17584637684E+03  0.91310057816E+02 0.  0.
          5    1    3    3  502    0  0.43885954107E+02  0.55032085809E+02  0.43224455553E+03  0.43796341539E+03  0.47000000000E+01 0. -1.
         -5    1    3    3    0  502  0.10167648568E+02 -0.51287604544E+02  0.12266348209E+03  0.13342495754E+03  0.47000000000E+01 0. -1.
        -11    1    4    4    0    0  0.12284066536E+02  0.26280899517E+02  0.19665705068E+02  0.35047452488E+02  0.00000000000E+00 0.  1.
         11    1    4    4    0    0 -0.66337669211E+02 -0.30025380782E+02  0.12050778918E+03  0.14079892435E+03  0.00000000000E+00 0. -1.
<mgrwt>
<rscale>  0 0.12800844E+03</rscale>
<asrwt>0</asrwt>
<pdfrwt beam="2">  1        2 0.40117865E-02 0.13624149E+03</pdfrwt>
<pdfrwt beam="1">  1       -2 0.11094739E+00 0.13624149E+03</pdfrwt>
<totfact> 0.13670834E+03</totfact>
</mgrwt>
</event>
<event>
 8    1  0.1020295E-005  0.1280602E+03  0.7546771E-02  0.1244433E+00
         -1   -1    0    0    0  501 -0.00000000000E+00  0.00000000000E+00  0.42463054948E+03  0.42463054948E+03  0.00000000000E+00 0.  1.
          1   -1    0    0  501    0  0.00000000000E+00 -0.00000000000E+00 -0.29905041659E+02  0.29905041659E+02  0.00000000000E+00 0. -1.
         23    2    1    2    0    0 -0.25255831279E+02  0.11376934455E+02  0.20196312488E+03  0.23914119188E+03  0.12502845353E+03 0.  0.
         23    2    1    2    0    0  0.25255831279E+02 -0.11376934455E+02  0.19276238294E+03  0.21539439925E+03  0.92033251069E+02 0.  0.
          5    1    3    3  502    0 -0.23243250284E+02 -0.48032655192E+02  0.15260646499E+03  0.16173499252E+03  0.47000000000E+01 0. -1.
         -5    1    3    3    0  502 -0.20125809946E+01  0.59409589647E+02  0.49356659891E+02  0.77406199363E+02  0.47000000000E+01 0. -1.
        -11    1    4    4    0    0 -0.32697007705E+02 -0.11170369484E+02  0.45451823974E+02  0.57094130783E+02  0.00000000000E+00 0.  1.
         11    1    4    4    0    0  0.57952838984E+02 -0.20656497110E+00  0.14731055896E+03  0.15830026847E+03  0.00000000000E+00 0. -1.
<mgrwt>
<rscale>  0 0.11919398E+03</rscale>
<asrwt>0</asrwt>
<pdfrwt beam="2">  1        1 0.46007760E-02 0.12806016E+03</pdfrwt>
<pdfrwt beam="1">  1       -1 0.65327772E-01 0.12806016E+03</pdfrwt>
<totfact> 0.43837838E+03</totfact>
</mgrwt>
</event>
<event>
 8    1  0.1020295E-005  0.1241272E+03  0.7546771E-02  0.1254555E+00
         -2   -1    0    0    0  501 -0.00000000000E+00  0.00000000000E+00  0.32315137620E+02  0.32315137620E+02  0.00000000000E+00 0. -1.
          2   -1    0    0  501    0  0.00000000000E+00 -0.00000000000E+00 -0.40155410268E+03  0.40155410268E+03  0.00000000000E+00 0.  1.
         23    2    1    2    0    0 -0.42760739458E+01  0.24788652916E+02 -0.13078080127E+03  0.18030853796E+03  0.12155158887E+03 0.  0.
         23    2    1    2    0    0  0.42760739458E+01 -0.24788652916E+02 -0.23845816379E+03  0.25356070234E+03  0.82449813666E+02 0.  0.
          5    1    3    3  502    0  0.11456126791E+02 -0.45173315460E+02 -0.26965005372E+02  0.54046949826E+02  0.47000000000E+01 0. -1.
         -5    1    3    3    0  502 -0.15732200736E+02  0.69961968376E+02 -0.10381579590E+03  0.12626158813E+03  0.47000000000E+01 0.  1.
        -11    1    4    4    0    0  0.38079061752E+02 -0.23826320948E+01 -0.64515140463E+02  0.74952619891E+02  0.00000000000E+00 0. -1.
         11    1    4    4    0    0 -0.33802987806E+02 -0.22406020821E+02 -0.17394302332E+03  0.17860808245E+03  0.00000000000E+00 0.  1.
<mgrwt>
<rscale>  0 0.11331283E+03</rscale>
<asrwt>0</asrwt>
<pdfrwt beam="2">  1        2 0.61777559E-01 0.12412716E+03</pdfrwt>
<pdfrwt beam="1">  1       -2 0.49715592E-02 0.12412716E+03</pdfrwt>
<totfact> 0.14693515E+04</totfact>
</mgrwt>
</event>
<event>
 8    1  0.1020295E-005  0.1355081E+03  0.7546771E-02  0.1230956E+00
         -3   -1    0    0    0  501 -0.00000000000E+00  0.00000000000E+00  0.92293357444E+02  0.92293357444E+02  0.00000000000E+00 0.  1.
          3   -1    0    0  501    0  0.00000000000E+00 -0.00000000000E+00 -0.15945656412E+03  0.15945656412E+03  0.00000000000E+00 0. -1.
         23    2    1    2    0    0 -0.44322596643E+02 -0.27789670838E+02 -0.44242715858E+02  0.14254771156E+03  0.12500269511E+03 0.  0.
         23    2    1    2    0    0  0.44322596643E+02  0.27789670838E+02 -0.22920490822E+02  0.10920221001E+03  0.93075321074E+02 0.  0.
          5    1    3    3  502    0 -0.55556909804E+02 -0.70901938021E+02 -0.23681071216E+02  0.93255231360E+02  0.47000000000E+01 0. -1.
         -5    1    3    3    0  502  0.11234313161E+02  0.43112267182E+02 -0.20561644642E+02  0.49292480199E+02  0.47000000000E+01 0. -1.
        -11    1    4    4    0    0  0.60685507379E+02  0.48553964061E+02 -0.62973665045E+01  0.77973553573E+02  0.00000000000E+00 0.  1.
         11    1    4    4    0    0 -0.16362910736E+02 -0.20764293223E+02 -0.16623124317E+02  0.31228656437E+02  0.00000000000E+00 0. -1.
<mgrwt>
<rscale>  0 0.12766912E+03</rscale>
<asrwt>0</asrwt>
<pdfrwt beam="2">  1        3 0.24531779E-01 0.13550805E+03</pdfrwt>
<pdfrwt beam="1">  1       -3 0.14198978E-01 0.13550805E+03</pdfrwt>
<totfact> 0.14577730E+03</totfact>
</mgrwt>
</event>
<event>
 8    1  0.1020295E-005  0.2634459E+03  0.7546771E-02  0.1107333E+00
         -1   -1    0    0    0  501 -0.00000000000E+00  0.00000000000E+00  0.11617736566E+04  0.11617736566E+04  0.00000000000E+00 0.  1.
          1   -1    0    0  501    0  0.00000000000E+00 -0.00000000000E+00 -0.10162219341E+03  0.10162219341E+03  0.00000000000E+00 0. -1.
         23    2    1    2    0    0 -0.12222322804E+03  0.19707823388E+03  0.95962883947E+03  0.99513377940E+03  0.12500152645E+03 0.  0.
         23    2    1    2    0    0  0.12222322804E+03 -0.19707823388E+03  0.10052262369E+03  0.26826207060E+03  0.89896567823E+02 0.  0.
          5    1    3    3  502    0 -0.29842887336E+02  0.45239090568E+02  0.48941011272E+03  0.49242412784E+03  0.47000000000E+01 0. -1.
         -5    1    3    3    0  502 -0.92380340699E+02  0.15183914331E+03  0.47021872675E+03  0.50270965156E+03  0.47000000000E+01 0. -1.
        -11    1    4    4    0    0  0.63101133312E+02 -0.12078349452E+03  0.11167414929E+02  0.13673008714E+03  0.00000000000E+00 0.  1.
         11    1    4    4    0    0  0.59122094723E+02 -0.76294739363E+02  0.89355208765E+02  0.13153198346E+03  0.00000000000E+00 0. -1.
<mgrwt>
<rscale>  0 0.25968362E+03</rscale>
<asrwt>0</asrwt>
<pdfrwt beam="2">  1        1 0.15634184E-01 0.26344588E+03</pdfrwt>
<pdfrwt beam="1">  1       -1 0.17873440E+00 0.26344588E+03</pdfrwt>
<totfact> 0.82767426E+01</totfact>
</mgrwt>
</event>
<event>
 8    1  0.1020295E-005  0.1779512E+03  0.7546771E-02  0.1175043E+00
         -2   -1    0    0    0  501 -0.00000000000E+00  0.00000000000E+00  0.64769322852E+02  0.64769322852E+02  0.00000000000E+00 0.  1.
          2   -1    0    0  501    0  0.00000000000E+00 -0.00000000000E+00 -0.55873468248E+03  0.55873468248E+03  0.00000000000E+00 0. -1.
         23    2    1    2    0    0  0.65694085400E+02  0.10828064825E+03 -0.11221352715E+03  0.21037707962E+03  0.12500491315E+03 0.  0.
         23    2    1    2    0    0 -0.65694085400E+02 -0.10828064825E+03 -0.38175183248E+03  0.41312692571E+03  0.94334423767E+02 0.  0.
          5    1    3    3  502    0  0.95620433690E+02  0.71344563318E+02 -0.11033459345E+03  0.16257037420E+03  0.47000000000E+01 0. -1.
         -5    1    3    3    0  502 -0.29926348290E+02  0.36936084929E+02 -0.18789337029E+01  0.47806705427E+02  0.47000000000E+01 0. -1.
        -11    1    4    4    0    0 -0.79512356897E+02 -0.98189843361E+02 -0.37318220253E+03  0.39399037619E+03  0.00000000000E+00 0. -1.
         11    1    4    4    0    0  0.13818271497E+02 -0.10090804886E+02 -0.85696299423E+01  0.19136549526E+02  0.00000000000E+00 0.  1.
<mgrwt>
<rscale>  0 0.17271756E+03</rscale>
<asrwt>0</asrwt>
<pdfrwt beam="2">  1        2 0.85959180E-01 0.17795123E+03</pdfrwt>
<pdfrwt beam="1">  1       -2 0.99645115E-02 0.17795123E+03</pdfrwt>
<totfact> 0.35942342E+03</totfact>
</mgrwt>
</event>
<event>
 8    1  0.1020295E-005  0.1429076E+03  0.7546771E-02  0.1220023E+00
         -1   -1    0    0    0  501 -0.00000000000E+00  0.00000000000E+00  0.25057612110E+03  0.25057612110E+03  0.00000000000E+00 0.  1.
          1   -1    0    0  501    0  0.00000000000E+00 -0.00000000000E+00 -0.73179378875E+02  0.73179378875E+02  0.00000000000E+00 0. -1.
         23    2    1    2    0    0  0.30896431632E+02  0.61991198921E+02  0.47157933817E+02  0.15048736771E+03  0.12500031554E+03 0.  0.
         23    2    1    2    0    0 -0.30896431632E+02 -0.61991198921E+02  0.13023880841E+03  0.17326813227E+03  0.90896645776E+02 0.  0.
          5    1    3    3  502    0  0.56642468391E+02  0.70228275195E+02 -0.61264572698E+01  0.90553869828E+02  0.47000000000E+01 0.  1.
         -5    1    3    3    0  502 -0.25746036758E+02 -0.82370762742E+01  0.53284391087E+02  0.59933497877E+02  0.47000000000E+01 0.  1.
        -11    1    4    4    0    0  0.21554776621E+02 -0.35959641064E+02  0.97615524216E+02  0.10623791578E+03  0.00000000000E+00 0.  1.
         11    1    4    4    0    0 -0.52451208253E+02 -0.26031557857E+02  0.32623284195E+02  0.67030216494E+02  0.00000000000E+00 0. -1.
<mgrwt>
<rscale>  0 0.13513975E+03</rscale>
<asrwt>0</asrwt>
<pdfrwt beam="2">  1        1 0.11258366E-01 0.14290758E+03</pdfrwt>
<pdfrwt beam="1">  1       -1 0.38550172E-01 0.14290758E+03</pdfrwt>
<totfact> 0.34759831E+03</totfact>
</mgrwt>
</event>
<event>
 8    1  0.1020295E-005  0.1718532E+03  0.7546771E-02  0.1181943E+00
         -2   -1    0    0    0  501 -0.00000000000E+00  0.00000000000E+00  0.40770222847E+03  0.40770222847E+03  0.00000000000E+00 0. -1.
          2   -1    0    0  501    0  0.00000000000E+00 -0.00000000000E+00 -0.82203082885E+02  0.82203082885E+02  0.00000000000E+00 0.  1.
         23    2    1    2    0    0  0.11714373814E+03 -0.17063941958E+02  0.28772608392E+03  0.33514147588E+03  0.12457799157E+03 0.  0.
         23    2    1    2    0    0 -0.11714373814E+03  0.17063941958E+02  0.37773061663E+02  0.15476383548E+03  0.92256203507E+02 0.  0.
          5    1    3    3  502    0  0.13610677411E+03 -0.33237961714E+02  0.20299606949E+03  0.24669679829E+03  0.47000000000E+01 0. -1.
         -5    1    3    3    0  502 -0.18963035968E+02  0.16174019756E+02  0.84730014430E+02  0.88444677587E+02  0.47000000000E+01 0. -1.
        -11    1    4    4    0    0 -0.61237145731E+02  0.35878233199E+02  0.58773433244E+02  0.92149617959E+02  0.00000000000E+00 0. -1.
         11    1    4    4    0    0 -0.55906592406E+02 -0.18814291241E+02 -0.21000371580E+02  0.62614217522E+02  0.00000000000E+00 0.  1.
<mgrwt>
<rscale>  0 0.16613125E+03</rscale>
<asrwt>0</asrwt>
<pdfrwt beam="2">  1        2 0.12646628E-01 0.17185316E+03</pdfrwt>
<pdfrwt beam="1">  1       -2 0.62723418E-01 0.17185316E+03</pdfrwt>
<totfact> 0.11373416E+03</totfact>
</mgrwt>
</event>
<event>
 8    1  0.1020295E-005  0.1198637E+03  0.7546771E-02  0.1252134E+00
          1   -1    0    0  501    0  0.00000000000E+00  0.00000000000E+00  0.12721977156E+03  0.12721977156E+03  0.00000000000E+00 0. -1.
         -1   -1    0    0    0  501 -0.00000000000E+00 -0.00000000000E+00 -0.15609713421E+03  0.15609713421E+03  0.00000000000E+00 0.  1.
         23    2    1    2    0    0  0.35713059181E+02  0.20298035734E+02 -0.10335393921E+03  0.15826986418E+03  0.11260497461E+03 0.  0.
         23    2    1    2    0    0 -0.35713059181E+02 -0.20298035734E+02  0.74476576555E+02  0.12504704159E+03  0.91665529531E+02 0.  0.
          5    1    3    3  502    0 -0.11442924572E+02  0.49451161730E+02 -0.86027021873E+02  0.99995481956E+02  0.47000000000E+01 0. -1.
         -5    1    3    3    0  502  0.47155983752E+02 -0.29153125996E+02 -0.17326917334E+02  0.58274382221E+02  0.47000000000E+01 0.  1.
        -11    1    4    4    0    0 -0.85350306097E+01 -0.38179996507E+02 -0.47416276677E+01  0.39408652777E+02  0.00000000000E+00 0.  1.
         11    1    4    4    0    0 -0.27178028571E+02  0.17881960773E+02  0.79218204223E+02  0.85638388812E+02  0.00000000000E+00 0. -1.
<mgrwt>
<rscale>  0 0.11468384E+03</rscale>
<asrwt>0</asrwt>
<pdfrwt beam="1">  1        1 0.19572273E-01 0.11986373E+03</pdfrwt>
<pdfrwt beam="2">  1       -1 0.24014944E-01 0.11986373E+03</pdfrwt>
<totfact> 0.37325691E+03</totfact>
</mgrwt>
</event>
<event>
 8    1  0.1153784E-005  0.3503239E+03  0.7546771E-02  0.1063604E+00
         -2   -1    0    0    0  501 -0.00000000000E+00  0.00000000000E+00  0.11549701130E+03  0.11549701130E+03  0.00000000000E+00 0.  1.
          2   -1    0    0  501    0  0.00000000000E+00 -0.00000000000E+00 -0.10302116659E+04  0.10302116659E+04  0.00000000000E+00 0. -1.
         23    2    1    2    0    0 -0.14070518420E+02  0.32696270423E+03 -0.46725627038E+03  0.58399935614E+03  0.12499694521E+03 0.  0.
         23    2    1    2    0    0  0.14070518420E+02 -0.32696270423E+03 -0.44745838427E+03  0.56170932110E+03  0.90530471741E+02 0.  0.
          5    1    3    3  502    0 -0.59192106929E+02  0.10186667216E+03 -0.12484728513E+03  0.17172495166E+03  0.47000000000E+01 0.  1.
         -5    1    3    3    0  502  0.45121588508E+02  0.22509603207E+03 -0.34240898525E+03  0.41227440448E+03  0.47000000000E+01 0.  1.
        -11    1    4    4    0    0 -0.18679754442E+02 -0.11596878433E+03 -0.10188959200E+03  0.15549656306E+03  0.00000000000E+00 0.  1.
         11    1    4    4    0    0  0.32750272863E+02 -0.21099391991E+03 -0.34556879227E+03  0.40621275804E+03  0.00000000000E+00 0. -1.
<mgrwt>
<rscale>  0 0.34760035E+03</rscale>
<asrwt>0</asrwt>
<pdfrwt beam="2">  1        2 0.15849411E+00 0.35032389E+03</pdfrwt>
<pdfrwt beam="1">  1       -2 0.17768770E-01 0.35032389E+03</pdfrwt>
<totfact> 0.64673375E+02</totfact>
</mgrwt>
</event>
<event>
 8    1  0.1020295E-005  0.1320379E+03  0.7546771E-02  0.1236608E+00
         -1   -1    0    0    0  501 -0.00000000000E+00  0.00000000000E+00  0.47754273970E+02  0.47754273970E+02  0.00000000000E+00 0.  1.
          1   -1    0    0  501    0  0.00000000000E+00 -0.00000000000E+00 -0.29387517764E+03  0.29387517764E+03  0.00000000000E+00 0. -1.
         23    2    1    2    0    0  0.13856895867E+02  0.40122276280E+02 -0.11551234629E+03  0.17543409541E+03  0.12502883296E+03 0.  0.
         23    2    1    2    0    0 -0.13856895867E+02 -0.40122276280E+02 -0.13060855737E+03  0.16619535619E+03  0.93597492190E+02 0.  0.
          5    1    3    3  502    0 -0.43352519356E+02  0.90997540420E+00 -0.36994469990E+01  0.43772650112E+02  0.47000000000E+01 0.  1.
         -5    1    3    3    0  502  0.57209415223E+02  0.39212300876E+02 -0.11181289929E+03  0.13166144530E+03  0.47000000000E+01 0.  1.
        -11    1    4    4    0    0 -0.20042018771E+02  0.27831624808E+02 -0.38418448135E+02  0.51500087504E+02  0.00000000000E+00 0.  1.
         11    1    4    4    0    0  0.61851229038E+01 -0.67953901088E+02 -0.92190109240E+02  0.11469526869E+03  0.00000000000E+00 0. -1.
<mgrwt>
<rscale>  0 0.12402062E+03</rscale>
<asrwt>0</asrwt>
<pdfrwt beam="2">  1        1 0.45211566E-01 0.13203795E+03</pdfrwt>
<pdfrwt beam="1">  1       -1 0.73468114E-02 0.13203795E+03</pdfrwt>
<totfact> 0.83587549E+03</totfact>
</mgrwt>
</event>
<event>
 8    1  0.1020295E-005  0.1287480E+03  0.7546771E-02  0.1244404E+00
          2   -1    0    0  501    0  0.00000000000E+00  0.00000000000E+00  0.92175133008E+03  0.92175133008E+03  0.00000000000E+00 0. -1.
         -2   -1    0    0    0  501 -0.00000000000E+00 -0.00000000000E+00 -0.13558281495E+02  0.13558281495E+02  0.00000000000E+00 0.  1.
         23    2    1    2    0    0  0.20171945891E+02  0.23347324895E+02  0.50368397290E+03  0.51987843538E+03  0.12499615207E+03 0.  0.
         23    2    1    2    0    0 -0.20171945891E+02 -0.23347324895E+02  0.40450907568E+03  0.41543117620E+03  0.89462086190E+02 0.  0.
          5    1    3    3  502    0  0.56640390244E+02  0.23843971240E+02  0.12455436185E+03  0.13896959317E+03  0.47000000000E+01 0. -1.
         -5    1    3    3    0  502 -0.36468444353E+02 -0.49664634570E+00  0.37912961106E+03  0.38090884221E+03  0.47000000000E+01 0. -1.
        -11    1    4    4    0    0 -0.22501667954E+02  0.30925603001E+02  0.21117085539E+03  0.21460626307E+03  0.00000000000E+00 0. -1.
         11    1    4    4    0    0  0.23297220632E+01 -0.54272927896E+02  0.19333822029E+03  0.20082491313E+03  0.00000000000E+00 0.  1.
<mgrwt>
<rscale>  0 0.11921101E+03</rscale>
<asrwt>0</asrwt>
<pdfrwt beam="1">  1        2 0.14180785E+00 0.12874798E+03</pdfrwt>
<pdfrwt beam="2">  1       -2 0.20858902E-02 0.12874798E+03</pdfrwt>
<totfact> 0.20252115E+04</totfact>
</mgrwt>
</event>
<event>
 8    1  0.1020295E-005  0.2245616E+03  0.7546771E-02  0.1133749E+00
         -1   -1    0    0    0  501 -0.00000000000E+00  0.00000000000E+00  0.56468689151E+02  0.56468689151E+02  0.00000000000E+00 0.  1.
          1   -1    0    0  501    0  0.00000000000E+00 -0.00000000000E+00 -0.11311032106E+04  0.11311032106E+04  0.00000000000E+00 0. -1.
         23    2    1    2    0    0  0.19691718118E+02  0.18551677237E+03 -0.24487990652E+03  0.33225603303E+03  0.12499466498E+03 0.  0.
         23    2    1    2    0    0 -0.19691718118E+02 -0.18551677237E+03 -0.82975461490E+03  0.85531586670E+03  0.90930051558E+02 0.  0.
          5    1    3    3  502    0 -0.72445378571E-01  0.27577146287E+02  0.11663357219E+02  0.30308879017E+02  0.47000000000E+01 0. -1.
         -5    1    3    3    0  502  0.19764163496E+02  0.15793962608E+03 -0.25654326373E+03  0.30194715401E+03  0.47000000000E+01 0. -1.
        -11    1    4    4    0    0  0.11723069657E+01 -0.18633600220E+03 -0.75944385743E+03  0.78197023768E+03  0.00000000000E+00 0. -1.
         11    1    4    4    0    0 -0.20864025084E+02  0.81922983133E+00 -0.70310757469E+02  0.73345629019E+02  0.00000000000E+00 0.  1.
<mgrwt>
<rscale>  0 0.22017936E+03</rscale>
<asrwt>0</asrwt>
<pdfrwt beam="2">  1        1 0.17401588E+00 0.22456158E+03</pdfrwt>
<pdfrwt beam="1">  1       -1 0.86874908E-02 0.22456158E+03</pdfrwt>
<totfact> 0.97507114E+02</totfact>
</mgrwt>
</event>
<event>
 8    1  0.1020295E-005  0.1325461E+03  0.7546771E-02  0.1236903E+00
         -1   -1    0    0    0  501 -0.00000000000E+00  0.00000000000E+00  0.27711504713E+02  0.27711504713E+02  0.00000000000E+00 0.  1.
          1   -1    0    0  501    0  0.00000000000E+00 -0.00000000000E+00 -0.51055342652E+03  0.51055342652E+03  0.00000000000E+00 0. -1.
         23    2    1    2    0    0  0.42690528761E+02  0.10974376567E+02 -0.22202118250E+03  0.25857661444E+03  0.12500216747E+03 0.  0.
         23    2    1    2    0    0 -0.42690528761E+02 -0.10974376567E+02 -0.26082073931E+03  0.27968831679E+03  0.90858011800E+02 0.  0.
          5    1    3    3  502    0 -0.22081845530E+02 -0.33570370994E+02 -0.28050521735E+02  0.49229051182E+02  0.47000000000E+01 0.  1.
         -5    1    3    3    0  502  0.64772374291E+02  0.44544747561E+02 -0.19397066076E+03  0.20934756326E+03  0.47000000000E+01 0.  1.
        -11    1    4    4    0    0  0.56026286262E+01 -0.87213100787E+01  0.35320525647E+01  0.10951077222E+02  0.00000000000E+00 0.  1.
         11    1    4    4    0    0 -0.48293157387E+02 -0.22530664884E+01 -0.26435279187E+03  0.26873723956E+03  0.00000000000E+00 0. -1.
<mgrwt>
<rscale>  0 0.12383404E+03</rscale>
<asrwt>0</asrwt>
<pdfrwt beam="2">  1        1 0.78546678E-01 0.13254607E+03</pdfrwt>
<pdfrwt beam="1">  1       -1 0.42633086E-02 0.13254607E+03</pdfrwt>
<totfact> 0.93468099E+03</totfact>
</mgrwt>
</event>
<event>
 8    1  0.1020295E-005  0.1814829E+03  0.7546771E-02  0.1171920E+00
          1   -1    0    0  501    0  0.00000000000E+00  0.00000000000E+00  0.58466454177E+03  0.58466454177E+03  0.00000000000E+00 0. -1.
         -1   -1    0    0    0  501 -0.00000000000E+00 -0.00000000000E+00 -0.52224286183E+02  0.52224286183E+02  0.00000000000E+00 0.  1.
         23    2    1    2    0    0 -0.63113610289E+02  0.11543685895E+03  0.35059377516E+03  0.39478099265E+03  0.12500816284E+03 0.  0.
         23    2    1    2    0    0  0.63113610289E+02 -0.11543685895E+03  0.18184648043E+03  0.24210783530E+03  0.90769296908E+02 0.  0.
          5    1    3    3  502    0  0.24528982164E+01 -0.25338734832E+02  0.57330511556E+02  0.62904258583E+02  0.47000000000E+01 0.  1.
         -5    1    3    3    0  502 -0.65566508506E+02  0.14077559378E+03  0.29326326360E+03  0.33187673407E+03  0.47000000000E+01 0.  1.
        -11    1    4    4    0    0  0.62569833824E+02 -0.47730301515E+02  0.48189043776E+02  0.92278652610E+02  0.00000000000E+00 0.  1.
         11    1    4    4    0    0  0.54377646512E+00 -0.67706557431E+02  0.13365743666E+03  0.14982918269E+03  0.00000000000E+00 0. -1.
<mgrwt>
<rscale>  0 0.17581118E+03</rscale>
<asrwt>0</asrwt>
<pdfrwt beam="1">  1        1 0.89948386E-01 0.18148288E+03</pdfrwt>
<pdfrwt beam="2">  1       -1 0.80345060E-02 0.18148288E+03</pdfrwt>
<totfact> 0.30738918E+03</totfact>
</mgrwt>
</event>
<event>
 8    1  0.1020295E-005  0.1570409E+03  0.7546771E-02  0.1200003E+00
         -2   -1    0    0    0  501 -0.00000000000E+00  0.00000000000E+00  0.18345586447E+02  0.18345586447E+02  0.00000000000E+00 0.  1.
          2   -1    0    0  501    0  0.00000000000E+00 -0.00000000000E+00 -0.11460965367E+04  0.11460965367E+04  0.00000000000E+00 0. -1.
         23    2    1    2    0    0 -0.92135066990E+02 -0.23438837602E+02 -0.56639460054E+03  0.58776244894E+03  0.12499441262E+03 0.  0.
         23    2    1    2    0    0  0.92135066990E+02  0.23438837602E+02 -0.56135634976E+03  0.57667967425E+03  0.91652853764E+02 0.  0.
          5    1    3    3  502    0 -0.11666735475E+03  0.72459328120E+01 -0.44252370115E+03  0.45772600023E+03  0.47000000000E+01 0.  1.
         -5    1    3    3    0  502  0.24532287757E+02 -0.30684770414E+02 -0.12387089939E+03  0.13003644871E+03  0.47000000000E+01 0.  1.
        -11    1    4    4    0    0  0.85256252380E+02 -0.19318535890E+02 -0.33501172824E+03  0.34622924841E+03  0.00000000000E+00 0.  1.
         11    1    4    4    0    0  0.68788146104E+01  0.42757373492E+02 -0.22634462152E+03  0.23045042584E+03  0.00000000000E+00 0. -1.
<mgrwt>
<rscale>  0 0.15038283E+03</rscale>
<asrwt>0</asrwt>
<pdfrwt beam="2">  1        2 0.17632257E+00 0.15704093E+03</pdfrwt>
<pdfrwt beam="1">  1       -2 0.28223975E-02 0.15704093E+03</pdfrwt>
<totfact> 0.97123022E+03</totfact>
</mgrwt>
</event>
<event>
 8    1  0.1020295E-005  0.1513954E+03  0.7546771E-02  0.1208058E+00
          1   -1    0    0  501    0  0.00000000000E+00  0.00000000000E+00  0.12993326953E+03  0.12993326953E+03  0.00000000000E+00 0. -1.
         -1   -1    0    0    0  501 -0.00000000000E+00 -0.00000000000E+00 -0.15062940066E+03  0.15062940066E+03  0.00000000000E+00 0.  1.
         23    2    1    2    0    0  0.71022469099E+02 -0.47431584546E+02 -0.36352806219E+02  0.15569876440E+03  0.12500652937E+03 0.  0.
         23    2    1    2    0    0 -0.71022469099E+02  0.47431584546E+02  0.15656675090E+02  0.12486390579E+03  0.89732475531E+02 0.  0.
          5    1    3    3  502    0 -0.73643655529E+01  0.18091459121E+02  0.28298100314E+02  0.34704571089E+02  0.47000000000E+01 0. -1.
         -5    1    3    3    0  502  0.78386834652E+02 -0.65523043667E+02 -0.64650906533E+02  0.12099419331E+03  0.47000000000E+01 0. -1.
        -11    1    4    4    0    0 -0.35177616032E+02  0.54746290738E+02 -0.25415748093E+02  0.69861157093E+02  0.00000000000E+00 0.  1.
         11    1    4    4    0    0 -0.35844853067E+02 -0.73147061927E+01  0.41072423183E+02  0.55002748697E+02  0.00000000000E+00 0. -1.
<mgrwt>
<rscale>  0 0.14399039E+03</rscale>
<asrwt>0</asrwt>
<pdfrwt beam="1">  1        1 0.19989734E-01 0.15139544E+03</pdfrwt>
<pdfrwt beam="2">  1       -1 0.23173754E-01 0.15139544E+03</pdfrwt>
<totfact> 0.39020863E+03</totfact>
</mgrwt>
</event>
<event>
 8    1  0.1020295E-005  0.1440656E+03  0.7546771E-02  0.1218604E+00
          1   -1    0    0  501    0  0.00000000000E+00  0.00000000000E+00  0.54084605585E+03  0.54084605585E+03  0.00000000000E+00 0. -1.
         -1   -1    0    0    0  501 -0.00000000000E+00 -0.00000000000E+00 -0.31150949259E+02  0.31150949259E+02  0.00000000000E+00 0.  1.
         23    2    1    2    0    0 -0.57819690743E+02  0.42272791991E+02  0.26388876260E+03  0.30065293776E+03  0.12499921748E+03 0.  0.
         23    2    1    2    0    0  0.57819690743E+02 -0.42272791991E+02  0.24580634399E+03  0.27134406735E+03  0.89870676884E+02 0.  0.
          5    1    3    3  502    0  0.24337349241E+02  0.13678167490E+02  0.66757641231E+01  0.29087018764E+02  0.47000000000E+01 0. -1.
         -5    1    3    3    0  502 -0.82157039984E+02  0.28594624501E+02  0.25721299848E+03  0.27156591899E+03  0.47000000000E+01 0. -1.
        -11    1    4    4    0    0  0.44715471352E+02 -0.66321755724E+02  0.13247405453E+03  0.15474955181E+03  0.00000000000E+00 0.  1.
         11    1    4    4    0    0  0.13104219391E+02  0.24048963732E+02  0.11333228945E+03  0.11659451554E+03  0.00000000000E+00 0. -1.
<mgrwt>
<rscale>  0 0.13615080E+03</rscale>
<asrwt>0</asrwt>
<pdfrwt beam="1">  1        1 0.83207078E-01 0.14406564E+03</pdfrwt>
<pdfrwt beam="2">  1       -1 0.47924541E-02 0.14406564E+03</pdfrwt>
<totfact> 0.73283802E+03</totfact>
</mgrwt>
</event>
<event>
 8    1  0.1020295E-005  0.1630579E+03  0.7546771E-02  0.1193983E+00
         -1   -1    0    0    0  501 -0.00000000000E+00  0.00000000000E+00  0.41679919853E+03  0.41679919853E+03  0.00000000000E+00 0.  1.
          1   -1    0    0  501    0  0.00000000000E+00 -0.00000000000E+00 -0.53895037231E+02  0.53895037231E+02  0.00000000000E+00 0. -1.
         23    2    1    2    0    0 -0.12830410601E+02  0.10392040900E+03  0.22667203176E+03  0.27922768498E+03  0.12499527685E+03 0.  0.
         23    2    1    2    0    0  0.12830410601E+02 -0.10392040900E+03  0.13623212953E+03  0.19146655077E+03  0.84475890675E+02 0.  0.
          5    1    3    3  502    0  0.30660811925E+02  0.53210901562E+02  0.24558255816E+02  0.66307490992E+02  0.47000000000E+01 0. -1.
         -5    1    3    3    0  502 -0.43491222526E+02  0.50709507438E+02  0.20211377595E+03  0.21292019399E+03  0.47000000000E+01 0. -1.
        -11    1    4    4    0    0  0.31117261604E+02 -0.11073333789E+03  0.11649278766E+03  0.16370927178E+03  0.00000000000E+00 0. -1.
         11    1    4    4    0    0 -0.18286851003E+02  0.68129288886E+01  0.19739341873E+02  0.27757278995E+02  0.00000000000E+00 0.  1.
<mgrwt>
<rscale>  0 0.15540573E+03</rscale>
<asrwt>0</asrwt>
<pdfrwt beam="2">  1        1 0.82915445E-02 0.16305793E+03</pdfrwt>
<pdfrwt beam="1">  1       -1 0.64122952E-01 0.16305793E+03</pdfrwt>
<totfact> 0.20690703E+03</totfact>
</mgrwt>
</event>
<event>
 8    1  0.1020295E-005  0.1363415E+03  0.7546771E-02  0.1230894E+00
          1   -1    0    0  501    0  0.00000000000E+00  0.00000000000E+00  0.33035526096E+03  0.33035526096E+03  0.00000000000E+00 0. -1.
         -1   -1    0    0    0  501 -0.00000000000E+00 -0.00000000000E+00 -0.78835531932E+02  0.78835531932E+02  0.00000000000E+00 0.  1.
         23    2    1    2    0    0 -0.46016739120E+02  0.15672737726E+02 -0.33427837652E+00  0.13634188949E+03  0.12738062686E+03 0.  0.
         23    2    1    2    0    0  0.46016739120E+02 -0.15672737726E+02  0.25185400741E+03  0.27284890341E+03  0.93021008682E+02 0.  0.
          5    1    3    3  502    0  0.20283734368E+02  0.53385346805E+02  0.13022222965E+02  0.58763027699E+02  0.47000000000E+01 0. -1.
         -5    1    3    3    0  502 -0.66300473488E+02 -0.37712609079E+02 -0.13356501342E+02  0.77578861789E+02  0.47000000000E+01 0.  1.
        -11    1    4    4    0    0  0.62488483857E+02  0.19925082846E+02  0.15056983668E+03  0.16423487832E+03  0.00000000000E+00 0.  1.
         11    1    4    4    0    0 -0.16471744737E+02 -0.35597820572E+02  0.10128417073E+03  0.10861402508E+03  0.00000000000E+00 0. -1.
<mgrwt>
<rscale>  0 0.12770985E+03</rscale>
<asrwt>0</asrwt>
<pdfrwt beam="1">  1        1 0.50823886E-01 0.13634148E+03</pdfrwt>
<pdfrwt beam="2">  1       -1 0.12128544E-01 0.13634148E+03</pdfrwt>
<totfact> 0.33785299E+03</totfact>
</mgrwt>
</event>
<event>
 8    1  0.1020295E-005  0.1367227E+03  0.7546771E-02  0.1234939E+00
         -2   -1    0    0    0  501 -0.00000000000E+00  0.00000000000E+00  0.16737820320E+02  0.16737820320E+02  0.00000000000E+00 0.  1.
          2   -1    0    0  501    0  0.00000000000E+00 -0.00000000000E+00 -0.80966672007E+03  0.80966672007E+03  0.00000000000E+00 0. -1.
         23    2    1    2    0    0 -0.40108884936E+02  0.38193589443E+02 -0.48753148460E+03  0.50633984334E+03  0.12500246221E+03 0.  0.
         23    2    1    2    0    0  0.40108884936E+02 -0.38193589443E+02 -0.30539741515E+03  0.32006469705E+03  0.78143177486E+02 0.  0.
          5    1    3    3  502    0 -0.84069017488E+02  0.37400224517E+02 -0.31148247578E+03  0.32482271967E+03  0.47000000000E+01 0.  1.
         -5    1    3    3    0  502  0.43960132552E+02  0.79336492635E+00 -0.17604900882E+03  0.18151712368E+03  0.47000000000E+01 0.  1.
        -11    1    4    4    0    0  0.16036493964E+02 -0.60713429908E+02 -0.19710024687E+03  0.20686178242E+03  0.00000000000E+00 0. -1.
         11    1    4    4    0    0  0.24072390972E+02  0.22519840464E+02 -0.10829716828E+03  0.11320291462E+03  0.00000000000E+00 0.  1.
<mgrwt>
<rscale>  0 0.12508327E+03</rscale>
<asrwt>0</asrwt>
<pdfrwt beam="2">  1        2 0.12456406E+00 0.13672267E+03</pdfrwt>
<pdfrwt beam="1">  1       -2 0.25750503E-02 0.13672267E+03</pdfrwt>
<totfact> 0.17675128E+04</totfact>
</mgrwt>
</event>
<event>
 8    1  0.1020295E-005  0.1300227E+03  0.7546771E-02  0.1246448E+00
          1   -1    0    0  501    0  0.00000000000E+00  0.00000000000E+00  0.24109305973E+03  0.24109305973E+03  0.00000000000E+00 0. -1.
         -1   -1    0    0    0  501 -0.00000000000E+00 -0.00000000000E+00 -0.57812163500E+02  0.57812163500E+02  0.00000000000E+00 0.  1.
         23    2    1    2    0    0  0.35746609965E+02 -0.17300018095E+01  0.50438842036E+02  0.13946317568E+03  0.12500035022E+03 0.  0.
         23    2    1    2    0    0 -0.35746609965E+02  0.17300018095E+01  0.13284205420E+03  0.15944204755E+03  0.80584999439E+02 0.  0.
          5    1    3    3  502    0 -0.29446356162E+02  0.31703956654E+02  0.49671531707E+02  0.66042257842E+02  0.47000000000E+01 0.  1.
         -5    1    3    3    0  502  0.65192966126E+02 -0.33433958464E+02  0.76731032845E+00  0.73420917837E+02  0.47000000000E+01 0.  1.
        -11    1    4    4    0    0 -0.57378326481E+02  0.14492746806E+02  0.11252018554E+03  0.12713419765E+03  0.00000000000E+00 0.  1.
         11    1    4    4    0    0  0.21631716516E+02 -0.12762744997E+02  0.20321868658E+02  0.32307849898E+02  0.00000000000E+00 0. -1.
<mgrwt>
<rscale>  0 0.11799136E+03</rscale>
<asrwt>0</asrwt>
<pdfrwt beam="1">  1        1 0.37091239E-01 0.13002269E+03</pdfrwt>
<pdfrwt beam="2">  1       -1 0.88941791E-02 0.13002269E+03</pdfrwt>
<totfact> 0.79916899E+03</totfact>
</mgrwt>
</event>
<event>
 6    1  0.1020295E-005  0.3634633E+03  0.7546771E-02  0.1057221E+00
         -2   -1    0    0    0  501 -0.00000000000E+00  0.00000000000E+00  0.48943650475E+02  0.48943650475E+02  0.00000000000E+00 0.  1.
          2   -1    0    0  501    0  0.00000000000E+00 -0.00000000000E+00 -0.67478385441E+03  0.67478385441E+03  0.00000000000E+00 0. -1.
          5    1    1    2  502    0 -0.44323523390E+02  0.37788191399E+02 -0.43158263212E+02  0.72644668204E+02  0.47000000000E+01 0. -1.
         -5    1    1    2    0  502  0.63154715135E+02 -0.50205846219E+02 -0.47362518650E+02  0.93671998010E+02  0.47000000000E+01 0.  1.
        -11    1    1    2    0    0  0.35295618690E+02 -0.54933803366E+02 -0.29180589174E+03  0.29902204250E+03  0.00000000000E+00 0.  1.
         11    1    1    2    0    0 -0.54126810435E+02  0.67351458186E+02 -0.24351353034E+03  0.25838879617E+03  0.00000000000E+00 0. -1.
<mgrwt>
<rscale>  0 0.36346326E+03</rscale>
<asrwt>0</asrwt>
<pdfrwt beam="2">  1        2 0.10381290E+00 0.36346326E+03</pdfrwt>
<pdfrwt beam="1">  1       -2 0.75297921E-02 0.36346326E+03</pdfrwt>
<totfact> 0.45822260E+03</totfact>
</mgrwt>
</event>
<event>
 8    1  0.1020295E-005  0.1273167E+03  0.7546771E-02  0.1246859E+00
         -1   -1    0    0    0  501 -0.00000000000E+00  0.00000000000E+00  0.18541995919E+02  0.18541995919E+02  0.00000000000E+00 0.  1.
          1   -1    0    0  501    0  0.00000000000E+00 -0.00000000000E+00 -0.65673376214E+03  0.65673376214E+03  0.00000000000E+00 0. -1.
         23    2    1    2    0    0  0.17597158393E+02  0.16581092941E+02 -0.35294447161E+03  0.37520572270E+03  0.12499976673E+03 0.  0.
         23    2    1    2    0    0 -0.17597158393E+02 -0.16581092941E+02 -0.28524729461E+03  0.30007003535E+03  0.89952289624E+02 0.  0.
          5    1    3    3  502    0  0.20259094339E+02  0.45394293233E+02 -0.49366023722E+02  0.70215148363E+02  0.47000000000E+01 0. -1.
         -5    1    3    3    0  502 -0.26619359466E+01 -0.28813200292E+02 -0.30357844789E+03  0.30499057434E+03  0.47000000000E+01 0. -1.
        -11    1    4    4    0    0 -0.14926050564E+02 -0.52628166671E+02 -0.13790063634E+03  0.14835463058E+03  0.00000000000E+00 0.  1.
         11    1    4    4    0    0 -0.26711078284E+01  0.36047073729E+02 -0.14734665827E+03  0.15171540477E+03  0.00000000000E+00 0. -1.
<mgrwt>
<rscale>  0 0.11774811E+03</rscale>
<asrwt>0</asrwt>
<pdfrwt beam="2">  1        1 0.10103596E+00 0.12731667E+03</pdfrwt>
<pdfrwt beam="1">  1       -1 0.28526149E-02 0.12731667E+03</pdfrwt>
<totfact> 0.11937414E+04</totfact>
</mgrwt>
</event>
<event>
 8    1  0.1020295E-005  0.2800420E+03  0.7546771E-02  0.1097689E+00
          2   -1    0    0  501    0  0.00000000000E+00  0.00000000000E+00  0.12022293100E+04  0.12022293100E+04  0.00000000000E+00 0. -1.
         -2   -1    0    0    0  501 -0.00000000000E+00 -0.00000000000E+00 -0.63897464170E+02  0.63897464170E+02  0.00000000000E+00 0.  1.
         23    2    1    2    0    0 -0.23437266830E+03 -0.84869444885E+02  0.47236447939E+03  0.54913726874E+03  0.12763294328E+03 0.  0.
         23    2    1    2    0    0  0.23437266830E+03  0.84869444885E+02  0.66596736644E+03  0.71698950543E+03  0.91804397557E+02 0.  0.
          5    1    3    3  502    0 -0.39251532145E+02 -0.64692126388E+02  0.19640447132E+03  0.21052923870E+03  0.47000000000E+01 0. -1.
         -5    1    3    3    0  502 -0.19512113615E+03 -0.20177318497E+02  0.27596000808E+03  0.33860803005E+03  0.47000000000E+01 0.  1.
        -11    1    4    4    0    0  0.14282110355E+03  0.61297286054E+02  0.28669349517E+03  0.32611100115E+03  0.00000000000E+00 0.  1.
         11    1    4    4    0    0  0.91551564746E+02  0.23572158830E+02  0.37927387127E+03  0.39087850428E+03  0.00000000000E+00 0. -1.
<mgrwt>
<rscale>  0 0.27636836E+03</rscale>
<asrwt>0</asrwt>
<pdfrwt beam="1">  1        2 0.18495834E+00 0.28004203E+03</pdfrwt>
<pdfrwt beam="2">  1       -2 0.98303800E-02 0.28004203E+03</pdfrwt>
<totfact> 0.13594782E+03</totfact>
</mgrwt>
</event>
<event>
 8    1  0.1020295E-005  0.1636316E+03  0.7546771E-02  0.1192143E+00
         -1   -1    0    0    0  501 -0.00000000000E+00  0.00000000000E+00  0.93843571042E+02  0.93843571042E+02  0.00000000000E+00 0.  1.
          1   -1    0    0  501    0  0.00000000000E+00 -0.00000000000E+00 -0.25068669340E+03  0.25068669340E+03  0.00000000000E+00 0. -1.
         23    2    1    2    0    0  0.54970070221E+02  0.90151537760E+02 -0.55408251089E+02  0.17275812758E+03  0.12500515180E+03 0.  0.
         23    2    1    2    0    0 -0.54970070221E+02 -0.90151537760E+02 -0.10143487127E+03  0.17177213686E+03  0.89819961654E+02 0.  0.
          5    1    3    3  502    0  0.63740872685E+02  0.32233786969E+02  0.22624021115E+02  0.75072313168E+02  0.47000000000E+01 0. -1.
         -5    1    3    3    0  502 -0.87708024636E+01  0.57917750791E+02 -0.78032272205E+02  0.97685814415E+02  0.47000000000E+01 0. -1.
        -11    1    4    4    0    0 -0.11971076143E+02 -0.40361114436E+02 -0.97109872272E+02  0.10584258838E+03  0.00000000000E+00 0. -1.
         11    1    4    4    0    0 -0.42998994078E+02 -0.49790423324E+02 -0.43249989999E+01  0.65929548480E+02  0.00000000000E+00 0.  1.
<mgrwt>
<rscale>  0 0.15698567E+03</rscale>
<asrwt>0</asrwt>
<pdfrwt beam="2">  1        1 0.38567183E-01 0.16363159E+03</pdfrwt>
<pdfrwt beam="1">  1       -1 0.14437473E-01 0.16363159E+03</pdfrwt>
<totfact> 0.36590053E+03</totfact>
</mgrwt>
</event>
<event>
 8    1  0.1020295E-005  0.1313464E+03  0.7546771E-02  0.1238930E+00
         -2   -1    0    0    0  501 -0.00000000000E+00  0.00000000000E+00  0.96136814520E+02  0.96136814520E+02  0.00000000000E+00 0.  1.
          2   -1    0    0  501    0  0.00000000000E+00 -0.00000000000E+00 -0.13977059378E+03  0.13977059378E+03  0.00000000000E+00 0. -1.
         23    2    1    2    0    0  0.40377626171E+02 -0.17626424825E+01 -0.14437903466E+02  0.13213753438E+03  0.12497365855E+03 0.  0.
         23    2    1    2    0    0 -0.40377626171E+02  0.17626424825E+01 -0.29195875799E+02  0.10376987393E+03  0.91007296232E+02 0.  0.
          5    1    3    3  502    0 -0.18817685274E+02  0.49108091610E+02 -0.10667203383E+01  0.52810395122E+02  0.47000000000E+01 0. -1.
         -5    1    3    3    0  502  0.59195311445E+02 -0.50870734092E+02 -0.13371183128E+02  0.79327139255E+02  0.47000000000E+01 0. -1.
        -11    1    4    4    0    0 -0.57544600198E+02  0.31201718846E+02 -0.20590060947E+02  0.68621271343E+02  0.00000000000E+00 0.  1.
         11    1    4    4    0    0  0.17166974027E+02 -0.29439076364E+02 -0.86058148517E+01  0.35148602585E+02  0.00000000000E+00 0. -1.
<mgrwt>
<rscale>  0 0.12256163E+03</rscale>
<asrwt>0</asrwt>
<pdfrwt beam="2">  1        2 0.21503168E-01 0.13134639E+03</pdfrwt>
<pdfrwt beam="1">  1       -2 0.14790279E-01 0.13134639E+03</pdfrwt>
<totfact> 0.84304379E+03</totfact>
</mgrwt>
</event>
<event>
 7    1  0.1020295E-005  0.1475370E+03  0.7546771E-02  0.1216677E+00
          1   -1    0    0  501    0  0.00000000000E+00  0.00000000000E+00  0.26999253263E+03  0.26999253263E+03  0.00000000000E+00 0. -1.
         -1   -1    0    0    0  501 -0.00000000000E+00 -0.00000000000E+00 -0.62233612771E+02  0.62233612771E+02  0.00000000000E+00 0.  1.
         23    2    1    2    0    0  0.79263597969E+01 -0.65383320727E+02  0.81823479223E+02  0.13824958043E+03  0.89889147992E+02 0.  0.
          5    1    1    2  502    0 -0.50025828983E+02  0.60076841455E+02  0.21597920029E+02  0.81242664864E+02  0.47000000000E+01 0. -1.
         -5    1    1    2    0  502  0.42099469186E+02  0.53064792722E+01  0.10433752061E+03  0.11273390011E+03  0.47000000000E+01 0.  1.
        -11    1    3    3    0    0  0.13540975912E+02 -0.23174458393E+02 -0.16218591811E+02  0.31360106358E+02  0.00000000000E+00 0.  1.
         11    1    3    3    0    0 -0.56146161151E+01 -0.42208862333E+02  0.98042071034E+02  0.10688947407E+03  0.00000000000E+00 0. -1.
<mgrwt>
<rscale>  0 0.13754082E+03</rscale>
<asrwt>0</asrwt>
<pdfrwt beam="1">  1        1 0.41537312E-01 0.14753702E+03</pdfrwt>
<pdfrwt beam="2">  1       -1 0.95744021E-02 0.14753702E+03</pdfrwt>
<totfact> 0.62635850E+03</totfact>
</mgrwt>
</event>
<event>
 8    1  0.1020295E-005  0.1359630E+03  0.7546771E-02  0.1229975E+00
         -2   -1    0    0    0  501 -0.00000000000E+00  0.00000000000E+00  0.20934948718E+03  0.20934948718E+03  0.00000000000E+00 0.  1.
          2   -1    0    0  501    0  0.00000000000E+00 -0.00000000000E+00 -0.72481095983E+02  0.72481095983E+02  0.00000000000E+00 0. -1.
         23    2    1    2    0    0  0.53389030378E+02 -0.30439569724E+01  0.96204074890E+02  0.16655680836E+03  0.12500516848E+03 0.  0.
         23    2    1    2    0    0 -0.53389030378E+02  0.30439569724E+01  0.40664316311E+02  0.11527377481E+03  0.93673914720E+02 0.  0.
          5    1    3    3  502    0  0.29140375791E+02  0.38328314805E+02 -0.10477370879E+02  0.49498348634E+02  0.47000000000E+01 0. -1.
         -5    1    3    3    0  502  0.24248654587E+02 -0.41372271777E+02  0.10668144577E+03  0.11705845972E+03  0.47000000000E+01 0. -1.
        -11    1    4    4    0    0 -0.57384405111E+02 -0.75671850467E+01  0.65838634017E+02  0.87663892046E+02  0.00000000000E+00 0.  1.
         11    1    4    4    0    0  0.39953747336E+01  0.10611142019E+02 -0.25174317706E+02  0.27609882763E+02  0.00000000000E+00 0. -1.
<mgrwt>
<rscale>  0 0.12831691E+03</rscale>
<asrwt>0</asrwt>
<pdfrwt beam="2">  1        2 0.11150938E-01 0.13596303E+03</pdfrwt>
<pdfrwt beam="1">  1       -2 0.32207613E-01 0.13596303E+03</pdfrwt>
<totfact> 0.47796900E+03</totfact>
</mgrwt>
</event>
<event>
 7    1  0.1020295E-005  0.1408967E+03  0.7546771E-02  0.1243717E+00
          2   -1    0    0  501    0  0.00000000000E+00  0.00000000000E+00  0.51096607419E+03  0.51096607419E+03  0.00000000000E+00 0. -1.
         -2   -1    0    0    0  501 -0.00000000000E+00 -0.00000000000E+00 -0.27201637637E+02  0.27201637637E+02  0.00000000000E+00 0.  1.
         23    2    1    2    0    0  0.58103843178E+02 -0.29228089653E+02  0.19696921333E+03  0.24217505757E+03  0.12498619800E+03 0.  0.
          5    1    3    3  502    0  0.67683929825E+02  0.32372815194E+02  0.81558014095E+02  0.11091849793E+03  0.47000000000E+01 0. -1.
         -5    1    3    3    0  502 -0.95800866463E+01 -0.61600904847E+02  0.11541119924E+03  0.13125655964E+03  0.47000000000E+01 0. -1.
        -11    1    1    2    0    0 -0.41595480926E+02  0.32792716461E+02  0.24936959454E+03  0.25493281657E+03  0.00000000000E+00 0. -1.
         11    1    1    2    0    0 -0.16508362253E+02 -0.35646268076E+01  0.37425628680E+02  0.41059837685E+02  0.00000000000E+00 0.  1.
<mgrwt>
<rscale>  0 0.11962524E+03</rscale>
<asrwt>0</asrwt>
<pdfrwt beam="1">  1        2 0.78610158E-01 0.14089673E+03</pdfrwt>
<pdfrwt beam="2">  1       -2 0.41848677E-02 0.14089673E+03</pdfrwt>
<totfact> 0.14792517E+04</totfact>
</mgrwt>
</event>
<event>
 8    1  0.1020295E-005  0.1849270E+03  0.7546771E-02  0.1168276E+00
         -1   -1    0    0    0  501 -0.00000000000E+00  0.00000000000E+00  0.58246702013E+02  0.58246702013E+02  0.00000000000E+00 0.  1.
          1   -1    0    0  501    0  0.00000000000E+00 -0.00000000000E+00 -0.52412037018E+03  0.52412037018E+03  0.00000000000E+00 0. -1.
         23    2    1    2    0    0  0.13566158650E+03  0.12906125115E+02 -0.23428354757E+03  0.29847406727E+03  0.12500941585E+03 0.  0.
         23    2    1    2    0    0 -0.13566158650E+03 -0.12906125115E+02 -0.23159012060E+03  0.28389300493E+03  0.91600328452E+02 0.  0.
          5    1    3    3  502    0  0.79005077340E+02  0.10165671125E+02 -0.22757989654E+03  0.24116351802E+03  0.47000000000E+01 0.  1.
         -5    1    3    3    0  502  0.56656509159E+02  0.27404539902E+01 -0.67036510357E+01  0.57310549250E+02  0.47000000000E+01 0.  1.
        -11    1    4    4    0    0 -0.90759216955E+02 -0.17106095795E+01 -0.66736807196E+02  0.11266748902E+03  0.00000000000E+00 0.  1.
         11    1    4    4    0    0 -0.44902369543E+02 -0.11195515535E+02 -0.16485331340E+03  0.17122551591E+03  0.00000000000E+00 0. -1.
<mgrwt>
<rscale>  0 0.17951168E+03</rscale>
<asrwt>0</asrwt>
<pdfrwt beam="2">  1        1 0.80633904E-01 0.18492698E+03</pdfrwt>
<pdfrwt beam="1">  1       -1 0.89610310E-02 0.18492698E+03</pdfrwt>
<totfact> 0.30179102E+03</totfact>
</mgrwt>
</event>
<event>
 8    1  0.1020295E-005  0.1400865E+03  0.7546771E-02  0.1224852E+00
         -1   -1    0    0    0  501 -0.00000000000E+00  0.00000000000E+00  0.60202619810E+02  0.60202619810E+02  0.00000000000E+00 0.  1.
          1   -1    0    0  501    0  0.00000000000E+00 -0.00000000000E+00 -0.26104355474E+03  0.26104355474E+03  0.00000000000E+00 0. -1.
         23    2    1    2    0    0 -0.63141163887E+02 -0.34256064437E+01 -0.98561092939E+02  0.17128487704E+03  0.12500271480E+03 0.  0.
         23    2    1    2    0    0  0.63141163887E+02  0.34256064437E+01 -0.10227984199E+03  0.14996129750E+03  0.89602920238E+02 0.  0.
          5    1    3    3  502    0 -0.77036269997E+02 -0.66993691734E+01 -0.12135963601E+03  0.14397819174E+03  0.47000000000E+01 0. -1.
         -5    1    3    3    0  502  0.13895106110E+02  0.32737627296E+01  0.22798543074E+02  0.27306685308E+02  0.47000000000E+01 0. -1.
        -11    1    4    4    0    0  0.11505662875E+01  0.36110654266E+02 -0.18039722948E+02  0.40382357018E+02  0.00000000000E+00 0.  1.
         11    1    4    4    0    0  0.61990597600E+02 -0.32685047822E+02 -0.84240119040E+02  0.10957894048E+03  0.00000000000E+00 0. -1.
<mgrwt>
<rscale>  0 0.13177039E+03</rscale>
<asrwt>0</asrwt>
<pdfrwt beam="2">  1        1 0.40160547E-01 0.14008647E+03</pdfrwt>
<pdfrwt beam="1">  1       -1 0.92619415E-02 0.14008647E+03</pdfrwt>
<totfact> 0.68463197E+03</totfact>
</mgrwt>
</event>
<event>
 8    1  0.1020295E-005  0.1261840E+03  0.7546771E-02  0.1248763E+00
         -2   -1    0    0    0  501 -0.00000000000E+00  0.00000000000E+00  0.22992881907E+03  0.22992881907E+03  0.00000000000E+00 0.  1.
          2   -1    0    0  501    0  0.00000000000E+00 -0.00000000000E+00 -0.51805251658E+02  0.51805251658E+02  0.00000000000E+00 0. -1.
         23    2    1    2    0    0 -0.83565513081E+01  0.70902339094E+01  0.10221136682E+03  0.16238709157E+03  0.12570720200E+03 0.  0.
         23    2    1    2    0    0  0.83565513081E+01 -0.70902339094E+01  0.75912200598E+02  0.11934697916E+03  0.91438153246E+02 0.  0.
          5    1    3    3  502    0 -0.42530181627E+02  0.15633050077E+02 -0.82973113175E+01  0.46304902322E+02  0.47000000000E+01 0. -1.
         -5    1    3    3    0  502  0.34173630319E+02 -0.85428161674E+01  0.11050867814E+03  0.11608218925E+03  0.47000000000E+01 0.  1.
        -11    1    4    4    0    0  0.41736150494E+02 -0.63937243442E+01  0.74856438660E+02  0.85943425449E+02  0.00000000000E+00 0.  1.
         11    1    4    4    0    0 -0.33379599186E+02 -0.69650956513E+00  0.10557619377E+01  0.33403553713E+02  0.00000000000E+00 0. -1.
<mgrwt>
<rscale>  0 0.11662976E+03</rscale>
<asrwt>0</asrwt>
<pdfrwt beam="2">  1        2 0.79700389E-02 0.12618401E+03</pdfrwt>
<pdfrwt beam="1">  1       -2 0.35373664E-01 0.12618401E+03</pdfrwt>
<totfact> 0.60560857E+03</totfact>
</mgrwt>
</event>
<event>
 7    1  0.1020295E-005  0.2616138E+03  0.7546771E-02  0.1112598E+00
         -1   -1    0    0    0  501 -0.00000000000E+00  0.00000000000E+00  0.97172725748E+02  0.97172725748E+02  0.00000000000E+00 0.  1.
          1   -1    0    0  501    0  0.00000000000E+00 -0.00000000000E+00 -0.61555198124E+03  0.61555198124E+03  0.00000000000E+00 0. -1.
         23    2    1    2    0    0 -0.75753563951E+02  0.18708889872E+03 -0.29123334259E+03  0.36626111172E+03  0.92679467213E+02 0.  0.
          5    1    1    2  502    0  0.54639143449E+02 -0.17594146144E+03 -0.25165970393E+03  0.31192231474E+03  0.47000000000E+01 0. -1.
         -5    1    1    2    0  502  0.21114420503E+02 -0.11147437284E+02  0.24513791021E+02  0.34541280541E+02  0.47000000000E+01 0.  1.
        -11    1    3    3    0    0  0.21539635485E+02  0.24873832889E+02 -0.45823678922E+02  0.56413411609E+02  0.00000000000E+00 0. -1.
         11    1    3    3    0    0 -0.97293199437E+02  0.16221506583E+03 -0.24540966367E+03  0.30984770011E+03  0.00000000000E+00 0.  1.
<mgrwt>
<rscale>  0 0.25112196E+03</rscale>
<asrwt>0</asrwt>
<pdfrwt beam="2">  1        1 0.94700306E-01 0.26161376E+03</pdfrwt>
<pdfrwt beam="1">  1       -1 0.14949650E-01 0.26161376E+03</pdfrwt>
<totfact> 0.10976773E+03</totfact>
</mgrwt>
</event>
<event>
 8    1  0.1020295E-005  0.3190172E+03  0.7546771E-02  0.1077523E+00
          2   -1    0    0  501    0  0.00000000000E+00  0.00000000000E+00  0.47065351702E+03  0.47065351702E+03  0.00000000000E+00 0.  1.
         -2   -1    0    0    0  501 -0.00000000000E+00 -0.00000000000E+00 -0.28510636848E+03  0.28510636848E+03  0.00000000000E+00 0. -1.
         23    2    1    2    0    0 -0.23830317987E+02  0.29253843486E+03 -0.10222171863E+03  0.33499439902E+03  0.12500139075E+03 0.  0.
         23    2    1    2    0    0  0.23830317987E+02 -0.29253843486E+03  0.28776886717E+03  0.42076548648E+03  0.89922487576E+02 0.  0.
          5    1    3    3  502    0 -0.70649213906E+02  0.20483968721E+03 -0.90176324349E+02  0.23474340961E+03  0.47000000000E+01 0. -1.
         -5    1    3    3    0  502  0.46818895918E+02  0.87698747651E+02 -0.12045394280E+02  0.10025098941E+03  0.47000000000E+01 0. -1.
        -11    1    4    4    0    0  0.36268189868E+02 -0.13813294268E+03  0.18961268940E+03  0.23737957669E+03  0.00000000000E+00 0.  1.
         11    1    4    4    0    0 -0.12437871881E+02 -0.15440549218E+03  0.98156177766E+02  0.18338590978E+03  0.00000000000E+00 0. -1.
<mgrwt>
<rscale>  0 0.31596265E+03</rscale>
<asrwt>0</asrwt>
<pdfrwt beam="1">  1        2 0.72408233E-01 0.31901719E+03</pdfrwt>
<pdfrwt beam="2">  1       -2 0.43862518E-01 0.31901719E+03</pdfrwt>
<totfact> 0.33343333E+02</totfact>
</mgrwt>
</event>
<event>
 8    1  0.1020295E-005  0.1258718E+03  0.7546771E-02  0.1249196E+00
          1   -1    0    0  501    0  0.00000000000E+00  0.00000000000E+00  0.24193643322E+03  0.24193643322E+03  0.00000000000E+00 0. -1.
         -1   -1    0    0    0  501 -0.00000000000E+00 -0.00000000000E+00 -0.52844914919E+02  0.52844914919E+02  0.00000000000E+00 0.  1.
         23    2    1    2    0    0 -0.37727766836E+01  0.14282546390E+02  0.69097150953E+02  0.14359012154E+03  0.12500192702E+03 0.  0.
         23    2    1    2    0    0  0.37727766836E+01 -0.14282546390E+02  0.11999436735E+03  0.15119122660E+03  0.90784986809E+02 0.  0.
          5    1    3    3  502    0 -0.48459480774E+02  0.41759845211E+02  0.10836673638E+02  0.65051744362E+02  0.47000000000E+01 0.  1.
         -5    1    3    3    0  502  0.44686704091E+02 -0.27477298821E+02  0.58260477316E+02  0.78538377180E+02  0.47000000000E+01 0.  1.
        -11    1    4    4    0    0 -0.20574455630E+02 -0.21937586214E+02  0.12194055116E+03  0.12559484038E+03  0.00000000000E+00 0. -1.
         11    1    4    4    0    0  0.24347232313E+02  0.76550398235E+01 -0.19461838104E+01  0.25596386219E+02  0.00000000000E+00 0.  1.
<mgrwt>
<rscale>  0 0.11637736E+03</rscale>
<asrwt>0</asrwt>
<pdfrwt beam="1">  1        1 0.37220989E-01 0.12587179E+03</pdfrwt>
<pdfrwt beam="2">  1       -1 0.81299871E-02 0.12587179E+03</pdfrwt>
<totfact> 0.90916319E+03</totfact>
</mgrwt>
</event>
<event>
 8    1  0.1020295E-005  0.1125642E+03  0.7546771E-02  0.1267410E+00
          2   -1    0    0  501    0  0.00000000000E+00  0.00000000000E+00  0.15833777865E+03  0.15833777865E+03  0.00000000000E+00 0. -1.
         -2   -1    0    0    0  501 -0.00000000000E+00 -0.00000000000E+00 -0.17607085691E+03  0.17607085691E+03  0.00000000000E+00 0.  1.
         23    2    1    2    0    0 -0.99168352965E+01 -0.37791927219E+01 -0.14192330287E+03  0.18114336536E+03  0.11206279042E+03 0.  0.
         23    2    1    2    0    0  0.99168352965E+01  0.37791927219E+01  0.12419022460E+03  0.15326527020E+03  0.89187472445E+02 0.  0.
          5    1    3    3  502    0 -0.19616462799E+02  0.46943879828E+02 -0.33897537543E+02  0.61316119557E+02  0.47000000000E+01 0. -1.
         -5    1    3    3    0  502  0.96996275025E+01 -0.50723072550E+02 -0.10802576533E+03  0.11982724580E+03  0.47000000000E+01 0.  1.
        -11    1    4    4    0    0 -0.16457343394E+02 -0.23001077318E+02  0.55611254605E+01  0.28823945353E+02  0.00000000000E+00 0.  1.
         11    1    4    4    0    0  0.26374178690E+02  0.26780270039E+02  0.11862909914E+03  0.12444132484E+03  0.00000000000E+00 0. -1.
<mgrwt>
<rscale>  0 0.10638720E+03</rscale>
<asrwt>0</asrwt>
<pdfrwt beam="1">  1        2 0.24359658E-01 0.11256418E+03</pdfrwt>
<pdfrwt beam="2">  1       -2 0.27087824E-01 0.11256418E+03</pdfrwt>
<totfact> 0.26132199E+03</totfact>
</mgrwt>
</event>
<event>
 8    1  0.1020295E-005  0.1429401E+03  0.7546771E-02  0.1219782E+00
         -1   -1    0    0    0  501 -0.00000000000E+00  0.00000000000E+00  0.36371880452E+02  0.36371880452E+02  0.00000000000E+00 0.  1.
          1   -1    0    0  501    0  0.00000000000E+00 -0.00000000000E+00 -0.45951815271E+03  0.45951815271E+03  0.00000000000E+00 0. -1.
         23    2    1    2    0    0  0.68885797234E+02 -0.77618872981E+01 -0.21465345794E+03  0.25789138669E+03  0.12500544135E+03 0.  0.
         23    2    1    2    0    0 -0.68885797234E+02  0.77618872981E+01 -0.20849281432E+03  0.23799864647E+03  0.91480064193E+02 0.  0.
          5    1    3    3  502    0  0.72973675360E+02  0.35811405484E+02 -0.19164415786E+03  0.20822388744E+03  0.47000000000E+01 0.  1.
         -5    1    3    3    0  502 -0.40878781253E+01 -0.43573292782E+02 -0.23009300074E+02  0.49667499246E+02  0.47000000000E+01 0.  1.
        -11    1    4    4    0    0 -0.73875206010E+02 -0.26820292021E+02 -0.15963062828E+03  0.17792923204E+03  0.00000000000E+00 0. -1.
         11    1    4    4    0    0  0.49894087762E+01  0.34582179319E+02 -0.48862186036E+02  0.60069414435E+02  0.00000000000E+00 0.  1.
<mgrwt>
<rscale>  0 0.13531022E+03</rscale>
<asrwt>0</asrwt>
<pdfrwt beam="2">  1        1 0.70695100E-01 0.14294006E+03</pdfrwt>
<pdfrwt beam="1">  1       -1 0.55956739E-02 0.14294006E+03</pdfrwt>
<totfact> 0.72019055E+03</totfact>
</mgrwt>
</event>
<event>
 8    1  0.1020295E-005  0.2363665E+03  0.7546771E-02  0.1125390E+00
          1   -1    0    0  501    0  0.00000000000E+00  0.00000000000E+00  0.13014395182E+03  0.13014395182E+03  0.00000000000E+00 0. -1.
         -1   -1    0    0    0  501 -0.00000000000E+00 -0.00000000000E+00 -0.64875693499E+03  0.64875693499E+03  0.00000000000E+00 0.  1.
         23    2    1    2    0    0  0.84498237541E+02  0.18195450131E+03 -0.50774634579E+03  0.56006736424E+03  0.12498683184E+03 0.  0.
         23    2    1    2    0    0 -0.84498237541E+02 -0.18195450131E+03 -0.10866637391E+02  0.21883352257E+03  0.86733119971E+02 0.  0.
          5    1    3    3  502    0  0.50962674879E+02  0.58015785197E+01 -0.17014208227E+03  0.17776746244E+03  0.47000000000E+01 0. -1.
         -5    1    3    3    0  502  0.33535562661E+02  0.17615292279E+03 -0.33760426352E+03  0.38229990180E+03  0.47000000000E+01 0. -1.
        -11    1    4    4    0    0 -0.54528394386E+02 -0.11189939782E+03  0.35747487273E+02  0.12950947406E+03  0.00000000000E+00 0. -1.
         11    1    4    4    0    0 -0.29969843155E+02 -0.70055103491E+02 -0.46614124664E+02  0.89324048509E+02  0.00000000000E+00 0.  1.
<mgrwt>
<rscale>  0 0.23178419E+03</rscale>
<asrwt>0</asrwt>
<pdfrwt beam="1">  1        1 0.20022146E-01 0.23636645E+03</pdfrwt>
<pdfrwt beam="2">  1       -1 0.99808760E-01 0.23636645E+03</pdfrwt>
<totfact> 0.25982838E+02</totfact>
</mgrwt>
</event>
<event>
 8    1  0.1020295E-005  0.1319316E+03  0.7546771E-02  0.1238158E+00
         -2   -1    0    0    0  501 -0.00000000000E+00  0.00000000000E+00  0.14288928363E+03  0.14288928363E+03  0.00000000000E+00 0. -1.
          2   -1    0    0  501    0  0.00000000000E+00 -0.00000000000E+00 -0.11849385834E+03  0.11849385834E+03  0.00000000000E+00 0.  1.
         23    2    1    2    0    0 -0.24397078527E+02  0.34419885911E+02  0.72544885596E+02  0.15056131648E+03  0.12500401436E+03 0.  0.
         23    2    1    2    0    0  0.24397078527E+02 -0.34419885911E+02 -0.48149460296E+02  0.11082182549E+03  0.90460822968E+02 0.  0.
          5    1    3    3  502    0 -0.56818167154E+02 -0.82002477142E+01 -0.31908275129E+01  0.57687256492E+02  0.47000000000E+01 0.  1.
         -5    1    3    3    0  502  0.32421088628E+02  0.42620133625E+02  0.75735713108E+02  0.92874059985E+02  0.47000000000E+01 0.  1.
        -11    1    4    4    0    0 -0.13634434215E+02  0.14199182169E+02  0.13272777489E+02  0.23741971125E+02  0.00000000000E+00 0. -1.
         11    1    4    4    0    0  0.38031512742E+02 -0.48619068079E+02 -0.61422237784E+02  0.87079854368E+02  0.00000000000E+00 0.  1.
<mgrwt>
<rscale>  0 0.12304416E+03</rscale>
<asrwt>0</asrwt>
<pdfrwt beam="2">  1        2 0.18229824E-01 0.13193161E+03</pdfrwt>
<pdfrwt beam="1">  1       -2 0.21982967E-01 0.13193161E+03</pdfrwt>
<totfact> 0.52455518E+03</totfact>
</mgrwt>
</event>
<event>
 8    1  0.1020295E-005  0.1341086E+03  0.7546771E-02  0.1232563E+00
          1   -1    0    0  501    0  0.00000000000E+00  0.00000000000E+00  0.26148024604E+03  0.26148024604E+03  0.00000000000E+00 0. -1.
         -1   -1    0    0    0  501 -0.00000000000E+00 -0.00000000000E+00 -0.69081533517E+02  0.69081533517E+02  0.00000000000E+00 0.  1.
         23    2    1    2    0    0 -0.28096498159E+02  0.39634435539E+02  0.31803969190E+02  0.13782818167E+03  0.12499925407E+03 0.  0.
         23    2    1    2    0    0  0.28096498159E+02 -0.39634435539E+02  0.16059474333E+03  0.19273359789E+03  0.94843378679E+02 0.  0.
          5    1    3    3  502    0 -0.35373307388E+02  0.57888049842E+01  0.74411749722E+02  0.82728348439E+02  0.47000000000E+01 0.  1.
         -5    1    3    3    0  502  0.72768092297E+01  0.33845630555E+02 -0.42607780532E+02  0.55099833231E+02  0.47000000000E+01 0.  1.
        -11    1    4    4    0    0  0.63311652798E+02 -0.26037580395E+02  0.95813085739E+02  0.11775596958E+03  0.00000000000E+00 0.  1.
         11    1    4    4    0    0 -0.35215154639E+02 -0.13596855144E+02  0.64781657595E+02  0.74977628308E+02  0.00000000000E+00 0. -1.
<mgrwt>
<rscale>  0 0.12661745E+03</rscale>
<asrwt>0</asrwt>
<pdfrwt beam="1">  1        1 0.40227729E-01 0.13410859E+03</pdfrwt>
<pdfrwt beam="2">  1       -1 0.10627928E-01 0.13410859E+03</pdfrwt>
<totfact> 0.55233986E+03</totfact>
</mgrwt>
</event>
<event>
 8    1  0.1020295E-005  0.1363502E+03  0.7546771E-02  0.1230453E+00
         -4   -1    0    0    0  501 -0.00000000000E+00  0.00000000000E+00  0.22420470241E+03  0.22420470241E+03  0.00000000000E+00 0.  1.
          4   -1    0    0  501    0  0.00000000000E+00 -0.00000000000E+00 -0.73661725019E+02  0.73661725019E+02  0.00000000000E+00 0. -1.
         23    2    1    2    0    0 -0.50462088964E+02 -0.20445591829E+02  0.13309704415E+03  0.19054187453E+03  0.12500775232E+03 0.  0.
         23    2    1    2    0    0  0.50462088964E+02  0.20445591829E+02  0.17445933247E+02  0.10732455290E+03  0.90828158744E+02 0.  0.
          5    1    3    3  502    0 -0.20136800199E+02  0.31516694880E+02  0.12388845295E+03  0.12949606771E+03  0.47000000000E+01 0.  1.
         -5    1    3    3    0  502 -0.30325288765E+02 -0.51962286709E+02  0.92085912011E+01  0.61045806822E+02  0.47000000000E+01 0.  1.
        -11    1    4    4    0    0  0.17848847159E+02  0.50488105293E+02 -0.10965736692E+02  0.54661480973E+02  0.00000000000E+00 0. -1.
         11    1    4    4    0    0  0.32613241805E+02 -0.30042513464E+02  0.28411669938E+02  0.52663071929E+02  0.00000000000E+00 0.  1.
<mgrwt>
<rscale>  0 0.12800087E+03</rscale>
<asrwt>0</asrwt>
<pdfrwt beam="2">  1        4 0.11332573E-01 0.13635022E+03</pdfrwt>
<pdfrwt beam="1">  1       -4 0.34493031E-01 0.13635022E+03</pdfrwt>
<totfact> 0.82504129E+02</totfact>
</mgrwt>
</event>
<event>
 8    1  0.1020295E-005  0.1505517E+03  0.7546771E-02  0.1211693E+00
          2   -1    0    0  501    0  0.00000000000E+00  0.00000000000E+00  0.49979982642E+03  0.49979982642E+03  0.00000000000E+00 0. -1.
         -2   -1    0    0    0  501 -0.00000000000E+00 -0.00000000000E+00 -0.36005110266E+02  0.36005110266E+02  0.00000000000E+00 0.  1.
         23    2    1    2    0    0 -0.82349641222E+02 -0.16132548886E+02  0.23626812946E+03  0.28015789452E+03  0.12499637723E+03 0.  0.
         23    2    1    2    0    0  0.82349641222E+02  0.16132548886E+02  0.22752658670E+03  0.25564704217E+03  0.80903275408E+02 0.  0.
          5    1    3    3  502    0 -0.10709619082E+03 -0.41343363465E+02  0.17846144217E+03  0.21224854330E+03  0.47000000000E+01 0. -1.
         -5    1    3    3    0  502  0.24746549594E+02  0.25210814579E+02  0.57806687286E+02  0.67909351223E+02  0.47000000000E+01 0. -1.
        -11    1    4    4    0    0  0.17575126719E+02 -0.31407368581E+02  0.77900871910E+02  0.85812899524E+02  0.00000000000E+00 0.  1.
         11    1    4    4    0    0  0.64774514503E+02  0.47539917467E+02  0.14962571479E+03  0.16983414265E+03  0.00000000000E+00 0. -1.
<mgrwt>
<rscale>  0 0.14122285E+03</rscale>
<asrwt>0</asrwt>
<pdfrwt beam="1">  1        2 0.76892276E-01 0.15055171E+03</pdfrwt>
<pdfrwt beam="2">  1       -2 0.55392481E-02 0.15055171E+03</pdfrwt>
<totfact> 0.99965845E+03</totfact>
</mgrwt>
</event>
<event>
 8    1  0.1020295E-005  0.1821638E+03  0.7546771E-02  0.1171613E+00
         -1   -1    0    0    0  501 -0.00000000000E+00  0.00000000000E+00  0.28358806675E+02  0.28358806675E+02  0.00000000000E+00 0.  1.
          1   -1    0    0  501    0  0.00000000000E+00 -0.00000000000E+00 -0.10274381426E+04  0.10274381426E+04  0.00000000000E+00 0. -1.
         23    2    1    2    0    0  0.11936136337E+03 -0.57542352025E+02 -0.52271400914E+03  0.55354635987E+03  0.12500151931E+03 0.  0.
         23    2    1    2    0    0 -0.11936136337E+03  0.57542352025E+02 -0.47636532682E+03  0.50225058944E+03  0.88167299259E+02 0.  0.
          5    1    3    3  502    0  0.44782053143E+02  0.32610484637E+02 -0.26061466643E+03  0.26647883659E+03  0.47000000000E+01 0.  1.
         -5    1    3    3    0  502  0.74579310222E+02 -0.90152836663E+02 -0.26209934271E+03  0.28706752328E+03  0.47000000000E+01 0.  1.
        -11    1    4    4    0    0 -0.88785102150E+02  0.61624869592E+02 -0.44621100848E+03  0.45911293056E+03  0.00000000000E+00 0. -1.
         11    1    4    4    0    0 -0.30576261215E+02 -0.40825175670E+01 -0.30154318338E+02  0.43137658885E+02  0.00000000000E+00 0.  1.
<mgrwt>
<rscale>  0 0.17611835E+03</rscale>
<asrwt>0</asrwt>
<pdfrwt beam="2">  1        1 0.15806742E+00 0.18216376E+03</pdfrwt>
<pdfrwt beam="1">  1       -1 0.43628929E-02 0.18216376E+03</pdfrwt>
<totfact> 0.32651965E+03</totfact>
</mgrwt>
</event>
<event>
 8    1  0.1020295E-005  0.1979682E+03  0.7546771E-02  0.1155611E+00
         -2   -1    0    0    0  501 -0.00000000000E+00  0.00000000000E+00  0.43257958105E+03  0.43257958105E+03  0.00000000000E+00 0.  1.
          2   -1    0    0  501    0  0.00000000000E+00 -0.00000000000E+00 -0.83049971312E+02  0.83049971312E+02  0.00000000000E+00 0. -1.
         23    2    1    2    0    0  0.35608417929E+02 -0.14931861537E+03  0.20654243643E+03  0.28609643002E+03  0.12500952324E+03 0.  0.
         23    2    1    2    0    0 -0.35608417929E+02  0.14931861537E+03  0.14298717330E+03  0.22953312233E+03  0.93145661172E+02 0.  0.
          5    1    3    3  502    0  0.43116276145E+02 -0.16780526449E+03  0.19984028817E+03  0.26452948954E+03  0.47000000000E+01 0.  1.
         -5    1    3    3    0  502 -0.75078582164E+01  0.18486649119E+02  0.67021482639E+01  0.21566940488E+02  0.47000000000E+01 0.  1.
        -11    1    4    4    0    0  0.98782959341E+01  0.47868767386E+02  0.60020755075E+00  0.48881078862E+02  0.00000000000E+00 0. -1.
         11    1    4    4    0    0 -0.45486713863E+02  0.10144984799E+03  0.14238696575E+03  0.18065204347E+03  0.00000000000E+00 0.  1.
<mgrwt>
<rscale>  0 0.19319509E+03</rscale>
<asrwt>0</asrwt>
<pdfrwt beam="2">  1        2 0.12776919E-01 0.19796815E+03</pdfrwt>
<pdfrwt beam="1">  1       -2 0.66550704E-01 0.19796815E+03</pdfrwt>
<totfact> 0.99658109E+02</totfact>
</mgrwt>
</event>
<event>
 8    1  0.1020295E-005  0.1312170E+03  0.7546771E-02  0.1234797E+00
         -3   -1    0    0    0  501 -0.00000000000E+00  0.00000000000E+00  0.83285465697E+03  0.83285465697E+03  0.00000000000E+00 0.  1.
          3   -1    0    0  501    0  0.00000000000E+00 -0.00000000000E+00 -0.18059893830E+02  0.18059893830E+02  0.00000000000E+00 0. -1.
         23    2    1    2    0    0 -0.39748280911E+02 -0.15313021220E+01  0.53245103851E+03  0.54838126879E+03  0.12504254009E+03 0.  0.
         23    2    1    2    0    0  0.39748280911E+02  0.15313021220E+01  0.28234372463E+03  0.30253328201E+03  0.10112436483E+03 0.  0.
          5    1    3    3  502    0 -0.10301566518E+02  0.30239960079E+02  0.30099306868E+02  0.44143354338E+02  0.47000000000E+01 0. -1.
         -5    1    3    3    0  502 -0.29446714393E+02 -0.31771262201E+02  0.50235173164E+03  0.50423791446E+03  0.47000000000E+01 0. -1.
        -11    1    4    4    0    0  0.52096717673E+02 -0.16317958033E+02  0.27382983888E+03  0.27921877517E+03  0.00000000000E+00 0.  1.
         11    1    4    4    0    0 -0.12348436762E+02  0.17849260155E+02  0.85138857546E+01  0.23314506840E+02  0.00000000000E+00 0. -1.
<mgrwt>
<rscale>  0 0.12517470E+03</rscale>
<asrwt>0</asrwt>
<pdfrwt beam="2">  1        3 0.27784459E-02 0.13121702E+03</pdfrwt>
<pdfrwt beam="1">  1       -3 0.12813146E+00 0.13121702E+03</pdfrwt>
<totfact> 0.66887314E+02</totfact>
</mgrwt>
</event>
<event>
 8    1  0.1020295E-005  0.1250621E+03  0.7546771E-02  0.1249449E+00
          4   -1    0    0  501    0  0.00000000000E+00  0.00000000000E+00  0.69248635367E+02  0.69248635367E+02  0.00000000000E+00 0. -1.
         -4   -1    0    0    0  501 -0.00000000000E+00 -0.00000000000E+00 -0.17408437287E+03  0.17408437287E+03  0.00000000000E+00 0.  1.
         23    2    1    2    0    0 -0.39970245781E+01 -0.40152390803E+00 -0.72654948156E+02  0.14463494392E+03  0.12499755231E+03 0.  0.
         23    2    1    2    0    0  0.39970245781E+01  0.40152390803E+00 -0.32180789347E+02  0.98698064319E+02  0.93217848454E+02 0.  0.
          5    1    3    3  502    0  0.18675359501E+02  0.39834004212E+02  0.13933860602E+02  0.46387060861E+02  0.47000000000E+01 0. -1.
         -5    1    3    3    0  502 -0.22672384080E+02 -0.40235528120E+02 -0.86588808758E+02  0.98247883057E+02  0.47000000000E+01 0. -1.
        -11    1    4    4    0    0  0.41551946937E+02  0.37045848971E+01  0.91998454572E+01  0.42719145590E+02  0.00000000000E+00 0. -1.
         11    1    4    4    0    0 -0.37554922359E+02 -0.33030609891E+01 -0.41380634804E+02  0.55978918729E+02  0.00000000000E+00 0.  1.
<mgrwt>
<rscale>  0 0.11623040E+03</rscale>
<asrwt>0</asrwt>
<pdfrwt beam="1">  1        4 0.10653636E-01 0.12506209E+03</pdfrwt>
<pdfrwt beam="2">  1       -4 0.26782211E-01 0.12506209E+03</pdfrwt>
<totfact> 0.14514212E+03</totfact>
</mgrwt>
</event>
<event>
 8    1  0.1020295E-005  0.1733832E+03  0.7546771E-02  0.1180292E+00
          2   -1    0    0  501    0  0.00000000000E+00  0.00000000000E+00  0.35025290347E+03  0.35025290347E+03  0.00000000000E+00 0. -1.
         -2   -1    0    0    0  501 -0.00000000000E+00 -0.00000000000E+00 -0.10344431580E+03  0.10344431580E+03  0.00000000000E+00 0.  1.
         23    2    1    2    0    0 -0.27514896366E+02 -0.11695854804E+03  0.11520484005E+02  0.17376551537E+03  0.12500144519E+03 0.  0.
         23    2    1    2    0    0  0.27514896366E+02  0.11695854804E+03  0.23528810366E+03  0.27993170389E+03  0.92546721384E+02 0.  0.
          5    1    3    3  502    0  0.16591402697E+02 -0.12599536407E+03  0.47768720842E+00  0.12717084806E+03  0.47000000000E+01 0. -1.
         -5    1    3    3    0  502 -0.44106299063E+02  0.90368160304E+01  0.11042796797E+02  0.46594667314E+02  0.47000000000E+01 0. -1.
        -11    1    4    4    0    0 -0.75757682948E+01  0.37701284370E+02  0.11801662804E+02  0.40225096064E+02  0.00000000000E+00 0.  1.
         11    1    4    4    0    0  0.35090664661E+02  0.79257263672E+02  0.22348644086E+03  0.23970660783E+03  0.00000000000E+00 0. -1.
<mgrwt>
<rscale>  0 0.16767728E+03</rscale>
<asrwt>0</asrwt>
<pdfrwt beam="1">  1        2 0.53885062E-01 0.17338320E+03</pdfrwt>
<pdfrwt beam="2">  1       -2 0.15914510E-01 0.17338320E+03</pdfrwt>
<totfact> 0.28089291E+03</totfact>
</mgrwt>
</event>
<event>
 8    1  0.1020295E-005  0.1351226E+03  0.7546771E-02  0.1232507E+00
          1   -1    0    0  501    0  0.00000000000E+00  0.00000000000E+00  0.19260935658E+03  0.19260935658E+03  0.00000000000E+00 0. -1.
         -1   -1    0    0    0  501 -0.00000000000E+00 -0.00000000000E+00 -0.78731097242E+02  0.78731097242E+02  0.00000000000E+00 0.  1.
         23    2    1    2    0    0 -0.53298614547E+01 -0.51046410534E+02  0.95419834086E+02  0.16541782156E+03  0.12499586994E+03 0.  0.
         23    2    1    2    0    0  0.53298614547E+01  0.51046410534E+02  0.18458425251E+02  0.10592263226E+03  0.90800589815E+02 0.  0.
          5    1    3    3  502    0  0.33724105238E+02 -0.49592535931E+02 -0.21625176538E+01  0.60195526219E+02  0.47000000000E+01 0. -1.
         -5    1    3    3    0  502 -0.39053966692E+02 -0.14538746035E+01  0.97582351740E+02  0.10522229534E+03  0.47000000000E+01 0. -1.
        -11    1    4    4    0    0  0.25650279139E+02  0.93643565269E+01  0.44893270355E+02  0.52545539451E+02  0.00000000000E+00 0. -1.
         11    1    4    4    0    0 -0.20320417685E+02  0.41682054008E+02 -0.26434845103E+02  0.53377092810E+02  0.00000000000E+00 0.  1.
<mgrwt>
<rscale>  0 0.12665403E+03</rscale>
<asrwt>0</asrwt>
<pdfrwt beam="1">  1        1 0.29632209E-01 0.13512258E+03</pdfrwt>
<pdfrwt beam="2">  1       -1 0.12112477E-01 0.13512258E+03</pdfrwt>
<totfact> 0.66008533E+03</totfact>
</mgrwt>
</event>
<event>
 8    1  0.1020295E-005  0.1301238E+03  0.7546771E-02  0.1238040E+00
         -1   -1    0    0    0  501 -0.00000000000E+00  0.00000000000E+00  0.24526862132E+03  0.24526862132E+03  0.00000000000E+00 0.  1.
          1   -1    0    0  501    0  0.00000000000E+00 -0.00000000000E+00 -0.75728010510E+02  0.75728010510E+02  0.00000000000E+00 0. -1.
         23    2    1    2    0    0 -0.63029804093E+01  0.35625651661E+02  0.17321786759E+03  0.21664864772E+03  0.12499316895E+03 0.  0.
         23    2    1    2    0    0  0.63029804093E+01 -0.35625651661E+02 -0.36772567802E+01  0.10434798412E+03  0.97806262345E+02 0.  0.
          5    1    3    3  502    0 -0.24682893877E+02  0.70847709822E+02  0.15585670879E+03  0.17303770373E+03  0.47000000000E+01 0.  1.
         -5    1    3    3    0  502  0.18379913468E+02 -0.35222058161E+02  0.17361158801E+02  0.43610943983E+02  0.47000000000E+01 0.  1.
        -11    1    4    4    0    0  0.41226211895E+02 -0.17169409679E+01  0.24614959893E+02  0.48046276485E+02  0.00000000000E+00 0.  1.
         11    1    4    4    0    0 -0.34923231485E+02 -0.33908710693E+02 -0.28292216674E+02  0.56301707635E+02  0.00000000000E+00 0. -1.
<mgrwt>
<rscale>  0 0.12311788E+03</rscale>
<asrwt>0</asrwt>
<pdfrwt beam="2">  1        1 0.11650463E-01 0.13012381E+03</pdfrwt>
<pdfrwt beam="1">  1       -1 0.37733634E-01 0.13012381E+03</pdfrwt>
<totfact> 0.34311326E+03</totfact>
</mgrwt>
</event>
<event>
 8    1  0.1020295E-005  0.1999692E+03  0.7546771E-02  0.1152992E+00
          2   -1    0    0  501    0  0.00000000000E+00  0.00000000000E+00  0.71309665290E+03  0.71309665290E+03  0.00000000000E+00 0.  1.
         -2   -1    0    0    0  501 -0.00000000000E+00 -0.00000000000E+00 -0.52051410836E+02  0.52051410836E+02  0.00000000000E+00 0. -1.
         23    2    1    2    0    0 -0.14368473375E+03  0.60973347939E+02  0.35019199385E+03  0.40326432734E+03  0.12499853310E+03 0.  0.
         23    2    1    2    0    0  0.14368473375E+03 -0.60973347939E+02  0.31085324822E+03  0.36188373640E+03  0.99835088369E+02 0.  0.
          5    1    3    3  502    0 -0.34182053155E+02 -0.10691755974E+02  0.81770482537E+01  0.37036205554E+02  0.47000000000E+01 0. -1.
         -5    1    3    3    0  502 -0.10950268060E+03  0.71665103913E+02  0.34201494560E+03  0.36622812179E+03  0.47000000000E+01 0. -1.
        -11    1    4    4    0    0 -0.84044121480E+01  0.10662223023E+02  0.47863987731E+02  0.49752170454E+02  0.00000000000E+00 0.  1.
         11    1    4    4    0    0  0.15208914590E+03 -0.71635570961E+02  0.26298926049E+03  0.31213156594E+03  0.00000000000E+00 0. -1.
<mgrwt>
<rscale>  0 0.19619220E+03</rscale>
<asrwt>0</asrwt>
<pdfrwt beam="1">  1        2 0.10970717E+00 0.19996921E+03</pdfrwt>
<pdfrwt beam="2">  1       -2 0.80079098E-02 0.19996921E+03</pdfrwt>
<totfact> 0.38237440E+03</totfact>
</mgrwt>
</event>
<event>
 7    1  0.1020295E-005  0.1677570E+03  0.7546771E-02  0.1210675E+00
         -2   -1    0    0    0  501 -0.00000000000E+00  0.00000000000E+00  0.29572214541E+02  0.29572214541E+02  0.00000000000E+00 0.  1.
          2   -1    0    0  501    0  0.00000000000E+00 -0.00000000000E+00 -0.54675590874E+03  0.54675590874E+03  0.00000000000E+00 0. -1.
         23    2    1    2    0    0  0.11286891226E+01 -0.75470375665E+00 -0.15936074280E+03  0.18113237534E+03  0.86088602809E+02 0.  0.
          5    1    1    2  502    0  0.23943896064E+02 -0.65559497791E+02 -0.28497679962E+03  0.29343691696E+03  0.47000000000E+01 0. -1.
         -5    1    1    2    0  502 -0.25072585187E+02  0.66314201548E+02 -0.72846151779E+02  0.10175883099E+03  0.47000000000E+01 0.  1.
        -11    1    3    3    0    0  0.34695345528E+02  0.11655277362E+02 -0.31280794161E+02  0.48146656946E+02  0.00000000000E+00 0. -1.
         11    1    3    3    0    0 -0.33566656406E+02 -0.12409981118E+02 -0.12807994864E+03  0.13298571839E+03  0.00000000000E+00 0.  1.
<mgrwt>
<rscale>  0 0.14199087E+03</rscale>
<asrwt>0</asrwt>
<pdfrwt beam="2">  1        2 0.84116295E-01 0.16775701E+03</pdfrwt>
<pdfrwt beam="1">  1       -2 0.45495714E-02 0.16775701E+03</pdfrwt>
<totfact> 0.12259526E+04</totfact>
</mgrwt>
</event>
<event>
 8    1  0.1020295E-005  0.1289834E+03  0.7546771E-02  0.1242415E+00
          2   -1    0    0  501    0  0.00000000000E+00  0.00000000000E+00  0.29041770245E+03  0.29041770245E+03  0.00000000000E+00 0.  1.
         -2   -1    0    0    0  501 -0.00000000000E+00 -0.00000000000E+00 -0.46347092844E+02  0.46347092844E+02  0.00000000000E+00 0. -1.
         23    2    1    2    0    0  0.16448215453E+02  0.27232417377E+02  0.10327267218E+03  0.16523306280E+03  0.12499828749E+03 0.  0.
         23    2    1    2    0    0 -0.16448215453E+02 -0.27232417377E+02  0.14079793742E+03  0.17153173249E+03  0.92665677149E+02 0.  0.
          5    1    3    3  502    0  0.58794524474E+02 -0.19574266591E+02  0.70421281528E+02  0.93921216521E+02  0.47000000000E+01 0.  1.
         -5    1    3    3    0  502 -0.42346309021E+02  0.46806683968E+02  0.32851390653E+02  0.71311846278E+02  0.47000000000E+01 0.  1.
        -11    1    4    4    0    0 -0.25440137306E+02  0.15056349295E+02  0.11993964439E+03  0.12352899472E+03  0.00000000000E+00 0.  1.
         11    1    4    4    0    0  0.89919218531E+01 -0.42288766673E+02  0.20858293031E+02  0.48002737771E+02  0.00000000000E+00 0. -1.
<mgrwt>
<rscale>  0 0.12041458E+03</rscale>
<asrwt>0</asrwt>
<pdfrwt beam="1">  1        2 0.44679645E-01 0.12898341E+03</pdfrwt>
<pdfrwt beam="2">  1       -2 0.71303222E-02 0.12898341E+03</pdfrwt>
<totfact> 0.12040346E+04</totfact>
</mgrwt>
</event>
<event>
 8    1  0.1020295E-005  0.1327835E+03  0.7546771E-02  0.1237380E+00
          2   -1    0    0  501    0  0.00000000000E+00  0.00000000000E+00  0.29095389786E+03  0.29095389786E+03  0.00000000000E+00 0. -1.
         -2   -1    0    0    0  501 -0.00000000000E+00 -0.00000000000E+00 -0.46664706565E+02  0.46664706565E+02  0.00000000000E+00 0.  1.
         23    2    1    2    0    0  0.19671267823E+02 -0.40241359649E+02  0.12581053676E+03  0.18292008462E+03  0.12500056158E+03 0.  0.
         23    2    1    2    0    0 -0.19671267823E+02  0.40241359649E+02  0.11847865454E+03  0.15469851980E+03  0.88815058654E+02 0.  0.
          5    1    3    3  502    0 -0.29515646310E+02 -0.65763407033E+02  0.45981637466E+02  0.85629434575E+02  0.47000000000E+01 0.  1.
         -5    1    3    3    0  502  0.49186914133E+02  0.25522047383E+02  0.79828899292E+02  0.97290650048E+02  0.47000000000E+01 0.  1.
        -11    1    4    4    0    0  0.96654991912E+01  0.50440490145E+02  0.26859028536E+02  0.57957504558E+02  0.00000000000E+00 0. -1.
         11    1    4    4    0    0 -0.29336767014E+02 -0.10199130496E+02  0.91619626002E+02  0.96741015244E+02  0.00000000000E+00 0.  1.
<mgrwt>
<rscale>  0 0.12353274E+03</rscale>
<asrwt>0</asrwt>
<pdfrwt beam="1">  1        2 0.44762137E-01 0.13278353E+03</pdfrwt>
<pdfrwt beam="2">  1       -2 0.71791858E-02 0.13278353E+03</pdfrwt>
<totfact> 0.11920117E+04</totfact>
</mgrwt>
</event>
<event>
 8    1  0.1020295E-005  0.1330795E+03  0.7546771E-02  0.1235346E+00
          1   -1    0    0  501    0  0.00000000000E+00  0.00000000000E+00  0.43435444185E+02  0.43435444185E+02  0.00000000000E+00 0. -1.
         -1   -1    0    0    0  501 -0.00000000000E+00 -0.00000000000E+00 -0.32214641088E+03  0.32214641088E+03  0.00000000000E+00 0.  1.
         23    2    1    2    0    0 -0.27744092722E+02  0.36282011757E+02 -0.16878794078E+03  0.21494071668E+03  0.12499609465E+03 0.  0.
         23    2    1    2    0    0  0.27744092722E+02 -0.36282011757E+02 -0.10992302591E+03  0.15064113838E+03  0.92323138424E+02 0.  0.
          5    1    3    3  502    0 -0.36566038778E+02 -0.11429943834E+02  0.67680217578E+00  0.38603974784E+02  0.47000000000E+01 0. -1.
         -5    1    3    3    0  502  0.88219460564E+01  0.47711955591E+02 -0.16946474295E+03  0.17633674190E+03  0.47000000000E+01 0. -1.
        -11    1    4    4    0    0  0.42858612434E+02 -0.32135889619E+02 -0.12040667201E+03  0.13178521437E+03  0.00000000000E+00 0.  1.
         11    1    4    4    0    0 -0.15114519713E+02 -0.41461221383E+01  0.10483646096E+02  0.18855924013E+02  0.00000000000E+00 0. -1.
<mgrwt>
<rscale>  0 0.12482342E+03</rscale>
<asrwt>0</asrwt>
<pdfrwt beam="1">  1        1 0.66823760E-02 0.13307946E+03</pdfrwt>
<pdfrwt beam="2">  1       -1 0.49560986E-01 0.13307946E+03</pdfrwt>
<totfact> 0.44413503E+03</totfact>
</mgrwt>
</event>
<event>
 8    1  0.1020295E-005  0.1534890E+03  0.7546771E-02  0.1204759E+00
          2   -1    0    0  501    0  0.00000000000E+00  0.00000000000E+00  0.24953183844E+02  0.24953183844E+02  0.00000000000E+00 0. -1.
         -2   -1    0    0    0  501 -0.00000000000E+00 -0.00000000000E+00 -0.79278517306E+03  0.79278517306E+03  0.00000000000E+00 0.  1.
         23    2    1    2    0    0 -0.26795802431E+01  0.89031712234E+02 -0.40381122716E+03  0.43199813570E+03  0.12500022453E+03 0.  0.
         23    2    1    2    0    0  0.26795802431E+01 -0.89031712234E+02 -0.36402076205E+03  0.38574022120E+03  0.91381492195E+02 0.  0.
          5    1    3    3  502    0  0.19170609322E+02  0.74312304789E+02 -0.95860432476E+02  0.12288670969E+03  0.47000000000E+01 0.  1.
         -5    1    3    3    0  502 -0.21850189565E+02  0.14719407445E+02 -0.30795079468E+03  0.30911142600E+03  0.47000000000E+01 0.  1.
        -11    1    4    4    0    0 -0.22718353488E+02 -0.93385467112E+02 -0.32552181478E+03  0.33941334822E+03  0.00000000000E+00 0.  1.
         11    1    4    4    0    0  0.25397933731E+02  0.43537548779E+01 -0.38498947275E+02  0.46326872986E+02  0.00000000000E+00 0. -1.
<mgrwt>
<rscale>  0 0.14656473E+03</rscale>
<asrwt>0</asrwt>
<pdfrwt beam="1">  1        2 0.38389515E-02 0.15348903E+03</pdfrwt>
<pdfrwt beam="2">  1       -2 0.12196695E+00 0.15348903E+03</pdfrwt>
<totfact> 0.11639623E+03</totfact>
</mgrwt>
</event>
<event>
 8    1  0.1020295E-005  0.1339516E+03  0.7546771E-02  0.1234561E+00
          1   -1    0    0  501    0  0.00000000000E+00  0.00000000000E+00  0.15475526933E+03  0.15475526933E+03  0.00000000000E+00 0. -1.
         -1   -1    0    0    0  501 -0.00000000000E+00 -0.00000000000E+00 -0.90963984202E+02  0.90963984202E+02  0.00000000000E+00 0.  1.
         23    2    1    2    0    0  0.48096112473E+02 -0.21994587987E+01  0.26722973591E+02  0.13659122108E+03  0.12499988282E+03 0.  0.
         23    2    1    2    0    0 -0.48096112473E+02  0.21994587987E+01  0.37068311539E+02  0.10912803245E+03  0.90646533813E+02 0.  0.
          5    1    3    3  502    0  0.38531376411E+02 -0.30106761484E+01  0.76415568526E+02  0.85762230919E+02  0.47000000000E+01 0. -1.
         -5    1    3    3    0  502  0.95647360620E+01  0.81121734966E+00 -0.49692594936E+02  0.50828990163E+02  0.47000000000E+01 0. -1.
        -11    1    4    4    0    0 -0.13136715489E+02  0.18159956583E+02 -0.26585496408E+02  0.34772775790E+02  0.00000000000E+00 0.  1.
         11    1    4    4    0    0 -0.34959396984E+02 -0.15960497784E+02  0.63653807947E+02  0.74355256661E+02  0.00000000000E+00 0. -1.
<mgrwt>
<rscale>  0 0.12532557E+03</rscale>
<asrwt>0</asrwt>
<pdfrwt beam="1">  1        1 0.23808503E-01 0.13395165E+03</pdfrwt>
<pdfrwt beam="2">  1       -1 0.13994459E-01 0.13395165E+03</pdfrwt>
<totfact> 0.69331688E+03</totfact>
</mgrwt>
</event>
<event>
 8    1  0.1020295E-005  0.1438351E+03  0.7546771E-02  0.1218272E+00
          2   -1    0    0  501    0  0.00000000000E+00  0.00000000000E+00  0.18760907898E+03  0.18760907898E+03  0.00000000000E+00 0. -1.
         -2   -1    0    0    0  501 -0.00000000000E+00 -0.00000000000E+00 -0.90328141071E+02  0.90328141071E+02  0.00000000000E+00 0.  1.
         23    2    1    2    0    0  0.55975921943E+02  0.43933859784E+02  0.59656188762E+02  0.15571578831E+03  0.12500023200E+03 0.  0.
         23    2    1    2    0    0 -0.55975921943E+02 -0.43933859784E+02  0.37624749143E+02  0.12222143174E+03  0.91972652210E+02 0.  0.
          5    1    3    3  502    0  0.59344673938E+01  0.76632218776E+02  0.95897497273E+01  0.77600052562E+02  0.47000000000E+01 0. -1.
         -5    1    3    3    0  502  0.50041454549E+02 -0.32698358992E+02  0.50066439034E+02  0.78115735750E+02  0.47000000000E+01 0. -1.
        -11    1    4    4    0    0 -0.71233136430E+02 -0.49944666327E+02  0.67467071853E+01  0.87259082496E+02  0.00000000000E+00 0.  1.
         11    1    4    4    0    0  0.15257214487E+02  0.60108065429E+01  0.30878041958E+02  0.34962349239E+02  0.00000000000E+00 0. -1.
<mgrwt>
<rscale>  0 0.13638942E+03</rscale>
<asrwt>0</asrwt>
<pdfrwt beam="1">  1        2 0.28862935E-01 0.14383513E+03</pdfrwt>
<pdfrwt beam="2">  1       -2 0.13896637E-01 0.14383513E+03</pdfrwt>
<totfact> 0.67849428E+03</totfact>
</mgrwt>
</event>
<event>
 8    1  0.1020295E-005  0.1298434E+03  0.7546771E-02  0.1243566E+00
          1   -1    0    0  501    0  0.00000000000E+00  0.00000000000E+00  0.40630752096E+02  0.40630752096E+02  0.00000000000E+00 0. -1.
         -1   -1    0    0    0  501 -0.00000000000E+00 -0.00000000000E+00 -0.30806753782E+03  0.30806753782E+03  0.00000000000E+00 0.  1.
         23    2    1    2    0    0 -0.34614615530E+02  0.59149288597E+01 -0.15056034333E+03  0.19881577949E+03  0.12500455672E+03 0.  0.
         23    2    1    2    0    0  0.34614615530E+02 -0.59149288597E+01 -0.11687644240E+03  0.14988251043E+03  0.87014401983E+02 0.  0.
          5    1    3    3  502    0 -0.41000630172E+02 -0.54681027685E+02 -0.73729774548E+02  0.10064410623E+03  0.47000000000E+01 0. -1.
         -5    1    3    3    0  502  0.63860146412E+01  0.60595956545E+02 -0.76830568778E+02  0.98171673264E+02  0.47000000000E+01 0. -1.
        -11    1    4    4    0    0 -0.13645380383E+02  0.30365555849E+02 -0.45868769968E+02  0.56676339385E+02  0.00000000000E+00 0. -1.
         11    1    4    4    0    0  0.48259995913E+02 -0.36280484708E+02 -0.71007672433E+02  0.93206171044E+02  0.00000000000E+00 0.  1.
<mgrwt>
<rscale>  0 0.11971647E+03</rscale>
<asrwt>0</asrwt>
<pdfrwt beam="1">  1        1 0.62508851E-02 0.12984336E+03</pdfrwt>
<pdfrwt beam="2">  1       -1 0.47395005E-01 0.12984336E+03</pdfrwt>
<totfact> 0.52622469E+03</totfact>
</mgrwt>
</event>
<event>
 8    1  0.1020295E-005  0.3064126E+03  0.7546771E-02  0.1084050E+00
         -1   -1    0    0    0  501 -0.00000000000E+00  0.00000000000E+00  0.20245981570E+04  0.20245981570E+04  0.00000000000E+00 0.  1.
          1   -1    0    0  501    0  0.00000000000E+00 -0.00000000000E+00 -0.86425613041E+02  0.86425613041E+02  0.00000000000E+00 0. -1.
         23    2    1    2    0    0 -0.16741409512E+03 -0.22413232220E+03  0.17213395258E+04  0.17483988188E+04  0.12500355802E+03 0.  0.
         23    2    1    2    0    0  0.16741409512E+03  0.22413232220E+03  0.21683301817E+03  0.36262495122E+03  0.78851254803E+02 0.  0.
          5    1    3    3  502    0 -0.13953426634E+03 -0.17800001476E+03  0.10109455885E+04  0.10359473392E+04  0.47000000000E+01 0. -1.
         -5    1    3    3    0  502 -0.27879828773E+02 -0.46132307434E+02  0.71039393734E+03  0.71245147965E+03  0.47000000000E+01 0. -1.
        -11    1    4    4    0    0  0.81860953673E+02  0.15115097472E+03  0.16688095166E+03  0.23957688729E+03  0.00000000000E+00 0.  1.
         11    1    4    4    0    0  0.85553141443E+02  0.72981347471E+02  0.49952066518E+02  0.12304806394E+03  0.00000000000E+00 0. -1.
<mgrwt>
<rscale>  0 0.30239483E+03</rscale>
<asrwt>0</asrwt>
<pdfrwt beam="2">  1        1 0.13296250E-01 0.30641258E+03</pdfrwt>
<pdfrwt beam="1">  1       -1 0.31147660E+00 0.30641258E+03</pdfrwt>
<totfact> 0.14211860E+01</totfact>
</mgrwt>
</event>
<event>
 8    1  0.1020295E-005  0.1392722E+03  0.7546771E-02  0.1224716E+00
         -2   -1    0    0    0  501 -0.00000000000E+00  0.00000000000E+00  0.27873897932E+02  0.27873897932E+02  0.00000000000E+00 0.  1.
          2   -1    0    0  501    0  0.00000000000E+00 -0.00000000000E+00 -0.56636255361E+03  0.56636255361E+03  0.00000000000E+00 0. -1.
         23    2    1    2    0    0  0.53768456321E+02 -0.29622955061E+02 -0.29031680312E+03  0.32199472122E+03  0.12501275118E+03 0.  0.
         23    2    1    2    0    0 -0.53768456321E+02  0.29622955061E+02 -0.24817185256E+03  0.27224173032E+03  0.93582717240E+02 0.  0.
          5    1    3    3  502    0  0.17485558038E+02 -0.18119614540E+02  0.33504833588E+01  0.25833716529E+02  0.47000000000E+01 0.  1.
         -5    1    3    3    0  502  0.36282898282E+02 -0.11503340521E+02 -0.29366728648E+03  0.29616100469E+03  0.47000000000E+01 0.  1.
        -11    1    4    4    0    0 -0.66537243487E+02 -0.24086942796E+01 -0.21224902359E+03  0.22244697030E+03  0.00000000000E+00 0. -1.
         11    1    4    4    0    0  0.12768787166E+02  0.32031649340E+02 -0.35922828967E+02  0.49794760027E+02  0.00000000000E+00 0.  1.
<mgrwt>
<rscale>  0 0.13186399E+03</rscale>
<asrwt>0</asrwt>
<pdfrwt beam="2">  1        2 0.87132699E-01 0.13927223E+03</pdfrwt>
<pdfrwt beam="1">  1       -2 0.42882921E-02 0.13927223E+03</pdfrwt>
<totfact> 0.12708275E+04</totfact>
</mgrwt>
</event>
<event>
 8    1  0.1020295E-005  0.2265306E+03  0.7546771E-02  0.1132120E+00
         -2   -1    0    0    0  501 -0.00000000000E+00  0.00000000000E+00  0.40181748698E+02  0.40181748698E+02  0.00000000000E+00 0.  1.
          2   -1    0    0  501    0  0.00000000000E+00 -0.00000000000E+00 -0.12407493591E+04  0.12407493591E+04  0.00000000000E+00 0. -1.
         23    2    1    2    0    0  0.30146376314E+01 -0.18889581220E+03 -0.48917102833E+03  0.53907736826E+03  0.12500159244E+03 0.  0.
         23    2    1    2    0    0 -0.30146376314E+01  0.18889581220E+03 -0.71139658209E+03  0.74185373955E+03  0.92580548537E+02 0.  0.
          5    1    3    3  502    0  0.15263264959E+02 -0.65793017165E+02 -0.53887803477E+02  0.86531345352E+02  0.47000000000E+01 0. -1.
         -5    1    3    3    0  502 -0.12248627327E+02 -0.12310279504E+03 -0.43528322485E+03  0.45254602291E+03  0.47000000000E+01 0. -1.
        -11    1    4    4    0    0  0.96741860912E+01  0.18845140366E+03 -0.69931841319E+03  0.72432987267E+03  0.00000000000E+00 0. -1.
         11    1    4    4    0    0 -0.12688823723E+02  0.44440854333E+00 -0.12078168901E+02  0.17523866880E+02  0.00000000000E+00 0.  1.
<mgrwt>
<rscale>  0 0.22238162E+03</rscale>
<asrwt>0</asrwt>
<pdfrwt beam="2">  1        2 0.19088455E+00 0.22653060E+03</pdfrwt>
<pdfrwt beam="1">  1       -2 0.61818063E-02 0.22653060E+03</pdfrwt>
<totfact> 0.26723601E+03</totfact>
</mgrwt>
</event>
<event>
 8    1  0.1020295E-005  0.1261350E+03  0.7546771E-02  0.1249122E+00
         -2   -1    0    0    0  501 -0.00000000000E+00  0.00000000000E+00  0.31801613325E+02  0.31801613325E+02  0.00000000000E+00 0.  1.
          2   -1    0    0  501    0  0.00000000000E+00 -0.00000000000E+00 -0.42992399054E+03  0.42992399054E+03  0.00000000000E+00 0. -1.
         23    2    1    2    0    0  0.16831285107E+02  0.15710396100E+01 -0.14301325619E+03  0.19069038881E+03  0.12499709043E+03 0.  0.
         23    2    1    2    0    0 -0.16831285107E+02 -0.15710396100E+01 -0.25510912103E+03  0.27103521505E+03  0.89964792246E+02 0.  0.
          5    1    3    3  502    0 -0.33461545514E+02  0.47252769501E+01 -0.13525118046E+03  0.13948826147E+03  0.47000000000E+01 0. -1.
         -5    1    3    3    0  502  0.50292830622E+02 -0.31542373400E+01 -0.77620757263E+01  0.51202127346E+02  0.47000000000E+01 0. -1.
        -11    1    4    4    0    0  0.13002319291E+02  0.35555225523E+02 -0.66655822508E+02  0.76656591649E+02  0.00000000000E+00 0.  1.
         11    1    4    4    0    0 -0.29833604398E+02 -0.37126265133E+02 -0.18845329852E+03  0.19437862341E+03  0.00000000000E+00 0. -1.
<mgrwt>
<rscale>  0 0.11642022E+03</rscale>
<asrwt>0</asrwt>
<pdfrwt beam="2">  1        2 0.66142149E-01 0.12613498E+03</pdfrwt>
<pdfrwt beam="1">  1       -2 0.48925562E-02 0.12613498E+03</pdfrwt>
<totfact> 0.14009500E+04</totfact>
</mgrwt>
</event>
<event>
 8    1  0.1020295E-005  0.1256803E+03  0.7546771E-02  0.1248283E+00
          1   -1    0    0  501    0  0.00000000000E+00  0.00000000000E+00  0.23777855221E+03  0.23777855221E+03  0.00000000000E+00 0. -1.
         -1   -1    0    0    0  501 -0.00000000000E+00 -0.00000000000E+00 -0.60097878960E+02  0.60097878960E+02  0.00000000000E+00 0.  1.
         23    2    1    2    0    0  0.11714410884E+02 -0.57732840058E+01  0.41519645664E+02  0.13236097545E+03  0.12499995446E+03 0.  0.
         23    2    1    2    0    0 -0.11714410884E+02  0.57732840058E+01  0.13616102759E+03  0.16551545572E+03  0.93193253075E+02 0.  0.
          5    1    3    3  502    0  0.22021467551E+02  0.99792902511E+01  0.82994495575E+02  0.86571979085E+02  0.47000000000E+01 0. -1.
         -5    1    3    3    0  502 -0.10307056667E+02 -0.15752574257E+02 -0.41474849911E+02  0.45788996363E+02  0.47000000000E+01 0. -1.
        -11    1    4    4    0    0 -0.41540881830E+02 -0.19455757019E+02  0.36989833573E+02  0.58927235911E+02  0.00000000000E+00 0.  1.
         11    1    4    4    0    0  0.29826470946E+02  0.25229041025E+02  0.99171194015E+02  0.10658821981E+03  0.00000000000E+00 0. -1.
<mgrwt>
<rscale>  0 0.11691019E+03</rscale>
<asrwt>0</asrwt>
<pdfrwt beam="1">  1        1 0.36581315E-01 0.12568034E+03</pdfrwt>
<pdfrwt beam="2">  1       -1 0.92458276E-02 0.12568034E+03</pdfrwt>
<totfact> 0.76463688E+03</totfact>
</mgrwt>
</event>
<event>
 8    1  0.1020295E-005  0.1944343E+03  0.7546771E-02  0.1159646E+00
         -2   -1    0    0    0  501 -0.00000000000E+00  0.00000000000E+00  0.62075689339E+02  0.62075689339E+02  0.00000000000E+00 0.  1.
          2   -1    0    0  501    0  0.00000000000E+00 -0.00000000000E+00 -0.66210546301E+03  0.66210546301E+03  0.00000000000E+00 0. -1.
         23    2    1    2    0    0 -0.51923132660E+02 -0.13958108653E+03 -0.16082347212E+03  0.25232696737E+03  0.12500327137E+03 0.  0.
         23    2    1    2    0    0  0.51923132660E+02  0.13958108653E+03 -0.43920630154E+03  0.47185418497E+03  0.86978762575E+02 0.  0.
          5    1    3    3  502    0 -0.79451956684E+02 -0.14414959182E+03 -0.14743028295E+03  0.22101922218E+03  0.47000000000E+01 0.  1.
         -5    1    3    3    0  502  0.27528824024E+02  0.45685052867E+01 -0.13393189175E+02  0.31307745192E+02  0.47000000000E+01 0.  1.
        -11    1    4    4    0    0 -0.12204257065E+02  0.25163549799E+02 -0.25476901911E+02  0.37831477106E+02  0.00000000000E+00 0.  1.
         11    1    4    4    0    0  0.64127389725E+02  0.11441753673E+03 -0.41372939963E+03  0.43402270787E+03  0.00000000000E+00 0. -1.
<mgrwt>
<rscale>  0 0.18869265E+03</rscale>
<asrwt>0</asrwt>
<pdfrwt beam="2">  1        2 0.10186238E+00 0.19443433E+03</pdfrwt>
<pdfrwt beam="1">  1       -2 0.95501059E-02 0.19443433E+03</pdfrwt>
<totfact> 0.31679125E+03</totfact>
</mgrwt>
</event>
<event>
 8    1  0.1020295E-005  0.1270892E+03  0.7546771E-02  0.1246719E+00
         -1   -1    0    0    0  501 -0.00000000000E+00  0.00000000000E+00  0.13606990267E+02  0.13606990267E+02  0.00000000000E+00 0.  1.
          1   -1    0    0  501    0  0.00000000000E+00 -0.00000000000E+00 -0.92216238268E+03  0.92216238268E+03  0.00000000000E+00 0. -1.
         23    2    1    2    0    0  0.26844843028E+01  0.22806402384E+02 -0.44473289745E+03  0.46253543082E+03  0.12499734493E+03 0.  0.
         23    2    1    2    0    0 -0.26844843028E+01 -0.22806402384E+02 -0.46382249496E+03  0.47323394213E+03  0.91058874950E+02 0.  0.
          5    1    3    3  502    0  0.64310205077E+01  0.25748446191E+02 -0.45191549977E+03  0.45271851015E+03  0.47000000000E+01 0. -1.
         -5    1    3    3    0  502 -0.37465362049E+01 -0.29420438073E+01  0.71826023149E+01  0.98169206634E+01  0.47000000000E+01 0. -1.
        -11    1    4    4    0    0 -0.38845689942E+01 -0.58217700480E+02 -0.30054079741E+03  0.30615218672E+03  0.00000000000E+00 0. -1.
         11    1    4    4    0    0  0.12000846914E+01  0.35411298096E+02 -0.16328169755E+03  0.16708175541E+03  0.00000000000E+00 0.  1.
<mgrwt>
<rscale>  0 0.11783094E+03</rscale>
<asrwt>0</asrwt>
<pdfrwt beam="2">  1        1 0.14187110E+00 0.12708924E+03</pdfrwt>
<pdfrwt beam="1">  1       -1 0.20933836E-02 0.12708924E+03</pdfrwt>
<totfact> 0.11258745E+04</totfact>
</mgrwt>
</event>
<event>
 8    1  0.1020295E-005  0.1344366E+03  0.7546771E-02  0.1234769E+00
         -1   -1    0    0    0  501 -0.00000000000E+00  0.00000000000E+00  0.27767053071E+02  0.27767053071E+02  0.00000000000E+00 0.  1.
          1   -1    0    0  501    0  0.00000000000E+00 -0.00000000000E+00 -0.54326123722E+03  0.54326123722E+03  0.00000000000E+00 0. -1.
         23    2    1    2    0    0  0.43455348366E+02 -0.23693155802E+02 -0.21099708828E+03  0.25018585117E+03  0.12499382356E+03 0.  0.
         23    2    1    2    0    0 -0.43455348366E+02  0.23693155802E+02 -0.30449709587E+03  0.32084243912E+03  0.88156998687E+02 0.  0.
          5    1    3    3  502    0 -0.39928703188E+02 -0.14151368208E+02 -0.35023830769E+02  0.55166305678E+02  0.47000000000E+01 0. -1.
         -5    1    3    3    0  502  0.83384051553E+02 -0.95417875943E+01 -0.17597325751E+03  0.19501954549E+03  0.47000000000E+01 0. -1.
        -11    1    4    4    0    0 -0.55447732124E+02  0.46020026027E+02 -0.18188674379E+03  0.19564018340E+03  0.00000000000E+00 0.  1.
         11    1    4    4    0    0  0.11992383759E+02 -0.22326870225E+02 -0.12261035208E+03  0.12520225573E+03  0.00000000000E+00 0. -1.
<mgrwt>
<rscale>  0 0.12519206E+03</rscale>
<asrwt>0</asrwt>
<pdfrwt beam="2">  1        1 0.83578657E-01 0.13443656E+03</pdfrwt>
<pdfrwt beam="1">  1       -1 0.42718541E-02 0.13443656E+03</pdfrwt>
<totfact> 0.85952904E+03</totfact>
</mgrwt>
</event>
<event>
 8    1  0.1020295E-005  0.2130481E+03  0.7546771E-02  0.1145205E+00
         -1   -1    0    0    0  501 -0.00000000000E+00  0.00000000000E+00  0.45430093379E+03  0.45430093379E+03  0.00000000000E+00 0. -1.
          1   -1    0    0  501    0  0.00000000000E+00 -0.00000000000E+00 -0.87182412168E+02  0.87182412168E+02  0.00000000000E+00 0.  1.
         23    2    1    2    0    0  0.12816649309E+03 -0.11546981670E+03  0.21245502664E+03  0.30087644899E+03  0.12501828145E+03 0.  0.
         23    2    1    2    0    0 -0.12816649309E+03  0.11546981670E+03  0.15466349498E+03  0.24060689696E+03  0.64891861327E+02 0.  0.
          5    1    3    3  502    0  0.71250629489E+02 -0.73683770761E+02  0.32695016664E+02  0.10768938848E+03  0.47000000000E+01 0. -1.
         -5    1    3    3    0  502  0.56915863597E+02 -0.41786045940E+02  0.17976000997E+03  0.19318706051E+03  0.47000000000E+01 0. -1.
        -11    1    4    4    0    0 -0.17358640606E+01  0.23151380769E+02  0.41105910601E+02  0.47209062074E+02  0.00000000000E+00 0.  1.
         11    1    4    4    0    0 -0.12643062903E+03  0.92318435932E+02  0.11355758438E+03  0.19339783489E+03  0.00000000000E+00 0. -1.
<mgrwt>
<rscale>  0 0.20546915E+03</rscale>
<asrwt>0</asrwt>
<pdfrwt beam="2">  1        1 0.13412679E-01 0.21304811E+03</pdfrwt>
<pdfrwt beam="1">  1       -1 0.69892450E-01 0.21304811E+03</pdfrwt>
<totfact> 0.92666688E+02</totfact>
</mgrwt>
</event>
<event>
 8    1  0.1020295E-005  0.1424310E+03  0.7546771E-02  0.1219850E+00
          2   -1    0    0  501    0  0.00000000000E+00  0.00000000000E+00  0.11199014041E+03  0.11199014041E+03  0.00000000000E+00 0. -1.
         -2   -1    0    0    0  501 -0.00000000000E+00 -0.00000000000E+00 -0.14892536647E+03  0.14892536647E+03  0.00000000000E+00 0.  1.
         23    2    1    2    0    0 -0.55984470571E+02 -0.39071290462E+02 -0.21321130211E+02  0.14401795549E+03  0.12500301687E+03 0.  0.
         23    2    1    2    0    0  0.55984470571E+02  0.39071290462E+02 -0.15614095850E+02  0.11689755140E+03  0.93597066460E+02 0.  0.
          5    1    3    3  502    0  0.24052381989E+01 -0.29313459572E+02  0.45651096204E+02  0.54508500874E+02  0.47000000000E+01 0. -1.
         -5    1    3    3    0  502 -0.58389708770E+02 -0.97578308897E+01 -0.66972226415E+02  0.89509454612E+02  0.47000000000E+01 0. -1.
        -11    1    4    4    0    0 -0.45682793771E+01  0.50365768277E+02  0.74615488961E+01  0.51120001003E+02  0.00000000000E+00 0.  1.
         11    1    4    4    0    0  0.60552749948E+02 -0.11294477815E+02 -0.23075644746E+02  0.65777550394E+02  0.00000000000E+00 0. -1.
<mgrwt>
<rscale>  0 0.13526249E+03</rscale>
<asrwt>0</asrwt>
<pdfrwt beam="1">  1        2 0.17229252E-01 0.14243097E+03</pdfrwt>
<pdfrwt beam="2">  1       -2 0.22911595E-01 0.14243097E+03</pdfrwt>
<totfact> 0.52383986E+03</totfact>
</mgrwt>
</event>
<event>
 8    1  0.1020295E-005  0.1193463E+03  0.7546771E-02  0.1254663E+00
         -1   -1    0    0    0  501 -0.00000000000E+00  0.00000000000E+00  0.11111211439E+03  0.11111211439E+03  0.00000000000E+00 0.  1.
          1   -1    0    0  501    0  0.00000000000E+00 -0.00000000000E+00 -0.10954860307E+03  0.10954860307E+03  0.00000000000E+00 0. -1.
         23    2    1    2    0    0 -0.15200803282E+01  0.30077324295E+02  0.22994425444E+02  0.12154131451E+03  0.11548416103E+03 0.  0.
         23    2    1    2    0    0  0.15200803282E+01 -0.30077324295E+02 -0.21430914126E+02  0.99119402958E+02  0.91969646523E+02 0.  0.
          5    1    3    3  502    0  0.44967219313E+02  0.48757867684E+02  0.68566800749E+00  0.66497673753E+02  0.47000000000E+01 0. -1.
         -5    1    3    3    0  502 -0.46487299641E+02 -0.18680543389E+02  0.22308757436E+02  0.55043640755E+02  0.47000000000E+01 0.  1.
        -11    1    4    4    0    0  0.34576141119E+02 -0.15322723438E+02 -0.42774654470E+02  0.57096115922E+02  0.00000000000E+00 0. -1.
         11    1    4    4    0    0 -0.33056060791E+02 -0.14754600858E+02  0.21343740345E+02  0.42023287037E+02  0.00000000000E+00 0.  1.
<mgrwt>
<rscale>  0 0.11325241E+03</rscale>
<asrwt>0</asrwt>
<pdfrwt beam="2">  1        1 0.16853631E-01 0.11934633E+03</pdfrwt>
<pdfrwt beam="1">  1       -1 0.17094171E-01 0.11934633E+03</pdfrwt>
<totfact> 0.77851029E+03</totfact>
</mgrwt>
</event>
<event>
 8    1  0.1020295E-005  0.1330095E+03  0.7546771E-02  0.1235906E+00
         -1   -1    0    0    0  501 -0.00000000000E+00  0.00000000000E+00  0.16467648765E+03  0.16467648765E+03  0.00000000000E+00 0.  1.
          1   -1    0    0  501    0  0.00000000000E+00 -0.00000000000E+00 -0.10628763584E+03  0.10628763584E+03  0.00000000000E+00 0. -1.
         23    2    1    2    0    0 -0.43311552451E+02  0.13925337009E+02  0.94070102319E+02  0.16291319469E+03  0.12498687639E+03 0.  0.
         23    2    1    2    0    0  0.43311552451E+02 -0.13925337009E+02 -0.35681250507E+02  0.10805092879E+03  0.91280041571E+02 0.  0.
          5    1    3    3  502    0 -0.13973203073E+02  0.56838632245E+02  0.40542687815E+01  0.58859218606E+02  0.47000000000E+01 0.  1.
         -5    1    3    3    0  502 -0.29338349378E+02 -0.42913295236E+02  0.90015833538E+02  0.10405397609E+03  0.47000000000E+01 0.  1.
        -11    1    4    4    0    0  0.15242188467E+02 -0.60732802428E+01  0.31112979159E+02  0.35174230827E+02  0.00000000000E+00 0.  1.
         11    1    4    4    0    0  0.28069363984E+02 -0.78520567664E+01 -0.66794229666E+02  0.72876697967E+02  0.00000000000E+00 0. -1.
<mgrwt>
<rscale>  0 0.12446602E+03</rscale>
<asrwt>0</asrwt>
<pdfrwt beam="2">  1        1 0.16351944E-01 0.13300949E+03</pdfrwt>
<pdfrwt beam="1">  1       -1 0.25334844E-01 0.13300949E+03</pdfrwt>
<totfact> 0.43292011E+03</totfact>
</mgrwt>
</event>
<event>
 8    1  0.1020295E-005  0.1184239E+03  0.7546771E-02  0.1255283E+00
         -1   -1    0    0    0  501 -0.00000000000E+00  0.00000000000E+00  0.24843261479E+02  0.24843261479E+02  0.00000000000E+00 0.  1.
          1   -1    0    0  501    0  0.00000000000E+00 -0.00000000000E+00 -0.49664040489E+03  0.49664040489E+03  0.00000000000E+00 0. -1.
         23    2    1    2    0    0  0.16540725524E+02  0.24540864381E+02 -0.19780184019E+03  0.23054239439E+03  0.11466637696E+03 0.  0.
         23    2    1    2    0    0 -0.16540725524E+02 -0.24540864381E+02 -0.27399530322E+03  0.29094127198E+03  0.93260645107E+02 0.  0.
          5    1    3    3  502    0  0.25538413205E+02 -0.40980830710E+02 -0.56591397938E+02  0.74540695968E+02  0.47000000000E+01 0. -1.
         -5    1    3    3    0  502 -0.89976876809E+01  0.65521695091E+02 -0.14121044225E+03  0.15600169843E+03  0.47000000000E+01 0.  1.
        -11    1    4    4    0    0  0.29496148711E+02  0.26273724635E+01 -0.34104771167E+02  0.45167037663E+02  0.00000000000E+00 0.  1.
         11    1    4    4    0    0 -0.46036874235E+02 -0.27168236845E+02 -0.23989053206E+03  0.24577423431E+03  0.00000000000E+00 0. -1.
<mgrwt>
<rscale>  0 0.11290492E+03</rscale>
<asrwt>0</asrwt>
<pdfrwt beam="2">  1        1 0.76406218E-01 0.11842393E+03</pdfrwt>
<pdfrwt beam="1">  1       -1 0.38220401E-02 0.11842393E+03</pdfrwt>
<totfact> 0.11278219E+04</totfact>
</mgrwt>
</event>
<event>
 8    1  0.1020295E-005  0.1343587E+03  0.7546771E-02  0.1233458E+00
          1   -1    0    0  501    0  0.00000000000E+00  0.00000000000E+00  0.13166294116E+02  0.13166294116E+02  0.00000000000E+00 0. -1.
         -1   -1    0    0    0  501 -0.00000000000E+00 -0.00000000000E+00 -0.11383433090E+04  0.11383433090E+04  0.00000000000E+00 0.  1.
         23    2    1    2    0    0  0.48197066199E+02 -0.10247570557E+02 -0.76071586954E+03  0.77249005471E+03  0.12499712219E+03 0.  0.
         23    2    1    2    0    0 -0.48197066199E+02  0.10247570557E+02 -0.36446114533E+03  0.37901954840E+03  0.91629262357E+02 0.  0.
          5    1    3    3  502    0  0.79394338022E+02 -0.37038016924E+02 -0.60665459326E+03  0.61296587273E+03  0.47000000000E+01 0.  1.
         -5    1    3    3    0  502 -0.31197271823E+02  0.26790446367E+02 -0.15406127628E+03  0.15952418197E+03  0.47000000000E+01 0.  1.
        -11    1    4    4    0    0 -0.46951016155E+01  0.40557649889E+02 -0.81736964757E+02  0.91366833979E+02  0.00000000000E+00 0. -1.
         11    1    4    4    0    0 -0.43501964583E+02 -0.30310079332E+02 -0.28272418058E+03  0.28765271442E+03  0.00000000000E+00 0.  1.
<mgrwt>
<rscale>  0 0.12603675E+03</rscale>
<asrwt>0</asrwt>
<pdfrwt beam="1">  1        1 0.20255831E-02 0.13435866E+03</pdfrwt>
<pdfrwt beam="2">  1       -1 0.17512979E+00 0.13435866E+03</pdfrwt>
<totfact> 0.14327992E+03</totfact>
</mgrwt>
</event>
<event>
 8    1  0.1020295E-005  0.1304888E+03  0.7546771E-02  0.1241544E+00
          2   -1    0    0  501    0  0.00000000000E+00  0.00000000000E+00  0.19245880085E+03  0.19245880085E+03  0.00000000000E+00 0. -1.
         -2   -1    0    0    0  501 -0.00000000000E+00 -0.00000000000E+00 -0.71032861359E+02  0.71032861359E+02  0.00000000000E+00 0.  1.
         23    2    1    2    0    0  0.39077806706E+01  0.37251518967E+02  0.37558353658E+02  0.13578639730E+03  0.12499747737E+03 0.  0.
         23    2    1    2    0    0 -0.39077806706E+01 -0.37251518967E+02  0.83867585838E+02  0.12770526491E+03  0.88723820455E+02 0.  0.
          5    1    3    3  502    0  0.26925321459E+02 -0.26084143792E+02  0.54337359347E+02  0.66181523961E+02  0.47000000000E+01 0.  1.
         -5    1    3    3    0  502 -0.23017540788E+02  0.63335662759E+02 -0.16779005690E+02  0.69604873342E+02  0.47000000000E+01 0.  1.
        -11    1    4    4    0    0  0.36414720368E+02 -0.21339172895E+02  0.70806785610E+02  0.82431747815E+02  0.00000000000E+00 0. -1.
         11    1    4    4    0    0 -0.40322501039E+02 -0.15912346072E+02  0.13060800228E+02  0.45273517095E+02  0.00000000000E+00 0.  1.
<mgrwt>
<rscale>  0 0.12094649E+03</rscale>
<asrwt>0</asrwt>
<pdfrwt beam="1">  1        2 0.29609046E-01 0.13048876E+03</pdfrwt>
<pdfrwt beam="2">  1       -2 0.10928133E-01 0.13048876E+03</pdfrwt>
<totfact> 0.96295454E+03</totfact>
</mgrwt>
</event>
<event>
 8    1  0.1020295E-005  0.1547366E+03  0.7546771E-02  0.1203376E+00
          4   -1    0    0  501    0  0.00000000000E+00  0.00000000000E+00  0.93318495495E+02  0.93318495495E+02  0.00000000000E+00 0.  1.
         -4   -1    0    0    0  501 -0.00000000000E+00 -0.00000000000E+00 -0.23585999378E+03  0.23585999378E+03  0.00000000000E+00 0. -1.
         23    2    1    2    0    0 -0.91055581903E+02  0.53128615644E+01 -0.12649296398E+03  0.19985962818E+03  0.12499622214E+03 0.  0.
         23    2    1    2    0    0  0.91055581903E+02 -0.53128615644E+01 -0.16048534308E+02  0.12931886109E+03  0.90257780198E+02 0.  0.
          5    1    3    3  502    0 -0.74131059437E+02  0.74296682474E+01 -0.25853429357E+01  0.74695300666E+02  0.47000000000E+01 0.  1.
         -5    1    3    3    0  502 -0.16924522466E+02 -0.21168066830E+01 -0.12390762104E+03  0.12516432752E+03  0.47000000000E+01 0.  1.
        -11    1    4    4    0    0  0.68899448434E+02 -0.36961071047E+02  0.15174378051E+02  0.79646195871E+02  0.00000000000E+00 0.  1.
         11    1    4    4    0    0  0.22156133469E+02  0.31648209482E+02 -0.31222912359E+02  0.49672665219E+02  0.00000000000E+00 0. -1.
<mgrwt>
<rscale>  0 0.14766161E+03</rscale>
<asrwt>0</asrwt>
<pdfrwt beam="1">  1        4 0.14356692E-01 0.15473655E+03</pdfrwt>
<pdfrwt beam="2">  1       -4 0.36286153E-01 0.15473655E+03</pdfrwt>
<totfact> 0.51007260E+02</totfact>
</mgrwt>
</event>
<event>
 7    1  0.1020295E-005  0.1956811E+03  0.7546771E-02  0.1153990E+00
          2   -1    0    0  501    0  0.00000000000E+00  0.00000000000E+00  0.70196785993E+03  0.70196785993E+03  0.00000000000E+00 0. -1.
         -2   -1    0    0    0  501 -0.00000000000E+00 -0.00000000000E+00 -0.54735802734E+02  0.54735802734E+02  0.00000000000E+00 0.  1.
         23    2    1    2    0    0 -0.38715892461E+02  0.14206025602E+03  0.36986854573E+03  0.41726056669E+03  0.12499441078E+03 0.  0.
          5    1    3    3  502    0 -0.56858305123E+02  0.86931895144E+02  0.33175533530E+03  0.34766897151E+03  0.47000000000E+01 0. -1.
         -5    1    3    3    0  502  0.18142412663E+02  0.55128360875E+02  0.38113210436E+02  0.69591595180E+02  0.47000000000E+01 0. -1.
        -11    1    1    2    0    0  0.13588501824E+02 -0.16108053603E+03  0.20947553433E+03  0.26459702560E+03  0.00000000000E+00 0.  1.
         11    1    1    2    0    0  0.25127390637E+02  0.19020280012E+02  0.67887977127E+02  0.74846070373E+02  0.00000000000E+00 0. -1.
<mgrwt>
<rscale>  0 0.19504310E+03</rscale>
<asrwt>0</asrwt>
<pdfrwt beam="1">  1        2 0.10799505E+00 0.19568111E+03</pdfrwt>
<pdfrwt beam="2">  1       -2 0.84208932E-02 0.19568111E+03</pdfrwt>
<totfact> 0.36005717E+03</totfact>
</mgrwt>
</event>
<event>
 8    1  0.1020295E-005  0.1337031E+03  0.7546771E-02  0.1234584E+00
          2   -1    0    0  501    0  0.00000000000E+00  0.00000000000E+00  0.29767267221E+03  0.29767267221E+03  0.00000000000E+00 0. -1.
         -2   -1    0    0    0  501 -0.00000000000E+00 -0.00000000000E+00 -0.48281312446E+02  0.48281312446E+02  0.00000000000E+00 0.  1.
         23    2    1    2    0    0 -0.47018372176E+02 -0.64507049419E+01  0.11378716724E+03  0.17556777363E+03  0.12499673913E+03 0.  0.
         23    2    1    2    0    0  0.47018372176E+02  0.64507049419E+01  0.13560419252E+03  0.17038621102E+03  0.91600354595E+02 0.  0.
          5    1    3    3  502    0 -0.56244847392E+02 -0.29990012306E+02  0.13021324040E+03  0.14505330632E+03  0.47000000000E+01 0.  1.
         -5    1    3    3    0  502  0.92264752163E+01  0.23539307364E+02 -0.16426073161E+02  0.30514467316E+02  0.47000000000E+01 0.  1.
        -11    1    4    4    0    0  0.15016169755E+02  0.22332514661E+02  0.13172953828E+03  0.13445035448E+03  0.00000000000E+00 0. -1.
         11    1    4    4    0    0  0.32002202421E+02 -0.15881809720E+02  0.38746542381E+01  0.35935856539E+02  0.00000000000E+00 0.  1.
<mgrwt>
<rscale>  0 0.12531094E+03</rscale>
<asrwt>0</asrwt>
<pdfrwt beam="1">  1        2 0.45795795E-01 0.13370312E+03</pdfrwt>
<pdfrwt beam="2">  1       -2 0.74278944E-02 0.13370312E+03</pdfrwt>
<totfact> 0.11049035E+04</totfact>
</mgrwt>
</event>
<event>
 8    1  0.1020295E-005  0.1365350E+03  0.7546771E-02  0.1231423E+00
         -1   -1    0    0    0  501 -0.00000000000E+00  0.00000000000E+00  0.23246882292E+03  0.23246882292E+03  0.00000000000E+00 0.  1.
          1   -1    0    0  501    0  0.00000000000E+00 -0.00000000000E+00 -0.70160071893E+02  0.70160071893E+02  0.00000000000E+00 0. -1.
         23    2    1    2    0    0  0.54868702234E+02 -0.26223589584E+01  0.14253297129E+03  0.19737641350E+03  0.12499739776E+03 0.  0.
         23    2    1    2    0    0 -0.54868702234E+02  0.26223589584E+01  0.19775779733E+02  0.10525248131E+03  0.87575979055E+02 0.  0.
          5    1    3    3  502    0  0.88484365878E+02  0.19914508219E+02  0.12100405129E+03  0.15129488118E+03  0.47000000000E+01 0. -1.
         -5    1    3    3    0  502 -0.33615663643E+02 -0.22536867178E+02  0.21528920005E+02  0.46081532320E+02  0.47000000000E+01 0. -1.
        -11    1    4    4    0    0 -0.46302576980E+02  0.34613717598E+02 -0.12347528913E+02  0.59114292275E+02  0.00000000000E+00 0. -1.
         11    1    4    4    0    0 -0.85661252544E+01 -0.31991358640E+02  0.32123308645E+02  0.46138189039E+02  0.00000000000E+00 0.  1.
<mgrwt>
<rscale>  0 0.12736202E+03</rscale>
<asrwt>0</asrwt>
<pdfrwt beam="2">  1        1 0.10793857E-01 0.13653498E+03</pdfrwt>
<pdfrwt beam="1">  1       -1 0.35764434E-01 0.13653498E+03</pdfrwt>
<totfact> 0.41738672E+03</totfact>
</mgrwt>
</event>
<event>
 8    1  0.1020295E-005  0.1758581E+03  0.7546771E-02  0.1177759E+00
         -1   -1    0    0    0  501 -0.00000000000E+00  0.00000000000E+00  0.88585209673E+03  0.88585209673E+03  0.00000000000E+00 0.  1.
          1   -1    0    0  501    0  0.00000000000E+00 -0.00000000000E+00 -0.33069671820E+02  0.33069671820E+02  0.00000000000E+00 0. -1.
         23    2    1    2    0    0  0.10862646239E+03  0.59165572042E+02  0.57590984198E+03  0.60216130095E+03  0.12500325210E+03 0.  0.
         23    2    1    2    0    0 -0.10862646239E+03 -0.59165572042E+02  0.27687258293E+03  0.31676046759E+03  0.91534110602E+02 0.  0.
          5    1    3    3  502    0  0.63088634402E+02  0.29669513453E+02  0.93697828106E+02  0.11688382613E+03  0.47000000000E+01 0.  1.
         -5    1    3    3    0  502  0.45537827989E+02  0.29496058589E+02  0.48221201387E+03  0.48527747482E+03  0.47000000000E+01 0.  1.
        -11    1    4    4    0    0 -0.52086093129E+02 -0.76033061007E+02  0.19665863382E+03  0.21718334586E+03  0.00000000000E+00 0.  1.
         11    1    4    4    0    0 -0.56540369262E+02  0.16867488965E+02  0.80213949112E+02  0.99577121732E+02  0.00000000000E+00 0. -1.
<mgrwt>
<rscale>  0 0.17008529E+03</rscale>
<asrwt>0</asrwt>
<pdfrwt beam="2">  1        1 0.50876425E-02 0.17585814E+03</pdfrwt>
<pdfrwt beam="1">  1       -1 0.13628492E+00 0.17585814E+03</pdfrwt>
<totfact> 0.78067590E+02</totfact>
</mgrwt>
</event>
<event>
 8    1  0.1020295E-005  0.1324442E+03  0.7546771E-02  0.1234449E+00
         -1   -1    0    0    0  501 -0.00000000000E+00  0.00000000000E+00  0.30613764778E+02  0.30613764778E+02  0.00000000000E+00 0.  1.
          1   -1    0    0  501    0  0.00000000000E+00 -0.00000000000E+00 -0.65171767267E+03  0.65171767267E+03  0.00000000000E+00 0. -1.
         23    2    1    2    0    0  0.15055064660E+02 -0.41074589759E+02 -0.15337132968E+03  0.20264312875E+03  0.12501078340E+03 0.  0.
         23    2    1    2    0    0 -0.15055064660E+02  0.41074589759E+02 -0.46773257821E+03  0.47968830870E+03  0.97022326733E+02 0.  0.
          5    1    3    3  502    0  0.17677300541E+02  0.83014874336E+01 -0.15161886607E+03  0.15294368963E+03  0.47000000000E+01 0.  1.
         -5    1    3    3    0  502 -0.26222358814E+01 -0.49376077193E+02 -0.17524636031E+01  0.49699439118E+02  0.47000000000E+01 0.  1.
        -11    1    4    4    0    0  0.40367257536E+02  0.23950995617E+02 -0.17018960948E+03  0.17654367405E+03  0.00000000000E+00 0. -1.
         11    1    4    4    0    0 -0.55422322196E+02  0.17123594142E+02 -0.29754296874E+03  0.30314463465E+03  0.00000000000E+00 0.  1.
<mgrwt>
<rscale>  0 0.12539772E+03</rscale>
<asrwt>0</asrwt>
<pdfrwt beam="2">  1        1 0.10026426E+00 0.13244423E+03</pdfrwt>
<pdfrwt beam="1">  1       -1 0.47098097E-02 0.13244423E+03</pdfrwt>
<totfact> 0.58085515E+03</totfact>
</mgrwt>
</event>
<event>
 8    1  0.1020295E-005  0.1273903E+03  0.7546771E-02  0.1245921E+00
         -1   -1    0    0    0  501 -0.00000000000E+00  0.00000000000E+00  0.96905175933E+02  0.96905175933E+02  0.00000000000E+00 0.  1.
          1   -1    0    0  501    0  0.00000000000E+00 -0.00000000000E+00 -0.13342443870E+03  0.13342443870E+03  0.00000000000E+00 0. -1.
         23    2    1    2    0    0  0.73399551591E+01 -0.23433257869E+02  0.35811645095E+01  0.12744062777E+03  0.12500118540E+03 0.  0.
         23    2    1    2    0    0 -0.73399551591E+01  0.23433257869E+02 -0.40100427281E+02  0.10288898687E+03  0.91515609789E+02 0.  0.
          5    1    3    3  502    0  0.15919683132E+02 -0.73739952565E+02  0.79692913717E+01  0.76004055946E+02  0.47000000000E+01 0. -1.
         -5    1    3    3    0  502 -0.85797279724E+01  0.50306694696E+02 -0.43881268622E+01  0.51436571821E+02  0.47000000000E+01 0. -1.
        -11    1    4    4    0    0  0.19996673667E+02 -0.13948263979E+02 -0.49913827381E+02  0.55550078214E+02  0.00000000000E+00 0.  1.
         11    1    4    4    0    0 -0.27336628826E+02  0.37381521848E+02  0.98134001004E+01  0.47338908657E+02  0.00000000000E+00 0. -1.
<mgrwt>
<rscale>  0 0.11830424E+03</rscale>
<asrwt>0</asrwt>
<pdfrwt beam="2">  1        1 0.20526837E-01 0.12739030E+03</pdfrwt>
<pdfrwt beam="1">  1       -1 0.14908489E-01 0.12739030E+03</pdfrwt>
<totfact> 0.75462363E+03</totfact>
</mgrwt>
</event>
<event>
 8    1  0.1020295E-005  0.1340965E+03  0.7546771E-02  0.1234850E+00
         -3   -1    0    0    0  501 -0.00000000000E+00  0.00000000000E+00  0.37318473541E+03  0.37318473541E+03  0.00000000000E+00 0.  1.
          3   -1    0    0  501    0  0.00000000000E+00 -0.00000000000E+00 -0.45869459880E+02  0.45869459880E+02  0.00000000000E+00 0. -1.
         23    2    1    2    0    0  0.31299053996E+02 -0.37119245248E+02  0.27205409635E+03  0.30330726175E+03  0.12499757814E+03 0.  0.
         23    2    1    2    0    0 -0.31299053996E+02  0.37119245248E+02  0.55261179176E+02  0.11574693354E+03  0.89364901108E+02 0.  0.
          5    1    3    3  502    0  0.11026461407E+02 -0.41549490776E+02  0.27789815166E+03  0.28124262787E+03  0.47000000000E+01 0.  1.
         -5    1    3    3    0  502  0.20272592589E+02  0.44302455285E+01 -0.58440553127E+01  0.22064633879E+02  0.47000000000E+01 0.  1.
        -11    1    4    4    0    0  0.10306484178E+02  0.22285869517E+02 -0.17830789296E+02  0.30345026663E+02  0.00000000000E+00 0. -1.
         11    1    4    4    0    0 -0.41605538174E+02  0.14833375731E+02  0.73091968472E+02  0.85401906872E+02  0.00000000000E+00 0.  1.
<mgrwt>
<rscale>  0 0.12514017E+03</rscale>
<asrwt>0</asrwt>
<pdfrwt beam="2">  1        3 0.70568402E-02 0.13409647E+03</pdfrwt>
<pdfrwt beam="1">  1       -3 0.57413034E-01 0.13409647E+03</pdfrwt>
<totfact> 0.90952698E+02</totfact>
</mgrwt>
</event>
<event>
 8    1  0.1020295E-005  0.1351589E+03  0.7546771E-02  0.1232555E+00
          1   -1    0    0  501    0  0.00000000000E+00  0.00000000000E+00  0.13536693731E+02  0.13536693731E+02  0.00000000000E+00 0. -1.
         -1   -1    0    0    0  501 -0.00000000000E+00 -0.00000000000E+00 -0.10590551053E+04  0.10590551053E+04  0.00000000000E+00 0.  1.
         23    2    1    2    0    0  0.28123293920E+02 -0.43019268757E+02 -0.61186478963E+03  0.62661508258E+03  0.12500545504E+03 0.  0.
         23    2    1    2    0    0 -0.28123293920E+02  0.43019268757E+02 -0.43365362193E+03  0.44597671644E+03  0.90543860331E+02 0.  0.
          5    1    3    3  502    0 -0.27640342319E+02 -0.58874752811E+02 -0.19271103454E+03  0.20344497506E+03  0.47000000000E+01 0. -1.
         -5    1    3    3    0  502  0.55763636239E+02  0.15855484054E+02 -0.41915375509E+03  0.42317010753E+03  0.47000000000E+01 0. -1.
        -11    1    4    4    0    0  0.30129029632E+00  0.65551699351E+02 -0.32109549527E+03  0.32771852732E+03  0.00000000000E+00 0.  1.
         11    1    4    4    0    0 -0.28424584217E+02 -0.22532430594E+02 -0.11255812666E+03  0.11825818912E+03  0.00000000000E+00 0. -1.
<mgrwt>
<rscale>  0 0.12662256E+03</rscale>
<asrwt>0</asrwt>
<pdfrwt beam="1">  1        1 0.20825687E-02 0.13515895E+03</pdfrwt>
<pdfrwt beam="2">  1       -1 0.16293152E+00 0.13515895E+03</pdfrwt>
<totfact> 0.16813759E+03</totfact>
</mgrwt>
</event>
<event>
 8    1  0.1020295E-005  0.1881587E+03  0.7546771E-02  0.1165472E+00
         -2   -1    0    0    0  501 -0.00000000000E+00  0.00000000000E+00  0.51905003039E+03  0.51905003039E+03  0.00000000000E+00 0.  1.
          2   -1    0    0  501    0  0.00000000000E+00 -0.00000000000E+00 -0.76131428569E+02  0.76131428569E+02  0.00000000000E+00 0. -1.
         23    2    1    2    0    0  0.45263212632E+02  0.13315336732E+03  0.36695034336E+03  0.41237877106E+03  0.12500047475E+03 0.  0.
         23    2    1    2    0    0 -0.45263212632E+02 -0.13315336732E+03  0.75968258469E+02  0.18280268790E+03  0.88696498020E+02 0.  0.
          5    1    3    3  502    0  0.82911134794E+02  0.10679519310E+03  0.31521576527E+03  0.34301973445E+03  0.47000000000E+01 0. -1.
         -5    1    3    3    0  502 -0.37647922162E+02  0.26358174217E+02  0.51734578083E+02  0.69359036618E+02  0.47000000000E+01 0. -1.
        -11    1    4    4    0    0 -0.43170175839E+02 -0.58007823934E+02 -0.47943068915E+01  0.72467627932E+02  0.00000000000E+00 0.  1.
         11    1    4    4    0    0 -0.20930367927E+01 -0.75145543388E+02  0.80762565360E+02  0.11033505997E+03  0.00000000000E+00 0. -1.
<mgrwt>
<rscale>  0 0.18243013E+03</rscale>
<asrwt>0</asrwt>
<pdfrwt beam="2">  1        2 0.11712528E-01 0.18815870E+03</pdfrwt>
<pdfrwt beam="1">  1       -2 0.79853848E-01 0.18815870E+03</pdfrwt>
<totfact> 0.74640882E+02</totfact>
</mgrwt>
</event>
<event>
 8    1  0.1020295E-005  0.1772923E+03  0.7546771E-02  0.1176083E+00
          2   -1    0    0  501    0  0.00000000000E+00  0.00000000000E+00  0.57524584461E+02  0.57524584461E+02  0.00000000000E+00 0.  1.
         -2   -1    0    0    0  501 -0.00000000000E+00 -0.00000000000E+00 -0.80511630396E+03  0.80511630396E+03  0.00000000000E+00 0. -1.
         23    2    1    2    0    0 -0.11627571858E+03 -0.47816917559E+02 -0.66074881136E+03  0.68412100948E+03  0.12500425421E+03 0.  0.
         23    2    1    2    0    0  0.11627571858E+03  0.47816917559E+02 -0.86842908144E+02  0.17851987894E+03  0.92310108583E+02 0.  0.
          5    1    3    3  502    0 -0.57392778964E+02 -0.12245184340E+02 -0.80184665788E+02  0.99476360228E+02  0.47000000000E+01 0. -1.
         -5    1    3    3    0  502 -0.58882939614E+02 -0.35571733219E+02 -0.58056414557E+03  0.58464464926E+03  0.47000000000E+01 0. -1.
        -11    1    4    4    0    0  0.67814942958E+02  0.38728956001E+02 -0.10057788990E+03  0.12733699564E+03  0.00000000000E+00 0. -1.
         11    1    4    4    0    0  0.48460775619E+02  0.90879615578E+01  0.13734981760E+02  0.51182883300E+02  0.00000000000E+00 0.  1.
<mgrwt>
<rscale>  0 0.17170382E+03</rscale>
<asrwt>0</asrwt>
<pdfrwt beam="1">  1        2 0.88499360E-02 0.17729231E+03</pdfrwt>
<pdfrwt beam="2">  1       -2 0.12386405E+00 0.17729231E+03</pdfrwt>
<totfact> 0.38175546E+02</totfact>
</mgrwt>
</event>
<event>
 8    1  0.1020295E-005  0.1273620E+03  0.7546771E-02  0.1237249E+00
          3   -1    0    0  501    0  0.00000000000E+00  0.00000000000E+00  0.10849587367E+02  0.10849587367E+02  0.00000000000E+00 0. -1.
         -3   -1    0    0    0  501 -0.00000000000E+00 -0.00000000000E+00 -0.23146580171E+04  0.23146580171E+04  0.00000000000E+00 0.  1.
         23    2    1    2    0    0 -0.21866193402E+02  0.10874103070E+02 -0.19484521822E+04  0.19526103029E+04  0.12499884795E+03 0.  0.
         23    2    1    2    0    0  0.21866193402E+02 -0.10874103070E+02 -0.35535624750E+03  0.37289730157E+03  0.11035378721E+03 0.  0.
          5    1    3    3  502    0  0.51428440561E+02 -0.46336608224E+00 -0.66056265274E+03  0.66257845377E+03  0.47000000000E+01 0.  1.
         -5    1    3    3    0  502 -0.73294633964E+02  0.11337469152E+02 -0.12878895295E+04  0.12900318491E+04  0.47000000000E+01 0.  1.
        -11    1    4    4    0    0  0.38016012780E+02  0.42638817374E+02 -0.18061700605E+03  0.18943544771E+03  0.00000000000E+00 0.  1.
         11    1    4    4    0    0 -0.16149819378E+02 -0.53512920444E+02 -0.17473924145E+03  0.18346185386E+03  0.00000000000E+00 0. -1.
<mgrwt>
<rscale>  0 0.12361532E+03</rscale>
<asrwt>0</asrwt>
<pdfrwt beam="1">  1        3 0.16691674E-02 0.12736204E+03</pdfrwt>
<pdfrwt beam="2">  1       -3 0.35610121E+00 0.12736204E+03</pdfrwt>
<totfact> 0.67463604E+01</totfact>
</mgrwt>
</event>
<event>
 8    1  0.1020295E-005  0.1340745E+03  0.7546771E-02  0.1234130E+00
         -1   -1    0    0    0  501 -0.00000000000E+00  0.00000000000E+00  0.45279030436E+03  0.45279030436E+03  0.00000000000E+00 0.  1.
          1   -1    0    0  501    0  0.00000000000E+00 -0.00000000000E+00 -0.48990542426E+02  0.48990542426E+02  0.00000000000E+00 0. -1.
         23    2    1    2    0    0  0.14982375287E+02  0.46137163644E+02  0.36932950614E+03  0.39291252160E+03  0.12499142403E+03 0.  0.
         23    2    1    2    0    0 -0.14982375287E+02 -0.46137163644E+02  0.34470255793E+02  0.10886832519E+03  0.91164709494E+02 0.  0.
          5    1    3    3  502    0  0.57156986460E+02  0.45686177014E+02  0.31784086450E+03  0.32618867703E+03  0.47000000000E+01 0. -1.
         -5    1    3    3    0  502 -0.42174611173E+02  0.45098663023E+00  0.51488641640E+02  0.66723844572E+02  0.47000000000E+01 0. -1.
        -11    1    4    4    0    0  0.33332852893E+02 -0.43431052446E+02  0.21002399002E+02  0.58638180074E+02  0.00000000000E+00 0.  1.
         11    1    4    4    0    0 -0.48315228181E+02 -0.27061111983E+01  0.13467856791E+02  0.50230145117E+02  0.00000000000E+00 0. -1.
<mgrwt>
<rscale>  0 0.12560305E+03</rscale>
<asrwt>0</asrwt>
<pdfrwt beam="2">  1        1 0.75370069E-02 0.13407448E+03</pdfrwt>
<pdfrwt beam="1">  1       -1 0.69660044E-01 0.13407448E+03</pdfrwt>
<totfact> 0.19843522E+03</totfact>
</mgrwt>
</event>
<event>
 8    1  0.1020295E-005  0.1794468E+03  0.7546771E-02  0.1174021E+00
          2   -1    0    0  501    0  0.00000000000E+00  0.00000000000E+00  0.63626673496E+03  0.63626673496E+03  0.00000000000E+00 0. -1.
         -2   -1    0    0    0  501 -0.00000000000E+00 -0.00000000000E+00 -0.44980583515E+02  0.44980583515E+02  0.00000000000E+00 0.  1.
         23    2    1    2    0    0 -0.12467731713E+03 -0.32125412296E+02  0.28511699279E+03  0.33688698379E+03  0.12499865897E+03 0.  0.
         23    2    1    2    0    0  0.12467731713E+03  0.32125412296E+02  0.30616915865E+03  0.34436033469E+03  0.90928603170E+02 0.  0.
          5    1    3    3  502    0 -0.42402415111E+02  0.40848385204E+02  0.50417188611E+02  0.77656540538E+02  0.47000000000E+01 0. -1.
         -5    1    3    3    0  502 -0.82274902020E+02 -0.72973797499E+02  0.23469980418E+03  0.25923044325E+03  0.47000000000E+01 0. -1.
        -11    1    4    4    0    0  0.40863031674E+02  0.24916651847E+02  0.31993187800E+02  0.57569010435E+02  0.00000000000E+00 0.  1.
         11    1    4    4    0    0  0.83814285457E+02  0.72087604486E+01  0.27417597085E+03  0.28679132425E+03  0.00000000000E+00 0. -1.
<mgrwt>
<rscale>  0 0.17372226E+03</rscale>
<asrwt>0</asrwt>
<pdfrwt beam="1">  1        2 0.97887183E-01 0.17944676E+03</pdfrwt>
<pdfrwt beam="2">  1       -2 0.69200902E-02 0.17944676E+03</pdfrwt>
<totfact> 0.54680097E+03</totfact>
</mgrwt>
</event>
<event>
 8    1  0.1020295E-005  0.1262606E+03  0.7546771E-02  0.1247828E+00
          1   -1    0    0  501    0  0.00000000000E+00  0.00000000000E+00  0.13705589238E+03  0.13705589238E+03  0.00000000000E+00 0. -1.
         -1   -1    0    0    0  501 -0.00000000000E+00 -0.00000000000E+00 -0.88672381713E+02  0.88672381713E+02  0.00000000000E+00 0.  1.
         23    2    1    2    0    0 -0.17745244679E+02  0.33909883922E+01  0.19822011250E+02  0.12780707286E+03  0.12496136696E+03 0.  0.
         23    2    1    2    0    0  0.17745244679E+02 -0.33909883922E+01  0.28561499414E+02  0.97921201231E+02  0.91904351860E+02 0.  0.
          5    1    3    3  502    0 -0.63135568906E+02  0.27872979899E+02  0.29365791479E+02  0.75149469584E+02  0.47000000000E+01 0.  1.
         -5    1    3    3    0  502  0.45390324227E+02 -0.24481991507E+02 -0.95437802289E+01  0.52657603275E+02  0.47000000000E+01 0.  1.
        -11    1    4    4    0    0  0.33806947156E+01 -0.46484286476E+02  0.23556615950E+02  0.52221950757E+02  0.00000000000E+00 0.  1.
         11    1    4    4    0    0  0.14364549963E+02  0.43093298083E+02  0.50048834639E+01  0.45699250473E+02  0.00000000000E+00 0. -1.
<mgrwt>
<rscale>  0 0.11717721E+03</rscale>
<asrwt>0</asrwt>
<pdfrwt beam="1">  1        1 0.21085522E-01 0.12626059E+03</pdfrwt>
<pdfrwt beam="2">  1       -1 0.13641905E-01 0.12626059E+03</pdfrwt>
<totfact> 0.83708261E+03</totfact>
</mgrwt>
</event>
<event>
 8    1  0.1020295E-005  0.1342791E+03  0.7546771E-02  0.1232541E+00
         -3   -1    0    0    0  501 -0.00000000000E+00  0.00000000000E+00  0.90386449320E+02  0.90386449320E+02  0.00000000000E+00 0.  1.
          3   -1    0    0  501    0  0.00000000000E+00 -0.00000000000E+00 -0.24009372507E+03  0.24009372507E+03  0.00000000000E+00 0. -1.
         23    2    1    2    0    0 -0.37982225846E+02  0.31012532344E+02  0.14353619858E+02  0.13504409178E+03  0.12500581459E+03 0.  0.
         23    2    1    2    0    0  0.37982225846E+02 -0.31012532344E+02 -0.16406089561E+03  0.19543608260E+03  0.94206466200E+02 0.  0.
          5    1    3    3  502    0 -0.42449272233E+02  0.37030493313E+02  0.63553679242E+02  0.85055030970E+02  0.47000000000E+01 0. -1.
         -5    1    3    3    0  502  0.44670463862E+01 -0.60179609697E+01 -0.49200059384E+02  0.49989060814E+02  0.47000000000E+01 0. -1.
        -11    1    4    4    0    0  0.59665723210E+02 -0.40175741900E+02 -0.77524594590E+02  0.10575514895E+03  0.00000000000E+00 0.  1.
         11    1    4    4    0    0 -0.21683497363E+02  0.91632095561E+01 -0.86536301015E+02  0.89680933652E+02  0.00000000000E+00 0. -1.
<mgrwt>
<rscale>  0 0.12663144E+03</rscale>
<asrwt>0</asrwt>
<pdfrwt beam="2">  1        3 0.36937496E-01 0.13427911E+03</pdfrwt>
<pdfrwt beam="1">  1       -3 0.13905608E-01 0.13427911E+03</pdfrwt>
<totfact> 0.70730843E+02</totfact>
</mgrwt>
</event>
<event>
 8    1  0.1020295E-005  0.1403338E+03  0.7546771E-02  0.1226305E+00
          1   -1    0    0  501    0  0.00000000000E+00  0.00000000000E+00  0.17653228792E+03  0.17653228792E+03  0.00000000000E+00 0. -1.
         -1   -1    0    0    0  501 -0.00000000000E+00 -0.00000000000E+00 -0.87681536259E+02  0.87681536259E+02  0.00000000000E+00 0.  1.
         23    2    1    2    0    0  0.63494998130E+02 -0.61195609323E+01  0.69562355963E+02  0.15662855592E+03  0.12499807739E+03 0.  0.
         23    2    1    2    0    0 -0.63494998130E+02  0.61195609323E+01  0.19288395696E+02  0.10758526825E+03  0.84459954553E+02 0.  0.
          5    1    3    3  502    0  0.39078204485E+02 -0.53291152340E+02 -0.33063455538E+01  0.66333060418E+02  0.47000000000E+01 0.  1.
         -5    1    3    3    0  502  0.24416793645E+02  0.47171591408E+02  0.72868701517E+02  0.90295495506E+02  0.47000000000E+01 0.  1.
        -11    1    4    4    0    0 -0.36010647464E+02 -0.32298531657E+02  0.32810666586E+02  0.58450848752E+02  0.00000000000E+00 0. -1.
         11    1    4    4    0    0 -0.27484350666E+02  0.38418092589E+02 -0.13522270890E+02  0.49134419501E+02  0.00000000000E+00 0.  1.
<mgrwt>
<rscale>  0 0.13077851E+03</rscale>
<asrwt>0</asrwt>
<pdfrwt beam="1">  1        1 0.27158813E-01 0.14033383E+03</pdfrwt>
<pdfrwt beam="2">  1       -1 0.13489467E-01 0.14033383E+03</pdfrwt>
<totfact> 0.62432661E+03</totfact>
</mgrwt>
</event>
<event>
 8    1  0.1020295E-005  0.1363939E+03  0.7546771E-02  0.1223107E+00
         -4   -1    0    0    0  501 -0.00000000000E+00  0.00000000000E+00  0.14548442841E+03  0.14548442841E+03  0.00000000000E+00 0.  1.
          4   -1    0    0  501    0  0.00000000000E+00 -0.00000000000E+00 -0.17514941981E+03  0.17514941981E+03  0.00000000000E+00 0. -1.
         23    2    1    2    0    0 -0.10790932247E+02 -0.53490861617E+02  0.77894930076E+02  0.15706977612E+03  0.12500231175E+03 0.  0.
         23    2    1    2    0    0  0.10790932247E+02  0.53490861617E+02 -0.10755992147E+03  0.16356407210E+03  0.11048236276E+03 0.  0.
          5    1    3    3  502    0 -0.43985636486E+02  0.85571083890E+01  0.73747436255E+02  0.86421841424E+02  0.47000000000E+01 0.  1.
         -5    1    3    3    0  502  0.33194704239E+02 -0.62047970006E+02  0.41474938213E+01  0.70647934692E+02  0.47000000000E+01 0.  1.
        -11    1    4    4    0    0  0.28006776869E+02  0.59707427287E+02 -0.12961716161E+02  0.67211327243E+02  0.00000000000E+00 0.  1.
         11    1    4    4    0    0 -0.17215844622E+02 -0.62165656706E+01 -0.94598205308E+02  0.96352744861E+02  0.00000000000E+00 0. -1.
<mgrwt>
<rscale>  0 0.13297491E+03</rscale>
<asrwt>0</asrwt>
<pdfrwt beam="2">  1        4 0.26946064E-01 0.13639389E+03</pdfrwt>
<pdfrwt beam="1">  1       -4 0.22382220E-01 0.13639389E+03</pdfrwt>
<totfact> 0.39803074E+02</totfact>
</mgrwt>
</event>
<event>
 8    1  0.1020295E-005  0.1597097E+03  0.7546771E-02  0.1196521E+00
          3   -1    0    0  501    0  0.00000000000E+00  0.00000000000E+00  0.24729040073E+02  0.24729040073E+02  0.00000000000E+00 0. -1.
         -3   -1    0    0    0  501 -0.00000000000E+00 -0.00000000000E+00 -0.88071156501E+03  0.88071156501E+03  0.00000000000E+00 0.  1.
         23    2    1    2    0    0  0.90650216722E+02  0.40811357686E+02 -0.46578528937E+03  0.49240543639E+03  0.12499659712E+03 0.  0.
         23    2    1    2    0    0 -0.90650216722E+02 -0.40811357686E+02 -0.39019723557E+03  0.41303516869E+03  0.91984450965E+02 0.  0.
          5    1    3    3  502    0  0.79963698006E+02  0.72399248044E+02 -0.42965650239E+03  0.44301539946E+03  0.47000000000E+01 0. -1.
         -5    1    3    3    0  502  0.10686518716E+02 -0.31587890358E+02 -0.36128786978E+02  0.49390036931E+02  0.47000000000E+01 0. -1.
        -11    1    4    4    0    0 -0.87792653762E+02  0.19554070562E+01 -0.20635920936E+03  0.22426657566E+03  0.00000000000E+00 0. -1.
         11    1    4    4    0    0 -0.28575629594E+01 -0.42766764742E+02 -0.18383802621E+03  0.18876859303E+03  0.00000000000E+00 0.  1.
<mgrwt>
<rscale>  0 0.15326241E+03</rscale>
<asrwt>0</asrwt>
<pdfrwt beam="1">  1        3 0.38044677E-02 0.15970967E+03</pdfrwt>
<pdfrwt beam="2">  1       -3 0.13549409E+00 0.15970967E+03</pdfrwt>
<totfact> 0.36869621E+02</totfact>
</mgrwt>
</event>
<event>
 8    1  0.1020295E-005  0.1548804E+03  0.7546771E-02  0.1203545E+00
          4   -1    0    0  501    0  0.00000000000E+00  0.00000000000E+00  0.10100481891E+04  0.10100481891E+04  0.00000000000E+00 0. -1.
         -4   -1    0    0    0  501 -0.00000000000E+00 -0.00000000000E+00 -0.22287414589E+02  0.22287414589E+02  0.00000000000E+00 0.  1.
         23    2    1    2    0    0 -0.87978964828E+02 -0.24964327294E+02  0.36237202373E+03  0.39408302488E+03  0.12499772408E+03 0.  0.
         23    2    1    2    0    0  0.87978964828E+02  0.24964327294E+02  0.62538875074E+03  0.63825257877E+03  0.88835515783E+02 0.  0.
          5    1    3    3  502    0 -0.68130224924E+02 -0.23673120337E+02  0.36622086106E+03  0.37328535097E+03  0.47000000000E+01 0. -1.
         -5    1    3    3    0  502 -0.19848739904E+02 -0.12912069570E+01 -0.38488373297E+01  0.20797673907E+02  0.47000000000E+01 0. -1.
        -11    1    4    4    0    0  0.40197164922E+02  0.56243900976E+02  0.38635307205E+03  0.39248934349E+03  0.00000000000E+00 0. -1.
         11    1    4    4    0    0  0.47781799906E+02 -0.31279573682E+02  0.23903567869E+03  0.24576323528E+03  0.00000000000E+00 0.  1.
<mgrwt>
<rscale>  0 0.14752705E+03</rscale>
<asrwt>0</asrwt>
<pdfrwt beam="1">  1        4 0.15539199E+00 0.15488043E+03</pdfrwt>
<pdfrwt beam="2">  1       -4 0.34288338E-02 0.15488043E+03</pdfrwt>
<totfact> 0.21711531E+02</totfact>
</mgrwt>
</event>
<event>
 8    1  0.1020295E-005  0.1211362E+03  0.7546771E-02  0.1254593E+00
          2   -1    0    0  501    0  0.00000000000E+00  0.00000000000E+00  0.23959122025E+02  0.23959122025E+02  0.00000000000E+00 0. -1.
         -2   -1    0    0    0  501 -0.00000000000E+00 -0.00000000000E+00 -0.47732034102E+03  0.47732034102E+03  0.00000000000E+00 0.  1.
         23    2    1    2    0    0  0.75891257879E+01 -0.17959893688E+02 -0.26311233882E+03  0.28965856622E+03  0.11955680465E+03 0.  0.
         23    2    1    2    0    0 -0.75891257879E+01  0.17959893688E+02 -0.19024888018E+03  0.21162089683E+03  0.90601407006E+02 0.  0.
          5    1    3    3  502    0 -0.44952898818E+02 -0.40317746076E+02 -0.10157813431E+03  0.11826449649E+03  0.47000000000E+01 0. -1.
         -5    1    3    3    0  502  0.52542024606E+02  0.22357852389E+02 -0.16153420451E+03  0.17139406973E+03  0.47000000000E+01 0.  1.
        -11    1    4    4    0    0  0.20724611592E+02 -0.30078342634E+02 -0.84916218682E+02  0.92439063261E+02  0.00000000000E+00 0.  1.
         11    1    4    4    0    0 -0.28313737380E+02  0.48038236322E+02 -0.10533266150E+03  0.11918183356E+03  0.00000000000E+00 0. -1.
<mgrwt>
<rscale>  0 0.11329138E+03</rscale>
<asrwt>0</asrwt>
<pdfrwt beam="1">  1        2 0.36860187E-02 0.12113621E+03</pdfrwt>
<pdfrwt beam="2">  1       -2 0.73433900E-01 0.12113621E+03</pdfrwt>
<totfact> 0.38346427E+03</totfact>
</mgrwt>
</event>
<event>
 8    1  0.1020295E-005  0.1887143E+03  0.7546771E-02  0.1165057E+00
          4   -1    0    0  501    0  0.00000000000E+00  0.00000000000E+00  0.43399466729E+03  0.43399466729E+03  0.00000000000E+00 0.  1.
         -4   -1    0    0    0  501 -0.00000000000E+00 -0.00000000000E+00 -0.72677621924E+02  0.72677621924E+02  0.00000000000E+00 0. -1.
         23    2    1    2    0    0 -0.81953095248E+02 -0.11520298270E+03  0.18617231327E+03  0.26509095519E+03  0.12500018899E+03 0.  0.
         23    2    1    2    0    0  0.81953095248E+02  0.11520298270E+03  0.17514473210E+03  0.24158133403E+03  0.87737259622E+02 0.  0.
          5    1    3    3  502    0 -0.29932442480E+02 -0.56692064333E+02  0.13280207087E+01  0.64294594720E+02  0.47000000000E+01 0.  1.
         -5    1    3    3    0  502 -0.52020652767E+02 -0.58510918371E+02  0.18484429256E+03  0.20079636047E+03  0.47000000000E+01 0.  1.
        -11    1    4    4    0    0 -0.37090140134E+01  0.26212629192E+02  0.84001420986E+02  0.88074385844E+02  0.00000000000E+00 0.  1.
         11    1    4    4    0    0  0.85662109261E+02  0.88990353512E+02  0.91143311110E+02  0.15350694819E+03  0.00000000000E+00 0. -1.
<mgrwt>
<rscale>  0 0.18286722E+03</rscale>
<asrwt>0</asrwt>
<pdfrwt beam="1">  1        4 0.66768409E-01 0.18871429E+03</pdfrwt>
<pdfrwt beam="2">  1       -4 0.11181173E-01 0.18871429E+03</pdfrwt>
<totfact> 0.23357979E+02</totfact>
</mgrwt>
</event>
<event>
 7    1  0.1020295E-005  0.1829406E+03  0.7546771E-02  0.1184273E+00
         -2   -1    0    0    0  501 -0.00000000000E+00  0.00000000000E+00  0.45774381007E+02  0.45774381007E+02  0.00000000000E+00 0.  1.
          2   -1    0    0  501    0  0.00000000000E+00 -0.00000000000E+00 -0.56260709033E+03  0.56260709033E+03  0.00000000000E+00 0. -1.
         23    2    1    2    0    0  0.69580083354E+02 -0.35821871824E+02 -0.31275131928E+03  0.33430763890E+03  0.88451202469E+02 0.  0.
          5    1    1    2  502    0 -0.41754157037E+02  0.47627883143E+02 -0.22708489024E+03  0.23579962311E+03  0.47000000000E+01 0. -1.
         -5    1    1    2    0  502 -0.27825926317E+02 -0.11806011320E+02  0.23003500191E+02  0.38274209329E+02  0.47000000000E+01 0.  1.
        -11    1    3    3    0    0  0.41201921260E+02  0.17384746799E+02 -0.21382557650E+03  0.21845183658E+03  0.00000000000E+00 0.  1.
         11    1    3    3    0    0  0.28378162095E+02 -0.53206618623E+02 -0.98925742774E+02  0.11585580233E+03  0.00000000000E+00 0. -1.
<mgrwt>
<rscale>  0 0.16398243E+03</rscale>
<asrwt>0</asrwt>
<pdfrwt beam="2">  1        2 0.86554932E-01 0.18294057E+03</pdfrwt>
<pdfrwt beam="1">  1       -2 0.70422129E-02 0.18294057E+03</pdfrwt>
<totfact> 0.61373463E+03</totfact>
</mgrwt>
</event>
<event>
 8    1  0.1020295E-005  0.1321001E+03  0.7546771E-02  0.1236313E+00
         -1   -1    0    0    0  501 -0.00000000000E+00  0.00000000000E+00  0.21448700483E+03  0.21448700483E+03  0.00000000000E+00 0.  1.
          1   -1    0    0  501    0  0.00000000000E+00 -0.00000000000E+00 -0.89195343717E+02  0.89195343717E+02  0.00000000000E+00 0. -1.
         23    2    1    2    0    0  0.41523642062E+02  0.99501073559E+01  0.14756874775E+03  0.19805803358E+03  0.12500892715E+03 0.  0.
         23    2    1    2    0    0 -0.41523642062E+02 -0.99501073559E+01 -0.22277086633E+02  0.10562431497E+03  0.94005371320E+02 0.  0.
          5    1    3    3  502    0  0.56375728128E+02 -0.33505668023E+02  0.13508516459E+03  0.15023629456E+03  0.47000000000E+01 0.  1.
         -5    1    3    3    0  502 -0.14852086065E+02  0.43455775379E+02  0.12483583155E+02  0.47821739017E+02  0.47000000000E+01 0.  1.
        -11    1    4    4    0    0 -0.37039479309E+02  0.27665905548E+02 -0.42398944087E+02  0.62729545009E+02  0.00000000000E+00 0. -1.
         11    1    4    4    0    0 -0.44841627531E+01 -0.37616012904E+02  0.20121857454E+02  0.42894769958E+02  0.00000000000E+00 0.  1.
<mgrwt>
<rscale>  0 0.12420763E+03</rscale>
<asrwt>0</asrwt>
<pdfrwt beam="2">  1        1 0.13722361E-01 0.13210015E+03</pdfrwt>
<pdfrwt beam="1">  1       -1 0.32998001E-01 0.13210015E+03</pdfrwt>
<totfact> 0.34906892E+03</totfact>
</mgrwt>
</event>
<event>
 8    1  0.1020295E-005  0.1609906E+03  0.7546771E-02  0.1196450E+00
          1   -1    0    0  501    0  0.00000000000E+00  0.00000000000E+00  0.34861941344E+03  0.34861941344E+03  0.00000000000E+00 0. -1.
         -1   -1    0    0    0  501 -0.00000000000E+00 -0.00000000000E+00 -0.62910584083E+02  0.62910584083E+02  0.00000000000E+00 0.  1.
         23    2    1    2    0    0 -0.70745069494E+02 -0.72733539732E+02  0.12859564973E+03  0.20604569620E+03  0.12499182027E+03 0.  0.
         23    2    1    2    0    0  0.70745069494E+02  0.72733539732E+02  0.15711317963E+03  0.20548430132E+03  0.85112949756E+02 0.  0.
          5    1    3    3  502    0  0.28543242222E+02 -0.22567446900E+02  0.10021661918E+01  0.36702870095E+02  0.47000000000E+01 0. -1.
         -5    1    3    3    0  502 -0.99288311716E+02 -0.50166092832E+02  0.12759348353E+03  0.16934282611E+03  0.47000000000E+01 0. -1.
        -11    1    4    4    0    0  0.82793690106E+02  0.64724217497E+02  0.94857629265E+02  0.14156973293E+03  0.00000000000E+00 0.  1.
         11    1    4    4    0    0 -0.12048620612E+02  0.80093222346E+01  0.62255550367E+02  0.63914568392E+02  0.00000000000E+00 0. -1.
<mgrwt>
<rscale>  0 0.15332107E+03</rscale>
<asrwt>0</asrwt>
<pdfrwt beam="1">  1        1 0.53633755E-01 0.16099065E+03</pdfrwt>
<pdfrwt beam="2">  1       -1 0.96785516E-02 0.16099065E+03</pdfrwt>
<totfact> 0.45043668E+03</totfact>
</mgrwt>
</event>
<event>
 8    1  0.1020295E-005  0.1449841E+03  0.7546771E-02  0.1217093E+00
          2   -1    0    0  501    0  0.00000000000E+00  0.00000000000E+00  0.33900652349E+03  0.33900652349E+03  0.00000000000E+00 0. -1.
         -2   -1    0    0    0  501 -0.00000000000E+00 -0.00000000000E+00 -0.77727533028E+02  0.77727533028E+02  0.00000000000E+00 0.  1.
         23    2    1    2    0    0 -0.26991187069E+02  0.68297770571E+02  0.16793539405E+02  0.14595341114E+03  0.12500906213E+03 0.  0.
         23    2    1    2    0    0  0.26991187069E+02 -0.68297770571E+02  0.24448545106E+03  0.27078064538E+03  0.90310090725E+02 0.  0.
          5    1    3    3  502    0 -0.10020028519E+02  0.90700390260E+02 -0.25583180459E+02  0.94887042779E+02  0.47000000000E+01 0.  1.
         -5    1    3    3    0  502 -0.16971158550E+02 -0.22402619689E+02  0.42376719864E+02  0.51066368364E+02  0.47000000000E+01 0.  1.
        -11    1    4    4    0    0  0.42138063295E+02 -0.81315553090E+02  0.16385391031E+03  0.18771238499E+03  0.00000000000E+00 0.  1.
         11    1    4    4    0    0 -0.15146876226E+02  0.13017782519E+02  0.80631540745E+02  0.83068260389E+02  0.00000000000E+00 0. -1.
<mgrwt>
<rscale>  0 0.13723936E+03</rscale>
<asrwt>0</asrwt>
<pdfrwt beam="1">  1        2 0.52154849E-01 0.14498405E+03</pdfrwt>
<pdfrwt beam="2">  1       -2 0.11958082E-01 0.14498405E+03</pdfrwt>
<totfact> 0.45914728E+03</totfact>
</mgrwt>
</event>
<event>
 8    1  0.1020295E-005  0.1970680E+03  0.7546771E-02  0.1156528E+00
         -2   -1    0    0    0  501 -0.00000000000E+00  0.00000000000E+00  0.18419960610E+03  0.18419960610E+03  0.00000000000E+00 0.  1.
          2   -1    0    0  501    0  0.00000000000E+00 -0.00000000000E+00 -0.19147669329E+03  0.19147669329E+03  0.00000000000E+00 0. -1.
         23    2    1    2    0    0 -0.78216909228E+02  0.13081355652E+03 -0.12288962367E+02  0.19745080294E+03  0.12492289433E+03 0.  0.
         23    2    1    2    0    0  0.78216909228E+02 -0.13081355652E+03  0.50118751733E+01  0.17822549644E+03  0.92244984857E+02 0.  0.
          5    1    3    3  502    0 -0.44904793813E+02  0.14433151784E+03  0.15144689829E+02  0.15198512815E+03  0.47000000000E+01 0.  1.
         -5    1    3    3    0  502 -0.33312115415E+02 -0.13517961317E+02 -0.27433652196E+02  0.45465674793E+02  0.47000000000E+01 0.  1.
        -11    1    4    4    0    0  0.42159347183E+02 -0.66192753762E+02  0.48632737226E+02  0.92325697049E+02  0.00000000000E+00 0.  1.
         11    1    4    4    0    0  0.36057562045E+02 -0.64620802759E+02 -0.43620862053E+02  0.85899799395E+02  0.00000000000E+00 0. -1.
<mgrwt>
<rscale>  0 0.19215939E+03</rscale>
<asrwt>0</asrwt>
<pdfrwt beam="2">  1        2 0.29457953E-01 0.19706801E+03</pdfrwt>
<pdfrwt beam="1">  1       -2 0.28338401E-01 0.19706801E+03</pdfrwt>
<totfact> 0.20049200E+03</totfact>
</mgrwt>
</event>
<event>
 8    1  0.1020295E-005  0.1278231E+03  0.7546771E-02  0.1246179E+00
          1   -1    0    0  501    0  0.00000000000E+00  0.00000000000E+00  0.17303723112E+03  0.17303723112E+03  0.00000000000E+00 0. -1.
         -1   -1    0    0    0  501 -0.00000000000E+00 -0.00000000000E+00 -0.71357515863E+02  0.71357515863E+02  0.00000000000E+00 0.  1.
         23    2    1    2    0    0  0.35496495947E+01  0.26474429570E+02  0.70728904050E+02  0.14608667123E+03  0.12500096884E+03 0.  0.
         23    2    1    2    0    0 -0.35496495947E+01 -0.26474429570E+02  0.30950811208E+02  0.98308075749E+02  0.89403744943E+02 0.  0.
          5    1    3    3  502    0 -0.55088894716E+02 -0.39255092384E+01  0.10170683268E+02  0.56353604516E+02  0.47000000000E+01 0. -1.
         -5    1    3    3    0  502  0.58638544311E+02  0.30399938808E+02  0.60558220782E+02  0.89733066719E+02  0.47000000000E+01 0. -1.
        -11    1    4    4    0    0 -0.14197142589E+01  0.32585446760E+02  0.24832308855E+01  0.32710753044E+02  0.00000000000E+00 0.  1.
         11    1    4    4    0    0 -0.21299353358E+01 -0.59059876330E+02  0.28467580323E+02  0.65597322705E+02  0.00000000000E+00 0. -1.
<mgrwt>
<rscale>  0 0.11815104E+03</rscale>
<asrwt>0</asrwt>
<pdfrwt beam="1">  1        1 0.26621112E-01 0.12782307E+03</pdfrwt>
<pdfrwt beam="2">  1       -1 0.10978079E-01 0.12782307E+03</pdfrwt>
<totfact> 0.87399410E+03</totfact>
</mgrwt>
</event>
<event>
 8    1  0.1020295E-005  0.1359238E+03  0.7546771E-02  0.1226327E+00
          4   -1    0    0  501    0  0.00000000000E+00  0.00000000000E+00  0.23255881653E+02  0.23255881653E+02  0.00000000000E+00 0.  1.
         -4   -1    0    0    0  501 -0.00000000000E+00 -0.00000000000E+00 -0.68458355357E+03  0.68458355357E+03  0.00000000000E+00 0. -1.
         23    2    1    2    0    0 -0.73582292586E-01  0.53122850488E+02 -0.35487086827E+03  0.38001132429E+03  0.12511287216E+03 0.  0.
         23    2    1    2    0    0  0.73582292586E-01 -0.53122850488E+02 -0.30645680365E+03  0.32782811094E+03  0.10360238974E+03 0.  0.
          5    1    3    3  502    0  0.27874579345E+02  0.80586404284E+02 -0.30317564044E+03  0.31497415717E+03  0.47000000000E+01 0.  1.
         -5    1    3    3    0  502 -0.27948161638E+02 -0.27463553795E+02 -0.51695227827E+02  0.65037167113E+02  0.47000000000E+01 0.  1.
        -11    1    4    4    0    0 -0.47131202840E+02 -0.27715222467E+02 -0.21475895672E+03  0.22160977715E+03  0.00000000000E+00 0. -1.
         11    1    4    4    0    0  0.47204785133E+02 -0.25407628021E+02 -0.91697846926E+02  0.10621833378E+03  0.00000000000E+00 0.  1.
<mgrwt>
<rscale>  0 0.13076334E+03</rscale>
<asrwt>0</asrwt>
<pdfrwt beam="1">  1        4 0.35778280E-02 0.13592378E+03</pdfrwt>
<pdfrwt beam="2">  1       -4 0.10532054E+00 0.13592378E+03</pdfrwt>
<totfact> 0.51432176E+02</totfact>
</mgrwt>
</event>
<event>
 8    1  0.1020295E-005  0.2019816E+03  0.7546771E-02  0.1152182E+00
          3   -1    0    0  501    0  0.00000000000E+00  0.00000000000E+00  0.25269134289E+03  0.25269134289E+03  0.00000000000E+00 0. -1.
         -3   -1    0    0    0  501 -0.00000000000E+00 -0.00000000000E+00 -0.15193835529E+03  0.15193835529E+03  0.00000000000E+00 0.  1.
         23    2    1    2    0    0  0.13408006341E+03 -0.84824177203E+02  0.15713761537E+02  0.20259194784E+03  0.12499588227E+03 0.  0.
         23    2    1    2    0    0 -0.13408006341E+03  0.84824177203E+02  0.85039226056E+02  0.20203775034E+03  0.91733190038E+02 0.  0.
          5    1    3    3  502    0  0.11434712358E+03 -0.40130940686E+02  0.61050776088E+02  0.13577571334E+03  0.47000000000E+01 0. -1.
         -5    1    3    3    0  502  0.19732939829E+02 -0.44693236517E+02 -0.45337014551E+02  0.66816234502E+02  0.47000000000E+01 0. -1.
        -11    1    4    4    0    0 -0.13224811044E+03  0.97830914705E+02  0.62545514113E+02  0.17598974948E+03  0.00000000000E+00 0.  1.
         11    1    4    4    0    0 -0.18319529705E+01 -0.13006737502E+02  0.22493711943E+02  0.26048000865E+02  0.00000000000E+00 0. -1.
<mgrwt>
<rscale>  0 0.19713159E+03</rscale>
<asrwt>0</asrwt>
<pdfrwt beam="1">  1        3 0.38875591E-01 0.20198162E+03</pdfrwt>
<pdfrwt beam="2">  1       -3 0.23375132E-01 0.20198162E+03</pdfrwt>
<totfact> 0.27236320E+02</totfact>
</mgrwt>
</event>
<event>
 8    1  0.1020295E-005  0.1288343E+03  0.7546771E-02  0.1243648E+00
         -1   -1    0    0    0  501 -0.00000000000E+00  0.00000000000E+00  0.36797077972E+02  0.36797077972E+02  0.00000000000E+00 0.  1.
          1   -1    0    0  501    0  0.00000000000E+00 -0.00000000000E+00 -0.34901817436E+03  0.34901817436E+03  0.00000000000E+00 0. -1.
         23    2    1    2    0    0 -0.22110189530E+02  0.22310048877E+02 -0.15379740896E+03  0.20062883496E+03  0.12494673927E+03 0.  0.
         23    2    1    2    0    0  0.22110189530E+02 -0.22310048877E+02 -0.15842368743E+03  0.18518641737E+03  0.90605439552E+02 0.  0.
          5    1    3    3  502    0 -0.55898171977E+02 -0.18248661348E+02 -0.12955015754E+03  0.14234799820E+03  0.47000000000E+01 0.  1.
         -5    1    3    3    0  502  0.33787982447E+02  0.40558710225E+02 -0.24247251411E+02  0.58280836764E+02  0.47000000000E+01 0.  1.
        -11    1    4    4    0    0  0.26425459142E+01  0.20376533310E+02 -0.62043988097E+00  0.20556534345E+02  0.00000000000E+00 0.  1.
         11    1    4    4    0    0  0.19467643616E+02 -0.42686582187E+02 -0.15780324755E+03  0.16462988302E+03  0.00000000000E+00 0. -1.
<mgrwt>
<rscale>  0 0.11966669E+03</rscale>
<asrwt>0</asrwt>
<pdfrwt beam="2">  1        1 0.53695107E-01 0.12883434E+03</pdfrwt>
<pdfrwt beam="1">  1       -1 0.56610886E-02 0.12883434E+03</pdfrwt>
<totfact> 0.99474041E+03</totfact>
</mgrwt>
</event>
<event>
 7    1  0.1020295E-005  0.1450222E+03  0.7546771E-02  0.1221778E+00
          3   -1    0    0  501    0  0.00000000000E+00  0.00000000000E+00  0.39802886078E+03  0.39802886078E+03  0.00000000000E+00 0. -1.
         -3   -1    0    0    0  501 -0.00000000000E+00 -0.00000000000E+00 -0.61492168408E+02  0.61492168408E+02  0.00000000000E+00 0.  1.
         23    2    1    2    0    0 -0.44905222649E+02  0.25046817706E+02  0.28785705865E+03  0.30654668411E+03  0.92007397648E+02 0.  0.
          5    1    1    2  502    0  0.82235812248E+02  0.17197142253E+02  0.46992587144E+02  0.96378751622E+02  0.47000000000E+01 0. -1.
         -5    1    1    2    0  502 -0.37330589599E+02 -0.42243959959E+02  0.16870465733E+01  0.56595593459E+02  0.47000000000E+01 0.  1.
        -11    1    3    3    0    0 -0.73563696038E+02  0.20627653718E+02  0.20783988551E+03  0.22143743017E+03  0.00000000000E+00 0.  1.
         11    1    3    3    0    0  0.28658473389E+02  0.44191639880E+01  0.80017173142E+02  0.85109253933E+02  0.00000000000E+00 0. -1.
<mgrwt>
<rscale>  0 0.13390173E+03</rscale>
<asrwt>0</asrwt>
<pdfrwt beam="1">  1        3 0.61235208E-01 0.14502222E+03</pdfrwt>
<pdfrwt beam="2">  1       -3 0.94603339E-02 0.14502222E+03</pdfrwt>
<totfact> 0.50016146E+02</totfact>
</mgrwt>
</event>
<event>
 8    1  0.1020295E-005  0.1280553E+03  0.7546771E-02  0.1244741E+00
         -1   -1    0    0    0  501 -0.00000000000E+00  0.00000000000E+00  0.98960208058E+03  0.98960208058E+03  0.00000000000E+00 0.  1.
          1   -1    0    0  501    0  0.00000000000E+00 -0.00000000000E+00 -0.13169448042E+02  0.13169448042E+02  0.00000000000E+00 0. -1.
         23    2    1    2    0    0  0.18845797136E+02 -0.20481830731E+02  0.65689830134E+03  0.66926343314E+03  0.12499398055E+03 0.  0.
         23    2    1    2    0    0 -0.18845797136E+02  0.20481830731E+02  0.31953433120E+03  0.33350809548E+03  0.91382665088E+02 0.  0.
          5    1    3    3  502    0 -0.52707792256E+02 -0.62047048284E+01  0.22516439591E+03  0.23138216204E+03  0.47000000000E+01 0. -1.
         -5    1    3    3    0  502  0.71553589392E+02 -0.14277125903E+02  0.43173390544E+03  0.43788127110E+03  0.47000000000E+01 0. -1.
        -11    1    4    4    0    0  0.35005221065E+02 -0.13036828531E+01  0.86072334407E+02  0.92927454722E+02  0.00000000000E+00 0. -1.
         11    1    4    4    0    0 -0.53851018200E+02  0.21785513584E+02  0.23346199679E+03  0.24058064076E+03  0.00000000000E+00 0.  1.
<mgrwt>
<rscale>  0 0.11900907E+03</rscale>
<asrwt>0</asrwt>
<pdfrwt beam="2">  1        1 0.20260697E-02 0.12805532E+03</pdfrwt>
<pdfrwt beam="1">  1       -1 0.15224642E+00 0.12805532E+03</pdfrwt>
<totfact> 0.20853309E+03</totfact>
</mgrwt>
</event>
<event>
 8    1  0.1020295E-005  0.1768096E+03  0.7546771E-02  0.1176789E+00
         -1   -1    0    0    0  501 -0.00000000000E+00  0.00000000000E+00  0.31121058772E+03  0.31121058772E+03  0.00000000000E+00 0. -1.
          1   -1    0    0  501    0  0.00000000000E+00 -0.00000000000E+00 -0.96162316892E+02  0.96162316892E+02  0.00000000000E+00 0.  1.
         23    2    1    2    0    0 -0.46651759254E+01  0.12496180327E+03  0.17215811903E+03  0.24677934174E+03  0.12499763764E+03 0.  0.
         23    2    1    2    0    0  0.46651759254E+01 -0.12496180327E+03  0.42890151797E+02  0.16059356288E+03  0.91178457838E+02 0.  0.
          5    1    3    3  502    0  0.57177071645E+00  0.13596405042E+03  0.88931978743E+02  0.16253472482E+03  0.47000000000E+01 0. -1.
         -5    1    3    3    0  502 -0.52369466419E+01 -0.11002247148E+02  0.83226140291E+02  0.84244616921E+02  0.47000000000E+01 0. -1.
        -11    1    4    4    0    0  0.16412843653E+02 -0.80125339838E+02  0.69341232667E+02  0.10722713308E+03  0.00000000000E+00 0. -1.
         11    1    4    4    0    0 -0.11747667727E+02 -0.44836463431E+02 -0.26451080870E+02  0.53366429797E+02  0.00000000000E+00 0.  1.
<mgrwt>
<rscale>  0 0.17101892E+03</rscale>
<asrwt>0</asrwt>
<pdfrwt beam="2">  1        1 0.14794203E-01 0.17680957E+03</pdfrwt>
<pdfrwt beam="1">  1       -1 0.47878552E-01 0.17680957E+03</pdfrwt>
<totfact> 0.16660070E+03</totfact>
</mgrwt>
</event>
<event>
 8    1  0.1020295E-005  0.1475047E+03  0.7546771E-02  0.1213192E+00
         -2   -1    0    0    0  501 -0.00000000000E+00  0.00000000000E+00  0.56994508737E+02  0.56994508737E+02  0.00000000000E+00 0.  1.
          2   -1    0    0  501    0  0.00000000000E+00 -0.00000000000E+00 -0.37212661443E+03  0.37212661443E+03  0.00000000000E+00 0. -1.
         23    2    1    2    0    0  0.19353669355E+02  0.75882675245E+02 -0.86786790705E+02  0.17114200231E+03  0.12499957198E+03 0.  0.
         23    2    1    2    0    0 -0.19353669355E+02 -0.75882675245E+02 -0.22834531499E+03  0.25797912086E+03  0.90988455314E+02 0.  0.
          5    1    3    3  502    0  0.49236538593E+02  0.66015504473E+02 -0.10573745928E+03  0.13410735945E+03  0.47000000000E+01 0.  1.
         -5    1    3    3    0  502 -0.29882869238E+02  0.98671707722E+01  0.18950668570E+02  0.37034642866E+02  0.47000000000E+01 0.  1.
        -11    1    4    4    0    0 -0.46635671276E+02 -0.39941735960E+02 -0.18683871938E+03  0.19666960916E+03  0.00000000000E+00 0. -1.
         11    1    4    4    0    0  0.27282001922E+02 -0.35940939285E+02 -0.41506595607E+02  0.61309511696E+02  0.00000000000E+00 0.  1.
<mgrwt>
<rscale>  0 0.14010176E+03</rscale>
<asrwt>0</asrwt>
<pdfrwt beam="2">  1        2 0.57250247E-01 0.14750470E+03</pdfrwt>
<pdfrwt beam="1">  1       -2 0.87683862E-02 0.14750470E+03</pdfrwt>
<totfact> 0.67887962E+03</totfact>
</mgrwt>
</event>
<event>
 8    1  0.1020295E-005  0.1698026E+03  0.7546771E-02  0.1184698E+00
         -1   -1    0    0    0  501 -0.00000000000E+00  0.00000000000E+00  0.14946869544E+03  0.14946869544E+03  0.00000000000E+00 0.  1.
          1   -1    0    0  501    0  0.00000000000E+00 -0.00000000000E+00 -0.17736544928E+03  0.17736544928E+03  0.00000000000E+00 0. -1.
         23    2    1    2    0    0  0.48502159089E+02 -0.10418559357E+03  0.24244309510E+02  0.17152465975E+03  0.12500330001E+03 0.  0.
         23    2    1    2    0    0 -0.48502159089E+02  0.10418559357E+03 -0.52141063354E+02  0.15530948497E+03  0.90527610651E+02 0.  0.
          5    1    3    3  502    0  0.59700030505E+02 -0.12784868686E+03  0.29953286592E+02  0.14432141128E+03  0.47000000000E+01 0.  1.
         -5    1    3    3    0  502 -0.11197871416E+02  0.23663093289E+02 -0.57089770816E+01  0.27203248475E+02  0.47000000000E+01 0.  1.
        -11    1    4    4    0    0 -0.22788207653E+02  0.41466796088E+02  0.24259706954E+02  0.53172652438E+02  0.00000000000E+00 0.  1.
         11    1    4    4    0    0 -0.25713951437E+02  0.62718797487E+02 -0.76400770308E+02  0.10213683254E+03  0.00000000000E+00 0. -1.
<mgrwt>
<rscale>  0 0.16359345E+03</rscale>
<asrwt>0</asrwt>
<pdfrwt beam="2">  1        1 0.27286992E-01 0.16980260E+03</pdfrwt>
<pdfrwt beam="1">  1       -1 0.22995184E-01 0.16980260E+03</pdfrwt>
<totfact> 0.26793742E+03</totfact>
</mgrwt>
</event>
<event>
 8    1  0.1020295E-005  0.1985237E+03  0.7546771E-02  0.1155268E+00
         -4   -1    0    0    0  501 -0.00000000000E+00  0.00000000000E+00  0.11820470508E+04  0.11820470508E+04  0.00000000000E+00 0.  1.
          4   -1    0    0  501    0  0.00000000000E+00 -0.00000000000E+00 -0.34303067361E+02  0.34303067361E+02  0.00000000000E+00 0. -1.
         23    2    1    2    0    0 -0.41099280622E+02  0.14865093237E+03  0.80887611194E+03  0.83288188805E+03  0.12500169762E+03 0.  0.
         23    2    1    2    0    0  0.41099280622E+02 -0.14865093237E+03  0.33886787149E+03  0.38346823010E+03  0.91816113014E+02 0.  0.
          5    1    3    3  502    0 -0.27564946109E+02  0.25703463661E+02  0.44308505333E+02  0.58359471751E+02  0.47000000000E+01 0.  1.
         -5    1    3    3    0  502 -0.13534334513E+02  0.12294746871E+03  0.76456760661E+03  0.77452241630E+03  0.47000000000E+01 0.  1.
        -11    1    4    4    0    0  0.32603244333E+02 -0.41805625242E+02  0.20623815916E+03  0.21294332611E+03  0.00000000000E+00 0. -1.
         11    1    4    4    0    0  0.84960362885E+01 -0.10684530713E+03  0.13262971233E+03  0.17052490399E+03  0.00000000000E+00 0.  1.
<mgrwt>
<rscale>  0 0.19358381E+03</rscale>
<asrwt>0</asrwt>
<pdfrwt beam="2">  1        4 0.52773959E-02 0.19852374E+03</pdfrwt>
<pdfrwt beam="1">  1       -4 0.18185336E+00 0.19852374E+03</pdfrwt>
<totfact> 0.73903613E+01</totfact>
</mgrwt>
</event>
<event>
 8    1  0.1020295E-005  0.1635636E+03  0.7546771E-02  0.1192038E+00
          2   -1    0    0  501    0  0.00000000000E+00  0.00000000000E+00  0.40314576463E+03  0.40314576463E+03  0.00000000000E+00 0. -1.
         -2   -1    0    0    0  501 -0.00000000000E+00 -0.00000000000E+00 -0.58620310972E+02  0.58620310972E+02  0.00000000000E+00 0.  1.
         23    2    1    2    0    0 -0.10301786062E+03  0.22709677667E+02  0.22616634428E+03  0.27911334633E+03  0.12499854299E+03 0.  0.
         23    2    1    2    0    0  0.10301786062E+03 -0.22709677667E+02  0.11835910938E+03  0.18265272927E+03  0.90690306368E+02 0.  0.
          5    1    3    3  502    0 -0.11639690553E+03 -0.19914915377E+02  0.17294463793E+03  0.20946785257E+03  0.47000000000E+01 0. -1.
         -5    1    3    3    0  502  0.13379044910E+02  0.42624593044E+02  0.53221706349E+02  0.69645493764E+02  0.47000000000E+01 0. -1.
        -11    1    4    4    0    0  0.31939427127E+02  0.29997664088E+02  0.14378683852E+02  0.46116519873E+02  0.00000000000E+00 0.  1.
         11    1    4    4    0    0  0.71078433496E+02 -0.52707341754E+02  0.10398042553E+03  0.13653620940E+03  0.00000000000E+00 0. -1.
<mgrwt>
<rscale>  0 0.15707566E+03</rscale>
<asrwt>0</asrwt>
<pdfrwt beam="1">  1        2 0.62022424E-01 0.16356358E+03</pdfrwt>
<pdfrwt beam="2">  1       -2 0.90185096E-02 0.16356358E+03</pdfrwt>
<totfact> 0.59989750E+03</totfact>
</mgrwt>
</event>
<event>
 8    1  0.1020295E-005  0.1157716E+03  0.7546771E-02  0.1261882E+00
         -1   -1    0    0    0  501 -0.00000000000E+00  0.00000000000E+00  0.76927626804E+02  0.76927626804E+02  0.00000000000E+00 0.  1.
          1   -1    0    0  501    0  0.00000000000E+00 -0.00000000000E+00 -0.17619421282E+03  0.17619421282E+03  0.00000000000E+00 0. -1.
         23    2    1    2    0    0 -0.33347644474E+01 -0.36904401485E+00  0.27145720282E+01  0.11580337477E+03  0.11572292711E+03 0.  0.
         23    2    1    2    0    0  0.33347644474E+01  0.36904401485E+00 -0.10198115805E+03  0.13731846486E+03  0.91896394634E+02 0.  0.
          5    1    3    3  502    0 -0.20980537866E+02  0.38938415437E+01 -0.52834564859E+02  0.57174524178E+02  0.47000000000E+01 0. -1.
         -5    1    3    3    0  502  0.17645773419E+02 -0.42628855586E+01  0.55549136887E+02  0.58628850592E+02  0.47000000000E+01 0.  1.
        -11    1    4    4    0    0  0.22361394148E+02  0.22189498986E+02 -0.10363827217E+03  0.10832034561E+03  0.00000000000E+00 0.  1.
         11    1    4    4    0    0 -0.19026629700E+02 -0.21820454972E+02  0.16571141243E+01  0.28998119252E+02  0.00000000000E+00 0. -1.
<mgrwt>
<rscale>  0 0.10929451E+03</rscale>
<asrwt>0</asrwt>
<pdfrwt beam="2">  1        1 0.27106802E-01 0.11577155E+03</pdfrwt>
<pdfrwt beam="1">  1       -1 0.11835020E-01 0.11577155E+03</pdfrwt>
<totfact> 0.75573000E+03</totfact>
</mgrwt>
</event>
<event>
 8    1  0.1020295E-005  0.1329086E+03  0.7546771E-02  0.1238187E+00
          1   -1    0    0  501    0  0.00000000000E+00  0.00000000000E+00  0.43223485681E+03  0.43223485681E+03  0.00000000000E+00 0. -1.
         -1   -1    0    0    0  501 -0.00000000000E+00 -0.00000000000E+00 -0.30747065957E+02  0.30747065957E+02  0.00000000000E+00 0.  1.
         23    2    1    2    0    0  0.24491993039E+02  0.38151342774E+02  0.23760261154E+03  0.27224933115E+03  0.12493724274E+03 0.  0.
         23    2    1    2    0    0 -0.24491993039E+02 -0.38151342774E+02  0.16388517931E+03  0.19073259162E+03  0.86401312650E+02 0.  0.
          5    1    3    3  502    0  0.58369727631E+02  0.66038177504E+02  0.14678504102E+03  0.17127756497E+03  0.47000000000E+01 0. -1.
         -5    1    3    3    0  502 -0.33877734592E+02 -0.27886834730E+02  0.90817570516E+02  0.10097176619E+03  0.47000000000E+01 0. -1.
        -11    1    4    4    0    0 -0.33849719596E+02 -0.59009307276E+02  0.86528073427E+02  0.11006820319E+03  0.00000000000E+00 0.  1.
         11    1    4    4    0    0  0.93577265564E+01  0.20857964503E+02  0.77357105886E+02  0.80664388429E+02  0.00000000000E+00 0. -1.
<mgrwt>
<rscale>  0 0.12302622E+03</rscale>
<asrwt>0</asrwt>
<pdfrwt beam="1">  1        1 0.66497666E-01 0.13290861E+03</pdfrwt>
<pdfrwt beam="2">  1       -1 0.47303181E-02 0.13290861E+03</pdfrwt>
<totfact> 0.99417666E+03</totfact>
</mgrwt>
</event>
<event>
 8    1  0.1020295E-005  0.1466791E+03  0.7546771E-02  0.1214610E+00
         -2   -1    0    0    0  501 -0.00000000000E+00  0.00000000000E+00  0.21268465781E+02  0.21268465781E+02  0.00000000000E+00 0.  1.
          2   -1    0    0  501    0  0.00000000000E+00 -0.00000000000E+00 -0.83621197307E+03  0.83621197307E+03  0.00000000000E+00 0. -1.
         23    2    1    2    0    0 -0.74821078508E-01  0.76151417739E+02 -0.49654964056E+03  0.51776086103E+03  0.12536235339E+03 0.  0.
         23    2    1    2    0    0  0.74821078508E-01 -0.76151417739E+02 -0.31839386672E+03  0.33971957782E+03  0.90750719920E+02 0.  0.
          5    1    3    3  502    0 -0.37901879938E+02  0.45970514342E+02 -0.88290162589E+02  0.10661652546E+03  0.47000000000E+01 0.  1.
         -5    1    3    3    0  502  0.37827058859E+02  0.30180903397E+02 -0.40825947797E+03  0.41114433556E+03  0.47000000000E+01 0.  1.
        -11    1    4    4    0    0  0.43434413951E+02 -0.43849513351E+02 -0.20509204958E+03  0.21417767609E+03  0.00000000000E+00 0.  1.
         11    1    4    4    0    0 -0.43359592872E+02 -0.32301904388E+02 -0.11330181715E+03  0.12554190173E+03  0.00000000000E+00 0. -1.
<mgrwt>
<rscale>  0 0.13905184E+03</rscale>
<asrwt>0</asrwt>
<pdfrwt beam="2">  1        2 0.12864798E+00 0.14667912E+03</pdfrwt>
<pdfrwt beam="1">  1       -2 0.32720720E-02 0.14667912E+03</pdfrwt>
<totfact> 0.11991800E+04</totfact>
</mgrwt>
</event>
<event>
 8    1  0.1020295E-005  0.1608572E+03  0.7546771E-02  0.1195259E+00
          4   -1    0    0  501    0  0.00000000000E+00  0.00000000000E+00  0.19845687201E+03  0.19845687201E+03  0.00000000000E+00 0. -1.
         -4   -1    0    0    0  501 -0.00000000000E+00 -0.00000000000E+00 -0.11247465234E+03  0.11247465234E+03  0.00000000000E+00 0.  1.
         23    2    1    2    0    0  0.10110062965E+03  0.58185195847E+01  0.62902979521E+02  0.17271891550E+03  0.12497938412E+03 0.  0.
         23    2    1    2    0    0 -0.10110062965E+03 -0.58185195847E+01  0.23079240151E+02  0.13821260884E+03  0.91185971685E+02 0.  0.
          5    1    3    3  502    0  0.50587858767E+02  0.62882328751E+02  0.50622852538E+02  0.95383866156E+02  0.47000000000E+01 0. -1.
         -5    1    3    3    0  502  0.50512770882E+02 -0.57063809166E+02  0.12280126982E+02  0.77335049347E+02  0.47000000000E+01 0. -1.
        -11    1    4    4    0    0 -0.74990797188E+02  0.27883712873E+02  0.43360561916E+02  0.91001425462E+02  0.00000000000E+00 0. -1.
         11    1    4    4    0    0 -0.26109832461E+02 -0.33702232458E+02 -0.20281321765E+02  0.47211183382E+02  0.00000000000E+00 0.  1.
<mgrwt>
<rscale>  0 0.15432351E+03</rscale>
<asrwt>0</asrwt>
<pdfrwt beam="1">  1        4 0.30531826E-01 0.16085720E+03</pdfrwt>
<pdfrwt beam="2">  1       -4 0.17303793E-01 0.16085720E+03</pdfrwt>
<totfact> 0.51551067E+02</totfact>
</mgrwt>
</event>
<event>
 7    1  0.1020295E-005  0.1676209E+03  0.7546771E-02  0.1192167E+00
         -1   -1    0    0    0  501 -0.00000000000E+00  0.00000000000E+00  0.18093463983E+03  0.18093463983E+03  0.00000000000E+00 0.  1.
          1   -1    0    0  501    0  0.00000000000E+00 -0.00000000000E+00 -0.13705461595E+03  0.13705461595E+03  0.00000000000E+00 0. -1.
         23    2    1    2    0    0 -0.80223640172E+02  0.44179258035E+02 -0.33791406156E+02  0.13324726655E+03  0.90693636106E+02 0.  0.
          5    1    1    2  502    0  0.10402173281E+03  0.13323626881E+02  0.53402790021E+02  0.11777940360E+03  0.47000000000E+01 0. -1.
         -5    1    1    2    0  502 -0.23798092638E+02 -0.57502884916E+02  0.24268640012E+02  0.66962585634E+02  0.47000000000E+01 0.  1.
        -11    1    3    3    0    0 -0.89705379479E+02  0.56646692762E+02 -0.43668889640E+02  0.11472957261E+03  0.00000000000E+00 0. -1.
         11    1    3    3    0    0  0.94817393069E+01 -0.12467434728E+02  0.98774834841E+01  0.18517693943E+02  0.00000000000E+00 0.  1.
<mgrwt>
<rscale>  0 0.15696469E+03</rscale>
<asrwt>0</asrwt>
<pdfrwt beam="2">  1        1 0.21085325E-01 0.16762086E+03</pdfrwt>
<pdfrwt beam="1">  1       -1 0.27836099E-01 0.16762086E+03</pdfrwt>
<totfact> 0.27059450E+03</totfact>
</mgrwt>
</event>
<event>
 8    1  0.1020295E-005  0.1615697E+03  0.7546771E-02  0.1195851E+00
          2   -1    0    0  501    0  0.00000000000E+00  0.00000000000E+00  0.41772450807E+02  0.41772450807E+02  0.00000000000E+00 0.  1.
         -2   -1    0    0    0  501 -0.00000000000E+00 -0.00000000000E+00 -0.57593100590E+03  0.57593100590E+03  0.00000000000E+00 0. -1.
         23    2    1    2    0    0  0.37214764150E+02  0.95358866338E+02 -0.38780605523E+03  0.42011702796E+03  0.12500611443E+03 0.  0.
         23    2    1    2    0    0 -0.37214764150E+02 -0.95358866338E+02 -0.14635249986E+03  0.19758642875E+03  0.84516806321E+02 0.  0.
          5    1    3    3  502    0  0.42353705172E+02  0.24879656707E+02 -0.31390176979E+03  0.31775658095E+03  0.47000000000E+01 0. -1.
         -5    1    3    3    0  502 -0.51389410223E+01  0.70479209631E+02 -0.73904285443E+02  0.10236044701E+03  0.47000000000E+01 0. -1.
        -11    1    4    4    0    0 -0.93074336633E+01 -0.39977483410E+02 -0.12568494406E+03  0.13221774716E+03  0.00000000000E+00 0. -1.
         11    1    4    4    0    0 -0.27907330486E+02 -0.55381382928E+02 -0.20667555802E+02  0.65368681589E+02  0.00000000000E+00 0.  1.
<mgrwt>
<rscale>  0 0.15382428E+03</rscale>
<asrwt>0</asrwt>
<pdfrwt beam="1">  1        2 0.64265310E-02 0.16156974E+03</pdfrwt>
<pdfrwt beam="2">  1       -2 0.88604768E-01 0.16156974E+03</pdfrwt>
<totfact> 0.12502736E+03</totfact>
</mgrwt>
</event>
<event>
 8    1  0.1020295E-005  0.1600911E+03  0.7546771E-02  0.1196360E+00
         -1   -1    0    0    0  501 -0.00000000000E+00  0.00000000000E+00  0.22393449704E+02  0.22393449704E+02  0.00000000000E+00 0.  1.
          1   -1    0    0  501    0  0.00000000000E+00 -0.00000000000E+00 -0.10047469841E+04  0.10047469841E+04  0.00000000000E+00 0. -1.
         23    2    1    2    0    0 -0.88675082966E+02  0.46227805313E+02 -0.43898242718E+03  0.46726302450E+03  0.12501552852E+03 0.  0.
         23    2    1    2    0    0  0.88675082966E+02 -0.46227805313E+02 -0.54337110722E+03  0.55987740931E+03  0.90610556593E+02 0.  0.
          5    1    3    3  502    0 -0.89041836103E+02  0.19305464684E+02 -0.42831437984E+03  0.43792287851E+03  0.47000000000E+01 0.  1.
         -5    1    3    3    0  502  0.36675313734E+00  0.26922340630E+02 -0.10668047338E+02  0.29340145992E+02  0.47000000000E+01 0.  1.
        -11    1    4    4    0    0 -0.30152876111E+01 -0.18045638361E+02 -0.17460792921E+02  0.25290636858E+02  0.00000000000E+00 0.  1.
         11    1    4    4    0    0  0.91690370577E+02 -0.28182166953E+02 -0.52591031430E+03  0.53458677245E+03  0.00000000000E+00 0. -1.
<mgrwt>
<rscale>  0 0.15339662E+03</rscale>
<asrwt>0</asrwt>
<pdfrwt beam="2">  1        1 0.15457648E+00 0.16009111E+03</pdfrwt>
<pdfrwt beam="1">  1       -1 0.34451456E-02 0.16009111E+03</pdfrwt>
<totfact> 0.47891530E+03</totfact>
</mgrwt>
</event>
<event>
 8    1  0.1020295E-005  0.1264097E+03  0.7546771E-02  0.1246613E+00
          2   -1    0    0  501    0  0.00000000000E+00  0.00000000000E+00  0.28554702489E+03  0.28554702489E+03  0.00000000000E+00 0. -1.
         -2   -1    0    0    0  501 -0.00000000000E+00 -0.00000000000E+00 -0.53838294507E+02  0.53838294507E+02  0.00000000000E+00 0.  1.
         23    2    1    2    0    0 -0.15681748585E+02  0.10461259849E+02  0.53761350440E+02  0.13736699278E+03  0.12499621077E+03 0.  0.
         23    2    1    2    0    0  0.15681748585E+02 -0.10461259849E+02  0.17794737995E+03  0.20201832663E+03  0.93759154572E+02 0.  0.
          5    1    3    3  502    0 -0.63964860464E+02  0.14482850603E+02  0.12498145813E+01  0.65764035553E+02  0.47000000000E+01 0. -1.
         -5    1    3    3    0  502  0.48283111879E+02 -0.40215907534E+01  0.52511535859E+02  0.71602957223E+02  0.47000000000E+01 0. -1.
        -11    1    4    4    0    0 -0.18701670495E+02 -0.29888247540E+02  0.22949128329E+02  0.42068067598E+02  0.00000000000E+00 0.  1.
         11    1    4    4    0    0  0.34383419080E+02  0.19426987691E+02  0.15499825162E+03  0.15995025903E+03  0.00000000000E+00 0. -1.
<mgrwt>
<rscale>  0 0.11789352E+03</rscale>
<asrwt>0</asrwt>
<pdfrwt beam="1">  1        2 0.43930311E-01 0.12640968E+03</pdfrwt>
<pdfrwt beam="2">  1       -2 0.82828147E-02 0.12640968E+03</pdfrwt>
<totfact> 0.97197005E+03</totfact>
</mgrwt>
</event>
<event>
 8    1  0.1020295E-005  0.1681844E+03  0.7546771E-02  0.1186661E+00
         -2   -1    0    0    0  501 -0.00000000000E+00  0.00000000000E+00  0.25328300752E+03  0.25328300752E+03  0.00000000000E+00 0.  1.
          2   -1    0    0  501    0  0.00000000000E+00 -0.00000000000E+00 -0.10414444439E+03  0.10414444439E+03  0.00000000000E+00 0. -1.
         23    2    1    2    0    0 -0.21999563429E+02  0.11035289656E+03  0.12887998622E+03  0.21188689624E+03  0.12499705349E+03 0.  0.
         23    2    1    2    0    0  0.21999563429E+02 -0.11035289656E+03  0.20258576910E+02  0.14554055567E+03  0.90054987837E+02 0.  0.
          5    1    3    3  502    0 -0.41739149441E+02  0.82469745925E+02  0.16084102064E+02  0.93937233982E+02  0.47000000000E+01 0.  1.
         -5    1    3    3    0  502  0.19739586013E+02  0.27883150638E+02  0.11279588415E+03  0.11794966226E+03  0.47000000000E+01 0.  1.
        -11    1    4    4    0    0  0.78500154948E+01 -0.76608501928E+02  0.55354029582E+02  0.94839622004E+02  0.00000000000E+00 0.  1.
         11    1    4    4    0    0  0.14149547934E+02 -0.33744394635E+02 -0.35095452671E+02  0.50700933663E+02  0.00000000000E+00 0. -1.
<mgrwt>
<rscale>  0 0.16181665E+03</rscale>
<asrwt>0</asrwt>
<pdfrwt beam="2">  1        2 0.16022222E-01 0.16818444E+03</pdfrwt>
<pdfrwt beam="1">  1       -2 0.38966616E-01 0.16818444E+03</pdfrwt>
<totfact> 0.22065087E+03</totfact>
</mgrwt>
</event>
<event>
 8    1  0.1020295E-005  0.1725968E+03  0.7546771E-02  0.1182699E+00
         -1   -1    0    0    0  501 -0.00000000000E+00  0.00000000000E+00  0.32025626574E+02  0.32025626574E+02  0.00000000000E+00 0.  1.
          1   -1    0    0  501    0  0.00000000000E+00 -0.00000000000E+00 -0.84373345436E+03  0.84373345436E+03  0.00000000000E+00 0. -1.
         23    2    1    2    0    0  0.11785936862E+03 -0.16533137303E+02 -0.32863067211E+03  0.37119774168E+03  0.12500187748E+03 0.  0.
         23    2    1    2    0    0 -0.11785936862E+03  0.16533137303E+02 -0.48307715567E+03  0.50456133925E+03  0.83990662194E+02 0.  0.
          5    1    3    3  502    0  0.27346708768E+02  0.98490857786E+01 -0.17251277968E+00  0.29444298799E+02  0.47000000000E+01 0. -1.
         -5    1    3    3    0  502  0.90512659854E+02 -0.26382223082E+02 -0.32845815933E+03  0.34175344288E+03  0.47000000000E+01 0. -1.
        -11    1    4    4    0    0 -0.62472374139E+02 -0.31395905299E+02 -0.28266736908E+03  0.29118609504E+03  0.00000000000E+00 0. -1.
         11    1    4    4    0    0 -0.55386994482E+02  0.47929042602E+02 -0.20040978659E+03  0.21337524421E+03  0.00000000000E+00 0.  1.
<mgrwt>
<rscale>  0 0.16542994E+03</rscale>
<asrwt>0</asrwt>
<pdfrwt beam="2">  1        1 0.12980512E+00 0.17259677E+03</pdfrwt>
<pdfrwt beam="1">  1       -1 0.49270205E-02 0.17259677E+03</pdfrwt>
<totfact> 0.37590083E+03</totfact>
</mgrwt>
</event>
<event>
 8    1  0.1020295E-005  0.1651480E+03  0.7546771E-02  0.1190197E+00
         -2   -1    0    0    0  501 -0.00000000000E+00  0.00000000000E+00  0.13057468711E+03  0.13057468711E+03  0.00000000000E+00 0.  1.
          2   -1    0    0  501    0  0.00000000000E+00 -0.00000000000E+00 -0.18111590986E+03  0.18111590986E+03  0.00000000000E+00 0. -1.
         23    2    1    2    0    0 -0.62120806396E+01 -0.10775800266E+03 -0.11119310291E+02  0.16552188726E+03  0.12499391592E+03 0.  0.
         23    2    1    2    0    0  0.62120806396E+01  0.10775800266E+03 -0.39421912460E+02  0.14616870972E+03  0.90337298149E+02 0.  0.
          5    1    3    3  502    0  0.28286778672E+02  0.18529711019E+02 -0.16417278785E+01  0.34180071803E+02  0.47000000000E+01 0.  1.
         -5    1    3    3    0  502 -0.34498859311E+02 -0.12628771367E+03 -0.94775824123E+01  0.13134181546E+03  0.47000000000E+01 0.  1.
        -11    1    4    4    0    0 -0.10430609589E+02 -0.47520651215E+01  0.15974129196E+02  0.19660939522E+02  0.00000000000E+00 0.  1.
         11    1    4    4    0    0  0.16642690229E+02  0.11251006778E+03 -0.55396041656E+02  0.12650777020E+03  0.00000000000E+00 0. -1.
<mgrwt>
<rscale>  0 0.15867877E+03</rscale>
<asrwt>0</asrwt>
<pdfrwt beam="2">  1        2 0.27863986E-01 0.16514798E+03</pdfrwt>
<pdfrwt beam="1">  1       -2 0.20088413E-01 0.16514798E+03</pdfrwt>
<totfact> 0.38566160E+03</totfact>
</mgrwt>
</event>
<event>
 8    1  0.1020295E-005  0.1683097E+03  0.7546771E-02  0.1186361E+00
          2   -1    0    0  501    0  0.00000000000E+00  0.00000000000E+00  0.25890049937E+03  0.25890049937E+03  0.00000000000E+00 0. -1.
         -2   -1    0    0    0  501 -0.00000000000E+00 -0.00000000000E+00 -0.11905328095E+03  0.11905328095E+03  0.00000000000E+00 0.  1.
         23    2    1    2    0    0  0.10048097878E+03 -0.51155249080E+02 -0.11268344484E+02  0.16868649858E+03  0.12495948387E+03 0.  0.
         23    2    1    2    0    0 -0.10048097878E+03  0.51155249080E+02  0.15111556290E+03  0.20926728174E+03  0.90794246818E+02 0.  0.
          5    1    3    3  502    0  0.26301924389E+02 -0.40179689668E+02 -0.61602661217E+02  0.78250728798E+02  0.47000000000E+01 0.  1.
         -5    1    3    3    0  502  0.74179054388E+02 -0.10975559412E+02  0.50334316733E+02  0.90435769778E+02  0.47000000000E+01 0.  1.
        -11    1    4    4    0    0 -0.47895608572E+02  0.52709961515E+02  0.30116128997E+02  0.77326002025E+02  0.00000000000E+00 0.  1.
         11    1    4    4    0    0 -0.52585370205E+02 -0.15547124357E+01  0.12099943390E+03  0.13194127972E+03  0.00000000000E+00 0. -1.
<mgrwt>
<rscale>  0 0.16208683E+03</rscale>
<asrwt>0</asrwt>
<pdfrwt beam="1">  1        2 0.39830846E-01 0.16830971E+03</pdfrwt>
<pdfrwt beam="2">  1       -2 0.18315889E-01 0.16830971E+03</pdfrwt>
<totfact> 0.30654862E+03</totfact>
</mgrwt>
</event>
