<event>
 7    1  0.5206756E-006  0.1308483E+03  0.7546771E-02  0.1242553E+00
         -2   -1    0    0    0  501 -0.00000000000E+00  0.00000000000E+00  0.17635371199E+03  0.17635371199E+03  0.00000000000E+00 0.  1.
          2   -1    0    0  501    0  0.00000000000E+00 -0.00000000000E+00 -0.71870595772E+02  0.71870595772E+02  0.00000000000E+00 0. -1.
         23    2    1    2    0    0 -0.23837648225E+02 -0.30507326718E+02  0.50999703747E+02  0.14043592310E+03  0.12498939259E+03 0.  0.
          5    1    3    3  502    0  0.50011868436E+02 -0.10439611834E+02  0.63139437689E+01  0.51692633572E+02  0.47000000000E+01 0. -1.
         -5    1    3    3    0  502 -0.73849516661E+02 -0.20067714884E+02  0.44685759978E+02  0.88743289530E+02  0.47000000000E+01 0. -1.
        -11    1    1    2    0    0 -0.13247374350E+02  0.45763716795E+02  0.10082313508E+02  0.48697677026E+02  0.00000000000E+00 0. -1.
         11    1    1    2    0    0  0.37085022575E+02 -0.15256390077E+02  0.43401098965E+02  0.59090707636E+02  0.00000000000E+00 0.  1.
<mgrwt>
<rscale>  0 0.12033053E+03</rscale>
<asrwt>0</asrwt>
<pdfrwt beam="2">  1        2 0.11057015E-01 0.13084830E+03</pdfrwt>
<pdfrwt beam="1">  1       -2 0.27131340E-01 0.13084830E+03</pdfrwt>
<totfact> 0.65499966E+03</totfact>
</mgrwt>
</event>
<event>
 7    1  0.5206756E-006  0.2268355E+03  0.7546771E-02  0.1131774E+00
          1   -1    0    0  501    0  0.00000000000E+00  0.00000000000E+00  0.71990148343E+03  0.71990148343E+03  0.00000000000E+00 0. -1.
         -1   -1    0    0    0  501 -0.00000000000E+00 -0.00000000000E+00 -0.67972302772E+02  0.67972302772E+02  0.00000000000E+00 0.  1.
         23    2    1    2    0    0  0.14177418239E+03 -0.12541337588E+03  0.39180561256E+03  0.45273168585E+03  0.12500363074E+03 0.  0.
          5    1    3    3  502    0  0.57643139769E+02 -0.88843769220E+02  0.96088862873E+02  0.14307727444E+03  0.47000000000E+01 0. -1.
         -5    1    3    3    0  502  0.84131042617E+02 -0.36569606661E+02  0.29571674969E+03  0.30965441142E+03  0.47000000000E+01 0. -1.
        -11    1    1    2    0    0 -0.11235039987E+03  0.10257586566E+03  0.25583318927E+03  0.29764919166E+03  0.00000000000E+00 0. -1.
         11    1    1    2    0    0 -0.29423782519E+02  0.22837510224E+02  0.42903788215E+01  0.37492908682E+02  0.00000000000E+00 0.  1.
<mgrwt>
<rscale>  0 0.22285285E+03</rscale>
<asrwt>0</asrwt>
<pdfrwt beam="1">  1        1 0.11075407E+00 0.22683549E+03</pdfrwt>
<pdfrwt beam="2">  1       -1 0.10457278E-01 0.22683549E+03</pdfrwt>
<totfact> 0.15350877E+03</totfact>
</mgrwt>
</event>
<event>
 7    1  0.5206756E-006  0.2120762E+03  0.7546771E-02  0.1143736E+00
          2   -1    0    0  501    0  0.00000000000E+00  0.00000000000E+00  0.35127711445E+03  0.35127711445E+03  0.00000000000E+00 0. -1.
         -2   -1    0    0    0  501 -0.00000000000E+00 -0.00000000000E+00 -0.12279589023E+03  0.12279589023E+03  0.00000000000E+00 0.  1.
         23    2    1    2    0    0 -0.12220309769E+03 -0.12008150294E+03  0.68177957279E+02  0.22276566792E+03  0.12499257783E+03 0.  0.
          5    1    3    3  502    0 -0.71992552282E+02 -0.10704627654E+03 -0.92812383197E+01  0.12942203943E+03  0.47000000000E+01 0. -1.
         -5    1    3    3    0  502 -0.50210545406E+02 -0.13035226400E+02  0.77459195599E+02  0.93343628492E+02  0.47000000000E+01 0. -1.
        -11    1    1    2    0    0  0.12707570708E+03  0.13037959641E+03  0.14904208963E+03  0.23528837407E+03  0.00000000000E+00 0.  1.
         11    1    1    2    0    0 -0.48726093897E+01 -0.10298093468E+02  0.11261177303E+02  0.16018962688E+02  0.00000000000E+00 0. -1.
<mgrwt>
<rscale>  0 0.20728236E+03</rscale>
<asrwt>0</asrwt>
<pdfrwt beam="1">  1        2 0.54042633E-01 0.21207619E+03</pdfrwt>
<pdfrwt beam="2">  1       -2 0.18891676E-01 0.21207619E+03</pdfrwt>
<totfact> 0.21151020E+03</totfact>
</mgrwt>
</event>
<event>
 6    1  0.5206756E-006  0.2462966E+03  0.7546771E-02  0.1129880E+00
          4   -1    0    0  501    0  0.00000000000E+00  0.00000000000E+00  0.20771904239E+03  0.20771904239E+03  0.00000000000E+00 0. -1.
         -4   -1    0    0    0  501 -0.00000000000E+00 -0.00000000000E+00 -0.29612427725E+03  0.29612427725E+03  0.00000000000E+00 0.  1.
          5    1    1    2  502    0 -0.60094868792E+02  0.61897291452E+02  0.11682664703E+03  0.14530390016E+03  0.47000000000E+01 0. -1.
         -5    1    1    2    0  502 -0.86432455049E+02 -0.67521224914E+02 -0.33382708409E+02  0.11474397727E+03  0.47000000000E+01 0.  1.
        -11    1    1    2    0    0  0.80102106305E+01 -0.79416239535E+01  0.98095170093E+01  0.14948561446E+02  0.00000000000E+00 0. -1.
         11    1    1    2    0    0  0.13851711321E+03  0.13565557416E+02 -0.18165869049E+03  0.22884688076E+03  0.00000000000E+00 0.  1.
<mgrwt>
<rscale>  0 0.22545512E+03</rscale>
<asrwt>0</asrwt>
<pdfrwt beam="1">  1        4 0.31956776E-01 0.24629658E+03</pdfrwt>
<pdfrwt beam="2">  1       -4 0.45557581E-01 0.24629658E+03</pdfrwt>
<totfact> 0.80538614E+01</totfact>
</mgrwt>
</event>
<event>
 7    1  0.5206756E-006  0.1350370E+03  0.7546771E-02  0.1234162E+00
         -1   -1    0    0    0  501 -0.00000000000E+00  0.00000000000E+00  0.43031416490E+02  0.43031416490E+02  0.00000000000E+00 0.  1.
          1   -1    0    0  501    0  0.00000000000E+00 -0.00000000000E+00 -0.87126240657E+03  0.87126240657E+03  0.00000000000E+00 0. -1.
         23    2    1    2    0    0 -0.34216162799E+02 -0.37947925393E+02 -0.79730256198E+03  0.80865713227E+03  0.12499676556E+03 0.  0.
          5    1    3    3  502    0  0.36522176946E+00 -0.65324198183E+02 -0.21715947453E+03  0.22682088007E+03  0.47000000000E+01 0.  1.
         -5    1    3    3    0  502 -0.34581384569E+02  0.27376272789E+02 -0.58014308744E+03  0.58183625220E+03  0.47000000000E+01 0.  1.
        -11    1    1    2    0    0 -0.25278710031E+02  0.29395086021E+02 -0.17165329497E+01  0.38807611990E+02  0.00000000000E+00 0. -1.
         11    1    1    2    0    0  0.59494872830E+02  0.85528393722E+01 -0.29211895152E+02  0.66829078797E+02  0.00000000000E+00 0.  1.
<mgrwt>
<rscale>  0 0.12558219E+03</rscale>
<asrwt>0</asrwt>
<pdfrwt beam="2">  1        1 0.13404036E+00 0.13503697E+03</pdfrwt>
<pdfrwt beam="1">  1       -1 0.66202184E-02 0.13503697E+03</pdfrwt>
<totfact> 0.22862370E+03</totfact>
</mgrwt>
</event>
<event>
 7    1  0.5206756E-006  0.1233292E+03  0.7546771E-02  0.1245937E+00
         -1   -1    0    0    0  501 -0.00000000000E+00  0.00000000000E+00  0.44539265617E+02  0.44539265617E+02  0.00000000000E+00 0.  1.
          1   -1    0    0  501    0  0.00000000000E+00 -0.00000000000E+00 -0.16525218780E+04  0.16525218780E+04  0.00000000000E+00 0. -1.
         23    2    1    2    0    0  0.29883307309E+02 -0.43475753932E+02 -0.15854841412E+04  0.15902735797E+04  0.11147619937E+03 0.  0.
          5    1    3    3  502    0  0.22808183533E+02 -0.62224218280E+02 -0.15237660547E+04  0.15252138034E+04  0.47000000000E+01 0. -1.
         -5    1    3    3    0  502  0.70751237760E+01  0.18748464348E+02 -0.61718086519E+02  0.65059776324E+02  0.47000000000E+01 0.  1.
        -11    1    1    2    0    0 -0.48288398647E+02  0.50496659217E+02  0.81622435099E+01  0.70344184231E+02  0.00000000000E+00 0.  1.
         11    1    1    2    0    0  0.18405091338E+02 -0.70209052846E+01 -0.30660714689E+02  0.36443379693E+02  0.00000000000E+00 0. -1.
<mgrwt>
<rscale>  0 0.11829458E+03</rscale>
<asrwt>0</asrwt>
<pdfrwt beam="2">  1        1 0.25423413E+00 0.12332922E+03</pdfrwt>
<pdfrwt beam="1">  1       -1 0.68521947E-02 0.12332922E+03</pdfrwt>
<totfact> 0.63437207E+02</totfact>
</mgrwt>
</event>
<event>
 7    1  0.5206756E-006  0.1401851E+03  0.7546771E-02  0.1221134E+00
         -1   -1    0    0    0  501 -0.00000000000E+00  0.00000000000E+00  0.22764103023E+02  0.22764103023E+02  0.00000000000E+00 0.  1.
          1   -1    0    0  501    0  0.00000000000E+00 -0.00000000000E+00 -0.10377436206E+04  0.10377436206E+04  0.00000000000E+00 0. -1.
         23    2    1    2    0    0  0.62903735992E+02  0.84746251452E+01 -0.82421672012E+03  0.83605326735E+03  0.12499265915E+03 0.  0.
          5    1    3    3  502    0  0.64974904942E+02  0.25835760669E+02 -0.20643383159E+03  0.21800514129E+03  0.47000000000E+01 0. -1.
         -5    1    3    3    0  502 -0.20711689501E+01 -0.17361135524E+02 -0.61778288853E+03  0.61804812606E+03  0.47000000000E+01 0. -1.
        -11    1    1    2    0    0 -0.68747788059E+02  0.50118578509E+01 -0.19683184906E+03  0.20855252069E+03  0.00000000000E+00 0. -1.
         11    1    1    2    0    0  0.58440520672E+01 -0.13486482996E+02  0.60690516001E+01  0.15901935589E+02  0.00000000000E+00 0.  1.
<mgrwt>
<rscale>  0 0.13435416E+03</rscale>
<asrwt>0</asrwt>
<pdfrwt beam="2">  1        1 0.15965285E+00 0.14018511E+03</pdfrwt>
<pdfrwt beam="1">  1       -1 0.35021700E-02 0.14018511E+03</pdfrwt>
<totfact> 0.44030183E+03</totfact>
</mgrwt>
</event>
<event>
 7    1  0.5206756E-006  0.2045448E+03  0.7546771E-02  0.1149947E+00
         -1   -1    0    0    0  501 -0.00000000000E+00  0.00000000000E+00  0.72972794310E+02  0.72972794310E+02  0.00000000000E+00 0.  1.
          1   -1    0    0  501    0  0.00000000000E+00 -0.00000000000E+00 -0.55715521169E+03  0.55715521169E+03  0.00000000000E+00 0. -1.
         23    2    1    2    0    0 -0.13472079741E+03  0.89798543199E+02 -0.33115787890E+03  0.38923529610E+03  0.12500041344E+03 0.  0.
          5    1    3    3  502    0 -0.96437736007E+02  0.11407455719E+03 -0.19519916909E+03  0.24584150817E+03  0.47000000000E+01 0. -1.
         -5    1    3    3    0  502 -0.38283061408E+02 -0.24276013994E+02 -0.13595870980E+03  0.14339378793E+03  0.47000000000E+01 0. -1.
        -11    1    1    2    0    0 -0.30832132276E+01 -0.36247221172E+02 -0.17651759849E+02  0.40434538111E+02  0.00000000000E+00 0.  1.
         11    1    1    2    0    0  0.13780401064E+03 -0.53551322027E+02 -0.13537277863E+03  0.20045817178E+03  0.00000000000E+00 0. -1.
<mgrwt>
<rscale>  0 0.19975419E+03</rscale>
<asrwt>0</asrwt>
<pdfrwt beam="2">  1        1 0.85716191E-01 0.20454480E+03</pdfrwt>
<pdfrwt beam="1">  1       -1 0.11226583E-01 0.20454480E+03</pdfrwt>
<totfact> 0.19698386E+03</totfact>
</mgrwt>
</event>
<event>
 7    1  0.5206756E-006  0.1174456E+03  0.7546771E-02  0.1327006E+00
         -2   -1    0    0    0  501 -0.00000000000E+00  0.00000000000E+00  0.15212431455E+03  0.15212431455E+03  0.00000000000E+00 0.  1.
          2   -1    0    0  501    0  0.00000000000E+00 -0.00000000000E+00 -0.51284543335E+02  0.51284543335E+02  0.00000000000E+00 0. -1.
         23    2    1    2    0    0 -0.15117570840E+02  0.60809288025E+01  0.20912767476E+02  0.11929299308E+03  0.11630974040E+03 0.  0.
          5    1    3    3  502    0 -0.84974574146E+01 -0.29853910068E+01 -0.48127603721E+02  0.49188165060E+02  0.47000000000E+01 0. -1.
         -5    1    3    3    0  502 -0.66201134257E+01  0.90663198093E+01  0.69040371197E+02  0.70104828020E+02  0.47000000000E+01 0.  1.
        -11    1    1    2    0    0  0.77759462097E+01 -0.13133214000E+02  0.57416774394E+02  0.59410711418E+02  0.00000000000E+00 0.  1.
         11    1    1    2    0    0  0.73416246305E+01  0.70522851974E+01  0.22510229347E+02  0.24705153389E+02  0.00000000000E+00 0. -1.
<mgrwt>
<rscale>  0 0.80725230E+02</rscale>
<asrwt>0</asrwt>
<pdfrwt beam="2">  1        2 0.78899298E-02 0.11744562E+03</pdfrwt>
<pdfrwt beam="1">  1       -2 0.23403741E-01 0.11744562E+03</pdfrwt>
<totfact> 0.12727614E+04</totfact>
</mgrwt>
</event>
<event>
 7    1  0.5206756E-006  0.1418114E+03  0.7546771E-02  0.1221232E+00
          1   -1    0    0  501    0  0.00000000000E+00  0.00000000000E+00  0.47481721834E+03  0.47481721834E+03  0.00000000000E+00 0. -1.
         -1   -1    0    0    0  501 -0.00000000000E+00 -0.00000000000E+00 -0.34989669528E+02  0.34989669528E+02  0.00000000000E+00 0.  1.
         23    2    1    2    0    0  0.64494001890E+02  0.17544473187E+02  0.21227526018E+03  0.25528660219E+03  0.12507269228E+03 0.  0.
          5    1    3    3  502    0 -0.27260898856E+02  0.58040735644E+01  0.12454167206E+03  0.12770889537E+03  0.47000000000E+01 0. -1.
         -5    1    3    3    0  502  0.91754900746E+02  0.11740399622E+02  0.87733588116E+02  0.12757770682E+03  0.47000000000E+01 0. -1.
        -11    1    1    2    0    0 -0.63363724838E+01 -0.15585234511E+02 -0.26905420521E+01  0.17037845155E+02  0.00000000000E+00 0.  1.
         11    1    1    2    0    0 -0.58157629406E+02 -0.19592386760E+01  0.23024283069E+03  0.23748244053E+03  0.00000000000E+00 0. -1.
<mgrwt>
<rscale>  0 0.13428528E+03</rscale>
<asrwt>0</asrwt>
<pdfrwt beam="1">  1        1 0.73048798E-01 0.14181136E+03</pdfrwt>
<pdfrwt beam="2">  1       -1 0.53830264E-02 0.14181136E+03</pdfrwt>
<totfact> 0.73095652E+03</totfact>
</mgrwt>
</event>
<event>
 7    1  0.5206756E-006  0.1336541E+03  0.7546771E-02  0.1246991E+00
         -2   -1    0    0    0  501 -0.00000000000E+00  0.00000000000E+00  0.26658672406E+03  0.26658672406E+03  0.00000000000E+00 0.  1.
          2   -1    0    0  501    0  0.00000000000E+00 -0.00000000000E+00 -0.44447224817E+02  0.44447224817E+02  0.00000000000E+00 0. -1.
         23    2    1    2    0    0 -0.80526360403E+01 -0.46623004164E+02  0.10994850963E+03  0.17306670800E+03  0.12499944474E+03 0.  0.
          5    1    3    3  502    0 -0.33746869996E+02  0.30874323823E+02  0.16414661013E+02  0.48822189650E+02  0.47000000000E+01 0. -1.
         -5    1    3    3    0  502  0.25694233956E+02 -0.77497327987E+02  0.93533848613E+02  0.12424451835E+03  0.47000000000E+01 0. -1.
        -11    1    1    2    0    0  0.15537628833E+02  0.31060139092E+02  0.12684906690E+02  0.36973734027E+02  0.00000000000E+00 0. -1.
         11    1    1    2    0    0 -0.74849927923E+01  0.15562865071E+02  0.99506082923E+02  0.10099350685E+03  0.00000000000E+00 0.  1.
<mgrwt>
<rscale>  0 0.11767006E+03</rscale>
<asrwt>0</asrwt>
<pdfrwt beam="2">  1        2 0.68380347E-02 0.13365407E+03</pdfrwt>
<pdfrwt beam="1">  1       -2 0.41013341E-01 0.13365407E+03</pdfrwt>
<totfact> 0.55954154E+03</totfact>
</mgrwt>
</event>
<event>
 7    1  0.5206756E-006  0.1564159E+03  0.7546771E-02  0.1201272E+00
          2   -1    0    0  501    0  0.00000000000E+00  0.00000000000E+00  0.31167174886E+04  0.31167174886E+04  0.00000000000E+00 0. -1.
         -2   -1    0    0    0  501 -0.00000000000E+00 -0.00000000000E+00 -0.26340318147E+02  0.26340318147E+02  0.00000000000E+00 0.  1.
         23    2    1    2    0    0  0.81245438237E+02  0.47263069716E+02  0.29404495449E+04  0.29446068454E+04  0.12502531421E+03 0.  0.
          5    1    3    3  502    0  0.71455934112E+02 -0.18588365024E+02  0.88943002857E+03  0.89250173308E+03  0.47000000000E+01 0.  1.
         -5    1    3    3    0  502  0.97895041247E+01  0.65851434740E+02  0.20510195163E+04  0.20521051123E+04  0.47000000000E+01 0.  1.
        -11    1    1    2    0    0  0.48516812445E+01  0.20030666356E+02  0.27160593875E+02  0.34094930198E+02  0.00000000000E+00 0. -1.
         11    1    1    2    0    0 -0.86097119481E+02 -0.67293736072E+02  0.12276703176E+03  0.16435603118E+03  0.00000000000E+00 0.  1.
<mgrwt>
<rscale>  0 0.14935200E+03</rscale>
<asrwt>0</asrwt>
<pdfrwt beam="1">  1        2 0.47949471E+00 0.15641595E+03</pdfrwt>
<pdfrwt beam="2">  1       -2 0.40523591E-02 0.15641595E+03</pdfrwt>
<totfact> 0.49589122E+02</totfact>
</mgrwt>
</event>
<event>
 7    1  0.5206756E-006  0.1482327E+03  0.7546771E-02  0.1213533E+00
         -2   -1    0    0    0  501 -0.00000000000E+00  0.00000000000E+00  0.34418933240E+03  0.34418933240E+03  0.00000000000E+00 0.  1.
          2   -1    0    0  501    0  0.00000000000E+00 -0.00000000000E+00 -0.52273245417E+02  0.52273245417E+02  0.00000000000E+00 0. -1.
         23    2    1    2    0    0 -0.29107899104E+02 -0.74154411708E+02  0.13520414586E+03  0.20063171887E+03  0.12500711577E+03 0.  0.
          5    1    3    3  502    0 -0.59732526634E+02  0.32077360683E+01  0.82557465524E+02  0.10205924467E+03  0.47000000000E+01 0.  1.
         -5    1    3    3    0  502  0.30624627531E+02 -0.77362147776E+02  0.52646680339E+02  0.98572474204E+02  0.47000000000E+01 0.  1.
        -11    1    1    2    0    0  0.13889311703E+02  0.15794860169E+02  0.12675734562E+03  0.12849052593E+03  0.00000000000E+00 0.  1.
         11    1    1    2    0    0  0.15218587401E+02  0.58359551539E+02  0.29954595508E+02  0.67340333013E+02  0.00000000000E+00 0. -1.
<mgrwt>
<rscale>  0 0.13984849E+03</rscale>
<asrwt>0</asrwt>
<pdfrwt beam="2">  1        2 0.80420380E-02 0.14823267E+03</pdfrwt>
<pdfrwt beam="1">  1       -2 0.52952203E-01 0.14823267E+03</pdfrwt>
<totfact> 0.27872872E+03</totfact>
</mgrwt>
</event>
<event>
 7    1  0.5206756E-006  0.1277581E+03  0.7546771E-02  0.1230992E+00
          1   -1    0    0  501    0  0.00000000000E+00  0.00000000000E+00  0.42300023602E+02  0.42300023602E+02  0.00000000000E+00 0. -1.
         -1   -1    0    0    0  501 -0.00000000000E+00 -0.00000000000E+00 -0.42182639719E+03  0.42182639719E+03  0.00000000000E+00 0.  1.
         23    2    1    2    0    0  0.10077163230E+02  0.21848223574E+02 -0.12043072768E+03  0.17524461857E+03  0.12501288764E+03 0.  0.
          5    1    3    3  502    0 -0.12692472901E+02  0.71334776739E+02 -0.70370345681E+02  0.10111293088E+03  0.47000000000E+01 0.  1.
         -5    1    3    3    0  502  0.22769636131E+02 -0.49486553165E+02 -0.50060381998E+02  0.74131687688E+02  0.47000000000E+01 0.  1.
        -11    1    1    2    0    0  0.21981762017E+02  0.30659954932E+02 -0.21440279760E+02  0.43392583398E+02  0.00000000000E+00 0. -1.
         11    1    1    2    0    0 -0.32058925246E+02 -0.52508178506E+02 -0.23765536615E+03  0.24548921882E+03  0.00000000000E+00 0.  1.
<mgrwt>
<rscale>  0 0.12764525E+03</rscale>
<asrwt>0</asrwt>
<pdfrwt beam="1">  1        1 0.65076955E-02 0.12775814E+03</pdfrwt>
<pdfrwt beam="2">  1       -1 0.64896373E-01 0.12775814E+03</pdfrwt>
<totfact> 0.27703854E+03</totfact>
</mgrwt>
</event>
<event>
 6    1  0.5206756E-006  0.2171335E+03  0.7546771E-02  0.1140388E+00
         -3   -1    0    0    0  501 -0.00000000000E+00  0.00000000000E+00  0.43551391778E+03  0.43551391778E+03  0.00000000000E+00 0.  1.
          3   -1    0    0  501    0  0.00000000000E+00 -0.00000000000E+00 -0.12437761912E+03  0.12437761912E+03  0.00000000000E+00 0. -1.
          5    1    1    2  502    0 -0.78453949423E+02 -0.15191353118E+03  0.28937020954E+03  0.33613977941E+03  0.47000000000E+01 0. -1.
         -5    1    1    2    0  502 -0.23758654591E+02  0.12472369795E+02  0.21060272262E+01  0.27323232366E+02  0.47000000000E+01 0.  1.
        -11    1    1    2    0    0  0.90608254287E+02  0.14786687180E+03  0.33355739228E+02  0.17659862078E+03  0.00000000000E+00 0.  1.
         11    1    1    2    0    0  0.11604349727E+02 -0.84257104211E+01 -0.13695677335E+02  0.19829904346E+02  0.00000000000E+00 0. -1.
<mgrwt>
<rscale>  0 0.21149482E+03</rscale>
<asrwt>0</asrwt>
<pdfrwt beam="2">  1        3 0.19135018E-01 0.21713352E+03</pdfrwt>
<pdfrwt beam="1">  1       -3 0.67002141E-01 0.21713352E+03</pdfrwt>
<totfact> 0.13042029E+02</totfact>
</mgrwt>
</event>
<event>
 7    1  0.5206756E-006  0.1461059E+03  0.7546771E-02  0.1215306E+00
         -2   -1    0    0    0  501 -0.00000000000E+00  0.00000000000E+00  0.17832434874E+03  0.17832434874E+03  0.00000000000E+00 0.  1.
          2   -1    0    0  501    0  0.00000000000E+00 -0.00000000000E+00 -0.10429472150E+03  0.10429472150E+03  0.00000000000E+00 0. -1.
         23    2    1    2    0    0  0.71296901807E+02 -0.25280621809E+02  0.58169377265E+01  0.14622162101E+03  0.12499827055E+03 0.  0.
          5    1    3    3  502    0  0.13339097296E+02 -0.46800335149E+02 -0.44700116938E+02  0.66244949551E+02  0.47000000000E+01 0.  1.
         -5    1    3    3    0  502  0.57957804511E+02  0.21519713340E+02  0.50517054665E+02  0.79976671461E+02  0.47000000000E+01 0.  1.
        -11    1    1    2    0    0 -0.17587316472E+02  0.10475122258E+02  0.77285611587E+02  0.79950657567E+02  0.00000000000E+00 0.  1.
         11    1    1    2    0    0 -0.53709585334E+02  0.14805499551E+02 -0.90729220795E+01  0.56446791661E+02  0.00000000000E+00 0. -1.
<mgrwt>
<rscale>  0 0.13854076E+03</rscale>
<asrwt>0</asrwt>
<pdfrwt beam="2">  1        2 0.16045342E-01 0.14610587E+03</pdfrwt>
<pdfrwt beam="1">  1       -2 0.27434515E-01 0.14610587E+03</pdfrwt>
<totfact> 0.41573218E+03</totfact>
</mgrwt>
</event>
<event>
 7    1  0.5206756E-006  0.1625183E+03  0.7546771E-02  0.1201190E+00
          1   -1    0    0  501    0  0.00000000000E+00  0.00000000000E+00  0.93186159245E+02  0.93186159245E+02  0.00000000000E+00 0. -1.
         -1   -1    0    0    0  501 -0.00000000000E+00 -0.00000000000E+00 -0.21511086665E+03  0.21511086665E+03  0.00000000000E+00 0.  1.
         23    2    1    2    0    0  0.36505438373E+02 -0.97234022675E+02 -0.43715505391E+02  0.16829510653E+03  0.12500038109E+03 0.  0.
          5    1    3    3  502    0  0.35417156942E+02 -0.10366281065E+03 -0.77045825932E+02  0.13400933778E+03  0.47000000000E+01 0.  1.
         -5    1    3    3    0  502  0.10882814313E+01  0.64287879767E+01  0.33330320541E+02  0.34285768749E+02  0.47000000000E+01 0.  1.
        -11    1    1    2    0    0 -0.23519089101E+02  0.68952073855E+02 -0.80774693702E+02  0.10877539788E+03  0.00000000000E+00 0.  1.
         11    1    1    2    0    0 -0.12986349272E+02  0.28281948820E+02  0.25654916910E+01  0.31226521486E+02  0.00000000000E+00 0. -1.
<mgrwt>
<rscale>  0 0.14941819E+03</rscale>
<asrwt>0</asrwt>
<pdfrwt beam="1">  1        1 0.14336332E-01 0.16251830E+03</pdfrwt>
<pdfrwt beam="2">  1       -1 0.33093979E-01 0.16251830E+03</pdfrwt>
<totfact> 0.33169018E+03</totfact>
</mgrwt>
</event>
<event>
 7    1  0.5206756E-006  0.1467048E+03  0.7546771E-02  0.1214320E+00
          2   -1    0    0  501    0  0.00000000000E+00  0.00000000000E+00  0.10619255672E+04  0.10619255672E+04  0.00000000000E+00 0.  1.
         -2   -1    0    0    0  501 -0.00000000000E+00 -0.00000000000E+00 -0.19175358797E+02  0.19175358797E+02  0.00000000000E+00 0. -1.
         23    2    1    2    0    0 -0.51243169805E+02 -0.57175130298E+02  0.76401608102E+03  0.77797356158E+03  0.12500972961E+03 0.  0.
          5    1    3    3  502    0  0.10576244337E+02  0.15835047584E+02  0.20717550639E+02  0.28529153172E+02  0.47000000000E+01 0.  1.
         -5    1    3    3    0  502 -0.61819414142E+02 -0.73010177882E+02  0.74329853038E+03  0.74944440841E+03  0.47000000000E+01 0.  1.
        -11    1    1    2    0    0  0.52299983140E+02 -0.84563505488E+01  0.13864815199E+03  0.14842542959E+03  0.00000000000E+00 0.  1.
         11    1    1    2    0    0 -0.10568133348E+01  0.65631480847E+02  0.14008597540E+03  0.15470193482E+03  0.00000000000E+00 0. -1.
<mgrwt>
<rscale>  0 0.13926575E+03</rscale>
<asrwt>0</asrwt>
<pdfrwt beam="1">  1        2 0.16337312E+00 0.14670477E+03</pdfrwt>
<pdfrwt beam="2">  1       -2 0.29500560E-02 0.14670477E+03</pdfrwt>
<totfact> 0.10137394E+04</totfact>
</mgrwt>
</event>
<event>
 7    1  0.5206756E-006  0.1338308E+03  0.7546771E-02  0.1234629E+00
          2   -1    0    0  501    0  0.00000000000E+00  0.00000000000E+00  0.11505707933E+03  0.11505707933E+03  0.00000000000E+00 0. -1.
         -2   -1    0    0    0  501 -0.00000000000E+00 -0.00000000000E+00 -0.14119472685E+03  0.14119472685E+03  0.00000000000E+00 0.  1.
         23    2    1    2    0    0 -0.32581752286E+01 -0.47668566322E+02  0.32778829181E+02  0.13778657011E+03  0.12501111687E+03 0.  0.
          5    1    3    3  502    0 -0.27808628894E+02 -0.34794587603E+02 -0.39821490514E+02  0.59931830225E+02  0.47000000000E+01 0.  1.
         -5    1    3    3    0  502  0.24550453665E+02 -0.12873978720E+02  0.72600319695E+02  0.77854739888E+02  0.47000000000E+01 0.  1.
        -11    1    1    2    0    0 -0.23210929029E+02  0.46597750164E+02  0.19382066564E+01  0.52094665675E+02  0.00000000000E+00 0. -1.
         11    1    1    2    0    0  0.26469104258E+02  0.10708161580E+01 -0.60854683353E+02  0.66370570387E+02  0.00000000000E+00 0.  1.
<mgrwt>
<rscale>  0 0.12528232E+03</rscale>
<asrwt>0</asrwt>
<pdfrwt beam="1">  1        2 0.17701089E-01 0.13383082E+03</pdfrwt>
<pdfrwt beam="2">  1       -2 0.21722266E-01 0.13383082E+03</pdfrwt>
<totfact> 0.55425687E+03</totfact>
</mgrwt>
</event>
<event>
 7    1  0.5206756E-006  0.1735051E+03  0.7546771E-02  0.1180308E+00
          1   -1    0    0  501    0  0.00000000000E+00  0.00000000000E+00  0.35474705614E+03  0.35474705614E+03  0.00000000000E+00 0. -1.
         -1   -1    0    0    0  501 -0.00000000000E+00 -0.00000000000E+00 -0.19164260065E+03  0.19164260065E+03  0.00000000000E+00 0.  1.
         23    2    1    2    0    0 -0.11986740921E+03 -0.10380298571E+02  0.29725792974E+03  0.34418930734E+03  0.12501222384E+03 0.  0.
          5    1    3    3  502    0  0.41952535152E+01  0.39285437702E+02  0.68459373208E+02  0.79181573282E+02  0.47000000000E+01 0. -1.
         -5    1    3    3    0  502 -0.12406266272E+03 -0.49665736273E+02  0.22879855653E+03  0.26500773406E+03  0.47000000000E+01 0. -1.
        -11    1    1    2    0    0  0.33610466768E+02  0.70207625858E+01 -0.10596966410E+03  0.11139355589E+03  0.00000000000E+00 0.  1.
         11    1    1    2    0    0  0.86256942440E+02  0.33595359855E+01 -0.28183810158E+02  0.90806793557E+02  0.00000000000E+00 0. -1.
<mgrwt>
<rscale>  0 0.16766201E+03</rscale>
<asrwt>0</asrwt>
<pdfrwt beam="1">  1        1 0.54576470E-01 0.17350505E+03</pdfrwt>
<pdfrwt beam="2">  1       -1 0.29483477E-01 0.17350505E+03</pdfrwt>
<totfact> 0.74630503E+02</totfact>
</mgrwt>
</event>
<event>
 7    1  0.5206756E-006  0.2355782E+03  0.7546771E-02  0.1125240E+00
          2   -1    0    0  501    0  0.00000000000E+00  0.00000000000E+00  0.79184950322E+03  0.79184950322E+03  0.00000000000E+00 0.  1.
         -2   -1    0    0    0  501 -0.00000000000E+00 -0.00000000000E+00 -0.67003826709E+02  0.67003826709E+02  0.00000000000E+00 0. -1.
         23    2    1    2    0    0 -0.24314671018E+02  0.19819668018E+03  0.32040182954E+03  0.39768630542E+03  0.12499575148E+03 0.  0.
          5    1    3    3  502    0 -0.67156200450E+02  0.74254777259E+02  0.10275606421E+03  0.14354311526E+03  0.47000000000E+01 0.  1.
         -5    1    3    3    0  502  0.42841529432E+02  0.12394190292E+03  0.21764576533E+03  0.25414319017E+03  0.47000000000E+01 0.  1.
        -11    1    1    2    0    0 -0.32976131311E+02 -0.11367569738E+03  0.19393445316E+03  0.22720070759E+03  0.00000000000E+00 0. -1.
         11    1    1    2    0    0  0.57290802329E+02 -0.84520982803E+02  0.21050939381E+03  0.23396631691E+03  0.00000000000E+00 0.  1.
<mgrwt>
<rscale>  0 0.23199929E+03</rscale>
<asrwt>0</asrwt>
<pdfrwt beam="1">  1        2 0.12182299E+00 0.23557815E+03</pdfrwt>
<pdfrwt beam="2">  1       -2 0.10308282E-01 0.23557815E+03</pdfrwt>
<totfact> 0.22639875E+03</totfact>
</mgrwt>
</event>
<event>
 7    1  0.5206756E-006  0.1703861E+03  0.7546771E-02  0.1183601E+00
          2   -1    0    0  501    0  0.00000000000E+00  0.00000000000E+00  0.13081461181E+04  0.13081461181E+04  0.00000000000E+00 0. -1.
         -2   -1    0    0    0  501 -0.00000000000E+00 -0.00000000000E+00 -0.19426120139E+02  0.19426120139E+02  0.00000000000E+00 0.  1.
         23    2    1    2    0    0 -0.99458593443E+02  0.59297019682E+02  0.70051180834E+03  0.72093565543E+03  0.12499310898E+03 0.  0.
          5    1    3    3  502    0 -0.12076478094E+03  0.17343337099E+02  0.46802234096E+03  0.48368577124E+03  0.47000000000E+01 0. -1.
         -5    1    3    3    0  502  0.21306187497E+02  0.41953682584E+02  0.23248946738E+03  0.23724988419E+03  0.47000000000E+01 0. -1.
        -11    1    1    2    0    0 -0.16324112999E+02 -0.75650583937E+01  0.38590220038E+02  0.42578302646E+02  0.00000000000E+00 0.  1.
         11    1    1    2    0    0  0.11578270644E+03 -0.51731961289E+02  0.54961796955E+03  0.56405828013E+03  0.00000000000E+00 0. -1.
<mgrwt>
<rscale>  0 0.16459836E+03</rscale>
<asrwt>0</asrwt>
<pdfrwt beam="1">  1        2 0.20125318E+00 0.17038611E+03</pdfrwt>
<pdfrwt beam="2">  1       -2 0.29886349E-02 0.17038611E+03</pdfrwt>
<totfact> 0.72828268E+03</totfact>
</mgrwt>
</event>
<event>
 7    1  0.5206756E-006  0.1634786E+03  0.7546771E-02  0.1192147E+00
         -2   -1    0    0    0  501 -0.00000000000E+00  0.00000000000E+00  0.14807194517E+03  0.14807194517E+03  0.00000000000E+00 0.  1.
          2   -1    0    0  501    0  0.00000000000E+00 -0.00000000000E+00 -0.15633164958E+03  0.15633164958E+03  0.00000000000E+00 0. -1.
         23    2    1    2    0    0  0.78941929298E+02  0.69766205708E+02 -0.21000004593E+02  0.16482191420E+03  0.12500444611E+03 0.  0.
          5    1    3    3  502    0  0.65274775204E+02  0.26047841752E+02 -0.68792502027E+02  0.98457019420E+02  0.47000000000E+01 0. -1.
         -5    1    3    3    0  502  0.13667154094E+02  0.43718363956E+02  0.47792497434E+02  0.66364894779E+02  0.47000000000E+01 0. -1.
        -11    1    1    2    0    0 -0.55621401792E+02 -0.39552224900E+02 -0.36407879550E+02  0.77354072454E+02  0.00000000000E+00 0. -1.
         11    1    1    2    0    0 -0.23320527506E+02 -0.30213980808E+02  0.49148179731E+02  0.62227608104E+02  0.00000000000E+00 0.  1.
<mgrwt>
<rscale>  0 0.15698158E+03</rscale>
<asrwt>0</asrwt>
<pdfrwt beam="2">  1        2 0.24051023E-01 0.16347863E+03</pdfrwt>
<pdfrwt beam="1">  1       -2 0.22780299E-01 0.16347863E+03</pdfrwt>
<totfact> 0.36556052E+03</totfact>
</mgrwt>
</event>
<event>
 7    1  0.5206756E-006  0.1926853E+03  0.7546771E-02  0.1161477E+00
          1   -1    0    0  501    0  0.00000000000E+00  0.00000000000E+00  0.13981213648E+04  0.13981213648E+04  0.00000000000E+00 0. -1.
         -1   -1    0    0    0  501 -0.00000000000E+00 -0.00000000000E+00 -0.34112841720E+02  0.34112841720E+02  0.00000000000E+00 0.  1.
         23    2    1    2    0    0 -0.51301888490E+01 -0.14655131765E+03  0.11105711495E+04  0.11271627622E+04  0.12499602719E+03 0.  0.
          5    1    3    3  502    0  0.18224981032E+02 -0.63576047625E+01  0.49424859517E+03  0.49464768563E+03  0.47000000000E+01 0.  1.
         -5    1    3    3    0  502 -0.23355169881E+02 -0.14019371289E+03  0.61632255432E+03  0.63251507655E+03  0.47000000000E+01 0.  1.
        -11    1    1    2    0    0 -0.10696994807E+02  0.34768686577E+02  0.11603332289E+02  0.38182778637E+02  0.00000000000E+00 0.  1.
         11    1    1    2    0    0  0.15827183656E+02  0.11178263108E+03  0.24183404134E+03  0.26688866574E+03  0.00000000000E+00 0. -1.
<mgrwt>
<rscale>  0 0.18669479E+03</rscale>
<asrwt>0</asrwt>
<pdfrwt beam="1">  1        1 0.21509555E+00 0.19268527E+03</pdfrwt>
<pdfrwt beam="2">  1       -1 0.52481306E-02 0.19268527E+03</pdfrwt>
<totfact> 0.13735183E+03</totfact>
</mgrwt>
</event>
<event>
 6    1  0.5206756E-006  0.1312219E+03  0.7546771E-02  0.1242977E+00
          2   -1    0    0  501    0  0.00000000000E+00  0.00000000000E+00  0.16806740649E+03  0.16806740649E+03  0.00000000000E+00 0. -1.
         -2   -1    0    0    0  501 -0.00000000000E+00 -0.00000000000E+00 -0.81272828357E+02  0.81272828357E+02  0.00000000000E+00 0.  1.
          5    1    1    2  502    0 -0.38905812969E+01 -0.65310322160E+02  0.62323327976E+02  0.90481279906E+02  0.47000000000E+01 0. -1.
         -5    1    1    2    0  502  0.14103671858E+02  0.60411640451E+02  0.24501843568E+02  0.66864865214E+02  0.47000000000E+01 0.  1.
        -11    1    1    2    0    0 -0.90004156771E+01 -0.42055836490E+02  0.95526416917E+01  0.44056257542E+02  0.00000000000E+00 0. -1.
         11    1    1    2    0    0 -0.12126748839E+01  0.46954518199E+02 -0.95832351009E+01  0.47937832186E+02  0.00000000000E+00 0.  1.
<mgrwt>
<rscale>  0 0.12007285E+03</rscale>
<asrwt>0</asrwt>
<pdfrwt beam="1">  1        2 0.25856524E-01 0.13122195E+03</pdfrwt>
<pdfrwt beam="2">  1       -2 0.12503512E-01 0.13122195E+03</pdfrwt>
<totfact> 0.90133671E+03</totfact>
</mgrwt>
</event>
<event>
 7    1  0.5206756E-006  0.1632412E+03  0.7546771E-02  0.1192295E+00
          2   -1    0    0  501    0  0.00000000000E+00  0.00000000000E+00  0.86121849157E+03  0.86121849157E+03  0.00000000000E+00 0. -1.
         -2   -1    0    0    0  501 -0.00000000000E+00 -0.00000000000E+00 -0.34512457929E+02  0.34512457929E+02  0.00000000000E+00 0.  1.
         23    2    1    2    0    0 -0.10199868836E+03  0.24423316332E+02  0.65334899299E+03  0.67343344623E+03  0.12508984395E+03 0.  0.
          5    1    3    3  502    0 -0.31706755519E+02  0.48198647773E+02  0.10355446298E+03  0.11863407940E+03  0.47000000000E+01 0. -1.
         -5    1    3    3    0  502 -0.70291932839E+02 -0.23775331441E+02  0.54979453001E+03  0.55479936683E+03  0.47000000000E+01 0. -1.
        -11    1    1    2    0    0  0.47418791719E+02  0.20630244260E+02  0.12847823260E+03  0.13849478344E+03  0.00000000000E+00 0. -1.
         11    1    1    2    0    0  0.54579896638E+02 -0.45053560592E+02  0.44878808050E+02  0.83802719831E+02  0.00000000000E+00 0.  1.
<mgrwt>
<rscale>  0 0.15685394E+03</rscale>
<asrwt>0</asrwt>
<pdfrwt beam="1">  1        2 0.13249514E+00 0.16324123E+03</pdfrwt>
<pdfrwt beam="2">  1       -2 0.53096096E-02 0.16324123E+03</pdfrwt>
<totfact> 0.56334212E+03</totfact>
</mgrwt>
</event>
<event>
 7    1  0.5206756E-006  0.1347630E+03  0.7546771E-02  0.1232815E+00
         -2   -1    0    0    0  501 -0.00000000000E+00  0.00000000000E+00  0.18813139534E+02  0.18813139534E+02  0.00000000000E+00 0.  1.
          2   -1    0    0  501    0  0.00000000000E+00 -0.00000000000E+00 -0.77699176002E+03  0.77699176002E+03  0.00000000000E+00 0. -1.
         23    2    1    2    0    0  0.41845140154E+02  0.28016551745E+02 -0.48347381382E+03  0.50190438143E+03  0.12500054609E+03 0.  0.
          5    1    3    3  502    0  0.69801767946E+02  0.57210818165E+02 -0.27415440605E+03  0.28866605772E+03  0.47000000000E+01 0.  1.
         -5    1    3    3    0  502 -0.27956627792E+02 -0.29194266420E+02 -0.20931940777E+03  0.21323832371E+03  0.47000000000E+01 0.  1.
        -11    1    1    2    0    0  0.18463398489E+02  0.15572507358E+02 -0.32304418893E+02  0.40335784971E+02  0.00000000000E+00 0.  1.
         11    1    1    2    0    0 -0.60308538643E+02 -0.43589059103E+02 -0.24240038777E+03  0.25356473315E+03  0.00000000000E+00 0. -1.
<mgrwt>
<rscale>  0 0.12645326E+03</rscale>
<asrwt>0</asrwt>
<pdfrwt beam="2">  1        2 0.11953718E+00 0.13476305E+03</pdfrwt>
<pdfrwt beam="1">  1       -2 0.28943296E-02 0.13476305E+03</pdfrwt>
<totfact> 0.15657324E+04</totfact>
</mgrwt>
</event>
<event>
 7    1  0.5206756E-006  0.1295889E+03  0.7546771E-02  0.1241225E+00
          2   -1    0    0  501    0  0.00000000000E+00  0.00000000000E+00  0.93879634766E+03  0.93879634766E+03  0.00000000000E+00 0. -1.
         -2   -1    0    0    0  501 -0.00000000000E+00 -0.00000000000E+00 -0.19278623105E+02  0.19278623105E+02  0.00000000000E+00 0.  1.
         23    2    1    2    0    0  0.31371784396E+02 -0.17182975352E+02  0.75534964247E+03  0.76638525185E+03  0.12455451969E+03 0.  0.
          5    1    3    3  502    0  0.62356591482E+02 -0.14664676799E+02  0.69828368928E+03  0.70123148671E+03  0.47000000000E+01 0. -1.
         -5    1    3    3    0  502 -0.30984807086E+02 -0.25182985527E+01  0.57065953191E+02  0.65153765136E+02  0.47000000000E+01 0.  1.
        -11    1    1    2    0    0 -0.33294578158E+02 -0.28676483590E+02  0.12079464319E+03  0.12853877029E+03  0.00000000000E+00 0. -1.
         11    1    1    2    0    0  0.19227937625E+01  0.45859458941E+02  0.43373438903E+02  0.63150948627E+02  0.00000000000E+00 0.  1.
<mgrwt>
<rscale>  0 0.12114196E+03</rscale>
<asrwt>0</asrwt>
<pdfrwt beam="1">  1        2 0.14443017E+00 0.12958886E+03</pdfrwt>
<pdfrwt beam="2">  1       -2 0.29659427E-02 0.12958886E+03</pdfrwt>
<totfact> 0.11832645E+04</totfact>
</mgrwt>
</event>
<event>
 7    1  0.5206756E-006  0.1510855E+03  0.7546771E-02  0.1208741E+00
         -1   -1    0    0    0  501 -0.00000000000E+00  0.00000000000E+00  0.23441793394E+02  0.23441793394E+02  0.00000000000E+00 0.  1.
          1   -1    0    0  501    0  0.00000000000E+00 -0.00000000000E+00 -0.10018462435E+04  0.10018462435E+04  0.00000000000E+00 0. -1.
         23    2    1    2    0    0 -0.58739316640E+02 -0.61394198865E+02 -0.75852187270E+03  0.77342243217E+03  0.12492906886E+03 0.  0.
          5    1    3    3  502    0 -0.24060633970E+02 -0.89736336038E+01 -0.62735541799E+03  0.62789836016E+03  0.47000000000E+01 0.  1.
         -5    1    3    3    0  502 -0.34678682671E+02 -0.52420565261E+02 -0.13116645471E+03  0.14552407201E+03  0.47000000000E+01 0.  1.
        -11    1    1    2    0    0 -0.32613318330E+01  0.59712263406E+02 -0.12406819578E+03  0.13772838447E+03  0.00000000000E+00 0.  1.
         11    1    1    2    0    0  0.62000648473E+02  0.16819354581E+01 -0.95814381594E+02  0.11413722021E+03  0.00000000000E+00 0. -1.
<mgrwt>
<rscale>  0 0.14346495E+03</rscale>
<asrwt>0</asrwt>
<pdfrwt beam="2">  1        1 0.15413020E+00 0.15108550E+03</pdfrwt>
<pdfrwt beam="1">  1       -1 0.36064296E-02 0.15108550E+03</pdfrwt>
<totfact> 0.44909503E+03</totfact>
</mgrwt>
</event>
<event>
 7    1  0.5206756E-006  0.1315780E+03  0.7546771E-02  0.1239889E+00
          2   -1    0    0  501    0  0.00000000000E+00  0.00000000000E+00  0.73074555801E+03  0.73074555801E+03  0.00000000000E+00 0. -1.
         -2   -1    0    0    0  501 -0.00000000000E+00 -0.00000000000E+00 -0.18255472518E+02  0.18255472518E+02  0.00000000000E+00 0.  1.
         23    2    1    2    0    0  0.32337721482E+01 -0.40964327086E+02  0.46073694982E+03  0.47915686902E+03  0.12499693928E+03 0.  0.
          5    1    3    3  502    0 -0.59174155557E+02 -0.54315057962E+01  0.20979384468E+03  0.21809775149E+03  0.47000000000E+01 0. -1.
         -5    1    3    3    0  502  0.62407927705E+02 -0.35532821290E+02  0.25094310514E+03  0.26105911753E+03  0.47000000000E+01 0. -1.
        -11    1    1    2    0    0  0.20381068963E+00 -0.25821939872E+02  0.11167165984E+03  0.11461838303E+03  0.00000000000E+00 0. -1.
         11    1    1    2    0    0 -0.34375828378E+01  0.66786266958E+02  0.14008147583E+03  0.15522577847E+03  0.00000000000E+00 0.  1.
<mgrwt>
<rscale>  0 0.12196557E+03</rscale>
<asrwt>0</asrwt>
<pdfrwt beam="1">  1        2 0.11242237E+00 0.13157799E+03</pdfrwt>
<pdfrwt beam="2">  1       -2 0.28085348E-02 0.13157799E+03</pdfrwt>
<totfact> 0.17599465E+04</totfact>
</mgrwt>
</event>
<event>
 7    1  0.5206756E-006  0.1297430E+03  0.7546771E-02  0.1242429E+00
          1   -1    0    0  501    0  0.00000000000E+00  0.00000000000E+00  0.81632527123E+03  0.81632527123E+03  0.00000000000E+00 0. -1.
         -1   -1    0    0    0  501 -0.00000000000E+00 -0.00000000000E+00 -0.15857926457E+02  0.15857926457E+02  0.00000000000E+00 0.  1.
         23    2    1    2    0    0 -0.23416194875E+02 -0.25759049689E+02  0.50708135846E+03  0.52341642816E+03  0.12498562457E+03 0.  0.
          5    1    3    3  502    0  0.12257850614E+01 -0.26210255189E+02  0.49473569696E+03  0.49545330746E+03  0.47000000000E+01 0. -1.
         -5    1    3    3    0  502 -0.24641979936E+02  0.45120550037E+00  0.12345661500E+02  0.27963120703E+02  0.47000000000E+01 0. -1.
        -11    1    1    2    0    0 -0.31481128583E+02 -0.68127754109E+01  0.89326007816E+02  0.94955837304E+02  0.00000000000E+00 0.  1.
         11    1    1    2    0    0  0.54897323458E+02  0.32571825100E+02  0.20405997850E+03  0.21381093222E+03  0.00000000000E+00 0. -1.
<mgrwt>
<rscale>  0 0.12040615E+03</rscale>
<asrwt>0</asrwt>
<pdfrwt beam="1">  1        1 0.12558847E+00 0.12974303E+03</pdfrwt>
<pdfrwt beam="2">  1       -1 0.24396816E-02 0.12974303E+03</pdfrwt>
<totfact> 0.10932362E+04</totfact>
</mgrwt>
</event>
<event>
 7    1  0.5206756E-006  0.1219498E+03  0.7546771E-02  0.1251952E+00
          2   -1    0    0  501    0  0.00000000000E+00  0.00000000000E+00  0.72238690581E+03  0.72238690581E+03  0.00000000000E+00 0. -1.
         -2   -1    0    0    0  501 -0.00000000000E+00 -0.00000000000E+00 -0.17093831634E+02  0.17093831634E+02  0.00000000000E+00 0.  1.
         23    2    1    2    0    0  0.31371949714E+02  0.29511495708E+01  0.46745196473E+03  0.48309739472E+03  0.11780850962E+03 0.  0.
          5    1    3    3  502    0  0.62710748824E+01  0.53256239572E+02  0.33247950314E+03  0.33680894205E+03  0.47000000000E+01 0. -1.
         -5    1    3    3    0  502  0.25100874832E+02 -0.50305090002E+02  0.13497246159E+03  0.14628845267E+03  0.47000000000E+01 0.  1.
        -11    1    1    2    0    0 -0.39895599879E+02  0.26260593245E+02  0.20923989950E+03  0.21462202401E+03  0.00000000000E+00 0. -1.
         11    1    1    2    0    0  0.85236501644E+01 -0.29211742816E+02  0.28601209936E+02  0.41761318709E+02  0.00000000000E+00 0.  1.
<mgrwt>
<rscale>  0 0.11478803E+03</rscale>
<asrwt>0</asrwt>
<pdfrwt beam="1">  1        2 0.11113642E+00 0.12194980E+03</pdfrwt>
<pdfrwt beam="2">  1       -2 0.26298208E-02 0.12194980E+03</pdfrwt>
<totfact> 0.19523888E+04</totfact>
</mgrwt>
</event>
<event>
 7    1  0.5206756E-006  0.1288322E+03  0.7546771E-02  0.1243644E+00
          1   -1    0    0  501    0  0.00000000000E+00  0.00000000000E+00  0.39198521078E+03  0.39198521078E+03  0.00000000000E+00 0. -1.
         -1   -1    0    0    0  501 -0.00000000000E+00 -0.00000000000E+00 -0.35094699855E+02  0.35094699855E+02  0.00000000000E+00 0.  1.
         23    2    1    2    0    0  0.31103416961E+02 -0.25815263876E+01  0.26302612360E+03  0.29288303579E+03  0.12499457641E+03 0.  0.
          5    1    3    3  502    0  0.60914315483E+02 -0.11393625640E+02  0.56546525888E+02  0.84023616478E+02  0.47000000000E+01 0.  1.
         -5    1    3    3    0  502 -0.29810898523E+02  0.88120992519E+01  0.20647959771E+03  0.20885941931E+03  0.47000000000E+01 0.  1.
        -11    1    1    2    0    0  0.17393271145E+02 -0.80435939529E+01  0.80546425376E+02  0.82794637059E+02  0.00000000000E+00 0. -1.
         11    1    1    2    0    0 -0.48496688105E+02  0.10625120340E+02  0.13317961955E+02  0.51402237793E+02  0.00000000000E+00 0.  1.
<mgrwt>
<rscale>  0 0.11966898E+03</rscale>
<asrwt>0</asrwt>
<pdfrwt beam="1">  1        1 0.60305414E-01 0.12883218E+03</pdfrwt>
<pdfrwt beam="2">  1       -1 0.53991849E-02 0.12883218E+03</pdfrwt>
<totfact> 0.92296273E+03</totfact>
</mgrwt>
</event>
<event>
 7    1  0.8142412E-006  0.4229561E+03  0.7546771E-02  0.1036847E+00
         -2   -1    0    0    0  501 -0.00000000000E+00  0.00000000000E+00  0.82429499447E+02  0.82429499447E+02  0.00000000000E+00 0.  1.
          2   -1    0    0  501    0  0.00000000000E+00 -0.00000000000E+00 -0.26705138880E+04  0.26705138880E+04  0.00000000000E+00 0. -1.
         23    2    1    2    0    0 -0.13373957843E+03 -0.38128810026E+03 -0.19277976250E+04  0.19736503060E+04  0.12499982945E+03 0.  0.
          5    1    3    3  502    0  0.93190204295E+01 -0.72414378467E+01 -0.16397810142E+02  0.20742727432E+02  0.47000000000E+01 0. -1.
         -5    1    3    3    0  502 -0.14305859886E+03 -0.37404666241E+03 -0.19113998148E+04  0.19529075786E+04  0.47000000000E+01 0. -1.
        -11    1    1    2    0    0  0.10372245145E+02  0.15439011166E+03 -0.27262821600E+03  0.31348051647E+03  0.00000000000E+00 0.  1.
         11    1    1    2    0    0  0.12336733329E+03  0.22689798860E+03 -0.38765854753E+03  0.46581256491E+03  0.00000000000E+00 0. -1.
<mgrwt>
<rscale>  0 0.42067546E+03</rscale>
<asrwt>0</asrwt>
<pdfrwt beam="2">  1        2 0.41084831E+00 0.42295608E+03</pdfrwt>
<pdfrwt beam="1">  1       -2 0.12681461E-01 0.42295608E+03</pdfrwt>
<totfact> 0.14073393E+02</totfact>
</mgrwt>
</event>
<event>
 7    1  0.5206756E-006  0.1693569E+03  0.7546771E-02  0.1185486E+00
         -2   -1    0    0    0  501 -0.00000000000E+00  0.00000000000E+00  0.32278766171E+02  0.32278766171E+02  0.00000000000E+00 0.  1.
          2   -1    0    0  501    0  0.00000000000E+00 -0.00000000000E+00 -0.78983436110E+03  0.78983436110E+03  0.00000000000E+00 0. -1.
         23    2    1    2    0    0  0.35779911799E+02  0.10851898353E+03 -0.48027737679E+03  0.50926233681E+03  0.12500078863E+03 0.  0.
          5    1    3    3  502    0 -0.30422875383E+02  0.84653400279E+02 -0.34667189034E+03  0.35818324790E+03  0.47000000000E+01 0. -1.
         -5    1    3    3    0  502  0.66202787182E+02  0.23865583250E+02 -0.13360548645E+03  0.15107908890E+03  0.47000000000E+01 0. -1.
        -11    1    1    2    0    0 -0.33376878878E+01 -0.65729445127E+02 -0.23632595274E+03  0.24531909028E+03  0.00000000000E+00 0. -1.
         11    1    1    2    0    0 -0.32442223911E+02 -0.42789538402E+02 -0.40952265403E+02  0.67531700191E+02  0.00000000000E+00 0.  1.
<mgrwt>
<rscale>  0 0.16287709E+03</rscale>
<asrwt>0</asrwt>
<pdfrwt beam="2">  1        2 0.12151297E+00 0.16935693E+03</pdfrwt>
<pdfrwt beam="1">  1       -2 0.49659644E-02 0.16935693E+03</pdfrwt>
<totfact> 0.69676995E+03</totfact>
</mgrwt>
</event>
<event>
 7    1  0.5206756E-006  0.1380555E+03  0.7546771E-02  0.1224792E+00
         -3   -1    0    0    0  501 -0.00000000000E+00  0.00000000000E+00  0.42137204524E+02  0.42137204524E+02  0.00000000000E+00 0.  1.
          3   -1    0    0  501    0  0.00000000000E+00 -0.00000000000E+00 -0.40310170400E+03  0.40310170400E+03  0.00000000000E+00 0. -1.
         23    2    1    2    0    0 -0.50637049258E+02 -0.29497572100E+02 -0.25024394623E+03  0.28579948151E+03  0.12500037395E+03 0.  0.
          5    1    3    3  502    0  0.43634408953E+01  0.30380168614E+02 -0.10783312400E+02  0.32868892403E+02  0.47000000000E+01 0.  1.
         -5    1    3    3    0  502 -0.55000490154E+02 -0.59877740714E+02 -0.23946063383E+03  0.25293058910E+03  0.47000000000E+01 0.  1.
        -11    1    1    2    0    0  0.31958153387E+02  0.51579687240E+01  0.10784331690E+02  0.34120815044E+02  0.00000000000E+00 0.  1.
         11    1    1    2    0    0  0.18678895872E+02  0.24339603376E+02 -0.12150488494E+03  0.12531861198E+03  0.00000000000E+00 0. -1.
<mgrwt>
<rscale>  0 0.13181201E+03</rscale>
<asrwt>0</asrwt>
<pdfrwt beam="2">  1        3 0.62015647E-01 0.13805546E+03</pdfrwt>
<pdfrwt beam="1">  1       -3 0.64826468E-02 0.13805546E+03</pdfrwt>
<totfact> 0.89440506E+02</totfact>
</mgrwt>
</event>
<event>
 7    1  0.5206756E-006  0.2615477E+03  0.7546771E-02  0.1109278E+00
          2   -1    0    0  501    0  0.00000000000E+00  0.00000000000E+00  0.30191974031E+03  0.30191974031E+03  0.00000000000E+00 0. -1.
         -2   -1    0    0    0  501 -0.00000000000E+00 -0.00000000000E+00 -0.21930496898E+03  0.21930496898E+03  0.00000000000E+00 0.  1.
         23    2    1    2    0    0  0.20968730220E+03 -0.93873051680E+02 -0.11273332725E+02  0.26179054746E+03  0.12500515259E+03 0.  0.
          5    1    3    3  502    0  0.88824103301E+02  0.18010580851E+02 -0.30876506285E+02  0.95862145763E+02  0.47000000000E+01 0.  1.
         -5    1    3    3    0  502  0.12086319890E+03 -0.11188363253E+03  0.19603173560E+02  0.16592840170E+03  0.47000000000E+01 0.  1.
        -11    1    1    2    0    0 -0.13096450129E+03  0.21007580998E+02  0.35515555870E+02  0.13731122957E+03  0.00000000000E+00 0.  1.
         11    1    1    2    0    0 -0.78722800912E+02  0.72865470682E+02  0.58372548183E+02  0.12212293226E+03  0.00000000000E+00 0. -1.
<mgrwt>
<rscale>  0 0.25647759E+03</rscale>
<asrwt>0</asrwt>
<pdfrwt beam="1">  1        2 0.46449191E-01 0.26154771E+03</pdfrwt>
<pdfrwt beam="2">  1       -2 0.33739226E-01 0.26154771E+03</pdfrwt>
<totfact> 0.89467493E+02</totfact>
</mgrwt>
</event>
<event>
 6    1  0.5206756E-006  0.1435166E+03  0.7546771E-02  0.1226856E+00
          1   -1    0    0  501    0  0.00000000000E+00  0.00000000000E+00  0.19913461313E+03  0.19913461313E+03  0.00000000000E+00 0. -1.
         -1   -1    0    0    0  501 -0.00000000000E+00 -0.00000000000E+00 -0.74613928572E+02  0.74613928572E+02  0.00000000000E+00 0.  1.
          5    1    1    2  502    0 -0.34000827259E+02  0.78101772567E+02  0.62539860058E+02  0.10577933271E+03  0.47000000000E+01 0. -1.
         -5    1    1    2    0  502  0.36888593310E+02 -0.44078377439E+02  0.30256022631E+02  0.65124408477E+02  0.47000000000E+01 0.  1.
        -11    1    1    2    0    0 -0.78565413306E+00 -0.60043533374E+02 -0.21393767483E+01  0.60086771301E+02  0.00000000000E+00 0.  1.
         11    1    1    2    0    0 -0.21021119176E+01  0.26020138247E+02  0.33864178615E+02  0.42758029213E+02  0.00000000000E+00 0. -1.
<mgrwt>
<rscale>  0 0.13040491E+03</rscale>
<asrwt>0</asrwt>
<pdfrwt beam="1">  1        1 0.30636094E-01 0.14351659E+03</pdfrwt>
<pdfrwt beam="2">  1       -1 0.11479066E-01 0.14351659E+03</pdfrwt>
<totfact> 0.69072577E+03</totfact>
</mgrwt>
</event>
<event>
 7    1  0.5206756E-006  0.1321229E+03  0.7546771E-02  0.1232194E+00
          3   -1    0    0  501    0  0.00000000000E+00  0.00000000000E+00  0.21313560094E+03  0.21313560094E+03  0.00000000000E+00 0. -1.
         -3   -1    0    0    0  501 -0.00000000000E+00 -0.00000000000E+00 -0.12862844375E+03  0.12862844375E+03  0.00000000000E+00 0.  1.
         23    2    1    2    0    0 -0.43368543376E+02  0.51097235556E+02  0.15921380818E+03  0.20689488321E+03  0.11386262753E+03 0.  0.
          5    1    3    3  502    0 -0.50199721285E+02 -0.24510594705E+02  0.67812012035E+02  0.87984886464E+02  0.47000000000E+01 0. -1.
         -5    1    3    3    0  502  0.68311779093E+01  0.75607830262E+02  0.91401796143E+02  0.11890999675E+03  0.47000000000E+01 0.  1.
        -11    1    1    2    0    0  0.47331117317E+01 -0.59570225046E+02 -0.74253247546E+02  0.95312952057E+02  0.00000000000E+00 0.  1.
         11    1    1    2    0    0  0.38635431644E+02  0.84729894897E+01 -0.45340343997E+00  0.39556209423E+02  0.00000000000E+00 0. -1.
<mgrwt>
<rscale>  0 0.12685772E+03</rscale>
<asrwt>0</asrwt>
<pdfrwt beam="1">  1        3 0.32790092E-01 0.13212288E+03</pdfrwt>
<pdfrwt beam="2">  1       -3 0.19788991E-01 0.13212288E+03</pdfrwt>
<totfact> 0.48036239E+02</totfact>
</mgrwt>
</event>
<event>
 7    1  0.5206756E-006  0.2960966E+03  0.7546771E-02  0.1088710E+00
         -2   -1    0    0    0  501 -0.00000000000E+00  0.00000000000E+00  0.48331256163E+02  0.48331256163E+02  0.00000000000E+00 0. -1.
          2   -1    0    0  501    0  0.00000000000E+00 -0.00000000000E+00 -0.18020069846E+04  0.18020069846E+04  0.00000000000E+00 0.  1.
         23    2    1    2    0    0 -0.25974442245E+03 -0.67663417422E+02 -0.10599397931E+04  0.11005205760E+04  0.12501068001E+03 0.  0.
          5    1    3    3  502    0 -0.20875303931E+03 -0.83435904448E+02 -0.66557093380E+03  0.70252839052E+03  0.47000000000E+01 0.  1.
         -5    1    3    3    0  502 -0.50991383137E+02  0.15772487026E+02 -0.39436885931E+03  0.39799218547E+03  0.47000000000E+01 0.  1.
        -11    1    1    2    0    0 -0.64668848897E+01  0.91443087022E+01 -0.39927332973E+02  0.41468432574E+02  0.00000000000E+00 0.  1.
         11    1    1    2    0    0  0.26621130734E+03  0.58519108720E+02 -0.65380860237E+03  0.70834923221E+03  0.00000000000E+00 0. -1.
<mgrwt>
<rscale>  0 0.29316142E+03</rscale>
<asrwt>0</asrwt>
<pdfrwt beam="2">  1        2 0.27723189E+00 0.29609656E+03</pdfrwt>
<pdfrwt beam="1">  1       -2 0.74355767E-02 0.29609656E+03</pdfrwt>
<totfact> 0.99941786E+02</totfact>
</mgrwt>
</event>
<event>
 7    1  0.5206756E-006  0.1296393E+03  0.7546771E-02  0.1241382E+00
          1   -1    0    0  501    0  0.00000000000E+00  0.00000000000E+00  0.44642159036E+03  0.44642159036E+03  0.00000000000E+00 0. -1.
         -1   -1    0    0    0  501 -0.00000000000E+00 -0.00000000000E+00 -0.36181880687E+02  0.36181880687E+02  0.00000000000E+00 0.  1.
         23    2    1    2    0    0 -0.38093474782E+01 -0.34151004274E+02  0.33318693835E+03  0.35751907180E+03  0.12500219436E+03 0.  0.
          5    1    3    3  502    0  0.12301078145E+02 -0.59740008249E+02  0.71712535572E+02  0.94260080985E+02  0.47000000000E+01 0. -1.
         -5    1    3    3    0  502 -0.16110425623E+02  0.25589003975E+02  0.26147440278E+03  0.26325899082E+03  0.47000000000E+01 0. -1.
        -11    1    1    2    0    0 -0.17288478730E+02  0.59547683003E+02  0.65271000205E+02  0.90028448368E+02  0.00000000000E+00 0. -1.
         11    1    1    2    0    0  0.21097826208E+02 -0.25396678729E+02  0.11781771118E+02  0.35055950876E+02  0.00000000000E+00 0.  1.
<mgrwt>
<rscale>  0 0.12104566E+03</rscale>
<asrwt>0</asrwt>
<pdfrwt beam="1">  1        1 0.68680241E-01 0.12963931E+03</pdfrwt>
<pdfrwt beam="2">  1       -1 0.55664435E-02 0.12963931E+03</pdfrwt>
<totfact> 0.74861669E+03</totfact>
</mgrwt>
</event>
<event>
 7    1  0.5206756E-006  0.1300240E+03  0.7546771E-02  0.1241323E+00
         -1   -1    0    0    0  501 -0.00000000000E+00  0.00000000000E+00  0.57578332312E+02  0.57578332312E+02  0.00000000000E+00 0.  1.
          1   -1    0    0  501    0  0.00000000000E+00 -0.00000000000E+00 -0.23925859888E+03  0.23925859888E+03  0.00000000000E+00 0. -1.
         23    2    1    2    0    0  0.37302019743E+01  0.35613868708E+02 -0.13843478410E+03  0.18992218399E+03  0.12499593783E+03 0.  0.
          5    1    3    3  502    0  0.13735224663E+02  0.73789527953E+02 -0.43204065439E+02  0.86730802501E+02  0.47000000000E+01 0.  1.
         -5    1    3    3    0  502 -0.10005022689E+02 -0.38175659245E+02 -0.95230718657E+02  0.10319138149E+03  0.47000000000E+01 0.  1.
        -11    1    1    2    0    0  0.30896496955E+02 -0.48256340187E+02 -0.40060348066E+02  0.69914943892E+02  0.00000000000E+00 0. -1.
         11    1    1    2    0    0 -0.34626698929E+02  0.12642471479E+02 -0.31851344094E+01  0.36999803311E+02  0.00000000000E+00 0.  1.
<mgrwt>
<rscale>  0 0.12108164E+03</rscale>
<asrwt>0</asrwt>
<pdfrwt beam="2">  1        1 0.36809016E-01 0.13002402E+03</pdfrwt>
<pdfrwt beam="1">  1       -1 0.88582047E-02 0.13002402E+03</pdfrwt>
<totfact> 0.81171528E+03</totfact>
</mgrwt>
</event>
<event>
 7    1  0.5206756E-006  0.1259216E+03  0.7546771E-02  0.1249004E+00
         -2   -1    0    0    0  501 -0.00000000000E+00  0.00000000000E+00  0.28328652884E+03  0.28328652884E+03  0.00000000000E+00 0. -1.
          2   -1    0    0  501    0  0.00000000000E+00 -0.00000000000E+00 -0.45427561399E+02  0.45427561399E+02  0.00000000000E+00 0.  1.
         23    2    1    2    0    0 -0.15188300287E+02 -0.15011933658E+01  0.91239320846E+02  0.15550199483E+03  0.12499327454E+03 0.  0.
          5    1    3    3  502    0  0.27930525670E+02 -0.28807428108E+02 -0.10360469274E+02  0.41706252553E+02  0.47000000000E+01 0. -1.
         -5    1    3    3    0  502 -0.43118825957E+02  0.27306234742E+02  0.10159979012E+03  0.11379574228E+03  0.47000000000E+01 0. -1.
        -11    1    1    2    0    0  0.25752506232E+02  0.31334509215E+02  0.25233322064E+02  0.47767809112E+02  0.00000000000E+00 0.  1.
         11    1    1    2    0    0 -0.10564205945E+02 -0.29833315849E+02  0.12138632454E+03  0.12544428630E+03  0.00000000000E+00 0. -1.
<mgrwt>
<rscale>  0 0.11648909E+03</rscale>
<asrwt>0</asrwt>
<pdfrwt beam="2">  1        2 0.69888558E-02 0.12592163E+03</pdfrwt>
<pdfrwt beam="1">  1       -2 0.43582542E-01 0.12592163E+03</pdfrwt>
<totfact> 0.48235792E+03</totfact>
</mgrwt>
</event>
<event>
 7    1  0.5206756E-006  0.1351364E+03  0.7546771E-02  0.1232484E+00
         -4   -1    0    0    0  501 -0.00000000000E+00  0.00000000000E+00  0.37307652717E+02  0.37307652717E+02  0.00000000000E+00 0.  1.
          4   -1    0    0  501    0  0.00000000000E+00 -0.00000000000E+00 -0.48679185374E+03  0.48679185374E+03  0.00000000000E+00 0. -1.
         23    2    1    2    0    0 -0.51323704060E+02  0.19393518377E+01 -0.36706634624E+03  0.39115156368E+03  0.12499583809E+03 0.  0.
          5    1    3    3  502    0 -0.58983117250E+02  0.55049428766E+02 -0.20432904329E+03  0.21973141709E+03  0.47000000000E+01 0. -1.
         -5    1    3    3    0  502  0.76594131901E+01 -0.53110076928E+02 -0.16273730296E+03  0.17142014659E+03  0.47000000000E+01 0. -1.
        -11    1    1    2    0    0  0.17182690656E+02  0.12913484132E+02 -0.92020617960E+02  0.94497603464E+02  0.00000000000E+00 0. -1.
         11    1    1    2    0    0  0.34141013404E+02 -0.14852835970E+02  0.96027631804E+01  0.38450339313E+02  0.00000000000E+00 0.  1.
<mgrwt>
<rscale>  0 0.12666892E+03</rscale>
<asrwt>0</asrwt>
<pdfrwt beam="2">  1        4 0.74891055E-01 0.13513639E+03</pdfrwt>
<pdfrwt beam="1">  1       -4 0.57396389E-02 0.13513639E+03</pdfrwt>
<totfact> 0.52087125E+02</totfact>
</mgrwt>
</event>
<event>
 7    1  0.5206756E-006  0.1797510E+03  0.7546771E-02  0.1174045E+00
          1   -1    0    0  501    0  0.00000000000E+00  0.00000000000E+00  0.20775547844E+04  0.20775547844E+04  0.00000000000E+00 0. -1.
         -1   -1    0    0    0  501 -0.00000000000E+00 -0.00000000000E+00 -0.25577923815E+02  0.25577923815E+02  0.00000000000E+00 0.  1.
         23    2    1    2    0    0 -0.10791866000E+03  0.70988794201E+02  0.17813373737E+04  0.17903835531E+04  0.12499832862E+03 0.  0.
          5    1    3    3  502    0 -0.85935218359E+02  0.19463345562E+02  0.15424117435E+04  0.15449335779E+04  0.47000000000E+01 0. -1.
         -5    1    3    3    0  502 -0.21983441644E+02  0.51525448640E+02  0.23892563016E+03  0.24544997517E+03  0.47000000000E+01 0. -1.
        -11    1    1    2    0    0  0.80650165944E+02 -0.87213510116E+02  0.24376271346E+03  0.27116582765E+03  0.00000000000E+00 0. -1.
         11    1    1    2    0    0  0.27268494059E+02  0.16224715914E+02  0.26876773456E+02  0.41583327502E+02  0.00000000000E+00 0.  1.
<mgrwt>
<rscale>  0 0.17369847E+03</rscale>
<asrwt>0</asrwt>
<pdfrwt beam="1">  1        1 0.31962368E+00 0.17975102E+03</pdfrwt>
<pdfrwt beam="2">  1       -1 0.39350668E-02 0.17975102E+03</pdfrwt>
<totfact> 0.76622281E+02</totfact>
</mgrwt>
</event>
<event>
 7    1  0.5206756E-006  0.1901074E+03  0.7546771E-02  0.1163068E+00
         -4   -1    0    0    0  501 -0.00000000000E+00  0.00000000000E+00  0.63421758728E+03  0.63421758728E+03  0.00000000000E+00 0. -1.
          4   -1    0    0  501    0  0.00000000000E+00 -0.00000000000E+00 -0.60096859986E+02  0.60096859986E+02  0.00000000000E+00 0.  1.
         23    2    1    2    0    0 -0.57412663408E+02 -0.13118791178E+03  0.16728624221E+03  0.25323016278E+03  0.12503737997E+03 0.  0.
          5    1    3    3  502    0 -0.19867270389E+02 -0.81502924104E+02  0.17114626244E+03  0.19065824980E+03  0.47000000000E+01 0. -1.
         -5    1    3    3    0  502 -0.37545393019E+02 -0.49684987677E+02 -0.38600202261E+01  0.62571912976E+02  0.47000000000E+01 0. -1.
        -11    1    1    2    0    0  0.23380553252E+02  0.12338883773E+03  0.24258192666E+03  0.27316194224E+03  0.00000000000E+00 0.  1.
         11    1    1    2    0    0  0.34032110156E+02  0.77990740503E+01  0.16425255843E+03  0.16792234225E+03  0.00000000000E+00 0. -1.
<mgrwt>
<rscale>  0 0.18498045E+03</rscale>
<asrwt>0</asrwt>
<pdfrwt beam="2">  1        4 0.92456712E-02 0.19010741E+03</pdfrwt>
<pdfrwt beam="1">  1       -4 0.97571932E-01 0.19010741E+03</pdfrwt>
<totfact> 0.13850154E+02</totfact>
</mgrwt>
</event>
<event>
 7    1  0.5206756E-006  0.1246357E+03  0.7546771E-02  0.1248482E+00
          1   -1    0    0  501    0  0.00000000000E+00  0.00000000000E+00  0.40148128031E+03  0.40148128031E+03  0.00000000000E+00 0. -1.
         -1   -1    0    0    0  501 -0.00000000000E+00 -0.00000000000E+00 -0.34404499645E+02  0.34404499645E+02  0.00000000000E+00 0.  1.
         23    2    1    2    0    0 -0.27049579983E+02  0.13809577836E+02  0.27879567271E+03  0.30538678293E+03  0.12087876509E+03 0.  0.
          5    1    3    3  502    0 -0.45643197978E+02  0.32225391118E+02  0.27230448890E+03  0.27801726930E+03  0.47000000000E+01 0. -1.
         -5    1    3    3    0  502  0.18593617995E+02 -0.18415813282E+02  0.64911838069E+01  0.27369513627E+02  0.47000000000E+01 0.  1.
        -11    1    1    2    0    0 -0.22260816100E+02  0.19892154134E+02  0.88889368967E+01  0.31148915369E+02  0.00000000000E+00 0. -1.
         11    1    1    2    0    0  0.49310396083E+02 -0.33701731970E+02  0.79392171068E+02  0.99350081663E+02  0.00000000000E+00 0.  1.
<mgrwt>
<rscale>  0 0.11679383E+03</rscale>
<asrwt>0</asrwt>
<pdfrwt beam="1">  1        1 0.61766347E-01 0.12463571E+03</pdfrwt>
<pdfrwt beam="2">  1       -1 0.52930002E-02 0.12463571E+03</pdfrwt>
<totfact> 0.92010283E+03</totfact>
</mgrwt>
</event>
<event>
 7    1  0.5206756E-006  0.1288175E+03  0.7546771E-02  0.1243759E+00
         -1   -1    0    0    0  501 -0.00000000000E+00  0.00000000000E+00  0.38585914307E+02  0.38585914307E+02  0.00000000000E+00 0.  1.
          1   -1    0    0  501    0  0.00000000000E+00 -0.00000000000E+00 -0.36636984386E+03  0.36636984386E+03  0.00000000000E+00 0. -1.
         23    2    1    2    0    0 -0.20069169661E+01 -0.31040017752E+02 -0.25145220181E+03  0.28252813376E+03  0.12500570449E+03 0.  0.
          5    1    3    3  502    0  0.51316455122E+02  0.84345781878E+01 -0.16733413905E+03  0.17529211268E+03  0.47000000000E+01 0. -1.
         -5    1    3    3    0  502 -0.53323372088E+02 -0.39474595940E+02 -0.84118062757E+02  0.10723602108E+03  0.47000000000E+01 0. -1.
        -11    1    1    2    0    0  0.27294752153E+02 -0.23199302051E+02 -0.26644569386E+02  0.44644643447E+02  0.00000000000E+00 0.  1.
         11    1    1    2    0    0 -0.25287835186E+02  0.54239319803E+02 -0.49687158359E+02  0.77782980959E+02  0.00000000000E+00 0. -1.
<mgrwt>
<rscale>  0 0.11959961E+03</rscale>
<asrwt>0</asrwt>
<pdfrwt beam="2">  1        1 0.56364595E-01 0.12881745E+03</pdfrwt>
<pdfrwt beam="1">  1       -1 0.59362942E-02 0.12881745E+03</pdfrwt>
<totfact> 0.87257391E+03</totfact>
</mgrwt>
</event>
<event>
 6    1  0.5206756E-006  0.1885516E+03  0.7546771E-02  0.1188881E+00
         -1   -1    0    0    0  501 -0.00000000000E+00  0.00000000000E+00  0.35026889729E+02  0.35026889729E+02  0.00000000000E+00 0.  1.
          1   -1    0    0  501    0  0.00000000000E+00 -0.00000000000E+00 -0.73963626670E+03  0.73963626670E+03  0.00000000000E+00 0. -1.
          5    1    1    2  502    0 -0.17304020419E+02  0.76971958527E+02 -0.38093595250E+03  0.38904807085E+03  0.47000000000E+01 0. -1.
         -5    1    1    2    0  502 -0.10535383292E+02 -0.98187085649E+02 -0.23068354936E+03  0.25097547297E+03  0.47000000000E+01 0.  1.
        -11    1    1    2    0    0  0.23677333850E+02  0.34104146322E+01  0.12903024214E+02  0.27179681751E+02  0.00000000000E+00 0.  1.
         11    1    1    2    0    0  0.41620698612E+01  0.17804712490E+02 -0.10589289932E+03  0.10745993085E+03  0.00000000000E+00 0. -1.
<mgrwt>
<rscale>  0 0.15983719E+03</rscale>
<asrwt>0</asrwt>
<pdfrwt beam="2">  1        1 0.11379021E+00 0.18855164E+03</pdfrwt>
<pdfrwt beam="1">  1       -1 0.53887516E-02 0.18855164E+03</pdfrwt>
<totfact> 0.40269239E+03</totfact>
</mgrwt>
</event>
<event>
 7    1  0.5206756E-006  0.1290639E+03  0.7546771E-02  0.1242460E+00
         -1   -1    0    0    0  501 -0.00000000000E+00  0.00000000000E+00  0.46467921595E+02  0.46467921595E+02  0.00000000000E+00 0.  1.
          1   -1    0    0  501    0  0.00000000000E+00 -0.00000000000E+00 -0.27701298968E+03  0.27701298968E+03  0.00000000000E+00 0. -1.
         23    2    1    2    0    0  0.21498900409E+02 -0.23881347246E+02 -0.13692937197E+03  0.18816786140E+03  0.12499987876E+03 0.  0.
          5    1    3    3  502    0  0.43486264544E+02 -0.21955015481E+02  0.45489835110E+00  0.48942566762E+02  0.47000000000E+01 0. -1.
         -5    1    3    3    0  502 -0.21987364135E+02 -0.19263317653E+01 -0.13738427032E+03  0.13922529463E+03  0.47000000000E+01 0. -1.
        -11    1    1    2    0    0 -0.51164520929E+02  0.11048533587E+02 -0.22072647726E+02  0.56807394535E+02  0.00000000000E+00 0.  1.
         11    1    1    2    0    0  0.29665620519E+02  0.12832813659E+02 -0.71543048395E+02  0.78505655343E+02  0.00000000000E+00 0. -1.
<mgrwt>
<rscale>  0 0.12038703E+03</rscale>
<asrwt>0</asrwt>
<pdfrwt beam="2">  1        1 0.42617384E-01 0.12906390E+03</pdfrwt>
<pdfrwt beam="1">  1       -1 0.71489109E-02 0.12906390E+03</pdfrwt>
<totfact> 0.93513664E+03</totfact>
</mgrwt>
</event>
<event>
 6    1  0.5206756E-006  0.1650769E+03  0.7546771E-02  0.1237932E+00
          2   -1    0    0  501    0  0.00000000000E+00  0.00000000000E+00  0.10990147538E+03  0.10990147538E+03  0.00000000000E+00 0. -1.
         -2   -1    0    0    0  501 -0.00000000000E+00 -0.00000000000E+00 -0.30224510356E+03  0.30224510356E+03  0.00000000000E+00 0.  1.
          5    1    1    2  502    0 -0.48613176010E+02  0.38483422532E+02  0.79836656711E+02  0.10119385577E+03  0.47000000000E+01 0. -1.
         -5    1    1    2    0  502  0.58520013781E+02 -0.86301477723E+01 -0.36255962498E+02  0.69538883225E+02  0.47000000000E+01 0.  1.
        -11    1    1    2    0    0 -0.58515221277E+01  0.83904889458E+01 -0.24995681942E+02  0.27007864257E+02  0.00000000000E+00 0. -1.
         11    1    1    2    0    0 -0.40553156432E+01 -0.38243763705E+02 -0.21092864045E+03  0.21440597568E+03  0.00000000000E+00 0.  1.
<mgrwt>
<rscale>  0 0.12318557E+03</rscale>
<asrwt>0</asrwt>
<pdfrwt beam="1">  1        2 0.16907919E-01 0.16507693E+03</pdfrwt>
<pdfrwt beam="2">  1       -2 0.46499247E-01 0.16507693E+03</pdfrwt>
<totfact> 0.14742613E+03</totfact>
</mgrwt>
</event>
<event>
 7    1  0.5206756E-006  0.1781350E+03  0.7546771E-02  0.1175882E+00
         -3   -1    0    0    0  501 -0.00000000000E+00  0.00000000000E+00  0.21162120069E+03  0.21162120069E+03  0.00000000000E+00 0.  1.
          3   -1    0    0  501    0  0.00000000000E+00 -0.00000000000E+00 -0.15772160869E+03  0.15772160869E+03  0.00000000000E+00 0. -1.
         23    2    1    2    0    0  0.11277858726E+03 -0.58143151963E+02 -0.47755520849E+02  0.18442521926E+03  0.12502973991E+03 0.  0.
          5    1    3    3  502    0  0.13873740044E+03 -0.48522388593E+02 -0.52102352382E+02  0.15601036375E+03  0.47000000000E+01 0. -1.
         -5    1    3    3    0  502 -0.25958813171E+02 -0.96207633704E+01  0.43468315331E+01  0.28414855506E+02  0.47000000000E+01 0. -1.
        -11    1    1    2    0    0 -0.27789897275E+02  0.33628482282E+02 -0.76658560492E+01  0.44293549870E+02  0.00000000000E+00 0. -1.
         11    1    1    2    0    0 -0.84988689990E+02  0.24514669681E+02  0.10932096890E+03  0.14062404025E+03  0.00000000000E+00 0.  1.
<mgrwt>
<rscale>  0 0.17189864E+03</rscale>
<asrwt>0</asrwt>
<pdfrwt beam="2">  1        3 0.24264863E-01 0.17813498E+03</pdfrwt>
<pdfrwt beam="1">  1       -3 0.32557108E-01 0.17813498E+03</pdfrwt>
<totfact> 0.35182646E+02</totfact>
</mgrwt>
</event>
<event>
 7    1  0.5206756E-006  0.1412625E+03  0.7546771E-02  0.1221366E+00
         -1   -1    0    0    0  501 -0.00000000000E+00  0.00000000000E+00  0.18368211451E+02  0.18368211451E+02  0.00000000000E+00 0.  1.
          1   -1    0    0  501    0  0.00000000000E+00 -0.00000000000E+00 -0.91522533636E+03  0.91522533636E+03  0.00000000000E+00 0. -1.
         23    2    1    2    0    0 -0.48948635876E+02  0.43983642783E+02 -0.56393683774E+03  0.58136034692E+03  0.12499826491E+03 0.  0.
          5    1    3    3  502    0 -0.54380232900E+02  0.84150088004E+02 -0.38818682681E+03  0.40093584219E+03  0.47000000000E+01 0.  1.
         -5    1    3    3    0  502  0.54315970238E+01 -0.40166445221E+02 -0.17575001093E+03  0.18042450473E+03  0.47000000000E+01 0.  1.
        -11    1    1    2    0    0  0.77338790157E+02 -0.36848231660E+02 -0.24192589802E+03  0.25664610024E+03  0.00000000000E+00 0.  1.
         11    1    1    2    0    0 -0.28390154281E+02 -0.71354111225E+01 -0.90994389156E+02  0.95587100646E+02  0.00000000000E+00 0. -1.
<mgrwt>
<rscale>  0 0.13419139E+03</rscale>
<asrwt>0</asrwt>
<pdfrwt beam="2">  1        1 0.14080388E+00 0.14126251E+03</pdfrwt>
<pdfrwt beam="1">  1       -1 0.28258790E-02 0.14126251E+03</pdfrwt>
<totfact> 0.74250042E+03</totfact>
</mgrwt>
</event>
<event>
 7    1  0.5206756E-006  0.1985945E+03  0.7546771E-02  0.1154172E+00
          2   -1    0    0  501    0  0.00000000000E+00  0.00000000000E+00  0.96079425765E+03  0.96079425765E+03  0.00000000000E+00 0.  1.
         -2   -1    0    0    0  501 -0.00000000000E+00 -0.00000000000E+00 -0.44182034212E+02  0.44182034212E+02  0.00000000000E+00 0. -1.
         23    2    1    2    0    0 -0.14005864531E+03  0.64794152458E+02  0.65997670523E+03  0.68920898467E+03  0.12500026717E+03 0.  0.
          5    1    3    3  502    0 -0.14668999128E+03  0.70337158937E+02  0.65958055309E+03  0.67936283788E+03  0.47000000000E+01 0.  1.
         -5    1    3    3    0  502  0.66313459736E+01 -0.55430064790E+01  0.39615213682E+00  0.98461467978E+01  0.47000000000E+01 0.  1.
        -11    1    1    2    0    0  0.58962887266E+02  0.19176197594E+02  0.55522584862E+02  0.83229238004E+02  0.00000000000E+00 0.  1.
         11    1    1    2    0    0  0.81095758045E+02 -0.83970350053E+02  0.20111293335E+03  0.23253806919E+03  0.00000000000E+00 0. -1.
<mgrwt>
<rscale>  0 0.19483445E+03</rscale>
<asrwt>0</asrwt>
<pdfrwt beam="1">  1        2 0.14781449E+00 0.19859449E+03</pdfrwt>
<pdfrwt beam="2">  1       -2 0.67972368E-02 0.19859449E+03</pdfrwt>
<totfact> 0.33608554E+03</totfact>
</mgrwt>
</event>
<event>
 7    1  0.5206756E-006  0.1284228E+03  0.7546771E-02  0.1257474E+00
          3   -1    0    0  501    0  0.00000000000E+00  0.00000000000E+00  0.37828804196E+02  0.37828804196E+02  0.00000000000E+00 0. -1.
         -3   -1    0    0    0  501 -0.00000000000E+00 -0.00000000000E+00 -0.28299588534E+03  0.28299588534E+03  0.00000000000E+00 0.  1.
         23    2    1    2    0    0 -0.29010456871E+02  0.50280524892E+01 -0.12041826449E+03  0.17604822609E+03  0.12500212625E+03 0.  0.
          5    1    3    3  502    0 -0.60940590460E+02  0.92729823162E+01 -0.12164906236E+02  0.63006497366E+02  0.47000000000E+01 0. -1.
         -5    1    3    3    0  502  0.31930133588E+02 -0.42449298270E+01 -0.10825335825E+03  0.11304172872E+03  0.47000000000E+01 0. -1.
        -11    1    1    2    0    0  0.50513614968E+02 -0.15869212087E+01 -0.74641033334E+02  0.90141153050E+02  0.00000000000E+00 0. -1.
         11    1    1    2    0    0 -0.21503158097E+02 -0.34411312805E+01 -0.50107783321E+02  0.54635310395E+02  0.00000000000E+00 0.  1.
<mgrwt>
<rscale>  0 0.11168898E+03</rscale>
<asrwt>0</asrwt>
<pdfrwt beam="1">  1        3 0.58198160E-02 0.12842282E+03</pdfrwt>
<pdfrwt beam="2">  1       -3 0.43537829E-01 0.12842282E+03</pdfrwt>
<totfact> 0.21352924E+03</totfact>
</mgrwt>
</event>
<event>
 7    1  0.5206756E-006  0.1872629E+03  0.7546771E-02  0.1166195E+00
         -2   -1    0    0    0  501 -0.00000000000E+00  0.00000000000E+00  0.75493606624E+02  0.75493606624E+02  0.00000000000E+00 0. -1.
          2   -1    0    0  501    0  0.00000000000E+00 -0.00000000000E+00 -0.44341116299E+03  0.44341116299E+03  0.00000000000E+00 0.  1.
         23    2    1    2    0    0 -0.68233493971E+02 -0.12161021537E+03 -0.26218309266E+03  0.32219148767E+03  0.12499010548E+03 0.  0.
          5    1    3    3  502    0 -0.52526218469E+02 -0.49131693563E+02 -0.29411534650E+02  0.77846357073E+02  0.47000000000E+01 0.  1.
         -5    1    3    3    0  502 -0.15707275502E+02 -0.72478521809E+02 -0.23277155801E+03  0.24434513060E+03  0.47000000000E+01 0.  1.
        -11    1    1    2    0    0  0.76035209918E+02  0.75183502108E+02 -0.10465763676E+03  0.14962330390E+03  0.00000000000E+00 0.  1.
         11    1    1    2    0    0 -0.78017159470E+01  0.46426713264E+02 -0.10768269428E+01  0.47089978047E+02  0.00000000000E+00 0. -1.
<mgrwt>
<rscale>  0 0.18167182E+03</rscale>
<asrwt>0</asrwt>
<pdfrwt beam="2">  1        2 0.68217102E-01 0.18726287E+03</pdfrwt>
<pdfrwt beam="1">  1       -2 0.11614401E-01 0.18726287E+03</pdfrwt>
<totfact> 0.36473182E+03</totfact>
</mgrwt>
</event>
<event>
 7    1  0.5206756E-006  0.1268323E+03  0.7546771E-02  0.1247415E+00
          2   -1    0    0  501    0  0.00000000000E+00  0.00000000000E+00  0.46284166929E+03  0.46284166929E+03  0.00000000000E+00 0. -1.
         -2   -1    0    0    0  501 -0.00000000000E+00 -0.00000000000E+00 -0.26474930100E+02  0.26474930100E+02  0.00000000000E+00 0.  1.
         23    2    1    2    0    0  0.11106962405E+02 -0.18488948885E+02  0.27819491156E+03  0.30574310336E+03  0.12498492145E+03 0.  0.
          5    1    3    3  502    0  0.38048107591E+02 -0.58760435191E+02  0.21380706625E+03  0.22502444048E+03  0.47000000000E+01 0.  1.
         -5    1    3    3    0  502 -0.26941145187E+02  0.40271486306E+02  0.64387845310E+02  0.80718662879E+02  0.47000000000E+01 0.  1.
        -11    1    1    2    0    0 -0.40007198826E+02 -0.16709451230E+01  0.28369575135E+02  0.49073422632E+02  0.00000000000E+00 0.  1.
         11    1    1    2    0    0  0.28900236421E+02  0.20159894008E+02  0.12980225249E+03  0.13450007340E+03  0.00000000000E+00 0. -1.
<mgrwt>
<rscale>  0 0.11742026E+03</rscale>
<asrwt>0</asrwt>
<pdfrwt beam="1">  1        2 0.71206405E-01 0.12683232E+03</pdfrwt>
<pdfrwt beam="2">  1       -2 0.40730665E-02 0.12683232E+03</pdfrwt>
<totfact> 0.17012658E+04</totfact>
</mgrwt>
</event>
<event>
 7    1  0.5206756E-006  0.2113310E+03  0.7546771E-02  0.1143936E+00
         -2   -1    0    0    0  501 -0.00000000000E+00  0.00000000000E+00  0.58864808901E+02  0.58864808901E+02  0.00000000000E+00 0.  1.
          2   -1    0    0  501    0  0.00000000000E+00 -0.00000000000E+00 -0.87426064314E+03  0.87426064314E+03  0.00000000000E+00 0. -1.
         23    2    1    2    0    0  0.28966864924E+02  0.16792157887E+03 -0.62923159288E+03  0.66377194375E+03  0.12499623963E+03 0.  0.
          5    1    3    3  502    0 -0.13808059392E+02  0.15927028712E+03 -0.40799886700E+03  0.43822694160E+03  0.47000000000E+01 0.  1.
         -5    1    3    3    0  502  0.42774924316E+02  0.86512917471E+01 -0.22123272587E+03  0.22554500215E+03  0.47000000000E+01 0.  1.
        -11    1    1    2    0    0  0.33135818845E+02 -0.82905137057E+02 -0.89722040449E+02  0.12657522974E+03  0.00000000000E+00 0.  1.
         11    1    1    2    0    0 -0.62102683768E+02 -0.85016441813E+02 -0.96442200913E+02  0.14277827855E+03  0.00000000000E+00 0. -1.
<mgrwt>
<rscale>  0 0.20703511E+03</rscale>
<asrwt>0</asrwt>
<pdfrwt beam="2">  1        2 0.13450163E+00 0.21133101E+03</pdfrwt>
<pdfrwt beam="1">  1       -2 0.90561250E-02 0.21133101E+03</pdfrwt>
<totfact> 0.24424465E+03</totfact>
</mgrwt>
</event>
<event>
 7    1  0.5206756E-006  0.1551231E+03  0.7546771E-02  0.1203221E+00
          1   -1    0    0  501    0  0.00000000000E+00  0.00000000000E+00  0.23895375351E+03  0.23895375351E+03  0.00000000000E+00 0. -1.
         -1   -1    0    0    0  501 -0.00000000000E+00 -0.00000000000E+00 -0.83740822821E+02  0.83740822821E+02  0.00000000000E+00 0.  1.
         23    2    1    2    0    0 -0.90503643657E+02  0.15695298147E+02  0.85853132697E+02  0.17729619151E+03  0.12500370887E+03 0.  0.
          5    1    3    3  502    0 -0.49546130208E+02  0.61506416229E+02  0.10288797258E+02  0.79786011337E+02  0.47000000000E+01 0.  1.
         -5    1    3    3    0  502 -0.40957513449E+02 -0.45811118082E+02  0.75564335439E+02  0.97510180177E+02  0.47000000000E+01 0.  1.
        -11    1    1    2    0    0  0.35610051052E+02 -0.43279654734E+02  0.47563600866E+01  0.56247908504E+02  0.00000000000E+00 0.  1.
         11    1    1    2    0    0  0.54893592606E+02  0.27584356587E+02  0.64603437904E+02  0.89150476311E+02  0.00000000000E+00 0. -1.
<mgrwt>
<rscale>  0 0.14778500E+03</rscale>
<asrwt>0</asrwt>
<pdfrwt beam="1">  1        1 0.36762116E-01 0.15512311E+03</pdfrwt>
<pdfrwt beam="2">  1       -1 0.12883204E-01 0.15512311E+03</pdfrwt>
<totfact> 0.46277270E+03</totfact>
</mgrwt>
</event>
<event>
 7    1  0.5206756E-006  0.1322356E+03  0.7546771E-02  0.1235573E+00
         -3   -1    0    0    0  501 -0.00000000000E+00  0.00000000000E+00  0.89450613383E+02  0.89450613383E+02  0.00000000000E+00 0.  1.
          3   -1    0    0  501    0  0.00000000000E+00 -0.00000000000E+00 -0.22270666360E+03  0.22270666360E+03  0.00000000000E+00 0. -1.
         23    2    1    2    0    0 -0.29889231534E+02 -0.31369760605E+02 -0.15672066675E+03  0.20505516472E+03  0.12493528384E+03 0.  0.
          5    1    3    3  502    0 -0.53388474134E+01 -0.66915602519E+02 -0.14529773872E+03  0.16012408948E+03  0.47000000000E+01 0.  1.
         -5    1    3    3    0  502 -0.24550384120E+02  0.35545841914E+02 -0.11422928028E+02  0.44931075244E+02  0.47000000000E+01 0.  1.
        -11    1    1    2    0    0  0.19487448055E+02  0.46184609090E+02  0.52689480875E+02  0.72725237320E+02  0.00000000000E+00 0.  1.
         11    1    1    2    0    0  0.10401783479E+02 -0.14814848485E+02 -0.29224864338E+02  0.34376874942E+02  0.00000000000E+00 0. -1.
<mgrwt>
<rscale>  0 0.12467819E+03</rscale>
<asrwt>0</asrwt>
<pdfrwt beam="2">  1        3 0.34262563E-01 0.13223560E+03</pdfrwt>
<pdfrwt beam="1">  1       -3 0.13761633E-01 0.13223560E+03</pdfrwt>
<totfact> 0.82802387E+02</totfact>
</mgrwt>
</event>
<event>
 7    1  0.5206756E-006  0.1417734E+03  0.7546771E-02  0.1221945E+00
         -1   -1    0    0    0  501 -0.00000000000E+00  0.00000000000E+00  0.24242686121E+02  0.24242686121E+02  0.00000000000E+00 0.  1.
          1   -1    0    0  501    0  0.00000000000E+00 -0.00000000000E+00 -0.95923501952E+03  0.95923501952E+03  0.00000000000E+00 0. -1.
         23    2    1    2    0    0 -0.35392078558E+01 -0.66792681255E+02 -0.77545921953E+03  0.78831255534E+03  0.12500358196E+03 0.  0.
          5    1    3    3  502    0 -0.53523967143E+01 -0.39320308326E+02 -0.74826103621E+03  0.74932730039E+03  0.47000000000E+01 0.  1.
         -5    1    3    3    0  502  0.18131888585E+01 -0.27472372929E+02 -0.27198183316E+02  0.38985254955E+02  0.47000000000E+01 0.  1.
        -11    1    1    2    0    0 -0.22911121356E+02  0.75403045090E+02 -0.86510943061E+02  0.11702427936E+03  0.00000000000E+00 0. -1.
         11    1    1    2    0    0  0.26450329212E+02 -0.86103638347E+01 -0.73022170815E+02  0.78140870940E+02  0.00000000000E+00 0.  1.
<mgrwt>
<rscale>  0 0.13378531E+03</rscale>
<asrwt>0</asrwt>
<pdfrwt beam="2">  1        1 0.14757461E+00 0.14177335E+03</pdfrwt>
<pdfrwt beam="1">  1       -1 0.37296442E-02 0.14177335E+03</pdfrwt>
<totfact> 0.45865026E+03</totfact>
</mgrwt>
</event>
<event>
 7    1  0.5206756E-006  0.2055173E+03  0.7546771E-02  0.1149095E+00
          2   -1    0    0  501    0  0.00000000000E+00  0.00000000000E+00  0.93057229770E+02  0.93057229770E+02  0.00000000000E+00 0. -1.
         -2   -1    0    0    0  501 -0.00000000000E+00 -0.00000000000E+00 -0.41447007350E+03  0.41447007350E+03  0.00000000000E+00 0.  1.
         23    2    1    2    0    0  0.10924376726E+03 -0.12115244459E+03 -0.16233277419E+03  0.26189555945E+03  0.12500095587E+03 0.  0.
          5    1    3    3  502    0  0.11160690336E+03 -0.14246328330E+03 -0.13025089404E+03  0.22302303326E+03  0.47000000000E+01 0.  1.
         -5    1    3    3    0  502 -0.23631361020E+01  0.21310838708E+02 -0.32081880148E+02  0.38872526192E+02  0.47000000000E+01 0.  1.
        -11    1    1    2    0    0 -0.44552181392E+02 -0.45009143649E+01 -0.49875018146E+02  0.67027401352E+02  0.00000000000E+00 0.  1.
         11    1    1    2    0    0 -0.64691585868E+02  0.12565335895E+03 -0.10920505139E+03  0.17860434247E+03  0.00000000000E+00 0. -1.
<mgrwt>
<rscale>  0 0.20076543E+03</rscale>
<asrwt>0</asrwt>
<pdfrwt beam="1">  1        2 0.14316497E-01 0.20551729E+03</pdfrwt>
<pdfrwt beam="2">  1       -2 0.63764625E-01 0.20551729E+03</pdfrwt>
<totfact> 0.95245371E+02</totfact>
</mgrwt>
</event>
<event>
 7    1  0.5206756E-006  0.1505693E+03  0.7546771E-02  0.1209049E+00
          2   -1    0    0  501    0  0.00000000000E+00  0.00000000000E+00  0.69028557977E+03  0.69028557977E+03  0.00000000000E+00 0. -1.
         -2   -1    0    0    0  501 -0.00000000000E+00 -0.00000000000E+00 -0.27186003010E+02  0.27186003010E+02  0.00000000000E+00 0.  1.
         23    2    1    2    0    0  0.83577146669E+02 -0.71060394483E+01  0.37530340661E+03  0.40438070581E+03  0.12504188491E+03 0.  0.
          5    1    3    3  502    0  0.98383163294E+02  0.32506510478E+02  0.30554404318E+03  0.32266882770E+03  0.47000000000E+01 0. -1.
         -5    1    3    3    0  502 -0.14806016626E+02 -0.39612549927E+02  0.69759363424E+02  0.81711878116E+02  0.47000000000E+01 0. -1.
        -11    1    1    2    0    0 -0.42883926660E+02  0.19580065703E+02  0.40474725065E+02  0.62133835450E+02  0.00000000000E+00 0.  1.
         11    1    1    2    0    0 -0.40693220009E+02 -0.12474026255E+02  0.24732144509E+03  0.25095704152E+03  0.00000000000E+00 0. -1.
<mgrwt>
<rscale>  0 0.14322871E+03</rscale>
<asrwt>0</asrwt>
<pdfrwt beam="1">  1        2 0.10619777E+00 0.15056928E+03</pdfrwt>
<pdfrwt beam="2">  1       -2 0.41824625E-02 0.15056928E+03</pdfrwt>
<totfact> 0.10554124E+04</totfact>
</mgrwt>
</event>
<event>
 7    1  0.5206756E-006  0.1310967E+03  0.7546771E-02  0.1239049E+00
          1   -1    0    0  501    0  0.00000000000E+00  0.00000000000E+00  0.64598188567E+03  0.64598188567E+03  0.00000000000E+00 0. -1.
         -1   -1    0    0    0  501 -0.00000000000E+00 -0.00000000000E+00 -0.39205711089E+02  0.39205711089E+02  0.00000000000E+00 0.  1.
         23    2    1    2    0    0  0.37352462304E+02  0.12941485396E+02  0.55951311910E+03  0.57466623754E+03  0.12499466244E+03 0.  0.
          5    1    3    3  502    0 -0.37070019732E+02  0.10458232042E+02  0.75013041723E+02  0.84454765460E+02  0.47000000000E+01 0.  1.
         -5    1    3    3    0  502  0.74422482036E+02  0.24832533539E+01  0.48450007737E+03  0.49021147208E+03  0.47000000000E+01 0.  1.
        -11    1    1    2    0    0 -0.65742914588E+02 -0.14002404076E+02  0.47159326338E+02  0.82110901828E+02  0.00000000000E+00 0. -1.
         11    1    1    2    0    0  0.28390452284E+02  0.10609186799E+01  0.10372914053E+00  0.28410457389E+02  0.00000000000E+00 0.  1.
<mgrwt>
<rscale>  0 0.12248746E+03</rscale>
<asrwt>0</asrwt>
<pdfrwt beam="1">  1        1 0.99381821E-01 0.13109674E+03</pdfrwt>
<pdfrwt beam="2">  1       -1 0.60316483E-02 0.13109674E+03</pdfrwt>
<totfact> 0.40739131E+03</totfact>
</mgrwt>
</event>
<event>
 6    1  0.5206756E-006  0.1641472E+03  0.7546771E-02  0.1210144E+00
          2   -1    0    0  501    0  0.00000000000E+00  0.00000000000E+00  0.16575000817E+04  0.16575000817E+04  0.00000000000E+00 0. -1.
         -2   -1    0    0    0  501 -0.00000000000E+00 -0.00000000000E+00 -0.11689687612E+02  0.11689687612E+02  0.00000000000E+00 0.  1.
          5    1    1    2  502    0 -0.21634506098E+02  0.62869179309E+02  0.80001878073E+03  0.80279058607E+03  0.47000000000E+01 0. -1.
         -5    1    1    2    0  502  0.26938114107E+02 -0.83919779756E+02  0.52670708191E+03  0.53405115069E+03  0.47000000000E+01 0.  1.
        -11    1    1    2    0    0  0.33204361885E+02 -0.16074993415E+02  0.93642165175E+02  0.10064685867E+03  0.00000000000E+00 0.  1.
         11    1    1    2    0    0 -0.38507969894E+02  0.37125593862E+02  0.22544236626E+03  0.23170117386E+03  0.00000000000E+00 0. -1.
<mgrwt>
<rscale>  0 0.14239382E+03</rscale>
<asrwt>0</asrwt>
<pdfrwt beam="1">  1        2 0.25499983E+00 0.16414723E+03</pdfrwt>
<pdfrwt beam="2">  1       -2 0.17984148E-02 0.16414723E+03</pdfrwt>
<totfact> 0.10012618E+04</totfact>
</mgrwt>
</event>
<event>
 7    1  0.5206756E-006  0.1309686E+03  0.7546771E-02  0.1243423E+00
         -2   -1    0    0    0  501 -0.00000000000E+00  0.00000000000E+00  0.27154533355E+02  0.27154533355E+02  0.00000000000E+00 0.  1.
          2   -1    0    0  501    0  0.00000000000E+00 -0.00000000000E+00 -0.45693968944E+03  0.45693968944E+03  0.00000000000E+00 0. -1.
         23    2    1    2    0    0  0.54873672185E+01 -0.38158463578E+02 -0.24512269573E+03  0.27791707367E+03  0.12516622681E+03 0.  0.
          5    1    3    3  502    0 -0.37855263532E+01 -0.23615751699E+02 -0.25589007710E+03  0.25704835245E+03  0.47000000000E+01 0.  1.
         -5    1    3    3    0  502  0.92728935717E+01 -0.14542711879E+02  0.10767381368E+02  0.20868721224E+02  0.47000000000E+01 0.  1.
        -11    1    1    2    0    0 -0.30413476325E+02  0.47483245891E+02 -0.16091609160E+03  0.17050990211E+03  0.00000000000E+00 0.  1.
         11    1    1    2    0    0  0.24926109106E+02 -0.93247823130E+01 -0.23746368753E+02  0.35667247011E+02  0.00000000000E+00 0. -1.
<mgrwt>
<rscale>  0 0.11980281E+03</rscale>
<asrwt>0</asrwt>
<pdfrwt beam="2">  1        2 0.70298409E-01 0.13096856E+03</pdfrwt>
<pdfrwt beam="1">  1       -2 0.41776208E-02 0.13096856E+03</pdfrwt>
<totfact> 0.16658884E+04</totfact>
</mgrwt>
</event>
<event>
 7    1  0.5206756E-006  0.1772579E+03  0.7546771E-02  0.1176423E+00
         -2   -1    0    0    0  501 -0.00000000000E+00  0.00000000000E+00  0.94323263147E+02  0.94323263147E+02  0.00000000000E+00 0.  1.
          2   -1    0    0  501    0  0.00000000000E+00 -0.00000000000E+00 -0.38501840585E+03  0.38501840585E+03  0.00000000000E+00 0. -1.
         23    2    1    2    0    0  0.11778922288E+03 -0.43847168623E+02 -0.27015873652E+03  0.32311932375E+03  0.12499391680E+03 0.  0.
          5    1    3    3  502    0 -0.15694123209E+02 -0.74946304285E+01  0.16513920660E+01  0.18091215667E+02  0.47000000000E+01 0.  1.
         -5    1    3    3    0  502  0.13348334609E+03 -0.36352538194E+02 -0.27181012859E+03  0.30502810808E+03  0.47000000000E+01 0.  1.
        -11    1    1    2    0    0 -0.65405917226E+02  0.69214240947E+02 -0.23974944625E+01  0.95259084279E+02  0.00000000000E+00 0.  1.
         11    1    1    2    0    0 -0.52383305657E+02 -0.25367072324E+02 -0.18138911720E+02  0.60963260971E+02  0.00000000000E+00 0. -1.
<mgrwt>
<rscale>  0 0.17137348E+03</rscale>
<asrwt>0</asrwt>
<pdfrwt beam="2">  1        2 0.59233600E-01 0.17725788E+03</pdfrwt>
<pdfrwt beam="1">  1       -2 0.14511271E-01 0.17725788E+03</pdfrwt>
<totfact> 0.29563990E+03</totfact>
</mgrwt>
</event>
<event>
 7    1  0.5206756E-006  0.1367722E+03  0.7546771E-02  0.1229945E+00
          2   -1    0    0  501    0  0.00000000000E+00  0.00000000000E+00  0.33562644531E+03  0.33562644531E+03  0.00000000000E+00 0. -1.
         -2   -1    0    0    0  501 -0.00000000000E+00 -0.00000000000E+00 -0.65575864688E+02  0.65575864688E+02  0.00000000000E+00 0.  1.
         23    2    1    2    0    0  0.39005767204E+02  0.39493069240E+02  0.26115886203E+03  0.29480603009E+03  0.12500196705E+03 0.  0.
          5    1    3    3  502    0  0.31523279462E+02  0.22857014985E+02  0.27081354836E+03  0.27363886467E+03  0.47000000000E+01 0.  1.
         -5    1    3    3    0  502  0.74824877419E+01  0.16636054255E+02 -0.96546863261E+01  0.21167165423E+02  0.47000000000E+01 0.  1.
        -11    1    1    2    0    0 -0.69297310655E+00 -0.58181861686E+02 -0.11226978152E+02  0.59259212612E+02  0.00000000000E+00 0.  1.
         11    1    1    2    0    0 -0.38312794097E+02  0.18688792446E+02  0.20118696743E+02  0.47137067296E+02  0.00000000000E+00 0. -1.
<mgrwt>
<rscale>  0 0.12833632E+03</rscale>
<asrwt>0</asrwt>
<pdfrwt beam="1">  1        2 0.51634837E-01 0.13677223E+03</pdfrwt>
<pdfrwt beam="2">  1       -2 0.10088595E-01 0.13677223E+03</pdfrwt>
<totfact> 0.60562375E+03</totfact>
</mgrwt>
</event>
<event>
 7    1  0.5206756E-006  0.2223123E+03  0.7546771E-02  0.1135557E+00
         -1   -1    0    0    0  501 -0.00000000000E+00  0.00000000000E+00  0.45923050757E+02  0.45923050757E+02  0.00000000000E+00 0.  1.
          1   -1    0    0  501    0  0.00000000000E+00 -0.00000000000E+00 -0.14716470009E+04  0.14716470009E+04  0.00000000000E+00 0. -1.
         23    2    1    2    0    0  0.47971111705E+01 -0.18378162829E+03 -0.11653809214E+04  0.11863959872E+04  0.12499618917E+03 0.  0.
          5    1    3    3  502    0 -0.21247902876E+02 -0.29294027726E+01 -0.35410552690E+03  0.35478566623E+03  0.47000000000E+01 0. -1.
         -5    1    3    3    0  502  0.26045014046E+02 -0.18085222552E+03 -0.81127539453E+03  0.83161032100E+03  0.47000000000E+01 0. -1.
        -11    1    1    2    0    0 -0.23857539310E+02  0.17123812427E+03 -0.25441079401E+03  0.30759799983E+03  0.00000000000E+00 0. -1.
         11    1    1    2    0    0  0.19060428139E+02  0.12543504016E+02 -0.59322347082E+01  0.23576064610E+02  0.00000000000E+00 0.  1.
<mgrwt>
<rscale>  0 0.21776919E+03</rscale>
<asrwt>0</asrwt>
<pdfrwt beam="2">  1        1 0.22640724E+00 0.22231227E+03</pdfrwt>
<pdfrwt beam="1">  1       -1 0.70650844E-02 0.22231227E+03</pdfrwt>
<totfact> 0.78289444E+02</totfact>
</mgrwt>
</event>
<event>
 7    1  0.5206756E-006  0.1871028E+03  0.7546771E-02  0.1166338E+00
         -2   -1    0    0    0  501 -0.00000000000E+00  0.00000000000E+00  0.61520398604E+02  0.61520398604E+02  0.00000000000E+00 0.  1.
          2   -1    0    0  501    0  0.00000000000E+00 -0.00000000000E+00 -0.81271294452E+03  0.81271294452E+03  0.00000000000E+00 0. -1.
         23    2    1    2    0    0 -0.12093840172E+03  0.68902683561E+02 -0.65797586469E+03  0.68406118382E+03  0.12503514655E+03 0.  0.
          5    1    3    3  502    0 -0.29575584142E+01  0.25021667366E+02 -0.16838652403E+02  0.30666939924E+02  0.47000000000E+01 0. -1.
         -5    1    3    3    0  502 -0.11798084331E+03  0.43881016196E+02 -0.64113721229E+03  0.65339424389E+03  0.47000000000E+01 0. -1.
        -11    1    1    2    0    0  0.72380879389E+02 -0.47404605497E+02 -0.43304730837E+01  0.86631064408E+02  0.00000000000E+00 0.  1.
         11    1    1    2    0    0  0.48557522332E+02 -0.21498078065E+02 -0.88886208143E+02  0.10354109490E+03  0.00000000000E+00 0. -1.
<mgrwt>
<rscale>  0 0.18152215E+03</rscale>
<asrwt>0</asrwt>
<pdfrwt beam="2">  1        2 0.12503276E+00 0.18710282E+03</pdfrwt>
<pdfrwt beam="1">  1       -2 0.94646765E-02 0.18710282E+03</pdfrwt>
<totfact> 0.24980232E+03</totfact>
</mgrwt>
</event>
<event>
 7    1  0.5206756E-006  0.1498228E+03  0.7546771E-02  0.1211588E+00
         -1   -1    0    0    0  501 -0.00000000000E+00  0.00000000000E+00  0.13538496293E+03  0.13538496293E+03  0.00000000000E+00 0.  1.
          1   -1    0    0  501    0  0.00000000000E+00 -0.00000000000E+00 -0.13466333072E+03  0.13466333072E+03  0.00000000000E+00 0. -1.
         23    2    1    2    0    0 -0.41880690199E+02  0.69738478120E+02 -0.14565333834E+02  0.15052909257E+03  0.12581498805E+03 0.  0.
          5    1    3    3  502    0 -0.70253239592E+02  0.65051954977E+02 -0.47139023417E+02  0.10682439819E+03  0.47000000000E+01 0. -1.
         -5    1    3    3    0  502  0.28372549393E+02  0.46865231425E+01  0.32573689583E+02  0.43704694384E+02  0.47000000000E+01 0.  1.
        -11    1    1    2    0    0 -0.24335308473E+02 -0.10124686203E+02 -0.77845837776E+01  0.27483017553E+02  0.00000000000E+00 0. -1.
         11    1    1    2    0    0  0.66215998672E+02 -0.59613791917E+02  0.23071549821E+02  0.92036183526E+02  0.00000000000E+00 0.  1.
<mgrwt>
<rscale>  0 0.14130168E+03</rscale>
<asrwt>0</asrwt>
<pdfrwt beam="2">  1        1 0.20717435E-01 0.14982276E+03</pdfrwt>
<pdfrwt beam="1">  1       -1 0.20828456E-01 0.14982276E+03</pdfrwt>
<totfact> 0.44315124E+03</totfact>
</mgrwt>
</event>
<event>
 6    1  0.5206756E-006  0.1550626E+03  0.7546771E-02  0.1211587E+00
         -1   -1    0    0    0  501 -0.00000000000E+00  0.00000000000E+00  0.15276585276E+03  0.15276585276E+03  0.00000000000E+00 0.  1.
          1   -1    0    0  501    0  0.00000000000E+00 -0.00000000000E+00 -0.12313356332E+03  0.12313356332E+03  0.00000000000E+00 0. -1.
          5    1    1    2  502    0  0.53845772901E+02 -0.46210842813E+02 -0.59143969565E+02  0.92492747762E+02  0.47000000000E+01 0. -1.
         -5    1    1    2    0  502 -0.52291373653E+02 -0.78608008266E+01  0.36204288030E+02  0.64257454197E+02  0.47000000000E+01 0.  1.
        -11    1    1    2    0    0 -0.32954863758E+02  0.15680418379E+02  0.58756385780E+02  0.69167994302E+02  0.00000000000E+00 0.  1.
         11    1    1    2    0    0  0.31400464510E+02  0.38391225261E+02 -0.61844148051E+01  0.49981219823E+02  0.00000000000E+00 0. -1.
<mgrwt>
<rscale>  0 0.14130220E+03</rscale>
<asrwt>0</asrwt>
<pdfrwt beam="2">  1        1 0.18943625E-01 0.15506256E+03</pdfrwt>
<pdfrwt beam="1">  1       -1 0.23502439E-01 0.15506256E+03</pdfrwt>
<totfact> 0.40896950E+03</totfact>
</mgrwt>
</event>
<event>
 7    1  0.5206756E-006  0.1372179E+03  0.7546771E-02  0.1228899E+00
          3   -1    0    0  501    0  0.00000000000E+00  0.00000000000E+00  0.26299070704E+03  0.26299070704E+03  0.00000000000E+00 0. -1.
         -3   -1    0    0    0  501 -0.00000000000E+00 -0.00000000000E+00 -0.61073900459E+02  0.61073900459E+02  0.00000000000E+00 0.  1.
         23    2    1    2    0    0 -0.13322378666E+02 -0.54998927578E+02  0.15486766421E+03  0.20691239253E+03  0.12500550771E+03 0.  0.
          5    1    3    3  502    0 -0.16334677291E+01 -0.90445833700E+02  0.13938238043E+03  0.16623072828E+03  0.47000000000E+01 0.  1.
         -5    1    3    3    0  502 -0.11688910937E+02  0.35446906121E+02  0.15485283783E+02  0.40681664252E+02  0.47000000000E+01 0.  1.
        -11    1    1    2    0    0 -0.37156060805E+02  0.25632814350E+02  0.35953565141E+02  0.57708516463E+02  0.00000000000E+00 0.  1.
         11    1    1    2    0    0  0.50478439472E+02  0.29366113229E+02  0.11095577226E+02  0.59443698502E+02  0.00000000000E+00 0. -1.
<mgrwt>
<rscale>  0 0.12903194E+03</rscale>
<asrwt>0</asrwt>
<pdfrwt beam="1">  1        3 0.40460108E-01 0.13721787E+03</pdfrwt>
<pdfrwt beam="2">  1       -3 0.93959848E-02 0.13721787E+03</pdfrwt>
<totfact> 0.11472492E+03</totfact>
</mgrwt>
</event>
<event>
 6    1  0.5206756E-006  0.3329700E+03  0.7546771E-02  0.1104381E+00
          2   -1    0    0  501    0  0.00000000000E+00  0.00000000000E+00  0.32936452246E+03  0.32936452246E+03  0.00000000000E+00 0. -1.
         -2   -1    0    0    0  501 -0.00000000000E+00 -0.00000000000E+00 -0.20673469037E+03  0.20673469037E+03  0.00000000000E+00 0.  1.
          5    1    1    2  502    0  0.71045565439E+02  0.36337988122E+01  0.28363633228E+03  0.29245911826E+03  0.47000000000E+01 0. -1.
         -5    1    1    2    0  502  0.16100015838E+02  0.16943855100E+02 -0.89739517883E+02  0.92852441031E+02  0.47000000000E+01 0.  1.
        -11    1    1    2    0    0  0.18912681135E+02 -0.47201297769E+01 -0.30223722648E+02  0.35964462230E+02  0.00000000000E+00 0.  1.
         11    1    1    2    0    0 -0.10605826241E+03 -0.15857524135E+02 -0.41043259664E+02  0.11482319130E+03  0.00000000000E+00 0. -1.
<mgrwt>
<rscale>  0 0.26464965E+03</rscale>
<asrwt>0</asrwt>
<pdfrwt beam="1">  1        2 0.50671465E-01 0.33297000E+03</pdfrwt>
<pdfrwt beam="2">  1       -2 0.31805337E-01 0.33297000E+03</pdfrwt>
<totfact> 0.90987173E+02</totfact>
</mgrwt>
</event>
<event>
 7    1  0.5206756E-006  0.1330850E+03  0.7546771E-02  0.1235940E+00
          2   -1    0    0  501    0  0.00000000000E+00  0.00000000000E+00  0.89993817006E+03  0.89993817006E+03  0.00000000000E+00 0.  1.
         -2   -1    0    0    0  501 -0.00000000000E+00 -0.00000000000E+00 -0.16274568964E+02  0.16274568964E+02  0.00000000000E+00 0. -1.
         23    2    1    2    0    0  0.36609005968E+02  0.27338608099E+02  0.60739439680E+03  0.62180347589E+03  0.12499596213E+03 0.  0.
          5    1    3    3  502    0 -0.45392547328E+02  0.16114106925E+01  0.25451280014E+03  0.25857674959E+03  0.47000000000E+01 0. -1.
         -5    1    3    3    0  502  0.82001553296E+02  0.25727197406E+02  0.35288159666E+03  0.36322672629E+03  0.47000000000E+01 0. -1.
        -11    1    1    2    0    0  0.56088116453E+01  0.22842146894E+02  0.23411192586E+02  0.33185936495E+02  0.00000000000E+00 0. -1.
         11    1    1    2    0    0 -0.42217817614E+02 -0.50180754992E+02  0.25285801172E+03  0.26122332665E+03  0.00000000000E+00 0.  1.
<mgrwt>
<rscale>  0 0.12444445E+03</rscale>
<asrwt>0</asrwt>
<pdfrwt beam="1">  1        2 0.13845199E+00 0.13308497E+03</pdfrwt>
<pdfrwt beam="2">  1       -2 0.25037806E-02 0.13308497E+03</pdfrwt>
<totfact> 0.16059211E+04</totfact>
</mgrwt>
</event>
<event>
 7    1  0.5206756E-006  0.1565338E+03  0.7546771E-02  0.1194075E+00
         -1   -1    0    0    0  501 -0.00000000000E+00  0.00000000000E+00  0.30625841662E+02  0.30625841662E+02  0.00000000000E+00 0.  1.
          1   -1    0    0  501    0  0.00000000000E+00 -0.00000000000E+00 -0.13046740389E+04  0.13046740389E+04  0.00000000000E+00 0. -1.
         23    2    1    2    0    0  0.92082324676E+02  0.19905275869E+02 -0.10679083563E+04  0.10793197358E+04  0.12500984016E+03 0.  0.
          5    1    3    3  502    0  0.10037035539E+02  0.61249047590E+02 -0.52438508464E+03  0.52806627889E+03  0.47000000000E+01 0. -1.
         -5    1    3    3    0  502  0.82045289137E+02 -0.41343771720E+02 -0.54352327165E+03  0.55125345691E+03  0.47000000000E+01 0. -1.
        -11    1    1    2    0    0 -0.87127277148E+02  0.33256112619E+02 -0.97446169082E+02  0.13488101170E+03  0.00000000000E+00 0. -1.
         11    1    1    2    0    0 -0.49550475277E+01 -0.53161388488E+02 -0.10869367185E+03  0.12109913304E+03  0.00000000000E+00 0.  1.
<mgrwt>
<rscale>  0 0.15532739E+03</rscale>
<asrwt>0</asrwt>
<pdfrwt beam="2">  1        1 0.20071904E+00 0.15653381E+03</pdfrwt>
<pdfrwt beam="1">  1       -1 0.47116690E-02 0.15653381E+03</pdfrwt>
<totfact> 0.18619946E+03</totfact>
</mgrwt>
</event>
<event>
 7    1  0.5206756E-006  0.1390250E+03  0.7546771E-02  0.1225752E+00
          1   -1    0    0  501    0  0.00000000000E+00  0.00000000000E+00  0.28410887678E+03  0.28410887678E+03  0.00000000000E+00 0. -1.
         -1   -1    0    0    0  501 -0.00000000000E+00 -0.00000000000E+00 -0.56329524323E+02  0.56329524323E+02  0.00000000000E+00 0.  1.
         23    2    1    2    0    0 -0.53051751883E+02 -0.29694121482E+02  0.15616437177E+03  0.20908196365E+03  0.12502690624E+03 0.  0.
          5    1    3    3  502    0  0.29548211649E+02  0.25241017771E+02  0.52948456137E+02  0.65847056100E+02  0.47000000000E+01 0. -1.
         -5    1    3    3    0  502 -0.82599963532E+02 -0.54935139253E+02  0.10321591563E+03  0.14323490755E+03  0.47000000000E+01 0. -1.
        -11    1    1    2    0    0  0.32766808669E+02 -0.31026414119E+02  0.21137130281E+02  0.49830516753E+02  0.00000000000E+00 0.  1.
         11    1    1    2    0    0  0.20284943215E+02  0.60720535601E+02  0.50477850409E+02  0.81525920705E+02  0.00000000000E+00 0. -1.
<mgrwt>
<rscale>  0 0.13115461E+03</rscale>
<asrwt>0</asrwt>
<pdfrwt beam="1">  1        1 0.43709057E-01 0.13902502E+03</pdfrwt>
<pdfrwt beam="2">  1       -1 0.86660808E-02 0.13902502E+03</pdfrwt>
<totfact> 0.68173884E+03</totfact>
</mgrwt>
</event>
<event>
 7    1  0.5206756E-006  0.1278777E+03  0.7546771E-02  0.1237876E+00
          1   -1    0    0  501    0  0.00000000000E+00  0.00000000000E+00  0.49120890096E+03  0.49120890096E+03  0.00000000000E+00 0. -1.
         -1   -1    0    0    0  501 -0.00000000000E+00 -0.00000000000E+00 -0.50187507559E+02  0.50187507559E+02  0.00000000000E+00 0.  1.
         23    2    1    2    0    0 -0.45528593171E+02 -0.40723442143E+02  0.40609429743E+03  0.42575260341E+03  0.11234522405E+03 0.  0.
          5    1    3    3  502    0 -0.77424180289E+02 -0.33505048747E+02  0.35492944099E+03  0.36484803695E+03  0.47000000000E+01 0. -1.
         -5    1    3    3    0  502  0.31895587118E+02 -0.72183933962E+01  0.51164856448E+02  0.60904566464E+02  0.47000000000E+01 0.  1.
        -11    1    1    2    0    0  0.11992978935E+02 -0.25875946719E+02 -0.79780183509E+01  0.29614944524E+02  0.00000000000E+00 0.  1.
         11    1    1    2    0    0  0.33535614235E+02  0.66599388862E+02  0.42905114317E+02  0.86028860585E+02  0.00000000000E+00 0. -1.
<mgrwt>
<rscale>  0 0.12322083E+03</rscale>
<asrwt>0</asrwt>
<pdfrwt beam="1">  1        1 0.75570597E-01 0.12787768E+03</pdfrwt>
<pdfrwt beam="2">  1       -1 0.77211553E-02 0.12787768E+03</pdfrwt>
<totfact> 0.40580725E+03</totfact>
</mgrwt>
</event>
<event>
 6    1  0.5206756E-006  0.1842963E+03  0.7546771E-02  0.1194847E+00
          1   -1    0    0  501    0  0.00000000000E+00  0.00000000000E+00  0.80757860465E+03  0.80757860465E+03  0.00000000000E+00 0.  1.
         -1   -1    0    0    0  501 -0.00000000000E+00 -0.00000000000E+00 -0.97393205888E+02  0.97393205888E+02  0.00000000000E+00 0. -1.
          5    1    1    2  502    0 -0.22906962928E+02 -0.73733234001E+02  0.15600904431E+03  0.17413279603E+03  0.47000000000E+01 0. -1.
         -5    1    1    2    0  502  0.18753747765E+02  0.63409277354E+02  0.61658494118E+03  0.62013830651E+03  0.47000000000E+01 0.  1.
        -11    1    1    2    0    0 -0.24997579398E+02  0.30569821497E+02 -0.67859550036E+00  0.39494980111E+02  0.00000000000E+00 0. -1.
         11    1    1    2    0    0  0.29150794562E+02 -0.20245864851E+02 -0.61729991227E+02  0.71205727888E+02  0.00000000000E+00 0.  1.
<mgrwt>
<rscale>  0 0.15467211E+03</rscale>
<asrwt>0</asrwt>
<pdfrwt beam="1">  1        1 0.12424286E+00 0.18429628E+03</pdfrwt>
<pdfrwt beam="2">  1       -1 0.14983571E-01 0.18429628E+03</pdfrwt>
<totfact> 0.73634449E+02</totfact>
</mgrwt>
</event>
<event>
 7    1  0.5206756E-006  0.1508629E+03  0.7546771E-02  0.1209109E+00
          1   -1    0    0  501    0  0.00000000000E+00  0.00000000000E+00  0.49594697407E+03  0.49594697407E+03  0.00000000000E+00 0. -1.
         -1   -1    0    0    0  501 -0.00000000000E+00 -0.00000000000E+00 -0.38896039736E+02  0.38896039736E+02  0.00000000000E+00 0.  1.
         23    2    1    2    0    0  0.80264684916E+02 -0.26327197395E+02  0.29927303315E+03  0.33514766559E+03  0.12499627360E+03 0.  0.
          5    1    3    3  502    0  0.51154603408E+02 -0.58985896049E+02  0.27281040651E+03  0.28380228555E+03  0.47000000000E+01 0. -1.
         -5    1    3    3    0  502  0.29110081508E+02  0.32658698655E+02  0.26462626641E+02  0.51345380045E+02  0.47000000000E+01 0. -1.
        -11    1    1    2    0    0 -0.48134138555E+02 -0.26973930718E+02  0.46334211534E+02  0.72051005485E+02  0.00000000000E+00 0.  1.
         11    1    1    2    0    0 -0.32130546361E+02  0.53301128113E+02  0.11144368965E+03  0.12764434273E+03  0.00000000000E+00 0. -1.
<mgrwt>
<rscale>  0 0.14318305E+03</rscale>
<asrwt>0</asrwt>
<pdfrwt beam="1">  1        1 0.76299530E-01 0.15086288E+03</pdfrwt>
<pdfrwt beam="2">  1       -1 0.59840065E-02 0.15086288E+03</pdfrwt>
<totfact> 0.59212481E+03</totfact>
</mgrwt>
</event>
<event>
 7    1  0.5206756E-006  0.1156061E+03  0.7546771E-02  0.1261231E+00
          2   -1    0    0  501    0  0.00000000000E+00  0.00000000000E+00  0.10488846332E+04  0.10488846332E+04  0.00000000000E+00 0. -1.
         -2   -1    0    0    0  501 -0.00000000000E+00 -0.00000000000E+00 -0.42036241306E+02  0.42036241306E+02  0.00000000000E+00 0.  1.
         23    2    1    2    0    0  0.25735814248E+02 -0.95872488957E+00  0.98895004950E+03  0.99568417566E+03  0.11270104681E+03 0.  0.
          5    1    3    3  502    0 -0.41355142832E+02 -0.16580423678E+02  0.47692385443E+03  0.47902360194E+03  0.47000000000E+01 0. -1.
         -5    1    3    3    0  502  0.67090957080E+02  0.15621698789E+02  0.51202619507E+03  0.51666057372E+03  0.47000000000E+01 0.  1.
        -11    1    1    2    0    0 -0.35626514136E+01  0.29946590577E+02  0.41849386395E+02  0.51583543053E+02  0.00000000000E+00 0.  1.
         11    1    1    2    0    0 -0.22173162834E+02 -0.28987865687E+02 -0.23951043967E+02  0.43653155834E+02  0.00000000000E+00 0. -1.
<mgrwt>
<rscale>  0 0.10964395E+03</rscale>
<asrwt>0</asrwt>
<pdfrwt beam="1">  1        2 0.16136685E+00 0.11560613E+03</pdfrwt>
<pdfrwt beam="2">  1       -2 0.64671148E-02 0.11560613E+03</pdfrwt>
<totfact> 0.31690404E+03</totfact>
</mgrwt>
</event>
<event>
 7    1  0.5206756E-006  0.1283399E+03  0.7546771E-02  0.1243886E+00
          2   -1    0    0  501    0  0.00000000000E+00  0.00000000000E+00  0.50893264193E+03  0.50893264193E+03  0.00000000000E+00 0. -1.
         -2   -1    0    0    0  501 -0.00000000000E+00 -0.00000000000E+00 -0.24854172037E+02  0.24854172037E+02  0.00000000000E+00 0.  1.
         23    2    1    2    0    0 -0.28430519331E+02 -0.84318318515E+01  0.27048043789E+03  0.29938401660E+03  0.12486685666E+03 0.  0.
          5    1    3    3  502    0 -0.50867671495E+02 -0.36816776915E+02  0.24944179919E+03  0.25726697465E+03  0.47000000000E+01 0. -1.
         -5    1    3    3    0  502  0.22437152164E+02  0.28384945063E+02  0.21038638707E+02  0.42117041944E+02  0.47000000000E+01 0.  1.
        -11    1    1    2    0    0  0.13704798227E+02 -0.41839639478E+02  0.10367432558E+03  0.11263544163E+03  0.00000000000E+00 0. -1.
         11    1    1    2    0    0  0.14725721104E+02  0.50271471329E+02  0.10992370642E+03  0.12176735574E+03  0.00000000000E+00 0.  1.
<mgrwt>
<rscale>  0 0.11952298E+03</rscale>
<asrwt>0</asrwt>
<pdfrwt beam="1">  1        2 0.78297322E-01 0.12833987E+03</pdfrwt>
<pdfrwt beam="2">  1       -2 0.38237192E-02 0.12833987E+03</pdfrwt>
<totfact> 0.16862718E+04</totfact>
</mgrwt>
</event>
<event>
 7    1  0.5206756E-006  0.1307073E+03  0.7546771E-02  0.1262933E+00
         -1   -1    0    0    0  501 -0.00000000000E+00  0.00000000000E+00  0.16868633443E+02  0.16868633443E+02  0.00000000000E+00 0.  1.
          1   -1    0    0  501    0  0.00000000000E+00 -0.00000000000E+00 -0.59221809525E+03  0.59221809525E+03  0.00000000000E+00 0. -1.
         23    2    1    2    0    0  0.32316583487E+02 -0.20441636697E+02 -0.45538962250E+03  0.47377642386E+03  0.12498867728E+03 0.  0.
          5    1    3    3  502    0  0.63191463093E+01  0.33292764173E+01  0.63631053247E+01  0.10658086175E+02  0.47000000000E+01 0. -1.
         -5    1    3    3    0  502  0.25997437178E+02 -0.23770913114E+02 -0.46175272782E+03  0.46311833768E+03  0.47000000000E+01 0. -1.
        -11    1    1    2    0    0 -0.17337664657E+02  0.96227020240E+01 -0.11426844587E+03  0.11597615588E+03  0.00000000000E+00 0. -1.
         11    1    1    2    0    0 -0.14978918830E+02  0.10818934673E+02 -0.56913934459E+01  0.19334148963E+02  0.00000000000E+00 0.  1.
<mgrwt>
<rscale>  0 0.10873391E+03</rscale>
<asrwt>0</asrwt>
<pdfrwt beam="2">  1        1 0.91110464E-01 0.13070727E+03</pdfrwt>
<pdfrwt beam="1">  1       -1 0.25951747E-02 0.13070727E+03</pdfrwt>
<totfact> 0.15815425E+04</totfact>
</mgrwt>
</event>
<event>
 7    1  0.5206756E-006  0.2626138E+03  0.7546771E-02  0.1107853E+00
          2   -1    0    0  501    0  0.00000000000E+00  0.00000000000E+00  0.56327847364E+03  0.56327847364E+03  0.00000000000E+00 0. -1.
         -2   -1    0    0    0  501 -0.00000000000E+00 -0.00000000000E+00 -0.12372744335E+03  0.12372744335E+03  0.00000000000E+00 0.  1.
         23    2    1    2    0    0  0.12473016845E+03  0.19437849686E+03  0.13782670491E+03  0.29658425541E+03  0.12500162001E+03 0.  0.
          5    1    3    3  502    0  0.13457855451E+03  0.12584728002E+03  0.13247900182E+03  0.22698392266E+03  0.47000000000E+01 0. -1.
         -5    1    3    3    0  502 -0.98483860679E+01  0.68531216847E+02  0.53477030940E+01  0.69600332751E+02  0.47000000000E+01 0. -1.
        -11    1    1    2    0    0 -0.17300925272E+02 -0.96389511049E+02  0.86375655807E+02  0.13057953045E+03  0.00000000000E+00 0.  1.
         11    1    1    2    0    0 -0.10742924317E+03 -0.97988985816E+02  0.21534866957E+03  0.25984213114E+03  0.00000000000E+00 0. -1.
<mgrwt>
<rscale>  0 0.25882232E+03</rscale>
<asrwt>0</asrwt>
<pdfrwt beam="1">  1        2 0.86658225E-01 0.26261382E+03</pdfrwt>
<pdfrwt beam="2">  1       -2 0.19034992E-01 0.26261382E+03</pdfrwt>
<totfact> 0.12436645E+03</totfact>
</mgrwt>
</event>
<event>
 7    1  0.5206756E-006  0.1887848E+03  0.7546771E-02  0.1164513E+00
         -2   -1    0    0    0  501 -0.00000000000E+00  0.00000000000E+00  0.11509478783E+03  0.11509478783E+03  0.00000000000E+00 0.  1.
          2   -1    0    0  501    0  0.00000000000E+00 -0.00000000000E+00 -0.27697092366E+03  0.27697092366E+03  0.00000000000E+00 0. -1.
         23    2    1    2    0    0 -0.12900015100E+03 -0.58085906747E+02 -0.86115678107E+02  0.20749850498E+03  0.12499883213E+03 0.  0.
          5    1    3    3  502    0 -0.14780711131E+03 -0.66575820414E+02 -0.90739922316E+02  0.18583623306E+03  0.47000000000E+01 0. -1.
         -5    1    3    3    0  502  0.18806960311E+02  0.84899136675E+01  0.46242442100E+01  0.21662271920E+02  0.47000000000E+01 0. -1.
        -11    1    1    2    0    0  0.73085048987E+02 -0.16506157869E+02 -0.29855000089E+02  0.80654811781E+02  0.00000000000E+00 0.  1.
         11    1    1    2    0    0  0.55915102009E+02  0.74592064616E+02 -0.45905457632E+02  0.10391239472E+03  0.00000000000E+00 0. -1.
<mgrwt>
<rscale>  0 0.18344141E+03</rscale>
<asrwt>0</asrwt>
<pdfrwt beam="2">  1        2 0.42610911E-01 0.18878485E+03</pdfrwt>
<pdfrwt beam="1">  1       -2 0.17706891E-01 0.18878485E+03</pdfrwt>
<totfact> 0.30330579E+03</totfact>
</mgrwt>
</event>
<event>
 7    1  0.5206756E-006  0.1818461E+03  0.7546771E-02  0.1172104E+00
          1   -1    0    0  501    0  0.00000000000E+00  0.00000000000E+00  0.48845344207E+03  0.48845344207E+03  0.00000000000E+00 0. -1.
         -1   -1    0    0    0  501 -0.00000000000E+00 -0.00000000000E+00 -0.65820751017E+02  0.65820751017E+02  0.00000000000E+00 0.  1.
         23    2    1    2    0    0  0.12991208034E+03  0.23731926350E+02  0.31230430454E+03  0.36138896637E+03  0.12501061327E+03 0.  0.
          5    1    3    3  502    0 -0.50201262458E+01 -0.33795592175E+02  0.48534993169E+02  0.59540568354E+02  0.47000000000E+01 0. -1.
         -5    1    3    3    0  502  0.13493220659E+03  0.57527518525E+02  0.26376931137E+03  0.30184839802E+03  0.47000000000E+01 0. -1.
        -11    1    1    2    0    0 -0.72818216356E+02  0.30955157578E+02  0.53243955493E+02  0.95371029199E+02  0.00000000000E+00 0.  1.
         11    1    1    2    0    0 -0.57093863984E+02 -0.54687083929E+02  0.57084431019E+02  0.97514197520E+02  0.00000000000E+00 0. -1.
<mgrwt>
<rscale>  0 0.17562677E+03</rscale>
<asrwt>0</asrwt>
<pdfrwt beam="1">  1        1 0.75146681E-01 0.18184611E+03</pdfrwt>
<pdfrwt beam="2">  1       -1 0.10126270E-01 0.18184611E+03</pdfrwt>
<totfact> 0.27445868E+03</totfact>
</mgrwt>
</event>
<event>
 7    1  0.5206756E-006  0.1306383E+03  0.7546771E-02  0.1240070E+00
         -2   -1    0    0    0  501 -0.00000000000E+00  0.00000000000E+00  0.29265010819E+03  0.29265010819E+03  0.00000000000E+00 0.  1.
          2   -1    0    0  501    0  0.00000000000E+00 -0.00000000000E+00 -0.49463015047E+02  0.49463015047E+02  0.00000000000E+00 0. -1.
         23    2    1    2    0    0  0.34836957563E+01 -0.37805666590E+02  0.85991275610E+02  0.15639966978E+03  0.12499981066E+03 0.  0.
          5    1    3    3  502    0 -0.77815233252E+01  0.16881482395E+02  0.97355863893E+02  0.99225958234E+02  0.47000000000E+01 0.  1.
         -5    1    3    3    0  502  0.11265219082E+02 -0.54687148985E+02 -0.11364588283E+02  0.57173711546E+02  0.47000000000E+01 0.  1.
        -11    1    1    2    0    0 -0.41826086766E+02  0.16218779694E+02  0.38471811025E+02  0.59097805310E+02  0.00000000000E+00 0.  1.
         11    1    1    2    0    0  0.38342391010E+02  0.21586886896E+02  0.11872400651E+03  0.12661564815E+03  0.00000000000E+00 0. -1.
<mgrwt>
<rscale>  0 0.12185389E+03</rscale>
<asrwt>0</asrwt>
<pdfrwt beam="2">  1        2 0.76096948E-02 0.13063827E+03</pdfrwt>
<pdfrwt beam="1">  1       -2 0.45023093E-01 0.13063827E+03</pdfrwt>
<totfact> 0.40794687E+03</totfact>
</mgrwt>
</event>
<event>
 7    1  0.5206756E-006  0.1280562E+03  0.7546771E-02  0.1242884E+00
         -1   -1    0    0    0  501 -0.00000000000E+00  0.00000000000E+00  0.24891818477E+03  0.24891818477E+03  0.00000000000E+00 0.  1.
          1   -1    0    0  501    0  0.00000000000E+00 -0.00000000000E+00 -0.52956949581E+02  0.52956949581E+02  0.00000000000E+00 0. -1.
         23    2    1    2    0    0  0.27784575854E+02  0.18687904108E+00  0.88601058770E+02  0.15571945523E+03  0.12500553405E+03 0.  0.
          5    1    3    3  502    0  0.27322474121E+02  0.59764983118E+02  0.31362646773E+02  0.72966269000E+02  0.47000000000E+01 0.  1.
         -5    1    3    3    0  502  0.46210173288E+00 -0.59578104077E+02  0.57238411997E+02  0.82753186231E+02  0.47000000000E+01 0.  1.
        -11    1    1    2    0    0 -0.14593973510E+02 -0.47567437562E+02  0.48965305098E+02  0.69808640456E+02  0.00000000000E+00 0. -1.
         11    1    1    2    0    0 -0.13190602344E+02  0.47380558521E+02  0.58394871319E+02  0.76347038661E+02  0.00000000000E+00 0.  1.
<mgrwt>
<rscale>  0 0.12012928E+03</rscale>
<asrwt>0</asrwt>
<pdfrwt beam="2">  1        1 0.81472231E-02 0.12805624E+03</pdfrwt>
<pdfrwt beam="1">  1       -1 0.38295105E-01 0.12805624E+03</pdfrwt>
<totfact> 0.53672733E+03</totfact>
</mgrwt>
</event>
<event>
 7    1  0.5206756E-006  0.1251864E+03  0.7546771E-02  0.1250462E+00
          1   -1    0    0  501    0  0.00000000000E+00  0.00000000000E+00  0.15691280478E+03  0.15691280478E+03  0.00000000000E+00 0.  1.
         -1   -1    0    0    0  501 -0.00000000000E+00 -0.00000000000E+00 -0.78121392393E+02  0.78121392393E+02  0.00000000000E+00 0. -1.
         23    2    1    2    0    0  0.90325332247E+00 -0.68097268176E+00  0.70054166494E+02  0.14345456778E+03  0.12518125731E+03 0.  0.
          5    1    3    3  502    0 -0.19849319082E+02  0.48667646589E+02  0.72485328095E+02  0.89659065808E+02  0.47000000000E+01 0.  1.
         -5    1    3    3    0  502  0.20752572404E+02 -0.49348619271E+02 -0.24311616014E+01  0.53795501969E+02  0.47000000000E+01 0.  1.
        -11    1    1    2    0    0  0.19603354215E+02  0.35685999060E+02  0.25104342091E+02  0.47833147682E+02  0.00000000000E+00 0. -1.
         11    1    1    2    0    0 -0.20506607537E+02 -0.35005026378E+02 -0.16367096197E+02  0.43746481714E+02  0.00000000000E+00 0.  1.
<mgrwt>
<rscale>  0 0.11564347E+03</rscale>
<asrwt>0</asrwt>
<pdfrwt beam="1">  1        1 0.24140431E-01 0.12518637E+03</pdfrwt>
<pdfrwt beam="2">  1       -1 0.12018676E-01 0.12518637E+03</pdfrwt>
<totfact> 0.85815384E+03</totfact>
</mgrwt>
</event>
<event>
 7    1  0.5206756E-006  0.1336045E+03  0.7546771E-02  0.1234747E+00
         -2   -1    0    0    0  501 -0.00000000000E+00  0.00000000000E+00  0.44626329863E+02  0.44626329863E+02  0.00000000000E+00 0.  1.
          2   -1    0    0  501    0  0.00000000000E+00 -0.00000000000E+00 -0.33993413754E+03  0.33993413754E+03  0.00000000000E+00 0. -1.
         23    2    1    2    0    0 -0.39691732267E+02 -0.25501404603E+02 -0.21820761447E+03  0.25586076200E+03  0.12499764507E+03 0.  0.
          5    1    3    3  502    0 -0.74751845076E+02 -0.34602937229E+02 -0.88007306214E+02  0.12063406465E+03  0.47000000000E+01 0. -1.
         -5    1    3    3    0  502  0.35060112809E+02  0.91015326266E+01 -0.13020030826E+03  0.13522669735E+03  0.47000000000E+01 0. -1.
        -11    1    1    2    0    0 -0.26243056851E+02 -0.18511080860E+01 -0.41481716104E+01  0.26633286724E+02  0.00000000000E+00 0.  1.
         11    1    1    2    0    0  0.65934789118E+02  0.27352512689E+02 -0.72952021589E+02  0.10206641867E+03  0.00000000000E+00 0. -1.
<mgrwt>
<rscale>  0 0.12520659E+03</rscale>
<asrwt>0</asrwt>
<pdfrwt beam="2">  1        2 0.52297558E-01 0.13360452E+03</pdfrwt>
<pdfrwt beam="1">  1       -2 0.68655894E-02 0.13360452E+03</pdfrwt>
<totfact> 0.10829124E+04</totfact>
</mgrwt>
</event>
<event>
 7    1  0.5206756E-006  0.1326796E+03  0.7546771E-02  0.1236266E+00
          2   -1    0    0  501    0  0.00000000000E+00  0.00000000000E+00  0.89287067811E+03  0.89287067811E+03  0.00000000000E+00 0. -1.
         -2   -1    0    0    0  501 -0.00000000000E+00 -0.00000000000E+00 -0.17655907117E+02  0.17655907117E+02  0.00000000000E+00 0.  1.
         23    2    1    2    0    0  0.11112646424E+02 -0.43104372807E+02  0.64835199089E+03  0.66178862301E+03  0.12498959795E+03 0.  0.
          5    1    3    3  502    0  0.30641482195E+02  0.42958030993E+01  0.54899798547E+03  0.54988929105E+03  0.47000000000E+01 0. -1.
         -5    1    3    3    0  502 -0.19528835771E+02 -0.47400175906E+02  0.99354005416E+02  0.11189933197E+03  0.47000000000E+01 0. -1.
        -11    1    1    2    0    0 -0.60390639699E+01 -0.12747027945E+02 -0.93716393344E+00  0.14136311092E+02  0.00000000000E+00 0.  1.
         11    1    1    2    0    0 -0.50735824543E+01  0.55851400752E+02  0.22779994404E+03  0.23460165112E+03  0.00000000000E+00 0. -1.
<mgrwt>
<rscale>  0 0.12423741E+03</rscale>
<asrwt>0</asrwt>
<pdfrwt beam="1">  1        2 0.13736468E+00 0.13267960E+03</pdfrwt>
<pdfrwt beam="2">  1       -2 0.27162941E-02 0.13267960E+03</pdfrwt>
<totfact> 0.14400132E+04</totfact>
</mgrwt>
</event>
<event>
 7    1  0.5206756E-006  0.3082335E+03  0.7546771E-02  0.1082680E+00
          1   -1    0    0  501    0  0.00000000000E+00  0.00000000000E+00  0.32507135940E+04  0.32507135940E+04  0.00000000000E+00 0. -1.
         -1   -1    0    0    0  501 -0.00000000000E+00 -0.00000000000E+00 -0.45017683878E+02  0.45017683878E+02  0.00000000000E+00 0.  1.
         23    2    1    2    0    0  0.11575223492E+03  0.25687640421E+03  0.26329345120E+04  0.26509153232E+04  0.12499535728E+03 0.  0.
          5    1    3    3  502    0  0.13532936220E+03  0.17177076679E+03  0.17352405119E+04  0.17489713996E+04  0.47000000000E+01 0.  1.
         -5    1    3    3    0  502 -0.19577127286E+02  0.85105637420E+02  0.89769400018E+03  0.90194392364E+03  0.47000000000E+01 0.  1.
        -11    1    1    2    0    0 -0.61128697973E+02 -0.14246654863E+03  0.21355294769E+03  0.26389069074E+03  0.00000000000E+00 0.  1.
         11    1    1    2    0    0 -0.54623536945E+02 -0.11440985558E+03  0.35920845038E+03  0.38092526388E+03  0.00000000000E+00 0. -1.
<mgrwt>
<rscale>  0 0.30517901E+03</rscale>
<asrwt>0</asrwt>
<pdfrwt beam="1">  1        1 0.50010960E+00 0.30823353E+03</pdfrwt>
<pdfrwt beam="2">  1       -1 0.69258001E-02 0.30823353E+03</pdfrwt>
<totfact> 0.50891271E+01</totfact>
</mgrwt>
</event>
<event>
 7    1  0.5206756E-006  0.1517561E+03  0.7546771E-02  0.1206958E+00
         -2   -1    0    0    0  501 -0.00000000000E+00  0.00000000000E+00  0.27492292064E+02  0.27492292064E+02  0.00000000000E+00 0.  1.
          2   -1    0    0  501    0  0.00000000000E+00 -0.00000000000E+00 -0.75220635461E+03  0.75220635461E+03  0.00000000000E+00 0. -1.
         23    2    1    2    0    0  0.24401255474E+02  0.82513926100E+02 -0.49486221085E+03  0.51760845652E+03  0.12500374903E+03 0.  0.
          5    1    3    3  502    0  0.34904190552E+02 -0.21444034716E+02 -0.83069928476E+02  0.92740779380E+02  0.47000000000E+01 0.  1.
         -5    1    3    3    0  502 -0.10502935078E+02  0.10395796082E+03 -0.41179228237E+03  0.42486767715E+03  0.47000000000E+01 0.  1.
        -11    1    1    2    0    0 -0.49902539676E+01 -0.14466097497E+02  0.55536175123E+01  0.16279228450E+02  0.00000000000E+00 0.  1.
         11    1    1    2    0    0 -0.19411001506E+02 -0.68047828603E+02 -0.23540546921E+03  0.24581096170E+03  0.00000000000E+00 0. -1.
<mgrwt>
<rscale>  0 0.14484229E+03</rscale>
<asrwt>0</asrwt>
<pdfrwt beam="2">  1        2 0.11572405E+00 0.15175608E+03</pdfrwt>
<pdfrwt beam="1">  1       -2 0.42295834E-02 0.15175608E+03</pdfrwt>
<totfact> 0.93638005E+03</totfact>
</mgrwt>
</event>
<event>
 7    1  0.5206756E-006  0.1554678E+03  0.7546771E-02  0.1202144E+00
         -2   -1    0    0    0  501 -0.00000000000E+00  0.00000000000E+00  0.64616489888E+02  0.64616489888E+02  0.00000000000E+00 0.  1.
          2   -1    0    0  501    0  0.00000000000E+00 -0.00000000000E+00 -0.32655538804E+03  0.32655538804E+03  0.00000000000E+00 0. -1.
         23    2    1    2    0    0 -0.12474964110E+02  0.91592867822E+02 -0.17870339608E+03  0.23686521877E+03  0.12500139970E+03 0.  0.
          5    1    3    3  502    0 -0.42878815424E+02  0.43777777810E+01 -0.10030606309E+02  0.44502368627E+02  0.47000000000E+01 0.  1.
         -5    1    3    3    0  502  0.30403851314E+02  0.87215090041E+02 -0.16867278977E+03  0.19236285014E+03  0.47000000000E+01 0.  1.
        -11    1    1    2    0    0  0.33648214007E+02 -0.90588573925E+02 -0.90001550556E+02  0.13205593941E+03  0.00000000000E+00 0.  1.
         11    1    1    2    0    0 -0.21173249896E+02 -0.10042938975E+01  0.67660484800E+01  0.22250719751E+02  0.00000000000E+00 0. -1.
<mgrwt>
<rscale>  0 0.14864816E+03</rscale>
<asrwt>0</asrwt>
<pdfrwt beam="2">  1        2 0.50239291E-01 0.15546777E+03</pdfrwt>
<pdfrwt beam="1">  1       -2 0.99409983E-02 0.15546777E+03</pdfrwt>
<totfact> 0.64310859E+03</totfact>
</mgrwt>
</event>
<event>
 7    1  0.5206756E-006  0.2442396E+03  0.7546771E-02  0.1119369E+00
         -1   -1    0    0    0  501 -0.00000000000E+00  0.00000000000E+00  0.18864836341E+03  0.18864836341E+03  0.00000000000E+00 0.  1.
          1   -1    0    0  501    0  0.00000000000E+00 -0.00000000000E+00 -0.40213477516E+03  0.40213477516E+03  0.00000000000E+00 0. -1.
         23    2    1    2    0    0 -0.10174940211E+03 -0.18351269397E+03 -0.25919510817E+03  0.35613914180E+03  0.12499253796E+03 0.  0.
          5    1    3    3  502    0 -0.10652870691E+03 -0.19167143811E+03 -0.20266959196E+03  0.29863583022E+03  0.47000000000E+01 0. -1.
         -5    1    3    3    0  502  0.47793048024E+01  0.81587441419E+01 -0.56525516203E+02  0.57503311578E+02  0.47000000000E+01 0. -1.
        -11    1    1    2    0    0  0.11992862335E+03  0.15276517252E+03  0.34922626894E+02  0.19733135205E+03  0.00000000000E+00 0.  1.
         11    1    1    2    0    0 -0.18179221239E+02  0.30747521447E+02  0.10786069523E+02  0.37312644717E+02  0.00000000000E+00 0. -1.
<mgrwt>
<rscale>  0 0.24063805E+03</rscale>
<asrwt>0</asrwt>
<pdfrwt beam="2">  1        1 0.61866888E-01 0.24423960E+03</pdfrwt>
<pdfrwt beam="1">  1       -1 0.29022825E-01 0.24423960E+03</pdfrwt>
<totfact> 0.65354014E+02</totfact>
</mgrwt>
</event>
<event>
 7    1  0.5206756E-006  0.1406274E+03  0.7546771E-02  0.1223766E+00
          2   -1    0    0  501    0  0.00000000000E+00  0.00000000000E+00  0.21982164942E+03  0.21982164942E+03  0.00000000000E+00 0. -1.
         -2   -1    0    0    0  501 -0.00000000000E+00 -0.00000000000E+00 -0.10742670987E+03  0.10742670987E+03  0.00000000000E+00 0.  1.
         23    2    1    2    0    0 -0.43212784241E+01  0.64279226496E+02  0.15423963893E+03  0.20872452106E+03  0.12500226825E+03 0.  0.
          5    1    3    3  502    0  0.40866411026E+02  0.53703999627E+02  0.26359041604E+02  0.72602150108E+02  0.47000000000E+01 0. -1.
         -5    1    3    3    0  502 -0.45187689450E+02  0.10575226869E+02  0.12788059732E+03  0.13612237095E+03  0.47000000000E+01 0. -1.
        -11    1    1    2    0    0 -0.27675959123E+02 -0.37936620395E+02  0.13979986560E+02  0.48995774354E+02  0.00000000000E+00 0. -1.
         11    1    1    2    0    0  0.31997237547E+02 -0.26342606102E+02 -0.55824685934E+02  0.69528063877E+02  0.00000000000E+00 0.  1.
<mgrwt>
<rscale>  0 0.13251864E+03</rscale>
<asrwt>0</asrwt>
<pdfrwt beam="1">  1        2 0.33818715E-01 0.14062738E+03</pdfrwt>
<pdfrwt beam="2">  1       -2 0.16527186E-01 0.14062738E+03</pdfrwt>
<totfact> 0.42977458E+03</totfact>
</mgrwt>
</event>
<event>
 7    1  0.5206756E-006  0.2498702E+03  0.7546771E-02  0.1115946E+00
          2   -1    0    0  501    0  0.00000000000E+00  0.00000000000E+00  0.21418039255E+04  0.21418039255E+04  0.00000000000E+00 0.  1.
         -2   -1    0    0    0  501 -0.00000000000E+00 -0.00000000000E+00 -0.28737911761E+02  0.28737911761E+02  0.00000000000E+00 0. -1.
         23    2    1    2    0    0 -0.22908658732E+02 -0.21514056830E+03  0.85107082273E+03  0.88699303892E+03  0.12499934005E+03 0.  0.
          5    1    3    3  502    0  0.37000515976E+02 -0.24992809900E+02  0.24131760000E+03  0.24545865803E+03  0.47000000000E+01 0.  1.
         -5    1    3    3    0  502 -0.59909174707E+02 -0.19014775840E+03  0.60975322273E+03  0.64153438089E+03  0.47000000000E+01 0.  1.
        -11    1    1    2    0    0 -0.31211201714E+02  0.43797920714E+02  0.24918548507E+03  0.25492313144E+03  0.00000000000E+00 0.  1.
         11    1    1    2    0    0  0.54119860446E+02  0.17134264759E+03  0.10128097059E+04  0.10286256669E+04  0.00000000000E+00 0. -1.
<mgrwt>
<rscale>  0 0.24586595E+03</rscale>
<asrwt>0</asrwt>
<pdfrwt beam="1">  1        2 0.32950817E+00 0.24987018E+03</pdfrwt>
<pdfrwt beam="2">  1       -2 0.44212189E-02 0.24987018E+03</pdfrwt>
<totfact> 0.14792794E+03</totfact>
</mgrwt>
</event>
<event>
 7    1  0.5206756E-006  0.1557961E+03  0.7546771E-02  0.1201278E+00
         -2   -1    0    0    0  501 -0.00000000000E+00  0.00000000000E+00  0.28153389941E+02  0.28153389941E+02  0.00000000000E+00 0.  1.
          2   -1    0    0  501    0  0.00000000000E+00 -0.00000000000E+00 -0.83593009194E+03  0.83593009194E+03  0.00000000000E+00 0. -1.
         23    2    1    2    0    0 -0.39422323605E+02  0.84252463654E+02 -0.58473759252E+03  0.60513673940E+03  0.12497929444E+03 0.  0.
          5    1    3    3  502    0 -0.36002446406E+02  0.68192637259E+02 -0.58285636166E+03  0.58795411407E+03  0.47000000000E+01 0.  1.
         -5    1    3    3    0  502 -0.34198771991E+01  0.16059826395E+02 -0.18812308638E+01  0.17182625337E+02  0.47000000000E+01 0.  1.
        -11    1    1    2    0    0  0.71911333710E+01 -0.92261721268E+02 -0.12565229490E+03  0.15605267323E+03  0.00000000000E+00 0. -1.
         11    1    1    2    0    0  0.32231190234E+02  0.80092576138E+01 -0.97386814580E+02  0.10289406924E+03  0.00000000000E+00 0.  1.
<mgrwt>
<rscale>  0 0.14934650E+03</rscale>
<asrwt>0</asrwt>
<pdfrwt beam="2">  1        2 0.12860463E+00 0.15579609E+03</pdfrwt>
<pdfrwt beam="1">  1       -2 0.43312906E-02 0.15579609E+03</pdfrwt>
<totfact> 0.79344323E+03</totfact>
</mgrwt>
</event>
<event>
 7    1  0.5206756E-006  0.1468543E+03  0.7546771E-02  0.1215141E+00
          2   -1    0    0  501    0  0.00000000000E+00  0.00000000000E+00  0.79382906035E+03  0.79382906035E+03  0.00000000000E+00 0.  1.
         -2   -1    0    0    0  501 -0.00000000000E+00 -0.00000000000E+00 -0.28786204569E+02  0.28786204569E+02  0.00000000000E+00 0. -1.
         23    2    1    2    0    0 -0.61244768766E+02  0.46929764286E+02  0.61622215186E+03  0.63347921205E+03  0.12495137923E+03 0.  0.
          5    1    3    3  502    0 -0.46551640843E+02  0.86117071089E+02  0.33232651414E+03  0.34647684945E+03  0.47000000000E+01 0.  1.
         -5    1    3    3    0  502 -0.14693127923E+02 -0.39187306803E+02  0.28389563772E+03  0.28700236260E+03  0.47000000000E+01 0.  1.
        -11    1    1    2    0    0  0.55237114988E+02 -0.67680121701E+02  0.14156009242E+03  0.16634601742E+03  0.00000000000E+00 0. -1.
         11    1    1    2    0    0  0.60076537785E+01  0.20750357415E+02  0.72606115017E+01  0.22790035457E+02  0.00000000000E+00 0.  1.
<mgrwt>
<rscale>  0 0.13866164E+03</rscale>
<asrwt>0</asrwt>
<pdfrwt beam="1">  1        2 0.12212753E+00 0.14685425E+03</pdfrwt>
<pdfrwt beam="2">  1       -2 0.44286475E-02 0.14685425E+03</pdfrwt>
<totfact> 0.81651899E+03</totfact>
</mgrwt>
</event>
<event>
 7    1  0.5206756E-006  0.1365460E+03  0.7546771E-02  0.1233304E+00
          3   -1    0    0  501    0  0.00000000000E+00  0.00000000000E+00  0.23693321756E+03  0.23693321756E+03  0.00000000000E+00 0. -1.
         -3   -1    0    0    0  501 -0.00000000000E+00 -0.00000000000E+00 -0.60230371239E+02  0.60230371239E+02  0.00000000000E+00 0.  1.
         23    2    1    2    0    0  0.51204999830E+01  0.54709538549E+02  0.12486632163E+03  0.18503080487E+03  0.12500178937E+03 0.  0.
          5    1    3    3  502    0 -0.45817308571E+02  0.68253068005E+02  0.63371505698E+02  0.10390257355E+03  0.47000000000E+01 0. -1.
         -5    1    3    3    0  502  0.50937808554E+02 -0.13543529455E+02  0.61494815928E+02  0.81128231315E+02  0.47000000000E+01 0. -1.
        -11    1    1    2    0    0  0.31007924413E+02 -0.26896136727E+01  0.34506309558E+02  0.46469460912E+02  0.00000000000E+00 0. -1.
         11    1    1    2    0    0 -0.36128424396E+02 -0.52019924877E+02  0.17330215142E+02  0.65663323023E+02  0.00000000000E+00 0.  1.
<mgrwt>
<rscale>  0 0.12613650E+03</rscale>
<asrwt>0</asrwt>
<pdfrwt beam="1">  1        3 0.36451264E-01 0.13654596E+03</pdfrwt>
<pdfrwt beam="2">  1       -3 0.92662111E-02 0.13654596E+03</pdfrwt>
<totfact> 0.14321624E+03</totfact>
</mgrwt>
</event>
<event>
 7    1  0.5206756E-006  0.1827581E+03  0.7546771E-02  0.1170619E+00
          1   -1    0    0  501    0  0.00000000000E+00  0.00000000000E+00  0.56984052240E+03  0.56984052240E+03  0.00000000000E+00 0. -1.
         -1   -1    0    0    0  501 -0.00000000000E+00 -0.00000000000E+00 -0.54605833793E+02  0.54605833793E+02  0.00000000000E+00 0.  1.
         23    2    1    2    0    0 -0.14221510265E+02  0.13258012181E+03  0.34215147803E+03  0.38790225310E+03  0.12498313483E+03 0.  0.
          5    1    3    3  502    0  0.33913903372E+02  0.86984951090E+02  0.28600309762E+03  0.30089266592E+03  0.47000000000E+01 0.  1.
         -5    1    3    3    0  502 -0.48135413636E+02  0.45595170723E+02  0.56148380411E+02  0.87009587184E+02  0.47000000000E+01 0.  1.
        -11    1    1    2    0    0  0.79534266718E+01 -0.11664172074E+03  0.79440963884E+02  0.14134855768E+03  0.00000000000E+00 0.  1.
         11    1    1    2    0    0  0.62680835930E+01 -0.15938401069E+02  0.93642246696E+02  0.95195545415E+02  0.00000000000E+00 0. -1.
<mgrwt>
<rscale>  0 0.17712072E+03</rscale>
<asrwt>0</asrwt>
<pdfrwt beam="1">  1        1 0.87667769E-01 0.18275810E+03</pdfrwt>
<pdfrwt beam="2">  1       -1 0.84008979E-02 0.18275810E+03</pdfrwt>
<totfact> 0.29751261E+03</totfact>
</mgrwt>
</event>
<event>
 7    1  0.5206756E-006  0.1290967E+03  0.7546771E-02  0.1243542E+00
          3   -1    0    0  501    0  0.00000000000E+00  0.00000000000E+00  0.12316390724E+03  0.12316390724E+03  0.00000000000E+00 0. -1.
         -3   -1    0    0    0  501 -0.00000000000E+00 -0.00000000000E+00 -0.12364266953E+03  0.12364266953E+03  0.00000000000E+00 0.  1.
         23    2    1    2    0    0  0.16911581720E+02 -0.27484527909E+02  0.50397417966E+02  0.13858524375E+03  0.12499827670E+03 0.  0.
          5    1    3    3  502    0  0.17389847363E+01  0.38132878656E+02  0.59101481811E+02  0.70513939436E+02  0.47000000000E+01 0.  1.
         -5    1    3    3    0  502  0.15172596984E+02 -0.65617406565E+02 -0.87040638446E+01  0.68071304314E+02  0.47000000000E+01 0.  1.
        -11    1    1    2    0    0  0.14573388368E+01  0.54012938708E+02 -0.80946270756E+01  0.54635559591E+02  0.00000000000E+00 0. -1.
         11    1    1    2    0    0 -0.18368920557E+02 -0.26528410798E+02 -0.42781553184E+02  0.53585773436E+02  0.00000000000E+00 0.  1.
<mgrwt>
<rscale>  0 0.11973097E+03</rscale>
<asrwt>0</asrwt>
<pdfrwt beam="1">  1        3 0.18948293E-01 0.12909675E+03</pdfrwt>
<pdfrwt beam="2">  1       -3 0.19021949E-01 0.12909675E+03</pdfrwt>
<totfact> 0.13810199E+03</totfact>
</mgrwt>
</event>
<event>
 7    1  0.5206756E-006  0.1299581E+03  0.7546771E-02  0.1239681E+00
         -2   -1    0    0    0  501 -0.00000000000E+00  0.00000000000E+00  0.18673035542E+02  0.18673035542E+02  0.00000000000E+00 0.  1.
          2   -1    0    0  501    0  0.00000000000E+00 -0.00000000000E+00 -0.86970013174E+03  0.86970013174E+03  0.00000000000E+00 0. -1.
         23    2    1    2    0    0 -0.33490470920E+02  0.12215266312E+02 -0.65474157588E+03  0.66751452834E+03  0.12497315709E+03 0.  0.
          5    1    3    3  502    0 -0.11837968536E+02  0.67446938554E+02 -0.29469074551E+03  0.30257883684E+03  0.47000000000E+01 0.  1.
         -5    1    3    3    0  502 -0.21652502383E+02 -0.55231672242E+02 -0.36005083037E+03  0.36493569150E+03  0.47000000000E+01 0.  1.
        -11    1    1    2    0    0 -0.18663354561E+02 -0.16753556768E+02 -0.94071729702E+01  0.26786141401E+02  0.00000000000E+00 0.  1.
         11    1    1    2    0    0  0.52153825481E+02  0.45382904564E+01 -0.18687834735E+03  0.19407249754E+03  0.00000000000E+00 0. -1.
<mgrwt>
<rscale>  0 0.12209444E+03</rscale>
<asrwt>0</asrwt>
<pdfrwt beam="2">  1        2 0.13380003E+00 0.12995813E+03</pdfrwt>
<pdfrwt beam="1">  1       -2 0.28727746E-02 0.12995813E+03</pdfrwt>
<totfact> 0.13704899E+04</totfact>
</mgrwt>
</event>
<event>
 7    1  0.5206756E-006  0.1461951E+03  0.7546771E-02  0.1209598E+00
         -1   -1    0    0    0  501 -0.00000000000E+00  0.00000000000E+00  0.52816087868E+02  0.52816087868E+02  0.00000000000E+00 0.  1.
          1   -1    0    0  501    0  0.00000000000E+00 -0.00000000000E+00 -0.36942421223E+03  0.36942421223E+03  0.00000000000E+00 0. -1.
         23    2    1    2    0    0  0.88951317403E+02  0.36403640180E+02 -0.16145965983E+03  0.21781240133E+03  0.11016105725E+03 0.  0.
          5    1    3    3  502    0  0.80222169580E+02  0.51530835502E+02 -0.17211804400E+03  0.19681904016E+03  0.47000000000E+01 0. -1.
         -5    1    3    3    0  502  0.87291478225E+01 -0.15127195322E+02  0.10658384170E+02  0.20993361168E+02  0.47000000000E+01 0.  1.
        -11    1    1    2    0    0 -0.81892757462E+02 -0.62503917353E+02 -0.13872062489E+03  0.17279055292E+03  0.00000000000E+00 0.  1.
         11    1    1    2    0    0 -0.70585599408E+01  0.26100277173E+02 -0.16427839645E+02  0.31637345849E+02  0.00000000000E+00 0. -1.
<mgrwt>
<rscale>  0 0.14280941E+03</rscale>
<asrwt>0</asrwt>
<pdfrwt beam="2">  1        1 0.56834496E-01 0.14619514E+03</pdfrwt>
<pdfrwt beam="1">  1       -1 0.81255518E-02 0.14619514E+03</pdfrwt>
<totfact> 0.54368439E+03</totfact>
</mgrwt>
</event>
<event>
 7    1  0.5206756E-006  0.1353668E+03  0.7546771E-02  0.1232606E+00
          1   -1    0    0  501    0  0.00000000000E+00  0.00000000000E+00  0.12306862852E+02  0.12306862852E+02  0.00000000000E+00 0. -1.
         -1   -1    0    0    0  501 -0.00000000000E+00 -0.00000000000E+00 -0.11752956376E+04  0.11752956376E+04  0.00000000000E+00 0.  1.
         23    2    1    2    0    0 -0.51509604053E+02 -0.67041124595E+01 -0.58930493873E+03  0.60465235338E+03  0.12500389275E+03 0.  0.
          5    1    3    3  502    0 -0.22887353494E+02 -0.65299049584E+02 -0.33243262818E+03  0.33958995731E+03  0.47000000000E+01 0. -1.
         -5    1    3    3    0  502 -0.28622250559E+02  0.58594937124E+02 -0.25687231055E+03  0.26506239607E+03  0.47000000000E+01 0. -1.
        -11    1    1    2    0    0  0.11464286391E+02  0.46007803909E+02 -0.26412316922E+03  0.26834529324E+03  0.00000000000E+00 0. -1.
         11    1    1    2    0    0  0.40045317662E+02 -0.39303691450E+02 -0.30956066680E+03  0.31460485384E+03  0.00000000000E+00 0.  1.
<mgrwt>
<rscale>  0 0.12658926E+03</rscale>
<asrwt>0</asrwt>
<pdfrwt beam="1">  1        1 0.18933639E-02 0.13536675E+03</pdfrwt>
<pdfrwt beam="2">  1       -1 0.18081468E+00 0.13536675E+03</pdfrwt>
<totfact> 0.14386501E+03</totfact>
</mgrwt>
</event>
<event>
 7    1  0.5206756E-006  0.1458462E+03  0.7546771E-02  0.1215717E+00
          2   -1    0    0  501    0  0.00000000000E+00  0.00000000000E+00  0.43715409690E+03  0.43715409690E+03  0.00000000000E+00 0. -1.
         -2   -1    0    0    0  501 -0.00000000000E+00 -0.00000000000E+00 -0.48051915335E+02  0.48051915335E+02  0.00000000000E+00 0.  1.
         23    2    1    2    0    0 -0.50370474059E+02 -0.55643624701E+02  0.31222022914E+03  0.34460495274E+03  0.12505080706E+03 0.  0.
          5    1    3    3  502    0  0.82129296958E+00 -0.10374907241E+02 -0.10003349763E+02  0.15181245960E+02  0.47000000000E+01 0.  1.
         -5    1    3    3    0  502 -0.51191767028E+02 -0.45268717459E+02  0.32222357890E+03  0.32942370678E+03  0.47000000000E+01 0.  1.
        -11    1    1    2    0    0  0.32662545047E+02 -0.94812558872E+01 -0.51240303515E+01  0.34394647101E+02  0.00000000000E+00 0.  1.
         11    1    1    2    0    0  0.17707929012E+02  0.65124880588E+02  0.82005982780E+02  0.10620641239E+03  0.00000000000E+00 0. -1.
<mgrwt>
<rscale>  0 0.13823981E+03</rscale>
<asrwt>0</asrwt>
<pdfrwt beam="1">  1        2 0.67254474E-01 0.14584616E+03</pdfrwt>
<pdfrwt beam="2">  1       -2 0.73926026E-02 0.14584616E+03</pdfrwt>
<totfact> 0.74334876E+03</totfact>
</mgrwt>
</event>
<event>
 6    1  0.5206756E-006  0.2026916E+03  0.7546771E-02  0.1169560E+00
         -2   -1    0    0    0  501 -0.00000000000E+00  0.00000000000E+00  0.75628356827E+02  0.75628356827E+02  0.00000000000E+00 0.  1.
          2   -1    0    0  501    0  0.00000000000E+00 -0.00000000000E+00 -0.88072844975E+03  0.88072844975E+03  0.00000000000E+00 0. -1.
          5    1    1    2  502    0 -0.58051782213E+02 -0.36135562205E+02 -0.45650730678E+03  0.46162408886E+03  0.47000000000E+01 0. -1.
         -5    1    1    2    0  502  0.11875810626E+03 -0.17660864011E+02 -0.35368768538E+03  0.37354044320E+03  0.47000000000E+01 0.  1.
        -11    1    1    2    0    0 -0.41486208772E+02 -0.11604024093E+02 -0.21346604359E+02  0.48077400211E+02  0.00000000000E+00 0. -1.
         11    1    1    2    0    0 -0.19220115280E+02  0.65400450309E+02  0.26441503592E+02  0.73114874302E+02  0.00000000000E+00 0.  1.
<mgrwt>
<rscale>  0 0.17819662E+03</rscale>
<asrwt>0</asrwt>
<pdfrwt beam="2">  1        2 0.13549669E+00 0.20269156E+03</pdfrwt>
<pdfrwt beam="1">  1       -2 0.11635132E-01 0.20269156E+03</pdfrwt>
<totfact> 0.16229380E+03</totfact>
</mgrwt>
</event>
<event>
 6    1  0.5206756E-006  0.1900044E+03  0.7546771E-02  0.1176985E+00
          2   -1    0    0  501    0  0.00000000000E+00  0.00000000000E+00  0.79421773289E+03  0.79421773289E+03  0.00000000000E+00 0. -1.
         -2   -1    0    0    0  501 -0.00000000000E+00 -0.00000000000E+00 -0.34422333448E+03  0.34422333448E+03  0.00000000000E+00 0.  1.
          5    1    1    2  502    0  0.44108292171E+02 -0.12912822022E+03  0.59355490169E+03  0.60905594982E+03  0.47000000000E+01 0. -1.
         -5    1    1    2    0  502 -0.51057373552E+02  0.10672178825E+02  0.17754740661E+03  0.18511056801E+03  0.47000000000E+01 0.  1.
        -11    1    1    2    0    0  0.20038556426E+02  0.48176898506E+02 -0.15077467422E+03  0.15954798551E+03  0.00000000000E+00 0.  1.
         11    1    1    2    0    0 -0.13089475044E+02  0.70279142888E+02 -0.17033323567E+03  0.18472656402E+03  0.00000000000E+00 0. -1.
<mgrwt>
<rscale>  0 0.17083019E+03</rscale>
<asrwt>0</asrwt>
<pdfrwt beam="1">  1        2 0.12218734E+00 0.19000444E+03</pdfrwt>
<pdfrwt beam="2">  1       -2 0.52957436E-01 0.19000444E+03</pdfrwt>
<totfact> 0.12580810E+02</totfact>
</mgrwt>
</event>
<event>
 7    1  0.5206756E-006  0.1638563E+03  0.7546771E-02  0.1191577E+00
         -1   -1    0    0    0  501 -0.00000000000E+00  0.00000000000E+00  0.16196836833E+03  0.16196836833E+03  0.00000000000E+00 0.  1.
          1   -1    0    0  501    0  0.00000000000E+00 -0.00000000000E+00 -0.14272513663E+03  0.14272513663E+03  0.00000000000E+00 0. -1.
         23    2    1    2    0    0  0.93415144843E+02  0.49960533492E+02  0.18588465997E+02  0.16490731088E+03  0.12500578355E+03 0.  0.
          5    1    3    3  502    0  0.79845893217E+02  0.67651724896E+02  0.57733584233E+02  0.11961345783E+03  0.47000000000E+01 0. -1.
         -5    1    3    3    0  502  0.13569251626E+02 -0.17691191404E+02 -0.39145118236E+02  0.45293853056E+02  0.47000000000E+01 0. -1.
        -11    1    1    2    0    0 -0.85955075395E+02 -0.16135410309E+02  0.31944773018E+02  0.93107974821E+02  0.00000000000E+00 0.  1.
         11    1    1    2    0    0 -0.74600694473E+01 -0.33825123183E+02 -0.31290007319E+02  0.46678219252E+02  0.00000000000E+00 0. -1.
<mgrwt>
<rscale>  0 0.15747523E+03</rscale>
<asrwt>0</asrwt>
<pdfrwt beam="2">  1        1 0.21957713E-01 0.16385631E+03</pdfrwt>
<pdfrwt beam="1">  1       -1 0.24918211E-01 0.16385631E+03</pdfrwt>
<totfact> 0.30857479E+03</totfact>
</mgrwt>
</event>
<event>
 7    1  0.5206756E-006  0.1374812E+03  0.7546771E-02  0.1228314E+00
          2   -1    0    0  501    0  0.00000000000E+00  0.00000000000E+00  0.91926093945E+02  0.91926093945E+02  0.00000000000E+00 0. -1.
         -2   -1    0    0    0  501 -0.00000000000E+00 -0.00000000000E+00 -0.20848453544E+03  0.20848453544E+03  0.00000000000E+00 0.  1.
         23    2    1    2    0    0 -0.38071178331E+02 -0.42732643491E+02  0.53193839218E+01  0.13758406887E+03  0.12500234686E+03 0.  0.
          5    1    3    3  502    0  0.37849824103E+02 -0.17424789412E+02  0.32374571204E+02  0.52975799487E+02  0.47000000000E+01 0. -1.
         -5    1    3    3    0  502 -0.75921002434E+02 -0.25307854080E+02 -0.27055187282E+02  0.84608269381E+02  0.47000000000E+01 0. -1.
        -11    1    1    2    0    0 -0.44473919789E+01  0.23787311832E+02 -0.11284400559E+03  0.11540964040E+03  0.00000000000E+00 0.  1.
         11    1    1    2    0    0  0.42518570310E+02  0.18945331659E+02 -0.90338198280E+01  0.47416920119E+02  0.00000000000E+00 0. -1.
<mgrwt>
<rscale>  0 0.12942311E+03</rscale>
<asrwt>0</asrwt>
<pdfrwt beam="1">  1        2 0.14142476E-01 0.13748120E+03</pdfrwt>
<pdfrwt beam="2">  1       -2 0.32074544E-01 0.13748120E+03</pdfrwt>
<totfact> 0.36269350E+03</totfact>
</mgrwt>
</event>
<event>
 7    1  0.5206756E-006  0.1291348E+03  0.7546771E-02  0.1242695E+00
          1   -1    0    0  501    0  0.00000000000E+00  0.00000000000E+00  0.25892043532E+03  0.25892043532E+03  0.00000000000E+00 0. -1.
         -1   -1    0    0    0  501 -0.00000000000E+00 -0.00000000000E+00 -0.60972581384E+02  0.60972581384E+02  0.00000000000E+00 0.  1.
         23    2    1    2    0    0 -0.25759453382E+02 -0.19682856252E+02  0.17942353594E+03  0.22106244766E+03  0.12499934498E+03 0.  0.
          5    1    3    3  502    0  0.84741444202E+01  0.22645997271E+02  0.16177705250E+03  0.16364155045E+03  0.47000000000E+01 0.  1.
         -5    1    3    3    0  502 -0.34233597802E+02 -0.42328853524E+02  0.17646483443E+02  0.57420897216E+02  0.47000000000E+01 0.  1.
        -11    1    1    2    0    0  0.53069232521E+02  0.13739015852E+02  0.36262952672E+02  0.65727511237E+02  0.00000000000E+00 0. -1.
         11    1    1    2    0    0 -0.27309779138E+02  0.59438404004E+01 -0.17738634685E+02  0.33103057801E+02  0.00000000000E+00 0.  1.
<mgrwt>
<rscale>  0 0.12024411E+03</rscale>
<asrwt>0</asrwt>
<pdfrwt beam="1">  1        1 0.39833912E-01 0.12913482E+03</pdfrwt>
<pdfrwt beam="2">  1       -1 0.93803973E-02 0.12913482E+03</pdfrwt>
<totfact> 0.67468769E+03</totfact>
</mgrwt>
</event>
<event>
 7    1  0.5206756E-006  0.1353895E+03  0.7546771E-02  0.1232563E+00
          2   -1    0    0  501    0  0.00000000000E+00  0.00000000000E+00  0.23930903544E+03  0.23930903544E+03  0.00000000000E+00 0.  1.
         -2   -1    0    0    0  501 -0.00000000000E+00 -0.00000000000E+00 -0.64469946332E+02  0.64469946332E+02  0.00000000000E+00 0. -1.
         23    2    1    2    0    0 -0.47236565433E+02  0.21755560879E+02  0.13937801935E+03  0.19431046484E+03  0.12500290767E+03 0.  0.
          5    1    3    3  502    0 -0.74997302733E+02 -0.16850074933E+02  0.46764891706E+02  0.90097533478E+02  0.47000000000E+01 0. -1.
         -5    1    3    3    0  502  0.27760737300E+02  0.38605635812E+02  0.92613127642E+02  0.10421293136E+03  0.47000000000E+01 0. -1.
        -11    1    1    2    0    0  0.68769771409E+02  0.26429133995E+01  0.34328286473E+02  0.76907071867E+02  0.00000000000E+00 0.  1.
         11    1    1    2    0    0 -0.21533205977E+02 -0.24398474278E+02  0.11327832878E+01  0.32561445065E+02  0.00000000000E+00 0. -1.
<mgrwt>
<rscale>  0 0.12661725E+03</rscale>
<asrwt>0</asrwt>
<pdfrwt beam="1">  1        2 0.36816774E-01 0.13538953E+03</pdfrwt>
<pdfrwt beam="2">  1       -2 0.99184534E-02 0.13538953E+03</pdfrwt>
<totfact> 0.89014758E+03</totfact>
</mgrwt>
</event>
<event>
 7    1  0.5206756E-006  0.2120649E+03  0.7546771E-02  0.1143624E+00
         -1   -1    0    0    0  501 -0.00000000000E+00  0.00000000000E+00  0.17562051987E+04  0.17562051987E+04  0.00000000000E+00 0.  1.
          1   -1    0    0  501    0  0.00000000000E+00 -0.00000000000E+00 -0.23683892376E+02  0.23683892376E+02  0.00000000000E+00 0. -1.
         23    2    1    2    0    0  0.56310260378E+02 -0.16180135124E+03  0.98612655890E+03  0.10086709540E+04  0.12498392134E+03 0.  0.
          5    1    3    3  502    0  0.62610396343E+02 -0.12741504289E+03  0.46163014943E+03  0.48298979259E+03  0.47000000000E+01 0.  1.
         -5    1    3    3    0  502 -0.63001359650E+01 -0.34386308349E+02  0.52449640947E+03  0.52568116141E+03  0.47000000000E+01 0.  1.
        -11    1    1    2    0    0 -0.14409223505E-01  0.12757885881E+03  0.46193791718E+03  0.47923168171E+03  0.00000000000E+00 0.  1.
         11    1    1    2    0    0 -0.56295851155E+02  0.34222492424E+02  0.28445683022E+03  0.29198645534E+03  0.00000000000E+00 0. -1.
<mgrwt>
<rscale>  0 0.20742175E+03</rscale>
<asrwt>0</asrwt>
<pdfrwt beam="2">  1        1 0.36436771E-02 0.21206486E+03</pdfrwt>
<pdfrwt beam="1">  1       -1 0.27018531E+00 0.21206486E+03</pdfrwt>
<totfact> 0.15448125E+02</totfact>
</mgrwt>
</event>
<event>
 6    1  0.5206756E-006  0.2603501E+03  0.7546771E-02  0.1116259E+00
          2   -1    0    0  501    0  0.00000000000E+00  0.00000000000E+00  0.74519168174E+03  0.74519168174E+03  0.00000000000E+00 0. -1.
         -2   -1    0    0    0  501 -0.00000000000E+00 -0.00000000000E+00 -0.11017772147E+03  0.11017772147E+03  0.00000000000E+00 0.  1.
          5    1    1    2  502    0  0.47789839814E+02 -0.22829403928E+02  0.26091793553E+02  0.59227714492E+02  0.47000000000E+01 0. -1.
         -5    1    1    2    0  502 -0.14493202704E+02 -0.15735851989E+03  0.56414234639E+03  0.58587578350E+03  0.47000000000E+01 0.  1.
        -11    1    1    2    0    0  0.71066642496E+01 -0.77555608652E+01 -0.50599518716E+01  0.11672896557E+02  0.00000000000E+00 0.  1.
         11    1    1    2    0    0 -0.40403301360E+02  0.18794348468E+03  0.49839772203E+02  0.19859300866E+03  0.00000000000E+00 0. -1.
<mgrwt>
<rscale>  0 0.24538091E+03</rscale>
<asrwt>0</asrwt>
<pdfrwt beam="1">  1        2 0.11464487E+00 0.26035012E+03</pdfrwt>
<pdfrwt beam="2">  1       -2 0.16950419E-01 0.26035012E+03</pdfrwt>
<totfact> 0.10839801E+03</totfact>
</mgrwt>
</event>
<event>
 7    1  0.5206756E-006  0.1488088E+03  0.7546771E-02  0.1211192E+00
          2   -1    0    0  501    0  0.00000000000E+00  0.00000000000E+00  0.10758948344E+04  0.10758948344E+04  0.00000000000E+00 0. -1.
         -2   -1    0    0    0  501 -0.00000000000E+00 -0.00000000000E+00 -0.17442486001E+02  0.17442486001E+02  0.00000000000E+00 0.  1.
         23    2    1    2    0    0  0.66887649299E+02  0.45213350461E+02  0.66290786995E+03  0.67940480687E+03  0.12500337143E+03 0.  0.
          5    1    3    3  502    0  0.37421207693E+02 -0.33486288792E+02  0.12241452129E+03  0.13239744463E+03  0.47000000000E+01 0. -1.
         -5    1    3    3    0  502  0.29466441606E+02  0.78699639253E+02  0.54049334865E+03  0.54700736224E+03  0.47000000000E+01 0. -1.
        -11    1    1    2    0    0 -0.69598684212E+02 -0.64856883872E+02  0.36731274210E+03  0.37943252725E+03  0.00000000000E+00 0. -1.
         11    1    1    2    0    0  0.27110349131E+01  0.19643533411E+02  0.28231736310E+02  0.34499986235E+02  0.00000000000E+00 0.  1.
<mgrwt>
<rscale>  0 0.14160020E+03</rscale>
<asrwt>0</asrwt>
<pdfrwt beam="1">  1        2 0.16552223E+00 0.14880876E+03</pdfrwt>
<pdfrwt beam="2">  1       -2 0.26834602E-02 0.14880876E+03</pdfrwt>
<totfact> 0.11444170E+04</totfact>
</mgrwt>
</event>
<event>
 7    1  0.5206756E-006  0.2709855E+03  0.7546771E-02  0.1102062E+00
          2   -1    0    0  501    0  0.00000000000E+00  0.00000000000E+00  0.76699296004E+03  0.76699296004E+03  0.00000000000E+00 0. -1.
         -2   -1    0    0    0  501 -0.00000000000E+00 -0.00000000000E+00 -0.94983849499E+02  0.94983849499E+02  0.00000000000E+00 0.  1.
         23    2    1    2    0    0 -0.14745452418E+03 -0.18990956873E+03  0.41146833540E+03  0.49268584461E+03  0.12499867779E+03 0.  0.
          5    1    3    3  502    0 -0.56039428434E+01  0.17561569622E+02  0.21359039757E+02  0.28602648170E+02  0.47000000000E+01 0.  1.
         -5    1    3    3    0  502 -0.14185058134E+03 -0.20747113836E+03  0.39010929564E+03  0.46408319644E+03  0.47000000000E+01 0.  1.
        -11    1    1    2    0    0  0.90822794929E+02  0.37959223846E+02  0.11521792902E+03  0.15154159139E+03  0.00000000000E+00 0.  1.
         11    1    1    2    0    0  0.56631729255E+02  0.15195034489E+03  0.14532284613E+03  0.21774937354E+03  0.00000000000E+00 0. -1.
<mgrwt>
<rscale>  0 0.26863734E+03</rscale>
<asrwt>0</asrwt>
<pdfrwt beam="1">  1        2 0.11799891E+00 0.27098552E+03</pdfrwt>
<pdfrwt beam="2">  1       -2 0.14612900E-01 0.27098552E+03</pdfrwt>
<totfact> 0.13391484E+03</totfact>
</mgrwt>
</event>
<event>
 7    1  0.5206756E-006  0.2031229E+03  0.7546771E-02  0.1151564E+00
         -3   -1    0    0    0  501 -0.00000000000E+00  0.00000000000E+00  0.18145573387E+03  0.18145573387E+03  0.00000000000E+00 0.  1.
          3   -1    0    0  501    0  0.00000000000E+00 -0.00000000000E+00 -0.20821652425E+03  0.20821652425E+03  0.00000000000E+00 0. -1.
         23    2    1    2    0    0 -0.14332820122E+03  0.71338327013E+02 -0.37319458588E+02  0.20652277222E+03  0.12500713297E+03 0.  0.
          5    1    3    3  502    0 -0.54470025962E+02  0.67272420726E+02  0.33286675215E+02  0.92858252544E+02  0.47000000000E+01 0. -1.
         -5    1    3    3    0  502 -0.88858175253E+02  0.40659062862E+01 -0.70606133804E+02  0.11366451968E+03  0.47000000000E+01 0. -1.
        -11    1    1    2    0    0  0.99128193494E+01 -0.11461432419E+02 -0.28068821050E+02  0.31898074168E+02  0.00000000000E+00 0. -1.
         11    1    1    2    0    0  0.13341538187E+03 -0.59876894594E+02  0.38627489258E+02  0.15125141173E+03  0.00000000000E+00 0.  1.
<mgrwt>
<rscale>  0 0.19785174E+03</rscale>
<asrwt>0</asrwt>
<pdfrwt beam="2">  1        3 0.32033311E-01 0.20312290E+03</pdfrwt>
<pdfrwt beam="1">  1       -3 0.27916267E-01 0.20312290E+03</pdfrwt>
<totfact> 0.28500406E+02</totfact>
</mgrwt>
</event>
<event>
 6    1  0.5206756E-006  0.2484680E+03  0.7546771E-02  0.1143045E+00
          1   -1    0    0  501    0  0.00000000000E+00  0.00000000000E+00  0.10432431912E+04  0.10432431912E+04  0.00000000000E+00 0. -1.
         -1   -1    0    0    0  501 -0.00000000000E+00 -0.00000000000E+00 -0.34696479112E+02  0.34696479112E+02  0.00000000000E+00 0.  1.
          5    1    1    2  502    0  0.18537797997E+02  0.15939105616E+03  0.45623376847E+03  0.48365328514E+03  0.47000000000E+01 0. -1.
         -5    1    1    2    0  502 -0.33895024309E+02 -0.78712707371E+02  0.32489973411E+03  0.33604536926E+03  0.47000000000E+01 0.  1.
        -11    1    1    2    0    0 -0.26905942370E+02 -0.74096170947E+02  0.16070233642E+03  0.17899556758E+03  0.00000000000E+00 0.  1.
         11    1    1    2    0    0  0.42263168682E+02 -0.65821778384E+01  0.66710873074E+02  0.79245448314E+02  0.00000000000E+00 0. -1.
<mgrwt>
<rscale>  0 0.20814287E+03</rscale>
<asrwt>0</asrwt>
<pdfrwt beam="1">  1        1 0.16049893E+00 0.24846798E+03</pdfrwt>
<pdfrwt beam="2">  1       -1 0.53379207E-02 0.24846798E+03</pdfrwt>
<totfact> 0.23640775E+03</totfact>
</mgrwt>
</event>
<event>
 7    1  0.5206756E-006  0.2542684E+03  0.7546771E-02  0.1112892E+00
          1   -1    0    0  501    0  0.00000000000E+00  0.00000000000E+00  0.40372914839E+03  0.40372914839E+03  0.00000000000E+00 0. -1.
         -1   -1    0    0    0  501 -0.00000000000E+00 -0.00000000000E+00 -0.18499459239E+03  0.18499459239E+03  0.00000000000E+00 0.  1.
         23    2    1    2    0    0 -0.17200815992E+03  0.13942889437E+03  0.23741977152E+03  0.34788013340E+03  0.12500086256E+03 0.  0.
          5    1    3    3  502    0 -0.90170600282E+02  0.14624181595E+03  0.15507001819E+03  0.23148694657E+03  0.47000000000E+01 0. -1.
         -5    1    3    3    0  502 -0.81837559637E+02 -0.68129215824E+01  0.82349753331E+02  0.11639318683E+03  0.47000000000E+01 0. -1.
        -11    1    1    2    0    0  0.14398641358E+03 -0.65792266281E+02 -0.30373397290E+02  0.16119321593E+03  0.00000000000E+00 0.  1.
         11    1    1    2    0    0  0.28021746340E+02 -0.73636628091E+02  0.11688181768E+02  0.79650391446E+02  0.00000000000E+00 0. -1.
<mgrwt>
<rscale>  0 0.25065443E+03</rscale>
<asrwt>0</asrwt>
<pdfrwt beam="1">  1        1 0.62112176E-01 0.25426844E+03</pdfrwt>
<pdfrwt beam="2">  1       -1 0.28460707E-01 0.25426844E+03</pdfrwt>
<totfact> 0.67203107E+02</totfact>
</mgrwt>
</event>
<event>
 7    1  0.5206756E-006  0.1676833E+03  0.7546771E-02  0.1187601E+00
         -2   -1    0    0    0  501 -0.00000000000E+00  0.00000000000E+00  0.32074276993E+02  0.32074276993E+02  0.00000000000E+00 0.  1.
          2   -1    0    0  501    0  0.00000000000E+00 -0.00000000000E+00 -0.75109380426E+03  0.75109380426E+03  0.00000000000E+00 0. -1.
         23    2    1    2    0    0  0.10956568824E+03 -0.20182955733E+02 -0.37088486508E+03  0.40702982629E+03  0.12532240264E+03 0.  0.
          5    1    3    3  502    0  0.11754955634E+03  0.60738634828E+00 -0.18157015312E+03  0.21635174512E+03  0.47000000000E+01 0. -1.
         -5    1    3    3    0  502 -0.79838680994E+01 -0.20790342082E+02 -0.18931471196E+03  0.19067808117E+03  0.47000000000E+01 0. -1.
        -11    1    1    2    0    0 -0.54316459244E+02  0.82917411749E+01 -0.28962813454E+03  0.29479397388E+03  0.00000000000E+00 0. -1.
         11    1    1    2    0    0 -0.55249228994E+02  0.11891214558E+02 -0.58506527647E+02  0.81344281086E+02  0.00000000000E+00 0.  1.
<mgrwt>
<rscale>  0 0.16097443E+03</rscale>
<asrwt>0</asrwt>
<pdfrwt beam="2">  1        2 0.11555290E+00 0.16768332E+03</pdfrwt>
<pdfrwt beam="1">  1       -2 0.49345040E-02 0.16768332E+03</pdfrwt>
<totfact> 0.74829476E+03</totfact>
</mgrwt>
</event>
<event>
 7    1  0.5206756E-006  0.1972957E+03  0.7546771E-02  0.1154441E+00
          1   -1    0    0  501    0  0.00000000000E+00  0.00000000000E+00  0.30769453054E+02  0.30769453054E+02  0.00000000000E+00 0. -1.
         -1   -1    0    0    0  501 -0.00000000000E+00 -0.00000000000E+00 -0.13368273619E+04  0.13368273619E+04  0.00000000000E+00 0.  1.
         23    2    1    2    0    0  0.77904671514E+02  0.14144975467E+03 -0.44807021936E+03  0.48958400814E+03  0.11335082092E+03 0.  0.
          5    1    3    3  502    0  0.28687852200E+02 -0.78466250236E+01 -0.28310554635E+02  0.41329649065E+02  0.47000000000E+01 0. -1.
         -5    1    3    3    0  502  0.49216819314E+02  0.14929637970E+03 -0.41975966473E+03  0.44825435907E+03  0.47000000000E+01 0.  1.
        -11    1    1    2    0    0 -0.31412967118E+02  0.52758148254E+01 -0.12081683470E+03  0.12494525310E+03  0.00000000000E+00 0.  1.
         11    1    1    2    0    0 -0.46491704396E+02 -0.14672556950E+03 -0.73717085479E+03  0.75306755373E+03  0.00000000000E+00 0. -1.
<mgrwt>
<rscale>  0 0.19452650E+03</rscale>
<asrwt>0</asrwt>
<pdfrwt beam="1">  1        1 0.47337624E-02 0.19729567E+03</pdfrwt>
<pdfrwt beam="2">  1       -1 0.20566573E+00 0.19729567E+03</pdfrwt>
<totfact> 0.27581196E+02</totfact>
</mgrwt>
</event>
<event>
 7    1  0.5206756E-006  0.1300347E+03  0.7546771E-02  0.1241247E+00
          2   -1    0    0  501    0  0.00000000000E+00  0.00000000000E+00  0.57878299385E+03  0.57878299385E+03  0.00000000000E+00 0. -1.
         -2   -1    0    0    0  501 -0.00000000000E+00 -0.00000000000E+00 -0.26212342799E+02  0.26212342799E+02  0.00000000000E+00 0.  1.
         23    2    1    2    0    0  0.26081767131E+02  0.24584360959E+02  0.42337048417E+03  0.44289004247E+03  0.12499749386E+03 0.  0.
          5    1    3    3  502    0  0.16891846919E+02  0.40761126862E+02  0.42125377097E+03  0.42358426967E+03  0.47000000000E+01 0. -1.
         -5    1    3    3    0  502  0.91899202119E+01 -0.16176765903E+02  0.21167131992E+01  0.19305772799E+02  0.47000000000E+01 0. -1.
        -11    1    1    2    0    0 -0.24941950163E+02  0.27620548414E+02  0.88150674377E+02  0.95684570155E+02  0.00000000000E+00 0. -1.
         11    1    1    2    0    0 -0.11398169678E+01 -0.52204909373E+02  0.41049492511E+02  0.66420724030E+02  0.00000000000E+00 0.  1.
<mgrwt>
<rscale>  0 0.12112840E+03</rscale>
<asrwt>0</asrwt>
<pdfrwt beam="1">  1        2 0.89043528E-01 0.13003470E+03</pdfrwt>
<pdfrwt beam="2">  1       -2 0.40326686E-02 0.13003470E+03</pdfrwt>
<totfact> 0.13521220E+04</totfact>
</mgrwt>
</event>
<event>
 7    1  0.5206756E-006  0.1264131E+03  0.7546771E-02  0.1249717E+00
          2   -1    0    0  501    0  0.00000000000E+00  0.00000000000E+00  0.36429515560E+03  0.36429515560E+03  0.00000000000E+00 0.  1.
         -2   -1    0    0    0  501 -0.00000000000E+00 -0.00000000000E+00 -0.34727188402E+02  0.34727188402E+02  0.00000000000E+00 0. -1.
         23    2    1    2    0    0  0.18024078578E+02  0.58477085392E+01  0.24467869905E+03  0.27540502307E+03  0.12498479050E+03 0.  0.
          5    1    3    3  502    0  0.27055566536E+01  0.48939236213E+02  0.21526996294E+03  0.22082938170E+03  0.47000000000E+01 0.  1.
         -5    1    3    3    0  502  0.15318521924E+02 -0.43091527674E+02  0.29408736119E+02  0.54575641373E+02  0.47000000000E+01 0.  1.
        -11    1    1    2    0    0  0.82416300730E+01 -0.40116941353E+02  0.63172015421E+02  0.75286100856E+02  0.00000000000E+00 0.  1.
         11    1    1    2    0    0 -0.26265708651E+02  0.34269232813E+02  0.21717252727E+02  0.48331220082E+02  0.00000000000E+00 0. -1.
<mgrwt>
<rscale>  0 0.11607458E+03</rscale>
<asrwt>0</asrwt>
<pdfrwt beam="1">  1        2 0.56045406E-01 0.12641306E+03</pdfrwt>
<pdfrwt beam="2">  1       -2 0.53426446E-02 0.12641306E+03</pdfrwt>
<totfact> 0.14649640E+04</totfact>
</mgrwt>
</event>
<event>
 7    1  0.5206756E-006  0.1566761E+03  0.7546771E-02  0.1200504E+00
         -2   -1    0    0    0  501 -0.00000000000E+00  0.00000000000E+00  0.45894874449E+02  0.45894874449E+02  0.00000000000E+00 0.  1.
          2   -1    0    0  501    0  0.00000000000E+00 -0.00000000000E+00 -0.45293067685E+03  0.45293067685E+03  0.00000000000E+00 0. -1.
         23    2    1    2    0    0 -0.58433301475E+02 -0.74217318273E+02 -0.21358059964E+03  0.26488499388E+03  0.12499890554E+03 0.  0.
          5    1    3    3  502    0 -0.10321265549E+02  0.32554285659E+02 -0.80380116696E+02  0.87460637988E+02  0.47000000000E+01 0.  1.
         -5    1    3    3    0  502 -0.48112035926E+02 -0.10677160393E+03 -0.13320048295E+03  0.17742435589E+03  0.47000000000E+01 0.  1.
        -11    1    1    2    0    0  0.43332119692E+02  0.34078374789E+02 -0.25760697199E+02  0.60849172101E+02  0.00000000000E+00 0.  1.
         11    1    1    2    0    0  0.15101181783E+02  0.40138943484E+02 -0.16769450556E+03  0.17309138532E+03  0.00000000000E+00 0. -1.
<mgrwt>
<rscale>  0 0.14997470E+03</rscale>
<asrwt>0</asrwt>
<pdfrwt beam="2">  1        2 0.69681644E-01 0.15667606E+03</pdfrwt>
<pdfrwt beam="1">  1       -2 0.70607497E-02 0.15667606E+03</pdfrwt>
<totfact> 0.77104288E+03</totfact>
</mgrwt>
</event>
<event>
 7    1  0.5206756E-006  0.2476323E+03  0.7546771E-02  0.1117282E+00
         -2   -1    0    0    0  501 -0.00000000000E+00  0.00000000000E+00  0.51061936930E+02  0.51061936930E+02  0.00000000000E+00 0.  1.
          2   -1    0    0  501    0  0.00000000000E+00 -0.00000000000E+00 -0.11447679198E+04  0.11447679198E+04  0.00000000000E+00 0. -1.
         23    2    1    2    0    0 -0.14022668378E+03 -0.16134967551E+03 -0.63261461382E+03  0.67935484165E+03  0.12499804247E+03 0.  0.
          5    1    3    3  502    0 -0.13157701581E+03 -0.58897041256E+02 -0.38967920946E+03  0.41551576245E+03  0.47000000000E+01 0. -1.
         -5    1    3    3    0  502 -0.86496679708E+01 -0.10245263425E+03 -0.24293540436E+03  0.26383907920E+03  0.47000000000E+01 0. -1.
        -11    1    1    2    0    0  0.42672962318E+02  0.11067137058E+03 -0.28744194701E+03  0.31095338377E+03  0.00000000000E+00 0. -1.
         11    1    1    2    0    0  0.97553721459E+02  0.50678304929E+02 -0.17364942201E+03  0.20552163128E+03  0.00000000000E+00 0.  1.
<mgrwt>
<rscale>  0 0.24380715E+03</rscale>
<asrwt>0</asrwt>
<pdfrwt beam="2">  1        2 0.17611815E+00 0.24763229E+03</pdfrwt>
<pdfrwt beam="1">  1       -2 0.78556822E-02 0.24763229E+03</pdfrwt>
<totfact> 0.20906813E+03</totfact>
</mgrwt>
</event>
<event>
 7    1  0.5206756E-006  0.1348396E+03  0.7546771E-02  0.1232407E+00
         -2   -1    0    0    0  501 -0.00000000000E+00  0.00000000000E+00  0.26769635209E+03  0.26769635209E+03  0.00000000000E+00 0.  1.
          2   -1    0    0  501    0  0.00000000000E+00 -0.00000000000E+00 -0.84753222343E+02  0.84753222343E+02  0.00000000000E+00 0. -1.
         23    2    1    2    0    0 -0.10750652203E+02 -0.49412786565E+02 -0.73344757688E+01  0.13503888807E+03  0.12499802701E+03 0.  0.
          5    1    3    3  502    0 -0.65660887873E+02 -0.10391055146E+02  0.30711945052E+01  0.66714679487E+02  0.47000000000E+01 0. -1.
         -5    1    3    3    0  502  0.54910235671E+02 -0.39021731419E+02 -0.10405670274E+02  0.68324208581E+02  0.47000000000E+01 0. -1.
        -11    1    1    2    0    0 -0.36375314445E+02  0.24164004844E+01  0.47446545336E+02  0.59834581611E+02  0.00000000000E+00 0. -1.
         11    1    1    2    0    0  0.47125966648E+02  0.46996386080E+02  0.14283106018E+03  0.15757610475E+03  0.00000000000E+00 0.  1.
<mgrwt>
<rscale>  0 0.12671891E+03</rscale>
<asrwt>0</asrwt>
<pdfrwt beam="2">  1        2 0.13038957E-01 0.13483956E+03</pdfrwt>
<pdfrwt beam="1">  1       -2 0.41184054E-01 0.13483956E+03</pdfrwt>
<totfact> 0.25059480E+03</totfact>
</mgrwt>
</event>
<event>
 7    1  0.5206756E-006  0.1279174E+03  0.7546771E-02  0.1245842E+00
         -1   -1    0    0    0  501 -0.00000000000E+00  0.00000000000E+00  0.13076043369E+03  0.13076043369E+03  0.00000000000E+00 0.  1.
          1   -1    0    0  501    0  0.00000000000E+00 -0.00000000000E+00 -0.96364233139E+02  0.96364233139E+02  0.00000000000E+00 0. -1.
         23    2    1    2    0    0  0.18971008929E+02 -0.19438974842E+02  0.19485858897E+01  0.12793227827E+03  0.12500039166E+03 0.  0.
          5    1    3    3  502    0 -0.20094705882E+02  0.33715995368E+02 -0.34457380595E+02  0.52440124195E+02  0.47000000000E+01 0.  1.
         -5    1    3    3    0  502  0.39065714811E+02 -0.53154970210E+02  0.36405966484E+02  0.75492154078E+02  0.47000000000E+01 0.  1.
        -11    1    1    2    0    0  0.86095024964E+01  0.71561862264E+01 -0.28804431135E+02  0.30903556228E+02  0.00000000000E+00 0. -1.
         11    1    1    2    0    0 -0.27580511425E+02  0.12282788616E+02  0.61252045800E+02  0.68288832333E+02  0.00000000000E+00 0.  1.
<mgrwt>
<rscale>  0 0.11835128E+03</rscale>
<asrwt>0</asrwt>
<pdfrwt beam="2">  1        1 0.14825267E-01 0.12791744E+03</pdfrwt>
<pdfrwt beam="1">  1       -1 0.20116990E-01 0.12791744E+03</pdfrwt>
<totfact> 0.71243884E+03</totfact>
</mgrwt>
</event>
<event>
 7    1  0.7497747E-006  0.2417527E+03  0.7546771E-02  0.1121189E+00
          2   -1    0    0  501    0  0.00000000000E+00  0.00000000000E+00  0.42362049332E+02  0.42362049332E+02  0.00000000000E+00 0. -1.
         -2   -1    0    0    0  501 -0.00000000000E+00 -0.00000000000E+00 -0.12957055477E+04  0.12957055477E+04  0.00000000000E+00 0.  1.
         23    2    1    2    0    0 -0.11949623181E+03 -0.16893947207E+03 -0.63696138354E+03  0.68129594665E+03  0.12499787260E+03 0.  0.
          5    1    3    3  502    0 -0.39282611711E+01 -0.11166268330E+03 -0.26732347698E+03  0.28977218193E+03  0.47000000000E+01 0. -1.
         -5    1    3    3    0  502 -0.11556797064E+03 -0.57276788773E+02 -0.36963790656E+03  0.39152376472E+03  0.47000000000E+01 0. -1.
        -11    1    1    2    0    0  0.89964231213E+02  0.49669320064E+02 -0.31357960048E+03  0.32998904541E+03  0.00000000000E+00 0.  1.
         11    1    1    2    0    0  0.29532000599E+02  0.11927015201E+03 -0.30280251435E+03  0.32678260498E+03  0.00000000000E+00 0. -1.
<mgrwt>
<rscale>  0 0.23791521E+03</rscale>
<asrwt>0</asrwt>
<pdfrwt beam="1">  1        2 0.65172390E-02 0.24175269E+03</pdfrwt>
<pdfrwt beam="2">  1       -2 0.19933930E+00 0.24175269E+03</pdfrwt>
<totfact> 0.16131576E+02</totfact>
</mgrwt>
</event>
<event>
 7    1  0.5206756E-006  0.1187797E+03  0.7546771E-02  0.1259910E+00
         -2   -1    0    0    0  501 -0.00000000000E+00  0.00000000000E+00  0.23450233377E+02  0.23450233377E+02  0.00000000000E+00 0.  1.
          2   -1    0    0  501    0  0.00000000000E+00 -0.00000000000E+00 -0.10353146856E+04  0.10353146856E+04  0.00000000000E+00 0. -1.
         23    2    1    2    0    0 -0.51038851555E+01 -0.17951329437E+02 -0.93204393148E+03  0.93958209560E+03  0.11730440865E+03 0.  0.
          5    1    3    3  502    0  0.22418544942E+02 -0.36366218709E+02 -0.13161473191E+03  0.13845439926E+03  0.47000000000E+01 0. -1.
         -5    1    3    3    0  502 -0.27522430097E+02  0.18414889272E+02 -0.80042919957E+03  0.80112769633E+03  0.47000000000E+01 0.  1.
        -11    1    1    2    0    0 -0.38292496633E+02  0.10156644010E+01 -0.53114747892E+02  0.65486817881E+02  0.00000000000E+00 0. -1.
         11    1    1    2    0    0  0.43396381789E+02  0.16935665036E+02 -0.26705772845E+02  0.53696005492E+02  0.00000000000E+00 0.  1.
<mgrwt>
<rscale>  0 0.11035687E+03</rscale>
<asrwt>0</asrwt>
<pdfrwt beam="2">  1        2 0.15927917E+00 0.11877973E+03</pdfrwt>
<pdfrwt beam="1">  1       -2 0.36077286E-02 0.11877973E+03</pdfrwt>
<totfact> 0.77265623E+03</totfact>
</mgrwt>
</event>
<event>
 7    1  0.5206756E-006  0.2062520E+03  0.7546771E-02  0.1148496E+00
         -1   -1    0    0    0  501 -0.00000000000E+00  0.00000000000E+00  0.40095698657E+02  0.40095698657E+02  0.00000000000E+00 0.  1.
          1   -1    0    0  501    0  0.00000000000E+00 -0.00000000000E+00 -0.13713957250E+04  0.13713957250E+04  0.00000000000E+00 0. -1.
         23    2    1    2    0    0  0.89312889353E+02 -0.13761747436E+03 -0.10699828959E+04  0.10896803530E+04  0.12499805124E+03 0.  0.
          5    1    3    3  502    0 -0.11997980465E+02 -0.86133999577E+02 -0.59074036264E+03  0.59712585229E+03  0.47000000000E+01 0. -1.
         -5    1    3    3    0  502  0.10131086982E+03 -0.51483474782E+02 -0.47924253322E+03  0.49255450071E+03  0.47000000000E+01 0. -1.
        -11    1    1    2    0    0 -0.70407974213E+02  0.33142679414E+02 -0.14328809446E+03  0.16305581267E+03  0.00000000000E+00 0.  1.
         11    1    1    2    0    0 -0.18904915140E+02  0.10447479495E+03 -0.11802903602E+03  0.15875525799E+03  0.00000000000E+00 0. -1.
<mgrwt>
<rscale>  0 0.20148052E+03</rscale>
<asrwt>0</asrwt>
<pdfrwt beam="2">  1        1 0.21098395E+00 0.20625197E+03</pdfrwt>
<pdfrwt beam="1">  1       -1 0.61685694E-02 0.20625197E+03</pdfrwt>
<totfact> 0.11222894E+03</totfact>
</mgrwt>
</event>
<event>
 7    1  0.5206756E-006  0.1293106E+03  0.7546771E-02  0.1244665E+00
         -2   -1    0    0    0  501 -0.00000000000E+00  0.00000000000E+00  0.37692212993E+02  0.37692212993E+02  0.00000000000E+00 0. -1.
          2   -1    0    0  501    0  0.00000000000E+00 -0.00000000000E+00 -0.43040288162E+03  0.43040288162E+03  0.00000000000E+00 0.  1.
         23    2    1    2    0    0 -0.78611830784E+01  0.32141773307E+02 -0.33407030773E+03  0.35822368515E+03  0.12500538513E+03 0.  0.
          5    1    3    3  502    0  0.54503871600E+02  0.65192111131E+01 -0.95371177319E+02  0.11014047211E+03  0.47000000000E+01 0. -1.
         -5    1    3    3    0  502 -0.62365054678E+02  0.25622562194E+02 -0.23869913041E+03  0.24808321305E+03  0.47000000000E+01 0. -1.
        -11    1    1    2    0    0 -0.19889262498E+02 -0.19479736613E+02 -0.71530341568E+02  0.76756971449E+02  0.00000000000E+00 0.  1.
         11    1    1    2    0    0  0.27750445576E+02 -0.12662036695E+02  0.12889980669E+02  0.33114438008E+02  0.00000000000E+00 0. -1.
<mgrwt>
<rscale>  0 0.11905458E+03</rscale>
<asrwt>0</asrwt>
<pdfrwt beam="2">  1        2 0.66215826E-01 0.12931063E+03</pdfrwt>
<pdfrwt beam="1">  1       -2 0.57988022E-02 0.12931063E+03</pdfrwt>
<totfact> 0.10858067E+04</totfact>
</mgrwt>
</event>
<event>
 7    1  0.5206756E-006  0.2070044E+03  0.7546771E-02  0.1147921E+00
         -1   -1    0    0    0  501 -0.00000000000E+00  0.00000000000E+00  0.67618326943E+02  0.67618326943E+02  0.00000000000E+00 0.  1.
          1   -1    0    0  501    0  0.00000000000E+00 -0.00000000000E+00 -0.74369770071E+03  0.74369770071E+03  0.00000000000E+00 0. -1.
         23    2    1    2    0    0  0.16115710409E+03  0.35412067252E+02 -0.54184855571E+03  0.58004368984E+03  0.12500079237E+03 0.  0.
          5    1    3    3  502    0  0.62742069229E+01  0.37134038509E+02 -0.21495486803E+03  0.21827960916E+03  0.47000000000E+01 0. -1.
         -5    1    3    3    0  502  0.15488289717E+03 -0.17219712570E+01 -0.32689368768E+03  0.36176408068E+03  0.47000000000E+01 0. -1.
        -11    1    1    2    0    0 -0.13266484866E+03 -0.28160073773E+02 -0.54266986850E+02  0.14607483591E+03  0.00000000000E+00 0.  1.
         11    1    1    2    0    0 -0.28492255437E+02 -0.72519934790E+01 -0.79963831208E+02  0.85197501905E+02  0.00000000000E+00 0. -1.
<mgrwt>
<rscale>  0 0.20216957E+03</rscale>
<asrwt>0</asrwt>
<pdfrwt beam="2">  1        1 0.11441504E+00 0.20700441E+03</pdfrwt>
<pdfrwt beam="1">  1       -1 0.10402819E-01 0.20700441E+03</pdfrwt>
<totfact> 0.14737666E+03</totfact>
</mgrwt>
</event>
<event>
 7    1  0.5206756E-006  0.1315232E+03  0.7546771E-02  0.1237772E+00
          1   -1    0    0  501    0  0.00000000000E+00  0.00000000000E+00  0.54661213056E+03  0.54661213056E+03  0.00000000000E+00 0. -1.
         -1   -1    0    0    0  501 -0.00000000000E+00 -0.00000000000E+00 -0.25794902517E+02  0.25794902517E+02  0.00000000000E+00 0.  1.
         23    2    1    2    0    0 -0.40430551113E+02 -0.62405766937E+01  0.34718680642E+03  0.37126410488E+03  0.12499913104E+03 0.  0.
          5    1    3    3  502    0  0.56244056792E+01  0.19941656830E+01 -0.91194341963E+01  0.11868644239E+02  0.47000000000E+01 0. -1.
         -5    1    3    3    0  502 -0.46054956792E+02 -0.82347423767E+01  0.35630624062E+03  0.35939546064E+03  0.47000000000E+01 0. -1.
        -11    1    1    2    0    0 -0.13995983941E+02  0.24426660078E+02  0.13858920079E+02  0.31378638511E+02  0.00000000000E+00 0.  1.
         11    1    1    2    0    0  0.54426535054E+02 -0.18186083384E+02  0.15977150154E+03  0.16976428968E+03  0.00000000000E+00 0. -1.
<mgrwt>
<rscale>  0 0.12328612E+03</rscale>
<asrwt>0</asrwt>
<pdfrwt beam="1">  1        1 0.84094166E-01 0.13152322E+03</pdfrwt>
<pdfrwt beam="2">  1       -1 0.39684469E-02 0.13152322E+03</pdfrwt>
<totfact> 0.94858733E+03</totfact>
</mgrwt>
</event>
<event>
 7    1  0.5206756E-006  0.1663704E+03  0.7546771E-02  0.1187970E+00
         -2   -1    0    0    0  501 -0.00000000000E+00  0.00000000000E+00  0.41534684289E+02  0.41534684289E+02  0.00000000000E+00 0.  1.
          2   -1    0    0  501    0  0.00000000000E+00 -0.00000000000E+00 -0.60650167200E+03  0.60650167200E+03  0.00000000000E+00 0. -1.
         23    2    1    2    0    0  0.32071700246E+02  0.10500315930E+03 -0.36620248221E+03  0.40222302548E+03  0.12499938731E+03 0.  0.
          5    1    3    3  502    0 -0.34205861540E+02  0.68999516946E+02 -0.26445619622E+03  0.27548165823E+03  0.47000000000E+01 0. -1.
         -5    1    3    3    0  502  0.66277561786E+02  0.36003642351E+02 -0.10174628599E+03  0.12674136725E+03  0.47000000000E+01 0. -1.
        -11    1    1    2    0    0 -0.49136789928E+02 -0.80082022211E+02 -0.80411815122E+02  0.12366735389E+03  0.00000000000E+00 0.  1.
         11    1    1    2    0    0  0.17065089682E+02 -0.24921137085E+02 -0.11835269038E+03  0.12214597693E+03  0.00000000000E+00 0. -1.
<mgrwt>
<rscale>  0 0.16064569E+03</rscale>
<asrwt>0</asrwt>
<pdfrwt beam="2">  1        2 0.93307952E-01 0.16637038E+03</pdfrwt>
<pdfrwt beam="1">  1       -2 0.63899513E-02 0.16637038E+03</pdfrwt>
<totfact> 0.65090594E+03</totfact>
</mgrwt>
</event>
<event>
 7    1  0.5206756E-006  0.1289048E+03  0.7546771E-02  0.1244012E+00
          3   -1    0    0  501    0  0.00000000000E+00  0.00000000000E+00  0.23804890258E+02  0.23804890258E+02  0.00000000000E+00 0. -1.
         -3   -1    0    0    0  501 -0.00000000000E+00 -0.00000000000E+00 -0.52780641681E+03  0.52780641681E+03  0.00000000000E+00 0.  1.
         23    2    1    2    0    0 -0.29381934398E+02 -0.11384616579E+02 -0.27742928876E+03  0.30591414032E+03  0.12499417355E+03 0.  0.
          5    1    3    3  502    0 -0.24853498706E+02  0.50919748667E+02 -0.75648036767E+02  0.94632091116E+02  0.47000000000E+01 0. -1.
         -5    1    3    3    0  502 -0.45284356916E+01 -0.62304365247E+02 -0.20178125199E+03  0.21128204920E+03  0.47000000000E+01 0. -1.
        -11    1    1    2    0    0  0.34180199044E+02  0.46776350668E+02 -0.11904254934E+03  0.13239124420E+03  0.00000000000E+00 0. -1.
         11    1    1    2    0    0 -0.47982646461E+01 -0.35391734089E+02 -0.10752968845E+03  0.11330592254E+03  0.00000000000E+00 0.  1.
<mgrwt>
<rscale>  0 0.11944709E+03</rscale>
<asrwt>0</asrwt>
<pdfrwt beam="1">  1        3 0.36622908E-02 0.12890481E+03</pdfrwt>
<pdfrwt beam="2">  1       -3 0.81200987E-01 0.12890481E+03</pdfrwt>
<totfact> 0.12295527E+03</totfact>
</mgrwt>
</event>
<event>
 7    1  0.5206756E-006  0.1255747E+03  0.7546771E-02  0.1248230E+00
         -2   -1    0    0    0  501 -0.00000000000E+00  0.00000000000E+00  0.35954815707E+02  0.35954815707E+02  0.00000000000E+00 0.  1.
          2   -1    0    0  501    0  0.00000000000E+00 -0.00000000000E+00 -0.35087639736E+03  0.35087639736E+03  0.00000000000E+00 0. -1.
         23    2    1    2    0    0  0.52367136362E+01  0.10810915428E+02 -0.21749493606E+03  0.25114350408E+03  0.12499885345E+03 0.  0.
          5    1    3    3  502    0  0.22148516206E+02 -0.36556504187E+02 -0.18755760870E+03  0.19242370267E+03  0.47000000000E+01 0.  1.
         -5    1    3    3    0  502 -0.16911802570E+02  0.47367419615E+02 -0.29937327363E+02  0.58719801403E+02  0.47000000000E+01 0.  1.
        -11    1    1    2    0    0  0.58665184699E+01 -0.51070837603E+02 -0.64659613709E+02  0.82604552765E+02  0.00000000000E+00 0. -1.
         11    1    1    2    0    0 -0.11103232106E+02  0.40259922175E+02 -0.32767031878E+02  0.53083156225E+02  0.00000000000E+00 0.  1.
<mgrwt>
<rscale>  0 0.11694117E+03</rscale>
<asrwt>0</asrwt>
<pdfrwt beam="2">  1        2 0.53980986E-01 0.12557473E+03</pdfrwt>
<pdfrwt beam="1">  1       -2 0.55315100E-02 0.12557473E+03</pdfrwt>
<totfact> 0.14459770E+04</totfact>
</mgrwt>
</event>
<event>
 7    1  0.5206756E-006  0.1806095E+03  0.7546771E-02  0.1172613E+00
          1   -1    0    0  501    0  0.00000000000E+00  0.00000000000E+00  0.30345080432E+03  0.30345080432E+03  0.00000000000E+00 0. -1.
         -1   -1    0    0    0  501 -0.00000000000E+00 -0.00000000000E+00 -0.11442359560E+03  0.11442359560E+03  0.00000000000E+00 0.  1.
         23    2    1    2    0    0 -0.24611656401E+02  0.12801444951E+03  0.18449855766E+03  0.25818504111E+03  0.12500545892E+03 0.  0.
          5    1    3    3  502    0  0.15966147246E+02  0.33206801235E+02 -0.95790005199E+01  0.38359571910E+02  0.47000000000E+01 0.  1.
         -5    1    3    3    0  502 -0.40577803647E+02  0.94807648272E+02  0.19407755818E+03  0.21982546920E+03  0.47000000000E+01 0.  1.
        -11    1    1    2    0    0 -0.29683084554E+02 -0.82988484264E+02  0.11168418669E+02  0.88842037374E+02  0.00000000000E+00 0.  1.
         11    1    1    2    0    0  0.54294740955E+02 -0.45025965243E+02 -0.66397676105E+01  0.70847321441E+02  0.00000000000E+00 0. -1.
<mgrwt>
<rscale>  0 0.17511800E+03</rscale>
<asrwt>0</asrwt>
<pdfrwt beam="1">  1        1 0.46684739E-01 0.18060952E+03</pdfrwt>
<pdfrwt beam="2">  1       -1 0.17603630E-01 0.18060952E+03</pdfrwt>
<totfact> 0.21149734E+03</totfact>
</mgrwt>
</event>
<event>
 7    1  0.5206756E-006  0.1918188E+03  0.7546771E-02  0.1161640E+00
         -2   -1    0    0    0  501 -0.00000000000E+00  0.00000000000E+00  0.71173944197E+02  0.71173944197E+02  0.00000000000E+00 0.  1.
          2   -1    0    0  501    0  0.00000000000E+00 -0.00000000000E+00 -0.81822393404E+03  0.81822393404E+03  0.00000000000E+00 0. -1.
         23    2    1    2    0    0 -0.14363314436E+03 -0.23173878828E+02 -0.67787814976E+03  0.70449502424E+03  0.12500777749E+03 0.  0.
          5    1    3    3  502    0 -0.12936430941E+03  0.15288993066E+02 -0.61902939587E+03  0.63260442680E+03  0.47000000000E+01 0.  1.
         -5    1    3    3    0  502 -0.14268834944E+02 -0.38462871894E+02 -0.58848753893E+02  0.71890597437E+02  0.47000000000E+01 0.  1.
        -11    1    1    2    0    0  0.13120346451E+02  0.32682548300E+02  0.32030198141E+01  0.35363141692E+02  0.00000000000E+00 0.  1.
         11    1    1    2    0    0  0.13051279791E+03 -0.95086694721E+01 -0.72374859898E+02  0.14953971231E+03  0.00000000000E+00 0. -1.
<mgrwt>
<rscale>  0 0.18651758E+03</rscale>
<asrwt>0</asrwt>
<pdfrwt beam="2">  1        2 0.12588061E+00 0.19181880E+03</pdfrwt>
<pdfrwt beam="1">  1       -2 0.10949837E-01 0.19181880E+03</pdfrwt>
<totfact> 0.19663168E+03</totfact>
</mgrwt>
</event>
<event>
 7    1  0.5206756E-006  0.2105701E+03  0.7546771E-02  0.1144840E+00
         -3   -1    0    0    0  501 -0.00000000000E+00  0.00000000000E+00  0.10179240210E+04  0.10179240210E+04  0.00000000000E+00 0.  1.
          3   -1    0    0  501    0  0.00000000000E+00 -0.00000000000E+00 -0.40196669688E+02  0.40196669688E+02  0.00000000000E+00 0. -1.
         23    2    1    2    0    0  0.99780528213E+02 -0.13729745271E+03  0.46625070126E+03  0.51159503425E+03  0.12463153020E+03 0.  0.
          5    1    3    3  502    0  0.83653054092E+02 -0.67859199970E+02  0.13521929130E+03  0.17294233495E+03  0.47000000000E+01 0.  1.
         -5    1    3    3    0  502  0.16127474121E+02 -0.69438252738E+02  0.33103140996E+03  0.33865269930E+03  0.47000000000E+01 0.  1.
        -11    1    1    2    0    0 -0.11176176390E+03  0.13892876985E+03  0.49465248310E+03  0.52580697409E+03  0.00000000000E+00 0.  1.
         11    1    1    2    0    0  0.11981235689E+02 -0.16313171411E+01  0.16824166930E+02  0.20718682322E+02  0.00000000000E+00 0. -1.
<mgrwt>
<rscale>  0 0.20591728E+03</rscale>
<asrwt>0</asrwt>
<pdfrwt beam="2">  1        3 0.61841038E-02 0.21057009E+03</pdfrwt>
<pdfrwt beam="1">  1       -3 0.15660368E+00 0.21057009E+03</pdfrwt>
<totfact> 0.12220282E+02</totfact>
</mgrwt>
</event>
<event>
 7    1  0.5206756E-006  0.1309928E+03  0.7546771E-02  0.1237216E+00
          2   -1    0    0  501    0  0.00000000000E+00  0.00000000000E+00  0.91820335165E+03  0.91820335165E+03  0.00000000000E+00 0. -1.
         -2   -1    0    0    0  501 -0.00000000000E+00 -0.00000000000E+00 -0.19013074396E+02  0.19013074396E+02  0.00000000000E+00 0.  1.
         23    2    1    2    0    0  0.38721523124E+02  0.59194532930E+01  0.70387300284E+03  0.71595832162E+03  0.12499887157E+03 0.  0.
          5    1    3    3  502    0  0.52717071385E+01 -0.58140149684E+02  0.31144424285E+03  0.31690325701E+03  0.47000000000E+01 0. -1.
         -5    1    3    3    0  502  0.33449815986E+02  0.64059602977E+02  0.39242875999E+03  0.39905506461E+03  0.47000000000E+01 0. -1.
        -11    1    1    2    0    0  0.26562414151E+02  0.58656744183E+01  0.19866502601E+02  0.33684505451E+02  0.00000000000E+00 0.  1.
         11    1    1    2    0    0 -0.65283937276E+02 -0.11785127711E+02  0.17545077181E+03  0.18757359897E+03  0.00000000000E+00 0. -1.
<mgrwt>
<rscale>  0 0.12363609E+03</rscale>
<asrwt>0</asrwt>
<pdfrwt beam="1">  1        2 0.14126202E+00 0.13099280E+03</pdfrwt>
<pdfrwt beam="2">  1       -2 0.29250891E-02 0.13099280E+03</pdfrwt>
<totfact> 0.12444147E+04</totfact>
</mgrwt>
</event>
<event>
 7    1  0.5206756E-006  0.1337918E+03  0.7546771E-02  0.1234193E+00
         -4   -1    0    0    0  501 -0.00000000000E+00  0.00000000000E+00  0.32510028303E+03  0.32510028303E+03  0.00000000000E+00 0.  1.
          4   -1    0    0  501    0  0.00000000000E+00 -0.00000000000E+00 -0.48695593114E+02  0.48695593114E+02  0.00000000000E+00 0. -1.
         23    2    1    2    0    0 -0.33660646812E+02  0.33790144919E+02  0.92595836518E+02  0.16270907156E+03  0.12500175995E+03 0.  0.
          5    1    3    3  502    0 -0.55661565496E+02  0.44862403616E+02  0.52513325287E+01  0.71836701101E+02  0.47000000000E+01 0.  1.
         -5    1    3    3    0  502  0.22000918684E+02 -0.11072258697E+02  0.87344503989E+02  0.90872370459E+02  0.47000000000E+01 0.  1.
        -11    1    1    2    0    0  0.13132273383E+02 -0.34774240650E+01 -0.80335365722E+01  0.15782483715E+02  0.00000000000E+00 0. -1.
         11    1    1    2    0    0  0.20528373428E+02 -0.30312720854E+02  0.19184238997E+03  0.19530432087E+03  0.00000000000E+00 0.  1.
<mgrwt>
<rscale>  0 0.12556221E+03</rscale>
<asrwt>0</asrwt>
<pdfrwt beam="2">  1        4 0.74916299E-02 0.13379183E+03</pdfrwt>
<pdfrwt beam="1">  1       -4 0.50015427E-01 0.13379183E+03</pdfrwt>
<totfact> 0.78769657E+02</totfact>
</mgrwt>
</event>
<event>
 6    1  0.5206756E-006  0.1567242E+03  0.7546771E-02  0.1202622E+00
         -1   -1    0    0    0  501 -0.00000000000E+00  0.00000000000E+00  0.11642836344E+03  0.11642836344E+03  0.00000000000E+00 0.  1.
          1   -1    0    0  501    0  0.00000000000E+00 -0.00000000000E+00 -0.17109317898E+03  0.17109317898E+03  0.00000000000E+00 0. -1.
          5    1    1    2  502    0 -0.45409369904E+00  0.58479168148E+02 -0.77081277277E+02  0.96869152030E+02  0.47000000000E+01 0. -1.
         -5    1    1    2    0  502  0.29895856332E+02  0.24791371383E+02  0.48634053423E+02  0.62415827105E+02  0.47000000000E+01 0.  1.
        -11    1    1    2    0    0 -0.50716112096E+02 -0.81821111626E+02 -0.38443401344E+02  0.10365670958E+03  0.00000000000E+00 0.  1.
         11    1    1    2    0    0  0.21274349464E+02 -0.14494279051E+01  0.12225809661E+02  0.24579853706E+02  0.00000000000E+00 0. -1.
<mgrwt>
<rscale>  0 0.14826444E+03</rscale>
<asrwt>0</asrwt>
<pdfrwt beam="2">  1        1 0.26322027E-01 0.15672415E+03</pdfrwt>
<pdfrwt beam="1">  1       -1 0.17912056E-01 0.15672415E+03</pdfrwt>
<totfact> 0.41816949E+03</totfact>
</mgrwt>
</event>
<event>
 7    1  0.5206756E-006  0.1416648E+03  0.7546771E-02  0.1222966E+00
          1   -1    0    0  501    0  0.00000000000E+00  0.00000000000E+00  0.24006623347E+03  0.24006623347E+03  0.00000000000E+00 0. -1.
         -1   -1    0    0    0  501 -0.00000000000E+00 -0.00000000000E+00 -0.67906717512E+02  0.67906717512E+02  0.00000000000E+00 0.  1.
         23    2    1    2    0    0  0.46126321828E+01  0.66509938248E+02  0.12135100921E+03  0.18653412135E+03  0.12499625086E+03 0.  0.
          5    1    3    3  502    0 -0.48504855327E+02  0.18474325322E+02  0.98112545942E+02  0.11109537955E+03  0.47000000000E+01 0.  1.
         -5    1    3    3    0  502  0.53117487510E+02  0.48035612927E+02  0.23238463268E+02  0.75438741795E+02  0.47000000000E+01 0.  1.
        -11    1    1    2    0    0  0.99586572514E+00 -0.26174559904E+02 -0.24473789428E+02  0.35847813095E+02  0.00000000000E+00 0.  1.
         11    1    1    2    0    0 -0.56084979079E+01 -0.40335378344E+02  0.75282296179E+02  0.85591016543E+02  0.00000000000E+00 0. -1.
<mgrwt>
<rscale>  0 0.13307283E+03</rscale>
<asrwt>0</asrwt>
<pdfrwt beam="1">  1        1 0.36933266E-01 0.14166478E+03</pdfrwt>
<pdfrwt beam="2">  1       -1 0.10447187E-01 0.14166478E+03</pdfrwt>
<totfact> 0.63239555E+03</totfact>
</mgrwt>
</event>
<event>
 7    1  0.5206756E-006  0.2338608E+03  0.7546771E-02  0.1126909E+00
         -2   -1    0    0    0  501 -0.00000000000E+00  0.00000000000E+00  0.17412121675E+03  0.17412121675E+03  0.00000000000E+00 0.  1.
          2   -1    0    0  501    0  0.00000000000E+00 -0.00000000000E+00 -0.34499528089E+03  0.34499528089E+03  0.00000000000E+00 0. -1.
         23    2    1    2    0    0 -0.67566660476E+02 -0.18574373783E+03 -0.18946397931E+03  0.30097754118E+03  0.12499956436E+03 0.  0.
          5    1    3    3  502    0 -0.27997607302E+02 -0.14252608236E+03 -0.19356843328E+03  0.24205036362E+03  0.47000000000E+01 0. -1.
         -5    1    3    3    0  502 -0.39569053174E+02 -0.43217655472E+02  0.41044539623E+01  0.58927177566E+02  0.47000000000E+01 0. -1.
        -11    1    1    2    0    0  0.31720806317E+02  0.17037575937E+02  0.27696066881E+02  0.45426431380E+02  0.00000000000E+00 0.  1.
         11    1    1    2    0    0  0.35845854159E+02  0.16870616189E+03 -0.91061517063E+01  0.17271252508E+03  0.00000000000E+00 0. -1.
<mgrwt>
<rscale>  0 0.22961788E+03</rscale>
<asrwt>0</asrwt>
<pdfrwt beam="2">  1        2 0.53076197E-01 0.23386082E+03</pdfrwt>
<pdfrwt beam="1">  1       -2 0.26787880E-01 0.23386082E+03</pdfrwt>
<totfact> 0.11775586E+03</totfact>
</mgrwt>
</event>
<event>
 7    1  0.5206756E-006  0.1318122E+03  0.7546771E-02  0.1237829E+00
         -2   -1    0    0    0  501 -0.00000000000E+00  0.00000000000E+00  0.35023417647E+02  0.35023417647E+02  0.00000000000E+00 0. -1.
          2   -1    0    0  501    0  0.00000000000E+00 -0.00000000000E+00 -0.80362217180E+03  0.80362217180E+03  0.00000000000E+00 0.  1.
         23    2    1    2    0    0  0.96734279901E+01 -0.40684439194E+02 -0.70990293818E+03  0.72203644581E+03  0.12500259452E+03 0.  0.
          5    1    3    3  502    0  0.25619647632E+02  0.40518343945E+02 -0.29926072418E+03  0.30311247678E+03  0.47000000000E+01 0.  1.
         -5    1    3    3    0  502 -0.15946219642E+02 -0.81202783139E+02 -0.41064221400E+03  0.41892396903E+03  0.47000000000E+01 0.  1.
        -11    1    1    2    0    0 -0.11380607301E+02 -0.57361152179E+01  0.20883096477E+02  0.24464769747E+02  0.00000000000E+00 0. -1.
         11    1    1    2    0    0  0.17071793106E+01  0.46420554412E+02 -0.79578912445E+02  0.92144373887E+02  0.00000000000E+00 0.  1.
<mgrwt>
<rscale>  0 0.12325037E+03</rscale>
<asrwt>0</asrwt>
<pdfrwt beam="2">  1        2 0.12363418E+00 0.13181217E+03</pdfrwt>
<pdfrwt beam="1">  1       -2 0.53882182E-02 0.13181217E+03</pdfrwt>
<totfact> 0.59586576E+03</totfact>
</mgrwt>
</event>
<event>
 7    1  0.5206756E-006  0.1254925E+03  0.7546771E-02  0.1249747E+00
         -3   -1    0    0    0  501 -0.00000000000E+00  0.00000000000E+00  0.12443155062E+03  0.12443155062E+03  0.00000000000E+00 0.  1.
          3   -1    0    0  501    0  0.00000000000E+00 -0.00000000000E+00 -0.11141634249E+03  0.11141634249E+03  0.00000000000E+00 0. -1.
         23    2    1    2    0    0  0.57029801368E+01  0.95339067390E+01 -0.37620588950E+02  0.13101024997E+03  0.12499983009E+03 0.  0.
          5    1    3    3  502    0 -0.59491232134E+02  0.22784252511E+01 -0.18624053228E+02  0.62556720511E+02  0.47000000000E+01 0. -1.
         -5    1    3    3    0  502  0.65194212271E+02  0.72554814880E+01 -0.18996535722E+02  0.68453529454E+02  0.47000000000E+01 0. -1.
        -11    1    1    2    0    0  0.35238401314E+02  0.20625870392E+01  0.51311117152E+02  0.62280253178E+02  0.00000000000E+00 0.  1.
         11    1    1    2    0    0 -0.40941381451E+02 -0.11596493778E+02 -0.67532007002E+00  0.42557389961E+02  0.00000000000E+00 0. -1.
<mgrwt>
<rscale>  0 0.11605723E+03</rscale>
<asrwt>0</asrwt>
<pdfrwt beam="2">  1        3 0.17140976E-01 0.12549254E+03</pdfrwt>
<pdfrwt beam="1">  1       -3 0.19143316E-01 0.12549254E+03</pdfrwt>
<totfact> 0.16177992E+03</totfact>
</mgrwt>
</event>
<event>
 7    1  0.5206756E-006  0.1317056E+03  0.7546771E-02  0.1238420E+00
          2   -1    0    0  501    0  0.00000000000E+00  0.00000000000E+00  0.45601021784E+03  0.45601021784E+03  0.00000000000E+00 0.  1.
         -2   -1    0    0    0  501 -0.00000000000E+00 -0.00000000000E+00 -0.35756166026E+02  0.35756166026E+02  0.00000000000E+00 0. -1.
         23    2    1    2    0    0  0.41053746719E+02  0.59734110512E+01  0.33693619236E+03  0.36176287166E+03  0.12500114330E+03 0.  0.
          5    1    3    3  502    0 -0.29425337044E+02  0.22029231710E+02  0.22767194508E+03  0.23066803439E+03  0.47000000000E+01 0.  1.
         -5    1    3    3    0  502  0.70479083763E+02 -0.16055820659E+02  0.10926424728E+03  0.13109483727E+03  0.47000000000E+01 0.  1.
        -11    1    1    2    0    0  0.10236186023E+02  0.30127780486E+02  0.49229486779E+02  0.58617446463E+02  0.00000000000E+00 0.  1.
         11    1    1    2    0    0 -0.51289932741E+02 -0.36101191538E+02  0.34088372669E+02  0.71386065743E+02  0.00000000000E+00 0. -1.
<mgrwt>
<rscale>  0 0.12287981E+03</rscale>
<asrwt>0</asrwt>
<pdfrwt beam="1">  1        2 0.70155414E-01 0.13170565E+03</pdfrwt>
<pdfrwt beam="2">  1       -2 0.55009490E-02 0.13170565E+03</pdfrwt>
<totfact> 0.11062619E+04</totfact>
</mgrwt>
</event>
<event>
 7    1  0.5206756E-006  0.2293093E+03  0.7546771E-02  0.1130246E+00
          2   -1    0    0  501    0  0.00000000000E+00  0.00000000000E+00  0.66843562298E+03  0.66843562298E+03  0.00000000000E+00 0. -1.
         -2   -1    0    0    0  501 -0.00000000000E+00 -0.00000000000E+00 -0.81971445606E+02  0.81971445606E+02  0.00000000000E+00 0.  1.
         23    2    1    2    0    0 -0.95300771763E+01 -0.19201105994E+03  0.42757895326E+03  0.48518708251E+03  0.12499469688E+03 0.  0.
          5    1    3    3  502    0 -0.27899881404E+02 -0.15615253041E+03  0.20659045457E+03  0.26050666413E+03  0.47000000000E+01 0.  1.
         -5    1    3    3    0  502  0.18369804228E+02 -0.35858529527E+02  0.22098849870E+03  0.22468041838E+03  0.47000000000E+01 0.  1.
        -11    1    1    2    0    0  0.76381628727E+01  0.49331926871E+02  0.98199971790E+02  0.11015995189E+03  0.00000000000E+00 0. -1.
         11    1    1    2    0    0  0.18919143036E+01  0.14267913307E+03  0.60685252319E+02  0.15506003419E+03  0.00000000000E+00 0.  1.
<mgrwt>
<rscale>  0 0.22494939E+03</rscale>
<asrwt>0</asrwt>
<pdfrwt beam="1">  1        2 0.10283625E+00 0.22930928E+03</pdfrwt>
<pdfrwt beam="2">  1       -2 0.12610992E-01 0.22930928E+03</pdfrwt>
<totfact> 0.20147861E+03</totfact>
</mgrwt>
</event>
<event>
 7    1  0.5206756E-006  0.1783736E+03  0.7546771E-02  0.1175754E+00
          1   -1    0    0  501    0  0.00000000000E+00  0.00000000000E+00  0.23348633230E+03  0.23348633230E+03  0.00000000000E+00 0. -1.
         -1   -1    0    0    0  501 -0.00000000000E+00 -0.00000000000E+00 -0.12793431908E+03  0.12793431908E+03  0.00000000000E+00 0.  1.
         23    2    1    2    0    0  0.11081204501E+03 -0.62552746436E+02  0.10527356219E+03  0.20712233529E+03  0.12499993389E+03 0.  0.
          5    1    3    3  502    0 -0.13339030785E+02  0.47225598306E+01  0.55275478061E+02  0.57251207747E+02  0.47000000000E+01 0.  1.
         -5    1    3    3    0  502  0.12415107579E+03 -0.67275306267E+02  0.49998084127E+02  0.14987112754E+03  0.47000000000E+01 0.  1.
        -11    1    1    2    0    0 -0.87534213627E+02  0.24865132069E+02 -0.35176506376E+02  0.97559725035E+02  0.00000000000E+00 0.  1.
         11    1    1    2    0    0 -0.23277831383E+02  0.37687614367E+02  0.35454957411E+02  0.56738591061E+02  0.00000000000E+00 0. -1.
<mgrwt>
<rscale>  0 0.17202360E+03</rscale>
<asrwt>0</asrwt>
<pdfrwt beam="1">  1        1 0.35920974E-01 0.17837359E+03</pdfrwt>
<pdfrwt beam="2">  1       -1 0.19682203E-01 0.17837359E+03</pdfrwt>
<totfact> 0.24503722E+03</totfact>
</mgrwt>
</event>
<event>
 7    1  0.5206756E-006  0.1583378E+03  0.7546771E-02  0.1198660E+00
          3   -1    0    0  501    0  0.00000000000E+00  0.00000000000E+00  0.16534394707E+03  0.16534394707E+03  0.00000000000E+00 0. -1.
         -3   -1    0    0    0  501 -0.00000000000E+00 -0.00000000000E+00 -0.14025869059E+03  0.14025869059E+03  0.00000000000E+00 0.  1.
         23    2    1    2    0    0  0.27403334364E+02 -0.93232829967E+02  0.58508928284E+02  0.16880208080E+03  0.12501017749E+03 0.  0.
          5    1    3    3  502    0 -0.63485998961E+00 -0.46242249667E+02  0.92984705707E+02  0.10395669385E+03  0.47000000000E+01 0.  1.
         -5    1    3    3    0  502  0.28038194353E+02 -0.46990580301E+02 -0.34475777423E+02  0.64845386948E+02  0.47000000000E+01 0.  1.
        -11    1    1    2    0    0 -0.75392208316E+01 -0.17252501019E+02 -0.12529355714E+02  0.22615777607E+02  0.00000000000E+00 0. -1.
         11    1    1    2    0    0 -0.19864113532E+02  0.11048533099E+03 -0.20894316093E+02  0.11418477926E+03  0.00000000000E+00 0.  1.
<mgrwt>
<rscale>  0 0.15148477E+03</rscale>
<asrwt>0</asrwt>
<pdfrwt beam="1">  1        3 0.25437530E-01 0.15833776E+03</pdfrwt>
<pdfrwt beam="2">  1       -3 0.21578260E-01 0.15833776E+03</pdfrwt>
<totfact> 0.67502572E+02</totfact>
</mgrwt>
</event>
<event>
 7    1  0.5206756E-006  0.1375190E+03  0.7546771E-02  0.1228615E+00
          2   -1    0    0  501    0  0.00000000000E+00  0.00000000000E+00  0.79314458568E+03  0.79314458568E+03  0.00000000000E+00 0. -1.
         -2   -1    0    0    0  501 -0.00000000000E+00 -0.00000000000E+00 -0.25336434321E+02  0.25336434321E+02  0.00000000000E+00 0.  1.
         23    2    1    2    0    0  0.34240385941E+02  0.45968345749E+02  0.62474757898E+03  0.63970385348E+03  0.12500395941E+03 0.  0.
          5    1    3    3  502    0  0.29668656607E+02  0.76478695169E+02  0.57594551217E+03  0.58177705608E+03  0.47000000000E+01 0.  1.
         -5    1    3    3    0  502  0.45717293340E+01 -0.30510349420E+02  0.48802066817E+02  0.57926797396E+02  0.47000000000E+01 0.  1.
        -11    1    1    2    0    0  0.13023466209E+02 -0.56032244721E+02  0.63424656029E+02  0.85626573638E+02  0.00000000000E+00 0.  1.
         11    1    1    2    0    0 -0.47263852150E+02  0.10063898972E+02  0.79635916347E+02  0.93150592886E+02  0.00000000000E+00 0. -1.
<mgrwt>
<rscale>  0 0.12922171E+03</rscale>
<asrwt>0</asrwt>
<pdfrwt beam="1">  1        2 0.12202223E+00 0.13751903E+03</pdfrwt>
<pdfrwt beam="2">  1       -2 0.38979136E-02 0.13751903E+03</pdfrwt>
<totfact> 0.98499889E+03</totfact>
</mgrwt>
</event>
<event>
 7    1  0.5206756E-006  0.1331284E+03  0.7546771E-02  0.1236064E+00
         -1   -1    0    0    0  501 -0.00000000000E+00  0.00000000000E+00  0.53805700843E+02  0.53805700843E+02  0.00000000000E+00 0.  1.
          1   -1    0    0  501    0  0.00000000000E+00 -0.00000000000E+00 -0.31713812297E+03  0.31713812297E+03  0.00000000000E+00 0. -1.
         23    2    1    2    0    0 -0.39929671473E+02 -0.22455760377E+02 -0.22715813001E+03  0.26329449612E+03  0.12499814326E+03 0.  0.
          5    1    3    3  502    0  0.20899417433E+02 -0.50031917824E+02 -0.15767168638E+03  0.16680056696E+03  0.47000000000E+01 0.  1.
         -5    1    3    3    0  502 -0.60829088906E+02  0.27576157447E+02 -0.69486443626E+02  0.96493929159E+02  0.47000000000E+01 0.  1.
        -11    1    1    2    0    0  0.25856223784E+02 -0.31434741564E+02  0.94925913503E+00  0.40713491357E+02  0.00000000000E+00 0.  1.
         11    1    1    2    0    0  0.14073447690E+02  0.53890501941E+02 -0.37123551255E+02  0.66935836344E+02  0.00000000000E+00 0. -1.
<mgrwt>
<rscale>  0 0.12436585E+03</rscale>
<asrwt>0</asrwt>
<pdfrwt beam="2">  1        1 0.48790480E-01 0.13312842E+03</pdfrwt>
<pdfrwt beam="1">  1       -1 0.82778002E-02 0.13312842E+03</pdfrwt>
<totfact> 0.63593031E+03</totfact>
</mgrwt>
</event>
<event>
 6    1  0.5206756E-006  0.1505689E+03  0.7546771E-02  0.1215310E+00
          2   -1    0    0  501    0  0.00000000000E+00  0.00000000000E+00  0.29720999935E+03  0.29720999935E+03  0.00000000000E+00 0. -1.
         -2   -1    0    0    0  501 -0.00000000000E+00 -0.00000000000E+00 -0.12230410185E+03  0.12230410185E+03  0.00000000000E+00 0.  1.
          5    1    1    2  502    0  0.43551194356E-02 -0.29851898005E+02  0.26170331697E+03  0.26344231237E+03  0.47000000000E+01 0. -1.
         -5    1    1    2    0  502 -0.70161914012E+01 -0.20094596836E+02 -0.14376894504E+02  0.26111393286E+02  0.47000000000E+01 0.  1.
        -11    1    1    2    0    0 -0.33470986014E+02  0.40714317633E+02 -0.70985712065E+02  0.88413425917E+02  0.00000000000E+00 0.  1.
         11    1    1    2    0    0  0.40482822295E+02  0.92321772077E+01 -0.14348128947E+01  0.41546969625E+02  0.00000000000E+00 0. -1.
<mgrwt>
<rscale>  0 0.13853794E+03</rscale>
<asrwt>0</asrwt>
<pdfrwt beam="1">  1        2 0.45724615E-01 0.15056889E+03</pdfrwt>
<pdfrwt beam="2">  1       -2 0.18816016E-01 0.15056889E+03</pdfrwt>
<totfact> 0.25173643E+03</totfact>
</mgrwt>
</event>
<event>
 7    1  0.5206756E-006  0.1490118E+03  0.7546771E-02  0.1212866E+00
         -2   -1    0    0    0  501 -0.00000000000E+00  0.00000000000E+00  0.80089060175E+02  0.80089060175E+02  0.00000000000E+00 0. -1.
          2   -1    0    0  501    0  0.00000000000E+00 -0.00000000000E+00 -0.25386121984E+03  0.25386121984E+03  0.00000000000E+00 0.  1.
         23    2    1    2    0    0  0.57519317253E+02 -0.57187868540E+02 -0.15534284452E+03  0.21525781941E+03  0.12500242120E+03 0.  0.
          5    1    3    3  502    0  0.96439598309E+02 -0.48545045067E+02 -0.10299647723E+03  0.14929026038E+03  0.47000000000E+01 0.  1.
         -5    1    3    3    0  502 -0.38920281056E+02 -0.86428234733E+01 -0.52346367289E+02  0.65967559023E+02  0.47000000000E+01 0.  1.
        -11    1    1    2    0    0 -0.41408148546E+02  0.76718501330E+02  0.33171145559E+00  0.87180693074E+02  0.00000000000E+00 0. -1.
         11    1    1    2    0    0 -0.16111168707E+02 -0.19530632790E+02 -0.18761026596E+02  0.31511767536E+02  0.00000000000E+00 0.  1.
<mgrwt>
<rscale>  0 0.14034488E+03</rscale>
<asrwt>0</asrwt>
<pdfrwt beam="2">  1        2 0.39055572E-01 0.14901184E+03</pdfrwt>
<pdfrwt beam="1">  1       -2 0.12321394E-01 0.14901184E+03</pdfrwt>
<totfact> 0.59616616E+03</totfact>
</mgrwt>
</event>
<event>
 7    1  0.5206756E-006  0.1287407E+03  0.7546771E-02  0.1242647E+00
          2   -1    0    0  501    0  0.00000000000E+00  0.00000000000E+00  0.93769820766E+02  0.93769820766E+02  0.00000000000E+00 0. -1.
         -2   -1    0    0    0  501 -0.00000000000E+00 -0.00000000000E+00 -0.16005698633E+03  0.16005698633E+03  0.00000000000E+00 0.  1.
         23    2    1    2    0    0 -0.17138223875E+02 -0.25584712705E+02  0.10649343225E+02  0.12918044867E+03  0.12500353421E+03 0.  0.
          5    1    3    3  502    0  0.98245238717E+01  0.48338639947E+02 -0.60357875808E+00  0.49554007795E+02  0.47000000000E+01 0. -1.
         -5    1    3    3    0  502 -0.26962747746E+02 -0.73923352652E+02  0.11252921983E+02  0.79626440875E+02  0.47000000000E+01 0. -1.
        -11    1    1    2    0    0  0.15711292738E+02  0.11224846009E+02 -0.97572806958E+02  0.99465041824E+02  0.00000000000E+00 0.  1.
         11    1    1    2    0    0  0.14269311365E+01  0.14359866696E+02  0.20636298165E+02  0.25181316605E+02  0.00000000000E+00 0. -1.
<mgrwt>
<rscale>  0 0.12027344E+03</rscale>
<asrwt>0</asrwt>
<pdfrwt beam="1">  1        2 0.14426126E-01 0.12874075E+03</pdfrwt>
<pdfrwt beam="2">  1       -2 0.24624152E-01 0.12874075E+03</pdfrwt>
<totfact> 0.56455690E+03</totfact>
</mgrwt>
</event>
<event>
 7    1  0.5206756E-006  0.2120516E+03  0.7546771E-02  0.1144477E+00
          1   -1    0    0  501    0  0.00000000000E+00  0.00000000000E+00  0.98982459396E+02  0.98982459396E+02  0.00000000000E+00 0. -1.
         -1   -1    0    0    0  501 -0.00000000000E+00 -0.00000000000E+00 -0.42984376916E+03  0.42984376916E+03  0.00000000000E+00 0.  1.
         23    2    1    2    0    0  0.12164537070E+03  0.12059507435E+03 -0.11539088374E+03  0.24141445181E+03  0.12500045328E+03 0.  0.
          5    1    3    3  502    0  0.15553262884E+02 -0.21361999099E+02 -0.41337331920E+02  0.49285941222E+02  0.47000000000E+01 0.  1.
         -5    1    3    3    0  502  0.10609210782E+03  0.14195707345E+03 -0.74053551820E+02  0.19212851059E+03  0.47000000000E+01 0.  1.
        -11    1    1    2    0    0 -0.25531696165E+02  0.10161352779E+02 -0.38490323397E+02  0.47292976165E+02  0.00000000000E+00 0.  1.
         11    1    1    2    0    0 -0.96113674538E+02 -0.13075642713E+03 -0.17698010263E+03  0.24011880058E+03  0.00000000000E+00 0. -1.
<mgrwt>
<rscale>  0 0.20636535E+03</rscale>
<asrwt>0</asrwt>
<pdfrwt beam="1">  1        1 0.15228071E-01 0.21205160E+03</pdfrwt>
<pdfrwt beam="2">  1       -1 0.66129811E-01 0.21205160E+03</pdfrwt>
<totfact> 0.87497438E+02</totfact>
</mgrwt>
</event>
<event>
 7    1  0.5206756E-006  0.2066950E+03  0.7546771E-02  0.1147849E+00
         -2   -1    0    0    0  501 -0.00000000000E+00  0.00000000000E+00  0.80822584274E+03  0.80822584274E+03  0.00000000000E+00 0.  1.
          2   -1    0    0  501    0  0.00000000000E+00 -0.00000000000E+00 -0.50525005971E+02  0.50525005971E+02  0.00000000000E+00 0. -1.
         23    2    1    2    0    0 -0.14081826595E+03  0.85259939699E+02  0.30993660462E+03  0.37253658143E+03  0.12499505701E+03 0.  0.
          5    1    3    3  502    0 -0.48995759153E+02  0.79134087596E+02  0.73215571338E+02  0.11851328247E+03  0.47000000000E+01 0. -1.
         -5    1    3    3    0  502 -0.91822506799E+02  0.61258521037E+01  0.23672103328E+03  0.25402329896E+03  0.47000000000E+01 0. -1.
        -11    1    1    2    0    0  0.66191922189E+01 -0.98185104892E+01 -0.89679920043E+00  0.11875230636E+02  0.00000000000E+00 0. -1.
         11    1    1    2    0    0  0.13419907373E+03 -0.75441429210E+02  0.44866103136E+03  0.47433903665E+03  0.00000000000E+00 0.  1.
<mgrwt>
<rscale>  0 0.20225609E+03</rscale>
<asrwt>0</asrwt>
<pdfrwt beam="2">  1        2 0.77730785E-02 0.20669496E+03</pdfrwt>
<pdfrwt beam="1">  1       -2 0.12434243E+00 0.20669496E+03</pdfrwt>
<totfact> 0.44683362E+02</totfact>
</mgrwt>
</event>
<event>
 7    1  0.5206756E-006  0.1269998E+03  0.7546771E-02  0.1246296E+00
         -1   -1    0    0    0  501 -0.00000000000E+00  0.00000000000E+00  0.17109247427E+03  0.17109247427E+03  0.00000000000E+00 0.  1.
          1   -1    0    0  501    0  0.00000000000E+00 -0.00000000000E+00 -0.75859680054E+02  0.75859680054E+02  0.00000000000E+00 0. -1.
         23    2    1    2    0    0 -0.22356714449E+02 -0.22693368228E+01  0.26417565516E+02  0.12971828660E+03  0.12499589409E+03 0.  0.
          5    1    3    3  502    0  0.42768423323E+02 -0.30514149866E+02 -0.27730006428E+01  0.52820743161E+02  0.47000000000E+01 0. -1.
         -5    1    3    3    0  502 -0.65125137771E+02  0.28244813043E+02  0.29190566159E+02  0.76897543434E+02  0.47000000000E+01 0. -1.
        -11    1    1    2    0    0 -0.72343324248E+01 -0.13292271235E+02  0.80429293087E+02  0.81840645321E+02  0.00000000000E+00 0.  1.
         11    1    1    2    0    0  0.29591046873E+02  0.15561608058E+02 -0.11614064391E+02  0.35393222403E+02  0.00000000000E+00 0. -1.
<mgrwt>
<rscale>  0 0.11808161E+03</rscale>
<asrwt>0</asrwt>
<pdfrwt beam="2">  1        1 0.11670720E-01 0.12699979E+03</pdfrwt>
<pdfrwt beam="1">  1       -1 0.26321919E-01 0.12699979E+03</pdfrwt>
<totfact> 0.62808264E+03</totfact>
</mgrwt>
</event>
<event>
 7    1  0.5206756E-006  0.1295417E+03  0.7546771E-02  0.1240465E+00
          2   -1    0    0  501    0  0.00000000000E+00  0.00000000000E+00  0.79553967987E+03  0.79553967987E+03  0.00000000000E+00 0. -1.
         -2   -1    0    0    0  501 -0.00000000000E+00 -0.00000000000E+00 -0.18619967891E+02  0.18619967891E+02  0.00000000000E+00 0.  1.
         23    2    1    2    0    0 -0.23412997884E+02 -0.24647930502E+02  0.56371460157E+03  0.57840747448E+03  0.12500146221E+03 0.  0.
          5    1    3    3  502    0 -0.24324605989E+02 -0.61524488326E+02  0.16308973425E+03  0.17606050249E+03  0.47000000000E+01 0. -1.
         -5    1    3    3    0  502  0.91160810494E+00  0.36876557824E+02  0.40062486732E+03  0.40234697198E+03  0.47000000000E+01 0. -1.
        -11    1    1    2    0    0  0.50640121071E+02  0.43073767114E+02  0.12427681465E+03  0.14094146989E+03  0.00000000000E+00 0.  1.
         11    1    1    2    0    0 -0.27227123187E+02 -0.18425836612E+02  0.88928295758E+02  0.94810703395E+02  0.00000000000E+00 0. -1.
<mgrwt>
<rscale>  0 0.12160995E+03</rscale>
<asrwt>0</asrwt>
<pdfrwt beam="1">  1        2 0.12239069E+00 0.12954171E+03</pdfrwt>
<pdfrwt beam="2">  1       -2 0.28646111E-02 0.12954171E+03</pdfrwt>
<totfact> 0.15395516E+04</totfact>
</mgrwt>
</event>
<event>
 7    1  0.5206756E-006  0.1582536E+03  0.7546771E-02  0.1198921E+00
          2   -1    0    0  501    0  0.00000000000E+00  0.00000000000E+00  0.45530236373E+03  0.45530236373E+03  0.00000000000E+00 0. -1.
         -2   -1    0    0    0  501 -0.00000000000E+00 -0.00000000000E+00 -0.57521848861E+02  0.57521848861E+02  0.00000000000E+00 0.  1.
         23    2    1    2    0    0 -0.73583648609E+01  0.96772281661E+02  0.32620420367E+03  0.36256499229E+03  0.12500068442E+03 0.  0.
          5    1    3    3  502    0 -0.45853883469E+02  0.95850654392E+02  0.16165827712E+03  0.19350817848E+03  0.47000000000E+01 0.  1.
         -5    1    3    3    0  502  0.38495518608E+02  0.92162726916E+00  0.16454592655E+03  0.16905681381E+03  0.47000000000E+01 0.  1.
        -11    1    1    2    0    0  0.51292626725E+01 -0.73752620865E+02 -0.11545822514E+01  0.73939782798E+02  0.00000000000E+00 0.  1.
         11    1    1    2    0    0  0.22291021884E+01 -0.23019660796E+02  0.72730893453E+02  0.76319437512E+02  0.00000000000E+00 0. -1.
<mgrwt>
<rscale>  0 0.15127044E+03</rscale>
<asrwt>0</asrwt>
<pdfrwt beam="1">  1        2 0.70046515E-01 0.15825357E+03</pdfrwt>
<pdfrwt beam="2">  1       -2 0.88495155E-02 0.15825357E+03</pdfrwt>
<totfact> 0.54071811E+03</totfact>
</mgrwt>
</event>
<event>
 7    1  0.5206756E-006  0.1374193E+03  0.7546771E-02  0.1228773E+00
         -3   -1    0    0    0  501 -0.00000000000E+00  0.00000000000E+00  0.13551955358E+03  0.13551955358E+03  0.00000000000E+00 0.  1.
          3   -1    0    0  501    0  0.00000000000E+00 -0.00000000000E+00 -0.11030280510E+03  0.11030280510E+03  0.00000000000E+00 0. -1.
         23    2    1    2    0    0 -0.51489151474E+02 -0.25341440783E+02  0.13107839983E+02  0.13804302777E+03  0.12486288763E+03 0.  0.
          5    1    3    3  502    0  0.37412818175E+02 -0.37763038116E+01  0.25400959110E+02  0.45621027585E+02  0.47000000000E+01 0.  1.
         -5    1    3    3    0  502 -0.88901969649E+02 -0.21565136972E+02 -0.12293119127E+02  0.92422000183E+02  0.47000000000E+01 0.  1.
        -11    1    1    2    0    0  0.20977031702E+02  0.47673481628E+02 -0.22297671973E+02  0.56656710856E+02  0.00000000000E+00 0. -1.
         11    1    1    2    0    0  0.30512119772E+02 -0.22332040845E+02  0.34406580471E+02  0.51122620052E+02  0.00000000000E+00 0.  1.
<mgrwt>
<rscale>  0 0.12911600E+03</rscale>
<asrwt>0</asrwt>
<pdfrwt beam="2">  1        3 0.16969662E-01 0.13741929E+03</pdfrwt>
<pdfrwt beam="1">  1       -3 0.20849162E-01 0.13741929E+03</pdfrwt>
<totfact> 0.14385997E+03</totfact>
</mgrwt>
</event>
<event>
 7    1  0.5206756E-006  0.2810831E+03  0.7546771E-02  0.1096935E+00
         -1   -1    0    0    0  501 -0.00000000000E+00  0.00000000000E+00  0.69766848084E+02  0.69766848084E+02  0.00000000000E+00 0.  1.
          1   -1    0    0  501    0  0.00000000000E+00 -0.00000000000E+00 -0.11103836707E+04  0.11103836707E+04  0.00000000000E+00 0. -1.
         23    2    1    2    0    0  0.44997981729E+01 -0.25173077707E+03 -0.63001653799E+03  0.68987576542E+03  0.12497640287E+03 0.  0.
          5    1    3    3  502    0 -0.52044102830E+00 -0.10102278388E+03 -0.41543565704E+03  0.42756841425E+03  0.47000000000E+01 0.  1.
         -5    1    3    3    0  502  0.50202392012E+01 -0.15070799319E+03 -0.21458088095E+03  0.26230735118E+03  0.47000000000E+01 0.  1.
        -11    1    1    2    0    0 -0.31395350799E+02  0.11972494986E+03 -0.13282617554E+03  0.18155584425E+03  0.00000000000E+00 0. -1.
         11    1    1    2    0    0  0.26895552626E+02  0.13200582720E+03 -0.27777410913E+03  0.30871890915E+03  0.00000000000E+00 0.  1.
<mgrwt>
<rscale>  0 0.27773081E+03</rscale>
<asrwt>0</asrwt>
<pdfrwt beam="2">  1        1 0.17082825E+00 0.28108314E+03</pdfrwt>
<pdfrwt beam="1">  1       -1 0.10733362E-01 0.28108314E+03</pdfrwt>
<totfact> 0.72509666E+02</totfact>
</mgrwt>
</event>
<event>
 7    1  0.5206756E-006  0.1408017E+03  0.7546771E-02  0.1223748E+00
          1   -1    0    0  501    0  0.00000000000E+00  0.00000000000E+00  0.11210422205E+03  0.11210422205E+03  0.00000000000E+00 0. -1.
         -1   -1    0    0    0  501 -0.00000000000E+00 -0.00000000000E+00 -0.25597601494E+03  0.25597601494E+03  0.00000000000E+00 0.  1.
         23    2    1    2    0    0  0.58104418192E+02  0.28657037452E+02  0.46220727269E+02  0.14819404325E+03  0.12501107798E+03 0.  0.
          5    1    3    3  502    0  0.66554826796E+02  0.70500106191E+02  0.39177023301E+02  0.10467444338E+03  0.47000000000E+01 0.  1.
         -5    1    3    3    0  502 -0.84504086047E+01 -0.41843068738E+02  0.70437039679E+01  0.43519599867E+02  0.47000000000E+01 0.  1.
        -11    1    1    2    0    0  0.18937468919E+02 -0.57251437281E+01 -0.89590869912E+01  0.21717970427E+02  0.00000000000E+00 0. -1.
         11    1    1    2    0    0 -0.77041887110E+02 -0.22931893724E+02 -0.18113343316E+03  0.19816822331E+03  0.00000000000E+00 0.  1.
<mgrwt>
<rscale>  0 0.13253073E+03</rscale>
<asrwt>0</asrwt>
<pdfrwt beam="1">  1        1 0.17246804E-01 0.14080170E+03</pdfrwt>
<pdfrwt beam="2">  1       -1 0.39380925E-01 0.14080170E+03</pdfrwt>
<totfact> 0.19207067E+03</totfact>
</mgrwt>
</event>
<event>
 7    1  0.5206756E-006  0.1175427E+03  0.7546771E-02  0.1259888E+00
         -1   -1    0    0    0  501 -0.00000000000E+00  0.00000000000E+00  0.79075851406E+02  0.79075851406E+02  0.00000000000E+00 0.  1.
          1   -1    0    0  501    0  0.00000000000E+00 -0.00000000000E+00 -0.45872370210E+03  0.45872370210E+03  0.00000000000E+00 0. -1.
         23    2    1    2    0    0 -0.87712640472E+01  0.12115883265E+02 -0.42129528371E+03  0.43738540595E+03  0.11658708144E+03 0.  0.
          5    1    3    3  502    0 -0.56203349262E+02 -0.14224746454E+02 -0.27958266535E+03  0.28556911010E+03  0.47000000000E+01 0. -1.
         -5    1    3    3    0  502  0.47432085215E+02  0.26340629720E+02 -0.14171261836E+03  0.15181629585E+03  0.47000000000E+01 0.  1.
        -11    1    1    2    0    0  0.19802817303E+01 -0.49528656851E+02  0.37518966934E+02  0.62166568547E+02  0.00000000000E+00 0. -1.
         11    1    1    2    0    0  0.67909823169E+01  0.37412773585E+02  0.41284660804E+01  0.38247579013E+02  0.00000000000E+00 0.  1.
<mgrwt>
<rscale>  0 0.11036914E+03</rscale>
<asrwt>0</asrwt>
<pdfrwt beam="2">  1        1 0.70572880E-01 0.11754266E+03</pdfrwt>
<pdfrwt beam="1">  1       -1 0.12165515E-01 0.11754266E+03</pdfrwt>
<totfact> 0.22126573E+03</totfact>
</mgrwt>
</event>
<event>
 6    1  0.5206756E-006  0.1939191E+03  0.7546771E-02  0.1178759E+00
          2   -1    0    0  501    0  0.00000000000E+00  0.00000000000E+00  0.26708901891E+04  0.26708901891E+04  0.00000000000E+00 0. -1.
         -2   -1    0    0    0  501 -0.00000000000E+00 -0.00000000000E+00 -0.10602450377E+02  0.10602450377E+02  0.00000000000E+00 0.  1.
          5    1    1    2  502    0 -0.32192673895E+02 -0.19450906361E+02  0.20025561664E+04  0.20029148747E+04  0.47000000000E+01 0. -1.
         -5    1    1    2    0  502  0.32812065191E+02 -0.40742487088E+02  0.16180636801E+03  0.17011752586E+03  0.47000000000E+01 0.  1.
        -11    1    1    2    0    0 -0.42431881306E+02  0.62775198045E+01  0.15819646553E+03  0.16390849128E+03  0.00000000000E+00 0. -1.
         11    1    1    2    0    0  0.41812490010E+02  0.53915873644E+02  0.33772873886E+03  0.34455174765E+03  0.00000000000E+00 0.  1.
<mgrwt>
<rscale>  0 0.16912926E+03</rscale>
<asrwt>0</asrwt>
<pdfrwt beam="1">  1        2 0.41090564E+00 0.19391914E+03</pdfrwt>
<pdfrwt beam="2">  1       -2 0.16311483E-02 0.19391914E+03</pdfrwt>
<totfact> 0.33819883E+03</totfact>
</mgrwt>
</event>
<event>
 7    1  0.5206756E-006  0.1253940E+03  0.7546771E-02  0.1251202E+00
          4   -1    0    0  501    0  0.00000000000E+00  0.00000000000E+00  0.10289652625E+03  0.10289652625E+03  0.00000000000E+00 0. -1.
         -4   -1    0    0    0  501 -0.00000000000E+00 -0.00000000000E+00 -0.11740090469E+03  0.11740090469E+03  0.00000000000E+00 0.  1.
         23    2    1    2    0    0  0.63295498870E+00 -0.97804824273E+01  0.14731650107E+02  0.12625641096E+03  0.12501040486E+03 0.  0.
          5    1    3    3  502    0  0.48630189063E+02 -0.48904836069E+01  0.47043659711E+02  0.68000059097E+02  0.47000000000E+01 0. -1.
         -5    1    3    3    0  502 -0.47997234074E+02 -0.48899988205E+01 -0.32312009604E+02  0.58256351859E+02  0.47000000000E+01 0. -1.
        -11    1    1    2    0    0 -0.13254518145E+02  0.67319039072E+01 -0.59383605141E+02  0.61216119944E+02  0.00000000000E+00 0.  1.
         11    1    1    2    0    0  0.12621563156E+02  0.30485785201E+01  0.30147576596E+02  0.32824900032E+02  0.00000000000E+00 0. -1.
<mgrwt>
<rscale>  0 0.11521763E+03</rscale>
<asrwt>0</asrwt>
<pdfrwt beam="1">  1        4 0.15830235E-01 0.12539402E+03</pdfrwt>
<pdfrwt beam="2">  1       -4 0.18061678E-01 0.12539402E+03</pdfrwt>
<totfact> 0.15027428E+03</totfact>
</mgrwt>
</event>
<event>
 7    1  0.5206756E-006  0.1358979E+03  0.7546771E-02  0.1231177E+00
         -1   -1    0    0    0  501 -0.00000000000E+00  0.00000000000E+00  0.25183500524E+03  0.25183500524E+03  0.00000000000E+00 0.  1.
          1   -1    0    0  501    0  0.00000000000E+00 -0.00000000000E+00 -0.60419897674E+02  0.60419897674E+02  0.00000000000E+00 0. -1.
         23    2    1    2    0    0  0.50988613067E+02 -0.15593401221E+02  0.74946932515E+02  0.15519429922E+03  0.12500093996E+03 0.  0.
          5    1    3    3  502    0  0.32760302747E+02 -0.50016104316E+02 -0.10761993052E+02  0.60932410271E+02  0.47000000000E+01 0.  1.
         -5    1    3    3    0  502  0.18228310320E+02  0.34422703095E+02  0.85708925567E+02  0.94261888944E+02  0.47000000000E+01 0.  1.
        -11    1    1    2    0    0 -0.75522172283E+02  0.16899034991E+02  0.69324538168E+02  0.10389931416E+03  0.00000000000E+00 0.  1.
         11    1    1    2    0    0  0.24533559216E+02 -0.13056337696E+01  0.47143636882E+02  0.53161289543E+02  0.00000000000E+00 0. -1.
<mgrwt>
<rscale>  0 0.12752357E+03</rscale>
<asrwt>0</asrwt>
<pdfrwt beam="2">  1        1 0.92953690E-02 0.13589786E+03</pdfrwt>
<pdfrwt beam="1">  1       -1 0.38743847E-01 0.13589786E+03</pdfrwt>
<totfact> 0.44286705E+03</totfact>
</mgrwt>
</event>
<event>
 6    1  0.5206756E-006  0.1313040E+03  0.7546771E-02  0.1241871E+00
          2   -1    0    0  501    0  0.00000000000E+00  0.00000000000E+00  0.66798234663E+03  0.66798234663E+03  0.00000000000E+00 0. -1.
         -2   -1    0    0    0  501 -0.00000000000E+00 -0.00000000000E+00 -0.19118325761E+02  0.19118325761E+02  0.00000000000E+00 0.  1.
          5    1    1    2  502    0 -0.12670623659E+02 -0.27240704776E+02  0.39870876316E+03  0.39986668844E+03  0.47000000000E+01 0. -1.
         -5    1    1    2    0  502 -0.12990733036E+02  0.22334451201E+02  0.79106995320E+01  0.27427286092E+02  0.47000000000E+01 0.  1.
        -11    1    1    2    0    0 -0.16663394033E+02 -0.27224731896E+02  0.42724315643E+02  0.53331246701E+02  0.00000000000E+00 0. -1.
         11    1    1    2    0    0  0.42324750728E+02  0.32130985471E+02  0.19952024253E+03  0.20647545116E+03  0.00000000000E+00 0.  1.
<mgrwt>
<rscale>  0 0.12074642E+03</rscale>
<asrwt>0</asrwt>
<pdfrwt beam="1">  1        2 0.10276650E+00 0.13130405E+03</pdfrwt>
<pdfrwt beam="2">  1       -2 0.29412814E-02 0.13130405E+03</pdfrwt>
<totfact> 0.18291078E+04</totfact>
</mgrwt>
</event>
<event>
 7    1  0.5206756E-006  0.1822188E+03  0.7546771E-02  0.1171767E+00
          2   -1    0    0  501    0  0.00000000000E+00  0.00000000000E+00  0.16253797279E+03  0.16253797279E+03  0.00000000000E+00 0. -1.
         -2   -1    0    0    0  501 -0.00000000000E+00 -0.00000000000E+00 -0.19493930582E+03  0.19493930582E+03  0.00000000000E+00 0.  1.
         23    2    1    2    0    0  0.77417881026E+02 -0.10765570828E+03 -0.68999849562E+02  0.19484526306E+03  0.12498166853E+03 0.  0.
          5    1    3    3  502    0 -0.34111570114E+02 -0.31388657837E+02 -0.23615802528E+02  0.52236416277E+02  0.47000000000E+01 0.  1.
         -5    1    3    3    0  502  0.11152945114E+03 -0.76267050447E+02 -0.45384047034E+02  0.14260884678E+03  0.47000000000E+01 0.  1.
        -11    1    1    2    0    0 -0.80436767677E+02  0.95821938559E+02  0.58072012008E+02  0.13792851802E+03  0.00000000000E+00 0. -1.
         11    1    1    2    0    0  0.30188866511E+01  0.11833769726E+02 -0.21473495480E+02  0.24703497539E+02  0.00000000000E+00 0.  1.
<mgrwt>
<rscale>  0 0.17596454E+03</rscale>
<asrwt>0</asrwt>
<pdfrwt beam="1">  1        2 0.25005842E-01 0.18221882E+03</pdfrwt>
<pdfrwt beam="2">  1       -2 0.29990662E-01 0.18221882E+03</pdfrwt>
<totfact> 0.21631472E+03</totfact>
</mgrwt>
</event>
<event>
 7    1  0.5206756E-006  0.1516133E+03  0.7546771E-02  0.1207363E+00
         -1   -1    0    0    0  501 -0.00000000000E+00  0.00000000000E+00  0.13157112418E+03  0.13157112418E+03  0.00000000000E+00 0.  1.
          1   -1    0    0  501    0  0.00000000000E+00 -0.00000000000E+00 -0.14564308736E+03  0.14564308736E+03  0.00000000000E+00 0. -1.
         23    2    1    2    0    0 -0.73766574648E+02 -0.43824197501E+02 -0.52084377629E+01  0.15170274211E+03  0.12499810526E+03 0.  0.
          5    1    3    3  502    0 -0.44016067969E+02  0.32434305041E+02  0.29919649353E+02  0.62503390311E+02  0.47000000000E+01 0. -1.
         -5    1    3    3    0  502 -0.29750506678E+02 -0.76258502542E+02 -0.35128087116E+02  0.89199351802E+02  0.47000000000E+01 0. -1.
        -11    1    1    2    0    0  0.37012759146E+02  0.79235668786E+01 -0.47853678808E+02  0.61013947808E+02  0.00000000000E+00 0. -1.
         11    1    1    2    0    0  0.36753815502E+02  0.35900630623E+02  0.38990153397E+02  0.64497521619E+02  0.00000000000E+00 0.  1.
<mgrwt>
<rscale>  0 0.14452815E+03</rscale>
<asrwt>0</asrwt>
<pdfrwt beam="2">  1        1 0.22406629E-01 0.15161330E+03</pdfrwt>
<pdfrwt beam="1">  1       -1 0.20241711E-01 0.15161330E+03</pdfrwt>
<totfact> 0.42040207E+03</totfact>
</mgrwt>
</event>
<event>
 7    1  0.5206756E-006  0.2087474E+03  0.7546771E-02  0.1149379E+00
          2   -1    0    0  501    0  0.00000000000E+00  0.00000000000E+00  0.45333479313E+03  0.45333479313E+03  0.00000000000E+00 0. -1.
         -2   -1    0    0    0  501 -0.00000000000E+00 -0.00000000000E+00 -0.94711393002E+02  0.94711393002E+02  0.00000000000E+00 0.  1.
         23    2    1    2    0    0 -0.12267080520E+03  0.11358607700E+03  0.29113773584E+03  0.35824106151E+03  0.12500221431E+03 0.  0.
          5    1    3    3  502    0 -0.77961773542E+02  0.51959280003E+02  0.52052438869E+02  0.10728164477E+03  0.47000000000E+01 0.  1.
         -5    1    3    3    0  502 -0.44709031659E+02  0.61626796992E+02  0.23908529697E+03  0.25095941674E+03  0.47000000000E+01 0.  1.
        -11    1    1    2    0    0  0.48519765556E+01 -0.24707885720E+02  0.26678821527E+02  0.36684885326E+02  0.00000000000E+00 0. -1.
         11    1    1    2    0    0  0.11781882865E+03 -0.88878191275E+02  0.40806842761E+02  0.15312023930E+03  0.00000000000E+00 0.  1.
<mgrwt>
<rscale>  0 0.20042679E+03</rscale>
<asrwt>0</asrwt>
<pdfrwt beam="1">  1        2 0.69743813E-01 0.20874740E+03</pdfrwt>
<pdfrwt beam="2">  1       -2 0.14570984E-01 0.20874740E+03</pdfrwt>
<totfact> 0.24722233E+03</totfact>
</mgrwt>
</event>
<event>
 7    1  0.5206756E-006  0.1267972E+03  0.7546771E-02  0.1247010E+00
         -2   -1    0    0    0  501 -0.00000000000E+00  0.00000000000E+00  0.12129044116E+02  0.12129044116E+02  0.00000000000E+00 0.  1.
          2   -1    0    0  501    0  0.00000000000E+00 -0.00000000000E+00 -0.15935518812E+04  0.15935518812E+04  0.00000000000E+00 0. -1.
         23    2    1    2    0    0  0.20306103221E+02 -0.56535653754E+01 -0.13492883077E+04  0.13552329893E+04  0.12503286511E+03 0.  0.
          5    1    3    3  502    0  0.64166855857E+02  0.27282961320E+02 -0.63752582703E+03  0.64134469320E+03  0.47000000000E+01 0. -1.
         -5    1    3    3    0  502 -0.43860752636E+02 -0.32936526695E+02 -0.71176248072E+03  0.71388829614E+03  0.47000000000E+01 0. -1.
        -11    1    1    2    0    0  0.19985985524E+02  0.37530826503E+02 -0.99077592538E+02  0.10781638047E+03  0.00000000000E+00 0.  1.
         11    1    1    2    0    0 -0.40292088745E+02 -0.31877261128E+02 -0.13305693677E+03  0.14263155546E+03  0.00000000000E+00 0. -1.
<mgrwt>
<rscale>  0 0.11765888E+03</rscale>
<asrwt>0</asrwt>
<pdfrwt beam="2">  1        2 0.24516187E+00 0.12679715E+03</pdfrwt>
<pdfrwt beam="1">  1       -2 0.18660065E-02 0.12679715E+03</pdfrwt>
<totfact> 0.10138623E+04</totfact>
</mgrwt>
</event>
<event>
 7    1  0.5206756E-006  0.1360459E+03  0.7546771E-02  0.1230858E+00
         -1   -1    0    0    0  501 -0.00000000000E+00  0.00000000000E+00  0.12474956986E+03  0.12474956986E+03  0.00000000000E+00 0.  1.
          1   -1    0    0  501    0  0.00000000000E+00 -0.00000000000E+00 -0.14834811509E+03  0.14834811509E+03  0.00000000000E+00 0. -1.
         23    2    1    2    0    0  0.31186358753E+02 -0.43718810645E+02 -0.75210306114E+02  0.15545119722E+03  0.12499824477E+03 0.  0.
          5    1    3    3  502    0  0.35673557398E+02  0.32729183838E+02 -0.91232471750E+00  0.48648992882E+02  0.47000000000E+01 0.  1.
         -5    1    3    3    0  502 -0.44871986443E+01 -0.76447994482E+02 -0.74297981396E+02  0.10680220434E+03  0.47000000000E+01 0.  1.
        -11    1    1    2    0    0  0.27227498753E+02  0.81671987303E+01 -0.50112595780E+01  0.28864381961E+02  0.00000000000E+00 0. -1.
         11    1    1    2    0    0 -0.58413857506E+02  0.35551611914E+02  0.56623020462E+02  0.88782105769E+02  0.00000000000E+00 0.  1.
<mgrwt>
<rscale>  0 0.12773336E+03</rscale>
<asrwt>0</asrwt>
<pdfrwt beam="2">  1        1 0.22822787E-01 0.13604589E+03</pdfrwt>
<pdfrwt beam="1">  1       -1 0.19192242E-01 0.13604589E+03</pdfrwt>
<totfact> 0.44465917E+03</totfact>
</mgrwt>
</event>
<event>
 7    1  0.5206756E-006  0.2097837E+03  0.7546771E-02  0.1145097E+00
          1   -1    0    0  501    0  0.00000000000E+00  0.00000000000E+00  0.12416806079E+03  0.12416806079E+03  0.00000000000E+00 0. -1.
         -1   -1    0    0    0  501 -0.00000000000E+00 -0.00000000000E+00 -0.33283121323E+03  0.33283121323E+03  0.00000000000E+00 0.  1.
         23    2    1    2    0    0 -0.11856618439E+03  0.11968715195E+03 -0.79671156430E+02  0.22440296193E+03  0.12500496682E+03 0.  0.
          5    1    3    3  502    0  0.14703746005E+02 -0.40770701872E+01 -0.32872792338E+02  0.36544946628E+02  0.47000000000E+01 0.  1.
         -5    1    3    3    0  502 -0.13326993040E+03  0.12376422214E+03 -0.46798364092E+02  0.18785801530E+03  0.47000000000E+01 0.  1.
        -11    1    1    2    0    0  0.53168381223E+02 -0.47824682631E+02 -0.51546043758E+00  0.71514632979E+02  0.00000000000E+00 0. -1.
         11    1    1    2    0    0  0.65397803171E+02 -0.71862469320E+02 -0.12847653557E+03  0.16108167912E+03  0.00000000000E+00 0.  1.
<mgrwt>
<rscale>  0 0.20560223E+03</rscale>
<asrwt>0</asrwt>
<pdfrwt beam="1">  1        1 0.19102779E-01 0.20978369E+03</pdfrwt>
<pdfrwt beam="2">  1       -1 0.51204802E-01 0.20978369E+03</pdfrwt>
<totfact> 0.10611718E+03</totfact>
</mgrwt>
</event>
<event>
 7    1  0.5206756E-006  0.1708058E+03  0.7546771E-02  0.1183328E+00
          2   -1    0    0  501    0  0.00000000000E+00  0.00000000000E+00  0.11977676526E+03  0.11977676526E+03  0.00000000000E+00 0. -1.
         -2   -1    0    0    0  501 -0.00000000000E+00 -0.00000000000E+00 -0.21820470736E+03  0.21820470736E+03  0.00000000000E+00 0.  1.
         23    2    1    2    0    0  0.10638354098E+03 -0.47224140888E+02 -0.80101561598E+02  0.18865546893E+03  0.12500819378E+03 0.  0.
          5    1    3    3  502    0  0.10932927084E+03 -0.75603324093E+02 -0.86992758349E+02  0.15892948776E+03  0.47000000000E+01 0.  1.
         -5    1    3    3    0  502 -0.29457298540E+01  0.28379183205E+02  0.68911967513E+01  0.29725981168E+02  0.47000000000E+01 0.  1.
        -11    1    1    2    0    0 -0.75450498491E+02 -0.14055488941E+02 -0.24089184653E+02  0.80440184667E+02  0.00000000000E+00 0.  1.
         11    1    1    2    0    0 -0.30933042490E+02  0.61279629829E+02  0.57628041519E+01  0.68885819015E+02  0.00000000000E+00 0. -1.
<mgrwt>
<rscale>  0 0.16484924E+03</rscale>
<asrwt>0</asrwt>
<pdfrwt beam="1">  1        2 0.18427195E-01 0.17080581E+03</pdfrwt>
<pdfrwt beam="2">  1       -2 0.33569955E-01 0.17080581E+03</pdfrwt>
<totfact> 0.24796887E+03</totfact>
</mgrwt>
</event>
<event>
 6    1  0.5206756E-006  0.1323658E+03  0.7546771E-02  0.1239344E+00
         -2   -1    0    0    0  501 -0.00000000000E+00  0.00000000000E+00  0.11807508399E+03  0.11807508399E+03  0.00000000000E+00 0.  1.
          2   -1    0    0  501    0  0.00000000000E+00 -0.00000000000E+00 -0.23505095929E+03  0.23505095929E+03  0.00000000000E+00 0. -1.
          5    1    1    2  502    0  0.55133658024E+02  0.11731256784E+02 -0.18203558969E+03  0.19062106008E+03  0.47000000000E+01 0. -1.
         -5    1    1    2    0  502 -0.31853829000E+02 -0.24417629994E+02 -0.83611599208E+01  0.41266040175E+02  0.47000000000E+01 0.  1.
        -11    1    1    2    0    0  0.28275936084E+02 -0.51540070906E+01  0.57702425924E+02  0.64464426687E+02  0.00000000000E+00 0. -1.
         11    1    1    2    0    0 -0.51555765108E+02  0.17840380301E+02  0.15718448384E+02  0.56774516332E+02  0.00000000000E+00 0.  1.
<mgrwt>
<rscale>  0 0.12230392E+03</rscale>
<asrwt>0</asrwt>
<pdfrwt beam="2">  1        2 0.36161686E-01 0.13236580E+03</pdfrwt>
<pdfrwt beam="1">  1       -2 0.18165398E-01 0.13236580E+03</pdfrwt>
<totfact> 0.34080244E+03</totfact>
</mgrwt>
</event>
<event>
 7    1  0.5206756E-006  0.1296918E+03  0.7546771E-02  0.1243095E+00
         -2   -1    0    0    0  501 -0.00000000000E+00  0.00000000000E+00  0.28813063145E+02  0.28813063145E+02  0.00000000000E+00 0.  1.
          2   -1    0    0  501    0  0.00000000000E+00 -0.00000000000E+00 -0.69654341675E+03  0.69654341675E+03  0.00000000000E+00 0. -1.
         23    2    1    2    0    0 -0.16871988920E+02 -0.24498207919E+02 -0.58541287902E+03  0.59960670168E+03  0.12623443102E+03 0.  0.
          5    1    3    3  502    0 -0.46289250754E+02  0.18987727801E+02 -0.47055783291E+03  0.47323354980E+03  0.47000000000E+01 0. -1.
         -5    1    3    3    0  502  0.29417261834E+02 -0.43485935720E+02 -0.11485504611E+03  0.12637315188E+03  0.47000000000E+01 0. -1.
        -11    1    1    2    0    0  0.41023980932E+02  0.24691843293E+02 -0.92146053357E+01  0.48760261363E+02  0.00000000000E+00 0.  1.
         11    1    1    2    0    0 -0.24151992012E+02 -0.19363537345E+00 -0.73102869252E+02  0.76989516856E+02  0.00000000000E+00 0. -1.
<mgrwt>
<rscale>  0 0.12000143E+03</rscale>
<asrwt>0</asrwt>
<pdfrwt beam="2">  1        2 0.10716053E+00 0.12969178E+03</pdfrwt>
<pdfrwt beam="1">  1       -2 0.44327789E-02 0.12969178E+03</pdfrwt>
<totfact> 0.94854927E+03</totfact>
</mgrwt>
</event>
<event>
 7    1  0.5206756E-006  0.1425493E+03  0.7546771E-02  0.1221094E+00
          3   -1    0    0  501    0  0.00000000000E+00  0.00000000000E+00  0.27549648241E+03  0.27549648241E+03  0.00000000000E+00 0.  1.
         -3   -1    0    0    0  501 -0.00000000000E+00 -0.00000000000E+00 -0.59468127063E+02  0.59468127063E+02  0.00000000000E+00 0. -1.
         23    2    1    2    0    0  0.67849179386E+02  0.10226858726E+02  0.13424067820E+03  0.19580826399E+03  0.12494885666E+03 0.  0.
          5    1    3    3  502    0  0.11455492449E+02  0.58659599938E+00  0.13774053598E+03  0.13829720769E+03  0.47000000000E+01 0. -1.
         -5    1    3    3    0  502  0.56393686937E+02  0.96402627261E+01 -0.34998577860E+01  0.57511056296E+02  0.47000000000E+01 0. -1.
        -11    1    1    2    0    0 -0.58373523343E+01  0.30620217598E+02  0.36858940945E+01  0.31388823222E+02  0.00000000000E+00 0. -1.
         11    1    1    2    0    0 -0.62011827052E+02 -0.40847076323E+02  0.78101783059E+02  0.10776752227E+03  0.00000000000E+00 0.  1.
<mgrwt>
<rscale>  0 0.13438276E+03</rscale>
<asrwt>0</asrwt>
<pdfrwt beam="1">  1        3 0.42384074E-01 0.14254935E+03</pdfrwt>
<pdfrwt beam="2">  1       -3 0.91489428E-02 0.14254935E+03</pdfrwt>
<totfact> 0.11020612E+03</totfact>
</mgrwt>
</event>
<event>
 7    1  0.5206756E-006  0.2650019E+03  0.7546771E-02  0.1106264E+00
         -1   -1    0    0    0  501 -0.00000000000E+00  0.00000000000E+00  0.36669107017E+03  0.36669107017E+03  0.00000000000E+00 0.  1.
          1   -1    0    0  501    0  0.00000000000E+00 -0.00000000000E+00 -0.18670657935E+03  0.18670657935E+03  0.00000000000E+00 0. -1.
         23    2    1    2    0    0 -0.23364243978E+03  0.38219417065E+01  0.46746117042E+02  0.26909329451E+03  0.12499041879E+03 0.  0.
          5    1    3    3  502    0 -0.22818057355E+03 -0.30120502666E+02  0.38178230840E+02  0.23335227904E+03  0.47000000000E+01 0.  1.
         -5    1    3    3    0  502 -0.54618662288E+01  0.33942444372E+02  0.85678862020E+01  0.35741015468E+02  0.47000000000E+01 0.  1.
        -11    1    1    2    0    0  0.13593889368E+03 -0.42532254552E+02  0.52599928444E+02  0.15183915162E+03  0.00000000000E+00 0.  1.
         11    1    1    2    0    0  0.97703546094E+02  0.38710312846E+02  0.80638445335E+02  0.13246520338E+03  0.00000000000E+00 0. -1.
<mgrwt>
<rscale>  0 0.26146898E+03</rscale>
<asrwt>0</asrwt>
<pdfrwt beam="2">  1        1 0.28724089E-01 0.26500189E+03</pdfrwt>
<pdfrwt beam="1">  1       -1 0.56414011E-01 0.26500189E+03</pdfrwt>
<totfact> 0.52577290E+02</totfact>
</mgrwt>
</event>
<event>
 7    1  0.5206756E-006  0.1312075E+03  0.7546771E-02  0.1237105E+00
          2   -1    0    0  501    0  0.00000000000E+00  0.00000000000E+00  0.23564319582E+03  0.23564319582E+03  0.00000000000E+00 0.  1.
         -2   -1    0    0    0  501 -0.00000000000E+00 -0.00000000000E+00 -0.58550489624E+02  0.58550489624E+02  0.00000000000E+00 0. -1.
         23    2    1    2    0    0 -0.16572250198E+02  0.36285773364E+02  0.10139430056E+03  0.16581981988E+03  0.12499644657E+03 0.  0.
          5    1    3    3  502    0 -0.62879983822E+02  0.27641300858E+02  0.96051872077E+02  0.11817777290E+03  0.47000000000E+01 0. -1.
         -5    1    3    3    0  502  0.46307733625E+02  0.86444725065E+01  0.53424284823E+01  0.47642046980E+02  0.47000000000E+01 0. -1.
        -11    1    1    2    0    0  0.37666809246E+02 -0.12001039623E+02 -0.65386150668E+01  0.40069526549E+02  0.00000000000E+00 0. -1.
         11    1    1    2    0    0 -0.21094559049E+02 -0.24284733741E+02  0.82237020705E+02  0.88304339014E+02  0.00000000000E+00 0.  1.
<mgrwt>
<rscale>  0 0.12370665E+03</rscale>
<asrwt>0</asrwt>
<pdfrwt beam="1">  1        2 0.36252799E-01 0.13120750E+03</pdfrwt>
<pdfrwt beam="2">  1       -2 0.90077677E-02 0.13120750E+03</pdfrwt>
<totfact> 0.10495067E+04</totfact>
</mgrwt>
</event>
<event>
 7    1  0.5206756E-006  0.2218995E+03  0.7546771E-02  0.1135987E+00
         -2   -1    0    0    0  501 -0.00000000000E+00  0.00000000000E+00  0.32281571905E+02  0.32281571905E+02  0.00000000000E+00 0. -1.
          2   -1    0    0  501    0  0.00000000000E+00 -0.00000000000E+00 -0.15053525625E+04  0.15053525625E+04  0.00000000000E+00 0.  1.
         23    2    1    2    0    0 -0.11562333170E+03 -0.14228586632E+03 -0.96644679843E+03  0.99159407074E+03  0.12500145734E+03 0.  0.
          5    1    3    3  502    0 -0.11603188541E+03 -0.12666059079E+03 -0.58292778859E+03  0.60772789997E+03  0.47000000000E+01 0. -1.
         -5    1    3    3    0  502  0.40855371162E+00 -0.15625275536E+02 -0.38351900984E+03  0.38386617077E+03  0.47000000000E+01 0. -1.
        -11    1    1    2    0    0  0.10715926196E+03  0.86106548012E+02 -0.27364314515E+03  0.30623196424E+03  0.00000000000E+00 0.  1.
         11    1    1    2    0    0  0.84640697363E+01  0.56179318311E+02 -0.23298104697E+03  0.23980809939E+03  0.00000000000E+00 0. -1.
<mgrwt>
<rscale>  0 0.21720127E+03</rscale>
<asrwt>0</asrwt>
<pdfrwt beam="2">  1        2 0.23159268E+00 0.22189950E+03</pdfrwt>
<pdfrwt beam="1">  1       -2 0.49663961E-02 0.22189950E+03</pdfrwt>
<totfact> 0.26807015E+03</totfact>
</mgrwt>
</event>
<event>
 7    1  0.5206756E-006  0.2555362E+03  0.7546771E-02  0.1112176E+00
         -2   -1    0    0    0  501 -0.00000000000E+00  0.00000000000E+00  0.18731108426E+03  0.18731108426E+03  0.00000000000E+00 0.  1.
          2   -1    0    0  501    0  0.00000000000E+00 -0.00000000000E+00 -0.33027421225E+03  0.33027421225E+03  0.00000000000E+00 0. -1.
         23    2    1    2    0    0  0.22222534609E+03 -0.17025906943E+02 -0.57055322404E+02  0.26182832291E+03  0.12499909965E+03 0.  0.
          5    1    3    3  502    0  0.21544924140E+03 -0.43133933644E+02 -0.27416000330E+02  0.22147830351E+03  0.47000000000E+01 0.  1.
         -5    1    3    3    0  502  0.67761046929E+01  0.26108026702E+02 -0.29639322073E+02  0.40350019406E+02  0.47000000000E+01 0.  1.
        -11    1    1    2    0    0 -0.90009273657E+02 -0.29810439423E+02 -0.76235053618E+01  0.95123338234E+02  0.00000000000E+00 0.  1.
         11    1    1    2    0    0 -0.13221607243E+03  0.46836346366E+02 -0.78284300224E+02  0.16063363537E+03  0.00000000000E+00 0. -1.
<mgrwt>
<rscale>  0 0.25179512E+03</rscale>
<asrwt>0</asrwt>
<pdfrwt beam="2">  1        2 0.50811417E-01 0.25553622E+03</pdfrwt>
<pdfrwt beam="1">  1       -2 0.28817090E-01 0.25553622E+03</pdfrwt>
<totfact> 0.10838406E+03</totfact>
</mgrwt>
</event>
<event>
 7    1  0.5206756E-006  0.4999625E+03  0.7546771E-02  0.1014253E+00
         -2   -1    0    0    0  501 -0.00000000000E+00  0.00000000000E+00  0.13438532343E+03  0.13438532343E+03  0.00000000000E+00 0.  1.
          2   -1    0    0  501    0  0.00000000000E+00 -0.00000000000E+00 -0.18891394463E+04  0.18891394463E+04  0.00000000000E+00 0. -1.
         23    2    1    2    0    0  0.47662377207E+03 -0.84663732005E+02 -0.10564519419E+04  0.11687827757E+04  0.12499721421E+03 0.  0.
          5    1    3    3  502    0  0.43335869454E+02 -0.36251697483E+02 -0.68649983390E+02  0.89034225841E+02  0.47000000000E+01 0. -1.
         -5    1    3    3    0  502  0.43328790261E+03 -0.48412034521E+02 -0.98780195851E+03  0.10797485498E+04  0.47000000000E+01 0. -1.
        -11    1    1    2    0    0 -0.32924978020E+03  0.74081113084E+02 -0.55078020235E+03  0.64595066404E+03  0.00000000000E+00 0.  1.
         11    1    1    2    0    0 -0.14737399187E+03  0.10582618921E+02 -0.14752197858E+03  0.20879132996E+03  0.00000000000E+00 0. -1.
<mgrwt>
<rscale>  0 0.49818935E+03</rscale>
<asrwt>0</asrwt>
<pdfrwt beam="2">  1        2 0.29063684E+00 0.49996247E+03</pdfrwt>
<pdfrwt beam="1">  1       -2 0.20674665E-01 0.49996247E+03</pdfrwt>
<totfact> 0.16290457E+02</totfact>
</mgrwt>
</event>
<event>
 7    1  0.5206756E-006  0.1518782E+03  0.7546771E-02  0.1208093E+00
          2   -1    0    0  501    0  0.00000000000E+00  0.00000000000E+00  0.48226693145E+03  0.48226693145E+03  0.00000000000E+00 0. -1.
         -2   -1    0    0    0  501 -0.00000000000E+00 -0.00000000000E+00 -0.47744636737E+02  0.47744636737E+02  0.00000000000E+00 0.  1.
         23    2    1    2    0    0  0.82067914843E+02  0.26524277900E+02  0.34873060166E+03  0.38036828243E+03  0.12501327042E+03 0.  0.
          5    1    3    3  502    0  0.77028838105E+02 -0.21057068528E+02  0.10531677484E+03  0.13225186236E+03  0.47000000000E+01 0. -1.
         -5    1    3    3    0  502  0.50390767378E+01  0.47581346427E+02  0.24341382682E+03  0.24811642007E+03  0.47000000000E+01 0. -1.
        -11    1    1    2    0    0 -0.32490147942E+02  0.17065173178E+02 -0.53690542058E+01  0.37089844863E+02  0.00000000000E+00 0.  1.
         11    1    1    2    0    0 -0.49577766900E+02 -0.43589451078E+02  0.91160747263E+02  0.11255344090E+03  0.00000000000E+00 0. -1.
<mgrwt>
<rscale>  0 0.14396337E+03</rscale>
<asrwt>0</asrwt>
<pdfrwt beam="1">  1        2 0.74194909E-01 0.15187823E+03</pdfrwt>
<pdfrwt beam="2">  1       -2 0.73453291E-02 0.15187823E+03</pdfrwt>
<totfact> 0.67625040E+03</totfact>
</mgrwt>
</event>
<event>
 7    1  0.5206756E-006  0.1483215E+03  0.7546771E-02  0.1211922E+00
          1   -1    0    0  501    0  0.00000000000E+00  0.00000000000E+00  0.22988519742E+03  0.22988519742E+03  0.00000000000E+00 0. -1.
         -1   -1    0    0    0  501 -0.00000000000E+00 -0.00000000000E+00 -0.93447998057E+02  0.93447998057E+02  0.00000000000E+00 0.  1.
         23    2    1    2    0    0  0.56930405595E+02 -0.55984316780E+02  0.13716329504E+03  0.20202237031E+03  0.12499581511E+03 0.  0.
          5    1    3    3  502    0 -0.17078041893E+02 -0.14134062283E+02  0.11049152417E+03  0.11279139216E+03  0.47000000000E+01 0. -1.
         -5    1    3    3    0  502  0.74008447488E+02 -0.41850254497E+02  0.26671770861E+02  0.89230978152E+02  0.47000000000E+01 0. -1.
        -11    1    1    2    0    0 -0.34085975454E+02  0.45419557979E+02  0.42746557163E+02  0.71077831417E+02  0.00000000000E+00 0. -1.
         11    1    1    2    0    0 -0.22844430141E+02  0.10564758801E+02 -0.43472652831E+02  0.50232993750E+02  0.00000000000E+00 0.  1.
<mgrwt>
<rscale>  0 0.14105096E+03</rscale>
<asrwt>0</asrwt>
<pdfrwt beam="1">  1        1 0.35366953E-01 0.14832150E+03</pdfrwt>
<pdfrwt beam="2">  1       -1 0.14376615E-01 0.14832150E+03</pdfrwt>
<totfact> 0.40818321E+03</totfact>
</mgrwt>
</event>
<event>
 7    1  0.5206756E-006  0.1512544E+03  0.7546771E-02  0.1207680E+00
         -1   -1    0    0    0  501 -0.00000000000E+00  0.00000000000E+00  0.34964949892E+02  0.34964949892E+02  0.00000000000E+00 0.  1.
          1   -1    0    0  501    0  0.00000000000E+00 -0.00000000000E+00 -0.63646088169E+03  0.63646088169E+03  0.00000000000E+00 0. -1.
         23    2    1    2    0    0 -0.85151589554E+02  0.12581040610E+01 -0.45071409848E+03  0.47541676919E+03  0.12500211930E+03 0.  0.
          5    1    3    3  502    0  0.29025928718E+02 -0.15788789885E+02 -0.13981066200E+03  0.14373900526E+03  0.47000000000E+01 0.  1.
         -5    1    3    3    0  502 -0.11417751827E+03  0.17046893946E+02 -0.31090343648E+03  0.33167776393E+03  0.47000000000E+01 0.  1.
        -11    1    1    2    0    0  0.37048678101E+02 -0.44347314905E+02 -0.92228222985E+02  0.10883627154E+03  0.00000000000E+00 0. -1.
         11    1    1    2    0    0  0.48102911453E+02  0.43089210844E+02 -0.58553610337E+02  0.87172790852E+02  0.00000000000E+00 0.  1.
<mgrwt>
<rscale>  0 0.14428280E+03</rscale>
<asrwt>0</asrwt>
<pdfrwt beam="2">  1        1 0.97917052E-01 0.15125444E+03</pdfrwt>
<pdfrwt beam="1">  1       -1 0.53792235E-02 0.15125444E+03</pdfrwt>
<totfact> 0.49626276E+03</totfact>
</mgrwt>
</event>
<event>
 7    1  0.5206756E-006  0.1297863E+03  0.7546771E-02  0.1242199E+00
         -1   -1    0    0    0  501 -0.00000000000E+00  0.00000000000E+00  0.21834695445E+02  0.21834695445E+02  0.00000000000E+00 0.  1.
          1   -1    0    0  501    0  0.00000000000E+00 -0.00000000000E+00 -0.66518006983E+03  0.66518006983E+03  0.00000000000E+00 0. -1.
         23    2    1    2    0    0 -0.24311176534E+02  0.25170821255E+02 -0.48011464663E+03  0.49734753167E+03  0.12497955754E+03 0.  0.
          5    1    3    3  502    0  0.46185308693E+02  0.13220193864E+02 -0.29360471823E+03  0.29754609194E+03  0.47000000000E+01 0. -1.
         -5    1    3    3    0  502 -0.70496485227E+02  0.11950627391E+02 -0.18650992841E+03  0.19980143973E+03  0.47000000000E+01 0. -1.
        -11    1    1    2    0    0  0.28487924678E+02 -0.12385538251E+02 -0.17122539583E+03  0.17402039992E+03  0.00000000000E+00 0. -1.
         11    1    1    2    0    0 -0.41767481436E+01 -0.12785283004E+02  0.79946680812E+01  0.15646833682E+02  0.00000000000E+00 0.  1.
<mgrwt>
<rscale>  0 0.12054616E+03</rscale>
<asrwt>0</asrwt>
<pdfrwt beam="2">  1        1 0.10233538E+00 0.12978634E+03</pdfrwt>
<pdfrwt beam="1">  1       -1 0.33591846E-02 0.12978634E+03</pdfrwt>
<totfact> 0.92556380E+03</totfact>
</mgrwt>
</event>
<event>
 7    1  0.5206756E-006  0.2075624E+03  0.7546771E-02  0.1147104E+00
         -1   -1    0    0    0  501 -0.00000000000E+00  0.00000000000E+00  0.22365672283E+02  0.22365672283E+02  0.00000000000E+00 0.  1.
          1   -1    0    0  501    0  0.00000000000E+00 -0.00000000000E+00 -0.17929458249E+04  0.17929458249E+04  0.00000000000E+00 0. -1.
         23    2    1    2    0    0  0.14507562591E+03 -0.80069311598E+02 -0.10230493609E+04  0.10438927926E+04  0.12499654223E+03 0.  0.
          5    1    3    3  502    0  0.31597996977E+02 -0.29251188643E+02 -0.67008054791E+02  0.79788688778E+02  0.47000000000E+01 0. -1.
         -5    1    3    3    0  502  0.11347762893E+03 -0.50818122955E+02 -0.95604130614E+03  0.96410410379E+03  0.47000000000E+01 0. -1.
        -11    1    1    2    0    0 -0.33189662342E+02  0.70627193849E+02 -0.32238782975E+03  0.33169815641E+03  0.00000000000E+00 0. -1.
         11    1    1    2    0    0 -0.11188596357E+03  0.94421177493E+01 -0.42514296191E+03  0.43972054818E+03  0.00000000000E+00 0.  1.
<mgrwt>
<rscale>  0 0.20315465E+03</rscale>
<asrwt>0</asrwt>
<pdfrwt beam="2">  1        1 0.27583797E+00 0.20756244E+03</pdfrwt>
<pdfrwt beam="1">  1       -1 0.34408708E-02 0.20756244E+03</pdfrwt>
<totfact> 0.14198458E+03</totfact>
</mgrwt>
</event>
<event>
 7    1  0.5206756E-006  0.1524152E+03  0.7546771E-02  0.1203982E+00
         -2   -1    0    0    0  501 -0.00000000000E+00  0.00000000000E+00  0.47290502195E+02  0.47290502195E+02  0.00000000000E+00 0.  1.
          2   -1    0    0  501    0  0.00000000000E+00 -0.00000000000E+00 -0.43994582804E+03  0.43994582804E+03  0.00000000000E+00 0. -1.
         23    2    1    2    0    0 -0.60100286043E+02 -0.67831122866E+02 -0.17174954123E+03  0.22962644155E+03  0.12254506164E+03 0.  0.
          5    1    3    3  502    0 -0.31842655108E+02 -0.25948741431E+02 -0.17399047422E+03  0.17883530688E+03  0.47000000000E+01 0. -1.
         -5    1    3    3    0  502 -0.28257630935E+02 -0.41882381435E+02  0.22409329878E+01  0.50791134673E+02  0.47000000000E+01 0.  1.
        -11    1    1    2    0    0 -0.23309131188E+02  0.98180918538E+01 -0.19178724102E+02  0.31741675799E+02  0.00000000000E+00 0.  1.
         11    1    1    2    0    0  0.83409417231E+02  0.58013031012E+02 -0.20172706051E+03  0.22586821289E+03  0.00000000000E+00 0. -1.
<mgrwt>
<rscale>  0 0.14717959E+03</rscale>
<asrwt>0</asrwt>
<pdfrwt beam="2">  1        2 0.67683975E-01 0.15241521E+03</pdfrwt>
<pdfrwt beam="1">  1       -2 0.72754617E-02 0.15241521E+03</pdfrwt>
<totfact> 0.75866860E+03</totfact>
</mgrwt>
</event>
<event>
 6    1  0.5206756E-006  0.1888658E+03  0.7546771E-02  0.1188244E+00
          2   -1    0    0  501    0  0.00000000000E+00  0.00000000000E+00  0.31203367629E+03  0.31203367629E+03  0.00000000000E+00 0. -1.
         -2   -1    0    0    0  501 -0.00000000000E+00 -0.00000000000E+00 -0.66453344341E+02  0.66453344341E+02  0.00000000000E+00 0.  1.
          5    1    1    2  502    0 -0.32419658016E+02 -0.59718225996E+02  0.15171232631E+03  0.16630099427E+03  0.47000000000E+01 0. -1.
         -5    1    1    2    0  502  0.70248489581E+02  0.53243236952E+02  0.23555847031E+02  0.91360059648E+02  0.47000000000E+01 0.  1.
        -11    1    1    2    0    0 -0.67039206606E+02  0.53823086097E+00  0.38844185742E+02  0.77481711911E+02  0.00000000000E+00 0. -1.
         11    1    1    2    0    0  0.29210375041E+02  0.59367581832E+01  0.31467972870E+02  0.43344254801E+02  0.00000000000E+00 0.  1.
<mgrwt>
<rscale>  0 0.16040195E+03</rscale>
<asrwt>0</asrwt>
<pdfrwt beam="1">  1        2 0.48005180E-01 0.18886579E+03</pdfrwt>
<pdfrwt beam="2">  1       -2 0.10223592E-01 0.18886579E+03</pdfrwt>
<totfact> 0.65318373E+03</totfact>
</mgrwt>
</event>
<event>
 7    1  0.5206756E-006  0.1262795E+03  0.7546771E-02  0.1249304E+00
         -2   -1    0    0    0  501 -0.00000000000E+00  0.00000000000E+00  0.17708533663E+03  0.17708533663E+03  0.00000000000E+00 0.  1.
          2   -1    0    0  501    0  0.00000000000E+00 -0.00000000000E+00 -0.72885410588E+02  0.72885410588E+02  0.00000000000E+00 0. -1.
         23    2    1    2    0    0 -0.17291503312E+02 -0.47301965408E+01  0.23555131202E+02  0.12845760299E+03  0.12500056285E+03 0.  0.
          5    1    3    3  502    0 -0.71050418757E+02 -0.23561215209E+00  0.56779227109E+01  0.71432109901E+02  0.47000000000E+01 0.  1.
         -5    1    3    3    0  502  0.53758915445E+02 -0.44945843887E+01  0.17877208491E+02  0.57025493089E+02  0.47000000000E+01 0.  1.
        -11    1    1    2    0    0 -0.53239592256E+01 -0.40221026192E+02  0.35488864800E+02  0.53903014893E+02  0.00000000000E+00 0.  1.
         11    1    1    2    0    0  0.22615462538E+02  0.44951222733E+02  0.45155930043E+02  0.67610129337E+02  0.00000000000E+00 0. -1.
<mgrwt>
<rscale>  0 0.11631464E+03</rscale>
<asrwt>0</asrwt>
<pdfrwt beam="2">  1        2 0.11213140E-01 0.12627950E+03</pdfrwt>
<pdfrwt beam="1">  1       -2 0.27243898E-01 0.12627950E+03</pdfrwt>
<totfact> 0.63752085E+03</totfact>
</mgrwt>
</event>
<event>
 7    1  0.5206756E-006  0.3552484E+03  0.7546771E-02  0.1061612E+00
         -2   -1    0    0    0  501 -0.00000000000E+00  0.00000000000E+00  0.32194765654E+03  0.32194765654E+03  0.00000000000E+00 0.  1.
          2   -1    0    0  501    0  0.00000000000E+00 -0.00000000000E+00 -0.50955377110E+03  0.50955377110E+03  0.00000000000E+00 0. -1.
         23    2    1    2    0    0  0.33231824415E+03  0.11779780087E+02 -0.30460218581E+03  0.46795718005E+03  0.12500900829E+03 0.  0.
          5    1    3    3  502    0  0.17946921786E+03 -0.53938557852E+02 -0.14096773746E+03  0.23454756700E+03  0.47000000000E+01 0. -1.
         -5    1    3    3    0  502  0.15284902628E+03  0.65718337938E+02 -0.16363444835E+03  0.23340961305E+03  0.47000000000E+01 0. -1.
        -11    1    1    2    0    0 -0.69767866215E+02 -0.25304434021E+02  0.57790046792E+02  0.94061464190E+02  0.00000000000E+00 0.  1.
         11    1    1    2    0    0 -0.26255037793E+03  0.13524653934E+02  0.59206024452E+02  0.26948278340E+03  0.00000000000E+00 0. -1.
<mgrwt>
<rscale>  0 0.35245450E+03</rscale>
<asrwt>0</asrwt>
<pdfrwt beam="2">  1        2 0.78392888E-01 0.35524841E+03</pdfrwt>
<pdfrwt beam="1">  1       -2 0.49530408E-01 0.35524841E+03</pdfrwt>
<totfact> 0.23905213E+02</totfact>
</mgrwt>
</event>
<event>
 6    1  0.5206756E-006  0.2163375E+03  0.7546771E-02  0.1166893E+00
          4   -1    0    0  501    0  0.00000000000E+00  0.00000000000E+00  0.19035841062E+03  0.19035841062E+03  0.00000000000E+00 0. -1.
         -4   -1    0    0    0  501 -0.00000000000E+00 -0.00000000000E+00 -0.13646869014E+03  0.13646869014E+03  0.00000000000E+00 0.  1.
          5    1    1    2  502    0  0.94875427821E+02  0.31009096811E+02  0.64170713623E+02  0.11875555303E+03  0.47000000000E+01 0. -1.
         -5    1    1    2    0  502 -0.64416573070E+02 -0.74578348848E+02 -0.23387044114E+02  0.10139264685E+03  0.47000000000E+01 0.  1.
        -11    1    1    2    0    0  0.27580724058E+02 -0.71890785493E+01  0.20366445984E+00  0.28502994039E+02  0.00000000000E+00 0. -1.
         11    1    1    2    0    0 -0.58039578809E+02  0.50758330586E+02  0.12902386507E+02  0.78175906837E+02  0.00000000000E+00 0.  1.
<mgrwt>
<rscale>  0 0.18094346E+03</rscale>
<asrwt>0</asrwt>
<pdfrwt beam="1">  1        4 0.29285909E-01 0.21633752E+03</pdfrwt>
<pdfrwt beam="2">  1       -4 0.20995183E-01 0.21633752E+03</pdfrwt>
<totfact> 0.41415221E+02</totfact>
</mgrwt>
</event>
<event>
 7    1  0.5206756E-006  0.1407325E+03  0.7546771E-02  0.1217914E+00
         -1   -1    0    0    0  501 -0.00000000000E+00  0.00000000000E+00  0.13751315040E+02  0.13751315040E+02  0.00000000000E+00 0.  1.
          1   -1    0    0  501    0  0.00000000000E+00 -0.00000000000E+00 -0.15636982683E+04  0.15636982683E+04  0.00000000000E+00 0. -1.
         23    2    1    2    0    0  0.36043440495E+02 -0.53682667243E+02 -0.11451825845E+04  0.11537975544E+04  0.12499874515E+03 0.  0.
          5    1    3    3  502    0  0.18611012626E+02  0.36683757333E+02 -0.20698985618E+03  0.21108992966E+03  0.47000000000E+01 0.  1.
         -5    1    3    3    0  502  0.17432427870E+02 -0.90366424576E+02 -0.93819272833E+03  0.94270762473E+03  0.47000000000E+01 0.  1.
        -11    1    1    2    0    0  0.23378497938E+02  0.81064014509E+01 -0.20425706949E+02  0.32085470461E+02  0.00000000000E+00 0.  1.
         11    1    1    2    0    0 -0.59421938434E+02  0.45576265792E+02 -0.38433866177E+03  0.39156655846E+03  0.00000000000E+00 0. -1.
<mgrwt>
<rscale>  0 0.13664672E+03</rscale>
<asrwt>0</asrwt>
<pdfrwt beam="2">  1        1 0.24056891E+00 0.14073253E+03</pdfrwt>
<pdfrwt beam="1">  1       -1 0.21155874E-02 0.14073253E+03</pdfrwt>
<totfact> 0.40527062E+03</totfact>
</mgrwt>
</event>
<event>
 7    1  0.5206756E-006  0.1377122E+03  0.7546771E-02  0.1228054E+00
         -1   -1    0    0    0  501 -0.00000000000E+00  0.00000000000E+00  0.94136791592E+02  0.94136791592E+02  0.00000000000E+00 0.  1.
          1   -1    0    0  501    0  0.00000000000E+00 -0.00000000000E+00 -0.16811212479E+03  0.16811212479E+03  0.00000000000E+00 0. -1.
         23    2    1    2    0    0  0.22135991833E+01  0.57747535634E+02 -0.69223519250E+02  0.15413155339E+03  0.12499984896E+03 0.  0.
          5    1    3    3  502    0 -0.19981791351E+02  0.84277180737E+02 -0.12654843904E+02  0.87659285035E+02  0.47000000000E+01 0.  1.
         -5    1    3    3    0  502  0.22195390534E+02 -0.26529645103E+02 -0.56568675346E+02  0.66472268358E+02  0.47000000000E+01 0.  1.
        -11    1    1    2    0    0 -0.19307711900E+02 -0.61083789434E+01  0.35211875271E+02  0.40619898969E+02  0.00000000000E+00 0.  1.
         11    1    1    2    0    0  0.17094112717E+02 -0.51639156691E+02 -0.39963689222E+02  0.67497464023E+02  0.00000000000E+00 0. -1.
<mgrwt>
<rscale>  0 0.12959795E+03</rscale>
<asrwt>0</asrwt>
<pdfrwt beam="2">  1        1 0.25863403E-01 0.13771216E+03</pdfrwt>
<pdfrwt beam="1">  1       -1 0.14482584E-01 0.13771216E+03</pdfrwt>
<totfact> 0.59338798E+03</totfact>
</mgrwt>
</event>
<event>
 7    1  0.5206756E-006  0.1814654E+03  0.7546771E-02  0.1171985E+00
          1   -1    0    0  501    0  0.00000000000E+00  0.00000000000E+00  0.74641140065E+03  0.74641140065E+03  0.00000000000E+00 0. -1.
         -1   -1    0    0    0  501 -0.00000000000E+00 -0.00000000000E+00 -0.41039955966E+02  0.41039955966E+02  0.00000000000E+00 0.  1.
         23    2    1    2    0    0  0.10762631054E+03 -0.75644264290E+02  0.46232136460E+03  0.49665957102E+03  0.12499683147E+03 0.  0.
          5    1    3    3  502    0  0.99126904170E+02 -0.76588399200E+02  0.46858587914E+03  0.48506364752E+03  0.47000000000E+01 0. -1.
         -5    1    3    3    0  502  0.84994063713E+01  0.94413491022E+00 -0.62645145346E+01  0.11595923497E+02  0.47000000000E+01 0. -1.
        -11    1    1    2    0    0 -0.20548610565E+02  0.50583276090E+02  0.37730316357E+02  0.66366331740E+02  0.00000000000E+00 0.  1.
         11    1    1    2    0    0 -0.87077699977E+02  0.25060988199E+02  0.20531976373E+03  0.22442545386E+03  0.00000000000E+00 0. -1.
<mgrwt>
<rscale>  0 0.17574548E+03</rscale>
<asrwt>0</asrwt>
<pdfrwt beam="1">  1        1 0.11483251E+00 0.18146538E+03</pdfrwt>
<pdfrwt beam="2">  1       -1 0.63138399E-02 0.18146538E+03</pdfrwt>
<totfact> 0.31291219E+03</totfact>
</mgrwt>
</event>
<event>
 7    1  0.5206756E-006  0.1448269E+03  0.7546771E-02  0.1218153E+00
         -2   -1    0    0    0  501 -0.00000000000E+00  0.00000000000E+00  0.15802105163E+03  0.15802105163E+03  0.00000000000E+00 0.  1.
          2   -1    0    0  501    0  0.00000000000E+00 -0.00000000000E+00 -0.11245712915E+03  0.11245712915E+03  0.00000000000E+00 0. -1.
         23    2    1    2    0    0  0.57615632415E+02 -0.45056606315E+02 -0.64991115122E+01  0.14497261321E+03  0.12500064503E+03 0.  0.
          5    1    3    3  502    0 -0.19291064379E+02  0.30516005558E+02 -0.68535618654E+01  0.37046363794E+02  0.47000000000E+01 0. -1.
         -5    1    3    3    0  502  0.76906696794E+02 -0.75572611873E+02  0.35445035317E+00  0.10792624941E+03  0.47000000000E+01 0. -1.
        -11    1    1    2    0    0 -0.38894221531E+02  0.59502751959E+02  0.66877780927E+02  0.97601104199E+02  0.00000000000E+00 0. -1.
         11    1    1    2    0    0 -0.18721410884E+02 -0.14446145644E+02 -0.14814746940E+02  0.27904463377E+02  0.00000000000E+00 0.  1.
<mgrwt>
<rscale>  0 0.13647436E+03</rscale>
<asrwt>0</asrwt>
<pdfrwt beam="2">  1        2 0.17301097E-01 0.14482686E+03</pdfrwt>
<pdfrwt beam="1">  1       -2 0.24310931E-01 0.14482686E+03</pdfrwt>
<totfact> 0.47091315E+03</totfact>
</mgrwt>
</event>
<event>
 7    1  0.5206756E-006  0.1528624E+03  0.7546771E-02  0.1205562E+00
          2   -1    0    0  501    0  0.00000000000E+00  0.00000000000E+00  0.41263228449E+03  0.41263228449E+03  0.00000000000E+00 0. -1.
         -2   -1    0    0    0  501 -0.00000000000E+00 -0.00000000000E+00 -0.47871350183E+02  0.47871350183E+02  0.00000000000E+00 0.  1.
         23    2    1    2    0    0 -0.19398726188E+02  0.85821045205E+02  0.22076938762E+03  0.26852566480E+03  0.12500139107E+03 0.  0.
          5    1    3    3  502    0  0.25033816392E+02  0.33172821051E+02  0.18707189083E+03  0.19169014152E+03  0.47000000000E+01 0. -1.
         -5    1    3    3    0  502 -0.44432542580E+02  0.52648224154E+02  0.33697496787E+02  0.76835523272E+02  0.47000000000E+01 0. -1.
        -11    1    1    2    0    0 -0.18583746645E+02  0.53436031487E+01  0.26012337255E+01  0.19510923886E+02  0.00000000000E+00 0.  1.
         11    1    1    2    0    0  0.37982472833E+02 -0.91164648353E+02  0.14139031297E+03  0.17246704599E+03  0.00000000000E+00 0. -1.
<mgrwt>
<rscale>  0 0.14593275E+03</rscale>
<asrwt>0</asrwt>
<pdfrwt beam="1">  1        2 0.63481888E-01 0.15286239E+03</pdfrwt>
<pdfrwt beam="2">  1       -2 0.73648234E-02 0.15286239E+03</pdfrwt>
<totfact> 0.79803740E+03</totfact>
</mgrwt>
</event>
<event>
 7    1  0.5206756E-006  0.1714818E+03  0.7546771E-02  0.1182570E+00
          1   -1    0    0  501    0  0.00000000000E+00  0.00000000000E+00  0.33643704015E+03  0.33643704015E+03  0.00000000000E+00 0. -1.
         -1   -1    0    0    0  501 -0.00000000000E+00 -0.00000000000E+00 -0.94796127037E+02  0.94796127037E+02  0.00000000000E+00 0.  1.
         23    2    1    2    0    0  0.10244536948E+03 -0.57319008317E+02  0.22270718899E+03  0.28107737197E+03  0.12500189824E+03 0.  0.
          5    1    3    3  502    0  0.55205139232E+01 -0.68853722481E+02  0.12497122276E+03  0.14286779795E+03  0.47000000000E+01 0.  1.
         -5    1    3    3    0  502  0.96924855555E+02  0.11534714164E+02  0.97735966228E+02  0.13820957402E+03  0.47000000000E+01 0.  1.
        -11    1    1    2    0    0 -0.92918246879E+01  0.38573601392E+02 -0.23474215081E+02  0.46100970749E+02  0.00000000000E+00 0.  1.
         11    1    1    2    0    0 -0.93153544790E+02  0.18745406925E+02  0.42407939205E+02  0.10405482447E+03  0.00000000000E+00 0. -1.
<mgrwt>
<rscale>  0 0.16554990E+03</rscale>
<asrwt>0</asrwt>
<pdfrwt beam="1">  1        1 0.51759544E-01 0.17148177E+03</pdfrwt>
<pdfrwt beam="2">  1       -1 0.14584020E-01 0.17148177E+03</pdfrwt>
<totfact> 0.25007121E+03</totfact>
</mgrwt>
</event>
<event>
 7    1  0.5206756E-006  0.2063845E+03  0.7546771E-02  0.1148467E+00
          2   -1    0    0  501    0  0.00000000000E+00  0.00000000000E+00  0.75913005174E+02  0.75913005174E+02  0.00000000000E+00 0. -1.
         -2   -1    0    0    0  501 -0.00000000000E+00 -0.00000000000E+00 -0.55279436571E+03  0.55279436571E+03  0.00000000000E+00 0.  1.
         23    2    1    2    0    0  0.15490176356E+02 -0.16348572750E+03 -0.16277118199E+03  0.26284791186E+03  0.12500815342E+03 0.  0.
          5    1    3    3  502    0 -0.64856126288E+01  0.15886848751E+02 -0.41530576057E+02  0.45181123072E+02  0.47000000000E+01 0. -1.
         -5    1    3    3    0  502  0.21975788985E+02 -0.17937257625E+03 -0.12124060594E+03  0.21766678879E+03  0.47000000000E+01 0. -1.
        -11    1    1    2    0    0 -0.35476504597E+02  0.29032592222E+02 -0.12359706338E+03  0.13182453438E+03  0.00000000000E+00 0.  1.
         11    1    1    2    0    0  0.19986328241E+02  0.13445313528E+03 -0.19051311516E+03  0.23403492464E+03  0.00000000000E+00 0. -1.
<mgrwt>
<rscale>  0 0.20151485E+03</rscale>
<asrwt>0</asrwt>
<pdfrwt beam="1">  1        2 0.11678924E-01 0.20638451E+03</pdfrwt>
<pdfrwt beam="2">  1       -2 0.85045289E-01 0.20638451E+03</pdfrwt>
<totfact> 0.65289436E+02</totfact>
</mgrwt>
</event>
<event>
 7    1  0.5206756E-006  0.1373691E+03  0.7546771E-02  0.1228321E+00
         -2   -1    0    0    0  501 -0.00000000000E+00  0.00000000000E+00  0.11335841808E+02  0.11335841808E+02  0.00000000000E+00 0.  1.
          2   -1    0    0  501    0  0.00000000000E+00 -0.00000000000E+00 -0.13321852881E+04  0.13321852881E+04  0.00000000000E+00 0. -1.
         23    2    1    2    0    0 -0.42033066293E+02  0.38448841834E+02 -0.76451017329E+03  0.77675354014E+03  0.12500065983E+03 0.  0.
          5    1    3    3  502    0 -0.69872936265E+02  0.11853547955E+02 -0.22715837758E+03  0.23800368133E+03  0.47000000000E+01 0. -1.
         -5    1    3    3    0  502  0.27839869972E+02  0.26595293879E+02 -0.53735179571E+03  0.53874985881E+03  0.47000000000E+01 0. -1.
        -11    1    1    2    0    0 -0.19198742411E+02 -0.41974016368E+02 -0.27202439294E+03  0.27591245009E+03  0.00000000000E+00 0.  1.
         11    1    1    2    0    0  0.61231808704E+02  0.35251745348E+01 -0.28431488010E+03  0.29085513972E+03  0.00000000000E+00 0. -1.
<mgrwt>
<rscale>  0 0.12941842E+03</rscale>
<asrwt>0</asrwt>
<pdfrwt beam="2">  1        2 0.20495149E+00 0.13736905E+03</pdfrwt>
<pdfrwt beam="1">  1       -2 0.17439764E-02 0.13736905E+03</pdfrwt>
<totfact> 0.15382099E+04</totfact>
</mgrwt>
</event>
<event>
 7    1  0.5206756E-006  0.1322665E+03  0.7546771E-02  0.1236831E+00
          1   -1    0    0  501    0  0.00000000000E+00  0.00000000000E+00  0.86277377416E+02  0.86277377416E+02  0.00000000000E+00 0. -1.
         -1   -1    0    0    0  501 -0.00000000000E+00 -0.00000000000E+00 -0.15920911386E+03  0.15920911386E+03  0.00000000000E+00 0.  1.
         23    2    1    2    0    0  0.40567007926E+01  0.43063131617E+02 -0.34458285826E+02  0.13668134097E+03  0.12499410139E+03 0.  0.
          5    1    3    3  502    0  0.24968420979E+02  0.12921260355E+02 -0.75935513122E+02  0.81109020266E+02  0.47000000000E+01 0. -1.
         -5    1    3    3    0  502 -0.20911720186E+02  0.30141871262E+02  0.41477227296E+02  0.55572320704E+02  0.47000000000E+01 0. -1.
        -11    1    1    2    0    0  0.96233587063E+01  0.15375872789E+02  0.18601212925E+02  0.25981370616E+02  0.00000000000E+00 0. -1.
         11    1    1    2    0    0 -0.13680059499E+02 -0.58439004406E+02 -0.57074663546E+02  0.82823779694E+02  0.00000000000E+00 0.  1.
<mgrwt>
<rscale>  0 0.12387927E+03</rscale>
<asrwt>0</asrwt>
<pdfrwt beam="1">  1        1 0.13273443E-01 0.13226646E+03</pdfrwt>
<pdfrwt beam="2">  1       -1 0.24493709E-01 0.13226646E+03</pdfrwt>
<totfact> 0.59925775E+03</totfact>
</mgrwt>
</event>
<event>
 7    1  0.5206756E-006  0.1275323E+03  0.7546771E-02  0.1246741E+00
          2   -1    0    0  501    0  0.00000000000E+00  0.00000000000E+00  0.64318277008E+03  0.64318277008E+03  0.00000000000E+00 0. -1.
         -2   -1    0    0    0  501 -0.00000000000E+00 -0.00000000000E+00 -0.24805117210E+02  0.24805117210E+02  0.00000000000E+00 0.  1.
         23    2    1    2    0    0  0.25240717104E+02 -0.68290140474E+00  0.50779889496E+03  0.52356872332E+03  0.12500772040E+03 0.  0.
          5    1    3    3  502    0  0.68978119633E+02 -0.27144860818E+02  0.34341498944E+03  0.35135561676E+03  0.47000000000E+01 0. -1.
         -5    1    3    3    0  502 -0.43737402528E+02  0.26461959413E+02  0.16438390551E+03  0.17221310655E+03  0.47000000000E+01 0. -1.
        -11    1    1    2    0    0 -0.17238114745E+02 -0.28150115031E+02  0.34485347202E+01  0.33188461367E+02  0.00000000000E+00 0.  1.
         11    1    1    2    0    0 -0.80026023595E+01  0.28833016435E+02  0.10713022319E+03  0.11123070261E+03  0.00000000000E+00 0. -1.
<mgrwt>
<rscale>  0 0.11781801E+03</rscale>
<asrwt>0</asrwt>
<pdfrwt beam="1">  1        2 0.98951183E-01 0.12753231E+03</pdfrwt>
<pdfrwt beam="2">  1       -2 0.38161724E-02 0.12753231E+03</pdfrwt>
<totfact> 0.12991617E+04</totfact>
</mgrwt>
</event>
<event>
 7    1  0.5206756E-006  0.1281505E+03  0.7546771E-02  0.1255419E+00
         -2   -1    0    0    0  501 -0.00000000000E+00  0.00000000000E+00  0.71070373616E+02  0.71070373616E+02  0.00000000000E+00 0.  1.
          2   -1    0    0  501    0  0.00000000000E+00 -0.00000000000E+00 -0.16286790753E+03  0.16286790753E+03  0.00000000000E+00 0. -1.
         23    2    1    2    0    0  0.17234097341E+02 -0.53721265201E+02 -0.90567601344E+02  0.15692368441E+03  0.11506330375E+03 0.  0.
          5    1    3    3  502    0  0.14990948926E+02 -0.73155345815E+02 -0.10726113238E+03  0.13078024962E+03  0.47000000000E+01 0. -1.
         -5    1    3    3    0  502  0.22431484155E+01  0.19434080615E+02  0.16693531035E+02  0.26143434789E+02  0.47000000000E+01 0.  1.
        -11    1    1    2    0    0 -0.11535462504E+02 -0.31724771981E+01 -0.14012248454E+02  0.18424836865E+02  0.00000000000E+00 0. -1.
         11    1    1    2    0    0 -0.56986348376E+01  0.56893742399E+02  0.12782315881E+02  0.58589759877E+02  0.00000000000E+00 0.  1.
<mgrwt>
<rscale>  0 0.11282872E+03</rscale>
<asrwt>0</asrwt>
<pdfrwt beam="2">  1        2 0.25056601E-01 0.12815051E+03</pdfrwt>
<pdfrwt beam="1">  1       -2 0.10933904E-01 0.12815051E+03</pdfrwt>
<totfact> 0.11527654E+04</totfact>
</mgrwt>
</event>
<event>
 7    1  0.5206756E-006  0.1301896E+03  0.7546771E-02  0.1241085E+00
          2   -1    0    0  501    0  0.00000000000E+00  0.00000000000E+00  0.18018338852E+03  0.18018338852E+03  0.00000000000E+00 0. -1.
         -2   -1    0    0    0  501 -0.00000000000E+00 -0.00000000000E+00 -0.90546386305E+02  0.90546386305E+02  0.00000000000E+00 0.  1.
         23    2    1    2    0    0  0.68990821941E+01 -0.35772478292E+02  0.11037404414E+03  0.17068028598E+03  0.12498825090E+03 0.  0.
          5    1    3    3  502    0 -0.27811738538E+02 -0.49335184272E+02  0.29801581746E+01  0.56907157287E+02  0.47000000000E+01 0.  1.
         -5    1    3    3    0  502  0.34710820732E+02  0.13562705981E+02  0.10739388597E+03  0.11377312870E+03  0.47000000000E+01 0.  1.
        -11    1    1    2    0    0  0.41450499213E+02  0.17361738184E+02 -0.18638282462E+01  0.44978302475E+02  0.00000000000E+00 0. -1.
         11    1    1    2    0    0 -0.48349581407E+02  0.18410740108E+02 -0.18873213682E+02  0.55071186371E+02  0.00000000000E+00 0.  1.
<mgrwt>
<rscale>  0 0.12122779E+03</rscale>
<asrwt>0</asrwt>
<pdfrwt beam="1">  1        2 0.27720521E-01 0.13018959E+03</pdfrwt>
<pdfrwt beam="2">  1       -2 0.13930213E-01 0.13018959E+03</pdfrwt>
<totfact> 0.70142202E+03</totfact>
</mgrwt>
</event>
<event>
 7    1  0.5206756E-006  0.1827488E+03  0.7546771E-02  0.1172588E+00
         -2   -1    0    0    0  501 -0.00000000000E+00  0.00000000000E+00  0.52671130127E+02  0.52671130127E+02  0.00000000000E+00 0.  1.
          2   -1    0    0  501    0  0.00000000000E+00 -0.00000000000E+00 -0.54508972220E+03  0.54508972220E+03  0.00000000000E+00 0. -1.
         23    2    1    2    0    0  0.12934847952E+03 -0.32260055232E+02 -0.29885598142E+03  0.35030277763E+03  0.12500159226E+03 0.  0.
          5    1    3    3  502    0  0.25635160866E+02 -0.64122283134E+01  0.57544385467E+01  0.27449621265E+02  0.47000000000E+01 0.  1.
         -5    1    3    3    0  502  0.10371331865E+03 -0.25847826918E+02 -0.30461041996E+03  0.32285315636E+03  0.47000000000E+01 0.  1.
        -11    1    1    2    0    0 -0.40214054738E+02  0.14545993412E+02 -0.11990204361E+02  0.44413073790E+02  0.00000000000E+00 0.  1.
         11    1    1    2    0    0 -0.89134424781E+02  0.17714061819E+02 -0.18157240630E+03  0.20304500091E+03  0.00000000000E+00 0. -1.
<mgrwt>
<rscale>  0 0.17514283E+03</rscale>
<asrwt>0</asrwt>
<pdfrwt beam="2">  1        2 0.83859954E-01 0.18274884E+03</pdfrwt>
<pdfrwt beam="1">  1       -2 0.81032511E-02 0.18274884E+03</pdfrwt>
<totfact> 0.51174676E+03</totfact>
</mgrwt>
</event>
<event>
 7    1  0.5206756E-006  0.1315121E+03  0.7546771E-02  0.1236730E+00
          2   -1    0    0  501    0  0.00000000000E+00  0.00000000000E+00  0.89634930133E+03  0.89634930133E+03  0.00000000000E+00 0. -1.
         -2   -1    0    0    0  501 -0.00000000000E+00 -0.00000000000E+00 -0.15544541105E+02  0.15544541105E+02  0.00000000000E+00 0.  1.
         23    2    1    2    0    0 -0.35773248633E+02 -0.19810330204E+02  0.52960782598E+03  0.54569211298E+03  0.12499303312E+03 0.  0.
          5    1    3    3  502    0  0.19559254743E+02  0.43046694383E+02  0.20302561999E+03  0.20851156975E+03  0.47000000000E+01 0.  1.
         -5    1    3    3    0  502 -0.55332503376E+02 -0.62857024587E+02  0.32658220598E+03  0.33718054323E+03  0.47000000000E+01 0.  1.
        -11    1    1    2    0    0  0.64591488777E+02  0.67308301451E+01  0.16473916932E+03  0.17707726676E+03  0.00000000000E+00 0.  1.
         11    1    1    2    0    0 -0.28818240145E+02  0.13079500059E+02  0.18645776493E+03  0.18912446269E+03  0.00000000000E+00 0. -1.
<mgrwt>
<rscale>  0 0.12394332E+03</rscale>
<asrwt>0</asrwt>
<pdfrwt beam="1">  1        2 0.13789985E+00 0.13151210E+03</pdfrwt>
<pdfrwt beam="2">  1       -2 0.23914686E-02 0.13151210E+03</pdfrwt>
<totfact> 0.17246387E+04</totfact>
</mgrwt>
</event>
<event>
 7    1  0.5206756E-006  0.1379666E+03  0.7546771E-02  0.1227774E+00
         -1   -1    0    0    0  501 -0.00000000000E+00  0.00000000000E+00  0.68191047052E+02  0.68191047052E+02  0.00000000000E+00 0.  1.
          1   -1    0    0  501    0  0.00000000000E+00 -0.00000000000E+00 -0.22233610557E+03  0.22233610557E+03  0.00000000000E+00 0. -1.
         23    2    1    2    0    0  0.58154938653E+02  0.47913689016E+01 -0.92987147194E+02  0.16637723331E+03  0.12501927897E+03 0.  0.
          5    1    3    3  502    0  0.61302500165E+01  0.24415812473E+02  0.25044746448E+02  0.35819564328E+02  0.47000000000E+01 0. -1.
         -5    1    3    3    0  502  0.52024688637E+02 -0.19624443571E+02 -0.11803189364E+03  0.13055766898E+03  0.47000000000E+01 0. -1.
        -11    1    1    2    0    0 -0.48216759118E+02  0.66190310007E+01 -0.83805500581E+02  0.96912482988E+02  0.00000000000E+00 0. -1.
         11    1    1    2    0    0 -0.99381795352E+01 -0.11410399902E+02  0.22647589257E+02  0.27237436325E+02  0.00000000000E+00 0.  1.
<mgrwt>
<rscale>  0 0.12978599E+03</rscale>
<asrwt>0</asrwt>
<pdfrwt beam="2">  1        1 0.34205555E-01 0.13796657E+03</pdfrwt>
<pdfrwt beam="1">  1       -1 0.10490930E-01 0.13796657E+03</pdfrwt>
<totfact> 0.68984913E+03</totfact>
</mgrwt>
</event>
<event>
 7    1  0.5206756E-006  0.1283130E+03  0.7546771E-02  0.1245087E+00
         -2   -1    0    0    0  501 -0.00000000000E+00  0.00000000000E+00  0.53605354171E+02  0.53605354171E+02  0.00000000000E+00 0. -1.
          2   -1    0    0  501    0  0.00000000000E+00 -0.00000000000E+00 -0.47009282809E+03  0.47009282809E+03  0.00000000000E+00 0.  1.
         23    2    1    2    0    0 -0.27788182131E+00 -0.28963515864E+02 -0.40951612456E+03  0.42914761358E+03  0.12500102198E+03 0.  0.
          5    1    3    3  502    0 -0.50922181214E+02 -0.80689047548E+01 -0.81489824642E+02  0.96544587025E+02  0.47000000000E+01 0. -1.
         -5    1    3    3    0  502  0.50644299393E+02 -0.20894611109E+02 -0.32802629992E+03  0.33260302655E+03  0.47000000000E+01 0. -1.
        -11    1    1    2    0    0  0.12289167375E+02  0.53228710169E+02  0.18201213695E+02  0.57581276480E+02  0.00000000000E+00 0. -1.
         11    1    1    2    0    0 -0.12011285554E+02 -0.24265194305E+02 -0.25172563054E+02  0.36969292203E+02  0.00000000000E+00 0.  1.
<mgrwt>
<rscale>  0 0.11880180E+03</rscale>
<asrwt>0</asrwt>
<pdfrwt beam="2">  1        2 0.72321973E-01 0.12831297E+03</pdfrwt>
<pdfrwt beam="1">  1       -2 0.82469776E-02 0.12831297E+03</pdfrwt>
<totfact> 0.57609629E+03</totfact>
</mgrwt>
</event>
<event>
 7    1  0.5206756E-006  0.1305341E+03  0.7546771E-02  0.1240154E+00
          2   -1    0    0  501    0  0.00000000000E+00  0.00000000000E+00  0.15692361255E+04  0.15692361255E+04  0.00000000000E+00 0. -1.
         -2   -1    0    0    0  501 -0.00000000000E+00 -0.00000000000E+00 -0.17052274452E+02  0.17052274452E+02  0.00000000000E+00 0.  1.
         23    2    1    2    0    0 -0.24756634234E+02 -0.28302447377E+02  0.13912873253E+04  0.13973974304E+04  0.12500095014E+03 0.  0.
          5    1    3    3  502    0  0.14336164434E+01  0.27875420455E+02  0.10570533274E+04  0.10574322302E+04  0.47000000000E+01 0. -1.
         -5    1    3    3    0  502 -0.26190250677E+02 -0.56177867832E+02  0.33423399789E+03  0.33996520029E+03  0.47000000000E+01 0. -1.
        -11    1    1    2    0    0 -0.21117142145E+02  0.21067383891E+02  0.10718606420E+02  0.31696322815E+02  0.00000000000E+00 0.  1.
         11    1    1    2    0    0  0.45873776379E+02  0.72350634856E+01  0.15017791931E+03  0.15719464670E+03  0.00000000000E+00 0. -1.
<mgrwt>
<rscale>  0 0.12180148E+03</rscale>
<asrwt>0</asrwt>
<pdfrwt beam="1">  1        2 0.24142083E+00 0.13053412E+03</pdfrwt>
<pdfrwt beam="2">  1       -2 0.26234281E-02 0.13053412E+03</pdfrwt>
<totfact> 0.63656279E+03</totfact>
</mgrwt>
</event>
<event>
 7    1  0.5206756E-006  0.1293797E+03  0.7546771E-02  0.1241835E+00
          1   -1    0    0  501    0  0.00000000000E+00  0.00000000000E+00  0.74922491745E+03  0.74922491745E+03  0.00000000000E+00 0. -1.
         -1   -1    0    0    0  501 -0.00000000000E+00 -0.00000000000E+00 -0.18834926220E+02  0.18834926220E+02  0.00000000000E+00 0.  1.
         23    2    1    2    0    0  0.19500351603E+02 -0.27101046659E+02  0.52026865758E+03  0.53611433685E+03  0.12499750267E+03 0.  0.
          5    1    3    3  502    0 -0.37214906402E+02  0.29636938439E+02  0.15985150623E+03  0.16684691014E+03  0.47000000000E+01 0. -1.
         -5    1    3    3    0  502  0.56715258004E+02 -0.56737985098E+02  0.36041715135E+03  0.36926742671E+03  0.47000000000E+01 0. -1.
        -11    1    1    2    0    0 -0.35945190553E+02 -0.20901120387E+02  0.56429219610E+02  0.70094011036E+02  0.00000000000E+00 0.  1.
         11    1    1    2    0    0  0.16444838950E+02  0.48002167047E+02  0.15369211403E+03  0.16185149578E+03  0.00000000000E+00 0. -1.
<mgrwt>
<rscale>  0 0.12076826E+03</rscale>
<asrwt>0</asrwt>
<pdfrwt beam="1">  1        1 0.11526535E+00 0.12937970E+03</pdfrwt>
<pdfrwt beam="2">  1       -1 0.28976815E-02 0.12937970E+03</pdfrwt>
<totfact> 0.96782616E+03</totfact>
</mgrwt>
</event>
<event>
 7    1  0.5206756E-006  0.1445730E+03  0.7546771E-02  0.1217672E+00
          1   -1    0    0  501    0  0.00000000000E+00  0.00000000000E+00  0.74396845823E+03  0.74396845823E+03  0.00000000000E+00 0. -1.
         -1   -1    0    0    0  501 -0.00000000000E+00 -0.00000000000E+00 -0.23736468055E+02  0.23736468055E+02  0.00000000000E+00 0.  1.
         23    2    1    2    0    0  0.50632448514E+02  0.52086450605E+02  0.47346847581E+03  0.49504924558E+03  0.12499885915E+03 0.  0.
          5    1    3    3  502    0  0.22181202476E+02 -0.39647350863E+02  0.20057875723E+03  0.20571301861E+03  0.47000000000E+01 0. -1.
         -5    1    3    3    0  502  0.28451246038E+02  0.91733801468E+02  0.27288971858E+03  0.28933622697E+03  0.47000000000E+01 0. -1.
        -11    1    1    2    0    0 -0.25093249359E+02 -0.76399069828E+02  0.18022951901E+03  0.19735543710E+03  0.00000000000E+00 0.  1.
         11    1    1    2    0    0 -0.25539199155E+02  0.24312619222E+02  0.66533995357E+02  0.75300243592E+02  0.00000000000E+00 0. -1.
<mgrwt>
<rscale>  0 0.13682052E+03</rscale>
<asrwt>0</asrwt>
<pdfrwt beam="1">  1        1 0.11445667E+00 0.14457302E+03</pdfrwt>
<pdfrwt beam="2">  1       -1 0.36517649E-02 0.14457302E+03</pdfrwt>
<totfact> 0.70218359E+03</totfact>
</mgrwt>
</event>
<event>
 7    1  0.5206756E-006  0.1781114E+03  0.7546771E-02  0.1175271E+00
          2   -1    0    0  501    0  0.00000000000E+00  0.00000000000E+00  0.37020303937E+03  0.37020303937E+03  0.00000000000E+00 0. -1.
         -2   -1    0    0    0  501 -0.00000000000E+00 -0.00000000000E+00 -0.80725751350E+02  0.80725751350E+02  0.00000000000E+00 0.  1.
         23    2    1    2    0    0 -0.13655956733E+01 -0.12692245382E+03  0.20960167550E+03  0.27505729810E+03  0.12494991289E+03 0.  0.
          5    1    3    3  502    0 -0.46283163331E+02 -0.12235859011E+03  0.13742599256E+03  0.18979396516E+03  0.47000000000E+01 0.  1.
         -5    1    3    3    0  502  0.44917567658E+02 -0.45638637142E+01  0.72175682936E+02  0.85263332937E+02  0.47000000000E+01 0.  1.
        -11    1    1    2    0    0  0.46398076841E+02  0.71801980307E+02  0.42161153931E+02  0.95319823811E+02  0.00000000000E+00 0.  1.
         11    1    1    2    0    0 -0.45032481168E+02  0.55120473518E+02  0.37714458595E+02  0.80551668810E+02  0.00000000000E+00 0. -1.
<mgrwt>
<rscale>  0 0.17249504E+03</rscale>
<asrwt>0</asrwt>
<pdfrwt beam="1">  1        2 0.56954313E-01 0.17811136E+03</pdfrwt>
<pdfrwt beam="2">  1       -2 0.12419347E-01 0.17811136E+03</pdfrwt>
<totfact> 0.39721306E+03</totfact>
</mgrwt>
</event>
<event>
 7    1  0.5206756E-006  0.2468628E+03  0.7546771E-02  0.1116241E+00
          2   -1    0    0  501    0  0.00000000000E+00  0.00000000000E+00  0.10193652569E+04  0.10193652569E+04  0.00000000000E+00 0.  1.
         -2   -1    0    0    0  501 -0.00000000000E+00 -0.00000000000E+00 -0.58884098884E+02  0.58884098884E+02  0.00000000000E+00 0. -1.
         23    2    1    2    0    0  0.15398503647E+03 -0.14698392312E+03  0.43681056457E+03  0.50174166734E+03  0.12500226524E+03 0.  0.
          5    1    3    3  502    0  0.52870215119E+02 -0.13290841179E+03  0.28205473231E+03  0.31628605343E+03  0.47000000000E+01 0. -1.
         -5    1    3    3    0  502  0.10111482135E+03 -0.14075511327E+02  0.15475583225E+03  0.18545561391E+03  0.47000000000E+01 0. -1.
        -11    1    1    2    0    0 -0.12935537730E+03  0.15416850708E+03  0.50808192067E+03  0.54648694433E+03  0.00000000000E+00 0.  1.
         11    1    1    2    0    0 -0.24629659170E+02 -0.71845839620E+01  0.15588672751E+02  0.30020744089E+02  0.00000000000E+00 0. -1.
<mgrwt>
<rscale>  0 0.24540983E+03</rscale>
<asrwt>0</asrwt>
<pdfrwt beam="1">  1        2 0.15682541E+00 0.24686278E+03</pdfrwt>
<pdfrwt beam="2">  1       -2 0.90590929E-02 0.24686278E+03</pdfrwt>
<totfact> 0.19822862E+03</totfact>
</mgrwt>
</event>
<event>
 7    1  0.5206756E-006  0.1617193E+03  0.7546771E-02  0.1195036E+00
         -2   -1    0    0    0  501 -0.00000000000E+00  0.00000000000E+00  0.46563136877E+02  0.46563136877E+02  0.00000000000E+00 0.  1.
          2   -1    0    0  501    0  0.00000000000E+00 -0.00000000000E+00 -0.58927803304E+03  0.58927803304E+03  0.00000000000E+00 0. -1.
         23    2    1    2    0    0 -0.68901583097E+02  0.76030475692E+02 -0.43251807180E+03  0.46176295057E+03  0.12500031478E+03 0.  0.
          5    1    3    3  502    0 -0.12009831697E+02 -0.30984708713E+02 -0.15985540917E+03  0.16334053408E+03  0.47000000000E+01 0. -1.
         -5    1    3    3    0  502 -0.56891751400E+02  0.10701518441E+03 -0.27266266263E+03  0.29842241649E+03  0.47000000000E+01 0. -1.
        -11    1    1    2    0    0  0.31178971698E+02  0.15026074227E+02 -0.40981225077E+02  0.53641140849E+02  0.00000000000E+00 0. -1.
         11    1    1    2    0    0  0.37722611399E+02 -0.91056549919E+02 -0.69215599289E+02  0.12043707851E+03  0.00000000000E+00 0.  1.
<mgrwt>
<rscale>  0 0.15451142E+03</rscale>
<asrwt>0</asrwt>
<pdfrwt beam="2">  1        2 0.90658157E-01 0.16171933E+03</pdfrwt>
<pdfrwt beam="1">  1       -2 0.71635597E-02 0.16171933E+03</pdfrwt>
<totfact> 0.56376277E+03</totfact>
</mgrwt>
</event>
<event>
 7    1  0.5206756E-006  0.1464899E+03  0.7546771E-02  0.1213831E+00
          1   -1    0    0  501    0  0.00000000000E+00  0.00000000000E+00  0.29904006756E+03  0.29904006756E+03  0.00000000000E+00 0. -1.
         -1   -1    0    0    0  501 -0.00000000000E+00 -0.00000000000E+00 -0.60913351694E+02  0.60913351694E+02  0.00000000000E+00 0.  1.
         23    2    1    2    0    0  0.76337384410E+02 -0.23961076782E+01  0.15471019132E+03  0.21305990075E+03  0.12500456160E+03 0.  0.
          5    1    3    3  502    0  0.54831556357E+02 -0.43001233257E+01  0.17473097840E+03  0.18324299563E+03  0.47000000000E+01 0.  1.
         -5    1    3    3    0  502  0.21505828052E+02  0.19040156475E+01 -0.20020787084E+02  0.29816905125E+02  0.47000000000E+01 0.  1.
        -11    1    1    2    0    0 -0.59658447797E+02 -0.40574441666E+02  0.65481363137E+02  0.97433180326E+02  0.00000000000E+00 0. -1.
         11    1    1    2    0    0 -0.16678936612E+02  0.42970549344E+02  0.17935161409E+02  0.49460338173E+02  0.00000000000E+00 0.  1.
<mgrwt>
<rscale>  0 0.13962778E+03</rscale>
<asrwt>0</asrwt>
<pdfrwt beam="1">  1        1 0.46006164E-01 0.14648986E+03</pdfrwt>
<pdfrwt beam="2">  1       -1 0.93712850E-02 0.14648986E+03</pdfrwt>
<totfact> 0.56994527E+03</totfact>
</mgrwt>
</event>
<event>
 7    1  0.5206756E-006  0.1379704E+03  0.7546771E-02  0.1227431E+00
          2   -1    0    0  501    0  0.00000000000E+00  0.00000000000E+00  0.15425683685E+04  0.15425683685E+04  0.00000000000E+00 0. -1.
         -2   -1    0    0    0  501 -0.00000000000E+00 -0.00000000000E+00 -0.10084621231E+02  0.10084621231E+02  0.00000000000E+00 0.  1.
         23    2    1    2    0    0 -0.42313579847E+02  0.40258345682E+02  0.96750368246E+03  0.97729177144E+03  0.12499863000E+03 0.  0.
          5    1    3    3  502    0  0.28768208403E+02 -0.22778455708E+02  0.16087401294E+03  0.16507272912E+03  0.47000000000E+01 0. -1.
         -5    1    3    3    0  502 -0.71081788249E+02  0.63036801391E+02  0.80662966952E+03  0.81221904232E+03  0.47000000000E+01 0. -1.
        -11    1    1    2    0    0  0.68560882660E+02 -0.10900608349E+02  0.35953744207E+03  0.36617835838E+03  0.00000000000E+00 0. -1.
         11    1    1    2    0    0 -0.26247302813E+02 -0.29357737334E+02  0.20544262277E+03  0.20918285995E+03  0.00000000000E+00 0.  1.
<mgrwt>
<rscale>  0 0.13001681E+03</rscale>
<asrwt>0</asrwt>
<pdfrwt beam="1">  1        2 0.23731802E+00 0.13797040E+03</pdfrwt>
<pdfrwt beam="2">  1       -2 0.15514814E-02 0.13797040E+03</pdfrwt>
<totfact> 0.14120284E+04</totfact>
</mgrwt>
</event>
<event>
 7    1  0.5206756E-006  0.1257090E+03  0.7546771E-02  0.1249419E+00
         -2   -1    0    0    0  501 -0.00000000000E+00  0.00000000000E+00  0.15895594214E+02  0.15895594214E+02  0.00000000000E+00 0. -1.
          2   -1    0    0  501    0  0.00000000000E+00 -0.00000000000E+00 -0.99503410232E+03  0.99503410232E+03  0.00000000000E+00 0.  1.
         23    2    1    2    0    0 -0.13242133915E+02 -0.14609262203E+01 -0.79757801505E+03  0.80742395917E+03  0.12500108534E+03 0.  0.
          5    1    3    3  502    0 -0.53785888057E+02 -0.80101723815E+01 -0.69034229803E+03  0.69249668812E+03  0.47000000000E+01 0. -1.
         -5    1    3    3    0  502  0.40543754141E+02  0.65492461612E+01 -0.10723571702E+03  0.11492727104E+03  0.47000000000E+01 0. -1.
        -11    1    1    2    0    0 -0.16132743148E+02  0.28443181460E+02 -0.14742082105E+03  0.15100390211E+03  0.00000000000E+00 0.  1.
         11    1    1    2    0    0  0.29374877063E+02 -0.26982255240E+02 -0.34139672002E+02  0.52501835250E+02  0.00000000000E+00 0. -1.
<mgrwt>
<rscale>  0 0.11624769E+03</rscale>
<asrwt>0</asrwt>
<pdfrwt beam="2">  1        2 0.15308220E+00 0.12570903E+03</pdfrwt>
<pdfrwt beam="1">  1       -2 0.24454755E-02 0.12570903E+03</pdfrwt>
<totfact> 0.14477139E+04</totfact>
</mgrwt>
</event>
<event>
 7    1  0.5206756E-006  0.1310717E+03  0.7546771E-02  0.1244327E+00
         -1   -1    0    0    0  501 -0.00000000000E+00  0.00000000000E+00  0.30121253398E+02  0.30121253398E+02  0.00000000000E+00 0.  1.
          1   -1    0    0  501    0  0.00000000000E+00 -0.00000000000E+00 -0.46999882634E+03  0.46999882634E+03  0.00000000000E+00 0. -1.
         23    2    1    2    0    0  0.32312578699E+02 -0.22597334327E+02 -0.34690576588E+03  0.37084147667E+03  0.12500019263E+03 0.  0.
          5    1    3    3  502    0 -0.36053704067E+00  0.47825712899E+02 -0.18624381890E+03  0.19234416778E+03  0.47000000000E+01 0.  1.
         -5    1    3    3    0  502  0.32673115740E+02 -0.70423047227E+02 -0.16066194699E+03  0.17849730889E+03  0.47000000000E+01 0.  1.
        -11    1    1    2    0    0 -0.27253099965E+02  0.50509834940E+02 -0.79027031839E+02  0.97669066979E+02  0.00000000000E+00 0.  1.
         11    1    1    2    0    0 -0.50594787344E+01 -0.27912500613E+02 -0.13944775216E+02  0.31609536082E+02  0.00000000000E+00 0. -1.
<mgrwt>
<rscale>  0 0.11925745E+03</rscale>
<asrwt>0</asrwt>
<pdfrwt beam="2">  1        1 0.72307508E-01 0.13107170E+03</pdfrwt>
<pdfrwt beam="1">  1       -1 0.46340392E-02 0.13107170E+03</pdfrwt>
<totfact> 0.91971684E+03</totfact>
</mgrwt>
</event>
<event>
 7    1  0.5206756E-006  0.1250947E+03  0.7546771E-02  0.1249708E+00
          1   -1    0    0  501    0  0.00000000000E+00  0.00000000000E+00  0.22823014212E+03  0.22823014212E+03  0.00000000000E+00 0. -1.
         -1   -1    0    0    0  501 -0.00000000000E+00 -0.00000000000E+00 -0.65144471853E+02  0.65144471853E+02  0.00000000000E+00 0.  1.
         23    2    1    2    0    0  0.36526016143E+01  0.31532173375E+01  0.15655511740E+03  0.20039506974E+03  0.12500157965E+03 0.  0.
          5    1    3    3  502    0  0.45309808996E+02  0.10188827275E+02  0.99172941906E+01  0.47720370037E+02  0.47000000000E+01 0. -1.
         -5    1    3    3    0  502 -0.41657207381E+02 -0.70356099372E+01  0.14663782321E+03  0.15267469970E+03  0.47000000000E+01 0. -1.
        -11    1    1    2    0    0  0.87121506750E+01 -0.43819062110E+02  0.19199577119E+02  0.48627518291E+02  0.00000000000E+00 0. -1.
         11    1    1    2    0    0 -0.12364752289E+02  0.40665844772E+02 -0.12669024247E+02  0.44352025947E+02  0.00000000000E+00 0.  1.
<mgrwt>
<rscale>  0 0.11608003E+03</rscale>
<asrwt>0</asrwt>
<pdfrwt beam="1">  1        1 0.35112329E-01 0.12509468E+03</pdfrwt>
<pdfrwt beam="2">  1       -1 0.10022227E-01 0.12509468E+03</pdfrwt>
<totfact> 0.71131693E+03</totfact>
</mgrwt>
</event>
<event>
 7    1  0.5206756E-006  0.1547284E+03  0.7546771E-02  0.1203202E+00
         -1   -1    0    0    0  501 -0.00000000000E+00  0.00000000000E+00  0.17457923608E+02  0.17457923608E+02  0.00000000000E+00 0.  1.
          1   -1    0    0  501    0  0.00000000000E+00 -0.00000000000E+00 -0.11593280908E+04  0.11593280908E+04  0.00000000000E+00 0. -1.
         23    2    1    2    0    0  0.30126303965E+01  0.91143611465E+02 -0.67130894082E+03  0.68890968958E+03  0.12499853007E+03 0.  0.
          5    1    3    3  502    0 -0.55155685846E+02  0.12425127434E+02 -0.24866328005E+03  0.25505303433E+03  0.47000000000E+01 0. -1.
         -5    1    3    3    0  502  0.58168316242E+02  0.78718484031E+02 -0.42264566077E+03  0.43385665526E+03  0.47000000000E+01 0. -1.
        -11    1    1    2    0    0 -0.45618912627E+02 -0.48298484565E+02 -0.20371781336E+03  0.21427733497E+03  0.00000000000E+00 0. -1.
         11    1    1    2    0    0  0.42606282230E+02 -0.42845126900E+02 -0.26684341306E+03  0.27359898990E+03  0.00000000000E+00 0.  1.
<mgrwt>
<rscale>  0 0.14780055E+03</rscale>
<asrwt>0</asrwt>
<pdfrwt beam="2">  1        1 0.17835816E+00 0.15472836E+03</pdfrwt>
<pdfrwt beam="1">  1       -1 0.26858345E-02 0.15472836E+03</pdfrwt>
<totfact> 0.53398108E+03</totfact>
</mgrwt>
</event>
<event>
 7    1  0.5206756E-006  0.1578463E+03  0.7546771E-02  0.1198752E+00
         -2   -1    0    0    0  501 -0.00000000000E+00  0.00000000000E+00  0.12042719706E+03  0.12042719706E+03  0.00000000000E+00 0.  1.
          2   -1    0    0  501    0  0.00000000000E+00 -0.00000000000E+00 -0.17647710899E+03  0.17647710899E+03  0.00000000000E+00 0. -1.
         23    2    1    2    0    0 -0.19909732971E+02  0.94307676953E+02 -0.33973775247E+02  0.16146106273E+03  0.12500048789E+03 0.  0.
          5    1    3    3  502    0  0.65339441292E+00  0.11715569561E+03 -0.48811958236E+02  0.12700622506E+03  0.47000000000E+01 0.  1.
         -5    1    3    3    0  502 -0.20563127384E+02 -0.22848018653E+02  0.14838182988E+02  0.34454837666E+02  0.47000000000E+01 0.  1.
        -11    1    1    2    0    0  0.77270797251E+01 -0.71956331005E+02 -0.57073457013E+02  0.92167243792E+02  0.00000000000E+00 0. -1.
         11    1    1    2    0    0  0.12182653246E+02 -0.22351345948E+02  0.34997320330E+02  0.43275999539E+02  0.00000000000E+00 0.  1.
<mgrwt>
<rscale>  0 0.15140962E+03</rscale>
<asrwt>0</asrwt>
<pdfrwt beam="2">  1        2 0.27150324E-01 0.15784631E+03</pdfrwt>
<pdfrwt beam="1">  1       -2 0.18527261E-01 0.15784631E+03</pdfrwt>
<totfact> 0.45386705E+03</totfact>
</mgrwt>
</event>
<event>
 7    1  0.5206756E-006  0.1369455E+03  0.7546771E-02  0.1228890E+00
         -1   -1    0    0    0  501 -0.00000000000E+00  0.00000000000E+00  0.32679290941E+02  0.32679290941E+02  0.00000000000E+00 0.  1.
          1   -1    0    0  501    0  0.00000000000E+00 -0.00000000000E+00 -0.10317942240E+04  0.10317942240E+04  0.00000000000E+00 0. -1.
         23    2    1    2    0    0 -0.52921464586E+02  0.18132315961E+02 -0.92124147796E+03  0.93136454947E+03  0.12499840405E+03 0.  0.
          5    1    3    3  502    0 -0.93628640073E+02  0.50774496036E+01 -0.64389127989E+03  0.65069975646E+03  0.47000000000E+01 0.  1.
         -5    1    3    3    0  502  0.40707175487E+02  0.13054866357E+02 -0.27735019807E+03  0.28066479302E+03  0.47000000000E+01 0.  1.
        -11    1    1    2    0    0  0.36930315139E+02 -0.57993401775E+01  0.13336166537E+02  0.39690475692E+02  0.00000000000E+00 0.  1.
         11    1    1    2    0    0  0.15991149447E+02 -0.12332975783E+02 -0.91209621664E+02  0.93418489799E+02  0.00000000000E+00 0. -1.
<mgrwt>
<rscale>  0 0.12903836E+03</rscale>
<asrwt>0</asrwt>
<pdfrwt beam="2">  1        1 0.15873755E+00 0.13694548E+03</pdfrwt>
<pdfrwt beam="1">  1       -1 0.50275839E-02 0.13694548E+03</pdfrwt>
<totfact> 0.26104306E+03</totfact>
</mgrwt>
</event>
<event>
 7    1  0.5206756E-006  0.1382183E+03  0.7546771E-02  0.1227160E+00
         -2   -1    0    0    0  501 -0.00000000000E+00  0.00000000000E+00  0.82439564370E+02  0.82439564370E+02  0.00000000000E+00 0.  1.
          2   -1    0    0  501    0  0.00000000000E+00 -0.00000000000E+00 -0.19620721352E+03  0.19620721352E+03  0.00000000000E+00 0. -1.
         23    2    1    2    0    0  0.33834727618E+02  0.48310950049E+02 -0.96222191639E+02  0.16841323212E+03  0.12500227959E+03 0.  0.
          5    1    3    3  502    0 -0.31919114791E+02  0.60746107833E+02 -0.33225719001E+02  0.76386896187E+02  0.47000000000E+01 0.  1.
         -5    1    3    3    0  502  0.65753842409E+02 -0.12435157784E+02 -0.62996472637E+02  0.92026335934E+02  0.47000000000E+01 0.  1.
        -11    1    1    2    0    0 -0.34797320970E+02  0.14684422321E+01 -0.42166109616E+02  0.54689950352E+02  0.00000000000E+00 0. -1.
         11    1    1    2    0    0  0.96259335202E+00 -0.49779392281E+02  0.24620652105E+02  0.55543595418E+02  0.00000000000E+00 0.  1.
<mgrwt>
<rscale>  0 0.13019960E+03</rscale>
<asrwt>0</asrwt>
<pdfrwt beam="2">  1        2 0.30185725E-01 0.13821833E+03</pdfrwt>
<pdfrwt beam="1">  1       -2 0.12683010E-01 0.13821833E+03</pdfrwt>
<totfact> 0.74698272E+03</totfact>
</mgrwt>
</event>
<event>
 7    1  0.5206756E-006  0.1432693E+03  0.7546771E-02  0.1219378E+00
         -1   -1    0    0    0  501 -0.00000000000E+00  0.00000000000E+00  0.32390204282E+02  0.32390204282E+02  0.00000000000E+00 0.  1.
          1   -1    0    0  501    0  0.00000000000E+00 -0.00000000000E+00 -0.52065900200E+03  0.52065900200E+03  0.00000000000E+00 0. -1.
         23    2    1    2    0    0  0.69947313923E+02  0.28804892860E+01 -0.30003198030E+03  0.33248351856E+03  0.12500070787E+03 0.  0.
          5    1    3    3  502    0 -0.30885353472E+02 -0.23271398451E+02 -0.85079504021E+02  0.93573901540E+02  0.47000000000E+01 0. -1.
         -5    1    3    3    0  502  0.10083266740E+03  0.26151887737E+02 -0.21495247628E+03  0.23890961702E+03  0.47000000000E+01 0. -1.
        -11    1    1    2    0    0 -0.19515366514E+02 -0.44724350602E+02 -0.91935691223E+02  0.10408308406E+03  0.00000000000E+00 0. -1.
         11    1    1    2    0    0 -0.50431947409E+02  0.41843861316E+02 -0.96301126194E+02  0.11648260366E+03  0.00000000000E+00 0.  1.
<mgrwt>
<rscale>  0 0.13559789E+03</rscale>
<asrwt>0</asrwt>
<pdfrwt beam="2">  1        1 0.80101382E-01 0.14326933E+03</pdfrwt>
<pdfrwt beam="1">  1       -1 0.49831085E-02 0.14326933E+03</pdfrwt>
<totfact> 0.72717966E+03</totfact>
</mgrwt>
</event>
<event>
 7    1  0.5206756E-006  0.2223246E+03  0.7546771E-02  0.1135507E+00
         -1   -1    0    0    0  501 -0.00000000000E+00  0.00000000000E+00  0.17775254593E+03  0.17775254593E+03  0.00000000000E+00 0.  1.
          1   -1    0    0  501    0  0.00000000000E+00 -0.00000000000E+00 -0.25672919333E+03  0.25672919333E+03  0.00000000000E+00 0. -1.
         23    2    1    2    0    0  0.18021852361E+03 -0.36428953767E+02 -0.42909212734E+02  0.22642757416E+03  0.12498984310E+03 0.  0.
          5    1    3    3  502    0 -0.84919772554E+01 -0.67101903855E+01 -0.33034412062E+02  0.35078522104E+02  0.47000000000E+01 0. -1.
         -5    1    3    3    0  502  0.18871050087E+03 -0.29718763382E+02 -0.98748006720E+01  0.19134905206E+03  0.47000000000E+01 0. -1.
        -11    1    1    2    0    0 -0.96064797310E+02  0.17485373955E+02 -0.64738171192E+02  0.11715466015E+03  0.00000000000E+00 0.  1.
         11    1    1    2    0    0 -0.84153726304E+02  0.18943579812E+02  0.28670736530E+02  0.90899504950E+02  0.00000000000E+00 0. -1.
<mgrwt>
<rscale>  0 0.21783534E+03</rscale>
<asrwt>0</asrwt>
<pdfrwt beam="2">  1        1 0.39496799E-01 0.22232464E+03</pdfrwt>
<pdfrwt beam="1">  1       -1 0.27346546E-01 0.22232464E+03</pdfrwt>
<totfact> 0.12738506E+03</totfact>
</mgrwt>
</event>
<event>
 7    1  0.5206756E-006  0.1496735E+03  0.7546771E-02  0.1210093E+00
          1   -1    0    0  501    0  0.00000000000E+00  0.00000000000E+00  0.84790957845E+03  0.84790957845E+03  0.00000000000E+00 0. -1.
         -1   -1    0    0    0  501 -0.00000000000E+00 -0.00000000000E+00 -0.26602099833E+02  0.26602099833E+02  0.00000000000E+00 0.  1.
         23    2    1    2    0    0 -0.75686979446E+02 -0.31481079727E+02  0.62751229216E+03  0.64511536867E+03  0.12523012755E+03 0.  0.
          5    1    3    3  502    0  0.72136855803E+01  0.37911160894E+02  0.11802384419E+03  0.12426186534E+03  0.47000000000E+01 0.  1.
         -5    1    3    3    0  502 -0.82900665026E+02 -0.69392240622E+02  0.50948844797E+03  0.52085350334E+03  0.47000000000E+01 0.  1.
        -11    1    1    2    0    0 -0.21040139914E+02  0.15819030438E+01  0.26814400860E+02  0.34120404428E+02  0.00000000000E+00 0.  1.
         11    1    1    2    0    0  0.96727119360E+02  0.29899176684E+02  0.16698078560E+03  0.19527590518E+03  0.00000000000E+00 0. -1.
<mgrwt>
<rscale>  0 0.14243240E+03</rscale>
<asrwt>0</asrwt>
<pdfrwt beam="1">  1        1 0.13044761E+00 0.14967352E+03</pdfrwt>
<pdfrwt beam="2">  1       -1 0.40926314E-02 0.14967352E+03</pdfrwt>
<totfact> 0.48842252E+03</totfact>
</mgrwt>
</event>
<event>
 7    1  0.5206756E-006  0.1408961E+03  0.7546771E-02  0.1223549E+00
         -2   -1    0    0    0  501 -0.00000000000E+00  0.00000000000E+00  0.85881147511E+02  0.85881147511E+02  0.00000000000E+00 0.  1.
          2   -1    0    0  501    0  0.00000000000E+00 -0.00000000000E+00 -0.21310085451E+03  0.21310085451E+03  0.00000000000E+00 0. -1.
         23    2    1    2    0    0 -0.16637456661E+02 -0.62846098749E+02 -0.12476630143E+03  0.18819763532E+03  0.12500113150E+03 0.  0.
          5    1    3    3  502    0 -0.53663126376E+02 -0.20879942399E+02 -0.11831421725E+03  0.13166642370E+03  0.47000000000E+01 0. -1.
         -5    1    3    3    0  502  0.37025669715E+02 -0.41966156350E+02 -0.64520841785E+01  0.56531211617E+02  0.47000000000E+01 0. -1.
        -11    1    1    2    0    0 -0.81445451158E+01  0.35032560207E+02 -0.42776158987E+02  0.55887509047E+02  0.00000000000E+00 0. -1.
         11    1    1    2    0    0  0.24782001777E+02  0.27813538541E+02  0.40322753411E+02  0.54896857660E+02  0.00000000000E+00 0.  1.
<mgrwt>
<rscale>  0 0.13266834E+03</rscale>
<asrwt>0</asrwt>
<pdfrwt beam="2">  1        2 0.32784746E-01 0.14089613E+03</pdfrwt>
<pdfrwt beam="1">  1       -2 0.13212485E-01 0.14089613E+03</pdfrwt>
<totfact> 0.64053022E+03</totfact>
</mgrwt>
</event>
<event>
 7    1  0.5206756E-006  0.1286022E+03  0.7546771E-02  0.1243207E+00
          4   -1    0    0  501    0  0.00000000000E+00  0.00000000000E+00  0.39126680598E+03  0.39126680598E+03  0.00000000000E+00 0. -1.
         -4   -1    0    0    0  501 -0.00000000000E+00 -0.00000000000E+00 -0.32601873207E+02  0.32601873207E+02  0.00000000000E+00 0.  1.
         23    2    1    2    0    0  0.18526113954E+02  0.23867320922E+02  0.20567532460E+03  0.24257138122E+03  0.12500267971E+03 0.  0.
          5    1    3    3  502    0 -0.23458131667E+02 -0.42803439290E+02  0.67319589023E+02  0.83285265339E+02  0.47000000000E+01 0.  1.
         -5    1    3    3    0  502  0.41984245621E+02  0.66670760212E+02  0.13835573557E+03  0.15928611588E+03  0.47000000000E+01 0.  1.
        -11    1    1    2    0    0 -0.34078591827E+02  0.13054681694E+02  0.18397027423E+02  0.40868395528E+02  0.00000000000E+00 0.  1.
         11    1    1    2    0    0  0.15552477873E+02 -0.36922002616E+02  0.13459258075E+03  0.14042890243E+03  0.00000000000E+00 0. -1.
<mgrwt>
<rscale>  0 0.11993319E+03</rscale>
<asrwt>0</asrwt>
<pdfrwt beam="1">  1        4 0.60194890E-01 0.12860224E+03</pdfrwt>
<pdfrwt beam="2">  1       -4 0.50156731E-02 0.12860224E+03</pdfrwt>
<totfact> 0.10229160E+03</totfact>
</mgrwt>
</event>
<event>
 7    1  0.5206756E-006  0.3015529E+03  0.7546771E-02  0.1086015E+00
         -1   -1    0    0    0  501 -0.00000000000E+00  0.00000000000E+00  0.14629084311E+03  0.14629084311E+03  0.00000000000E+00 0.  1.
          1   -1    0    0  501    0  0.00000000000E+00 -0.00000000000E+00 -0.65426086707E+03  0.65426086707E+03  0.00000000000E+00 0. -1.
         23    2    1    2    0    0 -0.24105710255E+03 -0.13115038493E+03 -0.37746752929E+03  0.48313134546E+03  0.12500084455E+03 0.  0.
          5    1    3    3  502    0 -0.24012271004E+03 -0.95420573679E+02 -0.35978067833E+03  0.44297655497E+03  0.47000000000E+01 0. -1.
         -5    1    3    3    0  502 -0.93439250444E+00 -0.35729811256E+02 -0.17686850961E+02  0.40154790482E+02  0.47000000000E+01 0. -1.
        -11    1    1    2    0    0  0.34598137976E-01  0.24521859212E+02 -0.19971580970E+02  0.31625730390E+02  0.00000000000E+00 0. -1.
         11    1    1    2    0    0  0.24102250441E+03  0.10662852572E+03 -0.11053091370E+03  0.28579463433E+03  0.00000000000E+00 0.  1.
<mgrwt>
<rscale>  0 0.29845538E+03</rscale>
<asrwt>0</asrwt>
<pdfrwt beam="2">  1        1 0.10065552E+00 0.30155292E+03</pdfrwt>
<pdfrwt beam="1">  1       -1 0.22506284E-01 0.30155292E+03</pdfrwt>
<totfact> 0.51793628E+02</totfact>
</mgrwt>
</event>
<event>
 7    1  0.5206756E-006  0.1602110E+03  0.7546771E-02  0.1196450E+00
          1   -1    0    0  501    0  0.00000000000E+00  0.00000000000E+00  0.13610293930E+04  0.13610293930E+04  0.00000000000E+00 0. -1.
         -1   -1    0    0    0  501 -0.00000000000E+00 -0.00000000000E+00 -0.17910942526E+02  0.17910942526E+02  0.00000000000E+00 0.  1.
         23    2    1    2    0    0 -0.94622549471E+02 -0.32988151153E+02  0.95183771292E+03  0.96522670692E+03  0.12500367611E+03 0.  0.
          5    1    3    3  502    0 -0.11321903635E+03 -0.47714569367E+02  0.59501654805E+03  0.60758704131E+03  0.47000000000E+01 0. -1.
         -5    1    3    3    0  502  0.18596486882E+02  0.14726418215E+02  0.35682116487E+03  0.35763966561E+03  0.47000000000E+01 0. -1.
        -11    1    1    2    0    0  0.51062336233E+02  0.63268547999E+02  0.23271632030E+03  0.24650995331E+03  0.00000000000E+00 0.  1.
         11    1    1    2    0    0  0.43560213238E+02 -0.30280396847E+02  0.15856441723E+03  0.16720367527E+03  0.00000000000E+00 0. -1.
<mgrwt>
<rscale>  0 0.15332183E+03</rscale>
<asrwt>0</asrwt>
<pdfrwt beam="1">  1        1 0.20938906E+00 0.16021100E+03</pdfrwt>
<pdfrwt beam="2">  1       -1 0.27555307E-02 0.16021100E+03</pdfrwt>
<totfact> 0.37572391E+03</totfact>
</mgrwt>
</event>
<event>
 7    1  0.5206756E-006  0.1256953E+03  0.7546771E-02  0.1248959E+00
         -1   -1    0    0    0  501 -0.00000000000E+00  0.00000000000E+00  0.64594165678E+02  0.64594165678E+02  0.00000000000E+00 0.  1.
          1   -1    0    0  501    0  0.00000000000E+00 -0.00000000000E+00 -0.19177660821E+03  0.19177660821E+03  0.00000000000E+00 0. -1.
         23    2    1    2    0    0  0.11403717621E+02 -0.65706854488E+01 -0.48599582177E+02  0.13476358717E+03  0.12500434535E+03 0.  0.
          5    1    3    3  502    0 -0.41667588681E+02 -0.31820402573E+02 -0.54180967390E+02  0.75540672447E+02  0.47000000000E+01 0.  1.
         -5    1    3    3    0  502  0.53071306302E+02  0.25249717125E+02  0.55813852139E+01  0.59222914724E+02  0.47000000000E+01 0.  1.
        -11    1    1    2    0    0 -0.90075205516E+01 -0.14472522702E+02 -0.93922171900E+02  0.95456606447E+02  0.00000000000E+00 0. -1.
         11    1    1    2    0    0 -0.23961970696E+01  0.21043208151E+02  0.15339311547E+02  0.26150580269E+02  0.00000000000E+00 0.  1.
<mgrwt>
<rscale>  0 0.11651553E+03</rscale>
<asrwt>0</asrwt>
<pdfrwt beam="2">  1        1 0.29504093E-01 0.12569529E+03</pdfrwt>
<pdfrwt beam="1">  1       -1 0.99375642E-02 0.12569529E+03</pdfrwt>
<totfact> 0.89411730E+03</totfact>
</mgrwt>
</event>
<event>
 7    1  0.5206756E-006  0.1505741E+03  0.7546771E-02  0.1208608E+00
          2   -1    0    0  501    0  0.00000000000E+00  0.00000000000E+00  0.67812425773E+03  0.67812425773E+03  0.00000000000E+00 0. -1.
         -2   -1    0    0    0  501 -0.00000000000E+00 -0.00000000000E+00 -0.29193272850E+02  0.29193272850E+02  0.00000000000E+00 0.  1.
         23    2    1    2    0    0  0.68727706552E+02  0.48161510395E+02  0.42849217224E+03  0.45417848582E+03  0.12501810502E+03 0.  0.
          5    1    3    3  502    0 -0.22720263004E+02  0.59959960223E+01  0.23295298796E+03  0.23418229420E+03  0.47000000000E+01 0. -1.
         -5    1    3    3    0  502  0.91447969556E+02  0.42165514373E+02  0.19553918428E+03  0.21999619162E+03  0.47000000000E+01 0. -1.
        -11    1    1    2    0    0  0.16691104893E+02  0.52571173577E+01  0.10840744968E+02  0.20585237839E+02  0.00000000000E+00 0.  1.
         11    1    1    2    0    0 -0.85418811445E+02 -0.53418627753E+02  0.20959806767E+03  0.23255380691E+03  0.00000000000E+00 0. -1.
<mgrwt>
<rscale>  0 0.14356727E+03</rscale>
<asrwt>0</asrwt>
<pdfrwt beam="1">  1        2 0.10432680E+00 0.15057409E+03</pdfrwt>
<pdfrwt beam="2">  1       -2 0.44912732E-02 0.15057409E+03</pdfrwt>
<totfact> 0.96895270E+03</totfact>
</mgrwt>
</event>
<event>
 7    1  0.5206756E-006  0.1388308E+03  0.7546771E-02  0.1226014E+00
         -4   -1    0    0    0  501 -0.00000000000E+00  0.00000000000E+00  0.11291248357E+03  0.11291248357E+03  0.00000000000E+00 0.  1.
          4   -1    0    0  501    0  0.00000000000E+00 -0.00000000000E+00 -0.14426949397E+03  0.14426949397E+03  0.00000000000E+00 0. -1.
         23    2    1    2    0    0  0.59482578108E+02  0.10589180608E+02 -0.45948004680E+02  0.14623683275E+03  0.12499473699E+03 0.  0.
          5    1    3    3  502    0 -0.20865044069E+02  0.10635697857E+02 -0.59958683363E+02  0.64541473825E+02  0.47000000000E+01 0.  1.
         -5    1    3    3    0  502  0.80347622177E+02 -0.46517249433E-01  0.14010678683E+02  0.81695358929E+02  0.47000000000E+01 0.  1.
        -11    1    1    2    0    0 -0.72675422619E+02  0.51759573515E+01 -0.15512208370E+02  0.74492524429E+02  0.00000000000E+00 0. -1.
         11    1    1    2    0    0  0.13192844511E+02 -0.15765137959E+02  0.30103202655E+02  0.36452620362E+02  0.00000000000E+00 0.  1.
<mgrwt>
<rscale>  0 0.13097677E+03</rscale>
<asrwt>0</asrwt>
<pdfrwt beam="2">  1        4 0.22195307E-01 0.13883080E+03</pdfrwt>
<pdfrwt beam="1">  1       -4 0.17371151E-01 0.13883080E+03</pdfrwt>
<totfact> 0.90023837E+02</totfact>
</mgrwt>
</event>
<event>
 7    1  0.5206756E-006  0.1347190E+03  0.7546771E-02  0.1231277E+00
         -1   -1    0    0    0  501 -0.00000000000E+00  0.00000000000E+00  0.11487891177E+03  0.11487891177E+03  0.00000000000E+00 0.  1.
          1   -1    0    0  501    0  0.00000000000E+00 -0.00000000000E+00 -0.13000513034E+03  0.13000513034E+03  0.00000000000E+00 0. -1.
         23    2    1    2    0    0 -0.38308064899E+02  0.32505908704E+02 -0.22957927656E+02  0.13666113543E+03  0.12500023023E+03 0.  0.
          5    1    3    3  502    0 -0.74367855768E+01  0.31845220422E+01 -0.71392066649E+02  0.72002528711E+02  0.47000000000E+01 0.  1.
         -5    1    3    3    0  502 -0.30871279323E+02  0.29321386662E+02  0.48434138993E+02  0.64658606719E+02  0.47000000000E+01 0.  1.
        -11    1    1    2    0    0 -0.14475795959E+02 -0.25870423471E+01  0.37794354169E+02  0.40554342108E+02  0.00000000000E+00 0.  1.
         11    1    1    2    0    0  0.52783860858E+02 -0.29918866357E+02 -0.29962645089E+02  0.67668564577E+02  0.00000000000E+00 0. -1.
<mgrwt>
<rscale>  0 0.12745777E+03</rscale>
<asrwt>0</asrwt>
<pdfrwt beam="2">  1        1 0.20000789E-01 0.13471896E+03</pdfrwt>
<pdfrwt beam="1">  1       -1 0.17673679E-01 0.13471896E+03</pdfrwt>
<totfact> 0.59892398E+03</totfact>
</mgrwt>
</event>
<event>
 7    1  0.5206756E-006  0.1340182E+03  0.7546771E-02  0.1234772E+00
          2   -1    0    0  501    0  0.00000000000E+00  0.00000000000E+00  0.11133889855E+04  0.11133889855E+04  0.00000000000E+00 0. -1.
         -2   -1    0    0    0  501 -0.00000000000E+00 -0.00000000000E+00 -0.19318874277E+02  0.19318874277E+02  0.00000000000E+00 0.  1.
         23    2    1    2    0    0  0.30552196652E+02 -0.37477287176E+02  0.92918530551E+03  0.93880040520E+03  0.12499153995E+03 0.  0.
          5    1    3    3  502    0  0.30735517158E+02  0.38568730339E+02  0.21867275687E+03  0.22421436968E+03  0.47000000000E+01 0.  1.
         -5    1    3    3    0  502 -0.18332050582E+00 -0.76046017516E+02  0.71051254864E+03  0.71458603552E+03  0.47000000000E+01 0.  1.
        -11    1    1    2    0    0 -0.50487327187E+02 -0.72673339522E+01  0.10338715151E+03  0.11528524384E+03  0.00000000000E+00 0. -1.
         11    1    1    2    0    0  0.19935130535E+02  0.44744621129E+02  0.61497654226E+02  0.78622210759E+02  0.00000000000E+00 0.  1.
<mgrwt>
<rscale>  0 0.12519018E+03</rscale>
<asrwt>0</asrwt>
<pdfrwt beam="1">  1        2 0.17129056E+00 0.13401817E+03</pdfrwt>
<pdfrwt beam="2">  1       -2 0.29721354E-02 0.13401817E+03</pdfrwt>
<totfact> 0.93221556E+03</totfact>
</mgrwt>
</event>
<event>
 7    1  0.5206756E-006  0.2322331E+03  0.7546771E-02  0.1128359E+00
          1   -1    0    0  501    0  0.00000000000E+00  0.00000000000E+00  0.29975409939E+03  0.29975409939E+03  0.00000000000E+00 0. -1.
         -1   -1    0    0    0  501 -0.00000000000E+00 -0.00000000000E+00 -0.16635304727E+03  0.16635304727E+03  0.00000000000E+00 0.  1.
         23    2    1    2    0    0 -0.19562697012E+03  0.59350889376E+01  0.76802795542E+02  0.24460349621E+03  0.12500825666E+03 0.  0.
          5    1    3    3  502    0 -0.59015286097E+02  0.39623016892E+02  0.75516199606E+02  0.10381509458E+03  0.47000000000E+01 0.  1.
         -5    1    3    3    0  502 -0.13661168403E+03 -0.33687927954E+02  0.12865959356E+01  0.14078840162E+03  0.47000000000E+01 0.  1.
        -11    1    1    2    0    0  0.42948782159E+02 -0.37743496006E+02  0.57396433270E+01  0.57464013828E+02  0.00000000000E+00 0.  1.
         11    1    1    2    0    0  0.15267818797E+03  0.31808407069E+02  0.50858613256E+02  0.16403963662E+03  0.00000000000E+00 0. -1.
<mgrwt>
<rscale>  0 0.22757414E+03</rscale>
<asrwt>0</asrwt>
<pdfrwt beam="1">  1        1 0.46116015E-01 0.23223307E+03</pdfrwt>
<pdfrwt beam="2">  1       -1 0.25592777E-01 0.23223307E+03</pdfrwt>
<totfact> 0.11725217E+03</totfact>
</mgrwt>
</event>
<event>
 7    1  0.5206756E-006  0.1478865E+03  0.7546771E-02  0.1212453E+00
          2   -1    0    0  501    0  0.00000000000E+00  0.00000000000E+00  0.19302644745E+04  0.19302644745E+04  0.00000000000E+00 0. -1.
         -2   -1    0    0    0  501 -0.00000000000E+00 -0.00000000000E+00 -0.18457740973E+02  0.18457740973E+02  0.00000000000E+00 0.  1.
         23    2    1    2    0    0 -0.76096842235E+02 -0.21344511531E+02  0.16865392914E+04  0.16930106908E+04  0.12499640099E+03 0.  0.
          5    1    3    3  502    0 -0.38082132670E+02  0.44858424086E+02  0.41551657624E+03  0.41968874440E+03  0.47000000000E+01 0. -1.
         -5    1    3    3    0  502 -0.38014709565E+02 -0.66202935617E+02  0.12710227151E+04  0.12733219464E+04  0.47000000000E+01 0. -1.
        -11    1    1    2    0    0  0.14386250636E+02  0.32380382381E+02  0.19159779824E+02  0.40280895390E+02  0.00000000000E+00 0.  1.
         11    1    1    2    0    0  0.61710591598E+02 -0.11035870850E+02  0.20610766235E+03  0.21543062930E+03  0.00000000000E+00 0. -1.
<mgrwt>
<rscale>  0 0.14065333E+03</rscale>
<asrwt>0</asrwt>
<pdfrwt beam="1">  1        2 0.29696361E+00 0.14788650E+03</pdfrwt>
<pdfrwt beam="2">  1       -2 0.28396540E-02 0.14788650E+03</pdfrwt>
<totfact> 0.37093937E+03</totfact>
</mgrwt>
</event>
<event>
 6    1  0.5206756E-006  0.9399961E+03  0.7546771E-02  0.1004706E+00
         -2   -1    0    0    0  501 -0.00000000000E+00  0.00000000000E+00  0.19432543060E+03  0.19432543060E+03  0.00000000000E+00 0.  1.
          2   -1    0    0  501    0  0.00000000000E+00 -0.00000000000E+00 -0.13907421380E+04  0.13907421380E+04  0.00000000000E+00 0. -1.
          5    1    1    2  502    0  0.19175439502E+02 -0.11724285104E+03 -0.12289902750E+04  0.12347278120E+04  0.47000000000E+01 0. -1.
         -5    1    1    2    0  502 -0.76300712011E+02  0.12499051775E+03  0.14082588519E+03  0.20322019614E+03  0.47000000000E+01 0.  1.
        -11    1    1    2    0    0 -0.19628359880E+02  0.35143152859E+01 -0.11190239712E+02  0.22865790787E+02  0.00000000000E+00 0.  1.
         11    1    1    2    0    0  0.76753632389E+02 -0.11261981991E+02 -0.97062077845E+02  0.12425376968E+03  0.00000000000E+00 0. -1.
<mgrwt>
<rscale>  0 0.53633872E+03</rscale>
<asrwt>0</asrwt>
<pdfrwt beam="2">  1        2 0.21396033E+00 0.93999614E+03</pdfrwt>
<pdfrwt beam="1">  1       -2 0.29896220E-01 0.93999614E+03</pdfrwt>
<totfact> 0.15134840E+02</totfact>
</mgrwt>
</event>
<event>
 7    1  0.5206756E-006  0.1908651E+03  0.7546771E-02  0.1162198E+00
         -1   -1    0    0    0  501 -0.00000000000E+00  0.00000000000E+00  0.35764003677E+02  0.35764003677E+02  0.00000000000E+00 0.  1.
          1   -1    0    0  501    0  0.00000000000E+00 -0.00000000000E+00 -0.12192198543E+04  0.12192198543E+04  0.00000000000E+00 0. -1.
         23    2    1    2    0    0  0.14422572011E+03 -0.59833236575E+00 -0.92594045014E+03  0.94540742497E+03  0.12501226198E+03 0.  0.
          5    1    3    3  502    0 -0.39225645397E+01 -0.31747983880E+02 -0.85114161444E+02  0.91048511638E+02  0.47000000000E+01 0. -1.
         -5    1    3    3    0  502  0.14814828465E+03  0.31149651514E+02 -0.84082628869E+03  0.85435891333E+03  0.47000000000E+01 0. -1.
        -11    1    1    2    0    0 -0.30597272546E+02  0.40431018560E+02 -0.89608231816E+02  0.10295870802E+03  0.00000000000E+00 0.  1.
         11    1    1    2    0    0 -0.11362844756E+03 -0.39832686194E+02 -0.16790716867E+03  0.20661772498E+03  0.00000000000E+00 0. -1.
<mgrwt>
<rscale>  0 0.18591552E+03</rscale>
<asrwt>0</asrwt>
<pdfrwt beam="2">  1        1 0.18757222E+00 0.19086509E+03</pdfrwt>
<pdfrwt beam="1">  1       -1 0.55021564E-02 0.19086509E+03</pdfrwt>
<totfact> 0.16909180E+03</totfact>
</mgrwt>
</event>
<event>
 7    1  0.5206756E-006  0.1250709E+03  0.7546771E-02  0.1250260E+00
          1   -1    0    0  501    0  0.00000000000E+00  0.00000000000E+00  0.43338777270E+02  0.43338777270E+02  0.00000000000E+00 0. -1.
         -1   -1    0    0    0  501 -0.00000000000E+00 -0.00000000000E+00 -0.28278326866E+03  0.28278326866E+03  0.00000000000E+00 0.  1.
         23    2    1    2    0    0  0.36355186957E+01 -0.22144776093E+01 -0.10482576231E+03  0.16319061915E+03  0.12499846730E+03 0.  0.
          5    1    3    3  502    0 -0.57333206348E+01 -0.62485318790E+02 -0.63291012858E+02  0.89247567689E+02  0.47000000000E+01 0. -1.
         -5    1    3    3    0  502  0.93688393304E+01  0.60270841180E+02 -0.41534749455E+02  0.73943051460E+02  0.47000000000E+01 0. -1.
        -11    1    1    2    0    0 -0.43017862165E+02 -0.18255748013E+02 -0.78831588324E+02  0.91641846983E+02  0.00000000000E+00 0.  1.
         11    1    1    2    0    0  0.39382343469E+02  0.20470225623E+02 -0.55787140749E+02  0.71289579794E+02  0.00000000000E+00 0. -1.
<mgrwt>
<rscale>  0 0.11576039E+03</rscale>
<asrwt>0</asrwt>
<pdfrwt beam="1">  1        1 0.66675042E-02 0.12507093E+03</pdfrwt>
<pdfrwt beam="2">  1       -1 0.43505118E-01 0.12507093E+03</pdfrwt>
<totfact> 0.56062759E+03</totfact>
</mgrwt>
</event>
<event>
 7    1  0.5206756E-006  0.3282251E+03  0.7546771E-02  0.1073187E+00
         -1   -1    0    0    0  501 -0.00000000000E+00  0.00000000000E+00  0.34181838838E+03  0.34181838838E+03  0.00000000000E+00 0.  1.
          1   -1    0    0  501    0  0.00000000000E+00 -0.00000000000E+00 -0.30463207207E+03  0.30463207207E+03  0.00000000000E+00 0. -1.
         23    2    1    2    0    0  0.28973703772E+03 -0.90335844553E+02  0.14824110287E+02  0.32855967594E+03  0.12499436215E+03 0.  0.
          5    1    3    3  502    0  0.20185015000E+03  0.30692492726E-02  0.14645712097E+02  0.20243534757E+03  0.47000000000E+01 0.  1.
         -5    1    3    3    0  502  0.87886887726E+02 -0.90338913803E+02  0.17839818983E+00  0.12612432837E+03  0.47000000000E+01 0.  1.
        -11    1    1    2    0    0 -0.11697857107E+03  0.25688013295E+02  0.52888271086E+02  0.13092375390E+03  0.00000000000E+00 0. -1.
         11    1    1    2    0    0 -0.17275846665E+03  0.64647831259E+02 -0.30526065066E+02  0.18696703061E+03  0.00000000000E+00 0.  1.
<mgrwt>
<rscale>  0 0.32540859E+03</rscale>
<asrwt>0</asrwt>
<pdfrwt beam="2">  1        1 0.46866473E-01 0.32822508E+03</pdfrwt>
<pdfrwt beam="1">  1       -1 0.52587444E-01 0.32822508E+03</pdfrwt>
<totfact> 0.32216766E+02</totfact>
</mgrwt>
</event>
<event>
 7    1  0.5206756E-006  0.1344277E+03  0.7546771E-02  0.1233946E+00
         -1   -1    0    0    0  501 -0.00000000000E+00  0.00000000000E+00  0.32676264213E+02  0.32676264213E+02  0.00000000000E+00 0.  1.
          1   -1    0    0  501    0  0.00000000000E+00 -0.00000000000E+00 -0.44305385999E+03  0.44305385999E+03  0.00000000000E+00 0. -1.
         23    2    1    2    0    0  0.11364011519E+02 -0.48135623388E+02 -0.27108970919E+03  0.30258954898E+03  0.12499850290E+03 0.  0.
          5    1    3    3  502    0  0.55989185938E+02 -0.64990992378E+02 -0.18717815326E+03  0.20595234665E+03  0.47000000000E+01 0.  1.
         -5    1    3    3    0  502 -0.44625174420E+02  0.16855368990E+02 -0.83911555923E+02  0.96637202325E+02  0.47000000000E+01 0.  1.
        -11    1    1    2    0    0  0.11729532627E+02  0.69826081959E+02 -0.10269476168E+03  0.12473763559E+03  0.00000000000E+00 0. -1.
         11    1    1    2    0    0 -0.23093544146E+02 -0.21690458571E+02 -0.36593124918E+02  0.48402939637E+02  0.00000000000E+00 0.  1.
<mgrwt>
<rscale>  0 0.12572149E+03</rscale>
<asrwt>0</asrwt>
<pdfrwt beam="2">  1        1 0.68162126E-01 0.13442769E+03</pdfrwt>
<pdfrwt beam="1">  1       -1 0.50271181E-02 0.13442769E+03</pdfrwt>
<totfact> 0.88119857E+03</totfact>
</mgrwt>
</event>
<event>
 7    1  0.5206756E-006  0.2232373E+03  0.7546771E-02  0.1134844E+00
          1   -1    0    0  501    0  0.00000000000E+00  0.00000000000E+00  0.91311589505E+02  0.91311589505E+02  0.00000000000E+00 0. -1.
         -1   -1    0    0    0  501 -0.00000000000E+00 -0.00000000000E+00 -0.50642271840E+03  0.50642271840E+03  0.00000000000E+00 0.  1.
         23    2    1    2    0    0 -0.18423717415E+03 -0.16320811992E+02 -0.23782914349E+03  0.32618642247E+03  0.12500070186E+03 0.  0.
          5    1    3    3  502    0 -0.74776674657E+02  0.50106329987E+02 -0.13287389582E+03  0.16056075974E+03  0.47000000000E+01 0.  1.
         -5    1    3    3    0  502 -0.10946049949E+03 -0.66427141979E+02 -0.10495524768E+03  0.16562566273E+03  0.47000000000E+01 0.  1.
        -11    1    1    2    0    0  0.36239567334E+02  0.12280991294E+02  0.28621907298E+01  0.38370836889E+02  0.00000000000E+00 0. -1.
         11    1    1    2    0    0  0.14799760682E+03  0.40398206980E+01 -0.18014417613E+03  0.23317704854E+03  0.00000000000E+00 0.  1.
<mgrwt>
<rscale>  0 0.21871551E+03</rscale>
<asrwt>0</asrwt>
<pdfrwt beam="1">  1        1 0.14047937E-01 0.22323727E+03</pdfrwt>
<pdfrwt beam="2">  1       -1 0.77911186E-01 0.22323727E+03</pdfrwt>
<totfact> 0.70019082E+02</totfact>
</mgrwt>
</event>
<event>
 7    1  0.5206756E-006  0.1321929E+03  0.7546771E-02  0.1239136E+00
          1   -1    0    0  501    0  0.00000000000E+00  0.00000000000E+00  0.68456541190E+03  0.68456541190E+03  0.00000000000E+00 0. -1.
         -1   -1    0    0    0  501 -0.00000000000E+00 -0.00000000000E+00 -0.19342886593E+02  0.19342886593E+02  0.00000000000E+00 0.  1.
         23    2    1    2    0    0  0.41151807529E+02 -0.12459358488E+02  0.40969723454E+03  0.43049597453E+03  0.12500501275E+03 0.  0.
          5    1    3    3  502    0  0.80991003547E+02 -0.30880352526E+02  0.24244904862E+03  0.25752042638E+03  0.47000000000E+01 0. -1.
         -5    1    3    3    0  502 -0.39839196018E+02  0.18420994038E+02  0.16724818593E+03  0.17297554814E+03  0.47000000000E+01 0. -1.
        -11    1    1    2    0    0 -0.57553415936E+02  0.11742224291E+02  0.24885227682E+03  0.25569069439E+03  0.00000000000E+00 0. -1.
         11    1    1    2    0    0  0.16401608407E+02  0.71713419678E+00  0.66730139395E+01  0.17721629576E+02  0.00000000000E+00 0.  1.
<mgrwt>
<rscale>  0 0.12243312E+03</rscale>
<asrwt>0</asrwt>
<pdfrwt beam="1">  1        1 0.10531774E+00 0.13219289E+03</pdfrwt>
<pdfrwt beam="2">  1       -1 0.29758292E-02 0.13219289E+03</pdfrwt>
<totfact> 0.10617632E+04</totfact>
</mgrwt>
</event>
<event>
 7    1  0.5206756E-006  0.1282191E+03  0.7546771E-02  0.1244761E+00
          2   -1    0    0  501    0  0.00000000000E+00  0.00000000000E+00  0.14813964544E+03  0.14813964544E+03  0.00000000000E+00 0. -1.
         -2   -1    0    0    0  501 -0.00000000000E+00 -0.00000000000E+00 -0.84197027370E+02  0.84197027370E+02  0.00000000000E+00 0.  1.
         23    2    1    2    0    0 -0.65863051607E+01 -0.27776322429E+02  0.38356701378E+02  0.13383337830E+03  0.12500093241E+03 0.  0.
          5    1    3    3  502    0  0.70267282057E+01  0.39187408735E+02 -0.19122756135E+02  0.44416187532E+02  0.47000000000E+01 0. -1.
         -5    1    3    3    0  502 -0.13613033366E+02 -0.66963731164E+02  0.57479457513E+02  0.89417190768E+02  0.47000000000E+01 0. -1.
        -11    1    1    2    0    0 -0.14828638980E+02  0.51129911885E+02  0.36991858684E+02  0.64827108777E+02  0.00000000000E+00 0. -1.
         11    1    1    2    0    0  0.21414944141E+02 -0.23353589457E+02 -0.11405941988E+02  0.33676185736E+02  0.00000000000E+00 0.  1.
<mgrwt>
<rscale>  0 0.11899677E+03</rscale>
<asrwt>0</asrwt>
<pdfrwt beam="1">  1        2 0.22790715E-01 0.12821910E+03</pdfrwt>
<pdfrwt beam="2">  1       -2 0.12953389E-01 0.12821910E+03</pdfrwt>
<totfact> 0.97729552E+03</totfact>
</mgrwt>
</event>
<event>
 7    1  0.5206756E-006  0.1329071E+03  0.7546771E-02  0.1235656E+00
         -4   -1    0    0    0  501 -0.00000000000E+00  0.00000000000E+00  0.43466159169E+03  0.43466159169E+03  0.00000000000E+00 0.  1.
          4   -1    0    0  501    0  0.00000000000E+00 -0.00000000000E+00 -0.32108530577E+02  0.32108530577E+02  0.00000000000E+00 0. -1.
         23    2    1    2    0    0  0.32510072130E+02 -0.31295101235E+02  0.21018906686E+03  0.24868404128E+03  0.12501208104E+03 0.  0.
          5    1    3    3  502    0  0.57754349779E+02 -0.66358814320E+02  0.15667746324E+03  0.17974697395E+03  0.47000000000E+01 0. -1.
         -5    1    3    3    0  502 -0.25244277649E+02  0.35063713085E+02  0.53511603620E+02  0.68937067325E+02  0.47000000000E+01 0. -1.
        -11    1    1    2    0    0  0.30681742588E+02  0.41887917849E+01  0.86263665723E+02  0.91653343249E+02  0.00000000000E+00 0.  1.
         11    1    1    2    0    0 -0.63191814718E+02  0.27106309450E+02  0.10610032853E+03  0.12643273774E+03  0.00000000000E+00 0. -1.
<mgrwt>
<rscale>  0 0.12462554E+03</rscale>
<asrwt>0</asrwt>
<pdfrwt beam="2">  1        4 0.49397742E-02 0.13290714E+03</pdfrwt>
<pdfrwt beam="1">  1       -4 0.66871010E-01 0.13290714E+03</pdfrwt>
<totfact> 0.84482238E+02</totfact>
</mgrwt>
</event>
<event>
 7    1  0.5206756E-006  0.1259008E+03  0.7546771E-02  0.1249178E+00
         -1   -1    0    0    0  501 -0.00000000000E+00  0.00000000000E+00  0.23792311651E+02  0.23792311651E+02  0.00000000000E+00 0.  1.
          1   -1    0    0  501    0  0.00000000000E+00 -0.00000000000E+00 -0.51225740771E+03  0.51225740771E+03  0.00000000000E+00 0. -1.
         23    2    1    2    0    0 -0.53303609728E+01 -0.14044995626E+02 -0.32442476880E+03  0.34799777281E+03  0.12500137845E+03 0.  0.
          5    1    3    3  502    0 -0.17773019781E+02 -0.35517807750E+02 -0.24268929619E+02  0.46781041506E+02  0.47000000000E+01 0.  1.
         -5    1    3    3    0  502  0.12442658808E+02  0.21472812124E+02 -0.30015583918E+03  0.30121673130E+03  0.47000000000E+01 0.  1.
        -11    1    1    2    0    0  0.21629285395E+02  0.48753456181E+02 -0.10241081351E+03  0.11546731226E+03  0.00000000000E+00 0. -1.
         11    1    1    2    0    0 -0.16298924422E+02 -0.34708460556E+02 -0.61629513742E+02  0.72584634294E+02  0.00000000000E+00 0.  1.
<mgrwt>
<rscale>  0 0.11638746E+03</rscale>
<asrwt>0</asrwt>
<pdfrwt beam="2">  1        1 0.78808820E-01 0.12590083E+03</pdfrwt>
<pdfrwt beam="1">  1       -1 0.36603562E-02 0.12590083E+03</pdfrwt>
<totfact> 0.11593217E+04</totfact>
</mgrwt>
</event>
<event>
 7    1  0.5206756E-006  0.1662224E+03  0.7546771E-02  0.1188636E+00
         -2   -1    0    0    0  501 -0.00000000000E+00  0.00000000000E+00  0.17836754502E+03  0.17836754502E+03  0.00000000000E+00 0.  1.
          2   -1    0    0  501    0  0.00000000000E+00 -0.00000000000E+00 -0.13545312437E+03  0.13545312437E+03  0.00000000000E+00 0. -1.
         23    2    1    2    0    0  0.10716527605E+03 -0.22797237128E+02  0.64176873635E+01  0.16634628526E+03  0.12500315795E+03 0.  0.
          5    1    3    3  502    0  0.11146294876E+03  0.15964641693E+02 -0.25716583392E+02  0.11559537790E+03  0.47000000000E+01 0.  1.
         -5    1    3    3    0  502 -0.42976727163E+01 -0.38761878822E+02  0.32134270756E+02  0.50750907357E+02  0.47000000000E+01 0.  1.
        -11    1    1    2    0    0 -0.45263236604E+02  0.55747505797E+02  0.99631422851E+01  0.72496959899E+02  0.00000000000E+00 0.  1.
         11    1    1    2    0    0 -0.61902039442E+02 -0.32950268668E+02  0.26533590999E+02  0.74977424227E+02  0.00000000000E+00 0. -1.
<mgrwt>
<rscale>  0 0.16005358E+03</rscale>
<asrwt>0</asrwt>
<pdfrwt beam="2">  1        2 0.20838942E-01 0.16622244E+03</pdfrwt>
<pdfrwt beam="1">  1       -2 0.27441161E-01 0.16622244E+03</pdfrwt>
<totfact> 0.31003457E+03</totfact>
</mgrwt>
</event>
<event>
 7    1  0.5206756E-006  0.1419059E+03  0.7546771E-02  0.1221306E+00
         -1   -1    0    0    0  501 -0.00000000000E+00  0.00000000000E+00  0.96934152502E+02  0.96934152502E+02  0.00000000000E+00 0.  1.
          1   -1    0    0  501    0  0.00000000000E+00 -0.00000000000E+00 -0.28017013078E+03  0.28017013078E+03  0.00000000000E+00 0. -1.
         23    2    1    2    0    0  0.52636538564E+02  0.41749158579E+02 -0.21637095667E+03  0.25875405787E+03  0.12499469644E+03 0.  0.
          5    1    3    3  502    0  0.37088458608E+02  0.32403308157E+02 -0.23020500544E+03  0.23546117020E+03  0.47000000000E+01 0. -1.
         -5    1    3    3    0  502  0.15548079956E+02  0.93458504229E+01  0.13834048771E+02  0.23292887666E+02  0.47000000000E+01 0. -1.
        -11    1    1    2    0    0 -0.85905111231E+00 -0.54698530434E+02  0.35003232795E+02  0.64945311659E+02  0.00000000000E+00 0.  1.
         11    1    1    2    0    0 -0.51777487452E+02  0.12949371854E+02 -0.18682543960E+01  0.53404913751E+02  0.00000000000E+00 0. -1.
<mgrwt>
<rscale>  0 0.13423358E+03</rscale>
<asrwt>0</asrwt>
<pdfrwt beam="2">  1        1 0.43103097E-01 0.14190585E+03</pdfrwt>
<pdfrwt beam="1">  1       -1 0.14912946E-01 0.14190585E+03</pdfrwt>
<totfact> 0.30100165E+03</totfact>
</mgrwt>
</event>
<event>
 7    1  0.5206756E-006  0.1289786E+03  0.7546771E-02  0.1238483E+00
          3   -1    0    0  501    0  0.00000000000E+00  0.00000000000E+00  0.20855459212E+03  0.20855459212E+03  0.00000000000E+00 0. -1.
         -3   -1    0    0    0  501 -0.00000000000E+00 -0.00000000000E+00 -0.66516363326E+02  0.66516363326E+02  0.00000000000E+00 0.  1.
         23    2    1    2    0    0  0.18894378624E+02  0.56676638084E+02  0.86434148052E+02  0.15526214599E+03  0.11430762520E+03 0.  0.
          5    1    3    3  502    0 -0.36552096801E+02  0.46425215843E+02  0.78136422705E+02  0.98075210934E+02  0.47000000000E+01 0. -1.
         -5    1    3    3    0  502  0.55446475425E+02  0.10251422241E+02  0.82977253476E+01  0.57186935055E+02  0.47000000000E+01 0.  1.
        -11    1    1    2    0    0  0.47607279050E+01 -0.64184390176E+02  0.63723595733E+01  0.64675400571E+02  0.00000000000E+00 0.  1.
         11    1    1    2    0    0 -0.23655106528E+02  0.75077520925E+01  0.49231721172E+02  0.55133408891E+02  0.00000000000E+00 0. -1.
<mgrwt>
<rscale>  0 0.12284055E+03</rscale>
<asrwt>0</asrwt>
<pdfrwt beam="1">  1        3 0.32085322E-01 0.12897857E+03</pdfrwt>
<pdfrwt beam="2">  1       -3 0.10233287E-01 0.12897857E+03</pdfrwt>
<totfact> 0.15310490E+03</totfact>
</mgrwt>
</event>
<event>
 7    1  0.5206756E-006  0.1370347E+03  0.7546771E-02  0.1229115E+00
         -2   -1    0    0    0  501 -0.00000000000E+00  0.00000000000E+00  0.41668154547E+02  0.41668154547E+02  0.00000000000E+00 0.  1.
          2   -1    0    0  501    0  0.00000000000E+00 -0.00000000000E+00 -0.37133540831E+03  0.37133540831E+03  0.00000000000E+00 0. -1.
         23    2    1    2    0    0 -0.55322324374E+02  0.97156875150E+01 -0.14538263711E+03  0.19978643738E+03  0.12499422079E+03 0.  0.
          5    1    3    3  502    0 -0.82948236329E+02  0.32171423821E+02 -0.60702539885E+02  0.10780676588E+03  0.47000000000E+01 0. -1.
         -5    1    3    3    0  502  0.27625911955E+02 -0.22455736306E+02 -0.84680097221E+02  0.91979671503E+02  0.47000000000E+01 0. -1.
        -11    1    1    2    0    0  0.12038568896E+02  0.39601667971E+02 -0.64534776167E+02  0.76667832773E+02  0.00000000000E+00 0.  1.
         11    1    1    2    0    0  0.43283755478E+02 -0.49317355486E+02 -0.11974984049E+03  0.13654929270E+03  0.00000000000E+00 0. -1.
<mgrwt>
<rscale>  0 0.12888832E+03</rscale>
<asrwt>0</asrwt>
<pdfrwt beam="2">  1        2 0.57128522E-01 0.13703470E+03</pdfrwt>
<pdfrwt beam="1">  1       -2 0.64104856E-02 0.13703470E+03</pdfrwt>
<totfact> 0.10965984E+04</totfact>
</mgrwt>
</event>
<event>
 7    1  0.5206756E-006  0.1355416E+03  0.7546771E-02  0.1224922E+00
          1   -1    0    0  501    0  0.00000000000E+00  0.00000000000E+00  0.14383342709E+03  0.14383342709E+03  0.00000000000E+00 0. -1.
         -1   -1    0    0    0  501 -0.00000000000E+00 -0.00000000000E+00 -0.21289922079E+03  0.21289922079E+03  0.00000000000E+00 0.  1.
         23    2    1    2    0    0 -0.75254680318E+02  0.23493860569E+02  0.85685367947E+02  0.16035432637E+03  0.11025560898E+03 0.  0.
          5    1    3    3  502    0 -0.77869195720E+02 -0.17662321313E+02  0.87829854795E+02  0.11879285597E+03  0.47000000000E+01 0. -1.
         -5    1    3    3    0  502  0.26145154022E+01  0.41156181882E+02 -0.21444868479E+01  0.41561470399E+02  0.47000000000E+01 0.  1.
        -11    1    1    2    0    0  0.31459787609E+02  0.23365234746E+01 -0.13989462492E+03  0.14340740448E+03  0.00000000000E+00 0.  1.
         11    1    1    2    0    0  0.43794892709E+02 -0.25830384044E+02 -0.14856536727E+02  0.52970917028E+02  0.00000000000E+00 0. -1.
<mgrwt>
<rscale>  0 0.13172251E+03</rscale>
<asrwt>0</asrwt>
<pdfrwt beam="1">  1        1 0.22128219E-01 0.13554161E+03</pdfrwt>
<pdfrwt beam="2">  1       -1 0.32753727E-01 0.13554161E+03</pdfrwt>
<totfact> 0.19183218E+03</totfact>
</mgrwt>
</event>
<event>
 7    1  0.5206756E-006  0.2000785E+03  0.7546771E-02  0.1153393E+00
          2   -1    0    0  501    0  0.00000000000E+00  0.00000000000E+00  0.22848472535E+03  0.22848472535E+03  0.00000000000E+00 0.  1.
         -2   -1    0    0    0  501 -0.00000000000E+00 -0.00000000000E+00 -0.18749803162E+03  0.18749803162E+03  0.00000000000E+00 0. -1.
         23    2    1    2    0    0  0.34167219375E+02 -0.15244493030E+03  0.99728018090E+02  0.22355552883E+03  0.12499816489E+03 0.  0.
          5    1    3    3  502    0  0.32781583184E+02  0.51230216853E+01  0.46195569575E+02  0.57070116485E+02  0.47000000000E+01 0.  1.
         -5    1    3    3    0  502  0.13856361910E+01 -0.15756795198E+03  0.53532448515E+02  0.16648541235E+03  0.47000000000E+01 0.  1.
        -11    1    1    2    0    0 -0.47547154072E+02  0.14927457892E+03 -0.72808267189E+02  0.17275611579E+03  0.00000000000E+00 0. -1.
         11    1    1    2    0    0  0.13379934697E+02  0.31703513802E+01  0.14066942831E+02  0.19671112347E+02  0.00000000000E+00 0.  1.
<mgrwt>
<rscale>  0 0.19572966E+03</rscale>
<asrwt>0</asrwt>
<pdfrwt beam="1">  1        2 0.35151496E-01 0.20007848E+03</pdfrwt>
<pdfrwt beam="2">  1       -2 0.28845851E-01 0.20007848E+03</pdfrwt>
<totfact> 0.16025566E+03</totfact>
</mgrwt>
</event>
<event>
 7    1  0.5206756E-006  0.1368885E+03  0.7546771E-02  0.1230186E+00
          2   -1    0    0  501    0  0.00000000000E+00  0.00000000000E+00  0.56462721332E+03  0.56462721332E+03  0.00000000000E+00 0.  1.
         -2   -1    0    0    0  501 -0.00000000000E+00 -0.00000000000E+00 -0.26111553979E+02  0.26111553979E+02  0.00000000000E+00 0. -1.
         23    2    1    2    0    0 -0.24094674568E+02  0.50333160560E+02  0.32686745348E+03  0.35437379560E+03  0.12499789785E+03 0.  0.
          5    1    3    3  502    0 -0.12479641627E+02 -0.37298072062E+02  0.50536088009E+02  0.64209608517E+02  0.47000000000E+01 0. -1.
         -5    1    3    3    0  502 -0.11615032942E+02  0.87631232622E+02  0.27633136547E+03  0.29016418708E+03  0.47000000000E+01 0. -1.
        -11    1    1    2    0    0  0.46292648320E+02 -0.49736341034E+02  0.20012936238E+03  0.21134917694E+03  0.00000000000E+00 0.  1.
         11    1    1    2    0    0 -0.22197973752E+02 -0.59681952596E+00  0.11518843480E+02  0.25015794758E+02  0.00000000000E+00 0. -1.
<mgrwt>
<rscale>  0 0.12817711E+03</rscale>
<asrwt>0</asrwt>
<pdfrwt beam="1">  1        2 0.86865716E-01 0.13688848E+03</pdfrwt>
<pdfrwt beam="2">  1       -2 0.40171626E-02 0.13688848E+03</pdfrwt>
<totfact> 0.14036914E+04</totfact>
</mgrwt>
</event>
<event>
 7    1  0.5206756E-006  0.1362216E+03  0.7546771E-02  0.1231650E+00
         -2   -1    0    0    0  501 -0.00000000000E+00  0.00000000000E+00  0.83110598142E+02  0.83110598142E+02  0.00000000000E+00 0.  1.
          2   -1    0    0  501    0  0.00000000000E+00 -0.00000000000E+00 -0.18747529761E+03  0.18747529761E+03  0.00000000000E+00 0. -1.
         23    2    1    2    0    0 -0.46983720254E+02 -0.26855517756E+02 -0.95979137975E+02  0.16663825230E+03  0.12501049317E+03 0.  0.
          5    1    3    3  502    0 -0.58046967221E+02 -0.58762940252E+02 -0.22661011292E+02  0.85779630353E+02  0.47000000000E+01 0. -1.
         -5    1    3    3    0  502  0.11063246967E+02  0.31907422496E+02 -0.73318126683E+02  0.80858621952E+02  0.47000000000E+01 0. -1.
        -11    1    1    2    0    0  0.69907507386E+02  0.23991683710E+02 -0.22022507751E+02  0.77121017393E+02  0.00000000000E+00 0. -1.
         11    1    1    2    0    0 -0.22923787132E+02  0.28638340457E+01  0.13636946262E+02  0.26826626050E+02  0.00000000000E+00 0.  1.
<mgrwt>
<rscale>  0 0.12721362E+03</rscale>
<asrwt>0</asrwt>
<pdfrwt beam="2">  1        2 0.28842353E-01 0.13622156E+03</pdfrwt>
<pdfrwt beam="1">  1       -2 0.12786246E-01 0.13622156E+03</pdfrwt>
<totfact> 0.77386356E+03</totfact>
</mgrwt>
</event>
<event>
 7    1  0.5206756E-006  0.1243566E+03  0.7546771E-02  0.1243095E+00
          1   -1    0    0  501    0  0.00000000000E+00  0.00000000000E+00  0.33764937087E+03  0.33764937087E+03  0.00000000000E+00 0. -1.
         -1   -1    0    0    0  501 -0.00000000000E+00 -0.00000000000E+00 -0.18751168694E+03  0.18751168694E+03  0.00000000000E+00 0.  1.
         23    2    1    2    0    0  0.15637222581E+02 -0.53412077834E+02  0.30904245668E+03  0.33312429060E+03  0.11120782421E+03 0.  0.
          5    1    3    3  502    0 -0.38477382666E+02  0.18132594592E+00  0.17156301330E+03  0.17588774656E+03  0.47000000000E+01 0. -1.
         -5    1    3    3    0  502  0.54114605247E+02 -0.53593403780E+02  0.13747944338E+03  0.15723654404E+03  0.47000000000E+01 0.  1.
        -11    1    1    2    0    0 -0.39293598567E+01 -0.14949006636E+02  0.31406743325E+01  0.15772650492E+02  0.00000000000E+00 0. -1.
         11    1    1    2    0    0 -0.11707862724E+02  0.68361084469E+02 -0.16204544709E+03  0.17626411672E+03  0.00000000000E+00 0.  1.
<mgrwt>
<rscale>  0 0.12000154E+03</rscale>
<asrwt>0</asrwt>
<pdfrwt beam="1">  1        1 0.51946057E-01 0.12435656E+03</pdfrwt>
<pdfrwt beam="2">  1       -1 0.28847952E-01 0.12435656E+03</pdfrwt>
<totfact> 0.82127602E+02</totfact>
</mgrwt>
</event>
<event>
 7    1  0.5206756E-006  0.2030033E+03  0.7546771E-02  0.1151219E+00
         -1   -1    0    0    0  501 -0.00000000000E+00  0.00000000000E+00  0.22467604341E+03  0.22467604341E+03  0.00000000000E+00 0.  1.
          1   -1    0    0  501    0  0.00000000000E+00 -0.00000000000E+00 -0.17603736959E+03  0.17603736959E+03  0.00000000000E+00 0. -1.
         23    2    1    2    0    0  0.15994204379E+03 -0.37725693509E+01 -0.19358195403E+02  0.20392416858E+03  0.12495854172E+03 0.  0.
          5    1    3    3  502    0  0.64911792841E+02 -0.20971545021E+02 -0.67353538197E+02  0.95978829218E+02  0.47000000000E+01 0.  1.
         -5    1    3    3    0  502  0.95030250949E+02  0.17198975671E+02  0.47995342795E+02  0.10794533936E+03  0.47000000000E+01 0.  1.
        -11    1    1    2    0    0 -0.11715034949E+03  0.26341187307E+02  0.88841081943E+01  0.12040344643E+03  0.00000000000E+00 0. -1.
         11    1    1    2    0    0 -0.42791694303E+02 -0.22568617956E+02  0.59112761036E+02  0.76385797993E+02  0.00000000000E+00 0.  1.
<mgrwt>
<rscale>  0 0.19825559E+03</rscale>
<asrwt>0</asrwt>
<pdfrwt beam="2">  1        1 0.27082672E-01 0.20300327E+03</pdfrwt>
<pdfrwt beam="1">  1       -1 0.34565545E-01 0.20300327E+03</pdfrwt>
<totfact> 0.13710828E+03</totfact>
</mgrwt>
</event>
<event>
 7    1  0.5206756E-006  0.1339985E+03  0.7546771E-02  0.1233903E+00
         -2   -1    0    0    0  501 -0.00000000000E+00  0.00000000000E+00  0.20946785823E+02  0.20946785823E+02  0.00000000000E+00 0.  1.
          2   -1    0    0  501    0  0.00000000000E+00 -0.00000000000E+00 -0.81398462938E+03  0.81398462938E+03  0.00000000000E+00 0. -1.
         23    2    1    2    0    0  0.99299144722E+01 -0.47291916396E+02 -0.60909221905E+03  0.62365769616E+03  0.12498184715E+03 0.  0.
          5    1    3    3  502    0  0.17438047929E+02  0.11326119762E+02 -0.49154521521E+03  0.49200727139E+03  0.47000000000E+01 0. -1.
         -5    1    3    3    0  502 -0.75081334572E+01 -0.58618036158E+02 -0.11754700383E+03  0.13165042477E+03  0.47000000000E+01 0. -1.
        -11    1    1    2    0    0 -0.40936193630E+02  0.42045650662E+02 -0.62119439529E+02  0.85454276990E+02  0.00000000000E+00 0.  1.
         11    1    1    2    0    0  0.31006279158E+02  0.52462657347E+01 -0.12182618498E+03  0.12581944205E+03  0.00000000000E+00 0. -1.
<mgrwt>
<rscale>  0 0.12574937E+03</rscale>
<asrwt>0</asrwt>
<pdfrwt beam="2">  1        2 0.12522841E+00 0.13399847E+03</pdfrwt>
<pdfrwt beam="1">  1       -2 0.32225823E-02 0.13399847E+03</pdfrwt>
<totfact> 0.12615111E+04</totfact>
</mgrwt>
</event>
<event>
 6    1  0.5206756E-006  0.1583401E+03  0.7546771E-02  0.1213295E+00
          2   -1    0    0  501    0  0.00000000000E+00  0.00000000000E+00  0.13244446963E+04  0.13244446963E+04  0.00000000000E+00 0. -1.
         -2   -1    0    0    0  501 -0.00000000000E+00 -0.00000000000E+00 -0.42401122176E+02  0.42401122176E+02  0.00000000000E+00 0.  1.
          5    1    1    2  502    0  0.54613246401E+02 -0.11683795522E+02  0.85237865107E+03  0.85421927663E+03  0.47000000000E+01 0. -1.
         -5    1    1    2    0  502 -0.80051535824E+02  0.13520919541E+02  0.40446976921E+03  0.41256387124E+03  0.47000000000E+01 0.  1.
        -11    1    1    2    0    0 -0.21026448742E+02  0.13142816107E+02 -0.21267438388E+02  0.32667248086E+02  0.00000000000E+00 0. -1.
         11    1    1    2    0    0  0.46464738165E+02 -0.14979940126E+02  0.46462592219E+02  0.67395422505E+02  0.00000000000E+00 0.  1.
<mgrwt>
<rscale>  0 0.14002498E+03</rscale>
<asrwt>0</asrwt>
<pdfrwt beam="1">  1        2 0.20376069E+00 0.15834012E+03</pdfrwt>
<pdfrwt beam="2">  1       -2 0.65232506E-02 0.15834012E+03</pdfrwt>
<totfact> 0.22079720E+03</totfact>
</mgrwt>
</event>
<event>
 7    1  0.5206756E-006  0.1314675E+03  0.7546771E-02  0.1238138E+00
         -2   -1    0    0    0  501 -0.00000000000E+00  0.00000000000E+00  0.13041978457E+02  0.13041978457E+02  0.00000000000E+00 0.  1.
          2   -1    0    0  501    0  0.00000000000E+00 -0.00000000000E+00 -0.18273096804E+04  0.18273096804E+04  0.00000000000E+00 0. -1.
         23    2    1    2    0    0 -0.35177034122E+02  0.20490484943E+02 -0.15775738941E+04  0.15830423507E+04  0.12500563588E+03 0.  0.
          5    1    3    3  502    0 -0.47038911520E+01 -0.38136920251E+02 -0.19081788595E+03  0.19470517938E+03  0.47000000000E+01 0.  1.
         -5    1    3    3    0  502 -0.30473142970E+02  0.58627405194E+02 -0.13867560081E+04  0.13883371713E+04  0.47000000000E+01 0.  1.
        -11    1    1    2    0    0  0.59440494936E+02 -0.28211464754E+02 -0.21146675608E+03  0.22146613310E+03  0.00000000000E+00 0. -1.
         11    1    1    2    0    0 -0.24263460814E+02  0.77209798103E+01 -0.25227051803E+02  0.35843175119E+02  0.00000000000E+00 0.  1.
<mgrwt>
<rscale>  0 0.12305638E+03</rscale>
<asrwt>0</asrwt>
<pdfrwt beam="2">  1        2 0.28112430E+00 0.13146746E+03</pdfrwt>
<pdfrwt beam="1">  1       -2 0.20064601E-02 0.13146746E+03</pdfrwt>
<totfact> 0.69397079E+03</totfact>
</mgrwt>
</event>
<event>
 7    1  0.5206756E-006  0.1699655E+03  0.7546771E-02  0.1187063E+00
          4   -1    0    0  501    0  0.00000000000E+00  0.00000000000E+00  0.32094035748E+03  0.32094035748E+03  0.00000000000E+00 0. -1.
         -4   -1    0    0    0  501 -0.00000000000E+00 -0.00000000000E+00 -0.76222500568E+02  0.76222500568E+02  0.00000000000E+00 0.  1.
         23    2    1    2    0    0  0.71713984421E+02 -0.90118098373E+02  0.16772999747E+03  0.23879202975E+03  0.12499645676E+03 0.  0.
          5    1    3    3  502    0  0.22761244497E+02 -0.88913006403E+02  0.16579451536E+03  0.18956135757E+03  0.47000000000E+01 0.  1.
         -5    1    3    3    0  502  0.48952739923E+02 -0.12050919701E+01  0.19354821144E+01  0.49230672184E+02  0.47000000000E+01 0.  1.
        -11    1    1    2    0    0 -0.42466390825E+02  0.93817454572E+02  0.77501128564E+02  0.12888574033E+03  0.00000000000E+00 0. -1.
         11    1    1    2    0    0 -0.29247593596E+02 -0.36993561984E+01 -0.51326912362E+00  0.29485087971E+02  0.00000000000E+00 0.  1.
<mgrwt>
<rscale>  0 0.16145578E+03</rscale>
<asrwt>0</asrwt>
<pdfrwt beam="1">  1        4 0.49375439E-01 0.16996553E+03</pdfrwt>
<pdfrwt beam="2">  1       -4 0.11726539E-01 0.16996553E+03</pdfrwt>
<totfact> 0.39840168E+02</totfact>
</mgrwt>
</event>
<event>
 7    1  0.5206756E-006  0.1988606E+03  0.7546771E-02  0.1155279E+00
         -1   -1    0    0    0  501 -0.00000000000E+00  0.00000000000E+00  0.15010032566E+03  0.15010032566E+03  0.00000000000E+00 0.  1.
          1   -1    0    0  501    0  0.00000000000E+00 -0.00000000000E+00 -0.51384813159E+03  0.51384813159E+03  0.00000000000E+00 0. -1.
         23    2    1    2    0    0  0.18584273066E+02 -0.15158178805E+03 -0.42981159721E+03  0.47358582316E+03  0.12736996950E+03 0.  0.
          5    1    3    3  502    0  0.67349329950E+02 -0.93048967208E+02 -0.31854254114E+03  0.33865245172E+03  0.47000000000E+01 0. -1.
         -5    1    3    3    0  502 -0.48765056884E+02 -0.58532820840E+02 -0.11126905607E+03  0.13493337144E+03  0.47000000000E+01 0.  1.
        -11    1    1    2    0    0 -0.27832224617E+02  0.80219024755E+02 -0.10186073218E+02  0.85518891172E+02  0.00000000000E+00 0.  1.
         11    1    1    2    0    0  0.92479515506E+01  0.71362763293E+02  0.76249864498E+02  0.10484374292E+03  0.00000000000E+00 0. -1.
<mgrwt>
<rscale>  0 0.19357097E+03</rscale>
<asrwt>0</asrwt>
<pdfrwt beam="2">  1        1 0.79053561E-01 0.19886056E+03</pdfrwt>
<pdfrwt beam="1">  1       -1 0.23092357E-01 0.19886056E+03</pdfrwt>
<totfact> 0.69564952E+02</totfact>
</mgrwt>
</event>
<event>
 7    1  0.5206756E-006  0.1593501E+03  0.7546771E-02  0.1202609E+00
         -2   -1    0    0    0  501 -0.00000000000E+00  0.00000000000E+00  0.75380749004E+03  0.75380749004E+03  0.00000000000E+00 0.  1.
          2   -1    0    0  501    0  0.00000000000E+00 -0.00000000000E+00 -0.27325236659E+02  0.27325236659E+02  0.00000000000E+00 0. -1.
         23    2    1    2    0    0  0.35272019508E+02 -0.90944224934E+02  0.32030666926E+03  0.35775526167E+03  0.12600594222E+03 0.  0.
          5    1    3    3  502    0  0.51348802349E+02 -0.11201896117E+03  0.29897304669E+03  0.32340674052E+03  0.47000000000E+01 0. -1.
         -5    1    3    3    0  502 -0.16076782841E+02  0.21074736234E+02  0.21333622566E+02  0.34348521156E+02  0.47000000000E+01 0.  1.
        -11    1    1    2    0    0 -0.41884450505E+02  0.16976903746E+02  0.15368740797E+03  0.16019469974E+03  0.00000000000E+00 0. -1.
         11    1    1    2    0    0  0.66124309971E+01  0.73967321188E+02  0.25248817615E+03  0.26318276528E+03  0.00000000000E+00 0.  1.
<mgrwt>
<rscale>  0 0.14827463E+03</rscale>
<asrwt>0</asrwt>
<pdfrwt beam="2">  1        2 0.42038831E-02 0.15935013E+03</pdfrwt>
<pdfrwt beam="1">  1       -2 0.11597037E+00 0.15935013E+03</pdfrwt>
<totfact> 0.11668289E+03</totfact>
</mgrwt>
</event>
<event>
 6    1  0.5206756E-006  0.1487199E+03  0.7546771E-02  0.1228809E+00
         -1   -1    0    0    0  501 -0.00000000000E+00  0.00000000000E+00  0.93721175006E+02  0.93721175006E+02  0.00000000000E+00 0.  1.
          1   -1    0    0  501    0  0.00000000000E+00 -0.00000000000E+00 -0.15308070689E+03  0.15308070689E+03  0.00000000000E+00 0. -1.
          5    1    1    2  502    0 -0.57199641958E+02  0.52536072570E+02 -0.52354800059E+02  0.93781411007E+02  0.47000000000E+01 0. -1.
         -5    1    1    2    0  502  0.49768883005E+02 -0.45041440896E+02 -0.12386655579E+02  0.68419239619E+02  0.47000000000E+01 0.  1.
        -11    1    1    2    0    0  0.27549282065E+02 -0.12393619269E+02 -0.30655485826E+02  0.43038628604E+02  0.00000000000E+00 0. -1.
         11    1    1    2    0    0 -0.20118523112E+02  0.48989875947E+01  0.36037409577E+02  0.41562602669E+02  0.00000000000E+00 0.  1.
<mgrwt>
<rscale>  0 0.12909242E+03</rscale>
<asrwt>0</asrwt>
<pdfrwt beam="2">  1        1 0.23550878E-01 0.14871985E+03</pdfrwt>
<pdfrwt beam="1">  1       -1 0.14418642E-01 0.14871985E+03</pdfrwt>
<totfact> 0.67564187E+03</totfact>
</mgrwt>
</event>
<event>
 7    1  0.5206756E-006  0.1347087E+03  0.7546771E-02  0.1232060E+00
          2   -1    0    0  501    0  0.00000000000E+00  0.00000000000E+00  0.73767803097E+02  0.73767803097E+02  0.00000000000E+00 0. -1.
         -2   -1    0    0    0  501 -0.00000000000E+00 -0.00000000000E+00 -0.23041566984E+03  0.23041566984E+03  0.00000000000E+00 0.  1.
         23    2    1    2    0    0  0.22375442256E+02  0.44934459781E+02 -0.28437456860E+02  0.13767759659E+03  0.12500666206E+03 0.  0.
          5    1    3    3  502    0  0.87552864883E+01  0.51602955857E+02  0.40871194005E+02  0.66573753042E+02  0.47000000000E+01 0. -1.
         -5    1    3    3    0  502  0.13620155767E+02 -0.66684960763E+01 -0.69308650864E+02  0.71103843551E+02  0.47000000000E+01 0. -1.
        -11    1    1    2    0    0 -0.31841978240E+02  0.12728144257E+02 -0.11822396251E+02  0.36272390155E+02  0.00000000000E+00 0. -1.
         11    1    1    2    0    0  0.94665359842E+01 -0.57662604038E+02 -0.11638801363E+03  0.13023348619E+03  0.00000000000E+00 0.  1.
<mgrwt>
<rscale>  0 0.12694502E+03</rscale>
<asrwt>0</asrwt>
<pdfrwt beam="1">  1        2 0.11348893E-01 0.13470869E+03</pdfrwt>
<pdfrwt beam="2">  1       -2 0.35448564E-01 0.13470869E+03</pdfrwt>
<totfact> 0.39217464E+03</totfact>
</mgrwt>
</event>
<event>
 7    1  0.5206756E-006  0.1250185E+03  0.7546771E-02  0.1250759E+00
          1   -1    0    0  501    0  0.00000000000E+00  0.00000000000E+00  0.11759592496E+03  0.11759592496E+03  0.00000000000E+00 0. -1.
         -1   -1    0    0    0  501 -0.00000000000E+00 -0.00000000000E+00 -0.18804682762E+03  0.18804682762E+03  0.00000000000E+00 0.  1.
         23    2    1    2    0    0  0.67664187957E+00  0.18214603387E+01  0.66205128556E+02  0.14146642300E+03  0.12500341686E+03 0.  0.
          5    1    3    3  502    0 -0.80540135772E+01 -0.57164131205E+02  0.88393886193E+01  0.58590356052E+02  0.47000000000E+01 0. -1.
         -5    1    3    3    0  502  0.87306554568E+01  0.58985591544E+02  0.57365739937E+02  0.82876066949E+02  0.47000000000E+01 0. -1.
        -11    1    1    2    0    0 -0.13940399444E+02  0.41944658800E+02 -0.54719608496E+02  0.70341486283E+02  0.00000000000E+00 0. -1.
         11    1    1    2    0    0  0.13263757564E+02 -0.43766119139E+02 -0.81936422713E+02  0.93834843295E+02  0.00000000000E+00 0.  1.
<mgrwt>
<rscale>  0 0.11547234E+03</rscale>
<asrwt>0</asrwt>
<pdfrwt beam="1">  1        1 0.18091681E-01 0.12501852E+03</pdfrwt>
<pdfrwt beam="2">  1       -1 0.28930281E-01 0.12501852E+03</pdfrwt>
<totfact> 0.30419162E+03</totfact>
</mgrwt>
</event>
<event>
 7    1  0.5206756E-006  0.1384707E+03  0.7546771E-02  0.1226962E+00
         -2   -1    0    0    0  501 -0.00000000000E+00  0.00000000000E+00  0.37259503137E+03  0.37259503137E+03  0.00000000000E+00 0.  1.
          2   -1    0    0  501    0  0.00000000000E+00 -0.00000000000E+00 -0.53641278399E+02  0.53641278399E+02  0.00000000000E+00 0. -1.
         23    2    1    2    0    0 -0.28009630974E+02  0.52582042070E+02  0.71219944171E+02  0.15571261682E+03  0.12499891206E+03 0.  0.
          5    1    3    3  502    0  0.42914018988E+02  0.28083038971E+02 -0.93153370222E+00  0.51509492898E+02  0.47000000000E+01 0.  1.
         -5    1    3    3    0  502 -0.70923649962E+02  0.24499003099E+02  0.72151477874E+02  0.10420312393E+03  0.47000000000E+01 0.  1.
        -11    1    1    2    0    0 -0.35351837205E+01 -0.59338382490E+02  0.79729784930E+02  0.99450388463E+02  0.00000000000E+00 0. -1.
         11    1    1    2    0    0  0.31544814695E+02  0.67563404201E+01  0.16800402387E+03  0.17107330449E+03  0.00000000000E+00 0.  1.
<mgrwt>
<rscale>  0 0.13033301E+03</rscale>
<asrwt>0</asrwt>
<pdfrwt beam="2">  1        2 0.82525046E-02 0.13847071E+03</pdfrwt>
<pdfrwt beam="1">  1       -2 0.57322311E-01 0.13847071E+03</pdfrwt>
<totfact> 0.22900080E+03</totfact>
</mgrwt>
</event>
<event>
 6    1  0.5206756E-006  0.1872700E+03  0.7546771E-02  0.1181407E+00
         -2   -1    0    0    0  501 -0.00000000000E+00  0.00000000000E+00  0.19038639304E+02  0.19038639304E+02  0.00000000000E+00 0.  1.
          2   -1    0    0  501    0  0.00000000000E+00 -0.00000000000E+00 -0.13563670913E+04  0.13563670913E+04  0.00000000000E+00 0. -1.
          5    1    1    2  502    0  0.21008973476E+02 -0.54423673952E+02 -0.82483219916E+03  0.82690601644E+03  0.47000000000E+01 0. -1.
         -5    1    1    2    0  502  0.52059182154E+02  0.57822097801E+02 -0.19543499887E+03  0.21040551852E+03  0.47000000000E+01 0.  1.
        -11    1    1    2    0    0  0.11060937226E+01  0.32744051499E+02 -0.63630307148E+02  0.71569632804E+02  0.00000000000E+00 0. -1.
         11    1    1    2    0    0 -0.74174249353E+02 -0.36142475348E+02 -0.25343094678E+03  0.26652456280E+03  0.00000000000E+00 0.  1.
<mgrwt>
<rscale>  0 0.16663137E+03</rscale>
<asrwt>0</asrwt>
<pdfrwt beam="2">  1        2 0.20867193E+00 0.18727003E+03</pdfrwt>
<pdfrwt beam="1">  1       -2 0.29290205E-02 0.18727003E+03</pdfrwt>
<totfact> 0.70869128E+03</totfact>
</mgrwt>
</event>
<event>
 7    1  0.5206756E-006  0.1193399E+03  0.7546771E-02  0.1258400E+00
          2   -1    0    0  501    0  0.00000000000E+00  0.00000000000E+00  0.99721258645E+03  0.99721258645E+03  0.00000000000E+00 0. -1.
         -2   -1    0    0    0  501 -0.00000000000E+00 -0.00000000000E+00 -0.13287643083E+02  0.13287643083E+02  0.00000000000E+00 0.  1.
         23    2    1    2    0    0 -0.59275148093E+01  0.18405107699E+02  0.75816562550E+03  0.76750057166E+03  0.11776301790E+03 0.  0.
          5    1    3    3  502    0  0.27136460551E+02 -0.14895819327E+02  0.63253074638E+03  0.63330522502E+03  0.47000000000E+01 0. -1.
         -5    1    3    3    0  502 -0.33063975360E+02  0.33300927026E+02  0.12563487912E+03  0.13419534664E+03  0.47000000000E+01 0.  1.
        -11    1    1    2    0    0  0.28646279573E+02  0.20754545974E+02  0.15508483054E+03  0.15906811489E+03  0.00000000000E+00 0. -1.
         11    1    1    2    0    0 -0.22718764763E+02 -0.39159653673E+02  0.70674487328E+02  0.83931542981E+02  0.00000000000E+00 0.  1.
<mgrwt>
<rscale>  0 0.11117987E+03</rscale>
<asrwt>0</asrwt>
<pdfrwt beam="1">  1        2 0.15341726E+00 0.11933990E+03</pdfrwt>
<pdfrwt beam="2">  1       -2 0.20442536E-02 0.11933990E+03</pdfrwt>
<totfact> 0.18656400E+04</totfact>
</mgrwt>
</event>
<event>
 7    1  0.5206756E-006  0.1801206E+03  0.7546771E-02  0.1172621E+00
         -1   -1    0    0    0  501 -0.00000000000E+00  0.00000000000E+00  0.27850709781E+03  0.27850709781E+03  0.00000000000E+00 0.  1.
          1   -1    0    0  501    0  0.00000000000E+00 -0.00000000000E+00 -0.12045252963E+03  0.12045252963E+03  0.00000000000E+00 0. -1.
         23    2    1    2    0    0  0.28960972845E+02 -0.12641204724E+03  0.10148153409E+02  0.18040625829E+03  0.12499875750E+03 0.  0.
          5    1    3    3  502    0 -0.33024492563E+02 -0.10768803010E+03 -0.79286152281E+01  0.11301452064E+03  0.47000000000E+01 0.  1.
         -5    1    3    3    0  502  0.61985465408E+02 -0.18724017142E+02  0.18076768637E+02  0.67391737654E+02  0.47000000000E+01 0.  1.
        -11    1    1    2    0    0 -0.18983397569E+02  0.81703616970E+02  0.15090143983E+03  0.17264731377E+03  0.00000000000E+00 0.  1.
         11    1    1    2    0    0 -0.99775752761E+01  0.44708430270E+02 -0.29950250621E+01  0.45906055382E+02  0.00000000000E+00 0. -1.
<mgrwt>
<rscale>  0 0.17511063E+03</rscale>
<asrwt>0</asrwt>
<pdfrwt beam="2">  1        1 0.18531158E-01 0.18012061E+03</pdfrwt>
<pdfrwt beam="1">  1       -1 0.42847246E-01 0.18012061E+03</pdfrwt>
<totfact> 0.15208211E+03</totfact>
</mgrwt>
</event>
<event>
 7    1  0.5206756E-006  0.1874201E+03  0.7546771E-02  0.1172434E+00
         -1   -1    0    0    0  501 -0.00000000000E+00  0.00000000000E+00  0.18165819572E+03  0.18165819572E+03  0.00000000000E+00 0.  1.
          1   -1    0    0  501    0  0.00000000000E+00 -0.00000000000E+00 -0.16990035857E+03  0.16990035857E+03  0.00000000000E+00 0. -1.
         23    2    1    2    0    0 -0.14536722978E+02 -0.68799015738E+02 -0.53525710335E+02  0.15309387916E+03  0.12501245253E+03 0.  0.
          5    1    3    3  502    0  0.15476251754E+02 -0.15403894873E+02  0.37280613991E+02  0.43459504428E+02  0.47000000000E+01 0. -1.
         -5    1    3    3    0  502 -0.30012974733E+02 -0.53395120865E+02 -0.90806324326E+02  0.10963437473E+03  0.47000000000E+01 0. -1.
        -11    1    1    2    0    0  0.21976101176E+02  0.12377514321E+03  0.20939863138E+02  0.12744297928E+03  0.00000000000E+00 0.  1.
         11    1    1    2    0    0 -0.74393781980E+01 -0.54976127471E+02  0.44343684349E+02  0.71021695850E+02  0.00000000000E+00 0. -1.
<mgrwt>
<rscale>  0 0.17529664E+03</rscale>
<asrwt>0</asrwt>
<pdfrwt beam="2">  1        1 0.26138517E-01 0.18742008E+03</pdfrwt>
<pdfrwt beam="1">  1       -1 0.27947415E-01 0.18742008E+03</pdfrwt>
<totfact> 0.20550476E+03</totfact>
</mgrwt>
</event>
<event>
 7    1  0.5206756E-006  0.1731028E+03  0.7546771E-02  0.1181260E+00
          2   -1    0    0  501    0  0.00000000000E+00  0.00000000000E+00  0.66173802553E+03  0.66173802553E+03  0.00000000000E+00 0. -1.
         -2   -1    0    0    0  501 -0.00000000000E+00 -0.00000000000E+00 -0.12816902228E+03  0.12816902228E+03  0.00000000000E+00 0.  1.
         23    2    1    2    0    0  0.11834429094E+03 -0.18259874729E+02  0.60159171287E+03  0.62600093646E+03  0.12500315689E+03 0.  0.
          5    1    3    3  502    0  0.24147093814E+02  0.10376579997E+02  0.13899637760E+02  0.30100589396E+02  0.47000000000E+01 0.  1.
         -5    1    3    3    0  502  0.94197197125E+02 -0.28636454726E+02  0.58769207511E+03  0.59590034706E+03  0.47000000000E+01 0.  1.
        -11    1    1    2    0    0 -0.93561933123E+02 -0.27062432104E+02 -0.42015515926E+02  0.10607315466E+03  0.00000000000E+00 0. -1.
         11    1    1    2    0    0 -0.24782357817E+02  0.45322306833E+02 -0.26007193689E+02  0.57832956687E+02  0.00000000000E+00 0.  1.
<mgrwt>
<rscale>  0 0.16676901E+03</rscale>
<asrwt>0</asrwt>
<pdfrwt beam="1">  1        2 0.10180585E+00 0.17310281E+03</pdfrwt>
<pdfrwt beam="2">  1       -2 0.19718311E-01 0.17310281E+03</pdfrwt>
<totfact> 0.96867801E+02</totfact>
</mgrwt>
</event>
<event>
 7    1  0.5206756E-006  0.1368070E+03  0.7546771E-02  0.1229397E+00
          2   -1    0    0  501    0  0.00000000000E+00  0.00000000000E+00  0.43050860202E+03  0.43050860202E+03  0.00000000000E+00 0. -1.
         -2   -1    0    0    0  501 -0.00000000000E+00 -0.00000000000E+00 -0.41364713593E+02  0.41364713593E+02  0.00000000000E+00 0.  1.
         23    2    1    2    0    0 -0.26059250188E+02 -0.49103467455E+02  0.30942755258E+03  0.33832167080E+03  0.12500363035E+03 0.  0.
          5    1    3    3  502    0 -0.58955458017E+02  0.20417778725E+01  0.23375253815E+03  0.24112704946E+03  0.47000000000E+01 0.  1.
         -5    1    3    3    0  502  0.32896207830E+02 -0.51145245328E+02  0.75675014429E+02  0.97194621343E+02  0.47000000000E+01 0.  1.
        -11    1    1    2    0    0  0.62441042559E+00  0.19039824288E+02 -0.19222990904E+02  0.27063410291E+02  0.00000000000E+00 0.  1.
         11    1    1    2    0    0  0.25434839762E+02  0.30063643168E+02  0.98939326754E+02  0.10648823453E+03  0.00000000000E+00 0. -1.
<mgrwt>
<rscale>  0 0.12870050E+03</rscale>
<asrwt>0</asrwt>
<pdfrwt beam="1">  1        2 0.66232089E-01 0.13680695E+03</pdfrwt>
<pdfrwt beam="2">  1       -2 0.63638024E-02 0.13680695E+03</pdfrwt>
<totfact> 0.94657289E+03</totfact>
</mgrwt>
</event>
<event>
 7    1  0.5206756E-006  0.1291385E+03  0.7546771E-02  0.1240949E+00
          1   -1    0    0  501    0  0.00000000000E+00  0.00000000000E+00  0.16234667296E+04  0.16234667296E+04  0.00000000000E+00 0. -1.
         -1   -1    0    0    0  501 -0.00000000000E+00 -0.00000000000E+00 -0.88064920010E+01  0.88064920010E+01  0.00000000000E+00 0.  1.
         23    2    1    2    0    0  0.30840280140E+02 -0.10018693515E+02  0.11253941398E+04  0.11327791983E+04  0.12500098009E+03 0.  0.
          5    1    3    3  502    0 -0.11094205204E+02  0.40917636918E+02  0.17644356462E+03  0.18152618515E+03  0.47000000000E+01 0. -1.
         -5    1    3    3    0  502  0.41934485343E+02 -0.50936330432E+02  0.94895057519E+03  0.95125301313E+03  0.47000000000E+01 0. -1.
        -11    1    1    2    0    0  0.31162258227E+02  0.20703541734E+02  0.19920417666E+03  0.20268701729E+03  0.00000000000E+00 0. -1.
         11    1    1    2    0    0 -0.62002538367E+02 -0.10684848219E+02  0.29006192113E+03  0.29680700604E+03  0.00000000000E+00 0.  1.
<mgrwt>
<rscale>  0 0.12131137E+03</rscale>
<asrwt>0</asrwt>
<pdfrwt beam="1">  1        1 0.24976387E+00 0.12913846E+03</pdfrwt>
<pdfrwt beam="2">  1       -1 0.13548462E-02 0.12913846E+03</pdfrwt>
<totfact> 0.70221237E+03</totfact>
</mgrwt>
</event>
<event>
 7    1  0.5206756E-006  0.1394846E+03  0.7546771E-02  0.1225694E+00
         -1   -1    0    0    0  501 -0.00000000000E+00  0.00000000000E+00  0.42322946626E+02  0.42322946626E+02  0.00000000000E+00 0.  1.
          1   -1    0    0  501    0  0.00000000000E+00 -0.00000000000E+00 -0.36576404009E+03  0.36576404009E+03  0.00000000000E+00 0. -1.
         23    2    1    2    0    0  0.54763365395E+02 -0.28800119488E+02 -0.18928551488E+03  0.23512756009E+03  0.12500996080E+03 0.  0.
          5    1    3    3  502    0  0.86797437753E+02 -0.50459509999E+02 -0.13453468757E+03  0.16793340796E+03  0.47000000000E+01 0. -1.
         -5    1    3    3    0  502 -0.32034072359E+02  0.21659390511E+02 -0.54750827307E+02  0.67194152127E+02  0.47000000000E+01 0. -1.
        -11    1    1    2    0    0  0.23678508432E+02 -0.67038003331E+00 -0.43340967913E+02  0.49391908959E+02  0.00000000000E+00 0. -1.
         11    1    1    2    0    0 -0.78441873827E+02  0.29470499521E+02 -0.90814610676E+02  0.12356751767E+03  0.00000000000E+00 0.  1.
<mgrwt>
<rscale>  0 0.13119484E+03</rscale>
<asrwt>0</asrwt>
<pdfrwt beam="2">  1        1 0.56271389E-01 0.13948463E+03</pdfrwt>
<pdfrwt beam="1">  1       -1 0.65112227E-02 0.13948463E+03</pdfrwt>
<totfact> 0.76594081E+03</totfact>
</mgrwt>
</event>
<event>
 6    1  0.5206756E-006  0.2362003E+03  0.7546771E-02  0.1136466E+00
          1   -1    0    0  501    0  0.00000000000E+00  0.00000000000E+00  0.72681684854E+03  0.72681684854E+03  0.00000000000E+00 0. -1.
         -1   -1    0    0    0  501 -0.00000000000E+00 -0.00000000000E+00 -0.56720991365E+02  0.56720991365E+02  0.00000000000E+00 0.  1.
          5    1    1    2  502    0 -0.17095834381E+03  0.48289768900E+02  0.38581144147E+03  0.42477195702E+03  0.47000000000E+01 0. -1.
         -5    1    1    2    0  502  0.30828375781E+02 -0.40207839128E+02  0.52383839273E+02  0.73028868933E+02  0.47000000000E+01 0.  1.
        -11    1    1    2    0    0  0.13558915478E+03  0.69600357079E+01  0.23333485055E+03  0.26995928114E+03  0.00000000000E+00 0.  1.
         11    1    1    2    0    0  0.45408132488E+01 -0.15041965480E+02 -0.14342741198E+01  0.15777732813E+02  0.00000000000E+00 0. -1.
<mgrwt>
<rscale>  0 0.21656987E+03</rscale>
<asrwt>0</asrwt>
<pdfrwt beam="1">  1        1 0.11181797E+00 0.23620025E+03</pdfrwt>
<pdfrwt beam="2">  1       -1 0.87263069E-02 0.23620025E+03</pdfrwt>
<totfact> 0.20018472E+03</totfact>
</mgrwt>
</event>
<event>
 7    1  0.5206756E-006  0.1345134E+03  0.7546771E-02  0.1234382E+00
         -2   -1    0    0    0  501 -0.00000000000E+00  0.00000000000E+00  0.25368319367E+02  0.25368319367E+02  0.00000000000E+00 0. -1.
          2   -1    0    0  501    0  0.00000000000E+00 -0.00000000000E+00 -0.62636760199E+03  0.62636760199E+03  0.00000000000E+00 0.  1.
         23    2    1    2    0    0 -0.49628797937E+02 -0.25825472293E+01 -0.44992338515E+03  0.46960079171E+03  0.12499665570E+03 0.  0.
          5    1    3    3  502    0 -0.69820747407E+02  0.17575021629E+02 -0.42601235892E+03  0.43207920351E+03  0.47000000000E+01 0. -1.
         -5    1    3    3    0  502  0.20191949470E+02 -0.20157568858E+02 -0.23911026229E+02  0.37521588199E+02  0.47000000000E+01 0. -1.
        -11    1    1    2    0    0  0.26493384374E+02 -0.22093988785E+02 -0.14334454012E+03  0.14743710842E+03  0.00000000000E+00 0.  1.
         11    1    1    2    0    0  0.23135413563E+02  0.24676536014E+02 -0.77313573470E+01  0.34698021223E+02  0.00000000000E+00 0. -1.
<mgrwt>
<rscale>  0 0.12544053E+03</rscale>
<asrwt>0</asrwt>
<pdfrwt beam="2">  1        2 0.96364239E-01 0.13451339E+03</pdfrwt>
<pdfrwt beam="1">  1       -2 0.39028187E-02 0.13451339E+03</pdfrwt>
<totfact> 0.13006540E+04</totfact>
</mgrwt>
</event>
<event>
 7    1  0.5206756E-006  0.1644779E+03  0.7546771E-02  0.1190731E+00
          1   -1    0    0  501    0  0.00000000000E+00  0.00000000000E+00  0.19813609769E+03  0.19813609769E+03  0.00000000000E+00 0. -1.
         -1   -1    0    0    0  501 -0.00000000000E+00 -0.00000000000E+00 -0.25568609528E+03  0.25568609528E+03  0.00000000000E+00 0.  1.
         23    2    1    2    0    0 -0.72504139753E+02 -0.78547611792E+02  0.13672488711E+03  0.21388468710E+03  0.12500554796E+03 0.  0.
          5    1    3    3  502    0 -0.96722683022E+02 -0.28099663422E+02  0.11678881524E+03  0.15429382962E+03  0.47000000000E+01 0. -1.
         -5    1    3    3    0  502  0.24218543270E+02 -0.50447948370E+02  0.19936071871E+02  0.59590857474E+02  0.47000000000E+01 0. -1.
        -11    1    1    2    0    0 -0.13098217705E+02  0.43453933762E+02 -0.42440196776E+02  0.62136768252E+02  0.00000000000E+00 0. -1.
         11    1    1    2    0    0  0.85602357457E+02  0.35093678030E+02 -0.15183468792E+03  0.17780073762E+03  0.00000000000E+00 0.  1.
<mgrwt>
<rscale>  0 0.15821165E+03</rscale>
<asrwt>0</asrwt>
<pdfrwt beam="1">  1        1 0.30482477E-01 0.16447785E+03</pdfrwt>
<pdfrwt beam="2">  1       -1 0.39336322E-01 0.16447785E+03</pdfrwt>
<totfact> 0.93976168E+02</totfact>
</mgrwt>
</event>
<event>
 7    1  0.5206756E-006  0.1259925E+03  0.7546771E-02  0.1244042E+00
          2   -1    0    0  501    0  0.00000000000E+00  0.00000000000E+00  0.11318382306E+03  0.11318382306E+03  0.00000000000E+00 0. -1.
         -2   -1    0    0    0  501 -0.00000000000E+00 -0.00000000000E+00 -0.14630079669E+03  0.14630079669E+03  0.00000000000E+00 0.  1.
         23    2    1    2    0    0 -0.15174491429E+02 -0.43265636615E+01  0.42247864855E+02  0.13288709870E+03  0.12500045830E+03 0.  0.
          5    1    3    3  502    0 -0.43896841620E+02 -0.53100401677E+01  0.76158083915E+02  0.88188848368E+02  0.47000000000E+01 0. -1.
         -5    1    3    3    0  502  0.28722350191E+02  0.98347650622E+00 -0.33910219060E+02  0.44698250337E+02  0.47000000000E+01 0. -1.
        -11    1    1    2    0    0 -0.43622317757E+01 -0.27890974360E+02 -0.83420523146E+02  0.88067696681E+02  0.00000000000E+00 0.  1.
         11    1    1    2    0    0  0.19536723205E+02  0.32217538022E+02  0.80556846666E+01  0.38529824360E+02  0.00000000000E+00 0. -1.
<mgrwt>
<rscale>  0 0.11942922E+03</rscale>
<asrwt>0</asrwt>
<pdfrwt beam="1">  1        2 0.17412896E-01 0.12599246E+03</pdfrwt>
<pdfrwt beam="2">  1       -2 0.22507815E-01 0.12599246E+03</pdfrwt>
<totfact> 0.52922085E+03</totfact>
</mgrwt>
</event>
<event>
 7    1  0.5206756E-006  0.1368497E+03  0.7546771E-02  0.1229382E+00
          1   -1    0    0  501    0  0.00000000000E+00  0.00000000000E+00  0.10377100897E+04  0.10377100897E+04  0.00000000000E+00 0. -1.
         -1   -1    0    0    0  501 -0.00000000000E+00 -0.00000000000E+00 -0.17124246351E+02  0.17124246351E+02  0.00000000000E+00 0.  1.
         23    2    1    2    0    0  0.51953173171E+02 -0.20069823650E+02  0.77394338331E+03  0.78594923043E+03  0.12500360884E+03 0.  0.
          5    1    3    3  502    0  0.32310376164E+02  0.43499504208E+02  0.53850846675E+03  0.54124821112E+03  0.47000000000E+01 0. -1.
         -5    1    3    3    0  502  0.19642797007E+02 -0.63569327858E+02  0.23543491656E+03  0.24470101931E+03  0.47000000000E+01 0. -1.
        -11    1    1    2    0    0  0.10966300321E+02 -0.13248707395E+02  0.64588017977E+01  0.18371284959E+02  0.00000000000E+00 0.  1.
         11    1    1    2    0    0 -0.62919473492E+02  0.33318531046E+02  0.24018365821E+03  0.25051382063E+03  0.00000000000E+00 0. -1.
<mgrwt>
<rscale>  0 0.12871009E+03</rscale>
<asrwt>0</asrwt>
<pdfrwt beam="1">  1        1 0.15964766E+00 0.13684967E+03</pdfrwt>
<pdfrwt beam="2">  1       -1 0.26345003E-02 0.13684967E+03</pdfrwt>
<totfact> 0.66612392E+03</totfact>
</mgrwt>
</event>
<event>
 7    1  0.5206756E-006  0.1677581E+03  0.7546771E-02  0.1186969E+00
         -1   -1    0    0    0  501 -0.00000000000E+00  0.00000000000E+00  0.47313677615E+02  0.47313677615E+02  0.00000000000E+00 0.  1.
          1   -1    0    0  501    0  0.00000000000E+00 -0.00000000000E+00 -0.71697275471E+03  0.71697275471E+03  0.00000000000E+00 0. -1.
         23    2    1    2    0    0  0.10876859748E+03 -0.25158380063E+02 -0.55568826364E+03  0.58045864748E+03  0.12521678483E+03 0.  0.
          5    1    3    3  502    0  0.49839039896E+02 -0.48298512689E+01 -0.49989314752E+02  0.70910358555E+02  0.47000000000E+01 0.  1.
         -5    1    3    3    0  502  0.58929557583E+02 -0.20328528794E+02 -0.50569894889E+03  0.50954828892E+03  0.47000000000E+01 0.  1.
        -11    1    1    2    0    0 -0.18232323282E+02  0.17836046774E+02  0.12271519146E+02  0.28304281636E+02  0.00000000000E+00 0.  1.
         11    1    1    2    0    0 -0.90536274196E+02  0.73223332892E+01 -0.12624233260E+03  0.15552350321E+03  0.00000000000E+00 0. -1.
<mgrwt>
<rscale>  0 0.16153970E+03</rscale>
<asrwt>0</asrwt>
<pdfrwt beam="2">  1        1 0.11030350E+00 0.16775814E+03</pdfrwt>
<pdfrwt beam="1">  1       -1 0.72790276E-02 0.16775814E+03</pdfrwt>
<totfact> 0.26731366E+03</totfact>
</mgrwt>
</event>
<event>
 7    1  0.5206756E-006  0.1446365E+03  0.7546771E-02  0.1217264E+00
          2   -1    0    0  501    0  0.00000000000E+00  0.00000000000E+00  0.54872376094E+02  0.54872376094E+02  0.00000000000E+00 0. -1.
         -2   -1    0    0    0  501 -0.00000000000E+00 -0.00000000000E+00 -0.31184494620E+03  0.31184494620E+03  0.00000000000E+00 0.  1.
         23    2    1    2    0    0 -0.96671671823E+01 -0.72107863315E+02 -0.14866148206E+03  0.20741253027E+03  0.12500689337E+03 0.  0.
          5    1    3    3  502    0  0.13975373364E+02 -0.88560806923E+02 -0.46386681036E+02  0.10105514218E+03  0.47000000000E+01 0.  1.
         -5    1    3    3    0  502 -0.23642540546E+02  0.16452943607E+02 -0.10227480102E+03  0.10635738809E+03  0.47000000000E+01 0.  1.
        -11    1    1    2    0    0  0.17755016835E+02  0.34498439408E+02 -0.11399588194E+03  0.12041778957E+03  0.00000000000E+00 0.  1.
         11    1    1    2    0    0 -0.80878496522E+01  0.37609423907E+02  0.56847938945E+01  0.38887002459E+02  0.00000000000E+00 0. -1.
<mgrwt>
<rscale>  0 0.13711565E+03</rscale>
<asrwt>0</asrwt>
<pdfrwt beam="1">  1        2 0.84419040E-02 0.14463651E+03</pdfrwt>
<pdfrwt beam="2">  1       -2 0.47976145E-01 0.14463651E+03</pdfrwt>
<totfact> 0.31851101E+03</totfact>
</mgrwt>
</event>
<event>
 7    1  0.5206756E-006  0.1390945E+03  0.7546771E-02  0.1225887E+00
         -2   -1    0    0    0  501 -0.00000000000E+00  0.00000000000E+00  0.18601000308E+02  0.18601000308E+02  0.00000000000E+00 0.  1.
          2   -1    0    0  501    0  0.00000000000E+00 -0.00000000000E+00 -0.85521669313E+03  0.85521669313E+03  0.00000000000E+00 0. -1.
         23    2    1    2    0    0  0.44163554184E+02  0.42087837313E+02 -0.39430017947E+03  0.41811470212E+03  0.12500186811E+03 0.  0.
          5    1    3    3  502    0  0.74736542223E+02  0.48927222685E+02 -0.17498072011E+03  0.19651912445E+03  0.47000000000E+01 0.  1.
         -5    1    3    3    0  502 -0.30572988040E+02 -0.68393853721E+01 -0.21931945936E+03  0.22159557767E+03  0.47000000000E+01 0.  1.
        -11    1    1    2    0    0 -0.65813076519E+02 -0.64216973455E+01 -0.22951364596E+03  0.23884956127E+03  0.00000000000E+00 0.  1.
         11    1    1    2    0    0  0.21649522335E+02 -0.35666139968E+02 -0.21280186739E+03  0.21685343005E+03  0.00000000000E+00 0. -1.
<mgrwt>
<rscale>  0 0.13106309E+03</rscale>
<asrwt>0</asrwt>
<pdfrwt beam="2">  1        2 0.13157180E+00 0.13909447E+03</pdfrwt>
<pdfrwt beam="1">  1       -2 0.28616924E-02 0.13909447E+03</pdfrwt>
<totfact> 0.14147194E+04</totfact>
</mgrwt>
</event>
<event>
 7    1  0.5206756E-006  0.1887544E+03  0.7546771E-02  0.1164203E+00
         -2   -1    0    0    0  501 -0.00000000000E+00  0.00000000000E+00  0.72843174695E+02  0.72843174695E+02  0.00000000000E+00 0.  1.
          2   -1    0    0  501    0  0.00000000000E+00 -0.00000000000E+00 -0.11739054677E+04  0.11739054677E+04  0.00000000000E+00 0. -1.
         23    2    1    2    0    0  0.10626526283E+03 -0.93315807825E+02 -0.10539698776E+04  0.10707384061E+04  0.12501234063E+03 0.  0.
          5    1    3    3  502    0  0.24946881730E+02  0.56973316800E+00 -0.30224101482E+02  0.39474774406E+02  0.47000000000E+01 0.  1.
         -5    1    3    3    0  502  0.81318381096E+02 -0.93885540993E+02 -0.10237457761E+04  0.10312636317E+04  0.47000000000E+01 0.  1.
        -11    1    1    2    0    0 -0.92040631881E+02  0.44318299836E+02 -0.65975534923E+02  0.12160740449E+03  0.00000000000E+00 0. -1.
         11    1    1    2    0    0 -0.14224630945E+02  0.48997507989E+02  0.18883119469E+02  0.54402831871E+02  0.00000000000E+00 0.  1.
<mgrwt>
<rscale>  0 0.18377019E+03</rscale>
<asrwt>0</asrwt>
<pdfrwt beam="2">  1        2 0.18060084E+00 0.18875442E+03</pdfrwt>
<pdfrwt beam="1">  1       -2 0.11206643E-01 0.18875442E+03</pdfrwt>
<totfact> 0.11480396E+03</totfact>
</mgrwt>
</event>
<event>
 7    1  0.5206756E-006  0.1410831E+03  0.7546771E-02  0.1220242E+00
          1   -1    0    0  501    0  0.00000000000E+00  0.00000000000E+00  0.10653476211E+04  0.10653476211E+04  0.00000000000E+00 0. -1.
         -1   -1    0    0    0  501 -0.00000000000E+00 -0.00000000000E+00 -0.16539874905E+02  0.16539874905E+02  0.00000000000E+00 0.  1.
         23    2    1    2    0    0 -0.47072661494E+02 -0.45574190026E+02  0.68409780206E+03  0.69849426040E+03  0.12494633561E+03 0.  0.
          5    1    3    3  502    0 -0.52596400552E+02  0.25601548443E+02  0.17949554856E+03  0.18884534039E+03  0.47000000000E+01 0. -1.
         -5    1    3    3    0  502  0.55237390588E+01 -0.71175738468E+02  0.50460225349E+03  0.50964892001E+03  0.47000000000E+01 0. -1.
        -11    1    1    2    0    0  0.89372368746E+01  0.65943775141E+02  0.14599797332E+03  0.16044894483E+03  0.00000000000E+00 0. -1.
         11    1    1    2    0    0  0.38135424619E+02 -0.20369585115E+02  0.21871197086E+03  0.22294429081E+03  0.00000000000E+00 0.  1.
<mgrwt>
<rscale>  0 0.13498422E+03</rscale>
<asrwt>0</asrwt>
<pdfrwt beam="1">  1        1 0.16389958E+00 0.14108306E+03</pdfrwt>
<pdfrwt beam="2">  1       -1 0.25445970E-02 0.14108306E+03</pdfrwt>
<totfact> 0.67021385E+03</totfact>
</mgrwt>
</event>
<event>
 7    1  0.5206756E-006  0.2194639E+03  0.7546771E-02  0.1137237E+00
          2   -1    0    0  501    0  0.00000000000E+00  0.00000000000E+00  0.76858337514E+03  0.76858337514E+03  0.00000000000E+00 0. -1.
         -2   -1    0    0    0  501 -0.00000000000E+00 -0.00000000000E+00 -0.61869057955E+02  0.61869057955E+02  0.00000000000E+00 0.  1.
         23    2    1    2    0    0 -0.17760883975E+03  0.31456776466E+02  0.46358515599E+03  0.51290897496E+03  0.12501996237E+03 0.  0.
          5    1    3    3  502    0 -0.13254427956E+03 -0.13152015143E+02  0.40530880660E+03  0.42665944294E+03  0.47000000000E+01 0. -1.
         -5    1    3    3    0  502 -0.45064560191E+02  0.44608791609E+02  0.58276349393E+02  0.86249532014E+02  0.47000000000E+01 0. -1.
        -11    1    1    2    0    0  0.11217686193E+03  0.74307237571E+01  0.81398997195E+02  0.13879719288E+03  0.00000000000E+00 0.  1.
         11    1    1    2    0    0  0.65431977824E+02 -0.38887500223E+02  0.16173016400E+03  0.17874626526E+03  0.00000000000E+00 0. -1.
<mgrwt>
<rscale>  0 0.21555996E+03</rscale>
<asrwt>0</asrwt>
<pdfrwt beam="1">  1        2 0.11824359E+00 0.21946394E+03</pdfrwt>
<pdfrwt beam="2">  1       -2 0.95183172E-02 0.21946394E+03</pdfrwt>
<totfact> 0.26646203E+03</totfact>
</mgrwt>
</event>
<event>
 7    1  0.5206756E-006  0.1254584E+03  0.7546771E-02  0.1249248E+00
         -3   -1    0    0    0  501 -0.00000000000E+00  0.00000000000E+00  0.56941466618E+02  0.56941466618E+02  0.00000000000E+00 0.  1.
          3   -1    0    0  501    0  0.00000000000E+00 -0.00000000000E+00 -0.22888523206E+03  0.22888523206E+03  0.00000000000E+00 0. -1.
         23    2    1    2    0    0 -0.61929434951E+01  0.88085972772E+01 -0.13927397718E+03  0.18744882503E+03  0.12499550932E+03 0.  0.
          5    1    3    3  502    0  0.54563401119E+02 -0.12346109946E+02 -0.39517331543E+02  0.68653482539E+02  0.47000000000E+01 0. -1.
         -5    1    3    3    0  502 -0.60756344614E+02  0.21154707223E+02 -0.99756645636E+02  0.11879534249E+03  0.47000000000E+01 0. -1.
        -11    1    1    2    0    0 -0.38343706133E+02 -0.24337316024E+02 -0.12693966151E+02  0.47155927813E+02  0.00000000000E+00 0.  1.
         11    1    1    2    0    0  0.44536649628E+02  0.15528718747E+02 -0.19975822108E+02  0.51221945833E+02  0.00000000000E+00 0. -1.
<mgrwt>
<rscale>  0 0.11634720E+03</rscale>
<asrwt>0</asrwt>
<pdfrwt beam="2">  1        3 0.35213113E-01 0.12545844E+03</pdfrwt>
<pdfrwt beam="1">  1       -3 0.87602256E-02 0.12545844E+03</pdfrwt>
<totfact> 0.16522882E+03</totfact>
</mgrwt>
</event>
<event>
 7    1  0.5206756E-006  0.1658461E+03  0.7546771E-02  0.1189417E+00
         -2   -1    0    0    0  501 -0.00000000000E+00  0.00000000000E+00  0.10426370265E+03  0.10426370265E+03  0.00000000000E+00 0.  1.
          2   -1    0    0  501    0  0.00000000000E+00 -0.00000000000E+00 -0.22738373288E+03  0.22738373288E+03  0.00000000000E+00 0. -1.
         23    2    1    2    0    0 -0.20468733861E+02  0.10693042891E+03 -0.77606447764E+02  0.18310563560E+03  0.12510726342E+03 0.  0.
          5    1    3    3  502    0  0.39347129232E+02  0.96183527880E+02 -0.39814140404E+02  0.11138547208E+03  0.47000000000E+01 0. -1.
         -5    1    3    3    0  502 -0.59815863093E+02  0.10746901027E+02 -0.37792307360E+02  0.71720163516E+02  0.47000000000E+01 0. -1.
        -11    1    1    2    0    0 -0.23042566073E+02  0.26114130616E+01 -0.37321820191E+01  0.23488476154E+02  0.00000000000E+00 0. -1.
         11    1    1    2    0    0  0.43511299934E+02 -0.10954184197E+03 -0.41781400449E+02  0.12505332378E+03  0.00000000000E+00 0.  1.
<mgrwt>
<rscale>  0 0.15936358E+03</rscale>
<asrwt>0</asrwt>
<pdfrwt beam="2">  1        2 0.34982112E-01 0.16584605E+03</pdfrwt>
<pdfrwt beam="1">  1       -2 0.16040570E-01 0.16584605E+03</pdfrwt>
<totfact> 0.43932606E+03</totfact>
</mgrwt>
</event>
<event>
 7    1  0.5206756E-006  0.1303331E+03  0.7546771E-02  0.1235986E+00
         -1   -1    0    0    0  501 -0.00000000000E+00  0.00000000000E+00  0.34551999844E+02  0.34551999844E+02  0.00000000000E+00 0.  1.
          1   -1    0    0  501    0  0.00000000000E+00 -0.00000000000E+00 -0.47753709787E+03  0.47753709787E+03  0.00000000000E+00 0. -1.
         23    2    1    2    0    0  0.15252001693E+02 -0.50793117845E+02 -0.33385842211E+03  0.35839667312E+03  0.11905530194E+03 0.  0.
          5    1    3    3  502    0 -0.34642567942E+02 -0.13712811703E+02 -0.29597890936E+02  0.47814996249E+02  0.47000000000E+01 0. -1.
         -5    1    3    3    0  502  0.49894569635E+02 -0.37080306142E+02 -0.30426053117E+03  0.31058167688E+03  0.47000000000E+01 0.  1.
        -11    1    1    2    0    0 -0.86239400486E+00  0.25908957415E+02 -0.12014353170E+03  0.12290844563E+03  0.00000000000E+00 0. -1.
         11    1    1    2    0    0 -0.14389607688E+02  0.24884160430E+02  0.11016855775E+02  0.30783978964E+02  0.00000000000E+00 0.  1.
<mgrwt>
<rscale>  0 0.12441520E+03</rscale>
<asrwt>0</asrwt>
<pdfrwt beam="2">  1        1 0.73467243E-01 0.13033315E+03</pdfrwt>
<pdfrwt beam="1">  1       -1 0.53156925E-02 0.13033315E+03</pdfrwt>
<totfact> 0.73539004E+03</totfact>
</mgrwt>
</event>
<event>
 7    1  0.5206756E-006  0.1879946E+03  0.7546771E-02  0.1165297E+00
          1   -1    0    0  501    0  0.00000000000E+00  0.00000000000E+00  0.55552231199E+02  0.55552231199E+02  0.00000000000E+00 0. -1.
         -1   -1    0    0    0  501 -0.00000000000E+00 -0.00000000000E+00 -0.59104679060E+03  0.59104679060E+03  0.00000000000E+00 0.  1.
         23    2    1    2    0    0  0.10602577287E+03 -0.92063059536E+02 -0.21942018062E+03  0.28894151234E+03  0.12499964178E+03 0.  0.
          5    1    3    3  502    0  0.12677789921E+03 -0.45141666748E+02 -0.13978506242E+03  0.19409368738E+03  0.47000000000E+01 0. -1.
         -5    1    3    3    0  502 -0.20752126341E+02 -0.46921392788E+02 -0.79635118202E+02  0.94847824961E+02  0.47000000000E+01 0. -1.
        -11    1    1    2    0    0 -0.20751371800E+02  0.29112478546E+02 -0.15545042348E+02  0.38984665963E+02  0.00000000000E+00 0. -1.
         11    1    1    2    0    0 -0.85274401069E+02  0.62950580990E+02 -0.30052933644E+03  0.31867284350E+03  0.00000000000E+00 0.  1.
<mgrwt>
<rscale>  0 0.18261423E+03</rscale>
<asrwt>0</asrwt>
<pdfrwt beam="1">  1        1 0.85464967E-02 0.18799463E+03</pdfrwt>
<pdfrwt beam="2">  1       -1 0.90930280E-01 0.18799463E+03</pdfrwt>
<totfact> 0.97995870E+02</totfact>
</mgrwt>
</event>
<event>
 7    1  0.5206756E-006  0.1270269E+03  0.7546771E-02  0.1246785E+00
          1   -1    0    0  501    0  0.00000000000E+00  0.00000000000E+00  0.12376921358E+04  0.12376921358E+04  0.00000000000E+00 0. -1.
         -1   -1    0    0    0  501 -0.00000000000E+00 -0.00000000000E+00 -0.12374347770E+02  0.12374347770E+02  0.00000000000E+00 0.  1.
         23    2    1    2    0    0 -0.21400085267E+02 -0.60345813746E+01  0.96496387031E+03  0.97328881463E+03  0.12506584608E+03 0.  0.
          5    1    3    3  502    0  0.48093886262E+02 -0.24996033007E+01  0.58342561989E+03  0.58542874362E+03  0.47000000000E+01 0. -1.
         -5    1    3    3    0  502 -0.69493971529E+02 -0.35349780739E+01  0.38153825042E+03  0.38786007101E+03  0.47000000000E+01 0. -1.
        -11    1    1    2    0    0 -0.27356593024E+02  0.28571973983E+02  0.12680414632E+03  0.13283084131E+03  0.00000000000E+00 0. -1.
         11    1    1    2    0    0  0.48756678291E+02 -0.22537392608E+02  0.13354977136E+03  0.14394682759E+03  0.00000000000E+00 0.  1.
<mgrwt>
<rscale>  0 0.11779206E+03</rscale>
<asrwt>0</asrwt>
<pdfrwt beam="1">  1        1 0.19041408E+00 0.12702695E+03</pdfrwt>
<pdfrwt beam="2">  1       -1 0.19037468E-02 0.12702695E+03</pdfrwt>
<totfact> 0.77029316E+03</totfact>
</mgrwt>
</event>
<event>
 6    1  0.5206756E-006  0.1865813E+03  0.7546771E-02  0.1184831E+00
         -3   -1    0    0    0  501 -0.00000000000E+00  0.00000000000E+00  0.18340443564E+03  0.18340443564E+03  0.00000000000E+00 0.  1.
          3   -1    0    0  501    0  0.00000000000E+00 -0.00000000000E+00 -0.20406199267E+03  0.20406199267E+03  0.00000000000E+00 0. -1.
          5    1    1    2  502    0 -0.12209860203E+02  0.65588966687E+02 -0.16867084367E+03  0.18144678763E+03  0.47000000000E+01 0. -1.
         -5    1    1    2    0  502  0.32026377930E+02 -0.80594782724E+01  0.34789654180E+02  0.48198071656E+02  0.47000000000E+01 0.  1.
        -11    1    1    2    0    0 -0.49096831436E+02 -0.73854480983E+01  0.36600610366E+02  0.61681831846E+02  0.00000000000E+00 0. -1.
         11    1    1    2    0    0  0.29280313709E+02 -0.50144040316E+02  0.76623022089E+02  0.96139737175E+02  0.00000000000E+00 0.  1.
<mgrwt>
<rscale>  0 0.16347287E+03</rscale>
<asrwt>0</asrwt>
<pdfrwt beam="2">  1        3 0.31394153E-01 0.18658132E+03</pdfrwt>
<pdfrwt beam="1">  1       -3 0.28216067E-01 0.18658132E+03</pdfrwt>
<totfact> 0.28747853E+02</totfact>
</mgrwt>
</event>
<event>
 7    1  0.5206756E-006  0.1289606E+03  0.7546771E-02  0.1243258E+00
          1   -1    0    0  501    0  0.00000000000E+00  0.00000000000E+00  0.16857729925E+03  0.16857729925E+03  0.00000000000E+00 0. -1.
         -1   -1    0    0    0  501 -0.00000000000E+00 -0.00000000000E+00 -0.19703626171E+03  0.19703626171E+03  0.00000000000E+00 0.  1.
         23    2    1    2    0    0 -0.31255766068E+02 -0.53716244756E+01  0.12810078332E+03  0.18177085543E+03  0.12500022374E+03 0.  0.
          5    1    3    3  502    0  0.12220896253E+02 -0.51060126796E+02  0.19706236038E+02  0.56275328453E+02  0.47000000000E+01 0.  1.
         -5    1    3    3    0  502 -0.43476662321E+02  0.45688502321E+02  0.10839454728E+03  0.12549552698E+03  0.47000000000E+01 0.  1.
        -11    1    1    2    0    0  0.36145612037E+02  0.28561486833E+02 -0.29754050521E+02  0.54841292126E+02  0.00000000000E+00 0. -1.
         11    1    1    2    0    0 -0.48898459692E+01 -0.23189862357E+02 -0.12680569526E+03  0.12900141340E+03  0.00000000000E+00 0.  1.
<mgrwt>
<rscale>  0 0.11990251E+03</rscale>
<asrwt>0</asrwt>
<pdfrwt beam="1">  1        1 0.25934969E-01 0.12896059E+03</pdfrwt>
<pdfrwt beam="2">  1       -1 0.30313271E-01 0.12896059E+03</pdfrwt>
<totfact> 0.17876590E+03</totfact>
</mgrwt>
</event>
<event>
 7    1  0.5206756E-006  0.2102730E+03  0.7546771E-02  0.1148432E+00
          1   -1    0    0  501    0  0.00000000000E+00  0.00000000000E+00  0.52608651910E+02  0.52608651910E+02  0.00000000000E+00 0. -1.
         -1   -1    0    0    0  501 -0.00000000000E+00 -0.00000000000E+00 -0.74611206482E+03  0.74611206482E+03  0.00000000000E+00 0.  1.
         23    2    1    2    0    0 -0.16570755509E+03  0.33616601490E+02 -0.29303688520E+03  0.36067346679E+03  0.12500265537E+03 0.  0.
          5    1    3    3  502    0 -0.14911842929E+03 -0.22335781197E+02 -0.19585552687E+03  0.24721786037E+03  0.47000000000E+01 0. -1.
         -5    1    3    3    0  502 -0.16589125799E+02  0.55952382687E+02 -0.97181358327E+02  0.11345560643E+03  0.47000000000E+01 0. -1.
        -11    1    1    2    0    0  0.52466107694E+02 -0.12841419898E+02 -0.19694376164E+03  0.20421664911E+03  0.00000000000E+00 0.  1.
         11    1    1    2    0    0  0.11324144740E+03 -0.20775181592E+02 -0.20352276607E+03  0.23383060083E+03  0.00000000000E+00 0. -1.
<mgrwt>
<rscale>  0 0.20155661E+03</rscale>
<asrwt>0</asrwt>
<pdfrwt beam="1">  1        1 0.80936392E-02 0.21027300E+03</pdfrwt>
<pdfrwt beam="2">  1       -1 0.11478646E+00 0.21027300E+03</pdfrwt>
<totfact> 0.62753441E+02</totfact>
</mgrwt>
</event>
<event>
 7    1  0.5206756E-006  0.1390405E+03  0.7546771E-02  0.1225141E+00
          1   -1    0    0  501    0  0.00000000000E+00  0.00000000000E+00  0.19453624232E+03  0.19453624232E+03  0.00000000000E+00 0. -1.
         -1   -1    0    0    0  501 -0.00000000000E+00 -0.00000000000E+00 -0.86057472369E+02  0.86057472369E+02  0.00000000000E+00 0.  1.
         23    2    1    2    0    0 -0.15024171189E+02 -0.58999600888E+02  0.94762643043E+02  0.16826232565E+03  0.12500229234E+03 0.  0.
          5    1    3    3  502    0 -0.10936560565E+02 -0.68954307281E+02  0.12085419060E+03  0.13965002770E+03  0.47000000000E+01 0.  1.
         -5    1    3    3    0  502 -0.40876106245E+01  0.99547063933E+01 -0.26091547558E+02  0.28612297950E+02  0.47000000000E+01 0.  1.
        -11    1    1    2    0    0 -0.52945868963E+01  0.20446233097E+02  0.50859249464E+02  0.55070358218E+02  0.00000000000E+00 0. -1.
         11    1    1    2    0    0  0.20318758085E+02  0.38553367791E+02 -0.37143122555E+02  0.57261030826E+02  0.00000000000E+00 0.  1.
<mgrwt>
<rscale>  0 0.13157268E+03</rscale>
<asrwt>0</asrwt>
<pdfrwt beam="1">  1        1 0.29928653E-01 0.13904047E+03</pdfrwt>
<pdfrwt beam="2">  1       -1 0.13239611E-01 0.13904047E+03</pdfrwt>
<totfact> 0.56907787E+03</totfact>
</mgrwt>
</event>
<event>
 6    1  0.5206756E-006  0.1371155E+03  0.7546771E-02  0.1239602E+00
         -2   -1    0    0    0  501 -0.00000000000E+00  0.00000000000E+00  0.81164661855E+02  0.81164661855E+02  0.00000000000E+00 0.  1.
          2   -1    0    0  501    0  0.00000000000E+00 -0.00000000000E+00 -0.22036395066E+03  0.22036395066E+03  0.00000000000E+00 0. -1.
          5    1    1    2  502    0 -0.29962865063E+01 -0.72461291588E+02 -0.90861002995E+02  0.11635045499E+03  0.47000000000E+01 0. -1.
         -5    1    1    2    0  502  0.21526418341E+02  0.60398729096E+02 -0.71128467932E+02  0.95878788651E+02  0.47000000000E+01 0.  1.
        -11    1    1    2    0    0 -0.27449721013E+02 -0.16067675376E+02 -0.19813646663E+02  0.37473163328E+02  0.00000000000E+00 0. -1.
         11    1    1    2    0    0  0.89195891789E+01  0.28130237868E+02  0.42603828787E+02  0.51826205543E+02  0.00000000000E+00 0.  1.
<mgrwt>
<rscale>  0 0.12214362E+03</rscale>
<asrwt>0</asrwt>
<pdfrwt beam="2">  1        2 0.33902146E-01 0.13711551E+03</pdfrwt>
<pdfrwt beam="1">  1       -2 0.12486871E-01 0.13711551E+03</pdfrwt>
<totfact> 0.67541286E+03</totfact>
</mgrwt>
</event>
<event>
 7    1  0.5206756E-006  0.1360005E+03  0.7546771E-02  0.1229957E+00
          1   -1    0    0  501    0  0.00000000000E+00  0.00000000000E+00  0.41377060899E+03  0.41377060899E+03  0.00000000000E+00 0.  1.
         -1   -1    0    0    0  501 -0.00000000000E+00 -0.00000000000E+00 -0.43183130234E+02  0.43183130234E+02  0.00000000000E+00 0. -1.
         23    2    1    2    0    0 -0.10167888407E+02 -0.52603411799E+02  0.29631259644E+03  0.32603263607E+03  0.12500248032E+03 0.  0.
          5    1    3    3  502    0  0.39076020451E+02 -0.58869774911E+02  0.94133819803E+02  0.11779580554E+03  0.47000000000E+01 0.  1.
         -5    1    3    3    0  502 -0.49243908857E+02  0.62663631123E+01  0.20217877664E+03  0.20823683053E+03  0.47000000000E+01 0.  1.
        -11    1    1    2    0    0 -0.14855797512E+02  0.51369925952E+01 -0.18173848444E+02  0.24028570076E+02  0.00000000000E+00 0. -1.
         11    1    1    2    0    0  0.25023685919E+02  0.47466419203E+02  0.92448730763E+02  0.10689253308E+03  0.00000000000E+00 0.  1.
<mgrwt>
<rscale>  0 0.12832839E+03</rscale>
<asrwt>0</asrwt>
<pdfrwt beam="1">  1        1 0.63657014E-01 0.13600046E+03</pdfrwt>
<pdfrwt beam="2">  1       -1 0.66435588E-02 0.13600046E+03</pdfrwt>
<totfact> 0.63541318E+03</totfact>
</mgrwt>
</event>
<event>
 7    1  0.5206756E-006  0.1275175E+03  0.7546771E-02  0.1246514E+00
         -2   -1    0    0    0  501 -0.00000000000E+00  0.00000000000E+00  0.13134570456E+03  0.13134570456E+03  0.00000000000E+00 0.  1.
          2   -1    0    0  501    0  0.00000000000E+00 -0.00000000000E+00 -0.11225017327E+03  0.11225017327E+03  0.00000000000E+00 0. -1.
         23    2    1    2    0    0  0.32407933564E+01  0.25001630422E+02 -0.39360692563E+02  0.13345402061E+03  0.12500050893E+03 0.  0.
          5    1    3    3  502    0  0.10581756104E+02  0.70394970949E+02  0.20848086275E+01  0.71371296220E+02  0.47000000000E+01 0. -1.
         -5    1    3    3    0  502 -0.73409627476E+01 -0.45393340527E+02 -0.41445501190E+02  0.62082724386E+02  0.47000000000E+01 0. -1.
        -11    1    1    2    0    0 -0.13019737007E+02  0.27743990236E+02 -0.20876426094E+00  0.30647775261E+02  0.00000000000E+00 0. -1.
         11    1    1    2    0    0  0.97789436507E+01 -0.52745620658E+02  0.58664988107E+02  0.79494081963E+02  0.00000000000E+00 0.  1.
<mgrwt>
<rscale>  0 0.11795195E+03</rscale>
<asrwt>0</asrwt>
<pdfrwt beam="2">  1        2 0.17269258E-01 0.12751749E+03</pdfrwt>
<pdfrwt beam="1">  1       -2 0.20207031E-01 0.12751749E+03</pdfrwt>
<totfact> 0.64262569E+03</totfact>
</mgrwt>
</event>
<event>
 7    1  0.5206756E-006  0.1436622E+03  0.7546771E-02  0.1218423E+00
          3   -1    0    0  501    0  0.00000000000E+00  0.00000000000E+00  0.16394775559E+03  0.16394775559E+03  0.00000000000E+00 0. -1.
         -3   -1    0    0    0  501 -0.00000000000E+00 -0.00000000000E+00 -0.10616587629E+03  0.10616587629E+03  0.00000000000E+00 0.  1.
         23    2    1    2    0    0 -0.65024529159E+02 -0.28123018027E+02  0.54743305460E+02  0.15373896779E+03  0.12497898699E+03 0.  0.
          5    1    3    3  502    0 -0.36957802783E+02  0.45656262283E+02  0.25356131841E+01  0.58982139724E+02  0.47000000000E+01 0.  1.
         -5    1    3    3    0  502 -0.28066726376E+02 -0.73779280310E+02  0.52207692276E+02  0.94756828067E+02  0.47000000000E+01 0.  1.
        -11    1    1    2    0    0  0.41944304952E+02  0.14241303464E+02 -0.43832018489E+02  0.62316813839E+02  0.00000000000E+00 0.  1.
         11    1    1    2    0    0  0.23080224208E+02  0.13881714563E+02  0.46870592325E+02  0.54057850249E+02  0.00000000000E+00 0. -1.
<mgrwt>
<rscale>  0 0.13628077E+03</rscale>
<asrwt>0</asrwt>
<pdfrwt beam="1">  1        3 0.25222732E-01 0.14366225E+03</pdfrwt>
<pdfrwt beam="2">  1       -3 0.16333212E-01 0.14366225E+03</pdfrwt>
<totfact> 0.11008391E+03</totfact>
</mgrwt>
</event>
<event>
 7    1  0.5206756E-006  0.1606324E+03  0.7546771E-02  0.1196608E+00
          1   -1    0    0  501    0  0.00000000000E+00  0.00000000000E+00  0.99500248455E+02  0.99500248455E+02  0.00000000000E+00 0. -1.
         -1   -1    0    0    0  501 -0.00000000000E+00 -0.00000000000E+00 -0.29779412694E+03  0.29779412694E+03  0.00000000000E+00 0.  1.
         23    2    1    2    0    0  0.55142094466E+02 -0.84487995515E+02 -0.24713904713E+01  0.16065145617E+03  0.12499564245E+03 0.  0.
          5    1    3    3  502    0  0.46027543378E+02 -0.54429543643E+02 -0.61081050178E+02  0.93989864674E+02  0.47000000000E+01 0. -1.
         -5    1    3    3    0  502  0.91145510879E+01 -0.30058451872E+02  0.58609659706E+02  0.66661591500E+02  0.47000000000E+01 0. -1.
        -11    1    1    2    0    0 -0.27414888273E+02  0.19630253534E+02 -0.14710104861E+03  0.15091600795E+03  0.00000000000E+00 0.  1.
         11    1    1    2    0    0 -0.27727206192E+02  0.64857741982E+02 -0.48721439398E+02  0.85726911266E+02  0.00000000000E+00 0. -1.
<mgrwt>
<rscale>  0 0.15318935E+03</rscale>
<asrwt>0</asrwt>
<pdfrwt beam="1">  1        1 0.15307731E-01 0.16063245E+03</pdfrwt>
<pdfrwt beam="2">  1       -1 0.45814480E-01 0.16063245E+03</pdfrwt>
<totfact> 0.17208346E+03</totfact>
</mgrwt>
</event>
<event>
 7    1  0.5206756E-006  0.1708626E+03  0.7546771E-02  0.1183213E+00
         -2   -1    0    0    0  501 -0.00000000000E+00  0.00000000000E+00  0.54825644969E+02  0.54825644969E+02  0.00000000000E+00 0. -1.
          2   -1    0    0  501    0  0.00000000000E+00 -0.00000000000E+00 -0.47189924672E+03  0.47189924672E+03  0.00000000000E+00 0.  1.
         23    2    1    2    0    0  0.12789060382E+02  0.11577539114E+03 -0.25502238317E+03  0.30696977738E+03  0.12500610804E+03 0.  0.
          5    1    3    3  502    0 -0.17503431691E+02  0.85542650093E+02 -0.24848479227E+03  0.26342114018E+03  0.47000000000E+01 0.  1.
         -5    1    3    3    0  502  0.30292492073E+02  0.30232741048E+02 -0.65375909049E+01  0.43548637202E+02  0.47000000000E+01 0.  1.
        -11    1    1    2    0    0 -0.44371725267E+02 -0.56296906501E+02 -0.12171934163E+03  0.14125788407E+03  0.00000000000E+00 0.  1.
         11    1    1    2    0    0  0.31582664884E+02 -0.59478484640E+02 -0.40331876942E+02  0.78497230231E+02  0.00000000000E+00 0. -1.
<mgrwt>
<rscale>  0 0.16495531E+03</rscale>
<asrwt>0</asrwt>
<pdfrwt beam="2">  1        2 0.72599885E-01 0.17086260E+03</pdfrwt>
<pdfrwt beam="1">  1       -2 0.84347145E-02 0.17086260E+03</pdfrwt>
<totfact> 0.56255626E+03</totfact>
</mgrwt>
</event>
<event>
 7    1  0.5206756E-006  0.1408003E+03  0.7546771E-02  0.1223336E+00
          1   -1    0    0  501    0  0.00000000000E+00  0.00000000000E+00  0.25800265085E+03  0.25800265085E+03  0.00000000000E+00 0. -1.
         -1   -1    0    0    0  501 -0.00000000000E+00 -0.00000000000E+00 -0.65533622649E+02  0.65533622649E+02  0.00000000000E+00 0.  1.
         23    2    1    2    0    0  0.39091146542E+02 -0.50949766709E+02  0.14578849733E+03  0.20267956017E+03  0.12530252069E+03 0.  0.
          5    1    3    3  502    0  0.42163715677E+02 -0.89004133703E+02  0.12416700308E+03  0.15855298607E+03  0.47000000000E+01 0. -1.
         -5    1    3    3    0  502 -0.30725691347E+01  0.38054366994E+02  0.21621494244E+02  0.44126574099E+02  0.47000000000E+01 0.  1.
        -11    1    1    2    0    0 -0.70343791714E+01 -0.82677943835E+01 -0.22087042255E+02  0.24610492678E+02  0.00000000000E+00 0. -1.
         11    1    1    2    0    0 -0.32056767371E+02  0.59217561092E+02  0.68767573126E+02  0.96246220651E+02  0.00000000000E+00 0.  1.
<mgrwt>
<rscale>  0 0.13281576E+03</rscale>
<asrwt>0</asrwt>
<pdfrwt beam="1">  1        1 0.39692715E-01 0.14080028E+03</pdfrwt>
<pdfrwt beam="2">  1       -1 0.10082096E-01 0.14080028E+03</pdfrwt>
<totfact> 0.61052971E+03</totfact>
</mgrwt>
</event>
<event>
 7    1  0.5206756E-006  0.1277266E+03  0.7546771E-02  0.1244458E+00
         -1   -1    0    0    0  501 -0.00000000000E+00  0.00000000000E+00  0.40521453417E+02  0.40521453417E+02  0.00000000000E+00 0.  1.
          1   -1    0    0  501    0  0.00000000000E+00 -0.00000000000E+00 -0.34434085051E+03  0.34434085051E+03  0.00000000000E+00 0. -1.
         23    2    1    2    0    0  0.95808159898E+01  0.24284272155E+02 -0.23010494348E+03  0.26317744943E+03  0.12503026420E+03 0.  0.
          5    1    3    3  502    0  0.69609061750E+01  0.65528531738E+02 -0.64135681827E+02  0.92075612243E+02  0.47000000000E+01 0.  1.
         -5    1    3    3    0  502  0.26199098148E+01 -0.41244259583E+02 -0.16596926165E+03  0.17110183719E+03  0.47000000000E+01 0.  1.
        -11    1    1    2    0    0 -0.32018393432E+02  0.63677174350E+01 -0.76922305843E+02  0.83562949203E+02  0.00000000000E+00 0. -1.
         11    1    1    2    0    0  0.22437577443E+02 -0.30651989590E+02  0.32078522270E+01  0.38121905294E+02  0.00000000000E+00 0.  1.
<mgrwt>
<rscale>  0 0.11917854E+03</rscale>
<asrwt>0</asrwt>
<pdfrwt beam="2">  1        1 0.52975520E-01 0.12772660E+03</pdfrwt>
<pdfrwt beam="1">  1       -1 0.62340693E-02 0.12772660E+03</pdfrwt>
<totfact> 0.87592571E+03</totfact>
</mgrwt>
</event>
<event>
 7    1  0.5206756E-006  0.1711958E+03  0.7546771E-02  0.1183068E+00
         -2   -1    0    0    0  501 -0.00000000000E+00  0.00000000000E+00  0.46725456135E+02  0.46725456135E+02  0.00000000000E+00 0.  1.
          2   -1    0    0  501    0  0.00000000000E+00 -0.00000000000E+00 -0.58869306573E+03  0.58869306573E+03  0.00000000000E+00 0. -1.
         23    2    1    2    0    0  0.73949080943E+02 -0.90636240616E+02 -0.37524438896E+03  0.41245164705E+03  0.12499846007E+03 0.  0.
          5    1    3    3  502    0  0.10123832308E+03 -0.41579478540E+02 -0.19565293482E+03  0.22423249541E+03  0.47000000000E+01 0.  1.
         -5    1    3    3    0  502 -0.27289242133E+02 -0.49056762075E+02 -0.17959145414E+03  0.18821915163E+03  0.47000000000E+01 0.  1.
        -11    1    1    2    0    0 -0.92940285374E+02  0.60468555584E+02 -0.11157248187E+03  0.15729832030E+03  0.00000000000E+00 0.  1.
         11    1    1    2    0    0  0.18991204431E+02  0.30167685032E+02 -0.55150738763E+02  0.65668554515E+02  0.00000000000E+00 0. -1.
<mgrwt>
<rscale>  0 0.16508932E+03</rscale>
<asrwt>0</asrwt>
<pdfrwt beam="2">  1        2 0.90568167E-01 0.17119582E+03</pdfrwt>
<pdfrwt beam="1">  1       -2 0.71885314E-02 0.17119582E+03</pdfrwt>
<totfact> 0.56288274E+03</totfact>
</mgrwt>
</event>
<event>
 7    1  0.5206757E-006  0.2066905E+03  0.7546771E-02  0.1148141E+00
          2   -1    0    0  501    0  0.00000000000E+00  0.00000000000E+00  0.14978960582E+04  0.14978960582E+04  0.00000000000E+00 0. -1.
         -2   -1    0    0    0  501 -0.00000000000E+00 -0.00000000000E+00 -0.26892668127E+02  0.26892668127E+02  0.00000000000E+00 0.  1.
         23    2    1    2    0    0 -0.12931170913E+03  0.10185375465E+03  0.90548134063E+03  0.92877198629E+03  0.12500095539E+03 0.  0.
          5    1    3    3  502    0  0.19249374690E+02  0.79046521729E+01  0.37361608319E+02  0.43023269613E+02  0.47000000000E+01 0. -1.
         -5    1    3    3    0  502 -0.14856108383E+03  0.93949102480E+02  0.86811973231E+03  0.88574871668E+03  0.47000000000E+01 0. -1.
        -11    1    1    2    0    0  0.54269464770E+02 -0.62762693787E+02  0.41618038764E+03  0.42437064648E+03  0.00000000000E+00 0. -1.
         11    1    1    2    0    0  0.75042244365E+02 -0.39091060866E+02  0.14934166177E+03  0.17164609352E+03  0.00000000000E+00 0.  1.
<mgrwt>
<rscale>  0 0.20190523E+03</rscale>
<asrwt>0</asrwt>
<pdfrwt beam="1">  1        2 0.23044548E+00 0.20669046E+03</pdfrwt>
<pdfrwt beam="2">  1       -2 0.41373347E-02 0.20669046E+03</pdfrwt>
<totfact> 0.35636001E+03</totfact>
</mgrwt>
</event>
<event>
 7    1  0.5206756E-006  0.1548465E+03  0.7546771E-02  0.1203315E+00
         -1   -1    0    0    0  501 -0.00000000000E+00  0.00000000000E+00  0.77885057803E+02  0.77885057803E+02  0.00000000000E+00 0.  1.
          1   -1    0    0  501    0  0.00000000000E+00 -0.00000000000E+00 -0.33845991595E+03  0.33845991595E+03  0.00000000000E+00 0. -1.
         23    2    1    2    0    0  0.14774823893E+02  0.90187227489E+02 -0.24126941524E+03  0.28668516004E+03  0.12500167532E+03 0.  0.
          5    1    3    3  502    0 -0.27736844955E+02  0.39194348567E+02 -0.14539569459E+02  0.50388675392E+02  0.47000000000E+01 0. -1.
         -5    1    3    3    0  502  0.42511668849E+02  0.50992878922E+02 -0.22672984579E+03  0.23629648465E+03  0.47000000000E+01 0. -1.
        -11    1    1    2    0    0 -0.50918255807E+02 -0.65181920907E+02 -0.22121466410E+02  0.85619570565E+02  0.00000000000E+00 0.  1.
         11    1    1    2    0    0  0.36143431914E+02 -0.25005306581E+02  0.28160235088E+01  0.44040243144E+02  0.00000000000E+00 0. -1.
<mgrwt>
<rscale>  0 0.14771018E+03</rscale>
<asrwt>0</asrwt>
<pdfrwt beam="2">  1        1 0.52070756E-01 0.15484654E+03</pdfrwt>
<pdfrwt beam="1">  1       -1 0.11982317E-01 0.15484654E+03</pdfrwt>
<totfact> 0.33591528E+03</totfact>
</mgrwt>
</event>
<event>
 7    1  0.5206756E-006  0.1383301E+03  0.7546771E-02  0.1227502E+00
          1   -1    0    0  501    0  0.00000000000E+00  0.00000000000E+00  0.50225808279E+02  0.50225808279E+02  0.00000000000E+00 0. -1.
         -1   -1    0    0    0  501 -0.00000000000E+00 -0.00000000000E+00 -0.35689608175E+03  0.35689608175E+03  0.00000000000E+00 0.  1.
         23    2    1    2    0    0 -0.50919777418E+02  0.30241651075E+02 -0.89752679543E+02  0.16489618227E+03  0.12501130449E+03 0.  0.
          5    1    3    3  502    0 -0.20794846982E+02  0.63411281556E+02 -0.98432060188E+02  0.11901418723E+03  0.47000000000E+01 0. -1.
         -5    1    3    3    0  502 -0.30124930436E+02 -0.33169630481E+02  0.86793806458E+01  0.45881995035E+02  0.47000000000E+01 0. -1.
        -11    1    1    2    0    0  0.50429749384E+01 -0.38976520128E+02 -0.17536475918E+03  0.17971477257E+03  0.00000000000E+00 0.  1.
         11    1    1    2    0    0  0.45876802480E+02  0.87348690527E+01 -0.41552834750E+02  0.62510935195E+02  0.00000000000E+00 0. -1.
<mgrwt>
<rscale>  0 0.12996860E+03</rscale>
<asrwt>0</asrwt>
<pdfrwt beam="1">  1        1 0.77270475E-02 0.13833007E+03</pdfrwt>
<pdfrwt beam="2">  1       -1 0.54907089E-01 0.13833007E+03</pdfrwt>
<totfact> 0.30309148E+03</totfact>
</mgrwt>
</event>
<event>
 7    1  0.5206756E-006  0.1468279E+03  0.7546771E-02  0.1213977E+00
          1   -1    0    0  501    0  0.00000000000E+00  0.00000000000E+00  0.35522495813E+03  0.35522495813E+03  0.00000000000E+00 0. -1.
         -1   -1    0    0    0  501 -0.00000000000E+00 -0.00000000000E+00 -0.56700658713E+02  0.56700658713E+02  0.00000000000E+00 0.  1.
         23    2    1    2    0    0  0.18105249027E+02  0.74874616667E+02  0.23315148633E+03  0.27553231951E+03  0.12499774098E+03 0.  0.
          5    1    3    3  502    0 -0.16998596303E+02  0.66111128717E+02  0.40615173092E+02  0.79569566429E+02  0.47000000000E+01 0. -1.
         -5    1    3    3    0  502  0.35103845330E+02  0.87634879503E+01  0.19253631324E+03  0.19596275308E+03  0.47000000000E+01 0. -1.
        -11    1    1    2    0    0 -0.21057297183E+02 -0.57730927101E+02 -0.71015973686E+01  0.61860345892E+02  0.00000000000E+00 0.  1.
         11    1    1    2    0    0  0.29520481566E+01 -0.17143689566E+02  0.72474410455E+02  0.74532951445E+02  0.00000000000E+00 0. -1.
<mgrwt>
<rscale>  0 0.13951969E+03</rscale>
<asrwt>0</asrwt>
<pdfrwt beam="1">  1        1 0.54649992E-01 0.14682794E+03</pdfrwt>
<pdfrwt beam="2">  1       -1 0.87231785E-02 0.14682794E+03</pdfrwt>
<totfact> 0.51296913E+03</totfact>
</mgrwt>
</event>
<event>
 7    1  0.5206756E-006  0.3437767E+03  0.7546771E-02  0.1066364E+00
          1   -1    0    0  501    0  0.00000000000E+00  0.00000000000E+00  0.15105657510E+04  0.15105657510E+04  0.00000000000E+00 0. -1.
         -1   -1    0    0    0  501 -0.00000000000E+00 -0.00000000000E+00 -0.88054794871E+02  0.88054794871E+02  0.00000000000E+00 0.  1.
         23    2    1    2    0    0  0.22156617770E+03 -0.23122902103E+03  0.10196011536E+04  0.10759967027E+04  0.12499584174E+03 0.  0.
          5    1    3    3  502    0  0.16021277758E+03 -0.13409552591E+03  0.81430825019E+03  0.84069599767E+03  0.47000000000E+01 0.  1.
         -5    1    3    3    0  502  0.61353400128E+02 -0.97133495125E+02  0.20529290344E+03  0.23530070502E+03  0.47000000000E+01 0.  1.
        -11    1    1    2    0    0 -0.67819981946E+02  0.10356925135E+03  0.97219506929E+02  0.15740956866E+03  0.00000000000E+00 0.  1.
         11    1    1    2    0    0 -0.15374619576E+03  0.12765976968E+03  0.30569029554E+03  0.36521427449E+03  0.00000000000E+00 0. -1.
<mgrwt>
<rscale>  0 0.34101576E+03</rscale>
<asrwt>0</asrwt>
<pdfrwt beam="1">  1        1 0.23239471E+00 0.34377666E+03</pdfrwt>
<pdfrwt beam="2">  1       -1 0.13546893E-01 0.34377666E+03</pdfrwt>
<totfact> 0.26444442E+02</totfact>
</mgrwt>
</event>
<event>
 7    1  0.5206756E-006  0.1300454E+03  0.7546771E-02  0.1241365E+00
          2   -1    0    0  501    0  0.00000000000E+00  0.00000000000E+00  0.16519371973E+03  0.16519371973E+03  0.00000000000E+00 0. -1.
         -2   -1    0    0    0  501 -0.00000000000E+00 -0.00000000000E+00 -0.12051982696E+03  0.12051982696E+03  0.00000000000E+00 0.  1.
         23    2    1    2    0    0  0.19788879431E+01 -0.35794729856E+02  0.10824077177E+03  0.16919775140E+03  0.12500654271E+03 0.  0.
          5    1    3    3  502    0 -0.48843839767E+02  0.93846747017E+01  0.12200493597E+02  0.51426985586E+02  0.47000000000E+01 0.  1.
         -5    1    3    3    0  502  0.50822727710E+02 -0.45179404557E+02  0.96040278176E+02  0.11777076581E+03  0.47000000000E+01 0.  1.
        -11    1    1    2    0    0 -0.18551847719E+02  0.48398782455E+02 -0.23842863140E+01  0.51887358944E+02  0.00000000000E+00 0. -1.
         11    1    1    2    0    0  0.16572959776E+02 -0.12604052599E+02 -0.61182592690E+02  0.64628436357E+02  0.00000000000E+00 0.  1.
<mgrwt>
<rscale>  0 0.12105632E+03</rscale>
<asrwt>0</asrwt>
<pdfrwt beam="1">  1        2 0.25414419E-01 0.13004543E+03</pdfrwt>
<pdfrwt beam="2">  1       -2 0.18541512E-01 0.13004543E+03</pdfrwt>
<totfact> 0.48185026E+03</totfact>
</mgrwt>
</event>
<event>
 7    1  0.5206756E-006  0.1595998E+03  0.7546771E-02  0.1196743E+00
         -2   -1    0    0    0  501 -0.00000000000E+00  0.00000000000E+00  0.62964625325E+02  0.62964625325E+02  0.00000000000E+00 0.  1.
          2   -1    0    0  501    0  0.00000000000E+00 -0.00000000000E+00 -0.34624125272E+03  0.34624125272E+03  0.00000000000E+00 0. -1.
         23    2    1    2    0    0  0.82871027111E+02 -0.54586077211E+02 -0.13995402698E+03  0.21227160407E+03  0.12499942907E+03 0.  0.
          5    1    3    3  502    0  0.33133240113E+02  0.40147412813E+02 -0.40572561000E+02  0.66165316156E+02  0.47000000000E+01 0. -1.
         -5    1    3    3    0  502  0.49737786998E+02 -0.94733490024E+02 -0.99381465984E+02  0.14610628792E+03  0.47000000000E+01 0. -1.
        -11    1    1    2    0    0 -0.27331658554E+02 -0.14527421948E+02 -0.32019248606E+01  0.31117806326E+02  0.00000000000E+00 0.  1.
         11    1    1    2    0    0 -0.55539368558E+02  0.69113499160E+02 -0.14012067555E+03  0.16581646764E+03  0.00000000000E+00 0. -1.
<mgrwt>
<rscale>  0 0.15307617E+03</rscale>
<asrwt>0</asrwt>
<pdfrwt beam="2">  1        2 0.53267886E-01 0.15959983E+03</pdfrwt>
<pdfrwt beam="1">  1       -2 0.96868653E-02 0.15959983E+03</pdfrwt>
<totfact> 0.63033129E+03</totfact>
</mgrwt>
</event>
<event>
 7    1  0.5206756E-006  0.1122203E+03  0.7546771E-02  0.1265130E+00
          2   -1    0    0  501    0  0.00000000000E+00  0.00000000000E+00  0.53781708731E+03  0.53781708731E+03  0.00000000000E+00 0. -1.
         -2   -1    0    0    0  501 -0.00000000000E+00 -0.00000000000E+00 -0.44948840765E+02  0.44948840765E+02  0.00000000000E+00 0.  1.
         23    2    1    2    0    0 -0.16425174822E+02 -0.97822128430E+01  0.47276264242E+03  0.48589906956E+03  0.11057988819E+03 0.  0.
          5    1    3    3  502    0 -0.54020964585E+02 -0.33888814833E+02  0.21704738945E+03  0.22627058062E+03  0.47000000000E+01 0. -1.
         -5    1    3    3    0  502  0.37595789763E+02  0.24106601990E+02  0.25571525297E+03  0.25962848894E+03  0.47000000000E+01 0.  1.
        -11    1    1    2    0    0  0.10198861293E+02  0.32850837146E+02  0.48687699695E+02  0.59612803779E+02  0.00000000000E+00 0. -1.
         11    1    1    2    0    0  0.62263135292E+01 -0.23068624303E+02 -0.28582095570E+02  0.37254054740E+02  0.00000000000E+00 0.  1.
<mgrwt>
<rscale>  0 0.10757385E+03</rscale>
<asrwt>0</asrwt>
<pdfrwt beam="1">  1        2 0.82741086E-01 0.11222027E+03</pdfrwt>
<pdfrwt beam="2">  1       -2 0.69152067E-02 0.11222027E+03</pdfrwt>
<totfact> 0.64623784E+03</totfact>
</mgrwt>
</event>
<event>
 7    1  0.5206756E-006  0.1568526E+03  0.7546771E-02  0.1200042E+00
         -2   -1    0    0    0  501 -0.00000000000E+00  0.00000000000E+00  0.17481491870E+02  0.17481491870E+02  0.00000000000E+00 0.  1.
          2   -1    0    0  501    0  0.00000000000E+00 -0.00000000000E+00 -0.13745909807E+04  0.13745909807E+04  0.00000000000E+00 0. -1.
         23    2    1    2    0    0  0.92898960486E+02 -0.18652353279E+02 -0.97808967972E+03  0.99058677795E+03  0.12499846369E+03 0.  0.
          5    1    3    3  502    0  0.51524624030E+02 -0.42071072702E+01 -0.11275128798E+03  0.12412666746E+03  0.47000000000E+01 0. -1.
         -5    1    3    3    0  502  0.41374336455E+02 -0.14445246009E+02 -0.86533839174E+03  0.86646011048E+03  0.47000000000E+01 0. -1.
        -11    1    1    2    0    0  0.35821442880E+01 -0.22957994621E+02 -0.37006573711E+02  0.43696541883E+02  0.00000000000E+00 0. -1.
         11    1    1    2    0    0 -0.96481104774E+02  0.41610347900E+02 -0.34201323540E+03  0.35778915274E+03  0.00000000000E+00 0.  1.
<mgrwt>
<rscale>  0 0.15035098E+03</rscale>
<asrwt>0</asrwt>
<pdfrwt beam="2">  1        2 0.21147557E+00 0.15685262E+03</pdfrwt>
<pdfrwt beam="1">  1       -2 0.26894598E-02 0.15685262E+03</pdfrwt>
<totfact> 0.78114392E+03</totfact>
</mgrwt>
</event>
<event>
 7    1  0.5206756E-006  0.1916330E+03  0.7546771E-02  0.1161637E+00
         -1   -1    0    0    0  501 -0.00000000000E+00  0.00000000000E+00  0.16340777053E+03  0.16340777053E+03  0.00000000000E+00 0.  1.
          1   -1    0    0  501    0  0.00000000000E+00 -0.00000000000E+00 -0.30717628228E+03  0.30717628228E+03  0.00000000000E+00 0. -1.
         23    2    1    2    0    0  0.10767595195E+03  0.97484181021E+02 -0.21180229656E+03  0.28562814415E+03  0.12500379084E+03 0.  0.
          5    1    3    3  502    0  0.76612287844E+02  0.10276704607E+03 -0.82615348739E+02  0.15257094826E+03  0.47000000000E+01 0. -1.
         -5    1    3    3    0  502  0.31063664104E+02 -0.52828650442E+01 -0.12918694782E+03  0.13305719589E+03  0.47000000000E+01 0. -1.
        -11    1    1    2    0    0 -0.50486845023E+02 -0.83836724453E+02  0.78222352879E+02  0.12528469331E+03  0.00000000000E+00 0.  1.
         11    1    1    2    0    0 -0.57189106925E+02 -0.13647456569E+02 -0.10188568067E+02  0.59671215346E+02  0.00000000000E+00 0. -1.
<mgrwt>
<rscale>  0 0.18652100E+03</rscale>
<asrwt>0</asrwt>
<pdfrwt beam="2">  1        1 0.47257889E-01 0.19163304E+03</pdfrwt>
<pdfrwt beam="1">  1       -1 0.25139657E-01 0.19163304E+03</pdfrwt>
<totfact> 0.11682452E+03</totfact>
</mgrwt>
</event>
<event>
 7    1  0.5206756E-006  0.1427257E+03  0.7546771E-02  0.1220037E+00
         -2   -1    0    0    0  501 -0.00000000000E+00  0.00000000000E+00  0.68902654404E+03  0.68902654404E+03  0.00000000000E+00 0. -1.
          2   -1    0    0  501    0  0.00000000000E+00 -0.00000000000E+00 -0.25159195707E+02  0.25159195707E+02  0.00000000000E+00 0.  1.
         23    2    1    2    0    0 -0.28548603111E+02 -0.62699353630E+02  0.29162897341E+03  0.32468150779E+03  0.12499756671E+03 0.  0.
          5    1    3    3  502    0 -0.23204504190E+02 -0.28499407314E+02  0.67399141884E+01  0.37658752970E+02  0.47000000000E+01 0.  1.
         -5    1    3    3    0  502 -0.53440989204E+01 -0.34199946317E+02  0.28488905922E+03  0.28702275482E+03  0.47000000000E+01 0.  1.
        -11    1    1    2    0    0 -0.17279281507E+02 -0.12551490454E+02  0.35490421910E+02  0.41420810342E+02  0.00000000000E+00 0. -1.
         11    1    1    2    0    0  0.45827884618E+02  0.75250844084E+02  0.33674795301E+03  0.34808342161E+03  0.00000000000E+00 0.  1.
<mgrwt>
<rscale>  0 0.13512981E+03</rscale>
<asrwt>0</asrwt>
<pdfrwt beam="2">  1        2 0.38706460E-02 0.14272569E+03</pdfrwt>
<pdfrwt beam="1">  1       -2 0.10600407E+00 0.14272569E+03</pdfrwt>
<totfact> 0.15997927E+03</totfact>
</mgrwt>
</event>
<event>
 7    1  0.5206756E-006  0.1580094E+03  0.7546771E-02  0.1198875E+00
          1   -1    0    0  501    0  0.00000000000E+00  0.00000000000E+00  0.52376064466E+03  0.52376064466E+03  0.00000000000E+00 0. -1.
         -1   -1    0    0    0  501 -0.00000000000E+00 -0.00000000000E+00 -0.58734700261E+02  0.58734700261E+02  0.00000000000E+00 0.  1.
         23    2    1    2    0    0  0.59040481280E+02  0.76830498208E+02  0.40871052587E+03  0.43819090149E+03  0.12481293327E+03 0.  0.
          5    1    3    3  502    0  0.18908260536E+02  0.94769225824E+02  0.35833688308E+03  0.37116861432E+03  0.47000000000E+01 0. -1.
         -5    1    3    3    0  502  0.40132220744E+02 -0.17938727616E+02  0.50373642785E+02  0.67022287171E+02  0.47000000000E+01 0.  1.
        -11    1    1    2    0    0 -0.57382126172E+02 -0.37667259310E+02  0.74320664154E+02  0.10116863125E+03  0.00000000000E+00 0. -1.
         11    1    1    2    0    0 -0.16583551080E+01 -0.39163238898E+02 -0.18005245623E+02  0.43135812182E+02  0.00000000000E+00 0.  1.
<mgrwt>
<rscale>  0 0.15130822E+03</rscale>
<asrwt>0</asrwt>
<pdfrwt beam="1">  1        1 0.80578558E-01 0.15800941E+03</pdfrwt>
<pdfrwt beam="2">  1       -1 0.90361081E-02 0.15800941E+03</pdfrwt>
<totfact> 0.29666539E+03</totfact>
</mgrwt>
</event>
<event>
 7    1  0.5206756E-006  0.1374212E+03  0.7546771E-02  0.1226962E+00
          2   -1    0    0  501    0  0.00000000000E+00  0.00000000000E+00  0.46762483970E+03  0.46762483970E+03  0.00000000000E+00 0. -1.
         -2   -1    0    0    0  501 -0.00000000000E+00 -0.00000000000E+00 -0.33043477478E+02  0.33043477478E+02  0.00000000000E+00 0.  1.
         23    2    1    2    0    0 -0.43139543893E+02 -0.37398945142E+02  0.23944537254E+03  0.27607729515E+03  0.12499954047E+03 0.  0.
          5    1    3    3  502    0 -0.21014165627E+02  0.12544310829E+02  0.21432656964E+03  0.21577053400E+03  0.47000000000E+01 0.  1.
         -5    1    3    3    0  502 -0.22125378266E+02 -0.49943255971E+02  0.25118802905E+02  0.60306761145E+02  0.47000000000E+01 0.  1.
        -11    1    1    2    0    0  0.37195295644E+01 -0.13203266466E+02 -0.48658928599E+01  0.14554657635E+02  0.00000000000E+00 0.  1.
         11    1    1    2    0    0  0.39420014329E+02  0.50602211608E+02  0.20000188253E+03  0.21003636439E+03  0.00000000000E+00 0. -1.
<mgrwt>
<rscale>  0 0.13033351E+03</rscale>
<asrwt>0</asrwt>
<pdfrwt beam="1">  1        2 0.71942278E-01 0.13742120E+03</pdfrwt>
<pdfrwt beam="2">  1       -2 0.50836123E-02 0.13742120E+03</pdfrwt>
<totfact> 0.12160101E+04</totfact>
</mgrwt>
</event>
<event>
 7    1  0.5206756E-006  0.2073975E+03  0.7546771E-02  0.1147438E+00
          2   -1    0    0  501    0  0.00000000000E+00  0.00000000000E+00  0.18210865109E+03  0.18210865109E+03  0.00000000000E+00 0. -1.
         -2   -1    0    0    0  501 -0.00000000000E+00 -0.00000000000E+00 -0.22022926682E+03  0.22022926682E+03  0.00000000000E+00 0.  1.
         23    2    1    2    0    0  0.14468600336E+03  0.80343741498E+02 -0.47165968119E+02  0.21269310040E+03  0.12499828016E+03 0.  0.
          5    1    3    3  502    0  0.15799375317E+02 -0.13575937683E+02 -0.48661164576E+02  0.53140618008E+02  0.47000000000E+01 0. -1.
         -5    1    3    3    0  502  0.12888662804E+03  0.93919679181E+02  0.14951964574E+01  0.15955248239E+03  0.47000000000E+01 0. -1.
        -11    1    1    2    0    0 -0.27669288741E+02 -0.76452195089E+01 -0.34765802409E+02  0.45085473691E+02  0.00000000000E+00 0.  1.
         11    1    1    2    0    0 -0.11701671462E+03 -0.72698521989E+02  0.43811154798E+02  0.14455934381E+03  0.00000000000E+00 0. -1.
<mgrwt>
<rscale>  0 0.20275158E+03</rscale>
<asrwt>0</asrwt>
<pdfrwt beam="1">  1        2 0.28016716E-01 0.20739751E+03</pdfrwt>
<pdfrwt beam="2">  1       -2 0.33881425E-01 0.20739751E+03</pdfrwt>
<totfact> 0.15321071E+03</totfact>
</mgrwt>
</event>
<event>
 7    1  0.5206756E-006  0.1259397E+03  0.7546771E-02  0.1248460E+00
         -1   -1    0    0    0  501 -0.00000000000E+00  0.00000000000E+00  0.29543296512E+03  0.29543296512E+03  0.00000000000E+00 0.  1.
          1   -1    0    0  501    0  0.00000000000E+00 -0.00000000000E+00 -0.51281377245E+02  0.51281377245E+02  0.00000000000E+00 0. -1.
         23    2    1    2    0    0 -0.69733605617E+01  0.13683356528E+02  0.58242576246E+02  0.13875524606E+03  0.12499983448E+03 0.  0.
          5    1    3    3  502    0  0.35255400862E+02 -0.28376716821E+02  0.64182633587E+02  0.78674530833E+02  0.47000000000E+01 0.  1.
         -5    1    3    3    0  502 -0.42228761424E+02  0.42060073348E+02 -0.59400573418E+01  0.60080715231E+02  0.47000000000E+01 0.  1.
        -11    1    1    2    0    0  0.20193159276E+02  0.26076162095E+02  0.14742132530E+03  0.15106547277E+03  0.00000000000E+00 0.  1.
         11    1    1    2    0    0 -0.13219798714E+02 -0.39759518622E+02  0.38487686332E+02  0.56893623530E+02  0.00000000000E+00 0. -1.
<mgrwt>
<rscale>  0 0.11680657E+03</rscale>
<asrwt>0</asrwt>
<pdfrwt beam="2">  1        1 0.78894428E-02 0.12593975E+03</pdfrwt>
<pdfrwt beam="1">  1       -1 0.45451224E-01 0.12593975E+03</pdfrwt>
<totfact> 0.41380156E+03</totfact>
</mgrwt>
</event>
<event>
 7    1  0.5206756E-006  0.1501788E+03  0.7546771E-02  0.1208595E+00
         -1   -1    0    0    0  501 -0.00000000000E+00  0.00000000000E+00  0.48414647877E+02  0.48414647877E+02  0.00000000000E+00 0.  1.
          1   -1    0    0  501    0  0.00000000000E+00 -0.00000000000E+00 -0.55435619731E+03  0.55435619731E+03  0.00000000000E+00 0. -1.
         23    2    1    2    0    0 -0.75055774849E+02  0.36006100898E+02 -0.43149687701E+03  0.45688427064E+03  0.12499549292E+03 0.  0.
          5    1    3    3  502    0  0.31771746878E+02  0.24619288128E+02 -0.86128905248E+02  0.95162133051E+02  0.47000000000E+01 0.  1.
         -5    1    3    3    0  502 -0.10682752173E+03  0.11386812770E+02 -0.34536797177E+03  0.36172213759E+03  0.47000000000E+01 0.  1.
        -11    1    1    2    0    0  0.85508271208E+02 -0.15779277565E+02 -0.84271816414E+02  0.12108835240E+03  0.00000000000E+00 0. -1.
         11    1    1    2    0    0 -0.10452496360E+02 -0.20226823333E+02  0.98271439949E+01  0.24798222142E+02  0.00000000000E+00 0.  1.
<mgrwt>
<rscale>  0 0.14357710E+03</rscale>
<asrwt>0</asrwt>
<pdfrwt beam="2">  1        1 0.85285568E-01 0.15017883E+03</pdfrwt>
<pdfrwt beam="1">  1       -1 0.74484075E-02 0.15017883E+03</pdfrwt>
<totfact> 0.36792389E+03</totfact>
</mgrwt>
</event>
<event>
 7    1  0.5206756E-006  0.2282063E+03  0.7546771E-02  0.1130888E+00
         -2   -1    0    0    0  501 -0.00000000000E+00  0.00000000000E+00  0.33444962528E+03  0.33444962528E+03  0.00000000000E+00 0.  1.
          2   -1    0    0  501    0  0.00000000000E+00 -0.00000000000E+00 -0.20222059942E+03  0.20222059942E+03  0.00000000000E+00 0. -1.
         23    2    1    2    0    0  0.18967137515E+03 -0.21877247001E+02 -0.74934141687E+02  0.24019414975E+03  0.12499703795E+03 0.  0.
          5    1    3    3  502    0  0.31926545018E+02 -0.40087508685E+02  0.19903074954E+02  0.55177305316E+02  0.47000000000E+01 0. -1.
         -5    1    3    3    0  502  0.15774483013E+03  0.18210261684E+02 -0.94837216641E+02  0.18501684443E+03  0.47000000000E+01 0. -1.
        -11    1    1    2    0    0 -0.75713715833E+02  0.39219953301E+02  0.13749349658E+03  0.16178761728E+03  0.00000000000E+00 0.  1.
         11    1    1    2    0    0 -0.11395765931E+03 -0.17342706299E+02  0.69669670974E+02  0.13468845768E+03  0.00000000000E+00 0. -1.
<mgrwt>
<rscale>  0 0.22406546E+03</rscale>
<asrwt>0</asrwt>
<pdfrwt beam="2">  1        2 0.31110861E-01 0.22820628E+03</pdfrwt>
<pdfrwt beam="1">  1       -2 0.51453789E-01 0.22820628E+03</pdfrwt>
<totfact> 0.61152035E+02</totfact>
</mgrwt>
</event>
<event>
 7    1  0.5206756E-006  0.2914743E+03  0.7546771E-02  0.1091293E+00
         -2   -1    0    0    0  501 -0.00000000000E+00  0.00000000000E+00  0.65103670832E+02  0.65103670832E+02  0.00000000000E+00 0.  1.
          2   -1    0    0  501    0  0.00000000000E+00 -0.00000000000E+00 -0.13231717101E+04  0.13231717101E+04  0.00000000000E+00 0. -1.
         23    2    1    2    0    0  0.26223922571E+03 -0.23727147594E+02 -0.80791400129E+03  0.85888431948E+03  0.12499940696E+03 0.  0.
          5    1    3    3  502    0  0.19679897529E+03 -0.52364451367E+02 -0.70267864917E+03  0.73160867029E+03  0.47000000000E+01 0. -1.
         -5    1    3    3    0  502  0.65440250414E+02  0.28637303773E+02 -0.10523535212E+03  0.12727564920E+03  0.47000000000E+01 0. -1.
        -11    1    1    2    0    0 -0.12546662031E+03  0.21243407765E+01 -0.13054297114E+03  0.18107416423E+03  0.00000000000E+00 0.  1.
         11    1    1    2    0    0 -0.13677260540E+03  0.21602806818E+02 -0.31961106684E+03  0.34831689723E+03  0.00000000000E+00 0. -1.
<mgrwt>
<rscale>  0 0.28820016E+03</rscale>
<asrwt>0</asrwt>
<pdfrwt beam="2">  1        2 0.20356487E+00 0.29147425E+03</pdfrwt>
<pdfrwt beam="1">  1       -2 0.10015950E-01 0.29147425E+03</pdfrwt>
<totfact> 0.11278343E+03</totfact>
</mgrwt>
</event>
<event>
 7    1  0.5206756E-006  0.1252167E+03  0.7546771E-02  0.1250444E+00
          1   -1    0    0  501    0  0.00000000000E+00  0.00000000000E+00  0.69483110359E+02  0.69483110359E+02  0.00000000000E+00 0.  1.
         -1   -1    0    0    0  501 -0.00000000000E+00 -0.00000000000E+00 -0.17404686391E+03  0.17404686391E+03  0.00000000000E+00 0. -1.
         23    2    1    2    0    0 -0.22977567332E+01 -0.70443397314E+01 -0.38596303595E+02  0.13103012495E+03  0.12499726631E+03 0.  0.
          5    1    3    3  502    0 -0.60433274329E+02 -0.90956888643E+01 -0.42788677954E+00  0.61295883133E+02  0.47000000000E+01 0.  1.
         -5    1    3    3    0  502  0.58135517595E+02  0.20513491329E+01 -0.38168416815E+02  0.69734241815E+02  0.47000000000E+01 0.  1.
        -11    1    1    2    0    0  0.10482884202E+02  0.37293285947E+02  0.79717607277E+00  0.38746813128E+02  0.00000000000E+00 0.  1.
         11    1    1    2    0    0 -0.81851274690E+01 -0.30248946215E+02 -0.66764626030E+02  0.73753036193E+02  0.00000000000E+00 0. -1.
<mgrwt>
<rscale>  0 0.11565407E+03</rscale>
<asrwt>0</asrwt>
<pdfrwt beam="1">  1        1 0.10689709E-01 0.12521669E+03</pdfrwt>
<pdfrwt beam="2">  1       -1 0.26776440E-01 0.12521669E+03</pdfrwt>
<totfact> 0.68456625E+03</totfact>
</mgrwt>
</event>
<event>
 6    1  0.5206756E-006  0.2102017E+03  0.7546771E-02  0.1148891E+00
         -2   -1    0    0    0  501 -0.00000000000E+00  0.00000000000E+00  0.30602930307E+03  0.30602930307E+03  0.00000000000E+00 0.  1.
          2   -1    0    0  501    0  0.00000000000E+00 -0.00000000000E+00 -0.12667205554E+03  0.12667205554E+03  0.00000000000E+00 0. -1.
          5    1    1    2  502    0  0.17958301425E+02 -0.12827985022E+03 -0.25613957384E+02  0.13212261493E+03  0.47000000000E+01 0. -1.
         -5    1    1    2    0  502 -0.17288554601E+02 -0.21701592686E+02  0.80282426114E+02  0.85071800193E+02  0.47000000000E+01 0.  1.
        -11    1    1    2    0    0  0.69720014259E+01 -0.11831353677E+02  0.84407820168E+01  0.16119445858E+02  0.00000000000E+00 0. -1.
         11    1    1    2    0    0 -0.76417482499E+01  0.16181279658E+03  0.11624799678E+03  0.19938749763E+03  0.00000000000E+00 0.  1.
<mgrwt>
<rscale>  0 0.20100873E+03</rscale>
<asrwt>0</asrwt>
<pdfrwt beam="2">  1        2 0.19488009E-01 0.21020174E+03</pdfrwt>
<pdfrwt beam="1">  1       -2 0.47081431E-01 0.21020174E+03</pdfrwt>
<totfact> 0.12305188E+03</totfact>
</mgrwt>
</event>
<event>
 7    1  0.5206756E-006  0.1343685E+03  0.7546771E-02  0.1233967E+00
          1   -1    0    0  501    0  0.00000000000E+00  0.00000000000E+00  0.84779422776E+03  0.84779422776E+03  0.00000000000E+00 0. -1.
         -1   -1    0    0    0  501 -0.00000000000E+00 -0.00000000000E+00 -0.16667405847E+02  0.16667405847E+02  0.00000000000E+00 0.  1.
         23    2    1    2    0    0 -0.16893091835E+02 -0.46303429737E+02  0.49652890130E+03  0.51438881038E+03  0.12500205702E+03 0.  0.
          5    1    3    3  502    0  0.83180606923E+01  0.41227335735E+02  0.18521424262E+03  0.18998760226E+03  0.47000000000E+01 0.  1.
         -5    1    3    3    0  502 -0.25211152527E+02 -0.87530765473E+02  0.31131465869E+03  0.32440120812E+03  0.47000000000E+01 0.  1.
        -11    1    1    2    0    0 -0.62002791202E+01  0.69132635946E+02  0.25000040404E+03  0.25945706164E+03  0.00000000000E+00 0.  1.
         11    1    1    2    0    0  0.23093370955E+02 -0.22829206209E+02  0.84597516570E+02  0.90615761587E+02  0.00000000000E+00 0. -1.
<mgrwt>
<rscale>  0 0.12570769E+03</rscale>
<asrwt>0</asrwt>
<pdfrwt beam="1">  1        1 0.13042985E+00 0.13436852E+03</pdfrwt>
<pdfrwt beam="2">  1       -1 0.25642169E-02 0.13436852E+03</pdfrwt>
<totfact> 0.96204319E+03</totfact>
</mgrwt>
</event>
<event>
 7    1  0.5206756E-006  0.1253664E+03  0.7546771E-02  0.1249217E+00
          1   -1    0    0  501    0  0.00000000000E+00  0.00000000000E+00  0.58806002946E+03  0.58806002946E+03  0.00000000000E+00 0. -1.
         -1   -1    0    0    0  501 -0.00000000000E+00 -0.00000000000E+00 -0.20321657103E+02  0.20321657103E+02  0.00000000000E+00 0.  1.
         23    2    1    2    0    0  0.44782464892E+01  0.85776050640E+01  0.33903681501E+03  0.36147294470E+03  0.12499239105E+03 0.  0.
          5    1    3    3  502    0 -0.90312766076E+01 -0.56976445158E+02  0.14286833849E+03  0.15414710962E+03  0.47000000000E+01 0.  1.
         -5    1    3    3    0  502  0.13509523097E+02  0.65554050222E+02  0.19616847651E+03  0.20732583508E+03  0.47000000000E+01 0.  1.
        -11    1    1    2    0    0  0.58286513240E+01 -0.48214326025E+02  0.15694444676E+03  0.16428680343E+03  0.00000000000E+00 0. -1.
         11    1    1    2    0    0 -0.10306897813E+02  0.39636720961E+02  0.71757110582E+02  0.82621938431E+02  0.00000000000E+00 0.  1.
<mgrwt>
<rscale>  0 0.11636505E+03</rscale>
<asrwt>0</asrwt>
<pdfrwt beam="1">  1        1 0.90470761E-01 0.12536637E+03</pdfrwt>
<pdfrwt beam="2">  1       -1 0.31264092E-02 0.12536637E+03</pdfrwt>
<totfact> 0.12143973E+04</totfact>
</mgrwt>
</event>
<event>
 7    1  0.5206756E-006  0.1817937E+03  0.7546771E-02  0.1171630E+00
         -2   -1    0    0    0  501 -0.00000000000E+00  0.00000000000E+00  0.27976145000E+02  0.27976145000E+02  0.00000000000E+00 0.  1.
          2   -1    0    0  501    0  0.00000000000E+00 -0.00000000000E+00 -0.11169841547E+04  0.11169841547E+04  0.00000000000E+00 0. -1.
         23    2    1    2    0    0  0.13196657328E+03 -0.31754728799E+01 -0.72252223563E+03  0.74504182548E+03  0.12499472245E+03 0.  0.
          5    1    3    3  502    0  0.42759572392E+02  0.17632464714E+02 -0.52730589669E+03  0.52935138002E+03  0.47000000000E+01 0.  1.
         -5    1    3    3    0  502  0.89207000883E+02 -0.20807937594E+02 -0.19521633894E+03  0.21569044546E+03  0.47000000000E+01 0.  1.
        -11    1    1    2    0    0 -0.59204681504E+02 -0.32054216412E+02 -0.93519417100E+02  0.11523258427E+03  0.00000000000E+00 0.  1.
         11    1    1    2    0    0 -0.72761891771E+02  0.35229689292E+02 -0.27296635692E+03  0.28468588990E+03  0.00000000000E+00 0. -1.
<mgrwt>
<rscale>  0 0.17610138E+03</rscale>
<asrwt>0</asrwt>
<pdfrwt beam="2">  1        2 0.17184374E+00 0.18179368E+03</pdfrwt>
<pdfrwt beam="1">  1       -2 0.43040216E-02 0.18179368E+03</pdfrwt>
<totfact> 0.54210162E+03</totfact>
</mgrwt>
</event>
<event>
 7    1  0.6919848E-006  0.2353696E+03  0.7546771E-02  0.1125983E+00
          1   -1    0    0  501    0  0.00000000000E+00  0.00000000000E+00  0.22742428775E+03  0.22742428775E+03  0.00000000000E+00 0. -1.
         -1   -1    0    0    0  501 -0.00000000000E+00 -0.00000000000E+00 -0.23699310580E+03  0.23699310580E+03  0.00000000000E+00 0.  1.
         23    2    1    2    0    0 -0.77611881936E+02  0.18371222635E+03  0.44851259121E+02  0.23960485453E+03  0.12500025815E+03 0.  0.
          5    1    3    3  502    0 -0.62813432544E+02  0.22284834193E+02 -0.11747131720E+02  0.67839709954E+02  0.47000000000E+01 0.  1.
         -5    1    3    3    0  502 -0.14798449392E+02  0.16142739216E+03  0.56598390840E+02  0.17176514457E+03  0.47000000000E+01 0.  1.
        -11    1    1    2    0    0  0.78721757530E+02 -0.12178380714E+03 -0.69884480311E+02  0.16097282807E+03  0.00000000000E+00 0.  1.
         11    1    1    2    0    0 -0.11098755942E+01 -0.61928419217E+02  0.15464403137E+02  0.63839710956E+02  0.00000000000E+00 0. -1.
<mgrwt>
<rscale>  0 0.23093505E+03</rscale>
<asrwt>0</asrwt>
<pdfrwt beam="1">  1        1 0.34988352E-01 0.23536960E+03</pdfrwt>
<pdfrwt beam="2">  1       -1 0.36460478E-01 0.23536960E+03</pdfrwt>
<totfact> 0.90684165E+02</totfact>
</mgrwt>
</event>
<event>
 7    1  0.5206756E-006  0.1186437E+03  0.7546771E-02  0.1254396E+00
          2   -1    0    0  501    0  0.00000000000E+00  0.00000000000E+00  0.29099539030E+04  0.29099539030E+04  0.00000000000E+00 0. -1.
         -2   -1    0    0    0  501 -0.00000000000E+00 -0.00000000000E+00 -0.71150837913E+01  0.71150837913E+01  0.00000000000E+00 0.  1.
         23    2    1    2    0    0 -0.39308071285E+02 -0.12024815559E+02  0.24781162961E+04  0.24809547956E+04  0.11129510426E+03 0.  0.
          5    1    3    3  502    0  0.14614541917E+01  0.55653883180E+01  0.21267341677E+04  0.21267471452E+04  0.47000000000E+01 0. -1.
         -5    1    3    3    0  502 -0.40769525477E+02 -0.17590203877E+02  0.35138212840E+03  0.35420765045E+03  0.47000000000E+01 0.  1.
        -11    1    1    2    0    0  0.20099986053E+02  0.51373630117E+02  0.22833842123E+03  0.23490784134E+03  0.00000000000E+00 0. -1.
         11    1    1    2    0    0  0.19208085231E+02 -0.39348814558E+02  0.19638410183E+03  0.20120634980E+03  0.00000000000E+00 0.  1.
<mgrwt>
<rscale>  0 0.11340232E+03</rscale>
<asrwt>0</asrwt>
<pdfrwt beam="1">  1        2 0.44768427E+00 0.11864367E+03</pdfrwt>
<pdfrwt beam="2">  1       -2 0.10946306E-02 0.11864367E+03</pdfrwt>
<totfact> 0.44389861E+03</totfact>
</mgrwt>
</event>
<event>
 7    1  0.8637898E-006  0.2016852E+03  0.7546771E-02  0.1152621E+00
          2   -1    0    0  501    0  0.00000000000E+00  0.00000000000E+00  0.60771931152E+02  0.60771931152E+02  0.00000000000E+00 0. -1.
         -2   -1    0    0    0  501 -0.00000000000E+00 -0.00000000000E+00 -0.63914884951E+03  0.63914884951E+03  0.00000000000E+00 0.  1.
         23    2    1    2    0    0 -0.11621475109E+02  0.15785090269E+03 -0.22372633733E+03  0.30121486623E+03  0.12499982183E+03 0.  0.
          5    1    3    3  502    0 -0.15177982645E+02 -0.42288969091E+01  0.80668051156E+01  0.18314422486E+02  0.47000000000E+01 0.  1.
         -5    1    3    3    0  502  0.35565075353E+01  0.16207979960E+03 -0.23179314245E+03  0.28290044374E+03  0.47000000000E+01 0.  1.
        -11    1    1    2    0    0  0.45323135092E+02 -0.42963538580E+02 -0.12107662803E+03  0.13623363049E+03  0.00000000000E+00 0. -1.
         11    1    1    2    0    0 -0.33701659982E+02 -0.11488736411E+03 -0.23357395299E+03  0.26247228394E+03  0.00000000000E+00 0.  1.
<mgrwt>
<rscale>  0 0.19662123E+03</rscale>
<asrwt>0</asrwt>
<pdfrwt beam="1">  1        2 0.93495274E-02 0.20168520E+03</pdfrwt>
<pdfrwt beam="2">  1       -2 0.98330597E-01 0.20168520E+03</pdfrwt>
<totfact> 0.61782964E+02</totfact>
</mgrwt>
</event>
<event>
 7    1  0.5206756E-006  0.1678941E+03  0.7546771E-02  0.1185993E+00
         -3   -1    0    0    0  501 -0.00000000000E+00  0.00000000000E+00  0.69192414484E+02  0.69192414484E+02  0.00000000000E+00 0.  1.
          3   -1    0    0  501    0  0.00000000000E+00 -0.00000000000E+00 -0.40746798469E+03  0.40746798469E+03  0.00000000000E+00 0. -1.
         23    2    1    2    0    0  0.10077017319E+03  0.49069626923E+02 -0.26156624204E+03  0.31081395264E+03  0.12500383230E+03 0.  0.
          5    1    3    3  502    0  0.58313526060E+02  0.74668522888E+02 -0.85033884532E+02  0.12739194304E+03  0.47000000000E+01 0.  1.
         -5    1    3    3    0  502  0.42456647133E+02 -0.25598895965E+02 -0.17653235751E+03  0.18342200961E+03  0.47000000000E+01 0.  1.
        -11    1    1    2    0    0 -0.36183436361E+02 -0.51669367402E+02  0.30868308904E+01  0.63154517808E+02  0.00000000000E+00 0.  1.
         11    1    1    2    0    0 -0.64586736832E+02  0.25997404793E+01 -0.79796159054E+02  0.10269192872E+03  0.00000000000E+00 0. -1.
<mgrwt>
<rscale>  0 0.16241841E+03</rscale>
<asrwt>0</asrwt>
<pdfrwt beam="2">  1        3 0.62687382E-01 0.16789406E+03</pdfrwt>
<pdfrwt beam="1">  1       -3 0.10644987E-01 0.16789406E+03</pdfrwt>
<totfact> 0.39947035E+02</totfact>
</mgrwt>
</event>
<event>
 7    1  0.5206756E-006  0.1292053E+03  0.7546771E-02  0.1244376E+00
         -4   -1    0    0    0  501 -0.00000000000E+00  0.00000000000E+00  0.10174581703E+03  0.10174581703E+03  0.00000000000E+00 0.  1.
          4   -1    0    0  501    0  0.00000000000E+00 -0.00000000000E+00 -0.12690780576E+03  0.12690780576E+03  0.00000000000E+00 0. -1.
         23    2    1    2    0    0 -0.20128523039E+02  0.25748272278E+02 -0.36558122213E+02  0.13427773691E+03  0.12500353341E+03 0.  0.
          5    1    3    3  502    0  0.81600137606E+00  0.68387348141E+02  0.79467814778E+01  0.69012582765E+02  0.47000000000E+01 0.  1.
         -5    1    3    3    0  502 -0.20944524415E+02 -0.42639075863E+02 -0.44504903691E+02  0.65265154148E+02  0.47000000000E+01 0.  1.
        -11    1    1    2    0    0 -0.25012818879E+02 -0.31891480381E+00  0.30239083625E+02  0.39244681085E+02  0.00000000000E+00 0.  1.
         11    1    1    2    0    0  0.45141341918E+02 -0.25429357474E+02 -0.18842950145E+02  0.55131204793E+02  0.00000000000E+00 0. -1.
<mgrwt>
<rscale>  0 0.11922797E+03</rscale>
<asrwt>0</asrwt>
<pdfrwt beam="2">  1        4 0.19524278E-01 0.12920532E+03</pdfrwt>
<pdfrwt beam="1">  1       -4 0.15653203E-01 0.12920532E+03</pdfrwt>
<totfact> 0.13428880E+03</totfact>
</mgrwt>
</event>
<event>
 7    1  0.5206756E-006  0.1286470E+03  0.7546771E-02  0.1242851E+00
         -1   -1    0    0    0  501 -0.00000000000E+00  0.00000000000E+00  0.11068128609E+03  0.11068128609E+03  0.00000000000E+00 0.  1.
          1   -1    0    0  501    0  0.00000000000E+00 -0.00000000000E+00 -0.13357801622E+03  0.13357801622E+03  0.00000000000E+00 0. -1.
         23    2    1    2    0    0 -0.10862291654E+02  0.28396329425E+02 -0.56864311844E+02  0.14065414933E+03  0.12500279540E+03 0.  0.
          5    1    3    3  502    0  0.54333741927E+02  0.30847011658E+02 -0.21158513601E+02  0.66132188364E+02  0.47000000000E+01 0.  1.
         -5    1    3    3    0  502 -0.65196033581E+02 -0.24506822334E+01 -0.35705798243E+02  0.74521960967E+02  0.47000000000E+01 0.  1.
        -11    1    1    2    0    0  0.23101578790E+02 -0.75490856275E+01  0.61997206176E+02  0.66590729160E+02  0.00000000000E+00 0.  1.
         11    1    1    2    0    0 -0.12239287136E+02 -0.20847243797E+02 -0.28029624462E+02  0.37014423824E+02  0.00000000000E+00 0. -1.
<mgrwt>
<rscale>  0 0.12014941E+03</rscale>
<asrwt>0</asrwt>
<pdfrwt beam="2">  1        1 0.20550464E-01 0.12864696E+03</pdfrwt>
<pdfrwt beam="1">  1       -1 0.17027890E-01 0.12864696E+03</pdfrwt>
<totfact> 0.61187592E+03</totfact>
</mgrwt>
</event>
<event>
 7    1  0.5206756E-006  0.1269400E+03  0.7546771E-02  0.1253781E+00
         -1   -1    0    0    0  501 -0.00000000000E+00  0.00000000000E+00  0.18836553964E+02  0.18836553964E+02  0.00000000000E+00 0.  1.
          1   -1    0    0  501    0  0.00000000000E+00 -0.00000000000E+00 -0.10744128008E+04  0.10744128008E+04  0.00000000000E+00 0. -1.
         23    2    1    2    0    0 -0.25431187362E+01  0.21949969749E+02 -0.95583064325E+03  0.96422299989E+03  0.12500202522E+03 0.  0.
          5    1    3    3  502    0  0.44952890757E+02  0.71043233915E+01 -0.14949468604E+03  0.15633932631E+03  0.47000000000E+01 0. -1.
         -5    1    3    3    0  502 -0.47496009493E+02  0.14845646357E+02 -0.80633595721E+03  0.80788367358E+03  0.47000000000E+01 0. -1.
        -11    1    1    2    0    0  0.34465424343E+02 -0.32772467968E+02 -0.65801593981E+02  0.81189592328E+02  0.00000000000E+00 0.  1.
         11    1    1    2    0    0 -0.31922305607E+02  0.10822498220E+02 -0.33944009592E+02  0.47836762538E+02  0.00000000000E+00 0. -1.
<mgrwt>
<rscale>  0 0.11374888E+03</rscale>
<asrwt>0</asrwt>
<pdfrwt beam="2">  1        1 0.16529430E+00 0.12694004E+03</pdfrwt>
<pdfrwt beam="1">  1       -1 0.28979309E-02 0.12694004E+03</pdfrwt>
<totfact> 0.54424031E+03</totfact>
</mgrwt>
</event>
<event>
 7    1  0.5206756E-006  0.1345173E+03  0.7546771E-02  0.1233511E+00
          1   -1    0    0  501    0  0.00000000000E+00  0.00000000000E+00  0.26564380672E+03  0.26564380672E+03  0.00000000000E+00 0. -1.
         -1   -1    0    0    0  501 -0.00000000000E+00 -0.00000000000E+00 -0.66741830901E+02  0.66741830901E+02  0.00000000000E+00 0.  1.
         23    2    1    2    0    0 -0.43129459818E+02 -0.24625402250E+02  0.18374891880E+03  0.22772477476E+03  0.12501338783E+03 0.  0.
          5    1    3    3  502    0 -0.11425835927E+02  0.49198888592E+02  0.47571973431E+02  0.69543245693E+02  0.47000000000E+01 0. -1.
         -5    1    3    3    0  502 -0.31703623891E+02 -0.73824290842E+02  0.13617694537E+03  0.15818152906E+03  0.47000000000E+01 0. -1.
        -11    1    1    2    0    0  0.23138576839E+02 -0.24085661089E+02 -0.22199310280E+02  0.40103892394E+02  0.00000000000E+00 0.  1.
         11    1    1    2    0    0  0.19990882979E+02  0.48711063339E+02  0.37352367298E+02  0.64556970473E+02  0.00000000000E+00 0. -1.
<mgrwt>
<rscale>  0 0.12600265E+03</rscale>
<asrwt>0</asrwt>
<pdfrwt beam="1">  1        1 0.40868277E-01 0.13451731E+03</pdfrwt>
<pdfrwt beam="2">  1       -1 0.10267974E-01 0.13451731E+03</pdfrwt>
<totfact> 0.57108767E+03</totfact>
</mgrwt>
</event>
<event>
 7    1  0.5206756E-006  0.1569183E+03  0.7546771E-02  0.1205414E+00
          1   -1    0    0  501    0  0.00000000000E+00  0.00000000000E+00  0.55704061124E+03  0.55704061124E+03  0.00000000000E+00 0. -1.
         -1   -1    0    0    0  501 -0.00000000000E+00 -0.00000000000E+00 -0.40436103641E+02  0.40436103641E+02  0.00000000000E+00 0.  1.
         23    2    1    2    0    0 -0.81428624189E+02 -0.48659654027E+02  0.40859366917E+03  0.43768954376E+03  0.12499986987E+03 0.  0.
          5    1    3    3  502    0 -0.35644273869E+02 -0.30728084931E+01  0.15463172381E+02  0.39257561205E+02  0.47000000000E+01 0. -1.
         -5    1    3    3    0  502 -0.45784350320E+02 -0.45586845534E+02  0.39313049679E+03  0.39843198256E+03  0.47000000000E+01 0. -1.
        -11    1    1    2    0    0  0.34320811164E+02 -0.83387774326E+01  0.94326375505E+01  0.36557187243E+02  0.00000000000E+00 0. -1.
         11    1    1    2    0    0  0.47107813025E+02  0.56998431460E+02  0.98578200874E+02  0.12322998387E+03  0.00000000000E+00 0.  1.
<mgrwt>
<rscale>  0 0.14604864E+03</rscale>
<asrwt>0</asrwt>
<pdfrwt beam="1">  1        1 0.85698550E-01 0.15691829E+03</pdfrwt>
<pdfrwt beam="2">  1       -1 0.62209394E-02 0.15691829E+03</pdfrwt>
<totfact> 0.48003910E+03</totfact>
</mgrwt>
</event>
<event>
 7    1  0.5206756E-006  0.1289458E+03  0.7546771E-02  0.1243873E+00
         -1   -1    0    0    0  501 -0.00000000000E+00  0.00000000000E+00  0.19759911801E+03  0.19759911801E+03  0.00000000000E+00 0.  1.
          1   -1    0    0  501    0  0.00000000000E+00 -0.00000000000E+00 -0.66418850779E+02  0.66418850779E+02  0.00000000000E+00 0. -1.
         23    2    1    2    0    0  0.23732735143E+01 -0.31570938763E+02  0.48005620264E+02  0.13759195636E+03  0.12499860110E+03 0.  0.
          5    1    3    3  502    0 -0.22355596120E+02  0.36010432234E+02  0.49657732381E+02  0.65456124945E+02  0.47000000000E+01 0.  1.
         -5    1    3    3    0  502  0.24728869634E+02 -0.67581370996E+02 -0.16521121171E+01  0.72135831413E+02  0.47000000000E+01 0.  1.
        -11    1    1    2    0    0 -0.11530457232E+02 -0.16417437039E+02 -0.90900561568E+01  0.22025276476E+02  0.00000000000E+00 0. -1.
         11    1    1    2    0    0  0.91571837177E+01  0.47988375802E+02  0.92264703123E+02  0.10440073596E+03  0.00000000000E+00 0.  1.
<mgrwt>
<rscale>  0 0.11953067E+03</rscale>
<asrwt>0</asrwt>
<pdfrwt beam="2">  1        1 0.10218285E-01 0.12894575E+03</pdfrwt>
<pdfrwt beam="1">  1       -1 0.30399864E-01 0.12894575E+03</pdfrwt>
<totfact> 0.58935257E+03</totfact>
</mgrwt>
</event>
<event>
 7    1  0.5206756E-006  0.1424951E+03  0.7546771E-02  0.1220156E+00
         -1   -1    0    0    0  501 -0.00000000000E+00  0.00000000000E+00  0.15255154713E+02  0.15255154713E+02  0.00000000000E+00 0.  1.
          1   -1    0    0  501    0  0.00000000000E+00 -0.00000000000E+00 -0.17224853414E+04  0.17224853414E+04  0.00000000000E+00 0. -1.
         23    2    1    2    0    0  0.43537123848E+02  0.52795970254E+02 -0.14373845268E+04  0.14444303845E+04  0.12498784879E+03 0.  0.
          5    1    3    3  502    0  0.45483447597E+02  0.32217412497E+02 -0.22459558381E+03  0.23145619875E+03  0.47000000000E+01 0.  1.
         -5    1    3    3    0  502 -0.19463237483E+01  0.20578557757E+02 -0.12127889429E+04  0.12129741858E+04  0.47000000000E+01 0.  1.
        -11    1    1    2    0    0  0.46122611889E+01  0.23624766422E+02 -0.69326903317E+02  0.73386797623E+02  0.00000000000E+00 0.  1.
         11    1    1    2    0    0 -0.48149385037E+02 -0.76420736676E+02 -0.20051875663E+03  0.21992331398E+03  0.00000000000E+00 0. -1.
<mgrwt>
<rscale>  0 0.13504542E+03</rscale>
<asrwt>0</asrwt>
<pdfrwt beam="2">  1        1 0.26499768E+00 0.14249512E+03</pdfrwt>
<pdfrwt beam="1">  1       -1 0.23469474E-02 0.14249512E+03</pdfrwt>
<totfact> 0.27589334E+03</totfact>
</mgrwt>
</event>
<event>
 7    1  0.5206756E-006  0.1266337E+03  0.7546771E-02  0.1248216E+00
          2   -1    0    0  501    0  0.00000000000E+00  0.00000000000E+00  0.44285968784E+02  0.44285968784E+02  0.00000000000E+00 0. -1.
         -2   -1    0    0    0  501 -0.00000000000E+00 -0.00000000000E+00 -0.27334074999E+03  0.27334074999E+03  0.00000000000E+00 0.  1.
         23    2    1    2    0    0 -0.11905341626E+02  0.16269881373E+02 -0.14937701754E+03  0.19583051867E+03  0.12501860851E+03 0.  0.
          5    1    3    3  502    0  0.25429157582E+02 -0.15759715457E+02 -0.14280454682E+03  0.14598027017E+03  0.47000000000E+01 0.  1.
         -5    1    3    3    0  502 -0.37334499208E+02  0.32029596830E+02 -0.65724707203E+01  0.49850248500E+02  0.47000000000E+01 0.  1.
        -11    1    1    2    0    0  0.17310032719E+02  0.56408182675E+01 -0.93550639213E+02  0.95305708962E+02  0.00000000000E+00 0.  1.
         11    1    1    2    0    0 -0.54046910934E+01 -0.21910699640E+02  0.13872875552E+02  0.26490491136E+02  0.00000000000E+00 0. -1.
<mgrwt>
<rscale>  0 0.11694951E+03</rscale>
<asrwt>0</asrwt>
<pdfrwt beam="1">  1        2 0.68132260E-02 0.12663372E+03</pdfrwt>
<pdfrwt beam="2">  1       -2 0.42052423E-01 0.12663372E+03</pdfrwt>
<totfact> 0.53371608E+03</totfact>
</mgrwt>
</event>
<event>
 7    1  0.5206756E-006  0.1482356E+03  0.7546771E-02  0.1211830E+00
          2   -1    0    0  501    0  0.00000000000E+00  0.00000000000E+00  0.71936867571E+03  0.71936867571E+03  0.00000000000E+00 0. -1.
         -2   -1    0    0    0  501 -0.00000000000E+00 -0.00000000000E+00 -0.26083294413E+02  0.26083294413E+02  0.00000000000E+00 0.  1.
         23    2    1    2    0    0  0.62086166026E+02 -0.49927579489E+02  0.44255832796E+03  0.46672440562E+03  0.12500536769E+03 0.  0.
          5    1    3    3  502    0  0.60768285887E+02 -0.64727044088E+02  0.15457423133E+03  0.17831897767E+03  0.47000000000E+01 0.  1.
         -5    1    3    3    0  502  0.13178801384E+01  0.14799464599E+02  0.28798409663E+03  0.28840542795E+03  0.47000000000E+01 0.  1.
        -11    1    1    2    0    0 -0.85537640201E+02  0.38209575519E+02  0.21395900898E+03  0.23357036858E+03  0.00000000000E+00 0. -1.
         11    1    1    2    0    0  0.23451474176E+02  0.11718003969E+02  0.36768044362E+02  0.45157195930E+02  0.00000000000E+00 0.  1.
<mgrwt>
<rscale>  0 0.14112006E+03</rscale>
<asrwt>0</asrwt>
<pdfrwt beam="1">  1        2 0.11067209E+00 0.14823561E+03</pdfrwt>
<pdfrwt beam="2">  1       -2 0.40128151E-02 0.14823561E+03</pdfrwt>
<totfact> 0.10675890E+04</totfact>
</mgrwt>
</event>
<event>
 7    1  0.5206756E-006  0.1301535E+03  0.7546771E-02  0.1240862E+00
          1   -1    0    0  501    0  0.00000000000E+00  0.00000000000E+00  0.44649979723E+03  0.44649979723E+03  0.00000000000E+00 0. -1.
         -1   -1    0    0    0  501 -0.00000000000E+00 -0.00000000000E+00 -0.72277227944E+02  0.72277227944E+02  0.00000000000E+00 0.  1.
         23    2    1    2    0    0  0.34344108451E+02 -0.11676867647E+02  0.39698468373E+03  0.41777597997E+03  0.12499625312E+03 0.  0.
          5    1    3    3  502    0 -0.30890068209E+02 -0.38555165323E+02  0.90229999755E+02  0.10297689033E+03  0.47000000000E+01 0. -1.
         -5    1    3    3    0  502  0.65234176660E+02  0.26878297675E+02  0.30675468398E+03  0.31479908963E+03  0.47000000000E+01 0. -1.
        -11    1    1    2    0    0 -0.44880570351E+02 -0.23039518667E+02 -0.36434839760E+02  0.62230077645E+02  0.00000000000E+00 0.  1.
         11    1    1    2    0    0  0.10536461900E+02  0.34716386314E+02  0.13672725310E+02  0.38770967559E+02  0.00000000000E+00 0. -1.
<mgrwt>
<rscale>  0 0.12136505E+03</rscale>
<asrwt>0</asrwt>
<pdfrwt beam="1">  1        1 0.68692275E-01 0.13015349E+03</pdfrwt>
<pdfrwt beam="2">  1       -1 0.11119574E-01 0.13015349E+03</pdfrwt>
<totfact> 0.26393189E+03</totfact>
</mgrwt>
</event>
<event>
 7    1  0.5206756E-006  0.2259647E+03  0.7546771E-02  0.1132527E+00
         -1   -1    0    0    0  501 -0.00000000000E+00  0.00000000000E+00  0.17356987470E+03  0.17356987470E+03  0.00000000000E+00 0.  1.
          1   -1    0    0  501    0  0.00000000000E+00 -0.00000000000E+00 -0.27362832493E+03  0.27362832493E+03  0.00000000000E+00 0. -1.
         23    2    1    2    0    0  0.16577917286E+03  0.89181414193E+02 -0.49352136938E+02  0.23129133118E+03  0.12499595059E+03 0.  0.
          5    1    3    3  502    0  0.67003520119E+02  0.40071307459E+02  0.41287371824E+02  0.88441610467E+02  0.47000000000E+01 0. -1.
         -5    1    3    3    0  502  0.98775652743E+02  0.49110106734E+02 -0.90639508762E+02  0.14284972071E+03  0.47000000000E+01 0. -1.
        -11    1    1    2    0    0 -0.17659863003E+03 -0.82205680048E+02 -0.39325722811E+02  0.19872433780E+03  0.00000000000E+00 0.  1.
         11    1    1    2    0    0  0.10819457164E+02 -0.69757341449E+01 -0.11380590479E+02  0.17182530659E+02  0.00000000000E+00 0. -1.
<mgrwt>
<rscale>  0 0.22182837E+03</rscale>
<asrwt>0</asrwt>
<pdfrwt beam="2">  1        1 0.42096665E-01 0.22596470E+03</pdfrwt>
<pdfrwt beam="1">  1       -1 0.26703058E-01 0.22596470E+03</pdfrwt>
<totfact> 0.12242339E+03</totfact>
</mgrwt>
</event>
<event>
 7    1  0.5206756E-006  0.1258301E+03  0.7546771E-02  0.1251591E+00
          1   -1    0    0  501    0  0.00000000000E+00  0.00000000000E+00  0.17733177238E+03  0.17733177238E+03  0.00000000000E+00 0. -1.
         -1   -1    0    0    0  501 -0.00000000000E+00 -0.00000000000E+00 -0.65791091654E+02  0.65791091654E+02  0.00000000000E+00 0.  1.
         23    2    1    2    0    0  0.99916097968E+01 -0.10450724121E+02  0.83362088056E+02  0.15093859915E+03  0.12499669230E+03 0.  0.
          5    1    3    3  502    0  0.64370307384E+01 -0.66537866459E+02  0.30450759091E+02  0.73607484449E+02  0.47000000000E+01 0.  1.
         -5    1    3    3    0  502  0.35545790583E+01  0.56087142337E+02  0.52911328965E+02  0.77331114700E+02  0.47000000000E+01 0.  1.
        -11    1    1    2    0    0  0.13029114110E+02 -0.85308284513E+00 -0.27743143478E+02  0.30662152156E+02  0.00000000000E+00 0.  1.
         11    1    1    2    0    0 -0.23020723907E+02  0.11303806967E+02  0.55921736152E+02  0.61522112735E+02  0.00000000000E+00 0. -1.
<mgrwt>
<rscale>  0 0.11499458E+03</rscale>
<asrwt>0</asrwt>
<pdfrwt beam="1">  1        1 0.27281811E-01 0.12583014E+03</pdfrwt>
<pdfrwt beam="2">  1       -1 0.10121706E-01 0.12583014E+03</pdfrwt>
<totfact> 0.95847488E+03</totfact>
</mgrwt>
</event>
<event>
 7    1  0.5206756E-006  0.2553789E+03  0.7546771E-02  0.1112284E+00
          1   -1    0    0  501    0  0.00000000000E+00  0.00000000000E+00  0.42074433982E+03  0.42074433982E+03  0.00000000000E+00 0. -1.
         -1   -1    0    0    0  501 -0.00000000000E+00 -0.00000000000E+00 -0.16953976586E+03  0.16953976586E+03  0.00000000000E+00 0.  1.
         23    2    1    2    0    0  0.17930149052E+03  0.13207412757E+03  0.23824126485E+03  0.34925246339E+03  0.12500313289E+03 0.  0.
          5    1    3    3  502    0  0.14301930651E+03  0.79110392893E+02  0.23302850669E+03  0.28467060127E+03  0.47000000000E+01 0.  1.
         -5    1    3    3    0  502  0.36282184006E+02  0.52963734673E+02  0.52127581585E+01  0.64581862116E+02  0.47000000000E+01 0.  1.
        -11    1    1    2    0    0 -0.10577663773E+03 -0.82708671564E+02  0.52337441315E+02  0.14411325132E+03  0.00000000000E+00 0. -1.
         11    1    1    2    0    0 -0.73524852787E+02 -0.49365456002E+02 -0.39374132203E+02  0.96918390981E+02  0.00000000000E+00 0.  1.
<mgrwt>
<rscale>  0 0.25162282E+03</rscale>
<asrwt>0</asrwt>
<pdfrwt beam="1">  1        1 0.64729898E-01 0.25537890E+03</pdfrwt>
<pdfrwt beam="2">  1       -1 0.26083041E-01 0.25537890E+03</pdfrwt>
<totfact> 0.73801120E+02</totfact>
</mgrwt>
</event>
<event>
 7    1  0.5206756E-006  0.1590582E+03  0.7546771E-02  0.1197134E+00
          2   -1    0    0  501    0  0.00000000000E+00  0.00000000000E+00  0.16676302647E+04  0.16676302647E+04  0.00000000000E+00 0.  1.
         -2   -1    0    0    0  501 -0.00000000000E+00 -0.00000000000E+00 -0.16227273651E+02  0.16227273651E+02  0.00000000000E+00 0. -1.
         23    2    1    2    0    0  0.90784135552E+02  0.37855238019E+02  0.12542414691E+04  0.12642868199E+04  0.12499888740E+03 0.  0.
          5    1    3    3  502    0 -0.15822406861E+02  0.14425347910E+02  0.64198746433E+03  0.64236160656E+03  0.47000000000E+01 0. -1.
         -5    1    3    3    0  502  0.10660654241E+03  0.23429890108E+02  0.61225400477E+03  0.62192521334E+03  0.47000000000E+01 0. -1.
        -11    1    1    2    0    0 -0.10790125879E+03 -0.44688068845E+02  0.34739839149E+03  0.36650422583E+03  0.00000000000E+00 0.  1.
         11    1    1    2    0    0  0.17117123241E+02  0.68328308270E+01  0.49763130443E+02  0.53066492598E+02  0.00000000000E+00 0. -1.
<mgrwt>
<rscale>  0 0.15274965E+03</rscale>
<asrwt>0</asrwt>
<pdfrwt beam="1">  1        2 0.25655837E+00 0.15905817E+03</pdfrwt>
<pdfrwt beam="2">  1       -2 0.24965050E-02 0.15905817E+03</pdfrwt>
<totfact> 0.61215622E+03</totfact>
</mgrwt>
</event>
<event>
 7    1  0.5206756E-006  0.1300151E+03  0.7546771E-02  0.1244826E+00
         -2   -1    0    0    0  501 -0.00000000000E+00  0.00000000000E+00  0.12021768570E+03  0.12021768570E+03  0.00000000000E+00 0.  1.
          2   -1    0    0  501    0  0.00000000000E+00 -0.00000000000E+00 -0.10535467276E+03  0.10535467276E+03  0.00000000000E+00 0. -1.
         23    2    1    2    0    0 -0.17790604305E+02 -0.31059664005E+02 -0.12028781310E+02  0.13057037401E+03  0.12499089031E+03 0.  0.
          5    1    3    3  502    0  0.10130928595E+02 -0.72476865798E+02  0.13044352147E+02  0.74483400252E+02  0.47000000000E+01 0.  1.
         -5    1    3    3    0  502 -0.27921532900E+02  0.41417201794E+02 -0.25073133457E+02  0.56086973757E+02  0.47000000000E+01 0.  1.
        -11    1    1    2    0    0  0.48855277629E+02  0.25270556026E+01  0.15333857437E+02  0.51267449187E+02  0.00000000000E+00 0. -1.
         11    1    1    2    0    0 -0.31064673324E+02  0.28532608402E+02  0.11557936816E+02  0.43734535260E+02  0.00000000000E+00 0.  1.
<mgrwt>
<rscale>  0 0.11895826E+03</rscale>
<asrwt>0</asrwt>
<pdfrwt beam="2">  1        2 0.16208411E-01 0.13001512E+03</pdfrwt>
<pdfrwt beam="1">  1       -2 0.18495029E-01 0.13001512E+03</pdfrwt>
<totfact> 0.80364325E+03</totfact>
</mgrwt>
</event>
<event>
 7    1  0.5206756E-006  0.2341999E+03  0.7546771E-02  0.1126600E+00
         -1   -1    0    0    0  501 -0.00000000000E+00  0.00000000000E+00  0.11595157137E+03  0.11595157137E+03  0.00000000000E+00 0.  1.
          1   -1    0    0  501    0  0.00000000000E+00 -0.00000000000E+00 -0.44848852934E+03  0.44848852934E+03  0.00000000000E+00 0. -1.
         23    2    1    2    0    0  0.19331033399E+03  0.43083873055E+02 -0.20854165461E+03  0.31359086061E+03  0.12499800322E+03 0.  0.
          5    1    3    3  502    0  0.18745159012E+03  0.74375693674E+02 -0.18510364404E+03  0.27377964038E+03  0.47000000000E+01 0.  1.
         -5    1    3    3    0  502  0.58587438676E+01 -0.31291820618E+02 -0.23438010566E+02  0.39811220235E+02  0.47000000000E+01 0.  1.
        -11    1    1    2    0    0 -0.75524858703E+02  0.11489030030E+02 -0.80889497415E+01  0.76820786256E+02  0.00000000000E+00 0.  1.
         11    1    1    2    0    0 -0.11778547528E+03 -0.54572903085E+02 -0.11590635362E+03  0.17402845385E+03  0.00000000000E+00 0. -1.
<mgrwt>
<rscale>  0 0.23005647E+03</rscale>
<asrwt>0</asrwt>
<pdfrwt beam="2">  1        1 0.68998235E-01 0.23419993E+03</pdfrwt>
<pdfrwt beam="1">  1       -1 0.17838703E-01 0.23419993E+03</pdfrwt>
<totfact> 0.12668009E+03</totfact>
</mgrwt>
</event>
<event>
 7    1  0.5206756E-006  0.1485304E+03  0.7546771E-02  0.1210672E+00
          1   -1    0    0  501    0  0.00000000000E+00  0.00000000000E+00  0.97613106102E+02  0.97613106102E+02  0.00000000000E+00 0. -1.
         -1   -1    0    0    0  501 -0.00000000000E+00 -0.00000000000E+00 -0.19181250537E+03  0.19181250537E+03  0.00000000000E+00 0.  1.
         23    2    1    2    0    0 -0.34981586100E+02 -0.72284714931E+02 -0.64078020961E+02  0.16176300507E+03  0.12494993261E+03 0.  0.
          5    1    3    3  502    0 -0.32961938930E+02 -0.56438035783E+02  0.25749541091E+02  0.70405043622E+02  0.47000000000E+01 0. -1.
         -5    1    3    3    0  502 -0.20196471705E+01 -0.15846679149E+02 -0.89827562053E+02  0.91357961443E+02  0.47000000000E+01 0. -1.
        -11    1    1    2    0    0  0.25604099035E+02  0.41187382914E+02 -0.64282699718E+02  0.80524753224E+02  0.00000000000E+00 0.  1.
         11    1    1    2    0    0  0.93774870649E+01  0.31097332017E+02  0.34161321411E+02  0.47137853184E+02  0.00000000000E+00 0. -1.
<mgrwt>
<rscale>  0 0.14199331E+03</rscale>
<asrwt>0</asrwt>
<pdfrwt beam="1">  1        1 0.15017401E-01 0.14853039E+03</pdfrwt>
<pdfrwt beam="2">  1       -1 0.29509616E-01 0.14853039E+03</pdfrwt>
<totfact> 0.37741306E+03</totfact>
</mgrwt>
</event>
<event>
 7    1  0.5206756E-006  0.1283598E+03  0.7546771E-02  0.1248459E+00
          3   -1    0    0  501    0  0.00000000000E+00  0.00000000000E+00  0.43238083350E+02  0.43238083350E+02  0.00000000000E+00 0. -1.
         -3   -1    0    0    0  501 -0.00000000000E+00 -0.00000000000E+00 -0.32979614297E+03  0.32979614297E+03  0.00000000000E+00 0.  1.
         23    2    1    2    0    0 -0.17772154266E+02 -0.23130644929E+02 -0.87394482345E+02  0.15528696845E+03  0.12500148329E+03 0.  0.
          5    1    3    3  502    0  0.27039030098E+02 -0.26776569015E+02  0.16684029647E+02  0.41815555026E+02  0.47000000000E+01 0. -1.
         -5    1    3    3    0  502 -0.44811184364E+02  0.36459240866E+01 -0.10407851199E+03  0.11347141343E+03  0.47000000000E+01 0. -1.
        -11    1    1    2    0    0  0.29369518412E+02 -0.12178311199E+02 -0.27286062287E+02  0.41897602205E+02  0.00000000000E+00 0. -1.
         11    1    1    2    0    0 -0.11597364146E+02  0.35308956128E+02 -0.17187751499E+03  0.17584965567E+03  0.00000000000E+00 0.  1.
<mgrwt>
<rscale>  0 0.11680696E+03</rscale>
<asrwt>0</asrwt>
<pdfrwt beam="1">  1        3 0.66520131E-02 0.12835983E+03</pdfrwt>
<pdfrwt beam="2">  1       -3 0.50737866E-01 0.12835983E+03</pdfrwt>
<totfact> 0.12747692E+03</totfact>
</mgrwt>
</event>
<event>
 6    1  0.5206756E-006  0.1750324E+03  0.7546771E-02  0.1199352E+00
         -2   -1    0    0    0  501 -0.00000000000E+00  0.00000000000E+00  0.32410526846E+02  0.32410526846E+02  0.00000000000E+00 0.  1.
          2   -1    0    0  501    0  0.00000000000E+00 -0.00000000000E+00 -0.61797524835E+03  0.61797524835E+03  0.00000000000E+00 0. -1.
          5    1    1    2  502    0  0.42013485460E+01 -0.23019640276E+02 -0.43118351832E+03  0.43184357311E+03  0.47000000000E+01 0. -1.
         -5    1    1    2    0  502 -0.24748485054E+02  0.45359906887E+02 -0.26696421784E+02  0.58350643539E+02  0.47000000000E+01 0.  1.
        -11    1    1    2    0    0  0.40825330173E+02  0.23074796727E+02 -0.58246465158E+02  0.74778369407E+02  0.00000000000E+00 0.  1.
         11    1    1    2    0    0 -0.20278193665E+02 -0.45415063339E+02 -0.69438316247E+02  0.85413189143E+02  0.00000000000E+00 0. -1.
<mgrwt>
<rscale>  0 0.15091634E+03</rscale>
<asrwt>0</asrwt>
<pdfrwt beam="2">  1        2 0.95073124E-01 0.17503237E+03</pdfrwt>
<pdfrwt beam="1">  1       -2 0.49862344E-02 0.17503237E+03</pdfrwt>
<totfact> 0.93115577E+03</totfact>
</mgrwt>
</event>
<event>
 6    1  0.5206756E-006  0.1915325E+03  0.7546771E-02  0.1170286E+00
         -2   -1    0    0    0  501 -0.00000000000E+00  0.00000000000E+00  0.10844460549E+03  0.10844460549E+03  0.00000000000E+00 0.  1.
          2   -1    0    0  501    0  0.00000000000E+00 -0.00000000000E+00 -0.25653155332E+03  0.25653155332E+03  0.00000000000E+00 0. -1.
          5    1    1    2  502    0  0.41008864794E+02  0.43143917253E+02 -0.59871966047E+02  0.84556885621E+02  0.47000000000E+01 0. -1.
         -5    1    1    2    0  502 -0.12179615515E+03  0.27674839116E+02 -0.38644246523E+02  0.13082686238E+03  0.47000000000E+01 0.  1.
        -11    1    1    2    0    0  0.17336942952E+02  0.16000634724E+02 -0.33336264296E+02  0.40839887606E+02  0.00000000000E+00 0.  1.
         11    1    1    2    0    0  0.63450347405E+02 -0.86819391093E+02 -0.16234470965E+02  0.10875252320E+03  0.00000000000E+00 0. -1.
<mgrwt>
<rscale>  0 0.17745769E+03</rscale>
<asrwt>0</asrwt>
<pdfrwt beam="2">  1        2 0.39466393E-01 0.19153254E+03</pdfrwt>
<pdfrwt beam="1">  1       -2 0.16683786E-01 0.19153254E+03</pdfrwt>
<totfact> 0.36399154E+03</totfact>
</mgrwt>
</event>
<event>
 6    1  0.5206756E-006  0.1855624E+03  0.7546771E-02  0.1193398E+00
         -2   -1    0    0    0  501 -0.00000000000E+00  0.00000000000E+00  0.15344037695E+02  0.15344037695E+02  0.00000000000E+00 0.  1.
          2   -1    0    0  501    0  0.00000000000E+00 -0.00000000000E+00 -0.16859894972E+04  0.16859894972E+04  0.00000000000E+00 0. -1.
          5    1    1    2  502    0  0.74747213606E+02  0.34137394011E+02 -0.52125741518E+03  0.52771572887E+03  0.47000000000E+01 0. -1.
         -5    1    1    2    0  502 -0.87580992933E+02 -0.47840035855E+02 -0.93256625771E+03  0.93790245461E+03  0.47000000000E+01 0.  1.
        -11    1    1    2    0    0 -0.19901074604E+02 -0.31083057769E+02 -0.91602324115E+02  0.98758265649E+02  0.00000000000E+00 0.  1.
         11    1    1    2    0    0  0.32734853931E+02  0.44785699613E+02 -0.12521946246E+03  0.13695708573E+03  0.00000000000E+00 0. -1.
<mgrwt>
<rscale>  0 0.15590621E+03</rscale>
<asrwt>0</asrwt>
<pdfrwt beam="2">  1        2 0.25938304E+00 0.18556236E+03</pdfrwt>
<pdfrwt beam="1">  1       -2 0.23606208E-02 0.18556236E+03</pdfrwt>
<totfact> 0.65243847E+03</totfact>
</mgrwt>
</event>
<event>
 7    1  0.5206756E-006  0.1426948E+03  0.7546771E-02  0.1219831E+00
         -1   -1    0    0    0  501 -0.00000000000E+00  0.00000000000E+00  0.10051432500E+03  0.10051432500E+03  0.00000000000E+00 0.  1.
          1   -1    0    0  501    0  0.00000000000E+00 -0.00000000000E+00 -0.16860982515E+03  0.16860982515E+03  0.00000000000E+00 0. -1.
         23    2    1    2    0    0 -0.47073808749E+02  0.50207537217E+02 -0.55796819489E+02  0.15321580341E+03  0.12500022835E+03 0.  0.
          5    1    3    3  502    0  0.25122160224E+01  0.24373304692E+02 -0.85963653122E+02  0.89510942734E+02  0.47000000000E+01 0.  1.
         -5    1    3    3    0  502 -0.49586024772E+02  0.25834232525E+02  0.30166833634E+02  0.63704860680E+02  0.47000000000E+01 0.  1.
        -11    1    1    2    0    0 -0.11252547575E+02 -0.37438213732E+02  0.24153780692E+02  0.45952636443E+02  0.00000000000E+00 0.  1.
         11    1    1    2    0    0  0.58326356325E+02 -0.12769323484E+02 -0.36452461352E+02  0.69955710296E+02  0.00000000000E+00 0. -1.
<mgrwt>
<rscale>  0 0.13527578E+03</rscale>
<asrwt>0</asrwt>
<pdfrwt beam="2">  1        1 0.25939973E-01 0.14269477E+03</pdfrwt>
<pdfrwt beam="1">  1       -1 0.15463742E-01 0.14269477E+03</pdfrwt>
<totfact> 0.53463294E+03</totfact>
</mgrwt>
</event>
<event>
 7    1  0.5206756E-006  0.1264353E+03  0.7546771E-02  0.1247983E+00
          2   -1    0    0  501    0  0.00000000000E+00  0.00000000000E+00  0.18120887756E+02  0.18120887756E+02  0.00000000000E+00 0.  1.
         -2   -1    0    0    0  501 -0.00000000000E+00 -0.00000000000E+00 -0.68154678221E+03  0.68154678221E+03  0.00000000000E+00 0. -1.
         23    2    1    2    0    0  0.16340923948E+02  0.96587950849E+01 -0.32586485829E+03  0.34953368372E+03  0.12500228826E+03 0.  0.
          5    1    3    3  502    0 -0.13533942096E+02  0.48062939984E+02 -0.27285513900E+03  0.27742608145E+03  0.47000000000E+01 0.  1.
         -5    1    3    3    0  502  0.29874866044E+02 -0.38404144900E+02 -0.53009719284E+02  0.72107602271E+02  0.47000000000E+01 0.  1.
        -11    1    1    2    0    0 -0.52681946004E+02  0.41377916048E+01 -0.16529009552E+03  0.17353191185E+03  0.00000000000E+00 0.  1.
         11    1    1    2    0    0  0.36341022056E+02 -0.13796586690E+02 -0.17227094064E+03  0.17660207438E+03  0.00000000000E+00 0. -1.
<mgrwt>
<rscale>  0 0.11708613E+03</rscale>
<asrwt>0</asrwt>
<pdfrwt beam="1">  1        2 0.27878292E-02 0.12643532E+03</pdfrwt>
<pdfrwt beam="2">  1       -2 0.10485334E+00 0.12643532E+03</pdfrwt>
<totfact> 0.25245648E+03</totfact>
</mgrwt>
</event>
<event>
 7    1  0.5206756E-006  0.1354514E+03  0.7546771E-02  0.1226150E+00
         -1   -1    0    0    0  501 -0.00000000000E+00  0.00000000000E+00  0.10502349450E+02  0.10502349450E+02  0.00000000000E+00 0.  1.
          1   -1    0    0  501    0  0.00000000000E+00 -0.00000000000E+00 -0.19574634099E+04  0.19574634099E+04  0.00000000000E+00 0. -1.
         23    2    1    2    0    0  0.55668256138E+02 -0.50998538507E+02 -0.14845116086E+04  0.14906783034E+04  0.11246013767E+03 0.  0.
          5    1    3    3  502    0  0.41532522504E+02 -0.83267985603E+02 -0.12524566365E+04  0.12559172840E+04  0.47000000000E+01 0. -1.
         -5    1    3    3    0  502  0.14135733634E+02  0.32269447096E+02 -0.23205497208E+03  0.23476101944E+03  0.47000000000E+01 0.  1.
        -11    1    1    2    0    0  0.56341930230E+01 -0.20999265838E+02 -0.58276877582E+02  0.62200544672E+02  0.00000000000E+00 0. -1.
         11    1    1    2    0    0 -0.61302449161E+02  0.71997804345E+02 -0.40417257429E+03  0.41508691128E+03  0.00000000000E+00 0.  1.
<mgrwt>
<rscale>  0 0.13088365E+03</rscale>
<asrwt>0</asrwt>
<pdfrwt beam="2">  1        1 0.30114830E+00 0.13545142E+03</pdfrwt>
<pdfrwt beam="1">  1       -1 0.16157456E-02 0.13545142E+03</pdfrwt>
<totfact> 0.33484050E+03</totfact>
</mgrwt>
</event>
<event>
 7    1  0.5206756E-006  0.1415681E+03  0.7546771E-02  0.1222019E+00
         -2   -1    0    0    0  501 -0.00000000000E+00  0.00000000000E+00  0.46262728443E+02  0.46262728443E+02  0.00000000000E+00 0.  1.
          2   -1    0    0  501    0  0.00000000000E+00 -0.00000000000E+00 -0.35589997030E+03  0.35589997030E+03  0.00000000000E+00 0. -1.
         23    2    1    2    0    0  0.36272859258E+02  0.55652991612E+02 -0.19890849799E+03  0.24414362352E+03  0.12501416935E+03 0.  0.
          5    1    3    3  502    0 -0.32038114194E+01 -0.48113149668E+01  0.15854206102E+02  0.17517391657E+02  0.47000000000E+01 0.  1.
         -5    1    3    3    0  502  0.39476670677E+02  0.60464306579E+02 -0.21476270410E+03  0.22662623186E+03  0.47000000000E+01 0.  1.
        -11    1    1    2    0    0 -0.15803694857E+02 -0.22192685793E+02  0.11558395845E+02  0.29595077096E+02  0.00000000000E+00 0.  1.
         11    1    1    2    0    0 -0.20469164401E+02 -0.33460305819E+02 -0.12228713971E+03  0.12842399813E+03  0.00000000000E+00 0. -1.
<mgrwt>
<rscale>  0 0.13373302E+03</rscale>
<asrwt>0</asrwt>
<pdfrwt beam="2">  1        2 0.54753841E-01 0.14156807E+03</pdfrwt>
<pdfrwt beam="1">  1       -2 0.71173429E-02 0.14156807E+03</pdfrwt>
<totfact> 0.98014141E+03</totfact>
</mgrwt>
</event>
<event>
 6    1  0.5206756E-006  0.1888656E+03  0.7546771E-02  0.1167653E+00
          1   -1    0    0  501    0  0.00000000000E+00  0.00000000000E+00  0.65216105759E+03  0.65216105759E+03  0.00000000000E+00 0. -1.
         -1   -1    0    0    0  501 -0.00000000000E+00 -0.00000000000E+00 -0.62670426672E+02  0.62670426672E+02  0.00000000000E+00 0.  1.
          5    1    1    2  502    0  0.45786863802E+02 -0.51834896133E+02  0.36461800692E+03  0.37114912680E+03  0.47000000000E+01 0. -1.
         -5    1    1    2    0  502 -0.61096234696E+02  0.67892495742E+02  0.13581680510E+03  0.16373892457E+03  0.47000000000E+01 0.  1.
        -11    1    1    2    0    0  0.93751924789E+01  0.67751286276E+02  0.20208558809E+02  0.71319821054E+02  0.00000000000E+00 0.  1.
         11    1    1    2    0    0  0.59341784142E+01 -0.83808885885E+02  0.68847260086E+02  0.10862361183E+03  0.00000000000E+00 0. -1.
<mgrwt>
<rscale>  0 0.18015515E+03</rscale>
<asrwt>0</asrwt>
<pdfrwt beam="1">  1        1 0.10033247E+00 0.18886563E+03</pdfrwt>
<pdfrwt beam="2">  1       -1 0.96416046E-02 0.18886563E+03</pdfrwt>
<totfact> 0.20012110E+03</totfact>
</mgrwt>
</event>
<event>
 7    1  0.5206756E-006  0.1379606E+03  0.7546771E-02  0.1224716E+00
         -3   -1    0    0    0  501 -0.00000000000E+00  0.00000000000E+00  0.12286392741E+03  0.12286392741E+03  0.00000000000E+00 0.  1.
          3   -1    0    0  501    0  0.00000000000E+00 -0.00000000000E+00 -0.13154677142E+03  0.13154677142E+03  0.00000000000E+00 0. -1.
         23    2    1    2    0    0 -0.35419902554E+01 -0.67685371206E+02 -0.16809949587E+02  0.13898090613E+03  0.12016348319E+03 0.  0.
          5    1    3    3  502    0 -0.48130497900E+02 -0.92986021653E+00  0.17657632013E+02  0.51490692717E+02  0.47000000000E+01 0. -1.
         -5    1    3    3    0  502  0.44588507644E+02 -0.66755510989E+02 -0.34467581600E+02  0.87490213411E+02  0.47000000000E+01 0.  1.
        -11    1    1    2    0    0  0.18295425891E+02  0.34230449465E+02  0.47736620921E+02  0.61524233080E+02  0.00000000000E+00 0.  1.
         11    1    1    2    0    0 -0.14753435636E+02  0.33454921740E+02 -0.39609515350E+02  0.53905559620E+02  0.00000000000E+00 0. -1.
<mgrwt>
<rscale>  0 0.13186390E+03</rscale>
<asrwt>0</asrwt>
<pdfrwt beam="2">  1        3 0.20237965E-01 0.13796057E+03</pdfrwt>
<pdfrwt beam="1">  1       -3 0.18902143E-01 0.13796057E+03</pdfrwt>
<totfact> 0.12575464E+03</totfact>
</mgrwt>
</event>
<event>
 7    1  0.5206756E-006  0.1326929E+03  0.7546771E-02  0.1243604E+00
          1   -1    0    0  501    0  0.00000000000E+00  0.00000000000E+00  0.40452688125E+03  0.40452688125E+03  0.00000000000E+00 0. -1.
         -1   -1    0    0    0  501 -0.00000000000E+00 -0.00000000000E+00 -0.43472702849E+02  0.43472702849E+02  0.00000000000E+00 0.  1.
         23    2    1    2    0    0 -0.44303470199E+02  0.46848881969E+01  0.32854310722E+03  0.35432748909E+03  0.12499060196E+03 0.  0.
          5    1    3    3  502    0  0.33223675140E+02 -0.17272656539E+02  0.19232079750E+03  0.19598861294E+03  0.47000000000E+01 0.  1.
         -5    1    3    3    0  502 -0.77527145338E+02  0.21957544736E+02  0.13622230972E+03  0.15833887615E+03  0.47000000000E+01 0.  1.
        -11    1    1    2    0    0  0.12513807958E+02  0.31359763238E+02  0.30609994703E+02  0.45574136478E+02  0.00000000000E+00 0. -1.
         11    1    1    2    0    0  0.31789662241E+02 -0.36044651435E+02  0.19010764794E+01  0.48097958525E+02  0.00000000000E+00 0.  1.
<mgrwt>
<rscale>  0 0.11969340E+03</rscale>
<asrwt>0</asrwt>
<pdfrwt beam="1">  1        1 0.62234902E-01 0.13269286E+03</pdfrwt>
<pdfrwt beam="2">  1       -1 0.66881084E-02 0.13269286E+03</pdfrwt>
<totfact> 0.64635855E+03</totfact>
</mgrwt>
</event>
<event>
 7    1  0.5206756E-006  0.1588537E+03  0.7546771E-02  0.1198483E+00
         -1   -1    0    0    0  501 -0.00000000000E+00  0.00000000000E+00  0.35147569339E+02  0.35147569339E+02  0.00000000000E+00 0.  1.
          1   -1    0    0  501    0  0.00000000000E+00 -0.00000000000E+00 -0.93892567996E+03  0.93892567996E+03  0.00000000000E+00 0. -1.
         23    2    1    2    0    0  0.69358316578E+02 -0.69268471698E+02 -0.77003553842E+03  0.78625011352E+03  0.12500325328E+03 0.  0.
          5    1    3    3  502    0  0.41912618626E+02 -0.47799841790E+02 -0.73076170294E+03  0.73353680819E+03  0.47000000000E+01 0. -1.
         -5    1    3    3    0  502  0.27445697952E+02 -0.21468629908E+02 -0.39273835480E+02  0.52713305337E+02  0.47000000000E+01 0. -1.
        -11    1    1    2    0    0 -0.44364363908E+02  0.30158452842E+02 -0.85730449955E+01  0.54325189031E+02  0.00000000000E+00 0.  1.
         11    1    1    2    0    0 -0.24993952670E+02  0.39110018856E+02 -0.12516952721E+03  0.13349794675E+03  0.00000000000E+00 0. -1.
<mgrwt>
<rscale>  0 0.15163063E+03</rscale>
<asrwt>0</asrwt>
<pdfrwt beam="2">  1        1 0.14445010E+00 0.15885374E+03</pdfrwt>
<pdfrwt beam="1">  1       -1 0.54073186E-02 0.15885374E+03</pdfrwt>
<totfact> 0.27533796E+03</totfact>
</mgrwt>
</event>
<event>
 6    1  0.5206756E-006  0.1802164E+03  0.7546771E-02  0.1187578E+00
         -1   -1    0    0    0  501 -0.00000000000E+00  0.00000000000E+00  0.27052627081E+02  0.27052627081E+02  0.00000000000E+00 0.  1.
          1   -1    0    0  501    0  0.00000000000E+00 -0.00000000000E+00 -0.86414701723E+03  0.86414701723E+03  0.00000000000E+00 0. -1.
          5    1    1    2  502    0 -0.59904078096E+02 -0.45474643216E+02 -0.59872251961E+03  0.60344609306E+03  0.47000000000E+01 0. -1.
         -5    1    1    2    0  502 -0.12318079027E+02  0.33758783137E+02 -0.20865683566E+02  0.41819340747E+02  0.47000000000E+01 0.  1.
        -11    1    1    2    0    0 -0.20083031986E+01  0.16836202253E+02 -0.98419184395E+00  0.16984099082E+02  0.00000000000E+00 0. -1.
         11    1    1    2    0    0  0.74230460322E+02 -0.51203421733E+01 -0.21652199514E+03  0.22895011142E+03  0.00000000000E+00 0.  1.
<mgrwt>
<rscale>  0 0.16099532E+03</rscale>
<asrwt>0</asrwt>
<pdfrwt beam="2">  1        1 0.13294570E+00 0.18021637E+03</pdfrwt>
<pdfrwt beam="1">  1       -1 0.41619424E-02 0.18021637E+03</pdfrwt>
<totfact> 0.46579532E+03</totfact>
</mgrwt>
</event>
<event>
 7    1  0.5206756E-006  0.1181699E+03  0.7546771E-02  0.1256559E+00
          1   -1    0    0  501    0  0.00000000000E+00  0.00000000000E+00  0.10421613444E+03  0.10421613444E+03  0.00000000000E+00 0. -1.
         -1   -1    0    0    0  501 -0.00000000000E+00 -0.00000000000E+00 -0.12292855969E+03  0.12292855969E+03  0.00000000000E+00 0.  1.
         23    2    1    2    0    0 -0.94679843036E+01 -0.96788217580E+01  0.26356477674E+02  0.12107344348E+03  0.11739162016E+03 0.  0.
          5    1    3    3  502    0  0.30209109192E+02 -0.38435126545E+02  0.46735619242E+02  0.67794965422E+02  0.47000000000E+01 0. -1.
         -5    1    3    3    0  502 -0.39677093496E+02  0.28756304787E+02 -0.20379141568E+02  0.53278478059E+02  0.47000000000E+01 0.  1.
        -11    1    1    2    0    0 -0.30657454820E+02  0.24769977215E+02 -0.49157672794E+02  0.63007206745E+02  0.00000000000E+00 0.  1.
         11    1    1    2    0    0  0.40125439124E+02 -0.15091155457E+02  0.40887698700E+01  0.43064043899E+02  0.00000000000E+00 0. -1.
<mgrwt>
<rscale>  0 0.11219431E+03</rscale>
<asrwt>0</asrwt>
<pdfrwt beam="1">  1        1 0.16033252E-01 0.11816986E+03</pdfrwt>
<pdfrwt beam="2">  1       -1 0.18912086E-01 0.11816986E+03</pdfrwt>
<totfact> 0.70659119E+03</totfact>
</mgrwt>
</event>
<event>
 7    1  0.5206756E-006  0.1304432E+03  0.7546771E-02  0.1240744E+00
          2   -1    0    0  501    0  0.00000000000E+00  0.00000000000E+00  0.12826708483E+03  0.12826708483E+03  0.00000000000E+00 0. -1.
         -2   -1    0    0    0  501 -0.00000000000E+00 -0.00000000000E+00 -0.11812622550E+03  0.11812622550E+03  0.00000000000E+00 0.  1.
         23    2    1    2    0    0  0.86034883278E+01 -0.36279363674E+02  0.51232801356E+02  0.14014358580E+03  0.12500084987E+03 0.  0.
          5    1    3    3  502    0  0.14400745197E+02 -0.72633490675E+02 -0.31973577908E+01  0.74265190545E+02  0.47000000000E+01 0. -1.
         -5    1    3    3    0  502 -0.57972568688E+01  0.36354127001E+02  0.54430159147E+02  0.65878395259E+02  0.47000000000E+01 0. -1.
        -11    1    1    2    0    0 -0.26223465511E+02  0.49152621413E+02 -0.56647047824E+02  0.79451484331E+02  0.00000000000E+00 0.  1.
         11    1    1    2    0    0  0.17619977183E+02 -0.12873257739E+02  0.15555105797E+02  0.26798240187E+02  0.00000000000E+00 0. -1.
<mgrwt>
<rscale>  0 0.12143742E+03</rscale>
<asrwt>0</asrwt>
<pdfrwt beam="1">  1        2 0.19733398E-01 0.13044319E+03</pdfrwt>
<pdfrwt beam="2">  1       -2 0.18173265E-01 0.13044319E+03</pdfrwt>
<totfact> 0.66080935E+03</totfact>
</mgrwt>
</event>
<event>
 7    1  0.5206756E-006  0.2834626E+03  0.7546771E-02  0.1095008E+00
         -1   -1    0    0    0  501 -0.00000000000E+00  0.00000000000E+00  0.57631192112E+02  0.57631192112E+02  0.00000000000E+00 0.  1.
          1   -1    0    0  501    0  0.00000000000E+00 -0.00000000000E+00 -0.18896746211E+04  0.18896746211E+04  0.00000000000E+00 0. -1.
         23    2    1    2    0    0 -0.21424456188E+03  0.13720518605E+03 -0.14458237982E+04  0.14733490802E+04  0.12500024436E+03 0.  0.
          5    1    3    3  502    0 -0.13497939041E+03  0.23049773096E+02 -0.55069735939E+03  0.56748603464E+03  0.47000000000E+01 0. -1.
         -5    1    3    3    0  502 -0.79265171474E+02  0.11415541296E+03 -0.89512643885E+03  0.90586304552E+03  0.47000000000E+01 0. -1.
        -11    1    1    2    0    0  0.11629968281E+03 -0.13300641712E+03 -0.24789631223E+03  0.30441567771E+03  0.00000000000E+00 0.  1.
         11    1    1    2    0    0  0.97944879075E+02 -0.41987689299E+01 -0.13832331849E+03  0.16954105531E+03  0.00000000000E+00 0. -1.
<mgrwt>
<rscale>  0 0.28125043E+03</rscale>
<asrwt>0</asrwt>
<pdfrwt beam="2">  1        1 0.29071916E+00 0.28346262E+03</pdfrwt>
<pdfrwt beam="1">  1       -1 0.88663376E-02 0.28346262E+03</pdfrwt>
<totfact> 0.29212647E+02</totfact>
</mgrwt>
</event>
<event>
 7    1  0.5206756E-006  0.1258983E+03  0.7546771E-02  0.1248379E+00
         -2   -1    0    0    0  501 -0.00000000000E+00  0.00000000000E+00  0.20355611012E+03  0.20355611012E+03  0.00000000000E+00 0.  1.
          2   -1    0    0  501    0  0.00000000000E+00 -0.00000000000E+00 -0.62919560831E+02  0.62919560831E+02  0.00000000000E+00 0. -1.
         23    2    1    2    0    0 -0.15165404718E+00 -0.15014504105E+02  0.47534242929E+02  0.13457300270E+03  0.12499972189E+03 0.  0.
          5    1    3    3  502    0 -0.53163231438E+02 -0.26033550404E+02  0.53462344722E+02  0.79902360583E+02  0.47000000000E+01 0.  1.
         -5    1    3    3    0  502  0.53011577391E+02  0.11019046299E+02 -0.59281017934E+01  0.54670642118E+02  0.47000000000E+01 0.  1.
        -11    1    1    2    0    0  0.41789285421E+02 -0.96924313921E+01  0.29915879199E+02  0.52299593025E+02  0.00000000000E+00 0.  1.
         11    1    1    2    0    0 -0.41637631374E+02  0.24706935497E+02  0.63186427164E+02  0.79603075229E+02  0.00000000000E+00 0. -1.
<mgrwt>
<rscale>  0 0.11685397E+03</rscale>
<asrwt>0</asrwt>
<pdfrwt beam="2">  1        2 0.96799325E-02 0.12589833E+03</pdfrwt>
<pdfrwt beam="1">  1       -2 0.31316324E-01 0.12589833E+03</pdfrwt>
<totfact> 0.59437344E+03</totfact>
</mgrwt>
</event>
<event>
 6    1  0.5206756E-006  0.2637449E+03  0.7546771E-02  0.1141999E+00
          2   -1    0    0  501    0  0.00000000000E+00  0.00000000000E+00  0.75043990703E+03  0.75043990703E+03  0.00000000000E+00 0. -1.
         -2   -1    0    0    0  501 -0.00000000000E+00 -0.00000000000E+00 -0.56797098094E+02  0.56797098094E+02  0.00000000000E+00 0.  1.
          5    1    1    2  502    0  0.95442159894E+02  0.29997619632E+02  0.62808183676E+03  0.63601725349E+03  0.47000000000E+01 0. -1.
         -5    1    1    2    0  502 -0.46506115228E+02 -0.18025361822E+02  0.56614933895E+01  0.50417010322E+02  0.47000000000E+01 0.  1.
        -11    1    1    2    0    0  0.18303386921E+02  0.19606432970E+02  0.31253996125E+02  0.41185415627E+02  0.00000000000E+00 0. -1.
         11    1    1    2    0    0 -0.67239431587E+02 -0.31578690779E+02  0.28645482654E+02  0.79617325677E+02  0.00000000000E+00 0.  1.
<mgrwt>
<rscale>  0 0.20945397E+03</rscale>
<asrwt>0</asrwt>
<pdfrwt beam="1">  1        2 0.11545229E+00 0.26374493E+03</pdfrwt>
<pdfrwt beam="2">  1       -2 0.87380156E-02 0.26374493E+03</pdfrwt>
<totfact> 0.31548849E+03</totfact>
</mgrwt>
</event>
<event>
 7    1  0.5206756E-006  0.1683449E+03  0.7546771E-02  0.1184858E+00
          2   -1    0    0  501    0  0.00000000000E+00  0.00000000000E+00  0.35883026163E+02  0.35883026163E+02  0.00000000000E+00 0. -1.
         -2   -1    0    0    0  501 -0.00000000000E+00 -0.00000000000E+00 -0.72732931400E+03  0.72732931400E+03  0.00000000000E+00 0.  1.
         23    2    1    2    0    0  0.43584375474E+02 -0.10397980182E+03 -0.29763573537E+03  0.34194593683E+03  0.12501438226E+03 0.  0.
          5    1    3    3  502    0 -0.32923194319E+02  0.56925369734E+01 -0.47392099264E+02  0.58175963885E+02  0.47000000000E+01 0. -1.
         -5    1    3    3    0  502  0.76507569793E+02 -0.10967233880E+03 -0.25024363611E+03  0.28376997295E+03  0.47000000000E+01 0. -1.
        -11    1    1    2    0    0 -0.39935884371E+02  0.10446122103E+02 -0.22013649547E+03  0.22397337557E+03  0.00000000000E+00 0.  1.
         11    1    1    2    0    0 -0.36484911032E+01  0.93533679721E+02 -0.17367405700E+03  0.19729302776E+03  0.00000000000E+00 0. -1.
<mgrwt>
<rscale>  0 0.16344780E+03</rscale>
<asrwt>0</asrwt>
<pdfrwt beam="1">  1        2 0.55204660E-02 0.16834486E+03</pdfrwt>
<pdfrwt beam="2">  1       -2 0.11189681E+00 0.16834486E+03</pdfrwt>
<totfact> 0.88979403E+02</totfact>
</mgrwt>
</event>
<event>
 7    1  0.5206756E-006  0.1407681E+03  0.7546771E-02  0.1223080E+00
         -3   -1    0    0    0  501 -0.00000000000E+00  0.00000000000E+00  0.34442614180E+03  0.34442614180E+03  0.00000000000E+00 0.  1.
          3   -1    0    0  501    0  0.00000000000E+00 -0.00000000000E+00 -0.49533616685E+02  0.49533616685E+02  0.00000000000E+00 0. -1.
         23    2    1    2    0    0  0.58706016427E+02 -0.27246815764E+02  0.11408937095E+03  0.18119612852E+03  0.12500746816E+03 0.  0.
          5    1    3    3  502    0  0.86841636731E+02 -0.44341153972E+02  0.51623409351E+02  0.11042949877E+03  0.47000000000E+01 0.  1.
         -5    1    3    3    0  502 -0.28135620303E+02  0.17094338207E+02  0.62465961595E+02  0.70766629753E+02  0.47000000000E+01 0.  1.
        -11    1    1    2    0    0 -0.26373250085E+02 -0.26413547026E+02  0.25238173503E+02  0.45057620757E+02  0.00000000000E+00 0. -1.
         11    1    1    2    0    0 -0.32332766343E+02  0.53660362790E+02  0.15556498067E+03  0.16770600921E+03  0.00000000000E+00 0.  1.
<mgrwt>
<rscale>  0 0.13299402E+03</rscale>
<asrwt>0</asrwt>
<pdfrwt beam="2">  1        3 0.76205566E-02 0.14076808E+03</pdfrwt>
<pdfrwt beam="1">  1       -3 0.52988636E-01 0.14076808E+03</pdfrwt>
<totfact> 0.95223873E+02</totfact>
</mgrwt>
</event>
<event>
 7    1  0.5206756E-006  0.2016154E+03  0.7546771E-02  0.1152610E+00
         -2   -1    0    0    0  501 -0.00000000000E+00  0.00000000000E+00  0.26565893680E+02  0.26565893680E+02  0.00000000000E+00 0.  1.
          2   -1    0    0  501    0  0.00000000000E+00 -0.00000000000E+00 -0.17998284387E+04  0.17998284387E+04  0.00000000000E+00 0. -1.
         23    2    1    2    0    0  0.20011340886E+02 -0.15691971812E+03 -0.13572773397E+04  0.13721700173E+04  0.12499811141E+03 0.  0.
          5    1    3    3  502    0 -0.40602920156E+02 -0.21749331638E+02 -0.50341550048E+03  0.50554019294E+03  0.47000000000E+01 0.  1.
         -5    1    3    3    0  502  0.60614261042E+02 -0.13517038649E+03 -0.85386183923E+03  0.86662982439E+03  0.47000000000E+01 0.  1.
        -11    1    1    2    0    0  0.32953774488E+02  0.47032913227E+02 -0.97211013859E+02  0.11290716273E+03  0.00000000000E+00 0. -1.
         11    1    1    2    0    0 -0.52965115374E+02  0.10988680490E+03 -0.31877419142E+03  0.34131715230E+03  0.00000000000E+00 0.  1.
<mgrwt>
<rscale>  0 0.19663430E+03</rscale>
<asrwt>0</asrwt>
<pdfrwt beam="2">  1        2 0.27689674E+00 0.20161542E+03</pdfrwt>
<pdfrwt beam="1">  1       -2 0.40870598E-02 0.20161542E+03</pdfrwt>
<totfact> 0.25220360E+03</totfact>
</mgrwt>
</event>
<event>
 7    1  0.5206756E-006  0.1314869E+03  0.7546771E-02  0.1240034E+00
          1   -1    0    0  501    0  0.00000000000E+00  0.00000000000E+00  0.14638025674E+03  0.14638025674E+03  0.00000000000E+00 0. -1.
         -1   -1    0    0    0  501 -0.00000000000E+00 -0.00000000000E+00 -0.11805445940E+03  0.11805445940E+03  0.00000000000E+00 0.  1.
         23    2    1    2    0    0  0.28055948125E+02  0.29596313842E+02  0.80571717199E+02  0.15420965239E+03  0.12500294900E+03 0.  0.
          5    1    3    3  502    0  0.66565906698E+02 -0.63558671957E+01  0.12806862812E+02  0.68246045434E+02  0.47000000000E+01 0. -1.
         -5    1    3    3    0  502 -0.38509958573E+02  0.35952181037E+02  0.67764854386E+02  0.85963606955E+02  0.47000000000E+01 0. -1.
        -11    1    1    2    0    0  0.26159994708E+01  0.24976671225E+02 -0.38764158277E+02  0.46188066918E+02  0.00000000000E+00 0.  1.
         11    1    1    2    0    0 -0.30671947596E+02 -0.54572985067E+02 -0.13481761585E+02  0.64036996837E+02  0.00000000000E+00 0. -1.
<mgrwt>
<rscale>  0 0.12187592E+03</rscale>
<asrwt>0</asrwt>
<pdfrwt beam="1">  1        1 0.22520039E-01 0.13148694E+03</pdfrwt>
<pdfrwt beam="2">  1       -1 0.18162225E-01 0.13148694E+03</pdfrwt>
<totfact> 0.49279090E+03</totfact>
</mgrwt>
</event>
<event>
 7    1  0.5206756E-006  0.1396870E+03  0.7546771E-02  0.1224513E+00
         -1   -1    0    0    0  501 -0.00000000000E+00  0.00000000000E+00  0.19161379142E+02  0.19161379142E+02  0.00000000000E+00 0.  1.
          1   -1    0    0  501    0  0.00000000000E+00 -0.00000000000E+00 -0.12207972353E+04  0.12207972353E+04  0.00000000000E+00 0. -1.
         23    2    1    2    0    0  0.58542025423E+02 -0.21461770712E+02 -0.99902252944E+03  0.10087410291E+04  0.12499869210E+03 0.  0.
          5    1    3    3  502    0  0.63079132195E+02  0.39999684978E+02 -0.64928266974E+03  0.65358169110E+03  0.47000000000E+01 0. -1.
         -5    1    3    3    0  502 -0.45371067716E+01 -0.61461455690E+02 -0.34973985970E+03  0.35515933795E+03  0.47000000000E+01 0. -1.
        -11    1    1    2    0    0 -0.11559606132E+02  0.40040298983E+02 -0.29967579917E+02  0.51331334316E+02  0.00000000000E+00 0.  1.
         11    1    1    2    0    0 -0.46982419291E+02 -0.18578528271E+02 -0.17264574676E+03  0.17988625103E+03  0.00000000000E+00 0. -1.
<mgrwt>
<rscale>  0 0.13200361E+03</rscale>
<asrwt>0</asrwt>
<pdfrwt beam="2">  1        1 0.18781498E+00 0.13968697E+03</pdfrwt>
<pdfrwt beam="1">  1       -1 0.29479042E-02 0.13968697E+03</pdfrwt>
<totfact> 0.42158588E+03</totfact>
</mgrwt>
</event>
<event>
 7    1  0.5206756E-006  0.1316479E+03  0.7546771E-02  0.1237200E+00
          2   -1    0    0  501    0  0.00000000000E+00  0.00000000000E+00  0.26429546583E+03  0.26429546583E+03  0.00000000000E+00 0. -1.
         -2   -1    0    0    0  501 -0.00000000000E+00 -0.00000000000E+00 -0.53167439568E+02  0.53167439568E+02  0.00000000000E+00 0.  1.
         23    2    1    2    0    0 -0.33531574811E+02 -0.24110251435E+02  0.14334407183E+03  0.19462446775E+03  0.12500195913E+03 0.  0.
          5    1    3    3  502    0 -0.54479216984E+02 -0.62896601921E+02  0.69607768725E+02  0.10858774831E+03  0.47000000000E+01 0.  1.
         -5    1    3    3    0  502  0.20947642173E+02  0.38786350486E+02  0.73736303107E+02  0.86036719443E+02  0.47000000000E+01 0.  1.
        -11    1    1    2    0    0  0.17682098936E+02  0.50543577509E+02  0.74054769401E+02  0.91386096980E+02  0.00000000000E+00 0. -1.
         11    1    1    2    0    0  0.15849475875E+02 -0.26433326073E+02 -0.62708149708E+01  0.31452340664E+02  0.00000000000E+00 0.  1.
<mgrwt>
<rscale>  0 0.12364632E+03</rscale>
<asrwt>0</asrwt>
<pdfrwt beam="1">  1        2 0.40660840E-01 0.13164787E+03</pdfrwt>
<pdfrwt beam="2">  1       -2 0.81796062E-02 0.13164787E+03</pdfrwt>
<totfact> 0.10789883E+04</totfact>
</mgrwt>
</event>
<event>
 7    1  0.5206756E-006  0.1317736E+03  0.7546771E-02  0.1239231E+00
         -1   -1    0    0    0  501 -0.00000000000E+00  0.00000000000E+00  0.16760476054E+02  0.16760476054E+02  0.00000000000E+00 0.  1.
          1   -1    0    0  501    0  0.00000000000E+00 -0.00000000000E+00 -0.10117660989E+04  0.10117660989E+04  0.00000000000E+00 0. -1.
         23    2    1    2    0    0 -0.16551400517E+02  0.38330481386E+02 -0.79443801824E+03  0.80529252469E+03  0.12498444241E+03 0.  0.
          5    1    3    3  502    0 -0.68424170138E+02  0.39362454782E+01 -0.45622334947E+03  0.46136666079E+03  0.47000000000E+01 0.  1.
         -5    1    3    3    0  502  0.51872769620E+02  0.34394235908E+02 -0.33821466877E+03  0.34392586390E+03  0.47000000000E+01 0.  1.
        -11    1    1    2    0    0  0.48271163349E+02 -0.30351583535E+02 -0.79554941160E+02  0.97879070782E+02  0.00000000000E+00 0.  1.
         11    1    1    2    0    0 -0.31719762832E+02 -0.79788978513E+01 -0.12101266342E+03  0.12535497945E+03  0.00000000000E+00 0. -1.
<mgrwt>
<rscale>  0 0.12237413E+03</rscale>
<asrwt>0</asrwt>
<pdfrwt beam="2">  1        1 0.15565632E+00 0.13177361E+03</pdfrwt>
<pdfrwt beam="1">  1       -1 0.25785348E-02 0.13177361E+03</pdfrwt>
<totfact> 0.71628901E+03</totfact>
</mgrwt>
</event>
<event>
 7    1  0.5206756E-006  0.1419851E+03  0.7546771E-02  0.1221626E+00
         -3   -1    0    0    0  501 -0.00000000000E+00  0.00000000000E+00  0.54435356243E+02  0.54435356243E+02  0.00000000000E+00 0.  1.
          3   -1    0    0  501    0  0.00000000000E+00 -0.00000000000E+00 -0.37235280308E+03  0.37235280308E+03  0.00000000000E+00 0. -1.
         23    2    1    2    0    0  0.43323215137E+02 -0.51559843653E+02 -0.26855759020E+03  0.30378110200E+03  0.12499784090E+03 0.  0.
          5    1    3    3  502    0 -0.38407538051E+01 -0.73060353339E+02 -0.81517003543E+02  0.10963429430E+03  0.47000000000E+01 0.  1.
         -5    1    3    3    0  502  0.47163968942E+02  0.21500509686E+02 -0.18704058666E+03  0.19414680770E+03  0.47000000000E+01 0.  1.
        -11    1    1    2    0    0  0.26698827746E+01  0.42743557815E+02 -0.61206034836E+02  0.74701530835E+02  0.00000000000E+00 0. -1.
         11    1    1    2    0    0 -0.45993097911E+02  0.88162858372E+01  0.11846178200E+02  0.48305526489E+02  0.00000000000E+00 0.  1.
<mgrwt>
<rscale>  0 0.13400883E+03</rscale>
<asrwt>0</asrwt>
<pdfrwt beam="2">  1        3 0.57285049E-01 0.14198514E+03</pdfrwt>
<pdfrwt beam="1">  1       -3 0.83746699E-02 0.14198514E+03</pdfrwt>
<totfact> 0.69850032E+02</totfact>
</mgrwt>
</event>
<event>
 7    1  0.5206756E-006  0.2366007E+03  0.7546771E-02  0.1124755E+00
          2   -1    0    0  501    0  0.00000000000E+00  0.00000000000E+00  0.12565930415E+04  0.12565930415E+04  0.00000000000E+00 0.  1.
         -2   -1    0    0    0  501 -0.00000000000E+00 -0.00000000000E+00 -0.41934631500E+02  0.41934631500E+02  0.00000000000E+00 0. -1.
         23    2    1    2    0    0 -0.14285311572E+03 -0.14123376065E+03  0.58186429096E+03  0.62812891813E+03  0.12500358750E+03 0.  0.
          5    1    3    3  502    0 -0.57258608603E+02 -0.69824189082E+02  0.10584392317E+03  0.13920844699E+03  0.47000000000E+01 0. -1.
         -5    1    3    3    0  502 -0.85594507112E+02 -0.71409571564E+02  0.47602036779E+03  0.48892047115E+03  0.47000000000E+01 0. -1.
        -11    1    1    2    0    0  0.81484779545E+02  0.26412599692E+02  0.32721909355E+03  0.33824507373E+03  0.00000000000E+00 0.  1.
         11    1    1    2    0    0  0.61368336170E+02  0.11482116095E+03  0.30557502549E+03  0.33215368113E+03  0.00000000000E+00 0. -1.
<mgrwt>
<rscale>  0 0.23269833E+03</rscale>
<asrwt>0</asrwt>
<pdfrwt beam="1">  1        2 0.19332198E+00 0.23660069E+03</pdfrwt>
<pdfrwt beam="2">  1       -2 0.64514827E-02 0.23660069E+03</pdfrwt>
<totfact> 0.24524507E+03</totfact>
</mgrwt>
</event>
<event>
 7    1  0.5206756E-006  0.1535060E+03  0.7546771E-02  0.1204394E+00
          1   -1    0    0  501    0  0.00000000000E+00  0.00000000000E+00  0.68703035265E+03  0.68703035265E+03  0.00000000000E+00 0. -1.
         -1   -1    0    0    0  501 -0.00000000000E+00 -0.00000000000E+00 -0.29477307008E+02  0.29477307008E+02  0.00000000000E+00 0.  1.
         23    2    1    2    0    0  0.38101710812E+01 -0.89018776412E+02  0.40486680786E+03  0.43299102671E+03  0.12500094857E+03 0.  0.
          5    1    3    3  502    0  0.32783870304E+02 -0.21324085445E+02  0.31153999871E+03  0.31402031713E+03  0.47000000000E+01 0.  1.
         -5    1    3    3    0  502 -0.28973699222E+02 -0.67694690967E+02  0.93326809150E+02  0.11897070958E+03  0.47000000000E+01 0.  1.
        -11    1    1    2    0    0 -0.37081491050E+02  0.54190190192E+02  0.76262244950E+02  0.10063569792E+03  0.00000000000E+00 0.  1.
         11    1    1    2    0    0  0.33271319969E+02  0.34828586220E+02  0.17642399283E+03  0.18288093503E+03  0.00000000000E+00 0. -1.
<mgrwt>
<rscale>  0 0.14685292E+03</rscale>
<asrwt>0</asrwt>
<pdfrwt beam="1">  1        1 0.10569697E+00 0.15350602E+03</pdfrwt>
<pdfrwt beam="2">  1       -1 0.45349708E-02 0.15350602E+03</pdfrwt>
<totfact> 0.57440866E+03</totfact>
</mgrwt>
</event>
<event>
 7    1  0.5206756E-006  0.1538225E+03  0.7546771E-02  0.1204708E+00
         -2   -1    0    0    0  501 -0.00000000000E+00  0.00000000000E+00  0.91616856595E+02  0.91616856595E+02  0.00000000000E+00 0.  1.
          2   -1    0    0  501    0  0.00000000000E+00 -0.00000000000E+00 -0.21741536681E+03  0.21741536681E+03  0.00000000000E+00 0. -1.
         23    2    1    2    0    0 -0.45711964112E+02  0.77100792984E+02 -0.84828065736E+02  0.17566208433E+03  0.12500900444E+03 0.  0.
          5    1    3    3  502    0 -0.50145922571E+02  0.90461390005E+02 -0.15412967551E+02  0.10467820308E+03  0.47000000000E+01 0.  1.
         -5    1    3    3    0  502  0.44339584591E+01 -0.13360597021E+02 -0.69415098186E+02  0.70983881244E+02  0.47000000000E+01 0.  1.
        -11    1    1    2    0    0  0.55021063684E+02 -0.53504074153E+02  0.90571265949E+01  0.77278942423E+02  0.00000000000E+00 0.  1.
         11    1    1    2    0    0 -0.93090995719E+01 -0.23596718831E+02 -0.50027571073E+02  0.56091196652E+02  0.00000000000E+00 0. -1.
<mgrwt>
<rscale>  0 0.14660493E+03</rscale>
<asrwt>0</asrwt>
<pdfrwt beam="2">  1        2 0.33448517E-01 0.15382252E+03</pdfrwt>
<pdfrwt beam="1">  1       -2 0.14094901E-01 0.15382252E+03</pdfrwt>
<totfact> 0.56762331E+03</totfact>
</mgrwt>
</event>
<event>
 7    1  0.5206756E-006  0.1270830E+03  0.7546771E-02  0.1248012E+00
          2   -1    0    0  501    0  0.00000000000E+00  0.00000000000E+00  0.69935975402E+03  0.69935975402E+03  0.00000000000E+00 0. -1.
         -2   -1    0    0    0  501 -0.00000000000E+00 -0.00000000000E+00 -0.17095559129E+02  0.17095559129E+02  0.00000000000E+00 0.  1.
         23    2    1    2    0    0 -0.10897956513E+02 -0.20166885919E+02  0.40648392782E+03  0.42588644566E+03  0.12499844909E+03 0.  0.
          5    1    3    3  502    0  0.91022363851E+01 -0.67760158751E+02  0.16081717427E+03  0.17481002077E+03  0.47000000000E+01 0.  1.
         -5    1    3    3    0  502 -0.20000192898E+02  0.47593272832E+02  0.24566675355E+03  0.25107642489E+03  0.47000000000E+01 0.  1.
        -11    1    1    2    0    0  0.12788188910E+01  0.47311323902E+02  0.24008198430E+03  0.24470258669E+03  0.00000000000E+00 0. -1.
         11    1    1    2    0    0  0.96191376224E+01 -0.27144437983E+02  0.35698282775E+02  0.45866280807E+02  0.00000000000E+00 0.  1.
<mgrwt>
<rscale>  0 0.11706901E+03</rscale>
<asrwt>0</asrwt>
<pdfrwt beam="1">  1        2 0.10759379E+00 0.12708297E+03</pdfrwt>
<pdfrwt beam="2">  1       -2 0.26300866E-02 0.12708297E+03</pdfrwt>
<totfact> 0.20357248E+04</totfact>
</mgrwt>
</event>
<event>
 7    1  0.5206756E-006  0.2937450E+03  0.7546771E-02  0.1090006E+00
         -2   -1    0    0    0  501 -0.00000000000E+00  0.00000000000E+00  0.11805768058E+03  0.11805768058E+03  0.00000000000E+00 0.  1.
          2   -1    0    0  501    0  0.00000000000E+00 -0.00000000000E+00 -0.90834683974E+03  0.90834683974E+03  0.00000000000E+00 0. -1.
         23    2    1    2    0    0 -0.62939786170E+02 -0.25826690315E+03 -0.64677065114E+03  0.71035088715E+03  0.12499159073E+03 0.  0.
          5    1    3    3  502    0 -0.83646502114E+02 -0.17097987402E+03 -0.32896876633E+03  0.38009655859E+03  0.47000000000E+01 0.  1.
         -5    1    3    3    0  502  0.20706715943E+02 -0.87287029131E+02 -0.31780188482E+03  0.33025432856E+03  0.47000000000E+01 0.  1.
        -11    1    1    2    0    0  0.41617747389E+02  0.20180574198E+03 -0.15069209798E+03  0.25527573874E+03  0.00000000000E+00 0. -1.
         11    1    1    2    0    0  0.21322038781E+02  0.56461161163E+02  0.71735899670E+01  0.60777894425E+02  0.00000000000E+00 0.  1.
<mgrwt>
<rscale>  0 0.29065763E+03</rscale>
<asrwt>0</asrwt>
<pdfrwt beam="2">  1        2 0.13974567E+00 0.29374497E+03</pdfrwt>
<pdfrwt beam="1">  1       -2 0.18162720E-01 0.29374497E+03</pdfrwt>
<totfact> 0.74565619E+02</totfact>
</mgrwt>
</event>
<event>
 7    1  0.5206756E-006  0.2876160E+03  0.7546771E-02  0.1093399E+00
          2   -1    0    0  501    0  0.00000000000E+00  0.00000000000E+00  0.41349239646E+03  0.41349239646E+03  0.00000000000E+00 0. -1.
         -2   -1    0    0    0  501 -0.00000000000E+00 -0.00000000000E+00 -0.19171818886E+03  0.19171818886E+03  0.00000000000E+00 0.  1.
         23    2    1    2    0    0 -0.48709412468E+02  0.25440977126E+03  0.93957187750E+02  0.30257380156E+03  0.12500405467E+03 0.  0.
          5    1    3    3  502    0  0.14892811058E+02  0.58085003154E+02 -0.24075496078E+02  0.64787212658E+02  0.47000000000E+01 0. -1.
         -5    1    3    3    0  502 -0.63602223526E+02  0.19632476810E+03  0.11803268383E+03  0.23778658890E+03  0.47000000000E+01 0. -1.
        -11    1    1    2    0    0 -0.17105510860E+02 -0.79359539406E+02  0.10468233759E+02  0.81854254101E+02  0.00000000000E+00 0.  1.
         11    1    1    2    0    0  0.65814923328E+02 -0.17505023185E+03  0.11734878610E+03  0.22078252966E+03  0.00000000000E+00 0. -1.
<mgrwt>
<rscale>  0 0.28423293E+03</rscale>
<asrwt>0</asrwt>
<pdfrwt beam="1">  1        2 0.63614215E-01 0.28761598E+03</pdfrwt>
<pdfrwt beam="2">  1       -2 0.29495106E-01 0.28761598E+03</pdfrwt>
<totfact> 0.81419215E+02</totfact>
</mgrwt>
</event>
<event>
 7    1  0.5206756E-006  0.1320925E+03  0.7546771E-02  0.1237661E+00
          2   -1    0    0  501    0  0.00000000000E+00  0.00000000000E+00  0.26076636399E+04  0.26076636399E+04  0.00000000000E+00 0. -1.
         -2   -1    0    0    0  501 -0.00000000000E+00 -0.00000000000E+00 -0.15124133874E+02  0.15124133874E+02  0.00000000000E+00 0.  1.
         23    2    1    2    0    0  0.18382749630E+02  0.38532614167E+02  0.24164365945E+04  0.24200442674E+04  0.12500301396E+03 0.  0.
          5    1    3    3  502    0 -0.36865075939E+02  0.58211298476E+02  0.16003646803E+04  0.16018541722E+04  0.47000000000E+01 0. -1.
         -5    1    3    3    0  502  0.55247825569E+02 -0.19678684309E+02  0.81607191413E+03  0.81819009520E+03  0.47000000000E+01 0. -1.
        -11    1    1    2    0    0 -0.11042747593E+02  0.23388896747E+02  0.14781592484E+02  0.29790573036E+02  0.00000000000E+00 0.  1.
         11    1    1    2    0    0 -0.73400020370E+01 -0.61921510914E+02  0.16132131904E+03  0.17295293325E+03  0.00000000000E+00 0. -1.
<mgrwt>
<rscale>  0 0.12335581E+03</rscale>
<asrwt>0</asrwt>
<pdfrwt beam="1">  1        2 0.40117867E+00 0.13209255E+03</pdfrwt>
<pdfrwt beam="2">  1       -2 0.23267919E-02 0.13209255E+03</pdfrwt>
<totfact> 0.21966228E+03</totfact>
</mgrwt>
</event>
<event>
 7    1  0.5206756E-006  0.1278844E+03  0.7546771E-02  0.1244805E+00
          3   -1    0    0  501    0  0.00000000000E+00  0.00000000000E+00  0.22469336476E+03  0.22469336476E+03  0.00000000000E+00 0. -1.
         -3   -1    0    0    0  501 -0.00000000000E+00 -0.00000000000E+00 -0.55730790646E+02  0.55730790646E+02  0.00000000000E+00 0.  1.
         23    2    1    2    0    0  0.22171815814E+02  0.15414797264E+02  0.91759060078E+02  0.15739807539E+03  0.12500089455E+03 0.  0.
          5    1    3    3  502    0 -0.15712620649E+02  0.37251144527E+02  0.10405538769E+03  0.11173248374E+03  0.47000000000E+01 0. -1.
         -5    1    3    3    0  502  0.37884436463E+02 -0.21836347263E+02 -0.12296327607E+02  0.45665591648E+02  0.47000000000E+01 0. -1.
        -11    1    1    2    0    0  0.25546876813E+02 -0.26918859044E+02  0.60875470866E+02  0.71295798195E+02  0.00000000000E+00 0.  1.
         11    1    1    2    0    0 -0.47718692627E+02  0.11504061780E+02  0.16328043165E+02  0.51730281819E+02  0.00000000000E+00 0. -1.
<mgrwt>
<rscale>  0 0.11897048E+03</rscale>
<asrwt>0</asrwt>
<pdfrwt beam="1">  1        3 0.34568209E-01 0.12788444E+03</pdfrwt>
<pdfrwt beam="2">  1       -3 0.85739679E-02 0.12788444E+03</pdfrwt>
<totfact> 0.17779608E+03</totfact>
</mgrwt>
</event>
<event>
 6    1  0.5206756E-006  0.1369630E+03  0.7546771E-02  0.1234067E+00
         -1   -1    0    0    0  501 -0.00000000000E+00  0.00000000000E+00  0.14227257140E+03  0.14227257140E+03  0.00000000000E+00 0.  1.
          1   -1    0    0  501    0  0.00000000000E+00 -0.00000000000E+00 -0.10516826521E+03  0.10516826521E+03  0.00000000000E+00 0. -1.
          5    1    1    2  502    0  0.45962447308E+02  0.58010448935E+02 -0.27829015386E+02  0.79210497067E+02  0.47000000000E+01 0. -1.
         -5    1    1    2    0  502 -0.15571305814E+02 -0.54510810870E+02  0.13602539061E+02  0.58489427552E+02  0.47000000000E+01 0.  1.
        -11    1    1    2    0    0  0.71753819402E+01 -0.30170602193E+02 -0.10403276353E+02  0.32710541139E+02  0.00000000000E+00 0.  1.
         11    1    1    2    0    0 -0.37566523434E+02  0.26670964128E+02  0.61734058862E+02  0.77030370854E+02  0.00000000000E+00 0. -1.
<mgrwt>
<rscale>  0 0.12564378E+03</rscale>
<asrwt>0</asrwt>
<pdfrwt beam="2">  1        1 0.16179733E-01 0.13696305E+03</pdfrwt>
<pdfrwt beam="1">  1       -1 0.21888088E-01 0.13696305E+03</pdfrwt>
<totfact> 0.55815489E+03</totfact>
</mgrwt>
</event>
<event>
 6    1  0.5206756E-006  0.1871297E+03  0.7546771E-02  0.1184165E+00
          2   -1    0    0  501    0  0.00000000000E+00  0.00000000000E+00  0.80585871321E+03  0.80585871321E+03  0.00000000000E+00 0. -1.
         -2   -1    0    0    0  501 -0.00000000000E+00 -0.00000000000E+00 -0.30723954766E+02  0.30723954766E+02  0.00000000000E+00 0.  1.
          5    1    1    2  502    0 -0.45160392500E+02  0.47250957751E+01  0.25545150458E+03  0.25949826353E+03  0.47000000000E+01 0. -1.
         -5    1    1    2    0  502  0.66550976714E+02 -0.72337738847E+02  0.89877853651E+02  0.13327377664E+03  0.47000000000E+01 0.  1.
        -11    1    1    2    0    0 -0.52305689476E+02  0.38999425799E+02  0.20633507622E+03  0.21640472279E+03  0.00000000000E+00 0. -1.
         11    1    1    2    0    0  0.30915105262E+02  0.28613217273E+02  0.22347032399E+03  0.22740590503E+03  0.00000000000E+00 0.  1.
<mgrwt>
<rscale>  0 0.16408101E+03</rscale>
<asrwt>0</asrwt>
<pdfrwt beam="1">  1        2 0.12397825E+00 0.18712966E+03</pdfrwt>
<pdfrwt beam="2">  1       -2 0.47267629E-02 0.18712966E+03</pdfrwt>
<totfact> 0.73535368E+03</totfact>
</mgrwt>
</event>
<event>
 7    1  0.5206756E-006  0.1539581E+03  0.7546771E-02  0.1204252E+00
         -2   -1    0    0    0  501 -0.00000000000E+00  0.00000000000E+00  0.18870911623E+03  0.18870911623E+03  0.00000000000E+00 0.  1.
          2   -1    0    0  501    0  0.00000000000E+00 -0.00000000000E+00 -0.10600944382E+03  0.10600944382E+03  0.00000000000E+00 0. -1.
         23    2    1    2    0    0 -0.38916000293E+02  0.81048619372E+02  0.32321769043E+02  0.15731435412E+03  0.12497910016E+03 0.  0.
          5    1    3    3  502    0  0.31880290259E+01 -0.10372215785E+02 -0.34460017936E+02  0.36432529771E+02  0.47000000000E+01 0.  1.
         -5    1    3    3    0  502 -0.42104029319E+02  0.91420835157E+02  0.66781786979E+02  0.12088182435E+03  0.47000000000E+01 0.  1.
        -11    1    1    2    0    0  0.57897040188E+02 -0.17271480384E+02  0.15972060671E+02  0.62493823849E+02  0.00000000000E+00 0.  1.
         11    1    1    2    0    0 -0.18981039895E+02 -0.63777138988E+02  0.34405842694E+02  0.74910382087E+02  0.00000000000E+00 0. -1.
<mgrwt>
<rscale>  0 0.14696540E+03</rscale>
<asrwt>0</asrwt>
<pdfrwt beam="2">  1        2 0.16309145E-01 0.15395814E+03</pdfrwt>
<pdfrwt beam="1">  1       -2 0.29032172E-01 0.15395814E+03</pdfrwt>
<totfact> 0.36987351E+03</totfact>
</mgrwt>
</event>
<event>
 7    1  0.5206756E-006  0.1750927E+03  0.7546771E-02  0.1178717E+00
          1   -1    0    0  501    0  0.00000000000E+00  0.00000000000E+00  0.23004611426E+03  0.23004611426E+03  0.00000000000E+00 0. -1.
         -1   -1    0    0    0  501 -0.00000000000E+00 -0.00000000000E+00 -0.16538054002E+03  0.16538054002E+03  0.00000000000E+00 0.  1.
         23    2    1    2    0    0 -0.12182140571E+03 -0.13881969630E+02  0.14101278221E+03  0.22481564784E+03  0.12499722715E+03 0.  0.
          5    1    3    3  502    0 -0.52673158974E+02 -0.39675203455E+02  0.59399632934E+00  0.66113737431E+02  0.47000000000E+01 0.  1.
         -5    1    3    3    0  502 -0.69148246736E+02  0.25793233825E+02  0.14041878588E+03  0.15870191040E+03  0.47000000000E+01 0.  1.
        -11    1    1    2    0    0  0.94605271053E+02  0.42703646312E+02 -0.26881331131E+02  0.10722110185E+03  0.00000000000E+00 0. -1.
         11    1    1    2    0    0  0.27216134657E+02 -0.28821676682E+02 -0.49465876835E+02  0.63389904586E+02  0.00000000000E+00 0.  1.
<mgrwt>
<rscale>  0 0.16916954E+03</rscale>
<asrwt>0</asrwt>
<pdfrwt beam="1">  1        1 0.35391710E-01 0.17509275E+03</pdfrwt>
<pdfrwt beam="2">  1       -1 0.25443160E-01 0.17509275E+03</pdfrwt>
<totfact> 0.16397853E+03</totfact>
</mgrwt>
</event>
<event>
 7    1  0.5206756E-006  0.1282024E+03  0.7546771E-02  0.1244250E+00
          2   -1    0    0  501    0  0.00000000000E+00  0.00000000000E+00  0.18885526850E+03  0.18885526850E+03  0.00000000000E+00 0. -1.
         -2   -1    0    0    0  501 -0.00000000000E+00 -0.00000000000E+00 -0.81343188503E+02  0.81343188503E+02  0.00000000000E+00 0.  1.
         23    2    1    2    0    0 -0.83532770340E+01 -0.27230069680E+02  0.11702693593E+03  0.17358330434E+03  0.12499842351E+03 0.  0.
          5    1    3    3  502    0  0.15083736352E+02  0.43660372660E+02  0.18756075985E+02  0.50076218203E+02  0.47000000000E+01 0. -1.
         -5    1    3    3    0  502 -0.23437013386E+02 -0.70890442341E+02  0.98270859950E+02  0.12350708614E+03  0.47000000000E+01 0. -1.
        -11    1    1    2    0    0 -0.15201285556E+01  0.12075529597E+02  0.41100771360E+02  0.42864934530E+02  0.00000000000E+00 0. -1.
         11    1    1    2    0    0  0.98734055896E+01  0.15154540083E+02 -0.50615627293E+02  0.53750218133E+02  0.00000000000E+00 0.  1.
<mgrwt>
<rscale>  0 0.11930383E+03</rscale>
<asrwt>0</asrwt>
<pdfrwt beam="1">  1        2 0.29054657E-01 0.12820242E+03</pdfrwt>
<pdfrwt beam="2">  1       -2 0.12514337E-01 0.12820242E+03</pdfrwt>
<totfact> 0.79114151E+03</totfact>
</mgrwt>
</event>
<event>
 6    1  0.5206756E-006  0.2289696E+03  0.7546771E-02  0.1154975E+00
         -2   -1    0    0    0  501 -0.00000000000E+00  0.00000000000E+00  0.43830010050E+02  0.43830010050E+02  0.00000000000E+00 0.  1.
          2   -1    0    0  501    0  0.00000000000E+00 -0.00000000000E+00 -0.68774872169E+03  0.68774872169E+03  0.00000000000E+00 0. -1.
          5    1    1    2  502    0 -0.81301140097E+02  0.67002503608E+02 -0.45278979655E+03  0.46490848640E+03  0.47000000000E+01 0. -1.
         -5    1    1    2    0  502  0.22249683424E+02 -0.23014284148E+02  0.97583227286E+01  0.33793794546E+02  0.47000000000E+01 0.  1.
        -11    1    1    2    0    0 -0.12814169100E+02 -0.42381690740E+02 -0.96026042540E+02  0.10574219350E+03  0.00000000000E+00 0.  1.
         11    1    1    2    0    0  0.71865625773E+02 -0.16065287198E+01 -0.10486119528E+03  0.12713425730E+03  0.00000000000E+00 0. -1.
<mgrwt>
<rscale>  0 0.19391681E+03</rscale>
<asrwt>0</asrwt>
<pdfrwt beam="2">  1        2 0.10580750E+00 0.22896960E+03</pdfrwt>
<pdfrwt beam="1">  1       -2 0.67430785E-02 0.22896960E+03</pdfrwt>
<totfact> 0.52409527E+03</totfact>
</mgrwt>
</event>
<event>
 7    1  0.5206756E-006  0.1647090E+03  0.7546771E-02  0.1190815E+00
          4   -1    0    0  501    0  0.00000000000E+00  0.00000000000E+00  0.50657659023E+03  0.50657659023E+03  0.00000000000E+00 0.  1.
         -4   -1    0    0    0  501 -0.00000000000E+00 -0.00000000000E+00 -0.46053388471E+02  0.46053388471E+02  0.00000000000E+00 0. -1.
         23    2    1    2    0    0  0.10341644854E+03 -0.28019853856E+02  0.26897741883E+03  0.31540120497E+03  0.12509594005E+03 0.  0.
          5    1    3    3  502    0  0.12230221385E+03 -0.81865672490E+01  0.25771416691E+03  0.28541817255E+03  0.47000000000E+01 0. -1.
         -5    1    3    3    0  502 -0.18885765313E+02 -0.19833286607E+02  0.11263251920E+02  0.29983032416E+02  0.47000000000E+01 0. -1.
        -11    1    1    2    0    0 -0.69490207118E+02  0.32636432483E+02  0.18767638409E+03  0.20277191806E+03  0.00000000000E+00 0.  1.
         11    1    1    2    0    0 -0.33926241418E+02 -0.46165786272E+01  0.38693988331E+01  0.34456855665E+02  0.00000000000E+00 0. -1.
<mgrwt>
<rscale>  0 0.15813792E+03</rscale>
<asrwt>0</asrwt>
<pdfrwt beam="1">  1        4 0.77934856E-01 0.16470904E+03</pdfrwt>
<pdfrwt beam="2">  1       -4 0.70851370E-02 0.16470904E+03</pdfrwt>
<totfact> 0.35072810E+02</totfact>
</mgrwt>
</event>
<event>
 7    1  0.5206756E-006  0.1637568E+03  0.7546771E-02  0.1191992E+00
          2   -1    0    0  501    0  0.00000000000E+00  0.00000000000E+00  0.78612733270E+02  0.78612733270E+02  0.00000000000E+00 0.  1.
         -2   -1    0    0    0  501 -0.00000000000E+00 -0.00000000000E+00 -0.29613664224E+03  0.29613664224E+03  0.00000000000E+00 0. -1.
         23    2    1    2    0    0 -0.89636235647E+02  0.56200650609E+02 -0.14208020114E+03  0.21680195752E+03  0.12499254922E+03 0.  0.
          5    1    3    3  502    0  0.17127146401E+02  0.32519237962E+02 -0.86367183887E+02  0.93979893775E+02  0.47000000000E+01 0.  1.
         -5    1    3    3    0  502 -0.10676338205E+03  0.23681412647E+02 -0.55713017253E+02  0.12282206375E+03  0.47000000000E+01 0.  1.
        -11    1    1    2    0    0  0.20185506307E+02 -0.50024137938E+02 -0.69488304238E+02  0.87968707317E+02  0.00000000000E+00 0. -1.
         11    1    1    2    0    0  0.69450729341E+02 -0.61765126712E+01 -0.59554035894E+01  0.69978710667E+02  0.00000000000E+00 0.  1.
<mgrwt>
<rscale>  0 0.15711561E+03</rscale>
<asrwt>0</asrwt>
<pdfrwt beam="1">  1        2 0.12094267E-01 0.16375685E+03</pdfrwt>
<pdfrwt beam="2">  1       -2 0.45559482E-01 0.16375685E+03</pdfrwt>
<totfact> 0.22803536E+03</totfact>
</mgrwt>
</event>
<event>
 7    1  0.5206756E-006  0.1458023E+03  0.7546771E-02  0.1214135E+00
          2   -1    0    0  501    0  0.00000000000E+00  0.00000000000E+00  0.36234247678E+03  0.36234247678E+03  0.00000000000E+00 0.  1.
         -2   -1    0    0    0  501 -0.00000000000E+00 -0.00000000000E+00 -0.56808240794E+02  0.56808240794E+02  0.00000000000E+00 0. -1.
         23    2    1    2    0    0  0.75031400707E+02  0.83675635988E+00  0.23996486636E+03  0.28078718460E+03  0.12501157824E+03 0.  0.
          5    1    3    3  502    0  0.10144178595E+03  0.28153835243E+02  0.19564067522E+03  0.22221709694E+03  0.47000000000E+01 0. -1.
         -5    1    3    3    0  502 -0.26410385242E+02 -0.27317078883E+02  0.44324191142E+02  0.58570087653E+02  0.47000000000E+01 0. -1.
        -11    1    1    2    0    0 -0.28075032848E+02 -0.47685955400E+02  0.26158147085E+02  0.61207895493E+02  0.00000000000E+00 0. -1.
         11    1    1    2    0    0 -0.46956367859E+02  0.46849199040E+02  0.39411222544E+02  0.77155637484E+02  0.00000000000E+00 0.  1.
<mgrwt>
<rscale>  0 0.13940271E+03</rscale>
<asrwt>0</asrwt>
<pdfrwt beam="1">  1        2 0.55744995E-01 0.14580228E+03</pdfrwt>
<pdfrwt beam="2">  1       -2 0.87397296E-02 0.14580228E+03</pdfrwt>
<totfact> 0.70153591E+03</totfact>
</mgrwt>
</event>
<event>
 7    1  0.5206756E-006  0.1253214E+03  0.7546771E-02  0.1250749E+00
         -2   -1    0    0    0  501 -0.00000000000E+00  0.00000000000E+00  0.17826728360E+02  0.17826728360E+02  0.00000000000E+00 0.  1.
          2   -1    0    0  501    0  0.00000000000E+00 -0.00000000000E+00 -0.90220825899E+03  0.90220825899E+03  0.00000000000E+00 0. -1.
         23    2    1    2    0    0 -0.60054383100E+01  0.66409090681E+01 -0.73382745468E+03  0.74445160372E+03  0.12500116028E+03 0.  0.
          5    1    3    3  502    0 -0.35825759184E+02  0.56235942115E+02 -0.36225948149E+03  0.36837479303E+03  0.47000000000E+01 0. -1.
         -5    1    3    3    0  502  0.29820320874E+02 -0.49595033047E+02 -0.37156797319E+03  0.37607681069E+03  0.47000000000E+01 0. -1.
        -11    1    1    2    0    0  0.36365710421E+02  0.26451578201E+02 -0.66368398186E+02  0.80168043268E+02  0.00000000000E+00 0. -1.
         11    1    1    2    0    0 -0.30360272111E+02 -0.33092487269E+02 -0.84185677759E+02  0.95415340360E+02  0.00000000000E+00 0.  1.
<mgrwt>
<rscale>  0 0.11547824E+03</rscale>
<asrwt>0</asrwt>
<pdfrwt beam="2">  1        2 0.13880129E+00 0.12532141E+03</pdfrwt>
<pdfrwt beam="1">  1       -2 0.27425733E-02 0.12532141E+03</pdfrwt>
<totfact> 0.13952799E+04</totfact>
</mgrwt>
</event>
<event>
 7    1  0.5206756E-006  0.1375037E+03  0.7546771E-02  0.1227819E+00
          2   -1    0    0  501    0  0.00000000000E+00  0.00000000000E+00  0.38025933547E+03  0.38025933547E+03  0.00000000000E+00 0.  1.
         -2   -1    0    0    0  501 -0.00000000000E+00 -0.00000000000E+00 -0.53219467815E+02  0.53219467815E+02  0.00000000000E+00 0. -1.
         23    2    1    2    0    0  0.46771483857E+02  0.33086786898E+02  0.28533917926E+03  0.31674234257E+03  0.12499982875E+03 0.  0.
          5    1    3    3  502    0 -0.10335344230E+02  0.65617882236E+02  0.10096913593E+03  0.12095198312E+03  0.47000000000E+01 0. -1.
         -5    1    3    3    0  502  0.57106828087E+02 -0.32531095338E+02  0.18437004332E+03  0.19579035945E+03  0.47000000000E+01 0. -1.
        -11    1    1    2    0    0 -0.80695876317E+01  0.30430448216E+02  0.35287991008E-01  0.31482243701E+02  0.00000000000E+00 0. -1.
         11    1    1    2    0    0 -0.38701896225E+02 -0.63517235115E+02  0.41665400412E+02  0.85254217019E+02  0.00000000000E+00 0.  1.
<mgrwt>
<rscale>  0 0.12975570E+03</rscale>
<asrwt>0</asrwt>
<pdfrwt beam="1">  1        2 0.58501435E-01 0.13750369E+03</pdfrwt>
<pdfrwt beam="2">  1       -2 0.81876107E-02 0.13750369E+03</pdfrwt>
<totfact> 0.73467525E+03</totfact>
</mgrwt>
</event>
<event>
 7    1  0.5206756E-006  0.2131386E+03  0.7546771E-02  0.1142757E+00
         -1   -1    0    0    0  501 -0.00000000000E+00  0.00000000000E+00  0.24985185586E+03  0.24985185586E+03  0.00000000000E+00 0.  1.
          1   -1    0    0  501    0  0.00000000000E+00 -0.00000000000E+00 -0.16752054550E+03  0.16752054550E+03  0.00000000000E+00 0. -1.
         23    2    1    2    0    0  0.12551385185E+02  0.17221963593E+03  0.29593590794E+02  0.21518328189E+03  0.12494368299E+03 0.  0.
          5    1    3    3  502    0  0.56064375001E+02  0.96507412630E+02  0.54442430742E+02  0.12426971917E+03  0.47000000000E+01 0.  1.
         -5    1    3    3    0  502 -0.43512989817E+02  0.75712223304E+02 -0.24848839948E+02  0.90913562724E+02  0.47000000000E+01 0.  1.
        -11    1    1    2    0    0  0.38075016709E+02 -0.58089804280E+02  0.97261856438E+01  0.70133664854E+02  0.00000000000E+00 0.  1.
         11    1    1    2    0    0 -0.50626401894E+02 -0.11412983165E+03  0.43011533924E+02  0.13205545461E+03  0.00000000000E+00 0. -1.
<mgrwt>
<rscale>  0 0.20850239E+03</rscale>
<asrwt>0</asrwt>
<pdfrwt beam="2">  1        1 0.25772392E-01 0.21313860E+03</pdfrwt>
<pdfrwt beam="1">  1       -1 0.38438747E-01 0.21313860E+03</pdfrwt>
<totfact> 0.12142241E+03</totfact>
</mgrwt>
</event>
<event>
 7    1  0.5206756E-006  0.1639928E+03  0.7546771E-02  0.1191188E+00
          2   -1    0    0  501    0  0.00000000000E+00  0.00000000000E+00  0.70573647045E+03  0.70573647045E+03  0.00000000000E+00 0. -1.
         -2   -1    0    0    0  501 -0.00000000000E+00 -0.00000000000E+00 -0.35858579451E+02  0.35858579451E+02  0.00000000000E+00 0.  1.
         23    2    1    2    0    0  0.34554365188E+02  0.10037484229E+03  0.46518544371E+03  0.49324551031E+03  0.12499809311E+03 0.  0.
          5    1    3    3  502    0  0.28233798916E+02  0.89258440530E+02  0.14430680876E+03  0.17207777794E+03  0.47000000000E+01 0. -1.
         -5    1    3    3    0  502  0.63205662724E+01  0.11116401764E+02  0.32087863494E+03  0.32116773236E+03  0.47000000000E+01 0. -1.
        -11    1    1    2    0    0  0.35009721373E+01 -0.10233145195E+03  0.14417198774E+03  0.17683196801E+03  0.00000000000E+00 0.  1.
         11    1    1    2    0    0 -0.38055337326E+02  0.19566096523E+01  0.60520459555E+02  0.71517571582E+02  0.00000000000E+00 0. -1.
<mgrwt>
<rscale>  0 0.15781298E+03</rscale>
<asrwt>0</asrwt>
<pdfrwt beam="1">  1        2 0.10857483E+00 0.16399279E+03</pdfrwt>
<pdfrwt beam="2">  1       -2 0.55167051E-02 0.16399279E+03</pdfrwt>
<totfact> 0.68100682E+03</totfact>
</mgrwt>
</event>
<event>
 7    1  0.5206756E-006  0.1286983E+03  0.7546771E-02  0.1245174E+00
         -1   -1    0    0    0  501 -0.00000000000E+00  0.00000000000E+00  0.20886974716E+02  0.20886974716E+02  0.00000000000E+00 0.  1.
          1   -1    0    0  501    0  0.00000000000E+00 -0.00000000000E+00 -0.12453147435E+04  0.12453147435E+04  0.00000000000E+00 0. -1.
         23    2    1    2    0    0  0.22148080220E+02  0.21153480634E+02 -0.11150238437E+04  0.11224265734E+04  0.12500093326E+03 0.  0.
          5    1    3    3  502    0  0.62606491100E+02  0.37618195356E+02 -0.44632966823E+03  0.45229079594E+03  0.47000000000E+01 0.  1.
         -5    1    3    3    0  502 -0.40458410880E+02 -0.16464714723E+02 -0.66869417551E+03  0.67013577744E+03  0.47000000000E+01 0.  1.
        -11    1    1    2    0    0 -0.48702142661E+02  0.93105529084E+01 -0.41063915441E+02  0.64380356061E+02  0.00000000000E+00 0.  1.
         11    1    1    2    0    0  0.26554062441E+02 -0.30464033542E+02 -0.68340009575E+02  0.79394788749E+02  0.00000000000E+00 0. -1.
<mgrwt>
<rscale>  0 0.11874965E+03</rscale>
<asrwt>0</asrwt>
<pdfrwt beam="2">  1        1 0.19158690E+00 0.12869825E+03</pdfrwt>
<pdfrwt beam="1">  1       -1 0.32133804E-02 0.12869825E+03</pdfrwt>
<totfact> 0.35702444E+03</totfact>
</mgrwt>
</event>
<event>
 7    1  0.5206756E-006  0.1764252E+03  0.7546771E-02  0.1177418E+00
         -2   -1    0    0    0  501 -0.00000000000E+00  0.00000000000E+00  0.39357470805E+02  0.39357470805E+02  0.00000000000E+00 0.  1.
          2   -1    0    0  501    0  0.00000000000E+00 -0.00000000000E+00 -0.73106318865E+03  0.73106318865E+03  0.00000000000E+00 0. -1.
         23    2    1    2    0    0 -0.75175702597E+01 -0.12428104733E+03 -0.45764151204E+03  0.49047081358E+03  0.12499429123E+03 0.  0.
          5    1    3    3  502    0  0.58588590603E+02 -0.53835326249E+02 -0.20658716602E+03  0.22142992676E+03  0.47000000000E+01 0.  1.
         -5    1    3    3    0  502 -0.66106160863E+02 -0.70445721085E+02 -0.25105434602E+03  0.26904088682E+03  0.47000000000E+01 0.  1.
        -11    1    1    2    0    0  0.35772490555E+02  0.10863362542E+03 -0.14168220529E+03  0.18208454890E+03  0.00000000000E+00 0.  1.
         11    1    1    2    0    0 -0.28254920296E+02  0.15647421914E+02 -0.92382000512E+02  0.97865296975E+02  0.00000000000E+00 0. -1.
<mgrwt>
<rscale>  0 0.17041272E+03</rscale>
<asrwt>0</asrwt>
<pdfrwt beam="2">  1        2 0.11247125E+00 0.17642524E+03</pdfrwt>
<pdfrwt beam="1">  1       -2 0.60549963E-02 0.17642524E+03</pdfrwt>
<totfact> 0.56830776E+03</totfact>
</mgrwt>
</event>
<event>
 7    1  0.5206756E-006  0.1256555E+03  0.7546771E-02  0.1245954E+00
         -1   -1    0    0    0  501 -0.00000000000E+00  0.00000000000E+00  0.93163046850E+02  0.93163046850E+02  0.00000000000E+00 0.  1.
          1   -1    0    0  501    0  0.00000000000E+00 -0.00000000000E+00 -0.37254810353E+03  0.37254810353E+03  0.00000000000E+00 0. -1.
         23    2    1    2    0    0 -0.56164241019E+01 -0.11587131876E+02 -0.33122232001E+03  0.35425630812E+03  0.12499400277E+03 0.  0.
          5    1    3    3  502    0 -0.61740084746E+02 -0.24644700897E+02 -0.20148245890E+03  0.21221797896E+03  0.47000000000E+01 0. -1.
         -5    1    3    3    0  502  0.56123660644E+02  0.13057569021E+02 -0.12973986111E+03  0.14203832917E+03  0.47000000000E+01 0. -1.
        -11    1    1    2    0    0 -0.41909435336E+02  0.87250843636E+01  0.24855447384E+01  0.42880132929E+02  0.00000000000E+00 0. -1.
         11    1    1    2    0    0  0.47525859438E+02  0.28620475121E+01  0.49351718592E+02  0.68574709327E+02  0.00000000000E+00 0.  1.
<mgrwt>
<rscale>  0 0.11828470E+03</rscale>
<asrwt>0</asrwt>
<pdfrwt beam="2">  1        1 0.57315094E-01 0.12565551E+03</pdfrwt>
<pdfrwt beam="1">  1       -1 0.14332776E-01 0.12565551E+03</pdfrwt>
<totfact> 0.22371716E+03</totfact>
</mgrwt>
</event>
<event>
 7    1  0.5206756E-006  0.1264371E+03  0.7546771E-02  0.1248129E+00
         -4   -1    0    0    0  501 -0.00000000000E+00  0.00000000000E+00  0.42468244282E+03  0.42468244282E+03  0.00000000000E+00 0.  1.
          4   -1    0    0  501    0  0.00000000000E+00 -0.00000000000E+00 -0.32093087059E+02  0.32093087059E+02  0.00000000000E+00 0. -1.
         23    2    1    2    0    0  0.87670755574E+01  0.16845289033E+02  0.14492268491E+03  0.19232506992E+03  0.12500289013E+03 0.  0.
          5    1    3    3  502    0 -0.35594267680E+01 -0.53007557177E+02  0.79379486443E+02  0.95632962439E+02  0.47000000000E+01 0.  1.
         -5    1    3    3    0  502  0.12326502325E+02  0.69852846210E+02  0.65543198470E+02  0.96692107480E+02  0.47000000000E+01 0.  1.
        -11    1    1    2    0    0  0.37187896800E+02 -0.20647532106E+02  0.80578297129E+02  0.91115982235E+02  0.00000000000E+00 0. -1.
         11    1    1    2    0    0 -0.45954972357E+02  0.38022430735E+01  0.16708837371E+03  0.17333447772E+03  0.00000000000E+00 0.  1.
<mgrwt>
<rscale>  0 0.11700068E+03</rscale>
<asrwt>0</asrwt>
<pdfrwt beam="2">  1        4 0.49373983E-02 0.12643713E+03</pdfrwt>
<pdfrwt beam="1">  1       -4 0.65335756E-01 0.12643713E+03</pdfrwt>
<totfact> 0.87901763E+02</totfact>
</mgrwt>
</event>
<event>
 7    1  0.5206756E-006  0.2090636E+03  0.7546771E-02  0.1145830E+00
         -2   -1    0    0    0  501 -0.00000000000E+00  0.00000000000E+00  0.24842157320E+03  0.24842157320E+03  0.00000000000E+00 0.  1.
          2   -1    0    0  501    0  0.00000000000E+00 -0.00000000000E+00 -0.16532286223E+03  0.16532286223E+03  0.00000000000E+00 0. -1.
         23    2    1    2    0    0 -0.58655758220E+02  0.15697375104E+03  0.72546209196E+02  0.22129290179E+03  0.12500535760E+03 0.  0.
          5    1    3    3  502    0 -0.76586629717E+02  0.16898853821E+03  0.56541922640E+02  0.19401473375E+03  0.47000000000E+01 0.  1.
         -5    1    3    3    0  502  0.17930871498E+02 -0.12014787170E+02  0.16004286556E+02  0.27278168039E+02  0.47000000000E+01 0.  1.
        -11    1    1    2    0    0  0.40548172687E+02 -0.15934803133E+03  0.28463700234E+02  0.16687160222E+03  0.00000000000E+00 0.  1.
         11    1    1    2    0    0  0.18107585533E+02  0.23742802870E+01 -0.17911198465E+02  0.25579931414E+02  0.00000000000E+00 0. -1.
<mgrwt>
<rscale>  0 0.20470372E+03</rscale>
<asrwt>0</asrwt>
<pdfrwt beam="2">  1        2 0.25434287E-01 0.20906362E+03</pdfrwt>
<pdfrwt beam="1">  1       -2 0.38218704E-01 0.20906362E+03</pdfrwt>
<totfact> 0.13616171E+03</totfact>
</mgrwt>
</event>
<event>
 7    1  0.5206756E-006  0.1389580E+03  0.7546771E-02  0.1227585E+00
         -1   -1    0    0    0  501 -0.00000000000E+00  0.00000000000E+00  0.10158977455E+03  0.10158977455E+03  0.00000000000E+00 0.  1.
          1   -1    0    0  501    0  0.00000000000E+00 -0.00000000000E+00 -0.14816592101E+03  0.14816592101E+03  0.00000000000E+00 0. -1.
         23    2    1    2    0    0  0.59188811866E+02 -0.13451554111E+02 -0.32052960758E+02  0.14260689583E+03  0.12500029874E+03 0.  0.
          5    1    3    3  502    0  0.43141347154E+02 -0.65308068978E+02  0.18512672309E+01  0.78433646468E+02  0.47000000000E+01 0.  1.
         -5    1    3    3    0  502  0.16047464713E+02  0.51856514867E+02 -0.33904227989E+02  0.64173249360E+02  0.47000000000E+01 0.  1.
        -11    1    1    2    0    0 -0.34499970547E+02  0.35064123034E+02  0.25489542376E+02  0.55402684614E+02  0.00000000000E+00 0.  1.
         11    1    1    2    0    0 -0.24688841319E+02 -0.21612568923E+02 -0.40012728078E+02  0.51746115114E+02  0.00000000000E+00 0. -1.
<mgrwt>
<rscale>  0 0.12991310E+03</rscale>
<asrwt>0</asrwt>
<pdfrwt beam="2">  1        1 0.22794757E-01 0.13895803E+03</pdfrwt>
<pdfrwt beam="1">  1       -1 0.15629196E-01 0.13895803E+03</pdfrwt>
<totfact> 0.61757982E+03</totfact>
</mgrwt>
</event>
<event>
 7    1  0.5206756E-006  0.2666750E+03  0.7546771E-02  0.1105313E+00
         -2   -1    0    0    0  501 -0.00000000000E+00  0.00000000000E+00  0.59591129953E+02  0.59591129953E+02  0.00000000000E+00 0.  1.
          2   -1    0    0  501    0  0.00000000000E+00 -0.00000000000E+00 -0.11467330238E+04  0.11467330238E+04  0.00000000000E+00 0. -1.
         23    2    1    2    0    0 -0.51961412484E+02 -0.22976187350E+03 -0.62885168769E+03  0.68305930578E+03  0.12500025279E+03 0.  0.
          5    1    3    3  502    0 -0.48494059550E+02 -0.15747707061E+03 -0.26526867499E+03  0.31231436328E+03  0.47000000000E+01 0.  1.
         -5    1    3    3    0  502 -0.34673529347E+01 -0.72284802897E+02 -0.36358301270E+03  0.37074494250E+03  0.47000000000E+01 0.  1.
        -11    1    1    2    0    0  0.46009304691E+00  0.13768193094E+03 -0.32722930964E+03  0.35501485445E+03  0.00000000000E+00 0. -1.
         11    1    1    2    0    0  0.51501319437E+02  0.92079942563E+02 -0.13106089653E+03  0.16824999354E+03  0.00000000000E+00 0.  1.
<mgrwt>
<rscale>  0 0.26306864E+03</rscale>
<asrwt>0</asrwt>
<pdfrwt beam="2">  1        2 0.17642045E+00 0.26667503E+03</pdfrwt>
<pdfrwt beam="1">  1       -2 0.91678667E-02 0.26667503E+03</pdfrwt>
<totfact> 0.16351652E+03</totfact>
</mgrwt>
</event>
<event>
 7    1  0.5206756E-006  0.1295532E+03  0.7546771E-02  0.1242288E+00
         -1   -1    0    0    0  501 -0.00000000000E+00  0.00000000000E+00  0.42931476752E+02  0.42931476752E+02  0.00000000000E+00 0. -1.
          1   -1    0    0  501    0  0.00000000000E+00 -0.00000000000E+00 -0.30202658347E+03  0.30202658347E+03  0.00000000000E+00 0.  1.
         23    2    1    2    0    0  0.32102975917E+02  0.11342726563E+02 -0.16587257278E+03  0.21047030342E+03  0.12499911884E+03 0.  0.
          5    1    3    3  502    0 -0.18769899782E+02 -0.40897132623E+02 -0.24793513977E+02  0.51591597475E+02  0.47000000000E+01 0.  1.
         -5    1    3    3    0  502  0.50872875699E+02  0.52239859186E+02 -0.14107905880E+03  0.15887870595E+03  0.47000000000E+01 0.  1.
        -11    1    1    2    0    0 -0.16830617755E+02  0.37700051565E+02 -0.61640206917E+02  0.74189478303E+02  0.00000000000E+00 0.  1.
         11    1    1    2    0    0 -0.15272358162E+02 -0.49042778128E+02 -0.31582327023E+02  0.60298278504E+02  0.00000000000E+00 0. -1.
<mgrwt>
<rscale>  0 0.12049167E+03</rscale>
<asrwt>0</asrwt>
<pdfrwt beam="2">  1        1 0.46465630E-01 0.12955323E+03</pdfrwt>
<pdfrwt beam="1">  1       -1 0.66048423E-02 0.12955323E+03</pdfrwt>
<totfact> 0.94640865E+03</totfact>
</mgrwt>
</event>
<event>
 7    1  0.5206756E-006  0.1254287E+03  0.7546771E-02  0.1248195E+00
         -1   -1    0    0    0  501 -0.00000000000E+00  0.00000000000E+00  0.18435569182E+02  0.18435569182E+02  0.00000000000E+00 0. -1.
          1   -1    0    0  501    0  0.00000000000E+00 -0.00000000000E+00 -0.68568578086E+03  0.68568578086E+03  0.00000000000E+00 0.  1.
         23    2    1    2    0    0 -0.52155978960E+01  0.92053727078E+01 -0.30792029391E+03  0.33248648307E+03  0.12498164936E+03 0.  0.
          5    1    3    3  502    0  0.58304866966E+02 -0.63481829212E+01 -0.16695414614E+03  0.17701845625E+03  0.47000000000E+01 0.  1.
         -5    1    3    3    0  502 -0.63520464862E+02  0.15553555629E+02 -0.14096614777E+03  0.15546802683E+03  0.47000000000E+01 0.  1.
        -11    1    1    2    0    0 -0.16762474590E+02 -0.45747877345E+02 -0.14102717032E+03  0.14920627200E+03  0.00000000000E+00 0.  1.
         11    1    1    2    0    0  0.21978072486E+02  0.36542504637E+02 -0.21830274744E+03  0.22242859496E+03  0.00000000000E+00 0. -1.
<mgrwt>
<rscale>  0 0.11696197E+03</rscale>
<asrwt>0</asrwt>
<pdfrwt beam="2">  1        1 0.10549012E+00 0.12542868E+03</pdfrwt>
<pdfrwt beam="1">  1       -1 0.28362415E-02 0.12542868E+03</pdfrwt>
<totfact> 0.11317393E+04</totfact>
</mgrwt>
</event>
<event>
 7    1  0.5206756E-006  0.1400712E+03  0.7546771E-02  0.1223548E+00
          2   -1    0    0  501    0  0.00000000000E+00  0.00000000000E+00  0.50639883286E+02  0.50639883286E+02  0.00000000000E+00 0. -1.
         -2   -1    0    0    0  501 -0.00000000000E+00 -0.00000000000E+00 -0.31900417106E+03  0.31900417106E+03  0.00000000000E+00 0.  1.
         23    2    1    2    0    0 -0.37385619267E+02 -0.50969490970E+02 -0.12927421619E+03  0.19060891999E+03  0.12499745545E+03 0.  0.
          5    1    3    3  502    0  0.28933725968E+02  0.24260884114E+02 -0.23250128553E+02  0.44591585239E+02  0.47000000000E+01 0. -1.
         -5    1    3    3    0  502 -0.66319345235E+02 -0.75230375084E+02 -0.10602408764E+03  0.14601733475E+03  0.47000000000E+01 0. -1.
        -11    1    1    2    0    0  0.15422670045E+02 -0.12375198561E+01  0.10755037011E+02  0.18843063122E+02  0.00000000000E+00 0. -1.
         11    1    1    2    0    0  0.21962949222E+02  0.52207010826E+02 -0.14984510859E+03  0.16019207124E+03  0.00000000000E+00 0.  1.
<mgrwt>
<rscale>  0 0.13266894E+03</rscale>
<asrwt>0</asrwt>
<pdfrwt beam="1">  1        2 0.77907514E-02 0.14007119E+03</pdfrwt>
<pdfrwt beam="2">  1       -2 0.49077564E-01 0.14007119E+03</pdfrwt>
<totfact> 0.33621938E+03</totfact>
</mgrwt>
</event>
<event>
 7    1  0.5206756E-006  0.1376079E+03  0.7546771E-02  0.1227702E+00
         -4   -1    0    0    0  501 -0.00000000000E+00  0.00000000000E+00  0.18134998351E+03  0.18134998351E+03  0.00000000000E+00 0.  1.
          4   -1    0    0  501    0  0.00000000000E+00 -0.00000000000E+00 -0.90643478106E+02  0.90643478106E+02  0.00000000000E+00 0. -1.
         23    2    1    2    0    0 -0.28161714273E+02 -0.50158408207E+02  0.13269706637E+02  0.13824618509E+03  0.12500789780E+03 0.  0.
          5    1    3    3  502    0 -0.13826303500E+02  0.37401341976E+02  0.26938817991E+02  0.48350976876E+02  0.47000000000E+01 0.  1.
         -5    1    3    3    0  502 -0.14335410773E+02 -0.87559750183E+02 -0.13669111354E+02  0.89895208211E+02  0.47000000000E+01 0.  1.
        -11    1    1    2    0    0  0.59846024010E+02  0.15766685211E+02  0.49734917647E+02  0.79395824738E+02  0.00000000000E+00 0.  1.
         11    1    1    2    0    0 -0.31684309737E+02  0.34391722996E+02  0.27701881117E+02  0.54351451789E+02  0.00000000000E+00 0. -1.
<mgrwt>
<rscale>  0 0.12983409E+03</rscale>
<asrwt>0</asrwt>
<pdfrwt beam="2">  1        4 0.13945151E-01 0.13760786E+03</pdfrwt>
<pdfrwt beam="1">  1       -4 0.27899997E-01 0.13760786E+03</pdfrwt>
<totfact> 0.86584369E+02</totfact>
</mgrwt>
</event>
<event>
 7    1  0.5206756E-006  0.2155228E+03  0.7546771E-02  0.1141508E+00
         -2   -1    0    0    0  501 -0.00000000000E+00  0.00000000000E+00  0.75237153955E+02  0.75237153955E+02  0.00000000000E+00 0.  1.
          2   -1    0    0  501    0  0.00000000000E+00 -0.00000000000E+00 -0.81907772488E+03  0.81907772488E+03  0.00000000000E+00 0. -1.
         23    2    1    2    0    0 -0.17388608959E+03  0.24317315038E+02 -0.63677677098E+03  0.67226091554E+03  0.12498951375E+03 0.  0.
          5    1    3    3  502    0 -0.74556973076E+02  0.49690585124E+02 -0.15001709596E+03  0.17480021614E+03  0.47000000000E+01 0. -1.
         -5    1    3    3    0  502 -0.99329116515E+02 -0.25373270086E+02 -0.48675967502E+03  0.49746069940E+03  0.47000000000E+01 0. -1.
        -11    1    1    2    0    0  0.15804763850E+02 -0.29543763941E+02 -0.34308857636E+02  0.47955419510E+02  0.00000000000E+00 0. -1.
         11    1    1    2    0    0  0.15808132574E+03  0.52264489032E+01 -0.72754942314E+02  0.17409854378E+03  0.00000000000E+00 0.  1.
<mgrwt>
<rscale>  0 0.21007358E+03</rscale>
<asrwt>0</asrwt>
<pdfrwt beam="2">  1        2 0.12601195E+00 0.21552281E+03</pdfrwt>
<pdfrwt beam="1">  1       -2 0.11574947E-01 0.21552281E+03</pdfrwt>
<totfact> 0.17990608E+03</totfact>
</mgrwt>
</event>
<event>
 7    1  0.5206756E-006  0.1336040E+03  0.7546771E-02  0.1235895E+00
          2   -1    0    0  501    0  0.00000000000E+00  0.00000000000E+00  0.33743074375E+03  0.33743074375E+03  0.00000000000E+00 0. -1.
         -2   -1    0    0    0  501 -0.00000000000E+00 -0.00000000000E+00 -0.46985756512E+02  0.46985756512E+02  0.00000000000E+00 0.  1.
         23    2    1    2    0    0  0.44202443226E+00 -0.47191139547E+02  0.23282030420E+03  0.26843120631E+03  0.12499127744E+03 0.  0.
          5    1    3    3  502    0  0.59315822413E+02 -0.46034838228E+01  0.12224300712E+03  0.13603309024E+03  0.47000000000E+01 0. -1.
         -5    1    3    3    0  502 -0.58873797981E+02 -0.42587655724E+02  0.11057729708E+03  0.13239811607E+03  0.47000000000E+01 0. -1.
        -11    1    1    2    0    0 -0.30093130351E+01  0.26632910997E+02  0.80664274498E+02  0.85000547607E+02  0.00000000000E+00 0. -1.
         11    1    1    2    0    0  0.25672886029E+01  0.20558228550E+02 -0.23039591455E+02  0.30984746348E+02  0.00000000000E+00 0.  1.
<mgrwt>
<rscale>  0 0.12447333E+03</rscale>
<asrwt>0</asrwt>
<pdfrwt beam="1">  1        2 0.51912421E-01 0.13360396E+03</pdfrwt>
<pdfrwt beam="2">  1       -2 0.72285781E-02 0.13360396E+03</pdfrwt>
<totfact> 0.10086749E+04</totfact>
</mgrwt>
</event>
<event>
 7    1  0.5206756E-006  0.2140144E+03  0.7546771E-02  0.1141814E+00
         -2   -1    0    0    0  501 -0.00000000000E+00  0.00000000000E+00  0.77042782829E+02  0.77042782829E+02  0.00000000000E+00 0.  1.
          2   -1    0    0  501    0  0.00000000000E+00 -0.00000000000E+00 -0.55137001392E+03  0.55137001392E+03  0.00000000000E+00 0. -1.
         23    2    1    2    0    0 -0.96924280875E+01 -0.17344357149E+03 -0.26832557873E+03  0.34322117797E+03  0.12500218059E+03 0.  0.
          5    1    3    3  502    0  0.29850248992E+02 -0.16610427976E+03 -0.18425378767E+03  0.24990641726E+03  0.47000000000E+01 0.  1.
         -5    1    3    3    0  502 -0.39542677080E+02 -0.73392917340E+01 -0.84071791058E+02  0.93314760706E+02  0.47000000000E+01 0.  1.
        -11    1    1    2    0    0  0.22102775875E+02  0.22132807938E+02 -0.26123227182E+01  0.31388184378E+02  0.00000000000E+00 0.  1.
         11    1    1    2    0    0 -0.12410347787E+02  0.15131076356E+03 -0.20338932964E+03  0.25380343440E+03  0.00000000000E+00 0. -1.
<mgrwt>
<rscale>  0 0.20968751E+03</rscale>
<asrwt>0</asrwt>
<pdfrwt beam="2">  1        2 0.84826153E-01 0.21401439E+03</pdfrwt>
<pdfrwt beam="1">  1       -2 0.11852736E-01 0.21401439E+03</pdfrwt>
<totfact> 0.27824529E+03</totfact>
</mgrwt>
</event>
<event>
 7    1  0.5206756E-006  0.1387273E+03  0.7546771E-02  0.1226654E+00
         -2   -1    0    0    0  501 -0.00000000000E+00  0.00000000000E+00  0.66903465583E+02  0.66903465583E+02  0.00000000000E+00 0.  1.
          2   -1    0    0  501    0  0.00000000000E+00 -0.00000000000E+00 -0.25792368046E+03  0.25792368046E+03  0.00000000000E+00 0. -1.
         23    2    1    2    0    0  0.34386794903E+02  0.49367448762E+02 -0.15990140089E+03  0.21169252934E+03  0.12500268921E+03 0.  0.
          5    1    3    3  502    0  0.19935667185E+02  0.84234405506E+02 -0.61760698054E+02  0.10643937110E+03  0.47000000000E+01 0. -1.
         -5    1    3    3    0  502  0.14451127718E+02 -0.34866956744E+02 -0.98140702836E+02  0.10525315823E+03  0.47000000000E+01 0. -1.
        -11    1    1    2    0    0 -0.29613640689E+02 -0.75661059798E+02 -0.17386529201E+02  0.83089440257E+02  0.00000000000E+00 0.  1.
         11    1    1    2    0    0 -0.47731542134E+01  0.26293611036E+02 -0.13732284789E+02  0.30045176451E+02  0.00000000000E+00 0. -1.
<mgrwt>
<rscale>  0 0.13054176E+03</rscale>
<asrwt>0</asrwt>
<pdfrwt beam="2">  1        2 0.39680567E-01 0.13872732E+03</pdfrwt>
<pdfrwt beam="1">  1       -2 0.10292841E-01 0.13872732E+03</pdfrwt>
<totfact> 0.77660649E+03</totfact>
</mgrwt>
</event>
<event>
 7    1  0.5206756E-006  0.1183873E+03  0.7546771E-02  0.1257406E+00
          2   -1    0    0  501    0  0.00000000000E+00  0.00000000000E+00  0.11190190723E+03  0.11190190723E+03  0.00000000000E+00 0. -1.
         -2   -1    0    0    0  501 -0.00000000000E+00 -0.00000000000E+00 -0.23490446274E+03  0.23490446274E+03  0.00000000000E+00 0.  1.
         23    2    1    2    0    0 -0.13573597005E+02  0.61640571185E+01  0.66157177954E+02  0.13561834275E+03  0.11744498524E+03 0.  0.
          5    1    3    3  502    0 -0.44232541728E+02 -0.21428691796E+02  0.78119995990E+02  0.92414989873E+02  0.47000000000E+01 0. -1.
         -5    1    3    3    0  502  0.30658944722E+02  0.27592748915E+02 -0.11962818036E+02  0.43203352874E+02  0.47000000000E+01 0.  1.
        -11    1    1    2    0    0  0.49360569505E+02  0.15386424337E+02 -0.94477933113E+02  0.10769998942E+03  0.00000000000E+00 0.  1.
         11    1    1    2    0    0 -0.35786972500E+02 -0.21550481455E+02 -0.94681800352E+02  0.10348803781E+03  0.00000000000E+00 0. -1.
<mgrwt>
<rscale>  0 0.11172651E+03</rscale>
<asrwt>0</asrwt>
<pdfrwt beam="1">  1        2 0.17215678E-01 0.11838734E+03</pdfrwt>
<pdfrwt beam="2">  1       -2 0.36139148E-01 0.11838734E+03</pdfrwt>
<totfact> 0.22987391E+03</totfact>
</mgrwt>
</event>
<event>
 7    1  0.5206756E-006  0.1680004E+03  0.7546771E-02  0.1185216E+00
          3   -1    0    0  501    0  0.00000000000E+00  0.00000000000E+00  0.20239109141E+03  0.20239109141E+03  0.00000000000E+00 0. -1.
         -3   -1    0    0    0  501 -0.00000000000E+00 -0.00000000000E+00 -0.12746018621E+03  0.12746018621E+03  0.00000000000E+00 0.  1.
         23    2    1    2    0    0 -0.10468775566E+03  0.40510127757E+02  0.65213043970E+02  0.18021342082E+03  0.12499415707E+03 0.  0.
          5    1    3    3  502    0 -0.65572629272E+02  0.55336276589E+02  0.95414996069E+02  0.12840554774E+03  0.47000000000E+01 0.  1.
         -5    1    3    3    0  502 -0.39115126391E+02 -0.14826148833E+02 -0.30201952100E+02  0.51807873073E+02  0.47000000000E+01 0.  1.
        -11    1    1    2    0    0  0.95519096861E+01  0.26854963482E+02  0.16383190526E+02  0.32876085139E+02  0.00000000000E+00 0.  1.
         11    1    1    2    0    0  0.95135845977E+02 -0.67365091239E+02 -0.66653292915E+01  0.11676177166E+03  0.00000000000E+00 0. -1.
<mgrwt>
<rscale>  0 0.16312243E+03</rscale>
<asrwt>0</asrwt>
<pdfrwt beam="1">  1        3 0.31137091E-01 0.16800040E+03</pdfrwt>
<pdfrwt beam="2">  1       -3 0.19609259E-01 0.16800040E+03</pdfrwt>
<totfact> 0.55570148E+02</totfact>
</mgrwt>
</event>
<event>
 7    1  0.5206756E-006  0.1285066E+03  0.7546771E-02  0.1243437E+00
          2   -1    0    0  501    0  0.00000000000E+00  0.00000000000E+00  0.76640373486E+03  0.76640373486E+03  0.00000000000E+00 0.  1.
         -2   -1    0    0    0  501 -0.00000000000E+00 -0.00000000000E+00 -0.17910609108E+02  0.17910609108E+02  0.00000000000E+00 0. -1.
         23    2    1    2    0    0 -0.10216352969E+02  0.27956278331E+02  0.52795815215E+03  0.54337258026E+03  0.12501209216E+03 0.  0.
          5    1    3    3  502    0  0.33560186996E+02 -0.32608934514E+02  0.12580184468E+03  0.13430496225E+03  0.47000000000E+01 0. -1.
         -5    1    3    3    0  502 -0.43776539965E+02  0.60565212845E+02  0.40215630748E+03  0.40906761801E+03  0.47000000000E+01 0. -1.
        -11    1    1    2    0    0 -0.18801407393E+02 -0.54389910235E+02  0.12265223742E+03  0.13548183125E+03  0.00000000000E+00 0.  1.
         11    1    1    2    0    0  0.29017760362E+02  0.26433631904E+02  0.97882736186E+02  0.10545993246E+03  0.00000000000E+00 0. -1.
<mgrwt>
<rscale>  0 0.11979389E+03</rscale>
<asrwt>0</asrwt>
<pdfrwt beam="1">  1        2 0.11790824E+00 0.12850662E+03</pdfrwt>
<pdfrwt beam="2">  1       -2 0.27554789E-02 0.12850662E+03</pdfrwt>
<totfact> 0.17051427E+04</totfact>
</mgrwt>
</event>
<event>
 7    1  0.5206756E-006  0.1671946E+03  0.7546771E-02  0.1187470E+00
         -2   -1    0    0    0  501 -0.00000000000E+00  0.00000000000E+00  0.32559019399E+02  0.32559019399E+02  0.00000000000E+00 0.  1.
          2   -1    0    0  501    0  0.00000000000E+00 -0.00000000000E+00 -0.87241414163E+03  0.87241414163E+03  0.00000000000E+00 0. -1.
         23    2    1    2    0    0  0.99061620568E+01  0.11060054457E+03 -0.61970263201E+03  0.64186086826E+03  0.12499363815E+03 0.  0.
          5    1    3    3  502    0  0.65482790560E+02  0.80269174655E+02 -0.38738762812E+03  0.40102668325E+03  0.47000000000E+01 0.  1.
         -5    1    3    3    0  502 -0.55576628503E+02  0.30331369918E+02 -0.23231500389E+03  0.24083418501E+03  0.47000000000E+01 0.  1.
        -11    1    1    2    0    0  0.92898625589E+01  0.53304588598E+01  0.28153063588E+01  0.11074352709E+02  0.00000000000E+00 0.  1.
         11    1    1    2    0    0 -0.19196024616E+02 -0.11593100343E+03 -0.22296779658E+03  0.25203794006E+03  0.00000000000E+00 0. -1.
<mgrwt>
<rscale>  0 0.16109147E+03</rscale>
<asrwt>0</asrwt>
<pdfrwt beam="2">  1        2 0.13421753E+00 0.16719456E+03</pdfrwt>
<pdfrwt beam="1">  1       -2 0.50090809E-02 0.16719456E+03</pdfrwt>
<totfact> 0.60556641E+03</totfact>
</mgrwt>
</event>
<event>
 7    1  0.5206756E-006  0.2157708E+03  0.7546771E-02  0.1140625E+00
         -2   -1    0    0    0  501 -0.00000000000E+00  0.00000000000E+00  0.11683860421E+03  0.11683860421E+03  0.00000000000E+00 0.  1.
          2   -1    0    0  501    0  0.00000000000E+00 -0.00000000000E+00 -0.38949723288E+03  0.38949723288E+03  0.00000000000E+00 0. -1.
         23    2    1    2    0    0 -0.64962312715E+02 -0.16344125537E+03 -0.20344191425E+03  0.29655628614E+03  0.12499548931E+03 0.  0.
          5    1    3    3  502    0  0.34294388778E+02 -0.68046307346E+02 -0.55298850602E+02  0.94268011133E+02  0.47000000000E+01 0.  1.
         -5    1    3    3    0  502 -0.99256701493E+02 -0.95394948022E+02 -0.14814306365E+03  0.20228827501E+03  0.47000000000E+01 0.  1.
        -11    1    1    2    0    0  0.17119276721E+02  0.14312710961E+03 -0.63414305694E+02  0.15747956473E+03  0.00000000000E+00 0.  1.
         11    1    1    2    0    0  0.47843035994E+02  0.20314145754E+02 -0.58024087324E+01  0.52299986213E+02  0.00000000000E+00 0. -1.
<mgrwt>
<rscale>  0 0.21119228E+03</rscale>
<asrwt>0</asrwt>
<pdfrwt beam="2">  1        2 0.59922652E-01 0.21577075E+03</pdfrwt>
<pdfrwt beam="1">  1       -2 0.17975170E-01 0.21577075E+03</pdfrwt>
<totfact> 0.20586040E+03</totfact>
</mgrwt>
</event>
<event>
 7    1  0.5206756E-006  0.1252132E+03  0.7546771E-02  0.1249541E+00
          2   -1    0    0  501    0  0.00000000000E+00  0.00000000000E+00  0.91323029531E+03  0.91323029531E+03  0.00000000000E+00 0. -1.
         -2   -1    0    0    0  501 -0.00000000000E+00 -0.00000000000E+00 -0.22023871166E+02  0.22023871166E+02  0.00000000000E+00 0.  1.
         23    2    1    2    0    0  0.28531702823E+01  0.69075005194E+01  0.78193904039E+03  0.79190088792E+03  0.12498999667E+03 0.  0.
          5    1    3    3  502    0 -0.59951488190E+02  0.99028772157E+01  0.32940823328E+03  0.33499868964E+03  0.47000000000E+01 0.  1.
         -5    1    3    3    0  502  0.62804658472E+02 -0.29953766962E+01  0.45253080711E+03  0.45690219828E+03  0.47000000000E+01 0.  1.
        -11    1    1    2    0    0  0.23600083343E+02  0.26569685791E+02  0.89563045873E+02  0.96355857750E+02  0.00000000000E+00 0. -1.
         11    1    1    2    0    0 -0.26453253625E+02 -0.33477186311E+02  0.19704337882E+02  0.46997420801E+02  0.00000000000E+00 0.  1.
<mgrwt>
<rscale>  0 0.11617645E+03</rscale>
<asrwt>0</asrwt>
<pdfrwt beam="1">  1        2 0.14049694E+00 0.12521323E+03</pdfrwt>
<pdfrwt beam="2">  1       -2 0.33882886E-02 0.12521323E+03</pdfrwt>
<totfact> 0.10069057E+04</totfact>
</mgrwt>
</event>
<event>
 7    1  0.5206756E-006  0.2196375E+03  0.7546771E-02  0.1137594E+00
         -1   -1    0    0    0  501 -0.00000000000E+00  0.00000000000E+00  0.44632443804E+02  0.44632443804E+02  0.00000000000E+00 0.  1.
          1   -1    0    0  501    0  0.00000000000E+00 -0.00000000000E+00 -0.12358300554E+04  0.12358300554E+04  0.00000000000E+00 0. -1.
         23    2    1    2    0    0 -0.11154080588E+03  0.14204367640E+03 -0.89756349879E+03  0.92404592793E+03  0.12499154042E+03 0.  0.
          5    1    3    3  502    0 -0.80117101949E+01  0.64348932977E+02 -0.53703685831E+03  0.54095808512E+03  0.47000000000E+01 0.  1.
         -5    1    3    3    0  502 -0.10352909569E+03  0.77694743425E+02 -0.36052664048E+03  0.38308784281E+03  0.47000000000E+01 0.  1.
        -11    1    1    2    0    0  0.82763742265E+02 -0.66504657478E+02 -0.96983661045E+02  0.14380033731E+03  0.00000000000E+00 0.  1.
         11    1    1    2    0    0  0.28777063617E+02 -0.75539018924E+02 -0.19665045179E+03  0.21261623400E+03  0.00000000000E+00 0. -1.
<mgrwt>
<rscale>  0 0.21509390E+03</rscale>
<asrwt>0</asrwt>
<pdfrwt beam="2">  1        1 0.19012772E+00 0.21963753E+03</pdfrwt>
<pdfrwt beam="1">  1       -1 0.68665292E-02 0.21963753E+03</pdfrwt>
<totfact> 0.11791463E+03</totfact>
</mgrwt>
</event>
<event>
 7    1  0.5206756E-006  0.1591611E+03  0.7546771E-02  0.1197198E+00
          1   -1    0    0  501    0  0.00000000000E+00  0.00000000000E+00  0.32478676740E+03  0.32478676740E+03  0.00000000000E+00 0. -1.
         -1   -1    0    0    0  501 -0.00000000000E+00 -0.00000000000E+00 -0.70981862181E+02  0.70981862181E+02  0.00000000000E+00 0.  1.
         23    2    1    2    0    0 -0.37085801542E+01  0.98813525576E+02  0.18613156683E+03  0.24490246971E+03  0.12471725261E+03 0.  0.
          5    1    3    3  502    0 -0.82757384252E+01 -0.12692254864E+02 -0.10313580902E+02  0.18921974819E+02  0.47000000000E+01 0.  1.
         -5    1    3    3    0  502  0.45671582710E+01  0.11150578044E+03  0.19644514773E+03  0.22598049490E+03  0.47000000000E+01 0.  1.
        -11    1    1    2    0    0 -0.23408557881E+02 -0.37883932668E+02 -0.12813320733E+02  0.46339336688E+02  0.00000000000E+00 0.  1.
         11    1    1    2    0    0  0.27117138035E+02 -0.60929592908E+02  0.80486659126E+02  0.10452682318E+03  0.00000000000E+00 0. -1.
<mgrwt>
<rscale>  0 0.15269672E+03</rscale>
<asrwt>0</asrwt>
<pdfrwt beam="1">  1        1 0.49967194E-01 0.15916111E+03</pdfrwt>
<pdfrwt beam="2">  1       -1 0.10920287E-01 0.15916111E+03</pdfrwt>
<totfact> 0.40868829E+03</totfact>
</mgrwt>
</event>
<event>
 7    1  0.5206756E-006  0.1530036E+03  0.7546771E-02  0.1202144E+00
          1   -1    0    0  501    0  0.00000000000E+00  0.00000000000E+00  0.52143908262E+02  0.52143908262E+02  0.00000000000E+00 0. -1.
         -1   -1    0    0    0  501 -0.00000000000E+00 -0.00000000000E+00 -0.40132138487E+03  0.40132138487E+03  0.00000000000E+00 0.  1.
         23    2    1    2    0    0 -0.80191289718E+02  0.36773545145E+02 -0.18594778589E+03  0.24080425882E+03  0.12500870138E+03 0.  0.
          5    1    3    3  502    0 -0.82701028287E+02 -0.13029704079E+02 -0.54169532818E+02  0.99828160124E+02  0.47000000000E+01 0. -1.
         -5    1    3    3    0  502  0.25097385684E+01  0.49803249224E+02 -0.13177825307E+03  0.14097609870E+03  0.47000000000E+01 0. -1.
        -11    1    1    2    0    0  0.84057897337E+02  0.28571955876E+01 -0.14760633189E+03  0.16988679432E+03  0.00000000000E+00 0.  1.
         11    1    1    2    0    0 -0.38666076186E+01 -0.39630740733E+02 -0.15623358826E+02  0.42774239987E+02  0.00000000000E+00 0. -1.
<mgrwt>
<rscale>  0 0.14864808E+03</rscale>
<asrwt>0</asrwt>
<pdfrwt beam="1">  1        1 0.80221400E-02 0.15300363E+03</pdfrwt>
<pdfrwt beam="2">  1       -1 0.61741750E-01 0.15300363E+03</pdfrwt>
<totfact> 0.23204524E+03</totfact>
</mgrwt>
</event>
<event>
 7    1  0.5206756E-006  0.1264803E+03  0.7546771E-02  0.1248236E+00
         -2   -1    0    0    0  501 -0.00000000000E+00  0.00000000000E+00  0.18808656038E+02  0.18808656038E+02  0.00000000000E+00 0.  1.
          2   -1    0    0  501    0  0.00000000000E+00 -0.00000000000E+00 -0.11178310732E+04  0.11178310732E+04  0.00000000000E+00 0. -1.
         23    2    1    2    0    0 -0.62055925558E+01  0.18478869744E+02 -0.96842955567E+03  0.97665402312E+03  0.12496919049E+03 0.  0.
          5    1    3    3  502    0 -0.15841854947E+02 -0.77005325248E+01 -0.92270846483E+03  0.92288854345E+03  0.47000000000E+01 0. -1.
         -5    1    3    3    0  502  0.96362623917E+01  0.26179402269E+02 -0.45721090847E+02  0.53765479671E+02  0.47000000000E+01 0.  1.
        -11    1    1    2    0    0 -0.29993353927E+02  0.12861246358E+01 -0.10973628467E+03  0.11376865812E+03  0.00000000000E+00 0. -1.
         11    1    1    2    0    0  0.36198946483E+02 -0.19764994380E+02 -0.20856576818E+02  0.46217048000E+02  0.00000000000E+00 0.  1.
<mgrwt>
<rscale>  0 0.11693793E+03</rscale>
<asrwt>0</asrwt>
<pdfrwt beam="2">  1        2 0.17197402E+00 0.12648034E+03</pdfrwt>
<pdfrwt beam="1">  1       -2 0.28936393E-02 0.12648034E+03</pdfrwt>
<totfact> 0.96103620E+03</totfact>
</mgrwt>
</event>
<event>
 7    1  0.5206756E-006  0.2329784E+03  0.7546771E-02  0.1127325E+00
          2   -1    0    0  501    0  0.00000000000E+00  0.00000000000E+00  0.27573114750E+03  0.27573114750E+03  0.00000000000E+00 0. -1.
         -2   -1    0    0    0  501 -0.00000000000E+00 -0.00000000000E+00 -0.26854144385E+03  0.26854144385E+03  0.00000000000E+00 0.  1.
         23    2    1    2    0    0  0.17918934622E+03 -0.80897809672E+02  0.15625986687E+03  0.28052821066E+03  0.12500261428E+03 0.  0.
          5    1    3    3  502    0  0.27579649882E+02  0.31513638438E+02  0.14982428057E+02  0.44724821360E+02  0.47000000000E+01 0. -1.
         -5    1    3    3    0  502  0.15160969634E+03 -0.11241144811E+03  0.14127743881E+03  0.23580338930E+03  0.47000000000E+01 0. -1.
        -11    1    1    2    0    0 -0.15427470366E+03  0.10104801113E+03 -0.13596812967E+03  0.22912598506E+03  0.00000000000E+00 0. -1.
         11    1    1    2    0    0 -0.24914642561E+02 -0.20150201460E+02 -0.13102033543E+02  0.34618395627E+02  0.00000000000E+00 0.  1.
<mgrwt>
<rscale>  0 0.22902839E+03</rscale>
<asrwt>0</asrwt>
<pdfrwt beam="1">  1        2 0.42420177E-01 0.23297839E+03</pdfrwt>
<pdfrwt beam="2">  1       -2 0.41314068E-01 0.23297839E+03</pdfrwt>
<totfact> 0.67226247E+02</totfact>
</mgrwt>
</event>
<event>
 7    1  0.5206756E-006  0.1395357E+03  0.7546771E-02  0.1227778E+00
         -2   -1    0    0    0  501 -0.00000000000E+00  0.00000000000E+00  0.20614385252E+02  0.20614385252E+02  0.00000000000E+00 0.  1.
          2   -1    0    0  501    0  0.00000000000E+00 -0.00000000000E+00 -0.12145964224E+04  0.12145964224E+04  0.00000000000E+00 0. -1.
         23    2    1    2    0    0 -0.52902523765E+00  0.62007995669E+02 -0.10390140738E+04  0.10483417596E+04  0.12499971182E+03 0.  0.
          5    1    3    3  502    0  0.22782596927E+02 -0.60083235519E-01 -0.34375552017E+02  0.41506853762E+02  0.47000000000E+01 0.  1.
         -5    1    3    3    0  502 -0.23311622164E+02  0.62068078904E+02 -0.10046385218E+04  0.10068349058E+04  0.47000000000E+01 0.  1.
        -11    1    1    2    0    0  0.18806690506E+02 -0.10799521318E+02  0.98515768376E+00  0.21709256186E+02  0.00000000000E+00 0.  1.
         11    1    1    2    0    0 -0.18277665268E+02 -0.51208474350E+02 -0.15595312104E+03  0.16515979189E+03  0.00000000000E+00 0. -1.
<mgrwt>
<rscale>  0 0.12978275E+03</rscale>
<asrwt>0</asrwt>
<pdfrwt beam="2">  1        2 0.18686103E+00 0.13953566E+03</pdfrwt>
<pdfrwt beam="1">  1       -2 0.31714432E-02 0.13953566E+03</pdfrwt>
<totfact> 0.74501253E+03</totfact>
</mgrwt>
</event>
<event>
 7    1  0.5206756E-006  0.1289918E+03  0.7546771E-02  0.1243134E+00
          1   -1    0    0  501    0  0.00000000000E+00  0.00000000000E+00  0.52921912639E+03  0.52921912639E+03  0.00000000000E+00 0. -1.
         -1   -1    0    0    0  501 -0.00000000000E+00 -0.00000000000E+00 -0.31919011539E+02  0.31919011539E+02  0.00000000000E+00 0.  1.
         23    2    1    2    0    0 -0.20571286030E+02 -0.24295974047E+02  0.41399143469E+03  0.43362171468E+03  0.12500164513E+03 0.  0.
          5    1    3    3  502    0 -0.29459025925E+02  0.27206891595E+02  0.43179489774E+02  0.59115205285E+02  0.47000000000E+01 0.  1.
         -5    1    3    3    0  502  0.88877398944E+01 -0.51502865642E+02  0.37081194492E+03  0.37450650940E+03  0.47000000000E+01 0.  1.
        -11    1    1    2    0    0  0.82044203651E+01  0.40490280789E+02 -0.44924715712E+00  0.41315580292E+02  0.00000000000E+00 0.  1.
         11    1    1    2    0    0  0.12366865665E+02 -0.16194306742E+02  0.83757927321E+02  0.86200842956E+02  0.00000000000E+00 0. -1.
<mgrwt>
<rscale>  0 0.11997732E+03</rscale>
<asrwt>0</asrwt>
<pdfrwt beam="1">  1        1 0.81418321E-01 0.12899180E+03</pdfrwt>
<pdfrwt beam="2">  1       -1 0.49106175E-02 0.12899180E+03</pdfrwt>
<totfact> 0.72269991E+03</totfact>
</mgrwt>
</event>
<event>
 7    1  0.5206756E-006  0.1262127E+03  0.7546771E-02  0.1249101E+00
          2   -1    0    0  501    0  0.00000000000E+00  0.00000000000E+00  0.11438892040E+04  0.11438892040E+04  0.00000000000E+00 0. -1.
         -2   -1    0    0    0  501 -0.00000000000E+00 -0.00000000000E+00 -0.19792570421E+02  0.19792570421E+02  0.00000000000E+00 0.  1.
         23    2    1    2    0    0 -0.17379134129E+02 -0.17020274949E+01  0.10082316629E+04  0.10161007472E+04  0.12499884512E+03 0.  0.
          5    1    3    3  502    0  0.43409620253E+02 -0.34653516166E+02  0.51889742179E+03  0.52188301913E+03  0.47000000000E+01 0. -1.
         -5    1    3    3    0  502 -0.60788754383E+02  0.32951488672E+02  0.48933424107E+03  0.49421772808E+03  0.47000000000E+01 0. -1.
        -11    1    1    2    0    0 -0.31339642119E+02 -0.48316812330E+01  0.14379440366E+02  0.34817906556E+02  0.00000000000E+00 0.  1.
         11    1    1    2    0    0  0.48718776248E+02  0.65337087280E+01  0.10148553032E+03  0.11276312062E+03  0.00000000000E+00 0. -1.
<mgrwt>
<rscale>  0 0.11643234E+03</rscale>
<asrwt>0</asrwt>
<pdfrwt beam="1">  1        2 0.17598290E+00 0.12621269E+03</pdfrwt>
<pdfrwt beam="2">  1       -2 0.30450117E-02 0.12621269E+03</pdfrwt>
<totfact> 0.86202149E+03</totfact>
</mgrwt>
</event>
<event>
 7    1  0.5206756E-006  0.1267538E+03  0.7546771E-02  0.1247744E+00
          1   -1    0    0  501    0  0.00000000000E+00  0.00000000000E+00  0.13274507506E+04  0.13274507506E+04  0.00000000000E+00 0. -1.
         -1   -1    0    0    0  501 -0.00000000000E+00 -0.00000000000E+00 -0.11732195298E+02  0.11732195298E+02  0.00000000000E+00 0.  1.
         23    2    1    2    0    0  0.38508370640E+01 -0.20671963710E+02  0.10525574819E+04  0.10601621474E+04  0.12499746824E+03 0.  0.
          5    1    3    3  502    0 -0.20552855002E+02 -0.52429932442E+02  0.23837977761E+03  0.24498637929E+03  0.47000000000E+01 0.  1.
         -5    1    3    3    0  502  0.24403692066E+02  0.31757968732E+02  0.81417770428E+03  0.81517576811E+03  0.47000000000E+01 0.  1.
        -11    1    1    2    0    0 -0.41300065923E+02  0.12518138555E+02  0.20410900796E+03  0.20862139480E+03  0.00000000000E+00 0. -1.
         11    1    1    2    0    0  0.37449228859E+02  0.81538251546E+01  0.59052065443E+02  0.70399403690E+02  0.00000000000E+00 0.  1.
<mgrwt>
<rscale>  0 0.11722651E+03</rscale>
<asrwt>0</asrwt>
<pdfrwt beam="1">  1        1 0.20422307E+00 0.12675380E+03</pdfrwt>
<pdfrwt beam="2">  1       -1 0.18049542E-02 0.12675380E+03</pdfrwt>
<totfact> 0.72414264E+03</totfact>
</mgrwt>
</event>
<event>
 7    1  0.5206756E-006  0.1509322E+03  0.7546771E-02  0.1206615E+00
          2   -1    0    0  501    0  0.00000000000E+00  0.00000000000E+00  0.48331108923E+03  0.48331108923E+03  0.00000000000E+00 0. -1.
         -2   -1    0    0    0  501 -0.00000000000E+00 -0.00000000000E+00 -0.61698076075E+02  0.61698076075E+02  0.00000000000E+00 0.  1.
         23    2    1    2    0    0 -0.57563690834E+02 -0.61936900992E+02  0.38100673406E+03  0.40981295131E+03  0.12502305969E+03 0.  0.
          5    1    3    3  502    0 -0.74816389788E+02 -0.88909787319E+02  0.32430479429E+03  0.34452595267E+03  0.47000000000E+01 0. -1.
         -5    1    3    3    0  502  0.17252698954E+02  0.26972886327E+02  0.56701939765E+02  0.65286998638E+02  0.47000000000E+01 0. -1.
        -11    1    1    2    0    0 -0.17326798503E+01 -0.15919328693E+02 -0.15585672798E+02  0.22345925849E+02  0.00000000000E+00 0.  1.
         11    1    1    2    0    0  0.59296370685E+02  0.77856229685E+02  0.56191951895E+02  0.11285028815E+03  0.00000000000E+00 0. -1.
<mgrwt>
<rscale>  0 0.14510926E+03</rscale>
<asrwt>0</asrwt>
<pdfrwt beam="1">  1        2 0.74355550E-01 0.15093218E+03</pdfrwt>
<pdfrwt beam="2">  1       -2 0.94920120E-02 0.15093218E+03</pdfrwt>
<totfact> 0.45285277E+03</totfact>
</mgrwt>
</event>
<event>
 7    1  0.5206756E-006  0.1379314E+03  0.7546771E-02  0.1226035E+00
          3   -1    0    0  501    0  0.00000000000E+00  0.00000000000E+00  0.24532742019E+02  0.24532742019E+02  0.00000000000E+00 0. -1.
         -3   -1    0    0    0  501 -0.00000000000E+00 -0.00000000000E+00 -0.66990158363E+03  0.66990158363E+03  0.00000000000E+00 0.  1.
         23    2    1    2    0    0 -0.57548001775E+02 -0.99209357164E+01 -0.27789276244E+03  0.31024098665E+03  0.12495953309E+03 0.  0.
          5    1    3    3  502    0 -0.27233238498E+02 -0.54700596505E+02 -0.22943150463E+03  0.23747570371E+03  0.47000000000E+01 0.  1.
         -5    1    3    3    0  502 -0.30314763277E+02  0.44779660789E+02 -0.48461257808E+02  0.72765282939E+02  0.47000000000E+01 0.  1.
        -11    1    1    2    0    0  0.80323662999E+02  0.24195679770E+02 -0.25067593406E+03  0.26434020821E+03  0.00000000000E+00 0.  1.
         11    1    1    2    0    0 -0.22775661224E+02 -0.14274744054E+02 -0.11680014511E+03  0.11985313079E+03  0.00000000000E+00 0. -1.
<mgrwt>
<rscale>  0 0.13096235E+03</rscale>
<asrwt>0</asrwt>
<pdfrwt beam="1">  1        3 0.37742683E-02 0.13793144E+03</pdfrwt>
<pdfrwt beam="2">  1       -3 0.10306177E+00 0.13793144E+03</pdfrwt>
<totfact> 0.69712852E+02</totfact>
</mgrwt>
</event>
<event>
 7    1  0.5206756E-006  0.1544829E+03  0.7546771E-02  0.1204269E+00
          3   -1    0    0  501    0  0.00000000000E+00  0.00000000000E+00  0.42630766866E+03  0.42630766866E+03  0.00000000000E+00 0. -1.
         -3   -1    0    0    0  501 -0.00000000000E+00 -0.00000000000E+00 -0.49594846067E+02  0.49594846067E+02  0.00000000000E+00 0.  1.
         23    2    1    2    0    0 -0.85485498767E+02 -0.30531781613E+02  0.26695339241E+03  0.30843003656E+03  0.12500005416E+03 0.  0.
          5    1    3    3  502    0  0.79137804551E+01  0.37443587625E+02  0.75532790695E+02  0.84805322036E+02  0.47000000000E+01 0. -1.
         -5    1    3    3    0  502 -0.93399279222E+02 -0.67975369238E+02  0.19142060172E+03  0.22362471452E+03  0.47000000000E+01 0. -1.
        -11    1    1    2    0    0 -0.83352805449E+00 -0.14892453392E+02 -0.60171622777E+01  0.16083724038E+02  0.00000000000E+00 0.  1.
         11    1    1    2    0    0  0.86319026821E+02  0.45424235005E+02  0.11577659245E+03  0.15138875413E+03  0.00000000000E+00 0. -1.
<mgrwt>
<rscale>  0 0.14695183E+03</rscale>
<asrwt>0</asrwt>
<pdfrwt beam="1">  1        3 0.65585793E-01 0.15448292E+03</pdfrwt>
<pdfrwt beam="2">  1       -3 0.76299766E-02 0.15448292E+03</pdfrwt>
<totfact> 0.62196994E+02</totfact>
</mgrwt>
</event>
<event>
 7    1  0.5206756E-006  0.1873874E+03  0.7546771E-02  0.1165513E+00
         -2   -1    0    0    0  501 -0.00000000000E+00  0.00000000000E+00  0.40709788406E+02  0.40709788406E+02  0.00000000000E+00 0. -1.
          2   -1    0    0  501    0  0.00000000000E+00 -0.00000000000E+00 -0.78052502209E+03  0.78052502209E+03  0.00000000000E+00 0.  1.
         23    2    1    2    0    0  0.94191970493E+02  0.10303664272E+03 -0.41973950187E+03  0.45966868551E+03  0.12500149584E+03 0.  0.
          5    1    3    3  502    0  0.52216177783E+02  0.12687840834E+03 -0.33485831078E+03  0.36190722295E+03  0.47000000000E+01 0.  1.
         -5    1    3    3    0  502  0.41975792711E+02 -0.23841765620E+02 -0.84881191093E+02  0.97761462566E+02  0.47000000000E+01 0.  1.
        -11    1    1    2    0    0 -0.75841791821E+02 -0.59508758970E+02 -0.28991100970E+03  0.30551867918E+03  0.00000000000E+00 0. -1.
         11    1    1    2    0    0 -0.18350178672E+02 -0.43527883750E+02 -0.30164722113E+02  0.56047445805E+02  0.00000000000E+00 0.  1.
<mgrwt>
<rscale>  0 0.18238677E+03</rscale>
<asrwt>0</asrwt>
<pdfrwt beam="2">  1        2 0.12008076E+00 0.18738744E+03</pdfrwt>
<pdfrwt beam="1">  1       -2 0.62630448E-02 0.18738744E+03</pdfrwt>
<totfact> 0.49906620E+03</totfact>
</mgrwt>
</event>
<event>
 7    1  0.5206756E-006  0.1399939E+03  0.7546771E-02  0.1222734E+00
          1   -1    0    0  501    0  0.00000000000E+00  0.00000000000E+00  0.18469271227E+03  0.18469271227E+03  0.00000000000E+00 0. -1.
         -1   -1    0    0    0  501 -0.00000000000E+00 -0.00000000000E+00 -0.87965865219E+02  0.87965865219E+02  0.00000000000E+00 0.  1.
         23    2    1    2    0    0 -0.26865841400E+02  0.64586087778E+02  0.49750956368E+02  0.14857134980E+03  0.12126480179E+03 0.  0.
          5    1    3    3  502    0  0.81132118758E+01 -0.29666337740E+01  0.69213656520E+02  0.69908836149E+02  0.47000000000E+01 0. -1.
         -5    1    3    3    0  502 -0.34979053276E+02  0.67552721552E+02 -0.19462700152E+02  0.78662513654E+02  0.47000000000E+01 0.  1.
        -11    1    1    2    0    0  0.10428328240E+02  0.18316284010E+02 -0.87842142776E+01  0.22834156658E+02  0.00000000000E+00 0.  1.
         11    1    1    2    0    0  0.16437513160E+02 -0.82902371788E+02  0.55760104957E+02  0.10125307102E+03  0.00000000000E+00 0. -1.
<mgrwt>
<rscale>  0 0.13323433E+03</rscale>
<asrwt>0</asrwt>
<pdfrwt beam="1">  1        1 0.28414263E-01 0.13999389E+03</pdfrwt>
<pdfrwt beam="2">  1       -1 0.13533210E-01 0.13999389E+03</pdfrwt>
<totfact> 0.58700828E+03</totfact>
</mgrwt>
</event>
<event>
 7    1  0.5206756E-006  0.1720150E+03  0.7546771E-02  0.1184604E+00
          2   -1    0    0  501    0  0.00000000000E+00  0.00000000000E+00  0.32273890093E+03  0.32273890093E+03  0.00000000000E+00 0. -1.
         -2   -1    0    0    0  501 -0.00000000000E+00 -0.00000000000E+00 -0.75909452980E+02  0.75909452980E+02  0.00000000000E+00 0.  1.
         23    2    1    2    0    0  0.12959514724E+02 -0.11746353460E+03  0.13701449472E+03  0.21991389688E+03  0.12499407703E+03 0.  0.
          5    1    3    3  502    0 -0.25205344358E+02 -0.66644116847E+02  0.29425129129E+01  0.71466748049E+02  0.47000000000E+01 0. -1.
         -5    1    3    3    0  502  0.38164859082E+02 -0.50819417755E+02  0.13407198180E+03  0.14844714883E+03  0.47000000000E+01 0. -1.
        -11    1    1    2    0    0 -0.19111184489E+02  0.10747732981E+03  0.54166011570E+02  0.12186291727E+03  0.00000000000E+00 0.  1.
         11    1    1    2    0    0  0.61516697649E+01  0.99862047886E+01  0.55648941659E+02  0.56871539761E+02  0.00000000000E+00 0. -1.
<mgrwt>
<rscale>  0 0.16367976E+03</rscale>
<asrwt>0</asrwt>
<pdfrwt beam="1">  1        2 0.49652138E-01 0.17201497E+03</pdfrwt>
<pdfrwt beam="2">  1       -2 0.11678378E-01 0.17201497E+03</pdfrwt>
<totfact> 0.50705849E+03</totfact>
</mgrwt>
</event>
<event>
 7    1  0.5206756E-006  0.1262992E+03  0.7546771E-02  0.1249227E+00
         -1   -1    0    0    0  501 -0.00000000000E+00  0.00000000000E+00  0.21033412338E+02  0.21033412338E+02  0.00000000000E+00 0. -1.
          1   -1    0    0  501    0  0.00000000000E+00 -0.00000000000E+00 -0.57732384986E+03  0.57732384986E+03  0.00000000000E+00 0.  1.
         23    2    1    2    0    0 -0.65011563518E+01 -0.16853187410E+02 -0.37144355695E+03  0.39232867870E+03  0.12500072467E+03 0.  0.
          5    1    3    3  502    0 -0.31087911410E+02 -0.57706217488E+02 -0.12449160911E+03  0.14077185980E+03  0.47000000000E+01 0. -1.
         -5    1    3    3    0  502  0.24586755059E+02  0.40853030078E+02 -0.24695194784E+03  0.25155681890E+03  0.47000000000E+01 0. -1.
        -11    1    1    2    0    0  0.31526251457E+02 -0.20316669563E+02 -0.41952684544E+02  0.56273433639E+02  0.00000000000E+00 0. -1.
         11    1    1    2    0    0 -0.25025095105E+02  0.37169856973E+02 -0.14289419602E+03  0.14975514986E+03  0.00000000000E+00 0.  1.
<mgrwt>
<rscale>  0 0.11635907E+03</rscale>
<asrwt>0</asrwt>
<pdfrwt beam="2">  1        1 0.88819056E-01 0.12629915E+03</pdfrwt>
<pdfrwt beam="1">  1       -1 0.32359095E-02 0.12629915E+03</pdfrwt>
<totfact> 0.11847228E+04</totfact>
</mgrwt>
</event>
<event>
 7    1  0.5206756E-006  0.1740843E+03  0.7546771E-02  0.1179829E+00
         -1   -1    0    0    0  501 -0.00000000000E+00  0.00000000000E+00  0.61803215982E+02  0.61803215982E+02  0.00000000000E+00 0.  1.
          1   -1    0    0  501    0  0.00000000000E+00 -0.00000000000E+00 -0.44618513268E+03  0.44618513268E+03  0.00000000000E+00 0. -1.
         23    2    1    2    0    0 -0.12113761817E+03  0.25550396692E+01 -0.25544012487E+03  0.30911970369E+03  0.12499793218E+03 0.  0.
          5    1    3    3  502    0 -0.56685335760E+02 -0.35829672331E+01 -0.13428298417E+02  0.58553173636E+02  0.47000000000E+01 0. -1.
         -5    1    3    3    0  502 -0.64452282408E+02  0.61380069023E+01 -0.24201182646E+03  0.25056653005E+03  0.47000000000E+01 0. -1.
        -11    1    1    2    0    0  0.37504847990E+02 -0.17001124869E+02 -0.10171971821E+03  0.10973856634E+03  0.00000000000E+00 0. -1.
         11    1    1    2    0    0  0.83632770179E+02  0.14446085199E+02 -0.27222073609E+02  0.89130078632E+02  0.00000000000E+00 0.  1.
<mgrwt>
<rscale>  0 0.16811366E+03</rscale>
<asrwt>0</asrwt>
<pdfrwt beam="2">  1        1 0.68643868E-01 0.17408427E+03</pdfrwt>
<pdfrwt beam="1">  1       -1 0.95081869E-02 0.17408427E+03</pdfrwt>
<totfact> 0.33954845E+03</totfact>
</mgrwt>
</event>
<event>
 7    1  0.5206756E-006  0.1251038E+03  0.7546771E-02  0.1249569E+00
         -1   -1    0    0    0  501 -0.00000000000E+00  0.00000000000E+00  0.12885443081E+03  0.12885443081E+03  0.00000000000E+00 0.  1.
          1   -1    0    0  501    0  0.00000000000E+00 -0.00000000000E+00 -0.95916383608E+02  0.95916383608E+02  0.00000000000E+00 0. -1.
         23    2    1    2    0    0 -0.39218632627E+01  0.32061202073E+01 -0.28460448302E+01  0.12513616800E+03  0.12500120141E+03 0.  0.
          5    1    3    3  502    0  0.13199544908E+02  0.10187418809E+02 -0.61272224809E+02  0.63674068668E+02  0.47000000000E+01 0.  1.
         -5    1    3    3    0  502 -0.17121408171E+02 -0.69812986020E+01  0.58426179978E+02  0.61462099336E+02  0.47000000000E+01 0.  1.
        -11    1    1    2    0    0 -0.38180344211E+02 -0.39857762801E+01  0.42190263846E+02  0.57040717562E+02  0.00000000000E+00 0.  1.
         11    1    1    2    0    0  0.42102207473E+02  0.77965607282E+00 -0.64061718133E+01  0.42593928852E+02  0.00000000000E+00 0. -1.
<mgrwt>
<rscale>  0 0.11616045E+03</rscale>
<asrwt>0</asrwt>
<pdfrwt beam="2">  1        1 0.14756367E-01 0.12510380E+03</pdfrwt>
<pdfrwt beam="1">  1       -1 0.19823759E-01 0.12510380E+03</pdfrwt>
<totfact> 0.73256250E+03</totfact>
</mgrwt>
</event>
<event>
 7    1  0.5206756E-006  0.1740592E+03  0.7546771E-02  0.1179681E+00
         -2   -1    0    0    0  501 -0.00000000000E+00  0.00000000000E+00  0.17807615094E+02  0.17807615094E+02  0.00000000000E+00 0.  1.
          2   -1    0    0  501    0  0.00000000000E+00 -0.00000000000E+00 -0.16489356308E+04  0.16489356308E+04  0.00000000000E+00 0. -1.
         23    2    1    2    0    0  0.44622958399E+02 -0.11261627699E+03 -0.11218631525E+04  0.11352856667E+04  0.12499191100E+03 0.  0.
          5    1    3    3  502    0  0.53914274691E+01 -0.12208156775E+03 -0.63081131679E+03  0.64255582175E+03  0.47000000000E+01 0. -1.
         -5    1    3    3    0  502  0.39231530930E+02  0.94652907673E+01 -0.49105183567E+03  0.49272984491E+03  0.47000000000E+01 0. -1.
        -11    1    1    2    0    0  0.27400901530E+02  0.30021911178E+02 -0.10469396572E+03  0.11230739518E+03  0.00000000000E+00 0.  1.
         11    1    1    2    0    0 -0.72023859929E+02  0.82594365809E+02 -0.40457089754E+03  0.41915018406E+03  0.00000000000E+00 0. -1.
<mgrwt>
<rscale>  0 0.16825421E+03</rscale>
<asrwt>0</asrwt>
<pdfrwt beam="2">  1        2 0.25368234E+00 0.17405922E+03</pdfrwt>
<pdfrwt beam="1">  1       -2 0.27396338E-02 0.17405922E+03</pdfrwt>
<totfact> 0.54705706E+03</totfact>
</mgrwt>
</event>
<event>
 7    1  0.5206756E-006  0.1573778E+03  0.7546771E-02  0.1199330E+00
          1   -1    0    0  501    0  0.00000000000E+00  0.00000000000E+00  0.41354868100E+03  0.41354868100E+03  0.00000000000E+00 0. -1.
         -1   -1    0    0    0  501 -0.00000000000E+00 -0.00000000000E+00 -0.51022798020E+02  0.51022798020E+02  0.00000000000E+00 0.  1.
         23    2    1    2    0    0  0.44821695627E+02  0.84467079242E+02  0.19650621124E+03  0.25175873907E+03  0.12499639903E+03 0.  0.
          5    1    3    3  502    0 -0.64724662061E+01  0.35342833745E+01 -0.16205480420E+02  0.18414439264E+02  0.47000000000E+01 0. -1.
         -5    1    3    3    0  502  0.51294161833E+02  0.80932795867E+02  0.21271169166E+03  0.23334429981E+03  0.47000000000E+01 0. -1.
        -11    1    1    2    0    0 -0.64520735895E+02 -0.72850971492E+02  0.16286954919E+03  0.18972790902E+03  0.00000000000E+00 0. -1.
         11    1    1    2    0    0  0.19699040267E+02 -0.11616107750E+02  0.31501225485E+01  0.23084830924E+02  0.00000000000E+00 0.  1.
<mgrwt>
<rscale>  0 0.15093369E+03</rscale>
<asrwt>0</asrwt>
<pdfrwt beam="1">  1        1 0.63622872E-01 0.15737780E+03</pdfrwt>
<pdfrwt beam="2">  1       -1 0.78496615E-02 0.15737780E+03</pdfrwt>
<totfact> 0.49876904E+03</totfact>
</mgrwt>
</event>
<event>
 7    1  0.5206756E-006  0.1521611E+03  0.7546771E-02  0.1204664E+00
          2   -1    0    0  501    0  0.00000000000E+00  0.00000000000E+00  0.20504158103E+02  0.20504158103E+02  0.00000000000E+00 0. -1.
         -2   -1    0    0    0  501 -0.00000000000E+00 -0.00000000000E+00 -0.98360475198E+03  0.98360475198E+03  0.00000000000E+00 0.  1.
         23    2    1    2    0    0 -0.70354269441E+02  0.50775614440E+02 -0.48393539191E+03  0.50729327723E+03  0.12500047731E+03 0.  0.
          5    1    3    3  502    0  0.25818370907E+02 -0.18263007596E+02 -0.13712926884E+03  0.14080714504E+03  0.47000000000E+01 0. -1.
         -5    1    3    3    0  502 -0.96172640348E+02  0.69038622036E+02 -0.34680612307E+03  0.36648613218E+03  0.47000000000E+01 0. -1.
        -11    1    1    2    0    0  0.79210594583E+02 -0.43119809901E+02 -0.47630037635E+03  0.48476353495E+03  0.00000000000E+00 0.  1.
         11    1    1    2    0    0 -0.88563251419E+01 -0.76558045392E+01 -0.28648256130E+01  0.12052097907E+02  0.00000000000E+00 0. -1.
<mgrwt>
<rscale>  0 0.14663996E+03</rscale>
<asrwt>0</asrwt>
<pdfrwt beam="1">  1        2 0.31544859E-02 0.15216112E+03</pdfrwt>
<pdfrwt beam="2">  1       -2 0.15132380E+00 0.15216112E+03</pdfrwt>
<totfact> 0.88452390E+02</totfact>
</mgrwt>
</event>
<event>
 7    1  0.5206756E-006  0.1293625E+03  0.7546771E-02  0.1242926E+00
          2   -1    0    0  501    0  0.00000000000E+00  0.00000000000E+00  0.17648320910E+03  0.17648320910E+03  0.00000000000E+00 0. -1.
         -2   -1    0    0    0  501 -0.00000000000E+00 -0.00000000000E+00 -0.72775153237E+02  0.72775153237E+02  0.00000000000E+00 0.  1.
         23    2    1    2    0    0 -0.32168853337E+01  0.33142250223E+02  0.71985346157E+02  0.14804235468E+03  0.12500356642E+03 0.  0.
          5    1    3    3  502    0  0.32948814388E+02 -0.63275638202E+01 -0.21561981211E+02  0.40158080971E+02  0.47000000000E+01 0.  1.
         -5    1    3    3    0  502 -0.36165699722E+02  0.39469814043E+02  0.93547327368E+02  0.10788427371E+03  0.47000000000E+01 0.  1.
        -11    1    1    2    0    0  0.12546419298E+02  0.19976806645E+02 -0.16565392290E+02  0.28825295535E+02  0.00000000000E+00 0.  1.
         11    1    1    2    0    0 -0.93295339641E+01 -0.53119056868E+02  0.48288101996E+02  0.72390712117E+02  0.00000000000E+00 0. -1.
<mgrwt>
<rscale>  0 0.12010346E+03</rscale>
<asrwt>0</asrwt>
<pdfrwt beam="1">  1        2 0.27151263E-01 0.12936247E+03</pdfrwt>
<pdfrwt beam="2">  1       -2 0.11196177E-01 0.12936247E+03</pdfrwt>
<totfact> 0.10175337E+04</totfact>
</mgrwt>
</event>
<event>
 7    1  0.5206756E-006  0.1426225E+03  0.7546771E-02  0.1219065E+00
          4   -1    0    0  501    0  0.00000000000E+00  0.00000000000E+00  0.21903611772E+03  0.21903611772E+03  0.00000000000E+00 0. -1.
         -4   -1    0    0    0  501 -0.00000000000E+00 -0.00000000000E+00 -0.77334105204E+02  0.77334105204E+02  0.00000000000E+00 0.  1.
         23    2    1    2    0    0  0.71284935911E+02  0.74908267812E+01  0.69827230970E+02  0.15879871577E+03  0.12330261705E+03 0.  0.
          5    1    3    3  502    0  0.62397771700E+02 -0.52251014248E+02  0.33324881975E+02  0.88069791425E+02  0.47000000000E+01 0. -1.
         -5    1    3    3    0  502  0.88871642106E+01  0.59741841029E+02  0.36502348994E+02  0.70728924347E+02  0.47000000000E+01 0.  1.
        -11    1    1    2    0    0 -0.37750174807E+02  0.38664780108E+02  0.12980010763E+02  0.55574468942E+02  0.00000000000E+00 0.  1.
         11    1    1    2    0    0 -0.33534761103E+02 -0.46155606889E+02  0.58894770782E+02  0.81997038209E+02  0.00000000000E+00 0. -1.
<mgrwt>
<rscale>  0 0.13582139E+03</rscale>
<asrwt>0</asrwt>
<pdfrwt beam="1">  1        4 0.33697864E-01 0.14262254E+03</pdfrwt>
<pdfrwt beam="2">  1       -4 0.11897555E-01 0.14262254E+03</pdfrwt>
<totfact> 0.80134753E+02</totfact>
</mgrwt>
</event>
<event>
 7    1  0.5206756E-006  0.1228411E+03  0.7546771E-02  0.1244966E+00
         -1   -1    0    0    0  501 -0.00000000000E+00  0.00000000000E+00  0.34206457359E+03  0.34206457359E+03  0.00000000000E+00 0.  1.
          1   -1    0    0  501    0  0.00000000000E+00 -0.00000000000E+00 -0.38912847952E+02  0.38912847952E+02  0.00000000000E+00 0. -1.
         23    2    1    2    0    0  0.49300122355E+02 -0.11074289405E+02  0.15404997392E+03  0.19703128808E+03  0.11196781710E+03 0.  0.
          5    1    3    3  502    0  0.79896530895E+02 -0.24494157901E+02  0.13337192856E+03  0.15745977502E+03  0.47000000000E+01 0. -1.
         -5    1    3    3    0  502 -0.30596408540E+02  0.13419868496E+02  0.20678045358E+02  0.39571513059E+02  0.47000000000E+01 0.  1.
        -11    1    1    2    0    0 -0.43971131158E+02 -0.16651475310E+02  0.14843628028E+03  0.15570504587E+03  0.00000000000E+00 0.  1.
         11    1    1    2    0    0 -0.53289911973E+01  0.27725764715E+02  0.66547143543E+00  0.28241087593E+02  0.00000000000E+00 0. -1.
<mgrwt>
<rscale>  0 0.11887422E+03</rscale>
<asrwt>0</asrwt>
<pdfrwt beam="2">  1        1 0.59865922E-02 0.12284109E+03</pdfrwt>
<pdfrwt beam="1">  1       -1 0.52625317E-01 0.12284109E+03</pdfrwt>
<totfact> 0.45925784E+03</totfact>
</mgrwt>
</event>
<event>
 7    1  0.5206756E-006  0.1500527E+03  0.7546771E-02  0.1209423E+00
          2   -1    0    0  501    0  0.00000000000E+00  0.00000000000E+00  0.32400696680E+03  0.32400696680E+03  0.00000000000E+00 0. -1.
         -2   -1    0    0    0  501 -0.00000000000E+00 -0.00000000000E+00 -0.63531461888E+02  0.63531461888E+02  0.00000000000E+00 0.  1.
         23    2    1    2    0    0  0.76866159589E+02 -0.31506075936E+02  0.19980539605E+03  0.24987598914E+03  0.12495909070E+03 0.  0.
          5    1    3    3  502    0  0.61727324439E+01  0.43807726412E+01 -0.16884068715E+02  0.19090719503E+02  0.47000000000E+01 0.  1.
         -5    1    3    3    0  502  0.70693427145E+02 -0.35886848578E+02  0.21668946476E+03  0.23078526964E+03  0.47000000000E+01 0.  1.
        -11    1    1    2    0    0 -0.97124074793E+02  0.19160615114E+02  0.42283441425E+02  0.10764805848E+03  0.00000000000E+00 0.  1.
         11    1    1    2    0    0  0.20257915204E+02  0.12345460822E+02  0.18386667437E+02  0.30014381066E+02  0.00000000000E+00 0. -1.
<mgrwt>
<rscale>  0 0.14294305E+03</rscale>
<asrwt>0</asrwt>
<pdfrwt beam="1">  1        2 0.49847225E-01 0.15005270E+03</pdfrwt>
<pdfrwt beam="2">  1       -2 0.97740712E-02 0.15005270E+03</pdfrwt>
<totfact> 0.66456316E+03</totfact>
</mgrwt>
</event>
<event>
 7    1  0.5206756E-006  0.1354734E+03  0.7546771E-02  0.1231991E+00
          2   -1    0    0  501    0  0.00000000000E+00  0.00000000000E+00  0.31450200583E+03  0.31450200583E+03  0.00000000000E+00 0. -1.
         -2   -1    0    0    0  501 -0.00000000000E+00 -0.00000000000E+00 -0.50252208950E+02  0.50252208950E+02  0.00000000000E+00 0.  1.
         23    2    1    2    0    0  0.40324537351E+02 -0.33190770501E+02  0.20140665776E+03  0.24272965406E+03  0.12500139045E+03 0.  0.
          5    1    3    3  502    0  0.60953370316E+02 -0.47189094907E+02  0.20311664139E+03  0.21730297753E+03  0.47000000000E+01 0. -1.
         -5    1    3    3    0  502 -0.20628832965E+02  0.13998324406E+02 -0.17099836360E+01  0.25426676536E+02  0.47000000000E+01 0. -1.
        -11    1    1    2    0    0 -0.26943719067E+02  0.42164655528E+02 -0.68396176334E+01  0.50503490397E+02  0.00000000000E+00 0.  1.
         11    1    1    2    0    0 -0.13380818284E+02 -0.89738850268E+01  0.69682756762E+02  0.71521070325E+02  0.00000000000E+00 0. -1.
<mgrwt>
<rscale>  0 0.12699053E+03</rscale>
<asrwt>0</asrwt>
<pdfrwt beam="1">  1        2 0.48384923E-01 0.13547340E+03</pdfrwt>
<pdfrwt beam="2">  1       -2 0.77311093E-02 0.13547340E+03</pdfrwt>
<totfact> 0.98112280E+03</totfact>
</mgrwt>
</event>
<event>
 6    1  0.5206756E-006  0.1814644E+03  0.7546771E-02  0.1197669E+00
          2   -1    0    0  501    0  0.00000000000E+00  0.00000000000E+00  0.86081733039E+03  0.86081733039E+03  0.00000000000E+00 0. -1.
         -2   -1    0    0    0  501 -0.00000000000E+00 -0.00000000000E+00 -0.22844998183E+02  0.22844998183E+02  0.00000000000E+00 0.  1.
          5    1    1    2  502    0  0.22740940906E+02 -0.91684516971E+02  0.30897458043E+03  0.32312626386E+03  0.47000000000E+01 0. -1.
         -5    1    1    2    0  502 -0.13457300344E+02  0.84757894375E+02  0.34691407177E+03  0.35740238217E+03  0.47000000000E+01 0.  1.
        -11    1    1    2    0    0  0.23856364639E+02 -0.22286682536E+02  0.28547061186E+02  0.43367695980E+02  0.00000000000E+00 0.  1.
         11    1    1    2    0    0 -0.33140005201E+02  0.29213305133E+02  0.15353661883E+03  0.15976598657E+03  0.00000000000E+00 0. -1.
<mgrwt>
<rscale>  0 0.15230468E+03</rscale>
<asrwt>0</asrwt>
<pdfrwt beam="1">  1        2 0.13243341E+00 0.18146436E+03</pdfrwt>
<pdfrwt beam="2">  1       -2 0.35146158E-02 0.18146436E+03</pdfrwt>
<totfact> 0.10519723E+04</totfact>
</mgrwt>
</event>
<event>
 6    1  0.5206756E-006  0.3125142E+03  0.7546771E-02  0.1125141E+00
          1   -1    0    0  501    0  0.00000000000E+00  0.00000000000E+00  0.10354303313E+04  0.10354303313E+04  0.00000000000E+00 0. -1.
         -1   -1    0    0    0  501 -0.00000000000E+00 -0.00000000000E+00 -0.68084951538E+02  0.68084951538E+02  0.00000000000E+00 0.  1.
          5    1    1    2  502    0 -0.11862389458E+03  0.40351628426E+02  0.83675343645E+03  0.84609590809E+03  0.47000000000E+01 0. -1.
         -5    1    1    2    0  502  0.10573281997E+03 -0.15024994158E+02  0.12150848527E+03  0.16183813414E+03  0.47000000000E+01 0.  1.
        -11    1    1    2    0    0  0.32746534071E+02 -0.27109453614E+02 -0.29778803007E+02  0.51904094996E+02  0.00000000000E+00 0. -1.
         11    1    1    2    0    0 -0.19855459455E+02  0.17828193456E+01  0.38862261021E+02  0.43677145587E+02  0.00000000000E+00 0.  1.
<mgrwt>
<rscale>  0 0.23214159E+03</rscale>
<asrwt>0</asrwt>
<pdfrwt beam="1">  1        1 0.15929696E+00 0.31251420E+03</pdfrwt>
<pdfrwt beam="2">  1       -1 0.10474609E-01 0.31251420E+03</pdfrwt>
<totfact> 0.85309636E+02</totfact>
</mgrwt>
</event>
<event>
 7    1  0.5206756E-006  0.1468372E+03  0.7546771E-02  0.1215371E+00
          1   -1    0    0  501    0  0.00000000000E+00  0.00000000000E+00  0.11955664548E+03  0.11955664548E+03  0.00000000000E+00 0. -1.
         -1   -1    0    0    0  501 -0.00000000000E+00 -0.00000000000E+00 -0.41549148821E+03  0.41549148821E+03  0.00000000000E+00 0.  1.
         23    2    1    2    0    0 -0.24284144938E+02  0.68974431331E+02  0.61502483363E+02  0.15919712782E+03  0.12733412023E+03 0.  0.
          5    1    3    3  502    0  0.12101384292E+02  0.96538033818E+02  0.57552679968E+02  0.11313901381E+03  0.47000000000E+01 0. -1.
         -5    1    3    3    0  502 -0.36385529230E+02 -0.27563602487E+02  0.39498033947E+01  0.46058114011E+02  0.47000000000E+01 0.  1.
        -11    1    1    2    0    0  0.34179841412E+02 -0.17105852175E+02 -0.45261591521E+02  0.59240893009E+02  0.00000000000E+00 0. -1.
         11    1    1    2    0    0 -0.98956964742E+01 -0.51868579156E+02 -0.31217573457E+03  0.31661011286E+03  0.00000000000E+00 0.  1.
<mgrwt>
<rscale>  0 0.13849339E+03</rscale>
<asrwt>0</asrwt>
<pdfrwt beam="1">  1        1 0.18393330E-01 0.14683722E+03</pdfrwt>
<pdfrwt beam="2">  1       -1 0.63921769E-01 0.14683722E+03</pdfrwt>
<totfact> 0.72846635E+02</totfact>
</mgrwt>
</event>
<event>
 7    1  0.5206756E-006  0.1429990E+03  0.7546771E-02  0.1220492E+00
          2   -1    0    0  501    0  0.00000000000E+00  0.00000000000E+00  0.24441523351E+03  0.24441523351E+03  0.00000000000E+00 0. -1.
         -2   -1    0    0    0  501 -0.00000000000E+00 -0.00000000000E+00 -0.95131013044E+02  0.95131013044E+02  0.00000000000E+00 0.  1.
         23    2    1    2    0    0  0.36589856005E+02 -0.59020793512E+02  0.17268294906E+03  0.22420549429E+03  0.12500572445E+03 0.  0.
          5    1    3    3  502    0  0.11782618069E+02 -0.62432332653E+02  0.18517651229E+03  0.19582915246E+03  0.47000000000E+01 0. -1.
         -5    1    3    3    0  502  0.24807237936E+02  0.34115391411E+01 -0.12493563234E+02  0.28376341829E+02  0.47000000000E+01 0. -1.
        -11    1    1    2    0    0 -0.28152647137E+02  0.80241799211E+02 -0.32111869569E+02  0.90898240075E+02  0.00000000000E+00 0. -1.
         11    1    1    2    0    0 -0.84372088677E+01 -0.21221005699E+02  0.87131409759E+01  0.24442512187E+02  0.00000000000E+00 0.  1.
<mgrwt>
<rscale>  0 0.13480746E+03</rscale>
<asrwt>0</asrwt>
<pdfrwt beam="1">  1        2 0.37602343E-01 0.14299896E+03</pdfrwt>
<pdfrwt beam="2">  1       -2 0.14635541E-01 0.14299896E+03</pdfrwt>
<totfact> 0.46879939E+03</totfact>
</mgrwt>
</event>
<event>
 7    1  0.5206756E-006  0.1308533E+03  0.7546771E-02  0.1239971E+00
          1   -1    0    0  501    0  0.00000000000E+00  0.00000000000E+00  0.86002814650E+03  0.86002814650E+03  0.00000000000E+00 0. -1.
         -1   -1    0    0    0  501 -0.00000000000E+00 -0.00000000000E+00 -0.15949400852E+02  0.15949400852E+02  0.00000000000E+00 0.  1.
         23    2    1    2    0    0  0.29821727107E+02  0.24594049421E+02  0.56621260619E+03  0.58113622030E+03  0.12501355310E+03 0.  0.
          5    1    3    3  502    0 -0.30236954943E+02 -0.33649668027E+02  0.24421483410E+03  0.24841406722E+03  0.47000000000E+01 0.  1.
         -5    1    3    3    0  502  0.60058682049E+02  0.58243717448E+02  0.32199777210E+03  0.33272215308E+03  0.47000000000E+01 0.  1.
        -11    1    1    2    0    0 -0.25274029558E+02 -0.46703494378E+02  0.26180924736E+03  0.26714055282E+03  0.00000000000E+00 0. -1.
         11    1    1    2    0    0 -0.45476975489E+01  0.22109444957E+02  0.16056892093E+02  0.27700774231E+02  0.00000000000E+00 0.  1.
<mgrwt>
<rscale>  0 0.12191496E+03</rscale>
<asrwt>0</asrwt>
<pdfrwt beam="1">  1        1 0.13231199E+00 0.13085332E+03</pdfrwt>
<pdfrwt beam="2">  1       -1 0.24537546E-02 0.13085332E+03</pdfrwt>
<totfact> 0.10012661E+04</totfact>
</mgrwt>
</event>
<event>
 7    1  0.5206756E-006  0.1343167E+03  0.7546771E-02  0.1232535E+00
          1   -1    0    0  501    0  0.00000000000E+00  0.00000000000E+00  0.20014960788E+03  0.20014960788E+03  0.00000000000E+00 0. -1.
         -1   -1    0    0    0  501 -0.00000000000E+00 -0.00000000000E+00 -0.74375326935E+02  0.74375326935E+02  0.00000000000E+00 0.  1.
         23    2    1    2    0    0 -0.42355424046E+02 -0.25023925792E+02  0.46802151668E+02  0.14223722310E+03  0.12498322858E+03 0.  0.
          5    1    3    3  502    0  0.81818043364E+01  0.45966456495E+02  0.19288819399E+02  0.50734658753E+02  0.47000000000E+01 0. -1.
         -5    1    3    3    0  502 -0.50537228383E+02 -0.70990382287E+02  0.27513332270E+02  0.91502564349E+02  0.47000000000E+01 0. -1.
        -11    1    1    2    0    0 -0.29641739383E+02  0.13861236127E+02  0.18408511061E+02  0.37545170929E+02  0.00000000000E+00 0.  1.
         11    1    1    2    0    0  0.71997163430E+02  0.11162689665E+02  0.60563618211E+02  0.94742540779E+02  0.00000000000E+00 0. -1.
<mgrwt>
<rscale>  0 0.12663580E+03</rscale>
<asrwt>0</asrwt>
<pdfrwt beam="1">  1        1 0.30792247E-01 0.13431674E+03</pdfrwt>
<pdfrwt beam="2">  1       -1 0.11442358E-01 0.13431674E+03</pdfrwt>
<totfact> 0.68671369E+03</totfact>
</mgrwt>
</event>
<event>
 7    1  0.5206756E-006  0.1218559E+03  0.7546771E-02  0.1253842E+00
          1   -1    0    0  501    0  0.00000000000E+00  0.00000000000E+00  0.97146695697E+03  0.97146695697E+03  0.00000000000E+00 0. -1.
         -1   -1    0    0    0  501 -0.00000000000E+00 -0.00000000000E+00 -0.18814767356E+02  0.18814767356E+02  0.00000000000E+00 0.  1.
         23    2    1    2    0    0  0.11581581169E+02 -0.94678062440E+01  0.81765473120E+03  0.82668501646E+03  0.12093421607E+03 0.  0.
          5    1    3    3  502    0 -0.37113827016E+02  0.22844164049E+01  0.66285979471E+03  0.66391855837E+03  0.47000000000E+01 0. -1.
         -5    1    3    3    0  502  0.48695408185E+02 -0.11752222649E+02  0.15479493649E+03  0.16276645809E+03  0.47000000000E+01 0.  1.
        -11    1    1    2    0    0  0.11382534417E+02  0.46235311931E+02  0.84955795482E+02  0.97389698352E+02  0.00000000000E+00 0.  1.
         11    1    1    2    0    0 -0.22964115587E+02 -0.36767505687E+02  0.50041662932E+02  0.66207009509E+02  0.00000000000E+00 0. -1.
<mgrwt>
<rscale>  0 0.11371412E+03</rscale>
<asrwt>0</asrwt>
<pdfrwt beam="1">  1        1 0.14945642E+00 0.12185589E+03</pdfrwt>
<pdfrwt beam="2">  1       -1 0.28945804E-02 0.12185589E+03</pdfrwt>
<totfact> 0.64582596E+03</totfact>
</mgrwt>
</event>
<event>
 6    1  0.5206756E-006  0.3006822E+03  0.7546771E-02  0.1113501E+00
         -1   -1    0    0    0  501 -0.00000000000E+00  0.00000000000E+00  0.66722330756E+02  0.66722330756E+02  0.00000000000E+00 0.  1.
          1   -1    0    0  501    0  0.00000000000E+00 -0.00000000000E+00 -0.84118441888E+03  0.84118441888E+03  0.00000000000E+00 0. -1.
          5    1    1    2  502    0  0.26913291876E+02  0.84481128021E+02 -0.11373507077E+03  0.14428840076E+03  0.47000000000E+01 0. -1.
         -5    1    1    2    0  502 -0.57839973991E+02 -0.18927528857E+03 -0.54444345559E+03  0.57931974227E+03  0.47000000000E+01 0.  1.
        -11    1    1    2    0    0 -0.16063539718E+02  0.38960615174E+02  0.61395622216E+00  0.42146693645E+02  0.00000000000E+00 0.  1.
         11    1    1    2    0    0  0.46990221833E+02  0.65833545379E+02 -0.11689751799E+03  0.14215191296E+03  0.00000000000E+00 0. -1.
<mgrwt>
<rscale>  0 0.24969037E+03</rscale>
<asrwt>0</asrwt>
<pdfrwt beam="2">  1        1 0.12941298E+00 0.30068218E+03</pdfrwt>
<pdfrwt beam="1">  1       -1 0.10264975E-01 0.30068218E+03</pdfrwt>
<totfact> 0.12469802E+03</totfact>
</mgrwt>
</event>
<event>
 7    1  0.5206756E-006  0.1348556E+03  0.7546771E-02  0.1238121E+00
          3   -1    0    0  501    0  0.00000000000E+00  0.00000000000E+00  0.95326104138E+02  0.95326104138E+02  0.00000000000E+00 0. -1.
         -3   -1    0    0    0  501 -0.00000000000E+00 -0.00000000000E+00 -0.15382699630E+03  0.15382699630E+03  0.00000000000E+00 0.  1.
         23    2    1    2    0    0  0.50325331112E+02 -0.57584472463E+01  0.68858755067E+01  0.13503130958E+03  0.12498096103E+03 0.  0.
          5    1    3    3  502    0 -0.32670186186E+02 -0.31481250414E+02  0.14029340150E+02  0.47721301094E+02  0.47000000000E+01 0.  1.
         -5    1    3    3    0  502  0.82995517299E+02  0.25722803168E+02 -0.71434646437E+01  0.87310008485E+02  0.47000000000E+01 0.  1.
        -11    1    1    2    0    0 -0.21525774402E+02  0.19309584664E+02 -0.75400320647E+02  0.80755355099E+02  0.00000000000E+00 0.  1.
         11    1    1    2    0    0 -0.28799556711E+02 -0.13551137418E+02  0.10013552979E+02  0.33366435760E+02  0.00000000000E+00 0. -1.
<mgrwt>
<rscale>  0 0.12306728E+03</rscale>
<asrwt>0</asrwt>
<pdfrwt beam="1">  1        3 0.14665555E-01 0.13485562E+03</pdfrwt>
<pdfrwt beam="2">  1       -3 0.23665692E-01 0.13485562E+03</pdfrwt>
<totfact> 0.14704921E+03</totfact>
</mgrwt>
</event>
<event>
 7    1  0.5206756E-006  0.1286879E+03  0.7546771E-02  0.1244295E+00
         -1   -1    0    0    0  501 -0.00000000000E+00  0.00000000000E+00  0.44790905757E+02  0.44790905757E+02  0.00000000000E+00 0.  1.
          1   -1    0    0  501    0  0.00000000000E+00 -0.00000000000E+00 -0.35081802371E+03  0.35081802371E+03  0.00000000000E+00 0. -1.
         23    2    1    2    0    0 -0.30039856969E+02  0.57823343417E+01 -0.25992165058E+03  0.29003420872E+03  0.12499899756E+03 0.  0.
          5    1    3    3  502    0 -0.41240594082E+02 -0.28152860201E+02 -0.32476934237E+02  0.59751245972E+02  0.47000000000E+01 0.  1.
         -5    1    3    3    0  502  0.11200737113E+02  0.33935194543E+02 -0.22744471634E+03  0.23028296275E+03  0.47000000000E+01 0.  1.
        -11    1    1    2    0    0 -0.32005782373E+01  0.38552417996E+02 -0.11980287222E+02  0.40497653220E+02  0.00000000000E+00 0. -1.
         11    1    1    2    0    0  0.33240435206E+02 -0.44334752338E+02 -0.34125180153E+02  0.65077067528E+02  0.00000000000E+00 0.  1.
<mgrwt>
<rscale>  0 0.11927680E+03</rscale>
<asrwt>0</asrwt>
<pdfrwt beam="2">  1        1 0.53972000E-01 0.12868791E+03</pdfrwt>
<pdfrwt beam="1">  1       -1 0.68909090E-02 0.12868791E+03</pdfrwt>
<totfact> 0.73735921E+03</totfact>
</mgrwt>
</event>
<event>
 7    1  0.5206756E-006  0.1615608E+03  0.7546771E-02  0.1194153E+00
          2   -1    0    0  501    0  0.00000000000E+00  0.00000000000E+00  0.12828838026E+03  0.12828838026E+03  0.00000000000E+00 0. -1.
         -2   -1    0    0    0  501 -0.00000000000E+00 -0.00000000000E+00 -0.17590742339E+03  0.17590742339E+03  0.00000000000E+00 0.  1.
         23    2    1    2    0    0 -0.36707571943E+02 -0.95551854353E+02 -0.12801005020E+02  0.16206713667E+03  0.12499715337E+03 0.  0.
          5    1    3    3  502    0 -0.16791140527E+01  0.26467392478E+02 -0.21890617320E+02  0.34707800496E+02  0.47000000000E+01 0. -1.
         -5    1    3    3    0  502 -0.35028457890E+02 -0.12201924683E+03  0.90896122996E+01  0.12735933618E+03  0.47000000000E+01 0. -1.
        -11    1    1    2    0    0  0.21877940947E+02  0.47075816296E+02 -0.64957611143E+02  0.83152077698E+02  0.00000000000E+00 0.  1.
         11    1    1    2    0    0  0.14829630996E+02  0.48476038057E+02  0.30139573027E+02  0.58976589283E+02  0.00000000000E+00 0. -1.
<mgrwt>
<rscale>  0 0.15526109E+03</rscale>
<asrwt>0</asrwt>
<pdfrwt beam="1">  1        2 0.19736674E-01 0.16156080E+03</pdfrwt>
<pdfrwt beam="2">  1       -2 0.27062681E-01 0.16156080E+03</pdfrwt>
<totfact> 0.33752604E+03</totfact>
</mgrwt>
</event>
<event>
 7    1  0.5206756E-006  0.1358658E+03  0.7546771E-02  0.1231425E+00
          2   -1    0    0  501    0  0.00000000000E+00  0.00000000000E+00  0.66160807805E+02  0.66160807805E+02  0.00000000000E+00 0. -1.
         -2   -1    0    0    0  501 -0.00000000000E+00 -0.00000000000E+00 -0.24375679062E+03  0.24375679062E+03  0.00000000000E+00 0.  1.
         23    2    1    2    0    0 -0.84078309268E+01 -0.52475025559E+02 -0.50100780357E+02  0.14480881653E+03  0.12504073426E+03 0.  0.
          5    1    3    3  502    0  0.31857419502E+02 -0.18365066692E+02 -0.76949910622E+02  0.85413989467E+02  0.47000000000E+01 0. -1.
         -5    1    3    3    0  502 -0.40265250429E+02 -0.34109958867E+02  0.26849130265E+02  0.59394827064E+02  0.47000000000E+01 0. -1.
        -11    1    1    2    0    0  0.41891806380E+02  0.55479555182E+02 -0.70999921043E+02  0.99367465869E+02  0.00000000000E+00 0. -1.
         11    1    1    2    0    0 -0.33483975454E+02 -0.30045296234E+01 -0.56495281411E+02  0.65741316021E+02  0.00000000000E+00 0.  1.
<mgrwt>
<rscale>  0 0.12736076E+03</rscale>
<asrwt>0</asrwt>
<pdfrwt beam="1">  1        2 0.10178586E-01 0.13586576E+03</pdfrwt>
<pdfrwt beam="2">  1       -2 0.37501045E-01 0.13586576E+03</pdfrwt>
<totfact> 0.40343615E+03</totfact>
</mgrwt>
</event>
<event>
 7    1  0.5206756E-006  0.1317210E+03  0.7546771E-02  0.1238202E+00
          1   -1    0    0  501    0  0.00000000000E+00  0.00000000000E+00  0.31332438154E+03  0.31332438154E+03  0.00000000000E+00 0. -1.
         -1   -1    0    0    0  501 -0.00000000000E+00 -0.00000000000E+00 -0.43820441951E+02  0.43820441951E+02  0.00000000000E+00 0.  1.
         23    2    1    2    0    0 -0.35840804726E+02 -0.21033859044E+02  0.17807231533E+03  0.22149528987E+03  0.12499370959E+03 0.  0.
          5    1    3    3  502    0 -0.44325879553E+02 -0.68820245599E+02  0.98383733618E+02  0.12807208456E+03  0.47000000000E+01 0. -1.
         -5    1    3    3    0  502  0.84850748267E+01  0.47786386555E+02  0.79688581712E+02  0.93423205308E+02  0.47000000000E+01 0. -1.
        -11    1    1    2    0    0  0.34261270208E+02 -0.21188312266E+02  0.65219106602E+01  0.40808265481E+02  0.00000000000E+00 0.  1.
         11    1    1    2    0    0  0.15795345182E+01  0.42222171310E+02  0.84909713594E+02  0.94841268138E+02  0.00000000000E+00 0. -1.
<mgrwt>
<rscale>  0 0.12301657E+03</rscale>
<asrwt>0</asrwt>
<pdfrwt beam="1">  1        1 0.48203750E-01 0.13172097E+03</pdfrwt>
<pdfrwt beam="2">  1       -1 0.67416067E-02 0.13172097E+03</pdfrwt>
<totfact> 0.87817622E+03</totfact>
</mgrwt>
</event>
<event>
 7    1  0.5206756E-006  0.1327783E+03  0.7546771E-02  0.1236243E+00
         -2   -1    0    0    0  501 -0.00000000000E+00  0.00000000000E+00  0.23573770331E+02  0.23573770331E+02  0.00000000000E+00 0.  1.
          2   -1    0    0  501    0  0.00000000000E+00 -0.00000000000E+00 -0.15164680109E+04  0.15164680109E+04  0.00000000000E+00 0. -1.
         23    2    1    2    0    0 -0.95644234259E+00 -0.44764825586E+02 -0.13862545176E+04  0.13925988880E+04  0.12500108321E+03 0.  0.
          5    1    3    3  502    0 -0.28301008580E+02  0.15159273026E+01 -0.11459674079E+04  0.11463274555E+04  0.47000000000E+01 0.  1.
         -5    1    3    3    0  502  0.27344566238E+02 -0.46280752888E+02 -0.24028710968E+03  0.24627143251E+03  0.47000000000E+01 0.  1.
        -11    1    1    2    0    0 -0.15180731497E+02  0.70056981715E+02 -0.78589756398E+02  0.10637097869E+03  0.00000000000E+00 0.  1.
         11    1    1    2    0    0  0.16137173840E+02 -0.25292156129E+02 -0.28049966514E+02  0.41071914524E+02  0.00000000000E+00 0. -1.
<mgrwt>
<rscale>  0 0.12425215E+03</rscale>
<asrwt>0</asrwt>
<pdfrwt beam="2">  1        2 0.23330281E+00 0.13277829E+03</pdfrwt>
<pdfrwt beam="1">  1       -2 0.36267332E-02 0.13277829E+03</pdfrwt>
<totfact> 0.42127806E+03</totfact>
</mgrwt>
</event>
<event>
 7    1  0.5206756E-006  0.2086454E+03  0.7546771E-02  0.1146524E+00
          1   -1    0    0  501    0  0.00000000000E+00  0.00000000000E+00  0.37158304355E+03  0.37158304355E+03  0.00000000000E+00 0. -1.
         -1   -1    0    0    0  501 -0.00000000000E+00 -0.00000000000E+00 -0.18282988184E+03  0.18282988184E+03  0.00000000000E+00 0.  1.
         23    2    1    2    0    0 -0.11221858905E+03  0.12375617831E+03  0.27535520134E+03  0.34547562412E+03  0.12499726620E+03 0.  0.
          5    1    3    3  502    0 -0.91572403078E+02  0.14057189893E+03  0.26999862972E+03  0.31791085830E+03  0.47000000000E+01 0. -1.
         -5    1    3    3    0  502 -0.20646185969E+02 -0.16815720621E+02  0.53565716179E+01  0.27564765817E+02  0.47000000000E+01 0. -1.
        -11    1    1    2    0    0  0.69964859776E+02 -0.11406181625E+03 -0.95865928737E+02  0.16460697380E+03  0.00000000000E+00 0.  1.
         11    1    1    2    0    0  0.42253729271E+02 -0.96943620644E+01  0.92638891044E+01  0.44330327480E+02  0.00000000000E+00 0. -1.
<mgrwt>
<rscale>  0 0.20385790E+03</rscale>
<asrwt>0</asrwt>
<pdfrwt beam="1">  1        1 0.57166622E-01 0.20864544E+03</pdfrwt>
<pdfrwt beam="2">  1       -1 0.28127674E-01 0.20864544E+03</pdfrwt>
<totfact> 0.76235495E+02</totfact>
</mgrwt>
</event>
<event>
 7    1  0.5206756E-006  0.1308953E+03  0.7546771E-02  0.1239701E+00
         -1   -1    0    0    0  501 -0.00000000000E+00  0.00000000000E+00  0.31807424309E+02  0.31807424309E+02  0.00000000000E+00 0.  1.
          1   -1    0    0  501    0  0.00000000000E+00 -0.00000000000E+00 -0.42184492485E+03  0.42184492485E+03  0.00000000000E+00 0. -1.
         23    2    1    2    0    0 -0.48762317554E+01 -0.38592868548E+02 -0.24902583722E+03  0.28133154184E+03  0.12498152539E+03 0.  0.
          5    1    3    3  502    0 -0.10791831833E+02 -0.69931101850E+02 -0.23623699956E+03  0.24665123677E+03  0.47000000000E+01 0.  1.
         -5    1    3    3    0  502  0.59156000781E+01  0.31338233302E+02 -0.12788837665E+02  0.34680305067E+02  0.47000000000E+01 0.  1.
        -11    1    1    2    0    0 -0.16416376188E+02  0.63790368225E+02 -0.88858651116E+02  0.11060998311E+03  0.00000000000E+00 0. -1.
         11    1    1    2    0    0  0.21292607944E+02 -0.25197499677E+02 -0.52153012202E+02  0.61710824210E+02  0.00000000000E+00 0.  1.
<mgrwt>
<rscale>  0 0.12208225E+03</rscale>
<asrwt>0</asrwt>
<pdfrwt beam="2">  1        1 0.64899210E-01 0.13089526E+03</pdfrwt>
<pdfrwt beam="1">  1       -1 0.48934506E-02 0.13089526E+03</pdfrwt>
<totfact> 0.97421754E+03</totfact>
</mgrwt>
</event>
<event>
 7    1  0.5206756E-006  0.1326552E+03  0.7546771E-02  0.1236728E+00
         -2   -1    0    0    0  501 -0.00000000000E+00  0.00000000000E+00  0.66743894759E+02  0.66743894759E+02  0.00000000000E+00 0.  1.
          2   -1    0    0  501    0  0.00000000000E+00 -0.00000000000E+00 -0.23314640772E+03  0.23314640772E+03  0.00000000000E+00 0. -1.
         23    2    1    2    0    0  0.10561447584E+02 -0.43122489811E+02 -0.14505142299E+03  0.19656376008E+03  0.12500521254E+03 0.  0.
          5    1    3    3  502    0  0.98270793531E+01 -0.84667066362E+02 -0.68958895573E+02  0.10973833830E+03  0.47000000000E+01 0.  1.
         -5    1    3    3    0  502  0.73436823084E+00  0.41544576551E+02 -0.76092527417E+02  0.86825421774E+02  0.47000000000E+01 0.  1.
        -11    1    1    2    0    0 -0.31244968177E+02 -0.88113074916E+01 -0.32927212530E+02  0.46239469083E+02  0.00000000000E+00 0. -1.
         11    1    1    2    0    0  0.20683520593E+02  0.51933797303E+02  0.11576122560E+02  0.57087073317E+02  0.00000000000E+00 0.  1.
<mgrwt>
<rscale>  0 0.12394448E+03</rscale>
<asrwt>0</asrwt>
<pdfrwt beam="2">  1        2 0.35868678E-01 0.13265518E+03</pdfrwt>
<pdfrwt beam="1">  1       -2 0.10268292E-01 0.13265518E+03</pdfrwt>
<totfact> 0.86549730E+03</totfact>
</mgrwt>
</event>
<event>
 7    1  0.5206756E-006  0.1688339E+03  0.7546771E-02  0.1182373E+00
         -1   -1    0    0    0  501 -0.00000000000E+00  0.00000000000E+00  0.12460954594E+03  0.12460954594E+03  0.00000000000E+00 0.  1.
          1   -1    0    0  501    0  0.00000000000E+00 -0.00000000000E+00 -0.21940708920E+03  0.21940708920E+03  0.00000000000E+00 0. -1.
         23    2    1    2    0    0  0.12289311684E+03 -0.18871988916E+02 -0.79166718024E+02  0.18647319452E+03  0.11421914418E+03 0.  0.
          5    1    3    3  502    0  0.84049343165E+02 -0.17127587242E+02 -0.10788322734E+03  0.13790767590E+03  0.47000000000E+01 0. -1.
         -5    1    3    3    0  502  0.38843773677E+02 -0.17444016736E+01  0.28716509320E+02  0.48565518614E+02  0.47000000000E+01 0.  1.
        -11    1    1    2    0    0 -0.12458768560E+03 -0.89759049265E+01  0.12835214764E+01  0.12491719537E+03  0.00000000000E+00 0.  1.
         11    1    1    2    0    0  0.16945687528E+01  0.27847893842E+02 -0.16914346714E+02  0.32626245255E+02  0.00000000000E+00 0. -1.
<mgrwt>
<rscale>  0 0.16573253E+03</rscale>
<asrwt>0</asrwt>
<pdfrwt beam="2">  1        1 0.33754937E-01 0.16883389E+03</pdfrwt>
<pdfrwt beam="1">  1       -1 0.19170699E-01 0.16883389E+03</pdfrwt>
<totfact> 0.27571132E+03</totfact>
</mgrwt>
</event>
<event>
 7    1  0.5206756E-006  0.1872182E+03  0.7546771E-02  0.1165906E+00
          3   -1    0    0  501    0  0.00000000000E+00  0.00000000000E+00  0.20554020269E+03  0.20554020269E+03  0.00000000000E+00 0. -1.
         -3   -1    0    0    0  501 -0.00000000000E+00 -0.00000000000E+00 -0.21625950736E+03  0.21625950736E+03  0.00000000000E+00 0.  1.
         23    2    1    2    0    0  0.18065015299E+02  0.13820004854E+03  0.10862873214E+03  0.21645055334E+03  0.12500016960E+03 0.  0.
          5    1    3    3  502    0  0.22682339206E+02  0.75447512528E+01  0.78515451965E+02  0.82208138165E+02  0.47000000000E+01 0.  1.
         -5    1    3    3    0  502 -0.46173239064E+01  0.13065529729E+03  0.30113280176E+02  0.13424241518E+03  0.47000000000E+01 0.  1.
        -11    1    1    2    0    0 -0.35478640648E+02 -0.93963638888E+02 -0.31156290957E+02  0.10515994409E+03  0.00000000000E+00 0. -1.
         11    1    1    2    0    0  0.17413625348E+02 -0.44236409655E+02 -0.88191745851E+02  0.10018921261E+03  0.00000000000E+00 0.  1.
<mgrwt>
<rscale>  0 0.18197378E+03</rscale>
<asrwt>0</asrwt>
<pdfrwt beam="1">  1        3 0.31621570E-01 0.18721816E+03</pdfrwt>
<pdfrwt beam="2">  1       -3 0.33270693E-01 0.18721816E+03</pdfrwt>
<totfact> 0.20857045E+02</totfact>
</mgrwt>
</event>
<event>
 7    1  0.5206756E-006  0.1254525E+03  0.7546771E-02  0.1249592E+00
         -2   -1    0    0    0  501 -0.00000000000E+00  0.00000000000E+00  0.41067605451E+02  0.41067605451E+02  0.00000000000E+00 0.  1.
          2   -1    0    0  501    0  0.00000000000E+00 -0.00000000000E+00 -0.33528340998E+03  0.33528340998E+03  0.00000000000E+00 0. -1.
         23    2    1    2    0    0 -0.51125703453E+01  0.93375942400E+01 -0.23617903354E+03  0.26743010104E+03  0.12499997608E+03 0.  0.
          5    1    3    3  502    0 -0.41009707748E+02 -0.39383872901E+02 -0.68761170531E+02  0.89348050606E+02  0.47000000000E+01 0.  1.
         -5    1    3    3    0  502  0.35897137403E+02  0.48721467141E+02 -0.16741786301E+03  0.17808205044E+03  0.47000000000E+01 0.  1.
        -11    1    1    2    0    0  0.11765300822E+02 -0.24760982139E+02 -0.78090092127E+02  0.82762256061E+02  0.00000000000E+00 0. -1.
         11    1    1    2    0    0 -0.66527304767E+01  0.15423387899E+02  0.20053321134E+02  0.26158658329E+02  0.00000000000E+00 0.  1.
<mgrwt>
<rscale>  0 0.11614701E+03</rscale>
<asrwt>0</asrwt>
<pdfrwt beam="2">  1        2 0.51582061E-01 0.12545247E+03</pdfrwt>
<pdfrwt beam="1">  1       -2 0.63180934E-02 0.12545247E+03</pdfrwt>
<totfact> 0.12408750E+04</totfact>
</mgrwt>
</event>
<event>
 7    1  0.5206756E-006  0.1574833E+03  0.7546771E-02  0.1199534E+00
          1   -1    0    0  501    0  0.00000000000E+00  0.00000000000E+00  0.36850914238E+03  0.36850914238E+03  0.00000000000E+00 0. -1.
         -1   -1    0    0    0  501 -0.00000000000E+00 -0.00000000000E+00 -0.56964848215E+02  0.56964848215E+02  0.00000000000E+00 0.  1.
         23    2    1    2    0    0  0.66732325618E+01  0.95561538472E+02  0.17017656264E+03  0.23186432434E+03  0.12499785104E+03 0.  0.
          5    1    3    3  502    0  0.34353963124E+02 -0.14950150060E+02  0.72419982899E+02  0.81672796525E+02  0.47000000000E+01 0.  1.
         -5    1    3    3    0  502 -0.27680730562E+02  0.11051168853E+03  0.97756579737E+02  0.15019152782E+03  0.47000000000E+01 0.  1.
        -11    1    1    2    0    0  0.24660441859E+02 -0.14044578443E+01  0.54048872200E+01  0.25284831429E+02  0.00000000000E+00 0.  1.
         11    1    1    2    0    0 -0.31333674421E+02 -0.94157080628E+02  0.13596284431E+03  0.16832483482E+03  0.00000000000E+00 0. -1.
<mgrwt>
<rscale>  0 0.15076666E+03</rscale>
<asrwt>0</asrwt>
<pdfrwt beam="1">  1        1 0.56693713E-01 0.15748334E+03</pdfrwt>
<pdfrwt beam="2">  1       -1 0.87638230E-02 0.15748334E+03</pdfrwt>
<totfact> 0.48825970E+03</totfact>
</mgrwt>
</event>
<event>
 7    1  0.5206756E-006  0.1366450E+03  0.7546771E-02  0.1230498E+00
         -1   -1    0    0    0  501 -0.00000000000E+00  0.00000000000E+00  0.17880694347E+02  0.17880694347E+02  0.00000000000E+00 0.  1.
          1   -1    0    0  501    0  0.00000000000E+00 -0.00000000000E+00 -0.84589960965E+03  0.84589960965E+03  0.00000000000E+00 0. -1.
         23    2    1    2    0    0 -0.14222162983E+02  0.53327731340E+02 -0.38726421641E+03  0.41066462906E+03  0.12500298955E+03 0.  0.
          5    1    3    3  502    0  0.54760934631E+01 -0.60111992380E+01  0.68306020490E+01  0.11613321672E+02  0.47000000000E+01 0.  1.
         -5    1    3    3    0  502 -0.19698256446E+02  0.59338930578E+02 -0.39409481846E+03  0.39905130739E+03  0.47000000000E+01 0.  1.
        -11    1    1    2    0    0 -0.35142174542E+02 -0.36088795441E+02 -0.26512127016E+03  0.26986415375E+03  0.00000000000E+00 0. -1.
         11    1    1    2    0    0  0.49364337524E+02 -0.17238935899E+02 -0.17563342873E+03  0.18325152119E+03  0.00000000000E+00 0.  1.
<mgrwt>
<rscale>  0 0.12797092E+03</rscale>
<asrwt>0</asrwt>
<pdfrwt beam="2">  1        1 0.13013837E+00 0.13664503E+03</pdfrwt>
<pdfrwt beam="1">  1       -1 0.27508767E-02 0.13664503E+03</pdfrwt>
<totfact> 0.87262464E+03</totfact>
</mgrwt>
</event>
<event>
 7    1  0.5206756E-006  0.1280392E+03  0.7546771E-02  0.1244207E+00
          2   -1    0    0  501    0  0.00000000000E+00  0.00000000000E+00  0.51126047662E+03  0.51126047662E+03  0.00000000000E+00 0. -1.
         -2   -1    0    0    0  501 -0.00000000000E+00 -0.00000000000E+00 -0.48457352707E+02  0.48457352707E+02  0.00000000000E+00 0.  1.
         23    2    1    2    0    0 -0.26833702101E+02  0.70240876741E+01  0.44297252815E+03  0.46110595280E+03  0.12499861452E+03 0.  0.
          5    1    3    3  502    0 -0.49505236179E+02 -0.30418155705E+02  0.37895676544E+03  0.38341407471E+03  0.47000000000E+01 0.  1.
         -5    1    3    3    0  502  0.22671534079E+02  0.37442243379E+02  0.64015762708E+02  0.77691878094E+02  0.47000000000E+01 0.  1.
        -11    1    1    2    0    0  0.59049895629E+02 -0.14568951102E+02  0.23748809485E+02  0.65292805591E+02  0.00000000000E+00 0. -1.
         11    1    1    2    0    0 -0.32216193528E+02  0.75448634281E+01 -0.39182137209E+01  0.33319070941E+02  0.00000000000E+00 0.  1.
<mgrwt>
<rscale>  0 0.11932970E+03</rscale>
<asrwt>0</asrwt>
<pdfrwt beam="1">  1        2 0.78655454E-01 0.12803921E+03</pdfrwt>
<pdfrwt beam="2">  1       -2 0.74549777E-02 0.12803921E+03</pdfrwt>
<totfact> 0.61395428E+03</totfact>
</mgrwt>
</event>
<event>
 7    1  0.5206756E-006  0.1297951E+03  0.7546771E-02  0.1241844E+00
          1   -1    0    0  501    0  0.00000000000E+00  0.00000000000E+00  0.64255625897E+03  0.64255625897E+03  0.00000000000E+00 0. -1.
         -1   -1    0    0    0  501 -0.00000000000E+00 -0.00000000000E+00 -0.20060010778E+02  0.20060010778E+02  0.00000000000E+00 0.  1.
         23    2    1    2    0    0  0.27667090298E+02  0.21391455959E+02  0.35366173259E+03  0.37672721557E+03  0.12499484621E+03 0.  0.
          5    1    3    3  502    0  0.80492416320E+01  0.61779050819E+02  0.92062676501E+02  0.11126125927E+03  0.47000000000E+01 0.  1.
         -5    1    3    3    0  502  0.19617848666E+02 -0.40387594860E+02  0.26159905609E+03  0.26546595629E+03  0.47000000000E+01 0.  1.
        -11    1    1    2    0    0 -0.55104542117E+02 -0.85931819041E+01  0.10126873439E+03  0.11561016349E+03  0.00000000000E+00 0. -1.
         11    1    1    2    0    0  0.27437451819E+02 -0.12798274055E+02  0.16756578121E+03  0.17027889069E+03  0.00000000000E+00 0.  1.
<mgrwt>
<rscale>  0 0.12076285E+03</rscale>
<asrwt>0</asrwt>
<pdfrwt beam="1">  1        1 0.98854793E-01 0.12979512E+03</pdfrwt>
<pdfrwt beam="2">  1       -1 0.30861560E-02 0.12979512E+03</pdfrwt>
<totfact> 0.10990476E+04</totfact>
</mgrwt>
</event>
<event>
 7    1  0.5206756E-006  0.1271918E+03  0.7546771E-02  0.1246182E+00
         -1   -1    0    0    0  501 -0.00000000000E+00  0.00000000000E+00  0.27681416579E+02  0.27681416579E+02  0.00000000000E+00 0.  1.
          1   -1    0    0  501    0  0.00000000000E+00 -0.00000000000E+00 -0.44476048569E+03  0.44476048569E+03  0.00000000000E+00 0. -1.
         23    2    1    2    0    0 -0.21321966227E+02  0.99641080232E+01 -0.24260149507E+03  0.27392193950E+03  0.12499533527E+03 0.  0.
          5    1    3    3  502    0  0.14133364765E+02 -0.49020819214E+02 -0.61003068038E+02  0.79663398283E+02  0.47000000000E+01 0. -1.
         -5    1    3    3    0  502 -0.35455330992E+02  0.58984927237E+02 -0.18159842703E+03  0.19425854122E+03  0.47000000000E+01 0. -1.
        -11    1    1    2    0    0  0.39579955461E+02 -0.37532573134E+02 -0.14223773159E+03  0.15233791127E+03  0.00000000000E+00 0. -1.
         11    1    1    2    0    0 -0.18257989235E+02  0.27568465111E+02 -0.32239842451E+02  0.46182051500E+02  0.00000000000E+00 0.  1.
<mgrwt>
<rscale>  0 0.11814890E+03</rscale>
<asrwt>0</asrwt>
<pdfrwt beam="2">  1        1 0.68424686E-01 0.12719176E+03</pdfrwt>
<pdfrwt beam="1">  1       -1 0.42586797E-02 0.12719176E+03</pdfrwt>
<totfact> 0.11152794E+04</totfact>
</mgrwt>
</event>
<event>
 7    1  0.5206756E-006  0.1289461E+03  0.7546771E-02  0.1246654E+00
         -3   -1    0    0    0  501 -0.00000000000E+00  0.00000000000E+00  0.10188234181E+03  0.10188234181E+03  0.00000000000E+00 0.  1.
          3   -1    0    0  501    0  0.00000000000E+00 -0.00000000000E+00 -0.14352729968E+03  0.14352729968E+03  0.00000000000E+00 0. -1.
         23    2    1    2    0    0  0.31358176557E+02  0.43280902364E+01 -0.75270206106E+02  0.14930738073E+03  0.12500008965E+03 0.  0.
          5    1    3    3  502    0 -0.22399885990E+02 -0.30319113738E+02  0.13044722857E+02  0.40165387396E+02  0.47000000000E+01 0. -1.
         -5    1    3    3    0  502  0.53758062547E+02  0.34647203975E+02 -0.88314928962E+02  0.10914199334E+03  0.47000000000E+01 0. -1.
        -11    1    1    2    0    0  0.96731780932E+01 -0.33418373633E+02 -0.13884189983E+01  0.34817894509E+02  0.00000000000E+00 0. -1.
         11    1    1    2    0    0 -0.41031354650E+02  0.29090283397E+02  0.35013667233E+02  0.61284366242E+02  0.00000000000E+00 0.  1.
<mgrwt>
<rscale>  0 0.11786915E+03</rscale>
<asrwt>0</asrwt>
<pdfrwt beam="2">  1        3 0.22081123E-01 0.12894607E+03</pdfrwt>
<pdfrwt beam="1">  1       -3 0.15674206E-01 0.12894607E+03</pdfrwt>
<totfact> 0.14741405E+03</totfact>
</mgrwt>
</event>
<event>
 7    1  0.5206756E-006  0.1314173E+03  0.7546771E-02  0.1238480E+00
         -1   -1    0    0    0  501 -0.00000000000E+00  0.00000000000E+00  0.14065673974E+02  0.14065673974E+02  0.00000000000E+00 0.  1.
          1   -1    0    0  501    0  0.00000000000E+00 -0.00000000000E+00 -0.11169609476E+04  0.11169609476E+04  0.00000000000E+00 0. -1.
         23    2    1    2    0    0  0.16762647420E+02  0.36916393413E+02 -0.82861028748E+03  0.83896693131E+03  0.12500678727E+03 0.  0.
          5    1    3    3  502    0  0.25866210522E+02  0.74412664869E+01 -0.33432176358E+02  0.43176772804E+02  0.47000000000E+01 0.  1.
         -5    1    3    3    0  502 -0.91035631024E+01  0.29475126926E+02 -0.79517811113E+03  0.79579015851E+03  0.47000000000E+01 0.  1.
        -11    1    1    2    0    0  0.11504375160E+02  0.19655251895E+02 -0.20930530216E+02  0.30931645123E+02  0.00000000000E+00 0.  1.
         11    1    1    2    0    0 -0.28267022580E+02 -0.56571645308E+02 -0.25335445589E+03  0.26112804510E+03  0.00000000000E+00 0. -1.
<mgrwt>
<rscale>  0 0.12284282E+03</rscale>
<asrwt>0</asrwt>
<pdfrwt beam="2">  1        1 0.17184009E+00 0.13141729E+03</pdfrwt>
<pdfrwt beam="1">  1       -1 0.21639505E-02 0.13141729E+03</pdfrwt>
<totfact> 0.77651755E+03</totfact>
</mgrwt>
</event>
<event>
 7    1  0.5206756E-006  0.1260770E+03  0.7546771E-02  0.1236303E+00
          3   -1    0    0  501    0  0.00000000000E+00  0.00000000000E+00  0.45707636111E+02  0.45707636111E+02  0.00000000000E+00 0. -1.
         -3   -1    0    0    0  501 -0.00000000000E+00 -0.00000000000E+00 -0.36303212515E+03  0.36303212515E+03  0.00000000000E+00 0.  1.
         23    2    1    2    0    0  0.10544837035E+02  0.12749042857E+02 -0.99422800804E+02  0.16056248840E+03  0.12498675002E+03 0.  0.
          5    1    3    3  502    0  0.13898205372E+02  0.46280760346E+02  0.67989089413E+01  0.49024321042E+02  0.47000000000E+01 0. -1.
         -5    1    3    3    0  502 -0.33533683370E+01 -0.33531717489E+02 -0.10622170975E+03  0.11153816736E+03  0.47000000000E+01 0. -1.
        -11    1    1    2    0    0  0.38097539583E+02 -0.34709728599E+02 -0.16566957615E+03  0.17350099782E+03  0.00000000000E+00 0.  1.
         11    1    1    2    0    0 -0.48642376618E+02  0.21960685742E+02 -0.52232112085E+02  0.74676275042E+02  0.00000000000E+00 0. -1.
<mgrwt>
<rscale>  0 0.12421413E+03</rscale>
<asrwt>0</asrwt>
<pdfrwt beam="1">  1        3 0.70319438E-02 0.12607704E+03</pdfrwt>
<pdfrwt beam="2">  1       -3 0.55851098E-01 0.12607704E+03</pdfrwt>
<totfact> 0.95798795E+02</totfact>
</mgrwt>
</event>
<event>
 7    1  0.5206756E-006  0.1341994E+03  0.7546771E-02  0.1236650E+00
          1   -1    0    0  501    0  0.00000000000E+00  0.00000000000E+00  0.50428448403E+03  0.50428448403E+03  0.00000000000E+00 0. -1.
         -1   -1    0    0    0  501 -0.00000000000E+00 -0.00000000000E+00 -0.27327114538E+02  0.27327114538E+02  0.00000000000E+00 0.  1.
         23    2    1    2    0    0  0.90828299668E+00 -0.48828511919E+02  0.31529730056E+03  0.34266873936E+03  0.12499771453E+03 0.  0.
          5    1    3    3  502    0 -0.19326593585E+02  0.33888393720E+02  0.47651431164E+02  0.61763171393E+02  0.47000000000E+01 0. -1.
         -5    1    3    3    0  502  0.20234876582E+02 -0.82716905639E+02  0.26764586940E+03  0.28090556797E+03  0.47000000000E+01 0. -1.
        -11    1    1    2    0    0  0.24268108382E+02 -0.59570949915E+01  0.12257789944E+02  0.27833100429E+02  0.00000000000E+00 0.  1.
         11    1    1    2    0    0 -0.25176391379E+02  0.54785606911E+02  0.14940227898E+03  0.16110975878E+03  0.00000000000E+00 0. -1.
<mgrwt>
<rscale>  0 0.12399408E+03</rscale>
<asrwt>0</asrwt>
<pdfrwt beam="1">  1        1 0.77582221E-01 0.13419939E+03</pdfrwt>
<pdfrwt beam="2">  1       -1 0.42041719E-02 0.13419939E+03</pdfrwt>
<totfact> 0.97042097E+03</totfact>
</mgrwt>
</event>
<event>
 7    1  0.5206756E-006  0.1642904E+03  0.7546771E-02  0.1194309E+00
         -1   -1    0    0    0  501 -0.00000000000E+00  0.00000000000E+00  0.13837904730E+03  0.13837904730E+03  0.00000000000E+00 0.  1.
          1   -1    0    0  501    0  0.00000000000E+00 -0.00000000000E+00 -0.15920591027E+03  0.15920591027E+03  0.00000000000E+00 0. -1.
         23    2    1    2    0    0  0.18335125275E+02  0.10502310898E+03 -0.28579673042E+02  0.16675768360E+03  0.12500118835E+03 0.  0.
          5    1    3    3  502    0 -0.47527948827E+02  0.27489659585E+02  0.13225178826E+02  0.56670827229E+02  0.47000000000E+01 0. -1.
         -5    1    3    3    0  502  0.65863074102E+02  0.77533449396E+02 -0.41804851868E+02  0.11008685637E+03  0.47000000000E+01 0. -1.
        -11    1    1    2    0    0 -0.16901932665E+02 -0.84185246986E+02  0.38139259942E+02  0.93954426648E+02  0.00000000000E+00 0.  1.
         11    1    1    2    0    0 -0.14331926097E+01 -0.20837861995E+02 -0.30386449874E+02  0.36872847321E+02  0.00000000000E+00 0. -1.
<mgrwt>
<rscale>  0 0.15512889E+03</rscale>
<asrwt>0</asrwt>
<pdfrwt beam="2">  1        1 0.24493217E-01 0.16429038E+03</pdfrwt>
<pdfrwt beam="1">  1       -1 0.21289084E-01 0.16429038E+03</pdfrwt>
<totfact> 0.34763072E+03</totfact>
</mgrwt>
</event>
<event>
 7    1  0.5206756E-006  0.1294404E+03  0.7546771E-02  0.1242090E+00
         -1   -1    0    0    0  501 -0.00000000000E+00  0.00000000000E+00  0.12338149312E+03  0.12338149312E+03  0.00000000000E+00 0.  1.
          1   -1    0    0  501    0  0.00000000000E+00 -0.00000000000E+00 -0.11125950277E+03  0.11125950277E+03  0.00000000000E+00 0. -1.
         23    2    1    2    0    0  0.18500454120E+01 -0.33575922519E+02 -0.21941737234E+02  0.13128691775E+03  0.12499619873E+03 0.  0.
          5    1    3    3  502    0 -0.51103348380E+01 -0.52281910654E+02 -0.64934554086E+02  0.83654647319E+02  0.47000000000E+01 0. -1.
         -5    1    3    3    0  502  0.69603802500E+01  0.18705988135E+02  0.42992816852E+02  0.47632270429E+02  0.47000000000E+01 0. -1.
        -11    1    1    2    0    0 -0.10606988813E+02  0.66431110806E+01  0.62191759585E+02  0.63438585237E+02  0.00000000000E+00 0.  1.
         11    1    1    2    0    0  0.87569434010E+01  0.26932811438E+02 -0.28128032002E+02  0.39915492907E+02  0.00000000000E+00 0. -1.
<mgrwt>
<rscale>  0 0.12061237E+03</rscale>
<asrwt>0</asrwt>
<pdfrwt beam="2">  1        1 0.17116847E-01 0.12944039E+03</pdfrwt>
<pdfrwt beam="1">  1       -1 0.18981768E-01 0.12944039E+03</pdfrwt>
<totfact> 0.65031527E+03</totfact>
</mgrwt>
</event>
<event>
 7    1  0.5206756E-006  0.1835066E+03  0.7546771E-02  0.1171521E+00
          1   -1    0    0  501    0  0.00000000000E+00  0.00000000000E+00  0.11272816415E+03  0.11272816415E+03  0.00000000000E+00 0. -1.
         -1   -1    0    0    0  501 -0.00000000000E+00 -0.00000000000E+00 -0.25843718821E+03  0.25843718821E+03  0.00000000000E+00 0.  1.
         23    2    1    2    0    0  0.23658566409E+02 -0.13224884805E+03 -0.59492217897E+02  0.19290932705E+03  0.12500079559E+03 0.  0.
          5    1    3    3  502    0 -0.12568949075E+02 -0.77523998511E+02 -0.90714363690E+02  0.12007970106E+03  0.47000000000E+01 0. -1.
         -5    1    3    3    0  502  0.36227515483E+02 -0.54724849534E+02  0.31222145794E+02  0.72829625995E+02  0.47000000000E+01 0. -1.
        -11    1    1    2    0    0  0.23361582352E+02  0.88392398840E+02 -0.45213795405E+02  0.10199640679E+03  0.00000000000E+00 0. -1.
         11    1    1    2    0    0 -0.47020148761E+02  0.43856449206E+02 -0.41003010749E+02  0.76259618521E+02  0.00000000000E+00 0.  1.
<mgrwt>
<rscale>  0 0.17621102E+03</rscale>
<asrwt>0</asrwt>
<pdfrwt beam="1">  1        1 0.17342794E-01 0.18350663E+03</pdfrwt>
<pdfrwt beam="2">  1       -1 0.39759568E-01 0.18350663E+03</pdfrwt>
<totfact> 0.18929533E+03</totfact>
</mgrwt>
</event>
<event>
 7    1  0.5206756E-006  0.1495649E+03  0.7546771E-02  0.1209815E+00
         -3   -1    0    0    0  501 -0.00000000000E+00  0.00000000000E+00  0.80477243933E+02  0.80477243933E+02  0.00000000000E+00 0.  1.
          3   -1    0    0  501    0  0.00000000000E+00 -0.00000000000E+00 -0.25478421651E+03  0.25478421651E+03  0.00000000000E+00 0. -1.
         23    2    1    2    0    0  0.60571289581E+02  0.55421348242E+02 -0.14452613163E+03  0.20798427542E+03  0.12501699538E+03 0.  0.
          5    1    3    3  502    0  0.84152981133E+02  0.50976583892E+02 -0.50229451036E+02  0.11056863972E+03  0.47000000000E+01 0. -1.
         -5    1    3    3    0  502 -0.23581691552E+02  0.44447643506E+01 -0.94296680593E+02  0.97415635693E+02  0.47000000000E+01 0. -1.
        -11    1    1    2    0    0  0.14426151881E+02  0.50122186471E+01  0.14689668792E+02  0.21190152503E+02  0.00000000000E+00 0.  1.
         11    1    1    2    0    0 -0.74997441463E+02 -0.60433566889E+02 -0.44470509738E+02  0.10608703252E+03  0.00000000000E+00 0. -1.
<mgrwt>
<rscale>  0 0.14264393E+03</rscale>
<asrwt>0</asrwt>
<pdfrwt beam="2">  1        3 0.39197572E-01 0.14956489E+03</pdfrwt>
<pdfrwt beam="1">  1       -3 0.12381114E-01 0.14956489E+03</pdfrwt>
<totfact> 0.78067372E+02</totfact>
</mgrwt>
</event>
<event>
 7    1  0.5206756E-006  0.1462870E+03  0.7546771E-02  0.1218800E+00
         -3   -1    0    0    0  501 -0.00000000000E+00  0.00000000000E+00  0.25693587440E+02  0.25693587440E+02  0.00000000000E+00 0.  1.
          3   -1    0    0  501    0  0.00000000000E+00 -0.00000000000E+00 -0.99435910933E+03  0.99435910933E+03  0.00000000000E+00 0. -1.
         23    2    1    2    0    0  0.65464356627E+02 -0.38667271471E+02 -0.83338187894E+03  0.84612365156E+03  0.12497654869E+03 0.  0.
          5    1    3    3  502    0  0.94875467667E+02  0.14268415848E+01 -0.48954272382E+03  0.49867580520E+03  0.47000000000E+01 0.  1.
         -5    1    3    3    0  502 -0.29411111039E+02 -0.40094113056E+02 -0.34383915511E+03  0.34744784637E+03  0.47000000000E+01 0.  1.
        -11    1    1    2    0    0 -0.43432087311E+02  0.25021842514E+02 -0.13898790039E+03  0.14775004320E+03  0.00000000000E+00 0. -1.
         11    1    1    2    0    0 -0.22032269317E+02  0.13645428957E+02  0.37042574406E+01  0.26179002003E+02  0.00000000000E+00 0.  1.
<mgrwt>
<rscale>  0 0.13601087E+03</rscale>
<asrwt>0</asrwt>
<pdfrwt beam="2">  1        3 0.15297830E+00 0.14628697E+03</pdfrwt>
<pdfrwt beam="1">  1       -3 0.39528602E-02 0.14628697E+03</pdfrwt>
<totfact> 0.25545662E+02</totfact>
</mgrwt>
</event>
<event>
 7    1  0.5206756E-006  0.1435365E+03  0.7546771E-02  0.1219736E+00
         -2   -1    0    0    0  501 -0.00000000000E+00  0.00000000000E+00  0.10641551454E+03  0.10641551454E+03  0.00000000000E+00 0.  1.
          2   -1    0    0  501    0  0.00000000000E+00 -0.00000000000E+00 -0.50140602296E+03  0.50140602296E+03  0.00000000000E+00 0. -1.
         23    2    1    2    0    0  0.46075540413E+02  0.53424055615E+02 -0.45665532935E+03  0.47868238408E+03  0.12500259944E+03 0.  0.
          5    1    3    3  502    0  0.12840210530E+02  0.12568842917E+02  0.40189051551E+00  0.18576822513E+02  0.47000000000E+01 0. -1.
         -5    1    3    3    0  502  0.33235329883E+02  0.40855212698E+02 -0.45705721986E+03  0.46010556157E+03  0.47000000000E+01 0. -1.
        -11    1    1    2    0    0  0.16929972872E+02 -0.37305833561E+01  0.43552762710E+02  0.46876266632E+02  0.00000000000E+00 0.  1.
         11    1    1    2    0    0 -0.63005513284E+02 -0.49693472259E+02  0.18112058219E+02  0.82262886786E+02  0.00000000000E+00 0. -1.
<mgrwt>
<rscale>  0 0.13534356E+03</rscale>
<asrwt>0</asrwt>
<pdfrwt beam="2">  1        2 0.77139388E-01 0.14353653E+03</pdfrwt>
<pdfrwt beam="1">  1       -2 0.16371618E-01 0.14353653E+03</pdfrwt>
<totfact> 0.18075954E+03</totfact>
</mgrwt>
</event>
<event>
 7    1  0.5206756E-006  0.1450392E+03  0.7546771E-02  0.1216250E+00
          1   -1    0    0  501    0  0.00000000000E+00  0.00000000000E+00  0.12573058772E+04  0.12573058772E+04  0.00000000000E+00 0. -1.
         -1   -1    0    0    0  501 -0.00000000000E+00 -0.00000000000E+00 -0.13861388852E+02  0.13861388852E+02  0.00000000000E+00 0.  1.
         23    2    1    2    0    0 -0.25919609893E+02 -0.68845451808E+02  0.72825887237E+03  0.74256134401E+03  0.12499936806E+03 0.  0.
          5    1    3    3  502    0 -0.55474530659E+02  0.13609872941E+02  0.29171060066E+03  0.29728743117E+03  0.47000000000E+01 0.  1.
         -5    1    3    3    0  502  0.29554920765E+02 -0.82455324749E+02  0.43654827171E+03  0.44527391283E+03  0.47000000000E+01 0.  1.
        -11    1    1    2    0    0  0.58496260688E+02  0.24816938163E+02  0.26960796566E+03  0.27699485209E+03  0.00000000000E+00 0.  1.
         11    1    1    2    0    0 -0.32576650794E+02  0.44028513645E+02  0.24557765030E+03  0.25161106994E+03  0.00000000000E+00 0. -1.
<mgrwt>
<rscale>  0 0.13785135E+03</rscale>
<asrwt>0</asrwt>
<pdfrwt beam="1">  1        1 0.19343158E+00 0.14503918E+03</pdfrwt>
<pdfrwt beam="2">  1       -1 0.21325224E-02 0.14503918E+03</pdfrwt>
<totfact> 0.63795567E+03</totfact>
</mgrwt>
</event>
<event>
 7    1  0.5206756E-006  0.1276000E+03  0.7546771E-02  0.1247895E+00
          2   -1    0    0  501    0  0.00000000000E+00  0.00000000000E+00  0.67106544512E+02  0.67106544512E+02  0.00000000000E+00 0. -1.
         -2   -1    0    0    0  501 -0.00000000000E+00 -0.00000000000E+00 -0.19181780692E+03  0.19181780692E+03  0.00000000000E+00 0.  1.
         23    2    1    2    0    0  0.12160971111E+02  0.22578854668E+02 -0.37120263954E+02  0.13288972877E+03  0.12499628843E+03 0.  0.
          5    1    3    3  502    0 -0.38779718915E+02  0.17815489095E+00  0.27280807291E+02  0.47646938881E+02  0.47000000000E+01 0.  1.
         -5    1    3    3    0  502  0.50940690026E+02  0.22400699777E+02 -0.64401071245E+02  0.85242789891E+02  0.47000000000E+01 0.  1.
        -11    1    1    2    0    0  0.11298983726E+02 -0.19038540315E+02 -0.97749868144E+02  0.10022559440E+03  0.00000000000E+00 0.  1.
         11    1    1    2    0    0 -0.23459954837E+02 -0.35403143526E+01  0.10158869685E+02  0.25809028265E+02  0.00000000000E+00 0. -1.
<mgrwt>
<rscale>  0 0.11713799E+03</rscale>
<asrwt>0</asrwt>
<pdfrwt beam="1">  1        2 0.10324084E-01 0.12760002E+03</pdfrwt>
<pdfrwt beam="2">  1       -2 0.29510431E-01 0.12760002E+03</pdfrwt>
<totfact> 0.61188818E+03</totfact>
</mgrwt>
</event>
<event>
 7    1  0.5206756E-006  0.1568486E+03  0.7546771E-02  0.1202592E+00
          2   -1    0    0  501    0  0.00000000000E+00  0.00000000000E+00  0.10508077703E+03  0.10508077703E+03  0.00000000000E+00 0.  1.
         -2   -1    0    0    0  501 -0.00000000000E+00 -0.00000000000E+00 -0.30983962209E+03  0.30983962209E+03  0.00000000000E+00 0. -1.
         23    2    1    2    0    0 -0.52873490485E+00 -0.94745910255E+02  0.19469290474E+02  0.15805234163E+03  0.12499768939E+03 0.  0.
          5    1    3    3  502    0  0.21887661505E+02  0.17264587221E+02  0.32394679450E+02  0.42995824852E+02  0.47000000000E+01 0. -1.
         -5    1    3    3    0  502 -0.22416396410E+02 -0.11201049748E+03 -0.12925388976E+02  0.11505651678E+03  0.47000000000E+01 0. -1.
        -11    1    1    2    0    0  0.10429068543E+02 -0.11725989052E+02 -0.14100207663E+02  0.21096922668E+02  0.00000000000E+00 0.  1.
         11    1    1    2    0    0 -0.99003336384E+01  0.10647189931E+03 -0.21012792787E+03  0.23577113483E+03  0.00000000000E+00 0. -1.
<mgrwt>
<rscale>  0 0.14828873E+03</rscale>
<asrwt>0</asrwt>
<pdfrwt beam="1">  1        2 0.16166273E-01 0.15684862E+03</pdfrwt>
<pdfrwt beam="2">  1       -2 0.47667634E-01 0.15684862E+03</pdfrwt>
<totfact> 0.14766763E+03</totfact>
</mgrwt>
</event>
<event>
 7    1  0.5206756E-006  0.1412214E+03  0.7546771E-02  0.1222974E+00
          1   -1    0    0  501    0  0.00000000000E+00  0.00000000000E+00  0.29323895664E+03  0.29323895664E+03  0.00000000000E+00 0. -1.
         -1   -1    0    0    0  501 -0.00000000000E+00 -0.00000000000E+00 -0.72631064399E+02  0.72631064399E+02  0.00000000000E+00 0.  1.
         23    2    1    2    0    0  0.12051063323E+02 -0.64574272598E+02  0.21131530286E+03  0.25416064043E+03  0.12501363571E+03 0.  0.
          5    1    3    3  502    0  0.47968289670E+02 -0.49396864453E+02  0.42979516687E+02  0.81303972143E+02  0.47000000000E+01 0. -1.
         -5    1    3    3    0  502 -0.35917226347E+02 -0.15177408146E+02  0.16833578617E+03  0.17285666829E+03  0.47000000000E+01 0. -1.
        -11    1    1    2    0    0 -0.71374733529E+01  0.30165223335E+02  0.49597201038E+02  0.58487319784E+02  0.00000000000E+00 0. -1.
         11    1    1    2    0    0 -0.49135899698E+01  0.34409049263E+02 -0.40304611655E+02  0.53222060823E+02  0.00000000000E+00 0.  1.
<mgrwt>
<rscale>  0 0.13306712E+03</rscale>
<asrwt>0</asrwt>
<pdfrwt beam="1">  1        1 0.45113685E-01 0.14122136E+03</pdfrwt>
<pdfrwt beam="2">  1       -1 0.11174010E-01 0.14122136E+03</pdfrwt>
<totfact> 0.44518331E+03</totfact>
</mgrwt>
</event>
<event>
 7    1  0.5206756E-006  0.1385327E+03  0.7546771E-02  0.1225957E+00
         -2   -1    0    0    0  501 -0.00000000000E+00  0.00000000000E+00  0.53523115755E+02  0.53523115755E+02  0.00000000000E+00 0.  1.
          2   -1    0    0  501    0  0.00000000000E+00 -0.00000000000E+00 -0.29868494429E+03  0.29868494429E+03  0.00000000000E+00 0. -1.
         23    2    1    2    0    0 -0.27425202714E+02 -0.53055570988E+02 -0.10672195659E+03  0.17487394295E+03  0.12499713816E+03 0.  0.
          5    1    3    3  502    0 -0.11144879947E+02  0.19967945845E+02 -0.96419461896E+02  0.99205493006E+02  0.47000000000E+01 0. -1.
         -5    1    3    3    0  502 -0.16280322768E+02 -0.73023516833E+02 -0.10302494697E+02  0.75668449945E+02  0.47000000000E+01 0. -1.
        -11    1    1    2    0    0  0.48158454307E+02  0.56266840284E+02 -0.57622583277E+02  0.93837924850E+02  0.00000000000E+00 0.  1.
         11    1    1    2    0    0 -0.20733251592E+02 -0.32112692957E+01 -0.80817288667E+02  0.83496192245E+02  0.00000000000E+00 0. -1.
<mgrwt>
<rscale>  0 0.13101530E+03</rscale>
<asrwt>0</asrwt>
<pdfrwt beam="2">  1        2 0.45951530E-01 0.13853274E+03</pdfrwt>
<pdfrwt beam="1">  1       -2 0.82343255E-02 0.13853274E+03</pdfrwt>
<totfact> 0.94162152E+03</totfact>
</mgrwt>
</event>
<event>
 7    1  0.5206756E-006  0.2157881E+03  0.7546771E-02  0.1141949E+00
         -2   -1    0    0    0  501 -0.00000000000E+00  0.00000000000E+00  0.92172618148E+02  0.92172618148E+02  0.00000000000E+00 0.  1.
          2   -1    0    0  501    0  0.00000000000E+00 -0.00000000000E+00 -0.45223537045E+03  0.45223537045E+03  0.00000000000E+00 0. -1.
         23    2    1    2    0    0  0.17418924231E+03 -0.24492262801E+02 -0.17396796714E+03  0.27718111575E+03  0.12499101673E+03 0.  0.
          5    1    3    3  502    0  0.96442046089E+01  0.95170732942E+01  0.17351346108E+02  0.22510987947E+02  0.47000000000E+01 0. -1.
         -5    1    3    3    0  502  0.16454503770E+03 -0.34009336096E+02 -0.19131931325E+03  0.25467012780E+03  0.47000000000E+01 0. -1.
        -11    1    1    2    0    0 -0.12637990966E+03 -0.80683614901E+01 -0.91077607111E+02  0.15598753328E+03  0.00000000000E+00 0.  1.
         11    1    1    2    0    0 -0.47809332647E+02  0.32560624292E+02 -0.95017178046E+02  0.11123933956E+03  0.00000000000E+00 0. -1.
<mgrwt>
<rscale>  0 0.20951762E+03</rscale>
<asrwt>0</asrwt>
<pdfrwt beam="2">  1        2 0.69574673E-01 0.21578813E+03</pdfrwt>
<pdfrwt beam="1">  1       -2 0.14180403E-01 0.21578813E+03</pdfrwt>
<totfact> 0.25944748E+03</totfact>
</mgrwt>
</event>
<event>
 6    1  0.5206756E-006  0.2146189E+03  0.7546771E-02  0.1143034E+00
          1   -1    0    0  501    0  0.00000000000E+00  0.00000000000E+00  0.21810910729E+03  0.21810910729E+03  0.00000000000E+00 0. -1.
         -1   -1    0    0    0  501 -0.00000000000E+00 -0.00000000000E+00 -0.26177454954E+03  0.26177454954E+03  0.00000000000E+00 0.  1.
          5    1    1    2  502    0 -0.87133646233E+02  0.10245892755E+03  0.12929208885E+03  0.18662432419E+03  0.47000000000E+01 0. -1.
         -5    1    1    2    0  502 -0.45853018029E+02  0.87901242852E+00 -0.24504744454E+02  0.52209620052E+02  0.47000000000E+01 0.  1.
        -11    1    1    2    0    0  0.63411100885E+02 -0.10218656051E+03 -0.90990665493E+02  0.15080570968E+03  0.00000000000E+00 0. -1.
         11    1    1    2    0    0  0.69575563377E+02 -0.11513794688E+01 -0.57462121153E+02  0.90244002911E+02  0.00000000000E+00 0.  1.
<mgrwt>
<rscale>  0 0.20815618E+03</rscale>
<asrwt>0</asrwt>
<pdfrwt beam="1">  1        1 0.33555248E-01 0.21461888E+03</pdfrwt>
<pdfrwt beam="2">  1       -1 0.40273007E-01 0.21461888E+03</pdfrwt>
<totfact> 0.80159406E+02</totfact>
</mgrwt>
</event>
<event>
 7    1  0.1501454E-005  0.3008932E+03  0.7546771E-02  0.1086228E+00
          1   -1    0    0  501    0  0.00000000000E+00  0.00000000000E+00  0.12765741169E+04  0.12765741169E+04  0.00000000000E+00 0. -1.
         -1   -1    0    0    0  501 -0.00000000000E+00 -0.00000000000E+00 -0.70109171902E+02  0.70109171902E+02  0.00000000000E+00 0.  1.
         23    2    1    2    0    0 -0.98943018473E+02 -0.25519055987E+03  0.72295780497E+03  0.78307389855E+03  0.12499920029E+03 0.  0.
          5    1    3    3  502    0 -0.15509162240E+01 -0.24406321644E+02  0.90760608092E+01  0.26505447688E+02  0.47000000000E+01 0.  1.
         -5    1    3    3    0  502 -0.97392102249E+02 -0.23078423823E+03  0.71388174416E+03  0.75656845086E+03  0.47000000000E+01 0.  1.
        -11    1    1    2    0    0  0.17666210772E+02  0.71901772029E+02  0.60963638733E+02  0.95908941562E+02  0.00000000000E+00 0.  1.
         11    1    1    2    0    0  0.81276807702E+02  0.18328878785E+03  0.42254350132E+03  0.46770044872E+03  0.00000000000E+00 0. -1.
<mgrwt>
<rscale>  0 0.29803296E+03</rscale>
<asrwt>0</asrwt>
<pdfrwt beam="1">  1        1 0.19639600E+00 0.30089324E+03</pdfrwt>
<pdfrwt beam="2">  1       -1 0.10786027E-01 0.30089324E+03</pdfrwt>
<totfact> 0.54857576E+02</totfact>
</mgrwt>
</event>
<event>
 7    1  0.5206756E-006  0.2209142E+03  0.7546771E-02  0.1135677E+00
         -2   -1    0    0    0  501 -0.00000000000E+00  0.00000000000E+00  0.29454052990E+02  0.29454052990E+02  0.00000000000E+00 0.  1.
          2   -1    0    0  501    0  0.00000000000E+00 -0.00000000000E+00 -0.19512472008E+04  0.19512472008E+04  0.00000000000E+00 0. -1.
         23    2    1    2    0    0  0.12802925033E+03 -0.12956514004E+03 -0.14265485563E+04  0.14435525091E+04  0.12499779369E+03 0.  0.
          5    1    3    3  502    0  0.14475233745E+03 -0.10494398142E+03 -0.13405359736E+04  0.13524146054E+04  0.47000000000E+01 0. -1.
         -5    1    3    3    0  502 -0.16723087117E+02 -0.24621158618E+02 -0.86012582725E+02  0.91137903649E+02  0.47000000000E+01 0. -1.
        -11    1    1    2    0    0 -0.81890969513E+02  0.46304230197E+02 -0.13503748280E+03  0.16457622667E+03  0.00000000000E+00 0.  1.
         11    1    1    2    0    0 -0.46138280820E+02  0.83260909842E+02 -0.36020710864E+03  0.37257251802E+03  0.00000000000E+00 0. -1.
<mgrwt>
<rscale>  0 0.21761080E+03</rscale>
<asrwt>0</asrwt>
<pdfrwt beam="2">  1        2 0.30019190E+00 0.22091415E+03</pdfrwt>
<pdfrwt beam="1">  1       -2 0.45313925E-02 0.22091415E+03</pdfrwt>
<totfact> 0.17988850E+03</totfact>
</mgrwt>
</event>
<event>
 7    1  0.5206756E-006  0.1352868E+03  0.7546771E-02  0.1222607E+00
          1   -1    0    0  501    0  0.00000000000E+00  0.00000000000E+00  0.19049008203E+03  0.19049008203E+03  0.00000000000E+00 0.  1.
         -1   -1    0    0    0  501 -0.00000000000E+00 -0.00000000000E+00 -0.10301864084E+03  0.10301864084E+03  0.00000000000E+00 0. -1.
         23    2    1    2    0    0  0.25418834862E+02  0.26820215076E+01  0.93340422589E+02  0.15809469295E+03  0.12501274753E+03 0.  0.
          5    1    3    3  502    0 -0.31429122660E+02  0.24709789872E+00  0.95814440864E+02  0.10094725299E+03  0.47000000000E+01 0.  1.
         -5    1    3    3    0  502  0.56847957522E+02  0.24349236089E+01 -0.24740182751E+01  0.57147439959E+02  0.47000000000E+01 0.  1.
        -11    1    1    2    0    0 -0.75071568234E+02 -0.21032714664E+02  0.13351652510E+02  0.79097294947E+02  0.00000000000E+00 0.  1.
         11    1    1    2    0    0  0.49652733372E+02  0.18350693157E+02 -0.19220633906E+02  0.56316734976E+02  0.00000000000E+00 0. -1.
<mgrwt>
<rscale>  0 0.13332246E+03</rscale>
<asrwt>0</asrwt>
<pdfrwt beam="1">  1        1 0.29306166E-01 0.13528679E+03</pdfrwt>
<pdfrwt beam="2">  1       -1 0.15849022E-01 0.13528679E+03</pdfrwt>
<totfact> 0.44022753E+03</totfact>
</mgrwt>
</event>
<event>
 7    1  0.5206756E-006  0.1464962E+03  0.7546771E-02  0.1212837E+00
          2   -1    0    0  501    0  0.00000000000E+00  0.00000000000E+00  0.97304944051E+02  0.97304944051E+02  0.00000000000E+00 0. -1.
         -2   -1    0    0    0  501 -0.00000000000E+00 -0.00000000000E+00 -0.18841364131E+03  0.18841364131E+03  0.00000000000E+00 0.  1.
         23    2    1    2    0    0 -0.12641116625E+02 -0.75346957555E+02 -0.38248574129E+02  0.15140701679E+03  0.12499667783E+03 0.  0.
          5    1    3    3  502    0  0.53169937124E+00  0.14820646650E+02 -0.56285157315E+02  0.58395575221E+02  0.47000000000E+01 0. -1.
         -5    1    3    3    0  502 -0.13172815996E+02 -0.90167604205E+02  0.18036583186E+02  0.93011441567E+02  0.47000000000E+01 0. -1.
        -11    1    1    2    0    0  0.14093162855E+02 -0.21767512678E+01  0.22205958708E+02  0.26390530262E+02  0.00000000000E+00 0. -1.
         11    1    1    2    0    0 -0.14520462304E+01  0.77523708822E+02 -0.75066081841E+02  0.10792103831E+03  0.00000000000E+00 0.  1.
<mgrwt>
<rscale>  0 0.14036606E+03</rscale>
<asrwt>0</asrwt>
<pdfrwt beam="1">  1        2 0.14969991E-01 0.14649618E+03</pdfrwt>
<pdfrwt beam="2">  1       -2 0.28986714E-01 0.14649618E+03</pdfrwt>
<totfact> 0.40876516E+03</totfact>
</mgrwt>
</event>
<event>
 7    1  0.5206756E-006  0.1301755E+03  0.7546771E-02  0.1241064E+00
          1   -1    0    0  501    0  0.00000000000E+00  0.00000000000E+00  0.64638425338E+03  0.64638425338E+03  0.00000000000E+00 0. -1.
         -1   -1    0    0    0  501 -0.00000000000E+00 -0.00000000000E+00 -0.20757890216E+02  0.20757890216E+02  0.00000000000E+00 0.  1.
         23    2    1    2    0    0 -0.45102440014E+01  0.35661360307E+02  0.41319854144E+03  0.43321899278E+03  0.12511429229E+03 0.  0.
          5    1    3    3  502    0 -0.22113076446E+02 -0.89212985930E+01  0.36241681303E+03  0.36323080003E+03  0.47000000000E+01 0. -1.
         -5    1    3    3    0  502  0.17602832444E+02  0.44582658900E+02  0.50781728406E+02  0.69988192751E+02  0.47000000000E+01 0. -1.
        -11    1    1    2    0    0 -0.25024376014E+02 -0.52089824179E+02  0.90325549676E+02  0.10723000561E+03  0.00000000000E+00 0. -1.
         11    1    1    2    0    0  0.29534620015E+02  0.16428463871E+02  0.12210227205E+03  0.12669314521E+03  0.00000000000E+00 0.  1.
<mgrwt>
<rscale>  0 0.12124100E+03</rscale>
<asrwt>0</asrwt>
<pdfrwt beam="1">  1        1 0.99443716E-01 0.13017550E+03</pdfrwt>
<pdfrwt beam="2">  1       -1 0.31935221E-02 0.13017550E+03</pdfrwt>
<totfact> 0.10372791E+04</totfact>
</mgrwt>
</event>
<event>
 7    1  0.5206756E-006  0.1419240E+03  0.7546771E-02  0.1222581E+00
          1   -1    0    0  501    0  0.00000000000E+00  0.00000000000E+00  0.43777234484E+03  0.43777234484E+03  0.00000000000E+00 0. -1.
         -1   -1    0    0    0  501 -0.00000000000E+00 -0.00000000000E+00 -0.47868901470E+02  0.47868901470E+02  0.00000000000E+00 0.  1.
         23    2    1    2    0    0 -0.43996142036E+02 -0.50805963189E+02  0.33145631665E+03  0.36056304664E+03  0.12500205738E+03 0.  0.
          5    1    3    3  502    0 -0.49173078603E+02  0.29307272474E+02  0.18195764760E+03  0.19080771315E+03  0.47000000000E+01 0.  1.
         -5    1    3    3    0  502  0.51769365668E+01 -0.80113235663E+02  0.14949866905E+03  0.16975533349E+03  0.47000000000E+01 0.  1.
        -11    1    1    2    0    0 -0.17642950536E+02  0.40740117722E+02  0.40503026194E+02  0.60095973463E+02  0.00000000000E+00 0. -1.
         11    1    1    2    0    0  0.61639092572E+02  0.10065845467E+02  0.17944100522E+02  0.64982226198E+02  0.00000000000E+00 0.  1.
<mgrwt>
<rscale>  0 0.13334093E+03</rscale>
<asrwt>0</asrwt>
<pdfrwt beam="1">  1        1 0.67349589E-01 0.14192400E+03</pdfrwt>
<pdfrwt beam="2">  1       -1 0.73644467E-02 0.14192400E+03</pdfrwt>
<totfact> 0.50797645E+03</totfact>
</mgrwt>
</event>
<event>
 7    1  0.5206756E-006  0.1371382E+03  0.7546771E-02  0.1228510E+00
          2   -1    0    0  501    0  0.00000000000E+00  0.00000000000E+00  0.56050647720E+03  0.56050647720E+03  0.00000000000E+00 0. -1.
         -2   -1    0    0    0  501 -0.00000000000E+00 -0.00000000000E+00 -0.29587335545E+02  0.29587335545E+02  0.00000000000E+00 0.  1.
         23    2    1    2    0    0 -0.51626674911E+02 -0.22756687890E+02  0.38245721201E+03  0.40630088394E+03  0.12499483533E+03 0.  0.
          5    1    3    3  502    0 -0.39569514605E+02 -0.70988865697E+02  0.17639921402E+03  0.19427799218E+03  0.47000000000E+01 0.  1.
         -5    1    3    3    0  502 -0.12057160306E+02  0.48232177806E+02  0.20605799800E+03  0.21202289176E+03  0.47000000000E+01 0.  1.
        -11    1    1    2    0    0  0.25154323722E+02 -0.35852273088E+02  0.54209532789E+02  0.69690737783E+02  0.00000000000E+00 0.  1.
         11    1    1    2    0    0  0.26472351189E+02  0.58608960979E+02  0.94252396848E+02  0.11410219102E+03  0.00000000000E+00 0. -1.
<mgrwt>
<rscale>  0 0.12929218E+03</rscale>
<asrwt>0</asrwt>
<pdfrwt beam="1">  1        2 0.86231758E-01 0.13713821E+03</pdfrwt>
<pdfrwt beam="2">  1       -2 0.45518982E-02 0.13713821E+03</pdfrwt>
<totfact> 0.11748647E+04</totfact>
</mgrwt>
</event>
<event>
 7    1  0.5206756E-006  0.1402313E+03  0.7546771E-02  0.1225362E+00
         -2   -1    0    0    0  501 -0.00000000000E+00  0.00000000000E+00  0.28870094003E+02  0.28870094003E+02  0.00000000000E+00 0.  1.
          2   -1    0    0  501    0  0.00000000000E+00 -0.00000000000E+00 -0.76099395784E+03  0.76099395784E+03  0.00000000000E+00 0. -1.
         23    2    1    2    0    0  0.59229546492E+02 -0.22930630836E+02 -0.61350184193E+03  0.62932449028E+03  0.12502340184E+03 0.  0.
          5    1    3    3  502    0  0.31263830518E+01  0.19313895154E+02 -0.11408730466E+02  0.23131146704E+02  0.47000000000E+01 0. -1.
         -5    1    3    3    0  502  0.56103163440E+02 -0.42244525990E+02 -0.60209311146E+03  0.60619334358E+03  0.47000000000E+01 0. -1.
        -11    1    1    2    0    0 -0.33246747505E+01 -0.16191007117E+02  0.67086215035E+01  0.17838379303E+02  0.00000000000E+00 0.  1.
         11    1    1    2    0    0 -0.55904871742E+02  0.39121637954E+02 -0.12533064341E+03  0.14270118226E+03  0.00000000000E+00 0. -1.
<mgrwt>
<rscale>  0 0.13142108E+03</rscale>
<asrwt>0</asrwt>
<pdfrwt beam="2">  1        2 0.11707599E+00 0.14023125E+03</pdfrwt>
<pdfrwt beam="1">  1       -2 0.44415529E-02 0.14023125E+03</pdfrwt>
<totfact> 0.85427447E+03</totfact>
</mgrwt>
</event>
<event>
 7    1  0.5206756E-006  0.1266148E+03  0.7546771E-02  0.1248317E+00
          2   -1    0    0  501    0  0.00000000000E+00  0.00000000000E+00  0.11421123146E+03  0.11421123146E+03  0.00000000000E+00 0. -1.
         -2   -1    0    0    0  501 -0.00000000000E+00 -0.00000000000E+00 -0.12550760509E+03  0.12550760509E+03  0.00000000000E+00 0.  1.
         23    2    1    2    0    0 -0.10243918800E+02  0.17387710748E+02  0.42024839466E+02  0.13340689866E+03  0.12499617242E+03 0.  0.
          5    1    3    3  502    0  0.40012420961E+02  0.11539187059E+02 -0.25380825648E+02  0.48994111684E+02  0.47000000000E+01 0.  1.
         -5    1    3    3    0  502 -0.50256339761E+02  0.58485236893E+01  0.67405665114E+02  0.84412786976E+02  0.47000000000E+01 0.  1.
        -11    1    1    2    0    0 -0.10925727158E+01 -0.52321580683E+02 -0.17961361976E+02  0.55329486211E+02  0.00000000000E+00 0. -1.
         11    1    1    2    0    0  0.11336491516E+02  0.34933869935E+02 -0.35359851113E+02  0.50982451679E+02  0.00000000000E+00 0.  1.
<mgrwt>
<rscale>  0 0.11689038E+03</rscale>
<asrwt>0</asrwt>
<pdfrwt beam="1">  1        2 0.17570959E-01 0.12661482E+03</pdfrwt>
<pdfrwt beam="2">  1       -2 0.19308862E-01 0.12661482E+03</pdfrwt>
<totfact> 0.67983848E+03</totfact>
</mgrwt>
</event>
<event>
 7    1  0.5206756E-006  0.1328244E+03  0.7546771E-02  0.1231914E+00
         -2   -1    0    0    0  501 -0.00000000000E+00  0.00000000000E+00  0.11924141523E+02  0.11924141523E+02  0.00000000000E+00 0.  1.
          2   -1    0    0  501    0  0.00000000000E+00 -0.00000000000E+00 -0.15579697412E+04  0.15579697412E+04  0.00000000000E+00 0. -1.
         23    2    1    2    0    0 -0.39834019758E+02 -0.21165442296E+02 -0.11770089350E+04  0.11844797799E+04  0.12493034411E+03 0.  0.
          5    1    3    3  502    0 -0.23224203839E+01  0.25386235694E+02 -0.54296515970E+02  0.60166903241E+02  0.47000000000E+01 0. -1.
         -5    1    3    3    0  502 -0.37511599374E+02 -0.46551677990E+02 -0.11227124190E+04  0.11243128767E+04  0.47000000000E+01 0. -1.
        -11    1    1    2    0    0  0.55718759746E+02 -0.22108109115E+02 -0.14910744667E+03  0.16070587832E+03  0.00000000000E+00 0.  1.
         11    1    1    2    0    0 -0.15884739988E+02  0.43273551411E+02 -0.21992921799E+03  0.22470822447E+03  0.00000000000E+00 0. -1.
<mgrwt>
<rscale>  0 0.12704072E+03</rscale>
<asrwt>0</asrwt>
<pdfrwt beam="2">  1        2 0.23968755E+00 0.13282438E+03</pdfrwt>
<pdfrwt beam="1">  1       -2 0.18344841E-02 0.13282438E+03</pdfrwt>
<totfact> 0.10861725E+04</totfact>
</mgrwt>
</event>
<event>
 6    1  0.5206756E-006  0.1773878E+03  0.7546771E-02  0.1265144E+00
          2   -1    0    0  501    0  0.00000000000E+00  0.00000000000E+00  0.34442756495E+03  0.34442756495E+03  0.00000000000E+00 0. -1.
         -2   -1    0    0    0  501 -0.00000000000E+00 -0.00000000000E+00 -0.57371756673E+02  0.57371756673E+02  0.00000000000E+00 0.  1.
          5    1    1    2  502    0 -0.11003651148E+02 -0.36725571637E+02  0.31739607217E+03  0.31973771216E+03  0.47000000000E+01 0. -1.
         -5    1    1    2    0  502  0.29164793743E+02  0.32082473735E+02 -0.28902681377E+00  0.43612427719E+02  0.47000000000E+01 0.  1.
        -11    1    1    2    0    0 -0.10344934875E+02 -0.50402420886E+01 -0.13433881037E+02  0.17688721763E+02  0.00000000000E+00 0. -1.
         11    1    1    2    0    0 -0.78162077199E+01  0.96833399903E+01 -0.16617356044E+02  0.20760459975E+02  0.00000000000E+00 0.  1.
<mgrwt>
<rscale>  0 0.10756628E+03</rscale>
<asrwt>0</asrwt>
<pdfrwt beam="1">  1        2 0.52988855E-01 0.17738784E+03</pdfrwt>
<pdfrwt beam="2">  1       -2 0.88264243E-02 0.17738784E+03</pdfrwt>
<totfact> 0.73804087E+03</totfact>
</mgrwt>
</event>
<event>
 7    1  0.5206756E-006  0.1389830E+03  0.7546771E-02  0.1226923E+00
         -2   -1    0    0    0  501 -0.00000000000E+00  0.00000000000E+00  0.23014558396E+02  0.23014558396E+02  0.00000000000E+00 0.  1.
          2   -1    0    0  501    0  0.00000000000E+00 -0.00000000000E+00 -0.73779874992E+03  0.73779874992E+03  0.00000000000E+00 0. -1.
         23    2    1    2    0    0  0.43629905544E+02  0.42274820048E+02 -0.52051865158E+03  0.53875406060E+03  0.12500216837E+03 0.  0.
          5    1    3    3  502    0  0.39585326698E+02  0.78986119457E+02 -0.24025108907E+03  0.25602437571E+03  0.47000000000E+01 0.  1.
         -5    1    3    3    0  502  0.40445788462E+01 -0.36711299409E+02 -0.28026756251E+03  0.28272968489E+03  0.47000000000E+01 0.  1.
        -11    1    1    2    0    0 -0.56857584218E+02 -0.54992313916E+02 -0.18562711933E+03  0.20177801393E+03  0.00000000000E+00 0. -1.
         11    1    1    2    0    0  0.13227678674E+02  0.12717493869E+02 -0.86384206071E+01  0.20281233789E+02  0.00000000000E+00 0.  1.
<mgrwt>
<rscale>  0 0.13035977E+03</rscale>
<asrwt>0</asrwt>
<pdfrwt beam="2">  1        2 0.11350750E+00 0.13898299E+03</pdfrwt>
<pdfrwt beam="1">  1       -2 0.35407013E-02 0.13898299E+03</pdfrwt>
<totfact> 0.12418019E+04</totfact>
</mgrwt>
</event>
<event>
 7    1  0.5206756E-006  0.1214710E+03  0.7546771E-02  0.1253479E+00
          1   -1    0    0  501    0  0.00000000000E+00  0.00000000000E+00  0.10612168026E+03  0.10612168026E+03  0.00000000000E+00 0. -1.
         -1   -1    0    0    0  501 -0.00000000000E+00 -0.00000000000E+00 -0.11844987755E+03  0.11844987755E+03  0.00000000000E+00 0.  1.
         23    2    1    2    0    0  0.23467752043E+02  0.10110334052E+01  0.24013238764E+02  0.12382184388E+03  0.11917825225E+03 0.  0.
          5    1    3    3  502    0  0.66365141889E+02  0.24637830305E+02  0.23107134014E+02  0.74614907240E+02  0.47000000000E+01 0. -1.
         -5    1    3    3    0  502 -0.42897389845E+02 -0.23626796900E+02  0.90610474966E+00  0.49206936636E+02  0.47000000000E+01 0.  1.
        -11    1    1    2    0    0  0.26950539647E+02  0.16783166465E+02  0.62920482272E+01  0.32366589792E+02  0.00000000000E+00 0. -1.
         11    1    1    2    0    0 -0.50418291690E+02 -0.17794199871E+02 -0.42633484285E+02  0.68383124148E+02  0.00000000000E+00 0.  1.
<mgrwt>
<rscale>  0 0.11391960E+03</rscale>
<asrwt>0</asrwt>
<pdfrwt beam="1">  1        1 0.16326412E-01 0.12147104E+03</pdfrwt>
<pdfrwt beam="2">  1       -1 0.18223058E-01 0.12147104E+03</pdfrwt>
<totfact> 0.73383032E+03</totfact>
</mgrwt>
</event>
<event>
 7    1  0.5206756E-006  0.1699760E+03  0.7546771E-02  0.1184793E+00
          2   -1    0    0  501    0  0.00000000000E+00  0.00000000000E+00  0.34813377770E+03  0.34813377770E+03  0.00000000000E+00 0. -1.
         -2   -1    0    0    0  501 -0.00000000000E+00 -0.00000000000E+00 -0.84895002469E+02  0.84895002469E+02  0.00000000000E+00 0.  1.
         23    2    1    2    0    0 -0.11476051146E+03  0.98728891328E+01  0.22602186107E+03  0.28280334211E+03  0.12499759874E+03 0.  0.
          5    1    3    3  502    0 -0.15015441656E+02  0.17982767283E+02 -0.10378165706E+02  0.26050714591E+02  0.47000000000E+01 0.  1.
         -5    1    3    3    0  502 -0.99745069809E+02 -0.81098781503E+01  0.23640002678E+03  0.25675262752E+03  0.47000000000E+01 0.  1.
        -11    1    1    2    0    0  0.88282440205E+02 -0.22229856697E+02  0.63441807654E+02  0.11096314134E+03  0.00000000000E+00 0.  1.
         11    1    1    2    0    0  0.26478071260E+02  0.12356967565E+02 -0.26224893498E+02  0.39262296724E+02  0.00000000000E+00 0. -1.
<mgrwt>
<rscale>  0 0.16350766E+03</rscale>
<asrwt>0</asrwt>
<pdfrwt beam="1">  1        2 0.53559042E-01 0.16997602E+03</pdfrwt>
<pdfrwt beam="2">  1       -2 0.13060770E-01 0.16997602E+03</pdfrwt>
<totfact> 0.39032010E+03</totfact>
</mgrwt>
</event>
<event>
 6    1  0.5206756E-006  0.2170439E+03  0.7546771E-02  0.1170851E+00
          1   -1    0    0  501    0  0.00000000000E+00  0.00000000000E+00  0.18218672436E+03  0.18218672436E+03  0.00000000000E+00 0. -1.
         -1   -1    0    0    0  501 -0.00000000000E+00 -0.00000000000E+00 -0.18743790829E+03  0.18743790829E+03  0.00000000000E+00 0.  1.
          5    1    1    2  502    0  0.35779206524E+02  0.10939908497E+03  0.91689004507E+02  0.14723204461E+03  0.47000000000E+01 0. -1.
         -5    1    1    2    0  502  0.16345106717E+02 -0.85900651494E+02 -0.20544062876E+01  0.87592208706E+02  0.47000000000E+01 0.  1.
        -11    1    1    2    0    0 -0.40498216800E+02  0.66317430154E+01 -0.76050861492E+01  0.41736350041E+02  0.00000000000E+00 0. -1.
         11    1    1    2    0    0 -0.11626096441E+02 -0.30130176492E+02 -0.87280696002E+02  0.93064029294E+02  0.00000000000E+00 0.  1.
<mgrwt>
<rscale>  0 0.17688624E+03</rscale>
<asrwt>0</asrwt>
<pdfrwt beam="1">  1        1 0.28028727E-01 0.21704393E+03</pdfrwt>
<pdfrwt beam="2">  1       -1 0.28836601E-01 0.21704393E+03</pdfrwt>
<totfact> 0.17924653E+03</totfact>
</mgrwt>
</event>
<event>
 7    1  0.5206756E-006  0.1392845E+03  0.7546771E-02  0.1224655E+00
         -4   -1    0    0    0  501 -0.00000000000E+00  0.00000000000E+00  0.69835111552E+02  0.69835111552E+02  0.00000000000E+00 0.  1.
          4   -1    0    0  501    0  0.00000000000E+00 -0.00000000000E+00 -0.25421911735E+03  0.25421911735E+03  0.00000000000E+00 0. -1.
         23    2    1    2    0    0 -0.29938910473E+02  0.53663185731E+02 -0.15468096339E+03  0.20814984618E+03  0.12499632861E+03 0.  0.
          5    1    3    3  502    0 -0.28936297100E+02 -0.33939652242E+02 -0.24326188546E+02  0.51020218868E+02  0.47000000000E+01 0. -1.
         -5    1    3    3    0  502 -0.10026133730E+01  0.87602837973E+02 -0.13035477485E+03  0.15712962732E+03  0.47000000000E+01 0. -1.
        -11    1    1    2    0    0  0.21741376580E+02  0.22127465268E+02 -0.24436613189E+02  0.39490001759E+02  0.00000000000E+00 0. -1.
         11    1    1    2    0    0  0.81975338927E+01 -0.75790650999E+02 -0.52664292145E+01  0.76414380960E+02  0.00000000000E+00 0.  1.
<mgrwt>
<rscale>  0 0.13190588E+03</rscale>
<asrwt>0</asrwt>
<pdfrwt beam="2">  1        4 0.39110634E-01 0.13928445E+03</pdfrwt>
<pdfrwt beam="1">  1       -4 0.10743863E-01 0.13928445E+03</pdfrwt>
<totfact> 0.71057792E+02</totfact>
</mgrwt>
</event>
<event>
 7    1  0.5206756E-006  0.1402217E+03  0.7546771E-02  0.1223748E+00
          1   -1    0    0  501    0  0.00000000000E+00  0.00000000000E+00  0.67345387204E+03  0.67345387204E+03  0.00000000000E+00 0. -1.
         -1   -1    0    0    0  501 -0.00000000000E+00 -0.00000000000E+00 -0.23601691922E+02  0.23601691922E+02  0.00000000000E+00 0.  1.
         23    2    1    2    0    0  0.54226123419E+02 -0.33107383387E+02  0.36651739481E+03  0.39242467218E+03  0.12500220537E+03 0.  0.
          5    1    3    3  502    0  0.42537787709E+02 -0.21173000700E+02  0.37135313566E+03  0.37441020379E+03  0.47000000000E+01 0.  1.
         -5    1    3    3    0  502  0.11688335710E+02 -0.11934382686E+02 -0.48357408512E+01  0.18014468390E+02  0.47000000000E+01 0.  1.
        -11    1    1    2    0    0  0.13009990432E+02  0.42099689998E+02  0.11178151598E+03  0.12015303185E+03  0.00000000000E+00 0. -1.
         11    1    1    2    0    0 -0.67236113851E+02 -0.89923066117E+01  0.17155326933E+03  0.18447785992E+03  0.00000000000E+00 0.  1.
<mgrwt>
<rscale>  0 0.13253114E+03</rscale>
<asrwt>0</asrwt>
<pdfrwt beam="1">  1        1 0.10360827E+00 0.14022169E+03</pdfrwt>
<pdfrwt beam="2">  1       -1 0.36310300E-02 0.14022169E+03</pdfrwt>
<totfact> 0.81567160E+03</totfact>
</mgrwt>
</event>
<event>
 7    1  0.5206756E-006  0.1446014E+03  0.7546771E-02  0.1217184E+00
         -1   -1    0    0    0  501 -0.00000000000E+00  0.00000000000E+00  0.65564504986E+02  0.65564504986E+02  0.00000000000E+00 0.  1.
          1   -1    0    0  501    0  0.00000000000E+00 -0.00000000000E+00 -0.26147620254E+03  0.26147620254E+03  0.00000000000E+00 0. -1.
         23    2    1    2    0    0  0.40926206306E+02  0.60085502566E+02 -0.10245926528E+03  0.17722148903E+03  0.12499733258E+03 0.  0.
          5    1    3    3  502    0  0.29728279006E+02 -0.15940236892E+02  0.14647076286E+02  0.37074095654E+02  0.47000000000E+01 0.  1.
         -5    1    3    3    0  502  0.11197927300E+02  0.76025739458E+02 -0.11710634156E+03  0.14014739338E+03  0.47000000000E+01 0.  1.
        -11    1    1    2    0    0 -0.47287428740E+02 -0.48459400912E+02 -0.10966274686E+03  0.12888107891E+03  0.00000000000E+00 0. -1.
         11    1    1    2    0    0  0.63612224343E+01 -0.11626101654E+02  0.16210314578E+02  0.20938139584E+02  0.00000000000E+00 0.  1.
<mgrwt>
<rscale>  0 0.13717300E+03</rscale>
<asrwt>0</asrwt>
<pdfrwt beam="2">  1        1 0.40227109E-01 0.14460137E+03</pdfrwt>
<pdfrwt beam="1">  1       -1 0.10086847E-01 0.14460137E+03</pdfrwt>
<totfact> 0.60106979E+03</totfact>
</mgrwt>
</event>
<event>
 7    1  0.5206756E-006  0.3864547E+03  0.7546771E-02  0.1049448E+00
         -2   -1    0    0    0  501 -0.00000000000E+00  0.00000000000E+00  0.59132769591E+03  0.59132769591E+03  0.00000000000E+00 0.  1.
          2   -1    0    0  501    0  0.00000000000E+00 -0.00000000000E+00 -0.47765162409E+03  0.47765162409E+03  0.00000000000E+00 0. -1.
         23    2    1    2    0    0  0.77101651270E+02 -0.35746643385E+03 -0.31471034376E+03  0.49838726646E+03  0.12498140237E+03 0.  0.
          5    1    3    3  502    0 -0.33215593905E+02 -0.10043902941E+03 -0.72224024217E+02  0.12817828982E+03  0.47000000000E+01 0.  1.
         -5    1    3    3    0  502  0.11031724517E+03 -0.25702740444E+03 -0.24248631955E+03  0.37020897664E+03  0.47000000000E+01 0.  1.
        -11    1    1    2    0    0 -0.93635934807E+02  0.33278679513E+03  0.40689203045E+03  0.53392496078E+03  0.00000000000E+00 0.  1.
         11    1    1    2    0    0  0.16534283537E+02  0.24679638725E+02  0.21494385137E+02  0.36667092768E+02  0.00000000000E+00 0. -1.
<mgrwt>
<rscale>  0 0.38404587E+03</rscale>
<asrwt>0</asrwt>
<pdfrwt beam="2">  1        2 0.73484866E-01 0.38645474E+03</pdfrwt>
<pdfrwt beam="1">  1       -2 0.90973491E-01 0.38645474E+03</pdfrwt>
<totfact> 0.69696376E+01</totfact>
</mgrwt>
</event>
<event>
 7    1  0.5206756E-006  0.1408264E+03  0.7546771E-02  0.1221987E+00
          2   -1    0    0  501    0  0.00000000000E+00  0.00000000000E+00  0.18030188407E+04  0.18030188407E+04  0.00000000000E+00 0. -1.
         -2   -1    0    0    0  501 -0.00000000000E+00 -0.00000000000E+00 -0.27812385520E+02  0.27812385520E+02  0.00000000000E+00 0.  1.
         23    2    1    2    0    0  0.26621858791E+02 -0.59163068522E+02  0.16678910507E+04  0.16738257479E+04  0.12499233984E+03 0.  0.
          5    1    3    3  502    0 -0.17463551366E+02  0.29755592895E+02  0.69564168260E+03  0.69651260685E+03  0.47000000000E+01 0.  1.
         -5    1    3    3    0  502  0.44085410157E+02 -0.88918661417E+02  0.97224936814E+03  0.97731314100E+03  0.47000000000E+01 0.  1.
        -11    1    1    2    0    0 -0.58700605065E+02  0.46989683004E+02  0.50308312347E+02  0.90469429284E+02  0.00000000000E+00 0.  1.
         11    1    1    2    0    0  0.32078746274E+02  0.12173385518E+02  0.57007092090E+02  0.66536049071E+02  0.00000000000E+00 0. -1.
<mgrwt>
<rscale>  0 0.13375598E+03</rscale>
<asrwt>0</asrwt>
<pdfrwt beam="1">  1        2 0.27738742E+00 0.14082641E+03</pdfrwt>
<pdfrwt beam="2">  1       -2 0.42788300E-02 0.14082641E+03</pdfrwt>
<totfact> 0.23486021E+03</totfact>
</mgrwt>
</event>
<event>
 7    1  0.5206756E-006  0.1253032E+03  0.7546771E-02  0.1250338E+00
         -3   -1    0    0    0  501 -0.00000000000E+00  0.00000000000E+00  0.37223821790E+03  0.37223821790E+03  0.00000000000E+00 0.  1.
          3   -1    0    0  501    0  0.00000000000E+00 -0.00000000000E+00 -0.32889801360E+02  0.32889801360E+02  0.00000000000E+00 0. -1.
         23    2    1    2    0    0  0.14153515815E+01 -0.86044796451E+01  0.15358950880E+03  0.19821865137E+03  0.12499942499E+03 0.  0.
          5    1    3    3  502    0  0.16480275098E+02 -0.64745643199E+02  0.83407424956E+02  0.10696955790E+03  0.47000000000E+01 0.  1.
         -5    1    3    3    0  502 -0.15064923516E+02  0.56141163554E+02  0.70182083847E+02  0.91249093469E+02  0.47000000000E+01 0.  1.
        -11    1    1    2    0    0  0.25340268781E+01 -0.27980053080E+02  0.15886956116E+03  0.16133456581E+03  0.00000000000E+00 0.  1.
         11    1    1    2    0    0 -0.39493784596E+01  0.36584532725E+02  0.26889346580E+02  0.45574802078E+02  0.00000000000E+00 0. -1.
<mgrwt>
<rscale>  0 0.11571506E+03</rscale>
<asrwt>0</asrwt>
<pdfrwt beam="2">  1        3 0.50599697E-02 0.12530322E+03</pdfrwt>
<pdfrwt beam="1">  1       -3 0.57267415E-01 0.12530322E+03</pdfrwt>
<totfact> 0.15371184E+03</totfact>
</mgrwt>
</event>
<event>
 7    1  0.5206756E-006  0.1385543E+03  0.7546771E-02  0.1226762E+00
         -3   -1    0    0    0  501 -0.00000000000E+00  0.00000000000E+00  0.22015434407E+02  0.22015434407E+02  0.00000000000E+00 0. -1.
          3   -1    0    0  501    0  0.00000000000E+00 -0.00000000000E+00 -0.77949127014E+03  0.77949127014E+03  0.00000000000E+00 0.  1.
         23    2    1    2    0    0 -0.40632378066E+02 -0.43832905408E+02 -0.54985777703E+03  0.56704574679E+03  0.12499996098E+03 0.  0.
          5    1    3    3  502    0 -0.23696229544E+02 -0.16437147565E+02 -0.52569948240E+03  0.52651089914E+03  0.47000000000E+01 0. -1.
         -5    1    3    3    0  502 -0.16936148522E+02 -0.27395757842E+02 -0.24158294626E+02  0.40534847647E+02  0.47000000000E+01 0. -1.
        -11    1    1    2    0    0  0.46366858734E+02  0.53732976114E+02 -0.21093006751E+03  0.22255024532E+03  0.00000000000E+00 0.  1.
         11    1    1    2    0    0 -0.57344806680E+01 -0.99000707068E+01  0.33120088069E+01  0.11910712442E+02  0.00000000000E+00 0. -1.
<mgrwt>
<rscale>  0 0.13046868E+03</rscale>
<asrwt>0</asrwt>
<pdfrwt beam="2">  1        3 0.11992172E+00 0.13855434E+03</pdfrwt>
<pdfrwt beam="1">  1       -3 0.33869903E-02 0.13855434E+03</pdfrwt>
<totfact> 0.58258599E+02</totfact>
</mgrwt>
</event>
<event>
 7    1  0.5206756E-006  0.1354499E+03  0.7546771E-02  0.1231842E+00
          2   -1    0    0  501    0  0.00000000000E+00  0.00000000000E+00  0.69856957044E+03  0.69856957044E+03  0.00000000000E+00 0. -1.
         -2   -1    0    0    0  501 -0.00000000000E+00 -0.00000000000E+00 -0.25503124452E+02  0.25503124452E+02  0.00000000000E+00 0.  1.
         23    2    1    2    0    0  0.46813628977E+02 -0.23031731707E+02  0.52744907039E+03  0.54456331883E+03  0.12499883933E+03 0.  0.
          5    1    3    3  502    0  0.74805035526E+02 -0.54032891451E+02  0.39200830927E+03  0.40275048260E+03  0.47000000000E+01 0.  1.
         -5    1    3    3    0  502 -0.27991406549E+02  0.31001159744E+02  0.13544076112E+03  0.14181283623E+03  0.47000000000E+01 0.  1.
        -11    1    1    2    0    0  0.20276878129E+02  0.23759670657E+02  0.79040900498E+02  0.84989044517E+02  0.00000000000E+00 0. -1.
         11    1    1    2    0    0 -0.67090507106E+02 -0.72793894944E+00  0.66576475100E+02  0.94520331546E+02  0.00000000000E+00 0.  1.
<mgrwt>
<rscale>  0 0.12708750E+03</rscale>
<asrwt>0</asrwt>
<pdfrwt beam="1">  1        2 0.10747223E+00 0.13544994E+03</pdfrwt>
<pdfrwt beam="2">  1       -2 0.39235582E-02 0.13544994E+03</pdfrwt>
<totfact> 0.11366803E+04</totfact>
</mgrwt>
</event>
<event>
 7    1  0.5206756E-006  0.2218333E+03  0.7546771E-02  0.1136021E+00
         -2   -1    0    0    0  501 -0.00000000000E+00  0.00000000000E+00  0.89839319868E+02  0.89839319868E+02  0.00000000000E+00 0.  1.
          2   -1    0    0  501    0  0.00000000000E+00 -0.00000000000E+00 -0.50391707228E+03  0.50391707228E+03  0.00000000000E+00 0. -1.
         23    2    1    2    0    0  0.76332045961E+02  0.16660411748E+03 -0.21642782517E+03  0.30992101126E+03  0.12500606591E+03 0.  0.
          5    1    3    3  502    0  0.44238896948E+00  0.10139097394E+03 -0.44255672487E+02  0.11072930891E+03  0.47000000000E+01 0.  1.
         -5    1    3    3    0  502  0.75889656991E+02  0.65213143545E+02 -0.17217215268E+03  0.19919170236E+03  0.47000000000E+01 0.  1.
        -11    1    1    2    0    0 -0.35448042571E+02 -0.10896926544E+02 -0.66700025272E+02  0.76316447124E+02  0.00000000000E+00 0. -1.
         11    1    1    2    0    0 -0.40884003389E+02 -0.15570719094E+03 -0.13094990197E+03  0.20751893376E+03  0.00000000000E+00 0.  1.
<mgrwt>
<rscale>  0 0.21715620E+03</rscale>
<asrwt>0</asrwt>
<pdfrwt beam="2">  1        2 0.77525701E-01 0.22183334E+03</pdfrwt>
<pdfrwt beam="1">  1       -2 0.13821434E-01 0.22183334E+03</pdfrwt>
<totfact> 0.24016200E+03</totfact>
</mgrwt>
</event>
<event>
 7    1  0.5206756E-006  0.1300098E+03  0.7546771E-02  0.1272210E+00
         -2   -1    0    0    0  501 -0.00000000000E+00  0.00000000000E+00  0.80758055241E+02  0.80758055241E+02  0.00000000000E+00 0.  1.
          2   -1    0    0  501    0  0.00000000000E+00 -0.00000000000E+00 -0.11273382791E+03  0.11273382791E+03  0.00000000000E+00 0. -1.
         23    2    1    2    0    0 -0.34668945386E+00 -0.35740580524E+02 -0.47061201244E+02  0.13826532267E+03  0.12500013400E+03 0.  0.
          5    1    3    3  502    0 -0.22627946350E+01  0.46313808846E+02 -0.81628698470E+01  0.47316081552E+02  0.47000000000E+01 0.  1.
         -5    1    3    3    0  502  0.19161051811E+01 -0.82054389369E+02 -0.38898331397E+02  0.90949241115E+02  0.47000000000E+01 0.  1.
        -11    1    1    2    0    0  0.16584703384E+02  0.53426904349E+01 -0.43598849028E+00  0.17429481156E+02  0.00000000000E+00 0.  1.
         11    1    1    2    0    0 -0.16238013930E+02  0.30397890089E+02  0.15521417064E+02  0.37797079330E+02  0.00000000000E+00 0. -1.
<mgrwt>
<rscale>  0 0.10394639E+03</rscale>
<asrwt>0</asrwt>
<pdfrwt beam="2">  1        2 0.17343666E-01 0.13000978E+03</pdfrwt>
<pdfrwt beam="1">  1       -2 0.12424316E-01 0.13000978E+03</pdfrwt>
<totfact> 0.14243940E+04</totfact>
</mgrwt>
</event>
<event>
 7    1  0.5206756E-006  0.1731168E+03  0.7546771E-02  0.1180966E+00
         -1   -1    0    0    0  501 -0.00000000000E+00  0.00000000000E+00  0.23483542466E+03  0.23483542466E+03  0.00000000000E+00 0.  1.
          1   -1    0    0  501    0  0.00000000000E+00 -0.00000000000E+00 -0.11957059705E+03  0.11957059705E+03  0.00000000000E+00 0. -1.
         23    2    1    2    0    0  0.11486930964E+03  0.34032478094E+02  0.14672382376E+02  0.17373741132E+03  0.12496496080E+03 0.  0.
          5    1    3    3  502    0  0.76385655157E+02  0.80870738191E+02  0.18262627092E+02  0.11282933199E+03  0.47000000000E+01 0. -1.
         -5    1    3    3    0  502  0.38483654478E+02 -0.46838260097E+02 -0.35902447167E+01  0.60908079333E+02  0.47000000000E+01 0. -1.
        -11    1    1    2    0    0 -0.23160306326E+00  0.21861264416E+02  0.89670423604E+01  0.23629988796E+02  0.00000000000E+00 0.  1.
         11    1    1    2    0    0 -0.11463770657E+03 -0.55893742509E+02  0.91625402868E+02  0.15703862159E+03  0.00000000000E+00 0. -1.
<mgrwt>
<rscale>  0 0.16704402E+03</rscale>
<asrwt>0</asrwt>
<pdfrwt beam="2">  1        1 0.18395477E-01 0.17311675E+03</pdfrwt>
<pdfrwt beam="1">  1       -1 0.36128527E-01 0.17311675E+03</pdfrwt>
<totfact> 0.20700181E+03</totfact>
</mgrwt>
</event>
<event>
 7    1  0.5206756E-006  0.2040225E+03  0.7546771E-02  0.1150665E+00
          1   -1    0    0  501    0  0.00000000000E+00  0.00000000000E+00  0.64710341422E+03  0.64710341422E+03  0.00000000000E+00 0. -1.
         -1   -1    0    0    0  501 -0.00000000000E+00 -0.00000000000E+00 -0.21350060057E+03  0.21350060057E+03  0.00000000000E+00 0.  1.
         23    2    1    2    0    0  0.10408800827E+03 -0.12315044426E+03  0.58659673427E+03  0.62106433568E+03  0.12499934005E+03 0.  0.
          5    1    3    3  502    0 -0.56951565860E+01  0.20753380077E+02  0.84321932013E+02  0.87151682781E+02  0.47000000000E+01 0.  1.
         -5    1    3    3    0  502  0.10978316486E+03 -0.14390382434E+03  0.50227480226E+03  0.53391265290E+03  0.47000000000E+01 0.  1.
        -11    1    1    2    0    0 -0.87980726982E+02  0.10729278967E+03 -0.16364651261E+03  0.21455193340E+03  0.00000000000E+00 0.  1.
         11    1    1    2    0    0 -0.16107281288E+02  0.15857654587E+02  0.10652591994E+02  0.24987745710E+02  0.00000000000E+00 0. -1.
<mgrwt>
<rscale>  0 0.19890645E+03</rscale>
<asrwt>0</asrwt>
<pdfrwt beam="1">  1        1 0.99554370E-01 0.20402250E+03</pdfrwt>
<pdfrwt beam="2">  1       -1 0.32846247E-01 0.20402250E+03</pdfrwt>
<totfact> 0.28079083E+02</totfact>
</mgrwt>
</event>
<event>
 7    1  0.5206756E-006  0.1359105E+03  0.7546771E-02  0.1232436E+00
         -1   -1    0    0    0  501 -0.00000000000E+00  0.00000000000E+00  0.17146435994E+03  0.17146435994E+03  0.00000000000E+00 0.  1.
          1   -1    0    0  501    0  0.00000000000E+00 -0.00000000000E+00 -0.93865419515E+02  0.93865419515E+02  0.00000000000E+00 0. -1.
         23    2    1    2    0    0 -0.42542792888E+01  0.53197824122E+02 -0.12133438436E+01  0.13591596246E+03  0.12499427693E+03 0.  0.
          5    1    3    3  502    0 -0.31507209546E+02  0.33743548922E+01  0.49945968855E+02  0.59336163755E+02  0.47000000000E+01 0. -1.
         -5    1    3    3    0  502  0.27252930257E+02  0.49823469229E+02 -0.51159312699E+02  0.76579798704E+02  0.47000000000E+01 0. -1.
        -11    1    1    2    0    0 -0.76214164669E+01 -0.76293374739E+02  0.59409819762E+02  0.96996348912E+02  0.00000000000E+00 0.  1.
         11    1    1    2    0    0  0.11875695756E+02  0.23095550618E+02  0.19402464506E+02  0.32417468083E+02  0.00000000000E+00 0. -1.
<mgrwt>
<rscale>  0 0.12670018E+03</rscale>
<asrwt>0</asrwt>
<pdfrwt beam="2">  1        1 0.14440834E-01 0.13591055E+03</pdfrwt>
<pdfrwt beam="1">  1       -1 0.26379132E-01 0.13591055E+03</pdfrwt>
<totfact> 0.47620232E+03</totfact>
</mgrwt>
</event>
<event>
 7    1  0.5206756E-006  0.1460383E+03  0.7546771E-02  0.1215363E+00
         -2   -1    0    0    0  501 -0.00000000000E+00  0.00000000000E+00  0.27784094632E+02  0.27784094632E+02  0.00000000000E+00 0. -1.
          2   -1    0    0  501    0  0.00000000000E+00 -0.00000000000E+00 -0.62796613744E+03  0.62796613744E+03  0.00000000000E+00 0.  1.
         23    2    1    2    0    0 -0.69611167440E+02 -0.29277879133E+02 -0.33332017539E+03  0.36390867237E+03  0.12499709463E+03 0.  0.
          5    1    3    3  502    0 -0.96086769034E+02  0.11374332090E+01 -0.28498432070E+03  0.30078582743E+03  0.47000000000E+01 0. -1.
         -5    1    3    3    0  502  0.26475601594E+02 -0.30415312342E+02 -0.48335854687E+02  0.63122844937E+02  0.47000000000E+01 0. -1.
        -11    1    1    2    0    0  0.31935586114E+02 -0.27713014246E+02 -0.15591825622E+03  0.16154997816E+03  0.00000000000E+00 0.  1.
         11    1    1    2    0    0  0.37675581326E+02  0.56990893379E+02 -0.11094361120E+03  0.13029158155E+03  0.00000000000E+00 0. -1.
<mgrwt>
<rscale>  0 0.13849883E+03</rscale>
<asrwt>0</asrwt>
<pdfrwt beam="2">  1        2 0.96610175E-01 0.14603829E+03</pdfrwt>
<pdfrwt beam="1">  1       -2 0.42744761E-02 0.14603829E+03</pdfrwt>
<totfact> 0.11390473E+04</totfact>
</mgrwt>
</event>
<event>
 6    1  0.5206756E-006  0.1720183E+03  0.7546771E-02  0.1183128E+00
          1   -1    0    0  501    0  0.00000000000E+00  0.00000000000E+00  0.70614811642E+03  0.70614811642E+03  0.00000000000E+00 0. -1.
         -1   -1    0    0    0  501 -0.00000000000E+00 -0.00000000000E+00 -0.38317064302E+02  0.38317064302E+02  0.00000000000E+00 0.  1.
          5    1    1    2  502    0  0.14499596602E+02  0.32881656365E+02  0.28503746674E+03  0.28733236690E+03  0.47000000000E+01 0. -1.
         -5    1    1    2    0  502  0.10027773736E+03 -0.26477310454E+02  0.17075317539E+03  0.19983845847E+03  0.47000000000E+01 0. -1.
        -11    1    1    2    0    0  0.10785855208E+02  0.14048572496E+02  0.35720942315E+02  0.39870826197E+02  0.00000000000E+00 0. -1.
         11    1    1    2    0    0 -0.12556318917E+03 -0.20452918407E+02  0.17631946768E+03  0.21742352915E+03  0.00000000000E+00 0.  1.
<mgrwt>
<rscale>  0 0.16503400E+03</rscale>
<asrwt>0</asrwt>
<pdfrwt beam="1">  1        1 0.10863816E+00 0.17201832E+03</pdfrwt>
<pdfrwt beam="2">  1       -1 0.58949335E-02 0.17201832E+03</pdfrwt>
<totfact> 0.37553389E+03</totfact>
</mgrwt>
</event>
<event>
 7    1  0.5206756E-006  0.1348102E+03  0.7546771E-02  0.1231730E+00
          2   -1    0    0  501    0  0.00000000000E+00  0.00000000000E+00  0.34354843153E+03  0.34354843153E+03  0.00000000000E+00 0.  1.
         -2   -1    0    0    0  501 -0.00000000000E+00 -0.00000000000E+00 -0.63588920981E+02  0.63588920981E+02  0.00000000000E+00 0. -1.
         23    2    1    2    0    0 -0.56468413647E+01  0.50169567631E+02  0.26768200235E+03  0.29971225792E+03  0.12499964333E+03 0.  0.
          5    1    3    3  502    0  0.73169860056E+01 -0.12905571785E+02  0.21719426170E+03  0.21775107206E+03  0.47000000000E+01 0. -1.
         -5    1    3    3    0  502 -0.12963827370E+02  0.63075139416E+02  0.50487740650E+02  0.81961185865E+02  0.47000000000E+01 0. -1.
        -11    1    1    2    0    0  0.48172151669E+02 -0.18937196169E+02  0.16927231269E+02  0.54458284527E+02  0.00000000000E+00 0.  1.
         11    1    1    2    0    0 -0.42525310304E+02 -0.31232371462E+02 -0.46497230675E+01  0.52966810063E+02  0.00000000000E+00 0. -1.
<mgrwt>
<rscale>  0 0.12716122E+03</rscale>
<asrwt>0</asrwt>
<pdfrwt beam="1">  1        2 0.52853604E-01 0.13481017E+03</pdfrwt>
<pdfrwt beam="2">  1       -2 0.97829111E-02 0.13481017E+03</pdfrwt>
<totfact> 0.61952402E+03</totfact>
</mgrwt>
</event>
<event>
 7    1  0.5326732E-006  0.1863194E+03  0.7546771E-02  0.1167337E+00
          2   -1    0    0  501    0  0.00000000000E+00  0.00000000000E+00  0.98941967929E+03  0.98941967929E+03  0.00000000000E+00 0. -1.
         -2   -1    0    0    0  501 -0.00000000000E+00 -0.00000000000E+00 -0.32010202702E+02  0.32010202702E+02  0.00000000000E+00 0.  1.
         23    2    1    2    0    0  0.67284281756E+02  0.12067445159E+03  0.59796074191E+03  0.62631617366E+03  0.12500161073E+03 0.  0.
          5    1    3    3  502    0 -0.19810581437E+02 -0.12712365974E+02  0.47092307687E+02  0.52856776565E+02  0.47000000000E+01 0. -1.
         -5    1    3    3    0  502  0.87094863193E+02  0.13338681757E+03  0.55086843422E+03  0.57345939709E+03  0.47000000000E+01 0. -1.
        -11    1    1    2    0    0 -0.56809477417E+00 -0.54880739569E+02  0.59853982056E+02  0.81207865846E+02  0.00000000000E+00 0.  1.
         11    1    1    2    0    0 -0.66716186982E+02 -0.65793712024E+02  0.29959475263E+03  0.31390584249E+03  0.00000000000E+00 0. -1.
<mgrwt>
<rscale>  0 0.18048271E+03</rscale>
<asrwt>0</asrwt>
<pdfrwt beam="1">  1        2 0.15221839E+00 0.18631935E+03</pdfrwt>
<pdfrwt beam="2">  1       -2 0.49246473E-02 0.18631935E+03</pdfrwt>
<totfact> 0.52689633E+03</totfact>
</mgrwt>
</event>
<event>
 7    1  0.5206756E-006  0.1365360E+03  0.7546771E-02  0.1228114E+00
         -1   -1    0    0    0  501 -0.00000000000E+00  0.00000000000E+00  0.33402360214E+02  0.33402360214E+02  0.00000000000E+00 0.  1.
          1   -1    0    0  501    0  0.00000000000E+00 -0.00000000000E+00 -0.46026145625E+03  0.46026145625E+03  0.00000000000E+00 0. -1.
         23    2    1    2    0    0 -0.17331258129E+01 -0.54898153475E+02 -0.25476882443E+03  0.28904883648E+03  0.12500105995E+03 0.  0.
          5    1    3    3  502    0 -0.57098093952E+02 -0.30963915763E+02 -0.18793791198E+03  0.19890124478E+03  0.47000000000E+01 0.  1.
         -5    1    3    3    0  502  0.55364968140E+02 -0.23934237712E+02 -0.66830912447E+02  0.90147591706E+02  0.47000000000E+01 0.  1.
        -11    1    1    2    0    0 -0.15248675391E+02  0.76407640256E+02 -0.95392207819E+02  0.12316786473E+03  0.00000000000E+00 0.  1.
         11    1    1    2    0    0  0.16981801204E+02 -0.21509486781E+02 -0.76698063783E+02  0.81447115245E+02  0.00000000000E+00 0. -1.
<mgrwt>
<rscale>  0 0.12955740E+03</rscale>
<asrwt>0</asrwt>
<pdfrwt beam="2">  1        1 0.70809446E-01 0.13653599E+03</pdfrwt>
<pdfrwt beam="1">  1       -1 0.51388253E-02 0.13653599E+03</pdfrwt>
<totfact> 0.81319228E+03</totfact>
</mgrwt>
</event>
<event>
 7    1  0.5206756E-006  0.1407953E+03  0.7546771E-02  0.1223272E+00
         -2   -1    0    0    0  501 -0.00000000000E+00  0.00000000000E+00  0.49868777776E+02  0.49868777776E+02  0.00000000000E+00 0.  1.
          2   -1    0    0  501    0  0.00000000000E+00 -0.00000000000E+00 -0.35587230451E+03  0.35587230451E+03  0.00000000000E+00 0. -1.
         23    2    1    2    0    0  0.48170907546E+02  0.43344554271E+02 -0.23337207332E+03  0.27255427868E+03  0.12499649395E+03 0.  0.
          5    1    3    3  502    0  0.84563795635E+02  0.14748060922E+02 -0.19171381978E+03  0.21010668606E+03  0.47000000000E+01 0.  1.
         -5    1    3    3    0  502 -0.36392888088E+02  0.28596493349E+02 -0.41658253546E+02  0.62447592618E+02  0.47000000000E+01 0.  1.
        -11    1    1    2    0    0 -0.32829307598E+02  0.25035372971E+02 -0.22468976901E+02  0.47004130246E+02  0.00000000000E+00 0.  1.
         11    1    1    2    0    0 -0.15341599948E+02 -0.68379927242E+02 -0.50162476511E+02  0.86182673365E+02  0.00000000000E+00 0. -1.
<mgrwt>
<rscale>  0 0.13286042E+03</rscale>
<asrwt>0</asrwt>
<pdfrwt beam="2">  1        2 0.54749585E-01 0.14079528E+03</pdfrwt>
<pdfrwt beam="1">  1       -2 0.76721197E-02 0.14079528E+03</pdfrwt>
<totfact> 0.87305669E+03</totfact>
</mgrwt>
</event>
<event>
 7    1  0.5206756E-006  0.1366004E+03  0.7546771E-02  0.1229689E+00
          2   -1    0    0  501    0  0.00000000000E+00  0.00000000000E+00  0.76423263474E+03  0.76423263474E+03  0.00000000000E+00 0. -1.
         -2   -1    0    0    0  501 -0.00000000000E+00 -0.00000000000E+00 -0.32464486986E+02  0.32464486986E+02  0.00000000000E+00 0.  1.
         23    2    1    2    0    0 -0.21920207387E+02 -0.50554115425E+02  0.64395832839E+03  0.65828717316E+03  0.12499383810E+03 0.  0.
          5    1    3    3  502    0 -0.47779520284E+02 -0.85559939746E+01  0.92142855969E+02  0.10425201915E+03  0.47000000000E+01 0. -1.
         -5    1    3    3    0  502  0.25859312898E+02 -0.41998121450E+02  0.55181547243E+03  0.55403515401E+03  0.47000000000E+01 0. -1.
        -11    1    1    2    0    0  0.23527154120E+02 -0.17627761370E+02  0.29580109454E+01  0.29546823529E+02  0.00000000000E+00 0.  1.
         11    1    1    2    0    0 -0.16069467329E+01  0.68181876794E+02  0.84851808411E+02  0.10886312503E+03  0.00000000000E+00 0. -1.
<mgrwt>
<rscale>  0 0.12850626E+03</rscale>
<asrwt>0</asrwt>
<pdfrwt beam="1">  1        2 0.11757424E+00 0.13660042E+03</pdfrwt>
<pdfrwt beam="2">  1       -2 0.49945371E-02 0.13660042E+03</pdfrwt>
<totfact> 0.71185628E+03</totfact>
</mgrwt>
</event>
<event>
 7    1  0.5206756E-006  0.1558660E+03  0.7546771E-02  0.1201161E+00
         -2   -1    0    0    0  501 -0.00000000000E+00  0.00000000000E+00  0.45265813171E+02  0.45265813171E+02  0.00000000000E+00 0. -1.
          2   -1    0    0  501    0  0.00000000000E+00 -0.00000000000E+00 -0.45891133351E+03  0.45891133351E+03  0.00000000000E+00 0.  1.
         23    2    1    2    0    0 -0.24445573908E+00 -0.93151799728E+02 -0.20690335772E+03  0.25904289089E+03  0.12496760515E+03 0.  0.
          5    1    3    3  502    0  0.31411430279E+02 -0.11177690155E+03 -0.17554467197E+03  0.21052024969E+03  0.47000000000E+01 0.  1.
         -5    1    3    3    0  502 -0.31655886018E+02  0.18625101823E+02 -0.31358685750E+02  0.48522641204E+02  0.47000000000E+01 0.  1.
        -11    1    1    2    0    0  0.21928249742E+02  0.10454894768E+03 -0.16040251199E+03  0.19271817882E+03  0.00000000000E+00 0.  1.
         11    1    1    2    0    0 -0.21683794003E+02 -0.11397147947E+02 -0.46339650631E+02  0.52416076964E+02  0.00000000000E+00 0. -1.
<mgrwt>
<rscale>  0 0.14944153E+03</rscale>
<asrwt>0</asrwt>
<pdfrwt beam="2">  1        2 0.70601741E-01 0.15586603E+03</pdfrwt>
<pdfrwt beam="1">  1       -2 0.69639715E-02 0.15586603E+03</pdfrwt>
<totfact> 0.77614425E+03</totfact>
</mgrwt>
</event>
<event>
 7    1  0.5206756E-006  0.1460173E+03  0.7546771E-02  0.1214505E+00
          2   -1    0    0  501    0  0.00000000000E+00  0.00000000000E+00  0.17733791135E+03  0.17733791135E+03  0.00000000000E+00 0. -1.
         -2   -1    0    0    0  501 -0.00000000000E+00 -0.00000000000E+00 -0.10078546793E+03  0.10078546793E+03  0.00000000000E+00 0.  1.
         23    2    1    2    0    0  0.71968559382E+01  0.75129234413E+02  0.29934652514E+02  0.14905417189E+03  0.12499946455E+03 0.  0.
          5    1    3    3  502    0 -0.89911043448E+01  0.10441036529E+03  0.15287424325E+01  0.10491325651E+03  0.47000000000E+01 0.  1.
         -5    1    3    3    0  502  0.16187960283E+02 -0.29281130878E+02  0.28405910082E+02  0.44140915387E+02  0.47000000000E+01 0.  1.
        -11    1    1    2    0    0 -0.44978616325E+02 -0.65615409269E+02  0.20456722586E+02  0.82139730698E+02  0.00000000000E+00 0. -1.
         11    1    1    2    0    0  0.37781760387E+02 -0.95138251438E+01  0.26161068318E+02  0.46929476689E+02  0.00000000000E+00 0.  1.
<mgrwt>
<rscale>  0 0.13912992E+03</rscale>
<asrwt>0</asrwt>
<pdfrwt beam="1">  1        2 0.27282756E-01 0.14601734E+03</pdfrwt>
<pdfrwt beam="2">  1       -2 0.15505457E-01 0.14601734E+03</pdfrwt>
<totfact> 0.60394211E+03</totfact>
</mgrwt>
</event>
<event>
 7    1  0.5206756E-006  0.1278651E+03  0.7546771E-02  0.1246440E+00
          1   -1    0    0  501    0  0.00000000000E+00  0.00000000000E+00  0.10916874684E+04  0.10916874684E+04  0.00000000000E+00 0. -1.
         -1   -1    0    0    0  501 -0.00000000000E+00 -0.00000000000E+00 -0.18827768129E+02  0.18827768129E+02  0.00000000000E+00 0.  1.
         23    2    1    2    0    0 -0.26685512292E+02  0.36056366508E+01  0.93905137490E+03  0.94771671672E+03  0.12499749304E+03 0.  0.
          5    1    3    3  502    0 -0.53447602495E+02  0.50191158776E+02  0.58088265327E+03  0.58551049991E+03  0.47000000000E+01 0.  1.
         -5    1    3    3    0  502  0.26762090203E+02 -0.46585522125E+02  0.35816872163E+03  0.36220621681E+03  0.47000000000E+01 0.  1.
        -11    1    1    2    0    0 -0.30714544776E+02 -0.23628364634E+01  0.24617151047E+02  0.39433112768E+02  0.00000000000E+00 0. -1.
         11    1    1    2    0    0  0.57400057068E+02 -0.12428001874E+01  0.10919117432E+03  0.12336540703E+03  0.00000000000E+00 0.  1.
<mgrwt>
<rscale>  0 0.11799623E+03</rscale>
<asrwt>0</asrwt>
<pdfrwt beam="1">  1        1 0.16795187E+00 0.12786513E+03</pdfrwt>
<pdfrwt beam="2">  1       -1 0.28965806E-02 0.12786513E+03</pdfrwt>
<totfact> 0.52966754E+03</totfact>
</mgrwt>
</event>
<event>
 7    1  0.5206756E-006  0.1470704E+03  0.7546771E-02  0.1214871E+00
          1   -1    0    0  501    0  0.00000000000E+00  0.00000000000E+00  0.84058384693E+03  0.84058384693E+03  0.00000000000E+00 0. -1.
         -1   -1    0    0    0  501 -0.00000000000E+00 -0.00000000000E+00 -0.25977577854E+02  0.25977577854E+02  0.00000000000E+00 0.  1.
         23    2    1    2    0    0  0.11853207331E+02 -0.76586294953E+02  0.63836132586E+03  0.65508386684E+03  0.12499492447E+03 0.  0.
          5    1    3    3  502    0  0.13910680228E+02  0.28715968562E+02  0.70612467208E+02  0.77629404224E+02  0.47000000000E+01 0. -1.
         -5    1    3    3    0  502 -0.20574728972E+01 -0.10530226351E+03  0.56774885866E+03  0.57745446262E+03  0.47000000000E+01 0. -1.
        -11    1    1    2    0    0  0.18901510096E+02  0.34240720089E+02  0.14574852290E+03  0.15090502285E+03  0.00000000000E+00 0. -1.
         11    1    1    2    0    0 -0.30754717428E+02  0.42345574864E+02  0.30496420318E+02  0.60572535087E+02  0.00000000000E+00 0.  1.
<mgrwt>
<rscale>  0 0.13885998E+03</rscale>
<asrwt>0</asrwt>
<pdfrwt beam="1">  1        1 0.12932057E+00 0.14707036E+03</pdfrwt>
<pdfrwt beam="2">  1       -1 0.39965511E-02 0.14707036E+03</pdfrwt>
<totfact> 0.51227476E+03</totfact>
</mgrwt>
</event>
<event>
 7    1  0.5206756E-006  0.1437970E+03  0.7546771E-02  0.1218027E+00
          3   -1    0    0  501    0  0.00000000000E+00  0.00000000000E+00  0.97484225869E+02  0.97484225869E+02  0.00000000000E+00 0. -1.
         -3   -1    0    0    0  501 -0.00000000000E+00 -0.00000000000E+00 -0.17494152263E+03  0.17494152263E+03  0.00000000000E+00 0.  1.
         23    2    1    2    0    0  0.14751975290E+02  0.69516169992E+02 -0.50254459963E+02  0.15232564387E+03  0.12500988908E+03 0.  0.
          5    1    3    3  502    0  0.65431432193E+02  0.48589941441E+02 -0.52822921672E+02  0.97234797177E+02  0.47000000000E+01 0.  1.
         -5    1    3    3    0  502 -0.50679456903E+02  0.20926228551E+02  0.25684617095E+01  0.55090846689E+02  0.47000000000E+01 0.  1.
        -11    1    1    2    0    0  0.12526171729E+02 -0.70275031279E+02 -0.47801612473E+02  0.85909715134E+02  0.00000000000E+00 0.  1.
         11    1    1    2    0    0 -0.27278147019E+02  0.75886128661E+00  0.20598775671E+02  0.34190389504E+02  0.00000000000E+00 0. -1.
<mgrwt>
<rscale>  0 0.13656496E+03</rscale>
<asrwt>0</asrwt>
<pdfrwt beam="1">  1        3 0.14997573E-01 0.14379705E+03</pdfrwt>
<pdfrwt beam="2">  1       -3 0.26914080E-01 0.14379705E+03</pdfrwt>
<totfact> 0.11329473E+03</totfact>
</mgrwt>
</event>
<event>
 7    1  0.5206756E-006  0.1349543E+03  0.7546771E-02  0.1232555E+00
          2   -1    0    0  501    0  0.00000000000E+00  0.00000000000E+00  0.32062184414E+03  0.32062184414E+03  0.00000000000E+00 0.  1.
         -2   -1    0    0    0  501 -0.00000000000E+00 -0.00000000000E+00 -0.61140426605E+02  0.61140426605E+02  0.00000000000E+00 0. -1.
         23    2    1    2    0    0  0.35574634271E+02 -0.36365439428E+02  0.24004921770E+03  0.27538391321E+03  0.12499869178E+03 0.  0.
          5    1    3    3  502    0 -0.13737043060E+01  0.42806091562E+02  0.11464232790E+03  0.12247122880E+03  0.47000000000E+01 0.  1.
         -5    1    3    3    0  502  0.36948338577E+02 -0.79171530990E+02  0.12540688981E+03  0.15291268441E+03  0.47000000000E+01 0.  1.
        -11    1    1    2    0    0 -0.41805995143E+02 -0.35856950006E+01 -0.22930384921E+02  0.47816325572E+02  0.00000000000E+00 0. -1.
         11    1    1    2    0    0  0.62313608724E+01  0.39951134428E+02  0.42362584751E+02  0.58562031959E+02  0.00000000000E+00 0.  1.
<mgrwt>
<rscale>  0 0.12662255E+03</rscale>
<asrwt>0</asrwt>
<pdfrwt beam="1">  1        2 0.49326437E-01 0.13495434E+03</pdfrwt>
<pdfrwt beam="2">  1       -2 0.94062196E-02 0.13495434E+03</pdfrwt>
<totfact> 0.70891761E+03</totfact>
</mgrwt>
</event>
<event>
 7    1  0.5206756E-006  0.1247794E+03  0.7546771E-02  0.1244599E+00
         -3   -1    0    0    0  501 -0.00000000000E+00  0.00000000000E+00  0.21565959843E+03  0.21565959843E+03  0.00000000000E+00 0.  1.
          3   -1    0    0  501    0  0.00000000000E+00 -0.00000000000E+00 -0.10918859307E+03  0.10918859307E+03  0.00000000000E+00 0. -1.
         23    2    1    2    0    0  0.48985836386E+02 -0.98186419976E+01 -0.52299395208E+02  0.13529645673E+03  0.11434109745E+03 0.  0.
          5    1    3    3  502    0  0.38110356633E+02 -0.58797040563E+01 -0.88689560414E+02  0.96824058627E+02  0.47000000000E+01 0. -1.
         -5    1    3    3    0  502  0.10875479753E+02 -0.39389379413E+01  0.36390165206E+02  0.38472398102E+02  0.47000000000E+01 0.  1.
        -11    1    1    2    0    0 -0.53471311445E+02  0.33261485394E+02  0.15232536397E+03  0.16482877196E+03  0.00000000000E+00 0.  1.
         11    1    1    2    0    0  0.44854750595E+01 -0.23442843396E+02  0.64450366031E+01  0.24722962805E+02  0.00000000000E+00 0. -1.
<mgrwt>
<rscale>  0 0.11909425E+03</rscale>
<asrwt>0</asrwt>
<pdfrwt beam="2">  1        3 0.16798245E-01 0.12477942E+03</pdfrwt>
<pdfrwt beam="1">  1       -3 0.33178400E-01 0.12477942E+03</pdfrwt>
<totfact> 0.61958931E+02</totfact>
</mgrwt>
</event>
<event>
 7    1  0.5206756E-006  0.1445763E+03  0.7546771E-02  0.1222815E+00
         -2   -1    0    0    0  501 -0.00000000000E+00  0.00000000000E+00  0.43926009648E+03  0.43926009648E+03  0.00000000000E+00 0. -1.
          2   -1    0    0  501    0  0.00000000000E+00 -0.00000000000E+00 -0.35567442180E+02  0.35567442180E+02  0.00000000000E+00 0.  1.
         23    2    1    2    0    0  0.18863313473E+01  0.72619055266E+02  0.25834163656E+03  0.29604512855E+03  0.12500092608E+03 0.  0.
          5    1    3    3  502    0 -0.38994623523E+02  0.91288821660E+02  0.17603354980E+03  0.20214878253E+03  0.47000000000E+01 0. -1.
         -5    1    3    3    0  502  0.40880954870E+02 -0.18669766393E+02  0.82308086768E+02  0.93896346019E+02  0.47000000000E+01 0. -1.
        -11    1    1    2    0    0 -0.19019797675E+02 -0.18716603536E+02  0.45812403609E+01  0.27074927789E+02  0.00000000000E+00 0.  1.
         11    1    1    2    0    0  0.17133466328E+02 -0.53902451730E+02  0.14076977738E+03  0.15170748232E+03  0.00000000000E+00 0. -1.
<mgrwt>
<rscale>  0 0.13317806E+03</rscale>
<asrwt>0</asrwt>
<pdfrwt beam="2">  1        2 0.54719145E-02 0.14457634E+03</pdfrwt>
<pdfrwt beam="1">  1       -2 0.67578473E-01 0.14457634E+03</pdfrwt>
<totfact> 0.27584573E+03</totfact>
</mgrwt>
</event>
<event>
 7    1  0.5206756E-006  0.1462784E+03  0.7546771E-02  0.1214054E+00
          1   -1    0    0  501    0  0.00000000000E+00  0.00000000000E+00  0.13792541494E+04  0.13792541494E+04  0.00000000000E+00 0. -1.
         -1   -1    0    0    0  501 -0.00000000000E+00 -0.00000000000E+00 -0.13463604933E+02  0.13463604933E+02  0.00000000000E+00 0.  1.
         23    2    1    2    0    0  0.75826492950E+02  0.44830555901E+01  0.88267799074E+03  0.89471661305E+03  0.12501050960E+03 0.  0.
          5    1    3    3  502    0  0.49972346465E+02 -0.44791890795E+02  0.71119942110E+03  0.71437403051E+03  0.47000000000E+01 0.  1.
         -5    1    3    3    0  502  0.25854146485E+02  0.49274946385E+02  0.17147856963E+03  0.18034258254E+03  0.47000000000E+01 0.  1.
        -11    1    1    2    0    0 -0.81629656692E+02  0.28904366926E+02  0.32888456546E+03  0.34009398800E+03  0.00000000000E+00 0.  1.
         11    1    1    2    0    0  0.58031637415E+01 -0.33387422516E+02  0.15422798829E+03  0.15790715331E+03  0.00000000000E+00 0. -1.
<mgrwt>
<rscale>  0 0.13946231E+03</rscale>
<asrwt>0</asrwt>
<pdfrwt beam="1">  1        1 0.21219284E+00 0.14627844E+03</pdfrwt>
<pdfrwt beam="2">  1       -1 0.20713249E-02 0.14627844E+03</pdfrwt>
<totfact> 0.55177445E+03</totfact>
</mgrwt>
</event>
<event>
 7    1  0.5206756E-006  0.1546993E+03  0.7546771E-02  0.1203739E+00
          1   -1    0    0  501    0  0.00000000000E+00  0.00000000000E+00  0.66721713122E+03  0.66721713122E+03  0.00000000000E+00 0. -1.
         -1   -1    0    0    0  501 -0.00000000000E+00 -0.00000000000E+00 -0.35528296321E+02  0.35528296321E+02  0.00000000000E+00 0.  1.
         23    2    1    2    0    0  0.43184746154E+02  0.80256905754E+02  0.48178019934E+03  0.50600795252E+03  0.12500317722E+03 0.  0.
          5    1    3    3  502    0  0.85651565710E+02  0.37719822121E+02  0.26918786971E+03  0.28503188399E+03  0.47000000000E+01 0. -1.
         -5    1    3    3    0  502 -0.42466819556E+02  0.42537083633E+02  0.21259232962E+03  0.22097606853E+03  0.47000000000E+01 0. -1.
        -11    1    1    2    0    0 -0.48125516588E+02 -0.58191475885E+02  0.15600336610E+03  0.17331867599E+03  0.00000000000E+00 0. -1.
         11    1    1    2    0    0  0.49407704337E+01 -0.22065429869E+02 -0.60947305401E+01  0.23418799032E+02  0.00000000000E+00 0.  1.
<mgrwt>
<rscale>  0 0.14737246E+03</rscale>
<asrwt>0</asrwt>
<pdfrwt beam="1">  1        1 0.10264878E+00 0.15469935E+03</pdfrwt>
<pdfrwt beam="2">  1       -1 0.54658923E-02 0.15469935E+03</pdfrwt>
<totfact> 0.45403633E+03</totfact>
</mgrwt>
</event>
<event>
 7    1  0.5206756E-006  0.1698505E+03  0.7546771E-02  0.1184596E+00
         -1   -1    0    0    0  501 -0.00000000000E+00  0.00000000000E+00  0.28121385087E+02  0.28121385087E+02  0.00000000000E+00 0.  1.
          1   -1    0    0  501    0  0.00000000000E+00 -0.00000000000E+00 -0.10355365467E+04  0.10355365467E+04  0.00000000000E+00 0. -1.
         23    2    1    2    0    0 -0.11245279989E+03 -0.24036021773E+02 -0.73473588531E+03  0.75411274104E+03  0.12500336992E+03 0.  0.
          5    1    3    3  502    0 -0.31936120623E+02 -0.69749117634E+02 -0.31135720534E+03  0.32070275105E+03  0.47000000000E+01 0. -1.
         -5    1    3    3    0  502 -0.80516679271E+02  0.45713095861E+02 -0.42337867997E+03  0.43340998999E+03  0.47000000000E+01 0. -1.
        -11    1    1    2    0    0  0.22109146151E+02 -0.97569908520E+01 -0.45461548779E+01  0.24590256977E+02  0.00000000000E+00 0.  1.
         11    1    1    2    0    0  0.90343653743E+02  0.33793012625E+02 -0.26813312139E+03  0.28495493373E+03  0.00000000000E+00 0. -1.
<mgrwt>
<rscale>  0 0.16368716E+03</rscale>
<asrwt>0</asrwt>
<pdfrwt beam="2">  1        1 0.15931332E+00 0.16985054E+03</pdfrwt>
<pdfrwt beam="1">  1       -1 0.43263667E-02 0.16985054E+03</pdfrwt>
<totfact> 0.32561125E+03</totfact>
</mgrwt>
</event>
<event>
 7    1  0.5206756E-006  0.1521349E+03  0.7546771E-02  0.1206763E+00
         -1   -1    0    0    0  501 -0.00000000000E+00  0.00000000000E+00  0.83204106962E+02  0.83204106962E+02  0.00000000000E+00 0.  1.
          1   -1    0    0  501    0  0.00000000000E+00 -0.00000000000E+00 -0.23506542853E+03  0.23506542853E+03  0.00000000000E+00 0. -1.
         23    2    1    2    0    0 -0.21179932457E+01  0.86693858633E+02 -0.10223954155E+03  0.18329745188E+03  0.12499888395E+03 0.  0.
          5    1    3    3  502    0  0.39018037188E+02  0.48369016512E+02 -0.10992000516E+03  0.12635848416E+03  0.47000000000E+01 0. -1.
         -5    1    3    3    0  502 -0.41136030434E+02  0.38324842121E+02  0.76804636115E+01  0.56938967717E+02  0.47000000000E+01 0. -1.
        -11    1    1    2    0    0 -0.38949229386E+01 -0.50930912327E+02  0.21279275126E+02  0.55334761272E+02  0.00000000000E+00 0.  1.
         11    1    1    2    0    0  0.60129161843E+01 -0.35762946306E+02 -0.70901055145E+02  0.79637322345E+02  0.00000000000E+00 0. -1.
<mgrwt>
<rscale>  0 0.14499381E+03</rscale>
<asrwt>0</asrwt>
<pdfrwt beam="2">  1        1 0.36163912E-01 0.15213491E+03</pdfrwt>
<pdfrwt beam="1">  1       -1 0.12800632E-01 0.15213491E+03</pdfrwt>
<totfact> 0.47652832E+03</totfact>
</mgrwt>
</event>
<event>
 7    1  0.5206756E-006  0.1485526E+03  0.7546771E-02  0.1212376E+00
          2   -1    0    0  501    0  0.00000000000E+00  0.00000000000E+00  0.66237039849E+03  0.66237039849E+03  0.00000000000E+00 0. -1.
         -2   -1    0    0    0  501 -0.00000000000E+00 -0.00000000000E+00 -0.27147161800E+02  0.27147161800E+02  0.00000000000E+00 0.  1.
         23    2    1    2    0    0 -0.30481258469E+02  0.74350319562E+02  0.35882694277E+03  0.38836149200E+03  0.12494317299E+03 0.  0.
          5    1    3    3  502    0  0.74285986565E+01  0.95920050161E+02  0.17910662721E+03  0.20336448562E+03  0.47000000000E+01 0. -1.
         -5    1    3    3    0  502 -0.37909857125E+02 -0.21569730599E+02  0.17972031556E+03  0.18499700639E+03  0.47000000000E+01 0. -1.
        -11    1    1    2    0    0  0.13838723981E+02  0.18742422804E+02  0.36602441151E+02  0.43388101966E+02  0.00000000000E+00 0.  1.
         11    1    1    2    0    0  0.16642534488E+02 -0.93092742366E+02  0.23979385276E+03  0.25776796631E+03  0.00000000000E+00 0. -1.
<mgrwt>
<rscale>  0 0.14071080E+03</rscale>
<asrwt>0</asrwt>
<pdfrwt beam="1">  1        2 0.10190313E+00 0.14855260E+03</pdfrwt>
<pdfrwt beam="2">  1       -2 0.41764870E-02 0.14855260E+03</pdfrwt>
<totfact> 0.11094841E+04</totfact>
</mgrwt>
</event>
<event>
 7    1  0.5206756E-006  0.1384520E+03  0.7546771E-02  0.1228058E+00
          2   -1    0    0  501    0  0.00000000000E+00  0.00000000000E+00  0.19021223225E+03  0.19021223225E+03  0.00000000000E+00 0. -1.
         -2   -1    0    0    0  501 -0.00000000000E+00 -0.00000000000E+00 -0.11584610034E+03  0.11584610034E+03  0.00000000000E+00 0.  1.
         23    2    1    2    0    0  0.54335431689E+02  0.24326759488E+02  0.12662601501E+03  0.18762492386E+03  0.12499933606E+03 0.  0.
          5    1    3    3  502    0  0.65399356416E+02 -0.22276988231E+02  0.22331325132E+02  0.72760690668E+02  0.47000000000E+01 0.  1.
         -5    1    3    3    0  502 -0.11063924728E+02  0.46603747719E+02  0.10429468987E+03  0.11486423320E+03  0.47000000000E+01 0.  1.
        -11    1    1    2    0    0  0.18637276564E+02  0.13535324706E+02 -0.18572270750E+02  0.29588550715E+02  0.00000000000E+00 0.  1.
         11    1    1    2    0    0 -0.72972708253E+02 -0.37862084194E+02 -0.33687612350E+02  0.88844858011E+02  0.00000000000E+00 0. -1.
<mgrwt>
<rscale>  0 0.12959465E+03</rscale>
<asrwt>0</asrwt>
<pdfrwt beam="1">  1        2 0.29263420E-01 0.13845203E+03</pdfrwt>
<pdfrwt beam="2">  1       -2 0.17822477E-01 0.13845203E+03</pdfrwt>
<totfact> 0.44290703E+03</totfact>
</mgrwt>
</event>
<event>
 7    1  0.5206756E-006  0.1256689E+03  0.7546771E-02  0.1249535E+00
         -2   -1    0    0    0  501 -0.00000000000E+00  0.00000000000E+00  0.26792338679E+02  0.26792338679E+02  0.00000000000E+00 0.  1.
          2   -1    0    0  501    0  0.00000000000E+00 -0.00000000000E+00 -0.77966350253E+03  0.77966350253E+03  0.00000000000E+00 0. -1.
         23    2    1    2    0    0 -0.32891463284E+01  0.12583310212E+02 -0.67342710176E+03  0.68505236282E+03  0.12499408081E+03 0.  0.
          5    1    3    3  502    0 -0.14840895319E+02  0.56608717894E+02 -0.55493615449E+03  0.55803317525E+03  0.47000000000E+01 0. -1.
         -5    1    3    3    0  502  0.11551748990E+02 -0.44025407682E+02 -0.11849094727E+03  0.12701918757E+03  0.47000000000E+01 0. -1.
        -11    1    1    2    0    0 -0.24230735270E+02 -0.29247123916E+02 -0.80717228753E+02  0.89206467292E+02  0.00000000000E+00 0. -1.
         11    1    1    2    0    0  0.27519881598E+02  0.16663813704E+02  0.12731666626E+01  0.32197011099E+02  0.00000000000E+00 0.  1.
<mgrwt>
<rscale>  0 0.11618041E+03</rscale>
<asrwt>0</asrwt>
<pdfrwt beam="2">  1        2 0.11994823E+00 0.12566892E+03</pdfrwt>
<pdfrwt beam="1">  1       -2 0.41218983E-02 0.12566892E+03</pdfrwt>
<totfact> 0.92092404E+03</totfact>
</mgrwt>
</event>
<event>
 7    1  0.5206756E-006  0.1495038E+03  0.7546771E-02  0.1211025E+00
         -1   -1    0    0    0  501 -0.00000000000E+00  0.00000000000E+00  0.15175258219E+03  0.15175258219E+03  0.00000000000E+00 0.  1.
          1   -1    0    0  501    0  0.00000000000E+00 -0.00000000000E+00 -0.12121625578E+03  0.12121625578E+03  0.00000000000E+00 0. -1.
         23    2    1    2    0    0  0.42592905142E+02  0.70090039907E+02  0.28605673352E+02  0.15221586504E+03  0.12499846303E+03 0.  0.
          5    1    3    3  502    0  0.37532876676E+02  0.69751697346E+02  0.72679452352E+02  0.10760301533E+03  0.47000000000E+01 0.  1.
         -5    1    3    3    0  502  0.50600284664E+01  0.33834256095E+00 -0.44073779000E+02  0.44612849708E+02  0.47000000000E+01 0.  1.
        -11    1    1    2    0    0  0.18695769901E+01 -0.37767454544E+02 -0.37382031243E+02  0.53172287902E+02  0.00000000000E+00 0. -1.
         11    1    1    2    0    0 -0.44462482132E+02 -0.32322585363E+02  0.39312684303E+02  0.67580685029E+02  0.00000000000E+00 0.  1.
<mgrwt>
<rscale>  0 0.14172607E+03</rscale>
<asrwt>0</asrwt>
<pdfrwt beam="2">  1        1 0.18648655E-01 0.14950380E+03</pdfrwt>
<pdfrwt beam="1">  1       -1 0.23346551E-01 0.14950380E+03</pdfrwt>
<totfact> 0.42097087E+03</totfact>
</mgrwt>
</event>
<event>
 7    1  0.5206756E-006  0.1299887E+03  0.7546771E-02  0.1242374E+00
         -2   -1    0    0    0  501 -0.00000000000E+00  0.00000000000E+00  0.10469816621E+03  0.10469816621E+03  0.00000000000E+00 0.  1.
          2   -1    0    0  501    0  0.00000000000E+00 -0.00000000000E+00 -0.12174589110E+03  0.12174589110E+03  0.00000000000E+00 0. -1.
         23    2    1    2    0    0  0.34075278811E+02 -0.10572810430E+02 -0.85478831355E+01  0.13026947762E+03  0.12499664615E+03 0.  0.
          5    1    3    3  502    0  0.75548158940E+02  0.38887371573E+01  0.19092471441E+02  0.78161749351E+02  0.47000000000E+01 0.  1.
         -5    1    3    3    0  502 -0.41472880129E+02 -0.14461547587E+02 -0.27640354576E+02  0.52107728274E+02  0.47000000000E+01 0.  1.
        -11    1    1    2    0    0 -0.14941288051E+02  0.45530681938E+02 -0.23777872466E+02  0.53494600713E+02  0.00000000000E+00 0. -1.
         11    1    1    2    0    0 -0.19133990760E+02 -0.34957871509E+02  0.15278030712E+02  0.42679978975E+02  0.00000000000E+00 0.  1.
<mgrwt>
<rscale>  0 0.12043942E+03</rscale>
<asrwt>0</asrwt>
<pdfrwt beam="2">  1        2 0.18730137E-01 0.12998873E+03</pdfrwt>
<pdfrwt beam="1">  1       -2 0.16107410E-01 0.12998873E+03</pdfrwt>
<totfact> 0.85606521E+03</totfact>
</mgrwt>
</event>
<event>
 6    1  0.5206756E-006  0.1849897E+03  0.7546771E-02  0.1177738E+00
          2   -1    0    0  501    0  0.00000000000E+00  0.00000000000E+00  0.48267281107E+03  0.48267281107E+03  0.00000000000E+00 0. -1.
         -2   -1    0    0    0  501 -0.00000000000E+00 -0.00000000000E+00 -0.53364486774E+02  0.53364486774E+02  0.00000000000E+00 0.  1.
          5    1    1    2  502    0 -0.10135156106E+03  0.19342974483E+02  0.16852376311E+03  0.19765788202E+03  0.47000000000E+01 0. -1.
         -5    1    1    2    0  502  0.27131490971E+02 -0.76772104985E+02  0.12119465906E+03  0.14608322727E+03  0.47000000000E+01 0.  1.
        -11    1    1    2    0    0  0.78845441104E+02  0.20885938326E+02  0.50602912280E+02  0.95986877925E+02  0.00000000000E+00 0.  1.
         11    1    1    2    0    0 -0.46253710150E+01  0.36543192176E+02  0.88986989851E+02  0.96309310631E+02  0.00000000000E+00 0. -1.
<mgrwt>
<rscale>  0 0.17010500E+03</rscale>
<asrwt>0</asrwt>
<pdfrwt beam="1">  1        2 0.74257352E-01 0.18498969E+03</pdfrwt>
<pdfrwt beam="2">  1       -2 0.82099214E-02 0.18498969E+03</pdfrwt>
<totfact> 0.57460957E+03</totfact>
</mgrwt>
</event>
<event>
 7    1  0.5206756E-006  0.1351509E+03  0.7546771E-02  0.1232679E+00
          2   -1    0    0  501    0  0.00000000000E+00  0.00000000000E+00  0.10607934025E+03  0.10607934025E+03  0.00000000000E+00 0. -1.
         -2   -1    0    0    0  501 -0.00000000000E+00 -0.00000000000E+00 -0.13493778224E+03  0.13493778224E+03  0.00000000000E+00 0.  1.
         23    2    1    2    0    0  0.62738114330E+01 -0.50983189469E+02 -0.10694288197E+02  0.13557339998E+03  0.12500853037E+03 0.  0.
          5    1    3    3  502    0  0.93911504716E+00 -0.44710288740E+02 -0.65778402702E+02  0.79679232667E+02  0.47000000000E+01 0. -1.
         -5    1    3    3    0  502  0.53346963859E+01 -0.62729007298E+01  0.55084114505E+02  0.55894167316E+02  0.47000000000E+01 0. -1.
        -11    1    1    2    0    0  0.20648480186E+02 -0.19509892761E+02 -0.48082591856E+01  0.28811716470E+02  0.00000000000E+00 0.  1.
         11    1    1    2    0    0 -0.26922291619E+02  0.70493082231E+02 -0.13355894616E+02  0.76632006038E+02  0.00000000000E+00 0. -1.
<mgrwt>
<rscale>  0 0.12654185E+03</rscale>
<asrwt>0</asrwt>
<pdfrwt beam="1">  1        2 0.16319899E-01 0.13515095E+03</pdfrwt>
<pdfrwt beam="2">  1       -2 0.20759659E-01 0.13515095E+03</pdfrwt>
<totfact> 0.65804811E+03</totfact>
</mgrwt>
</event>
<event>
 7    1  0.5206756E-006  0.1298084E+03  0.7546771E-02  0.1243856E+00
          3   -1    0    0  501    0  0.00000000000E+00  0.00000000000E+00  0.49785490628E+03  0.49785490628E+03  0.00000000000E+00 0. -1.
         -3   -1    0    0    0  501 -0.00000000000E+00 -0.00000000000E+00 -0.36104389512E+02  0.36104389512E+02  0.00000000000E+00 0.  1.
         23    2    1    2    0    0 -0.78838704508E+01 -0.34147176622E+02  0.40362161309E+03  0.42398186541E+03  0.12498812168E+03 0.  0.
          5    1    3    3  502    0 -0.30821701297E+02  0.22542450925E+02  0.30790747799E+03  0.31030186008E+03  0.47000000000E+01 0.  1.
         -5    1    3    3    0  502  0.22937830846E+02 -0.56689627547E+02  0.95714135099E+02  0.11368000534E+03  0.47000000000E+01 0.  1.
        -11    1    1    2    0    0 -0.30474583432E+02  0.27546692367E+02  0.57976576416E+02  0.71054935850E+02  0.00000000000E+00 0. -1.
         11    1    1    2    0    0  0.38358453883E+02  0.66004842552E+01  0.15232726126E+00  0.38922494528E+02  0.00000000000E+00 0.  1.
<mgrwt>
<rscale>  0 0.11954106E+03</rscale>
<asrwt>0</asrwt>
<pdfrwt beam="1">  1        3 0.76593057E-01 0.12980838E+03</pdfrwt>
<pdfrwt beam="2">  1       -3 0.55545218E-02 0.12980838E+03</pdfrwt>
<totfact> 0.72651182E+02</totfact>
</mgrwt>
</event>
<event>
 6    1  0.5206756E-006  0.4533751E+03  0.7546771E-02  0.1026720E+00
         -1   -1    0    0    0  501 -0.00000000000E+00  0.00000000000E+00  0.29033815214E+02  0.29033815214E+02  0.00000000000E+00 0.  1.
          1   -1    0    0  501    0  0.00000000000E+00 -0.00000000000E+00 -0.17699099814E+04  0.17699099814E+04  0.00000000000E+00 0. -1.
          5    1    1    2  502    0  0.15654478855E+03 -0.13965382841E+01 -0.10434873359E+04  0.10551758770E+04  0.47000000000E+01 0. -1.
         -5    1    1    2    0  502  0.22611828184E+02 -0.12951525297E+02 -0.12170032754E+02  0.29141662248E+02  0.47000000000E+01 0.  1.
        -11    1    1    2    0    0 -0.74162314550E+02  0.28379244093E+02 -0.44585848315E+03  0.45287439472E+03  0.00000000000E+00 0. -1.
         11    1    1    2    0    0 -0.10499430218E+03 -0.14031180511E+02 -0.23936031440E+03  0.26175186270E+03  0.00000000000E+00 0.  1.
<mgrwt>
<rscale>  0 0.45337507E+03</rscale>
<asrwt>0</asrwt>
<pdfrwt beam="2">  1        1 0.27229379E+00 0.45337507E+03</pdfrwt>
<pdfrwt beam="1">  1       -1 0.44667418E-02 0.45337507E+03</pdfrwt>
<totfact> 0.97967847E+02</totfact>
</mgrwt>
</event>
<event>
 7    1  0.5206756E-006  0.1305440E+03  0.7546771E-02  0.1240324E+00
          2   -1    0    0  501    0  0.00000000000E+00  0.00000000000E+00  0.40764189541E+03  0.40764189541E+03  0.00000000000E+00 0. -1.
         -2   -1    0    0    0  501 -0.00000000000E+00 -0.00000000000E+00 -0.41165629777E+02  0.41165629777E+02  0.00000000000E+00 0.  1.
         23    2    1    2    0    0  0.28659655067E+02  0.24398739057E+02  0.30715472305E+03  0.33374503707E+03  0.12500020631E+03 0.  0.
          5    1    3    3  502    0 -0.47468087894E+02  0.15575597592E+02  0.16115794712E+03  0.16878919553E+03  0.47000000000E+01 0.  1.
         -5    1    3    3    0  502  0.76127742961E+02  0.88231414646E+01  0.14599677594E+03  0.16495584154E+03  0.47000000000E+01 0.  1.
        -11    1    1    2    0    0 -0.55463674440E+01 -0.50901570886E+02  0.61263458967E+02  0.79843243390E+02  0.00000000000E+00 0.  1.
         11    1    1    2    0    0 -0.23113287623E+02  0.26502831829E+02 -0.19419163913E+01  0.35219244725E+02  0.00000000000E+00 0. -1.
<mgrwt>
<rscale>  0 0.12169640E+03</rscale>
<asrwt>0</asrwt>
<pdfrwt beam="1">  1        2 0.62714135E-01 0.13054396E+03</pdfrwt>
<pdfrwt beam="2">  1       -2 0.63331741E-02 0.13054396E+03</pdfrwt>
<totfact> 0.10076985E+04</totfact>
</mgrwt>
</event>
<event>
 6    1  0.5206756E-006  0.3744216E+03  0.7546771E-02  0.1063519E+00
         -1   -1    0    0    0  501 -0.00000000000E+00  0.00000000000E+00  0.46586411592E+02  0.46586411592E+02  0.00000000000E+00 0.  1.
          1   -1    0    0  501    0  0.00000000000E+00 -0.00000000000E+00 -0.38962248677E+04  0.38962248677E+04  0.00000000000E+00 0. -1.
          5    1    1    2  502    0  0.27168463583E+03 -0.12338578740E+03 -0.25576301164E+04  0.25749816497E+04  0.47000000000E+01 0. -1.
         -5    1    1    2    0  502 -0.64150923994E+02 -0.37924557759E+02 -0.79069816154E+03  0.79421614552E+03  0.47000000000E+01 0.  1.
        -11    1    1    2    0    0 -0.29715589719E+02 -0.10332608898E+02 -0.50357286005E+02  0.59377060661E+02  0.00000000000E+00 0. -1.
         11    1    1    2    0    0 -0.17781812212E+03  0.17164295405E+03 -0.45095289209E+03  0.51423642336E+03  0.00000000000E+00 0.  1.
<mgrwt>
<rscale>  0 0.34780645E+03</rscale>
<asrwt>0</asrwt>
<pdfrwt beam="2">  1        1 0.59941911E+00 0.37442159E+03</pdfrwt>
<pdfrwt beam="1">  1       -1 0.71671414E-02 0.37442159E+03</pdfrwt>
<totfact> 0.14974173E+01</totfact>
</mgrwt>
</event>
<event>
 7    1  0.5206756E-006  0.1367960E+03  0.7546771E-02  0.1230545E+00
          2   -1    0    0  501    0  0.00000000000E+00  0.00000000000E+00  0.82422993347E+03  0.82422993347E+03  0.00000000000E+00 0. -1.
         -2   -1    0    0    0  501 -0.00000000000E+00 -0.00000000000E+00 -0.20025272392E+02  0.20025272392E+02  0.00000000000E+00 0.  1.
         23    2    1    2    0    0 -0.12718503325E+02  0.54095054974E+02  0.59255478015E+03  0.60814005482E+03  0.12500049400E+03 0.  0.
          5    1    3    3  502    0  0.14764823707E+02  0.81575688703E+02  0.25165734121E+03  0.26500207620E+03  0.47000000000E+01 0.  1.
         -5    1    3    3    0  502 -0.27483327031E+02 -0.27480633729E+02  0.34089743894E+03  0.34313797862E+03  0.47000000000E+01 0.  1.
        -11    1    1    2    0    0 -0.21542523910E+02 -0.32895983688E+02  0.18171894382E+03  0.18592471762E+03  0.00000000000E+00 0. -1.
         11    1    1    2    0    0  0.34261027235E+02 -0.21199071286E+02  0.29930937104E+02  0.50190433416E+02  0.00000000000E+00 0.  1.
<mgrwt>
<rscale>  0 0.12793966E+03</rscale>
<asrwt>0</asrwt>
<pdfrwt beam="1">  1        2 0.12680458E+00 0.13679605E+03</pdfrwt>
<pdfrwt beam="2">  1       -2 0.30808118E-02 0.13679605E+03</pdfrwt>
<totfact> 0.13287064E+04</totfact>
</mgrwt>
</event>
<event>
 7    1  0.5206756E-006  0.1476712E+03  0.7546771E-02  0.1213671E+00
         -1   -1    0    0    0  501 -0.00000000000E+00  0.00000000000E+00  0.14634866427E+03  0.14634866427E+03  0.00000000000E+00 0.  1.
          1   -1    0    0  501    0  0.00000000000E+00 -0.00000000000E+00 -0.22211513987E+03  0.22211513987E+03  0.00000000000E+00 0. -1.
         23    2    1    2    0    0  0.39839842666E+02 -0.64426315861E+02 -0.16406691452E+03  0.22073679600E+03  0.12676283930E+03 0.  0.
          5    1    3    3  502    0 -0.70958858559E+01 -0.18630162208E+02 -0.15263821334E+03  0.15400632685E+03  0.47000000000E+01 0. -1.
         -5    1    3    3    0  502  0.46935728522E+02 -0.45796153654E+02 -0.11428701185E+02  0.66730469144E+02  0.47000000000E+01 0.  1.
        -11    1    1    2    0    0 -0.10375305505E+02 -0.23254630022E+02  0.13844080026E+02  0.28984191097E+02  0.00000000000E+00 0.  1.
         11    1    1    2    0    0 -0.29464537161E+02  0.87680945883E+02  0.74456358889E+02  0.11874281705E+03  0.00000000000E+00 0. -1.
<mgrwt>
<rscale>  0 0.13974611E+03</rscale>
<asrwt>0</asrwt>
<pdfrwt beam="2">  1        1 0.34171560E-01 0.14767119E+03</pdfrwt>
<pdfrwt beam="1">  1       -1 0.22515179E-01 0.14767119E+03</pdfrwt>
<totfact> 0.20827434E+03</totfact>
</mgrwt>
</event>
<event>
 7    1  0.5206756E-006  0.2294655E+03  0.7546771E-02  0.1129815E+00
         -2   -1    0    0    0  501 -0.00000000000E+00  0.00000000000E+00  0.44214610156E+03  0.44214610156E+03  0.00000000000E+00 0.  1.
          2   -1    0    0  501    0  0.00000000000E+00 -0.00000000000E+00 -0.13711209295E+03  0.13711209295E+03  0.00000000000E+00 0. -1.
         23    2    1    2    0    0  0.77140821421E+02  0.17628842101E+03  0.31149948237E+02  0.23157012942E+03  0.12500436733E+03 0.  0.
          5    1    3    3  502    0 -0.20208446054E+02  0.27468307069E+02 -0.27710392156E+02  0.44191006083E+02  0.47000000000E+01 0. -1.
         -5    1    3    3    0  502  0.97349267475E+02  0.14882011394E+03  0.58860340393E+02  0.18737912334E+03  0.47000000000E+01 0. -1.
        -11    1    1    2    0    0 -0.35098936894E+02 -0.78546690126E+02  0.49255569019E+02  0.99134398572E+02  0.00000000000E+00 0.  1.
         11    1    1    2    0    0 -0.42041884527E+02 -0.97741730883E+02  0.22462849135E+03  0.24855366652E+03  0.00000000000E+00 0. -1.
<mgrwt>
<rscale>  0 0.22554565E+03</rscale>
<asrwt>0</asrwt>
<pdfrwt beam="2">  1        2 0.21094168E-01 0.22946548E+03</pdfrwt>
<pdfrwt beam="1">  1       -2 0.68022477E-01 0.22946548E+03</pdfrwt>
<totfact> 0.52999800E+02</totfact>
</mgrwt>
</event>
<event>
 7    1  0.5206756E-006  0.1589946E+03  0.7546771E-02  0.1198333E+00
          2   -1    0    0  501    0  0.00000000000E+00  0.00000000000E+00  0.19708912321E+03  0.19708912321E+03  0.00000000000E+00 0.  1.
         -2   -1    0    0    0  501 -0.00000000000E+00 -0.00000000000E+00 -0.10869053956E+03  0.10869053956E+03  0.00000000000E+00 0. -1.
         23    2    1    2    0    0  0.55134281842E+02  0.81338181131E+02  0.64986868750E+02  0.17176317867E+03  0.12499443065E+03 0.  0.
          5    1    3    3  502    0 -0.36377197193E+02  0.30460439739E+02  0.43989178388E+02  0.64871231528E+02  0.47000000000E+01 0.  1.
         -5    1    3    3    0  502  0.91511479035E+02  0.50877741392E+02  0.20997690362E+02  0.10689194715E+03  0.47000000000E+01 0.  1.
        -11    1    1    2    0    0 -0.48963319754E+02 -0.81338860784E+01  0.33473270320E+02  0.59866740432E+02  0.00000000000E+00 0.  1.
         11    1    1    2    0    0 -0.61709620876E+01 -0.73204295052E+02 -0.10061555418E+02  0.74149743658E+02  0.00000000000E+00 0. -1.
<mgrwt>
<rscale>  0 0.15175532E+03</rscale>
<asrwt>0</asrwt>
<pdfrwt beam="1">  1        2 0.30321404E-01 0.15899464E+03</pdfrwt>
<pdfrwt beam="2">  1       -2 0.16721621E-01 0.15899464E+03</pdfrwt>
<totfact> 0.47762282E+03</totfact>
</mgrwt>
</event>
<event>
 7    1  0.5206756E-006  0.1598648E+03  0.7546771E-02  0.1195583E+00
          2   -1    0    0  501    0  0.00000000000E+00  0.00000000000E+00  0.30437106574E+03  0.30437106574E+03  0.00000000000E+00 0. -1.
         -2   -1    0    0    0  501 -0.00000000000E+00 -0.00000000000E+00 -0.84236813135E+02  0.84236813135E+02  0.00000000000E+00 0.  1.
         23    2    1    2    0    0 -0.99363627215E+01 -0.99133219848E+02  0.18853248906E+03  0.24718665308E+03  0.12502245978E+03 0.  0.
          5    1    3    3  502    0  0.18125881812E+02 -0.45049874464E+02 -0.22081404511E+00  0.48787063239E+02  0.47000000000E+01 0.  1.
         -5    1    3    3    0  502 -0.28062244533E+02 -0.54083345384E+02  0.18875330311E+03  0.19839958984E+03  0.47000000000E+01 0.  1.
        -11    1    1    2    0    0 -0.13097161684E+02  0.16852201809E+02 -0.29475886709E+02  0.36391760705E+02  0.00000000000E+00 0.  1.
         11    1    1    2    0    0  0.23033524405E+02  0.82281018039E+02  0.61077650252E+02  0.10502946509E+03  0.00000000000E+00 0. -1.
<mgrwt>
<rscale>  0 0.15405026E+03</rscale>
<asrwt>0</asrwt>
<pdfrwt beam="1">  1        2 0.46826317E-01 0.15986476E+03</pdfrwt>
<pdfrwt beam="2">  1       -2 0.12959510E-01 0.15986476E+03</pdfrwt>
<totfact> 0.45487102E+03</totfact>
</mgrwt>
</event>
<event>
 7    1  0.5206756E-006  0.1285744E+03  0.7546771E-02  0.1244216E+00
          2   -1    0    0  501    0  0.00000000000E+00  0.00000000000E+00  0.30461815677E+03  0.30461815677E+03  0.00000000000E+00 0. -1.
         -2   -1    0    0    0  501 -0.00000000000E+00 -0.00000000000E+00 -0.41748434426E+02  0.41748434426E+02  0.00000000000E+00 0.  1.
         23    2    1    2    0    0 -0.26207794396E+02  0.14788271110E+02  0.17094015432E+03  0.21389697835E+03  0.12500335811E+03 0.  0.
          5    1    3    3  502    0 -0.59954440215E+02  0.50127675442E+02  0.90538767188E+02  0.11969409806E+03  0.47000000000E+01 0. -1.
         -5    1    3    3    0  502  0.33746645819E+02 -0.35339404332E+02  0.80401387133E+02  0.94202880293E+02  0.47000000000E+01 0. -1.
        -11    1    1    2    0    0  0.36888465485E+02 -0.38158373696E+02  0.92638476301E+02  0.10676473041E+03  0.00000000000E+00 0. -1.
         11    1    1    2    0    0 -0.10680671089E+02  0.23370102586E+02 -0.70890827610E+00  0.25704882430E+02  0.00000000000E+00 0.  1.
<mgrwt>
<rscale>  0 0.11932436E+03</rscale>
<asrwt>0</asrwt>
<pdfrwt beam="1">  1        2 0.46864330E-01 0.12857442E+03</pdfrwt>
<pdfrwt beam="2">  1       -2 0.64228363E-02 0.12857442E+03</pdfrwt>
<totfact> 0.13422127E+04</totfact>
</mgrwt>
</event>
<event>
 7    1  0.5206756E-006  0.1586664E+03  0.7546771E-02  0.1198215E+00
          2   -1    0    0  501    0  0.00000000000E+00  0.00000000000E+00  0.17823001378E+03  0.17823001378E+03  0.00000000000E+00 0. -1.
         -2   -1    0    0    0  501 -0.00000000000E+00 -0.00000000000E+00 -0.14198481438E+03  0.14198481438E+03  0.00000000000E+00 0.  1.
         23    2    1    2    0    0 -0.62801129083E+02  0.74867324733E+02  0.83077427468E+02  0.17910020390E+03  0.12500370376E+03 0.  0.
          5    1    3    3  502    0 -0.38666106153E+01 -0.12819757780E+02 -0.24456785569E+02  0.28275806400E+02  0.47000000000E+01 0.  1.
         -5    1    3    3    0  502 -0.58934518467E+02  0.87687082513E+02  0.10753421304E+03  0.15082439750E+03  0.47000000000E+01 0.  1.
        -11    1    1    2    0    0  0.17804260160E+02 -0.57784741078E+02  0.15444549600E+02  0.62406747181E+02  0.00000000000E+00 0. -1.
         11    1    1    2    0    0  0.44996868922E+02 -0.17082583654E+02 -0.62276777673E+02  0.78707877080E+02  0.00000000000E+00 0.  1.
<mgrwt>
<rscale>  0 0.15185249E+03</rscale>
<asrwt>0</asrwt>
<pdfrwt beam="1">  1        2 0.27420002E-01 0.15866639E+03</pdfrwt>
<pdfrwt beam="2">  1       -2 0.21843818E-01 0.15866639E+03</pdfrwt>
<totfact> 0.33946175E+03</totfact>
</mgrwt>
</event>
<event>
 7    1  0.5206756E-006  0.1299362E+03  0.7546771E-02  0.1241362E+00
         -2   -1    0    0    0  501 -0.00000000000E+00  0.00000000000E+00  0.83896226468E+02  0.83896226468E+02  0.00000000000E+00 0.  1.
          2   -1    0    0  501    0  0.00000000000E+00 -0.00000000000E+00 -0.16120758341E+03  0.16120758341E+03  0.00000000000E+00 0. -1.
         23    2    1    2    0    0  0.24822594984E+02 -0.25364640590E+02 -0.68291626129E+02  0.14678955027E+03  0.12499559855E+03 0.  0.
          5    1    3    3  502    0 -0.41398137015E+02  0.17285286413E+02 -0.46819427667E+02  0.65013350028E+02  0.47000000000E+01 0. -1.
         -5    1    3    3    0  502  0.66220731999E+02 -0.42649927004E+02 -0.21472198462E+02  0.81776200247E+02  0.47000000000E+01 0. -1.
        -11    1    1    2    0    0  0.19273547915E+01 -0.20846131686E+02  0.26807513598E+02  0.34013507436E+02  0.00000000000E+00 0.  1.
         11    1    1    2    0    0 -0.26749949776E+02  0.46210772276E+02 -0.35827244414E+02  0.64300752170E+02  0.00000000000E+00 0. -1.
<mgrwt>
<rscale>  0 0.12105786E+03</rscale>
<asrwt>0</asrwt>
<pdfrwt beam="2">  1        2 0.24801167E-01 0.12993624E+03</pdfrwt>
<pdfrwt beam="1">  1       -2 0.12907112E-01 0.12993624E+03</pdfrwt>
<totfact> 0.89605653E+03</totfact>
</mgrwt>
</event>
<event>
 7    1  0.5206756E-006  0.1451244E+03  0.7546771E-02  0.1216764E+00
         -1   -1    0    0    0  501 -0.00000000000E+00  0.00000000000E+00  0.20688464749E+03  0.20688464749E+03  0.00000000000E+00 0.  1.
          1   -1    0    0  501    0  0.00000000000E+00 -0.00000000000E+00 -0.10632426196E+03  0.10632426196E+03  0.00000000000E+00 0. -1.
         23    2    1    2    0    0  0.22804168735E+01 -0.73704471010E+02 -0.18589321585E+02  0.14631012004E+03  0.12499415587E+03 0.  0.
          5    1    3    3  502    0  0.23966414058E+02  0.29676163540E+02  0.24123340606E+01  0.38509388997E+02  0.47000000000E+01 0.  1.
         -5    1    3    3    0  502 -0.21685997185E+02 -0.10338063455E+03 -0.21001655645E+02  0.10780073104E+03  0.47000000000E+01 0.  1.
        -11    1    1    2    0    0 -0.27145264786E+02  0.23061294559E+02  0.10183370327E+03  0.10788323238E+03  0.00000000000E+00 0.  1.
         11    1    1    2    0    0  0.24864847912E+02  0.50643176451E+02  0.17316003840E+02  0.59015557031E+02  0.00000000000E+00 0. -1.
<mgrwt>
<rscale>  0 0.13747727E+03</rscale>
<asrwt>0</asrwt>
<pdfrwt beam="2">  1        1 0.16357579E-01 0.14512439E+03</pdfrwt>
<pdfrwt beam="1">  1       -1 0.31828407E-01 0.14512439E+03</pdfrwt>
<totfact> 0.29704044E+03</totfact>
</mgrwt>
</event>
<event>
 7    1  0.5206756E-006  0.1259831E+03  0.7546771E-02  0.1247688E+00
          2   -1    0    0  501    0  0.00000000000E+00  0.00000000000E+00  0.20640404555E+03  0.20640404555E+03  0.00000000000E+00 0. -1.
         -2   -1    0    0    0  501 -0.00000000000E+00 -0.00000000000E+00 -0.63475174530E+02  0.63475174530E+02  0.00000000000E+00 0.  1.
         23    2    1    2    0    0  0.25482873226E+01  0.15498287524E+02  0.11677852213E+03  0.17178171496E+03  0.12500017471E+03 0.  0.
          5    1    3    3  502    0 -0.21231050243E+02 -0.15144868191E+02 -0.17617726581E+02  0.31821357873E+02  0.47000000000E+01 0. -1.
         -5    1    3    3    0  502  0.23779337566E+02  0.30643155715E+02  0.13439624872E+03  0.13996035709E+03  0.47000000000E+01 0. -1.
        -11    1    1    2    0    0  0.20816387739E+02 -0.40834974719E+02  0.40115544820E+02  0.60910377564E+02  0.00000000000E+00 0.  1.
         11    1    1    2    0    0 -0.23364675062E+02  0.25336687194E+02 -0.13965195931E+02  0.37187127559E+02  0.00000000000E+00 0. -1.
<mgrwt>
<rscale>  0 0.11725921E+03</rscale>
<asrwt>0</asrwt>
<pdfrwt beam="1">  1        2 0.31754468E-01 0.12598307E+03</pdfrwt>
<pdfrwt beam="2">  1       -2 0.97654115E-02 0.12598307E+03</pdfrwt>
<totfact> 0.10627996E+04</totfact>
</mgrwt>
</event>
<event>
 7    1  0.5206756E-006  0.1258167E+03  0.7546771E-02  0.1249241E+00
         -1   -1    0    0    0  501 -0.00000000000E+00  0.00000000000E+00  0.13126313975E+03  0.13126313975E+03  0.00000000000E+00 0.  1.
          1   -1    0    0  501    0  0.00000000000E+00 -0.00000000000E+00 -0.98118857304E+02  0.98118857304E+02  0.00000000000E+00 0. -1.
         23    2    1    2    0    0 -0.94088334737E+01 -0.10759627853E+02 -0.12921405061E+02  0.12647846894E+03  0.12500217861E+03 0.  0.
          5    1    3    3  502    0  0.26481113436E+02 -0.49798845938E+01 -0.60512865603E+02  0.66407420691E+02  0.47000000000E+01 0.  1.
         -5    1    3    3    0  502 -0.35889946910E+02 -0.57797432590E+01  0.47591460542E+02  0.60071048250E+02  0.47000000000E+01 0.  1.
        -11    1    1    2    0    0 -0.26681946969E+02  0.32600119241E+02  0.43629680617E+02  0.60648520998E+02  0.00000000000E+00 0.  1.
         11    1    1    2    0    0  0.36090780443E+02 -0.21840491388E+02  0.24360068949E+01  0.42255007119E+02  0.00000000000E+00 0. -1.
<mgrwt>
<rscale>  0 0.11635109E+03</rscale>
<asrwt>0</asrwt>
<pdfrwt beam="2">  1        1 0.15095209E-01 0.12581669E+03</pdfrwt>
<pdfrwt beam="1">  1       -1 0.20194329E-01 0.12581669E+03</pdfrwt>
<totfact> 0.69088684E+03</totfact>
</mgrwt>
</event>
<event>
 7    1  0.5206756E-006  0.1533344E+03  0.7546771E-02  0.1205008E+00
          2   -1    0    0  501    0  0.00000000000E+00  0.00000000000E+00  0.41509395107E+03  0.41509395107E+03  0.00000000000E+00 0. -1.
         -2   -1    0    0    0  501 -0.00000000000E+00 -0.00000000000E+00 -0.49657559414E+02  0.49657559414E+02  0.00000000000E+00 0.  1.
         23    2    1    2    0    0 -0.37131253742E+01  0.88719491929E+02  0.24784717887E+03  0.29144409322E+03  0.12500599926E+03 0.  0.
          5    1    3    3  502    0  0.40584461484E+02  0.35705994401E+02  0.28219405548E+02  0.61159148127E+02  0.47000000000E+01 0.  1.
         -5    1    3    3    0  502 -0.44297586858E+02  0.53013497528E+02  0.21962777332E+03  0.23028494509E+03  0.47000000000E+01 0.  1.
        -11    1    1    2    0    0 -0.43262766451E+02 -0.42365279080E+02  0.46823450697E+02  0.76543578227E+02  0.00000000000E+00 0.  1.
         11    1    1    2    0    0  0.46975891825E+02 -0.46354212848E+02  0.70765762087E+02  0.96763839037E+02  0.00000000000E+00 0. -1.
<mgrwt>
<rscale>  0 0.14636817E+03</rscale>
<asrwt>0</asrwt>
<pdfrwt beam="1">  1        2 0.63860606E-01 0.15333439E+03</pdfrwt>
<pdfrwt beam="2">  1       -2 0.76396248E-02 0.15333439E+03</pdfrwt>
<totfact> 0.74953682E+03</totfact>
</mgrwt>
</event>
<event>
 7    1  0.5206756E-006  0.1297835E+03  0.7546771E-02  0.1239792E+00
          1   -1    0    0  501    0  0.00000000000E+00  0.00000000000E+00  0.10375917271E+03  0.10375917271E+03  0.00000000000E+00 0. -1.
         -1   -1    0    0    0  501 -0.00000000000E+00 -0.00000000000E+00 -0.17931379178E+03  0.17931379178E+03  0.00000000000E+00 0.  1.
         23    2    1    2    0    0 -0.28820649309E+02 -0.19640652216E+02  0.33607347283E+02  0.13406423386E+03  0.12500951949E+03 0.  0.
          5    1    3    3  502    0 -0.12349624508E+02 -0.31979105526E+02 -0.42660476598E+02  0.54928887475E+02  0.47000000000E+01 0.  1.
         -5    1    3    3    0  502 -0.16471024801E+02  0.12338453310E+02  0.76267823881E+02  0.79135346386E+02  0.47000000000E+01 0.  1.
        -11    1    1    2    0    0 -0.11514459812E+02 -0.14954918534E+02  0.78919130443E+01  0.20457630963E+02  0.00000000000E+00 0. -1.
         11    1    1    2    0    0  0.40335109121E+02  0.34595570749E+02 -0.11705387940E+03  0.12855109967E+03  0.00000000000E+00 0.  1.
<mgrwt>
<rscale>  0 0.12202595E+03</rscale>
<asrwt>0</asrwt>
<pdfrwt beam="1">  1        1 0.15962950E-01 0.12978353E+03</pdfrwt>
<pdfrwt beam="2">  1       -1 0.27586737E-01 0.12978353E+03</pdfrwt>
<totfact> 0.38737258E+03</totfact>
</mgrwt>
</event>
<event>
 7    1  0.5206756E-006  0.1511622E+03  0.7546771E-02  0.1208295E+00
         -2   -1    0    0    0  501 -0.00000000000E+00  0.00000000000E+00  0.22288778350E+02  0.22288778350E+02  0.00000000000E+00 0.  1.
          2   -1    0    0  501    0  0.00000000000E+00 -0.00000000000E+00 -0.86103257289E+03  0.86103257289E+03  0.00000000000E+00 0. -1.
         23    2    1    2    0    0 -0.79200436280E+02 -0.30860662372E+02 -0.51420115164E+03  0.53595974376E+03  0.12499973199E+03 0.  0.
          5    1    3    3  502    0 -0.10119246746E+03  0.61318089323E+01 -0.42301441150E+03  0.43501815696E+03  0.47000000000E+01 0. -1.
         -5    1    3    3    0  502  0.21992031176E+02 -0.36992471304E+02 -0.91186740143E+02  0.10094158680E+03  0.47000000000E+01 0. -1.
        -11    1    1    2    0    0 -0.65451476532E+01  0.35466866337E+02 -0.70335534696E+02  0.79043184441E+02  0.00000000000E+00 0. -1.
         11    1    1    2    0    0  0.85745583934E+02 -0.46062039654E+01 -0.25420710820E+03  0.26831842303E+03  0.00000000000E+00 0.  1.
<mgrwt>
<rscale>  0 0.14380795E+03</rscale>
<asrwt>0</asrwt>
<pdfrwt beam="2">  1        2 0.13246653E+00 0.15116224E+03</pdfrwt>
<pdfrwt beam="1">  1       -2 0.34290433E-02 0.15116224E+03</pdfrwt>
<totfact> 0.10797761E+04</totfact>
</mgrwt>
</event>
<event>
 6    1  0.5206756E-006  0.1767257E+03  0.7546771E-02  0.1178414E+00
          2   -1    0    0  501    0  0.00000000000E+00  0.00000000000E+00  0.17224583005E+04  0.17224583005E+04  0.00000000000E+00 0. -1.
         -2   -1    0    0    0  501 -0.00000000000E+00 -0.00000000000E+00 -0.16439855887E+02  0.16439855887E+02  0.00000000000E+00 0.  1.
          5    1    1    2  502    0 -0.59259203786E+02  0.95980160417E+02  0.87552838107E+03  0.88277736746E+03  0.47000000000E+01 0. -1.
         -5    1    1    2    0  502 -0.43989337494E+02 -0.37602912310E+02  0.25862549327E+03  0.26506277860E+03  0.47000000000E+01 0.  1.
        -11    1    1    2    0    0 -0.14271484742E+02 -0.19406212164E+02  0.65900383732E+02  0.70165069111E+02  0.00000000000E+00 0. -1.
         11    1    1    2    0    0  0.11752002602E+03 -0.38971035943E+02  0.50596418650E+03  0.52089294119E+03  0.00000000000E+00 0.  1.
<mgrwt>
<rscale>  0 0.16945829E+03</rscale>
<asrwt>0</asrwt>
<pdfrwt beam="1">  1        2 0.26499344E+00 0.17672575E+03</pdfrwt>
<pdfrwt beam="2">  1       -2 0.25292100E-02 0.17672575E+03</pdfrwt>
<totfact> 0.56383290E+03</totfact>
</mgrwt>
</event>
<event>
 7    1  0.5206756E-006  0.1360945E+03  0.7546771E-02  0.1229599E+00
         -2   -1    0    0    0  501 -0.00000000000E+00  0.00000000000E+00  0.33228595478E+02  0.33228595478E+02  0.00000000000E+00 0. -1.
          2   -1    0    0  501    0  0.00000000000E+00 -0.00000000000E+00 -0.45381388514E+03  0.45381388514E+03  0.00000000000E+00 0.  1.
         23    2    1    2    0    0 -0.46288586011E+02 -0.27470173937E+02 -0.25693161762E+03  0.29075002849E+03  0.12499791713E+03 0.  0.
          5    1    3    3  502    0 -0.41574786191E+02  0.62336751823E+01 -0.12775181035E+02  0.44188423864E+02  0.47000000000E+01 0.  1.
         -5    1    3    3    0  502 -0.47137998208E+01 -0.33703849119E+02 -0.24415643658E+03  0.24656160463E+03  0.47000000000E+01 0.  1.
        -11    1    1    2    0    0  0.27093677269E+02 -0.32810280945E+02 -0.87438267021E+02  0.97242132963E+02  0.00000000000E+00 0. -1.
         11    1    1    2    0    0  0.19194908743E+02  0.60280454882E+02 -0.76215405022E+02  0.99050319157E+02  0.00000000000E+00 0.  1.
<mgrwt>
<rscale>  0 0.12856624E+03</rscale>
<asrwt>0</asrwt>
<pdfrwt beam="2">  1        2 0.69817514E-01 0.13609454E+03</pdfrwt>
<pdfrwt beam="1">  1       -2 0.51120921E-02 0.13609454E+03</pdfrwt>
<totfact> 0.12448270E+04</totfact>
</mgrwt>
</event>
<event>
 7    1  0.5206756E-006  0.1433065E+03  0.7546771E-02  0.1219214E+00
          1   -1    0    0  501    0  0.00000000000E+00  0.00000000000E+00  0.31913285683E+03  0.31913285683E+03  0.00000000000E+00 0. -1.
         -1   -1    0    0    0  501 -0.00000000000E+00 -0.00000000000E+00 -0.60962901984E+02  0.60962901984E+02  0.00000000000E+00 0.  1.
         23    2    1    2    0    0  0.49547827057E+02  0.49566716949E+02  0.21206787768E+03  0.25594831424E+03  0.12499963289E+03 0.  0.
          5    1    3    3  502    0  0.44740310721E+02  0.66761470572E+02  0.54302519700E+02  0.97106348929E+02  0.47000000000E+01 0. -1.
         -5    1    3    3    0  502  0.48075163353E+01 -0.17194753623E+02  0.15776535798E+03  0.15884196531E+03  0.47000000000E+01 0. -1.
        -11    1    1    2    0    0 -0.37558106120E+02 -0.73954815657E+02  0.49760116451E+02  0.96726393934E+02  0.00000000000E+00 0. -1.
         11    1    1    2    0    0 -0.11989720937E+02  0.24388098708E+02 -0.36580392868E+01  0.27421050640E+02  0.00000000000E+00 0.  1.
<mgrwt>
<rscale>  0 0.13571522E+03</rscale>
<asrwt>0</asrwt>
<pdfrwt beam="1">  1        1 0.49097361E-01 0.14330651E+03</pdfrwt>
<pdfrwt beam="2">  1       -1 0.93789082E-02 0.14330651E+03</pdfrwt>
<totfact> 0.52441337E+03</totfact>
</mgrwt>
</event>
<event>
 7    1  0.5206756E-006  0.1413249E+03  0.7546771E-02  0.1213324E+00
         -1   -1    0    0    0  501 -0.00000000000E+00  0.00000000000E+00  0.45303971640E+02  0.45303971640E+02  0.00000000000E+00 0.  1.
          1   -1    0    0  501    0  0.00000000000E+00 -0.00000000000E+00 -0.47180396374E+03  0.47180396374E+03  0.00000000000E+00 0. -1.
         23    2    1    2    0    0 -0.96452093470E+01  0.65262760942E+02 -0.29849305498E+03  0.33025871809E+03  0.12498183457E+03 0.  0.
          5    1    3    3  502    0  0.51123392779E+02 -0.87937579628E+00 -0.10493108965E+03  0.11682036709E+03  0.47000000000E+01 0. -1.
         -5    1    3    3    0  502 -0.60768602126E+02  0.66142136739E+02 -0.19356196533E+03  0.21343835100E+03  0.47000000000E+01 0. -1.
        -11    1    1    2    0    0 -0.19428662012E+02 -0.54408190909E+02 -0.27862605092E+01  0.57840188392E+02  0.00000000000E+00 0.  1.
         11    1    1    2    0    0  0.29073871359E+02 -0.10854570033E+02 -0.12522067661E+03  0.12900902890E+03  0.00000000000E+00 0. -1.
<mgrwt>
<rscale>  0 0.14000358E+03</rscale>
<asrwt>0</asrwt>
<pdfrwt beam="2">  1        1 0.72585225E-01 0.14132486E+03</pdfrwt>
<pdfrwt beam="1">  1       -1 0.69698418E-02 0.14132486E+03</pdfrwt>
<totfact> 0.50110041E+03</totfact>
</mgrwt>
</event>
<event>
 7    1  0.5206756E-006  0.3901473E+03  0.7546771E-02  0.1048089E+00
         -2   -1    0    0    0  501 -0.00000000000E+00  0.00000000000E+00  0.14609666213E+03  0.14609666213E+03  0.00000000000E+00 0.  1.
          2   -1    0    0  501    0  0.00000000000E+00 -0.00000000000E+00 -0.11353499544E+04  0.11353499544E+04  0.00000000000E+00 0. -1.
         23    2    1    2    0    0 -0.25909510857E+03  0.26353822569E+03 -0.70671745836E+03  0.80725738864E+03  0.12502901215E+03 0.  0.
          5    1    3    3  502    0 -0.26534416763E+03  0.21676796818E+03 -0.62552980463E+03  0.71323593978E+03  0.47000000000E+01 0.  1.
         -5    1    3    3    0  502  0.62490590537E+01  0.46770257514E+02 -0.81187653734E+02  0.94021448861E+02  0.47000000000E+01 0.  1.
        -11    1    1    2    0    0  0.10374604713E+03 -0.49607885453E+02 -0.10504299543E+03  0.15575049112E+03  0.00000000000E+00 0.  1.
         11    1    1    2    0    0  0.15534906144E+03 -0.21393034024E+03 -0.17749283851E+03  0.31843873679E+03  0.00000000000E+00 0. -1.
<mgrwt>
<rscale>  0 0.38779597E+03</rscale>
<asrwt>0</asrwt>
<pdfrwt beam="2">  1        2 0.17466922E+00 0.39014731E+03</pdfrwt>
<pdfrwt beam="1">  1       -2 0.22476410E-01 0.39014731E+03</pdfrwt>
<totfact> 0.37140616E+02</totfact>
</mgrwt>
</event>
<event>
 7    1  0.5206756E-006  0.1593477E+03  0.7546771E-02  0.1196297E+00
          2   -1    0    0  501    0  0.00000000000E+00  0.00000000000E+00  0.39788512955E+03  0.39788512955E+03  0.00000000000E+00 0. -1.
         -2   -1    0    0    0  501 -0.00000000000E+00 -0.00000000000E+00 -0.55532837426E+02  0.55532837426E+02  0.00000000000E+00 0.  1.
         23    2    1    2    0    0  0.98756618650E+02  0.35166971342E+01  0.16629102587E+03  0.23031367187E+03  0.12500578098E+03 0.  0.
          5    1    3    3  502    0  0.39779765311E+02 -0.42964624844E+02  0.13902904287E+02  0.60363643560E+02  0.47000000000E+01 0. -1.
         -5    1    3    3    0  502  0.58976853339E+02  0.46481321978E+02  0.15238812159E+03  0.16995002831E+03  0.47000000000E+01 0. -1.
        -11    1    1    2    0    0 -0.33609888620E+02 -0.46035290486E+02  0.94743237088E+02  0.11056741634E+03  0.00000000000E+00 0. -1.
         11    1    1    2    0    0 -0.65146730030E+02  0.42518593352E+02  0.81318029162E+02  0.11253687876E+03  0.00000000000E+00 0.  1.
<mgrwt>
<rscale>  0 0.15344945E+03</rscale>
<asrwt>0</asrwt>
<pdfrwt beam="1">  1        2 0.61213095E-01 0.15934768E+03</pdfrwt>
<pdfrwt beam="2">  1       -2 0.85435137E-02 0.15934768E+03</pdfrwt>
<totfact> 0.66111136E+03</totfact>
</mgrwt>
</event>
<event>
 7    1  0.5206756E-006  0.1323466E+03  0.7546771E-02  0.1278918E+00
         -4   -1    0    0    0  501 -0.00000000000E+00  0.00000000000E+00  0.26510703475E+03  0.26510703475E+03  0.00000000000E+00 0.  1.
          4   -1    0    0  501    0  0.00000000000E+00 -0.00000000000E+00 -0.29501309796E+02  0.29501309796E+02  0.00000000000E+00 0. -1.
         23    2    1    2    0    0  0.32591905369E+02 -0.27510250344E+02  0.16970307355E+03  0.21520860752E+03  0.12528593459E+03 0.  0.
          5    1    3    3  502    0  0.76296667477E+02 -0.68411273136E+01  0.68154172656E+02  0.10264045860E+03  0.47000000000E+01 0. -1.
         -5    1    3    3    0  502 -0.43704762108E+02 -0.20669123030E+02  0.10154890089E+03  0.11256814892E+03  0.47000000000E+01 0.  1.
        -11    1    1    2    0    0 -0.18082556832E+02  0.75760801696E+01  0.27897655680E+02  0.34097727853E+02  0.00000000000E+00 0.  1.
         11    1    1    2    0    0 -0.14509348537E+02  0.19934170174E+02  0.38004995725E+02  0.45302009178E+02  0.00000000000E+00 0. -1.
<mgrwt>
<rscale>  0 0.10065807E+03</rscale>
<asrwt>0</asrwt>
<pdfrwt beam="2">  1        4 0.45386632E-02 0.13234656E+03</pdfrwt>
<pdfrwt beam="1">  1       -4 0.40785696E-01 0.13234656E+03</pdfrwt>
<totfact> 0.26666577E+03</totfact>
</mgrwt>
</event>
<event>
 7    1  0.5206756E-006  0.1532531E+03  0.7546771E-02  0.1205759E+00
          2   -1    0    0  501    0  0.00000000000E+00  0.00000000000E+00  0.56034505552E+03  0.56034505552E+03  0.00000000000E+00 0.  1.
         -2   -1    0    0    0  501 -0.00000000000E+00 -0.00000000000E+00 -0.37524969783E+02  0.37524969783E+02  0.00000000000E+00 0. -1.
         23    2    1    2    0    0 -0.13329143526E+02  0.87646994008E+02  0.36769933304E+03  0.39835828796E+03  0.12500745756E+03 0.  0.
          5    1    3    3  502    0 -0.56308189928E+02  0.11756266630E+02  0.87152661105E+02  0.10452989235E+03  0.47000000000E+01 0. -1.
         -5    1    3    3    0  502  0.42979046402E+02  0.75890727377E+02  0.28054667193E+03  0.29382839561E+03  0.47000000000E+01 0. -1.
        -11    1    1    2    0    0  0.20711976827E+02 -0.40744380420E+01  0.92347389254E+02  0.94729231663E+02  0.00000000000E+00 0.  1.
         11    1    1    2    0    0 -0.73828333005E+01 -0.83572555966E+02  0.62773363444E+02  0.10478250568E+03  0.00000000000E+00 0. -1.
<mgrwt>
<rscale>  0 0.14577774E+03</rscale>
<asrwt>0</asrwt>
<pdfrwt beam="1">  1        2 0.86206925E-01 0.15325314E+03</pdfrwt>
<pdfrwt beam="2">  1       -2 0.57730727E-02 0.15325314E+03</pdfrwt>
<totfact> 0.82761909E+03</totfact>
</mgrwt>
</event>
<event>
 7    1  0.5206756E-006  0.1257937E+03  0.7546771E-02  0.1251577E+00
          1   -1    0    0  501    0  0.00000000000E+00  0.00000000000E+00  0.50662622445E+03  0.50662622445E+03  0.00000000000E+00 0. -1.
         -1   -1    0    0    0  501 -0.00000000000E+00 -0.00000000000E+00 -0.31262757666E+02  0.31262757666E+02  0.00000000000E+00 0.  1.
         23    2    1    2    0    0 -0.39407733483E+01 -0.13454001509E+02  0.40861578004E+03  0.42754052997E+03  0.12501003646E+03 0.  0.
          5    1    3    3  502    0 -0.35205803525E+02 -0.47939088951E+02  0.10869895486E+03  0.12399660334E+03  0.47000000000E+01 0.  1.
         -5    1    3    3    0  502  0.31265030177E+02  0.34485087441E+02  0.29991682519E+03  0.30354392664E+03  0.47000000000E+01 0.  1.
        -11    1    1    2    0    0  0.39269331908E+02  0.27017378219E+02  0.49635854300E+02  0.68816692644E+02  0.00000000000E+00 0. -1.
         11    1    1    2    0    0 -0.35328558560E+02 -0.13563376710E+02  0.17111832435E+02  0.41531759498E+02  0.00000000000E+00 0.  1.
<mgrwt>
<rscale>  0 0.11500243E+03</rscale>
<asrwt>0</asrwt>
<pdfrwt beam="1">  1        1 0.77942490E-01 0.12579368E+03</pdfrwt>
<pdfrwt beam="2">  1       -1 0.48096554E-02 0.12579368E+03</pdfrwt>
<totfact> 0.78775796E+03</totfact>
</mgrwt>
</event>
<event>
 7    1  0.5206756E-006  0.1737894E+03  0.7546771E-02  0.1176557E+00
         -2   -1    0    0    0  501 -0.00000000000E+00  0.00000000000E+00  0.45422730961E+02  0.45422730961E+02  0.00000000000E+00 0. -1.
          2   -1    0    0  501    0  0.00000000000E+00 -0.00000000000E+00 -0.70182191925E+03  0.70182191925E+03  0.00000000000E+00 0.  1.
         23    2    1    2    0    0  0.20162748747E+02  0.11903527548E+03 -0.45850975262E+03  0.49034063810E+03  0.12500725930E+03 0.  0.
          5    1    3    3  502    0 -0.46375504662E+02  0.18386488605E+02 -0.17864115180E+03  0.18553571493E+03  0.47000000000E+01 0.  1.
         -5    1    3    3    0  502  0.66538253409E+02  0.10064878687E+03 -0.27986860082E+03  0.30480492317E+03  0.47000000000E+01 0.  1.
        -11    1    1    2    0    0 -0.47865000623E+02 -0.11455652708E+03 -0.11439809859E+03  0.16882292837E+03  0.00000000000E+00 0. -1.
         11    1    1    2    0    0  0.27702251876E+02 -0.44787483938E+01 -0.83491337084E+02  0.88081083748E+02  0.00000000000E+00 0.  1.
<mgrwt>
<rscale>  0 0.17124351E+03</rscale>
<asrwt>0</asrwt>
<pdfrwt beam="2">  1        2 0.10797261E+00 0.17378938E+03</pdfrwt>
<pdfrwt beam="1">  1       -2 0.69881123E-02 0.17378938E+03</pdfrwt>
<totfact> 0.47896470E+03</totfact>
</mgrwt>
</event>
<event>
 7    1  0.2238044E-005  0.4784669E+03  0.7546771E-02  0.1020070E+00
         -1   -1    0    0    0  501 -0.00000000000E+00  0.00000000000E+00  0.11253339718E+03  0.11253339718E+03  0.00000000000E+00 0.  1.
          1   -1    0    0  501    0  0.00000000000E+00 -0.00000000000E+00 -0.20822603896E+04  0.20822603896E+04  0.00000000000E+00 0. -1.
         23    2    1    2    0    0  0.44819121918E+03 -0.11148965696E+03 -0.77830163941E+03  0.91361042680E+03  0.12500102991E+03 0.  0.
          5    1    3    3  502    0  0.41074613591E+03 -0.92549852905E+02 -0.75721117110E+03  0.86641139829E+03  0.47000000000E+01 0. -1.
         -5    1    3    3    0  502  0.37445083270E+02 -0.18939804053E+02 -0.21090468309E+02  0.47199028509E+02  0.47000000000E+01 0. -1.
        -11    1    1    2    0    0 -0.33574829630E+03  0.12230049128E+03 -0.87207658503E+03  0.94244463964E+03  0.00000000000E+00 0. -1.
         11    1    1    2    0    0 -0.11244292287E+03 -0.10810834325E+02 -0.31934876796E+03  0.33873872031E+03  0.00000000000E+00 0.  1.
<mgrwt>
<rscale>  0 0.47661477E+03</rscale>
<asrwt>0</asrwt>
<pdfrwt beam="2">  1        1 0.32034773E+00 0.47846690E+03</pdfrwt>
<pdfrwt beam="1">  1       -1 0.17312831E-01 0.47846690E+03</pdfrwt>
<totfact> 0.73030953E+01</totfact>
</mgrwt>
</event>
<event>
 7    1  0.5206756E-006  0.1300617E+03  0.7546771E-02  0.1241298E+00
         -2   -1    0    0    0  501 -0.00000000000E+00  0.00000000000E+00  0.14147359121E+03  0.14147359121E+03  0.00000000000E+00 0.  1.
          2   -1    0    0  501    0  0.00000000000E+00 -0.00000000000E+00 -0.12005404802E+03  0.12005404802E+03  0.00000000000E+00 0. -1.
         23    2    1    2    0    0  0.33021755148E+02  0.14120095157E+02 -0.51182331402E+02  0.13977012152E+03  0.12500496958E+03 0.  0.
          5    1    3    3  502    0 -0.38172985749E+02  0.22334733435E+02  0.98103408458E+01  0.45545032068E+02  0.47000000000E+01 0.  1.
         -5    1    3    3    0  502  0.71194740897E+02 -0.82146382777E+01 -0.60992672248E+02  0.94225089447E+02  0.47000000000E+01 0.  1.
        -11    1    1    2    0    0  0.88994211189E+01 -0.26163340524E+02  0.73087820292E+02  0.78138016091E+02  0.00000000000E+00 0.  1.
         11    1    1    2    0    0 -0.41921176267E+02  0.12043245367E+02 -0.48594570915E+00  0.43619501623E+02  0.00000000000E+00 0. -1.
<mgrwt>
<rscale>  0 0.12109732E+03</rscale>
<asrwt>0</asrwt>
<pdfrwt beam="2">  1        2 0.18469854E-01 0.13006174E+03</pdfrwt>
<pdfrwt beam="1">  1       -2 0.21765168E-01 0.13006174E+03</pdfrwt>
<totfact> 0.52514696E+03</totfact>
</mgrwt>
</event>
<event>
 6    1  0.5206756E-006  0.2267432E+03  0.7546771E-02  0.1150025E+00
          2   -1    0    0  501    0  0.00000000000E+00  0.00000000000E+00  0.70580631390E+03  0.70580631390E+03  0.00000000000E+00 0. -1.
         -2   -1    0    0    0  501 -0.00000000000E+00 -0.00000000000E+00 -0.52986231274E+02  0.52986231274E+02  0.00000000000E+00 0.  1.
          5    1    1    2  502    0  0.11173584466E+03  0.66438944170E+02  0.51321430878E+03  0.52944314994E+03  0.47000000000E+01 0. -1.
         -5    1    1    2    0  502 -0.40522475442E+02 -0.27339629429E+01  0.11976048468E+02  0.42603536311E+02  0.47000000000E+01 0.  1.
        -11    1    1    2    0    0 -0.11835702181E+02  0.24792607066E+02  0.41261209408E+02  0.49570602307E+02  0.00000000000E+00 0. -1.
         11    1    1    2    0    0 -0.59377667036E+02 -0.88497588294E+02  0.86368515973E+02  0.13717525662E+03  0.00000000000E+00 0.  1.
<mgrwt>
<rscale>  0 0.19966187E+03</rscale>
<asrwt>0</asrwt>
<pdfrwt beam="1">  1        2 0.10858558E+00 0.22674325E+03</pdfrwt>
<pdfrwt beam="2">  1       -2 0.81517284E-02 0.22674325E+03</pdfrwt>
<totfact> 0.37800341E+03</totfact>
</mgrwt>
</event>
<event>
 7    1  0.5206756E-006  0.1461831E+03  0.7546771E-02  0.1215148E+00
          1   -1    0    0  501    0  0.00000000000E+00  0.00000000000E+00  0.89920611329E+02  0.89920611329E+02  0.00000000000E+00 0. -1.
         -1   -1    0    0    0  501 -0.00000000000E+00 -0.00000000000E+00 -0.26978940520E+03  0.26978940520E+03  0.00000000000E+00 0.  1.
         23    2    1    2    0    0  0.50643503998E+02 -0.56374898644E+02 -0.21423466140E+01  0.14619884582E+03  0.12500647654E+03 0.  0.
          5    1    3    3  502    0 -0.66240430746E+01  0.20990524647E+02 -0.37343440023E+02  0.43601635111E+02  0.47000000000E+01 0.  1.
         -5    1    3    3    0  502  0.57267547073E+02 -0.77365423291E+02  0.35201093409E+02  0.10259721071E+03  0.47000000000E+01 0.  1.
        -11    1    1    2    0    0 -0.66928264037E+00  0.47049550798E+02 -0.14645001681E+03  0.15382365095E+03  0.00000000000E+00 0.  1.
         11    1    1    2    0    0 -0.49974221358E+02  0.93253478454E+01 -0.31276430454E+02  0.59687519757E+02  0.00000000000E+00 0. -1.
<mgrwt>
<rscale>  0 0.13865651E+03</rscale>
<asrwt>0</asrwt>
<pdfrwt beam="1">  1        1 0.13833940E-01 0.14618315E+03</pdfrwt>
<pdfrwt beam="2">  1       -1 0.41506062E-01 0.14618315E+03</pdfrwt>
<totfact> 0.23329168E+03</totfact>
</mgrwt>
</event>
<event>
 7    1  0.5206756E-006  0.2207803E+03  0.7546771E-02  0.1136545E+00
         -2   -1    0    0    0  501 -0.00000000000E+00  0.00000000000E+00  0.70683294454E+03  0.70683294454E+03  0.00000000000E+00 0.  1.
          2   -1    0    0  501    0  0.00000000000E+00 -0.00000000000E+00 -0.66950949297E+02  0.66950949297E+02  0.00000000000E+00 0. -1.
         23    2    1    2    0    0 -0.76635490131E+02  0.16506644487E+03  0.24845488317E+03  0.33237594880E+03  0.12499605115E+03 0.  0.
          5    1    3    3  502    0 -0.18967793173E+02  0.62339772887E+02  0.96329363745E+01  0.66037170780E+02  0.47000000000E+01 0.  1.
         -5    1    3    3    0  502 -0.57667696958E+02  0.10272667198E+03  0.23882194679E+03  0.26633877802E+03  0.47000000000E+01 0.  1.
        -11    1    1    2    0    0  0.35197630513E+02 -0.98547626185E+02  0.12158820187E+03  0.16041882263E+03  0.00000000000E+00 0. -1.
         11    1    1    2    0    0  0.41437859618E+02 -0.66518818681E+02  0.26983891021E+03  0.28098912241E+03  0.00000000000E+00 0.  1.
<mgrwt>
<rscale>  0 0.21646643E+03</rscale>
<asrwt>0</asrwt>
<pdfrwt beam="2">  1        2 0.10300147E-01 0.22078030E+03</pdfrwt>
<pdfrwt beam="1">  1       -2 0.10874352E+00 0.22078030E+03</pdfrwt>
<totfact> 0.43347478E+02</totfact>
</mgrwt>
</event>
<event>
 7    1  0.5206756E-006  0.1254354E+03  0.7546771E-02  0.1250255E+00
          1   -1    0    0  501    0  0.00000000000E+00  0.00000000000E+00  0.66301757404E+03  0.66301757404E+03  0.00000000000E+00 0. -1.
         -1   -1    0    0    0  501 -0.00000000000E+00 -0.00000000000E+00 -0.38734576444E+02  0.38734576444E+02  0.00000000000E+00 0.  1.
         23    2    1    2    0    0 -0.67916860560E+00  0.10214339494E+02  0.59208767659E+03  0.60522876404E+03  0.12501698308E+03 0.  0.
          5    1    3    3  502    0  0.11676895522E+02 -0.33709945249E+02  0.52227123718E+02  0.63422967052E+02  0.47000000000E+01 0. -1.
         -5    1    3    3    0  502 -0.12356064127E+02  0.43924284743E+02  0.53986055287E+03  0.54180579699E+03  0.47000000000E+01 0. -1.
        -11    1    1    2    0    0  0.19623179132E+02  0.31121786805E+02 -0.58274744655E+01  0.37250425928E+02  0.00000000000E+00 0.  1.
         11    1    1    2    0    0 -0.18944010526E+02 -0.41336126299E+02  0.38022795475E+02  0.59272960513E+02  0.00000000000E+00 0. -1.
<mgrwt>
<rscale>  0 0.11576316E+03</rscale>
<asrwt>0</asrwt>
<pdfrwt beam="1">  1        1 0.10200270E+00 0.12543540E+03</pdfrwt>
<pdfrwt beam="2">  1       -1 0.59591661E-02 0.12543540E+03</pdfrwt>
<totfact> 0.39921658E+03</totfact>
</mgrwt>
</event>
<event>
 7    1  0.5206756E-006  0.1489899E+03  0.7546771E-02  0.1210045E+00
          2   -1    0    0  501    0  0.00000000000E+00  0.00000000000E+00  0.79522638250E+03  0.79522638250E+03  0.00000000000E+00 0. -1.
         -2   -1    0    0    0  501 -0.00000000000E+00 -0.00000000000E+00 -0.25677781666E+02  0.25677781666E+02  0.00000000000E+00 0.  1.
         23    2    1    2    0    0 -0.18536731731E+02  0.78952294391E+02  0.53461857381E+03  0.55499100989E+03  0.12498370449E+03 0.  0.
          5    1    3    3  502    0 -0.10251141472E+02  0.10893213497E+03  0.47631566723E+03  0.48874328719E+03  0.47000000000E+01 0.  1.
         -5    1    3    3    0  502 -0.82855902591E+01 -0.29979840577E+02  0.58302906582E+02  0.66247722700E+02  0.47000000000E+01 0.  1.
        -11    1    1    2    0    0 -0.11909041790E+02  0.24888454063E+01 -0.30540596597E+01  0.12543799592E+02  0.00000000000E+00 0.  1.
         11    1    1    2    0    0  0.30445773520E+02 -0.81441139797E+02  0.23798408668E+03  0.25336935468E+03  0.00000000000E+00 0. -1.
<mgrwt>
<rscale>  0 0.14246923E+03</rscale>
<asrwt>0</asrwt>
<pdfrwt beam="1">  1        2 0.12234250E+00 0.14898994E+03</pdfrwt>
<pdfrwt beam="2">  1       -2 0.39504285E-02 0.14898994E+03</pdfrwt>
<totfact> 0.96697781E+03</totfact>
</mgrwt>
</event>
<event>
 7    1  0.5206756E-006  0.1317004E+03  0.7546771E-02  0.1238188E+00
          2   -1    0    0  501    0  0.00000000000E+00  0.00000000000E+00  0.28913725199E+03  0.28913725199E+03  0.00000000000E+00 0.  1.
         -2   -1    0    0    0  501 -0.00000000000E+00 -0.00000000000E+00 -0.50438745736E+02  0.50438745736E+02  0.00000000000E+00 0. -1.
         23    2    1    2    0    0 -0.30020737962E+02 -0.28680233485E+02  0.18111969644E+03  0.22394048503E+03  0.12498478265E+03 0.  0.
          5    1    3    3  502    0  0.20209833331E+02  0.10051806716E+02  0.15243395317E+03  0.15416768877E+03  0.47000000000E+01 0.  1.
         -5    1    3    3    0  502 -0.50230571293E+02 -0.38732040201E+02  0.28685743273E+02  0.69772796258E+02  0.47000000000E+01 0.  1.
        -11    1    1    2    0    0  0.37771835423E+02  0.45137736024E+01 -0.13340452068E+02  0.40311950644E+02  0.00000000000E+00 0. -1.
         11    1    1    2    0    0 -0.77510974607E+01  0.24166459883E+02  0.70919261878E+02  0.75323562054E+02  0.00000000000E+00 0.  1.
<mgrwt>
<rscale>  0 0.12302542E+03</rscale>
<asrwt>0</asrwt>
<pdfrwt beam="1">  1        2 0.44482653E-01 0.13170040E+03</pdfrwt>
<pdfrwt beam="2">  1       -2 0.77598072E-02 0.13170040E+03</pdfrwt>
<totfact> 0.10641383E+04</totfact>
</mgrwt>
</event>
<event>
 7    1  0.5206756E-006  0.1560429E+03  0.7546771E-02  0.1201659E+00
          2   -1    0    0  501    0  0.00000000000E+00  0.00000000000E+00  0.81783759302E+03  0.81783759302E+03  0.00000000000E+00 0.  1.
         -2   -1    0    0    0  501 -0.00000000000E+00 -0.00000000000E+00 -0.39987920637E+02  0.39987920637E+02  0.00000000000E+00 0. -1.
         23    2    1    2    0    0  0.87541129727E+02  0.32568584857E+02  0.67320264076E+03  0.69105077421E+03  0.12500085957E+03 0.  0.
          5    1    3    3  502    0  0.53149962699E+02 -0.76387220470E+00  0.60626872556E+03  0.60861265155E+03  0.47000000000E+01 0. -1.
         -5    1    3    3    0  502  0.34391167027E+02  0.33332457062E+02  0.66933915203E+02  0.82438122660E+02  0.47000000000E+01 0. -1.
        -11    1    1    2    0    0 -0.12560459072E+02 -0.49980302895E+02  0.53924736255E+02  0.74590032778E+02  0.00000000000E+00 0.  1.
         11    1    1    2    0    0 -0.74980670654E+02  0.17411718038E+02  0.50722295371E+02  0.92184706673E+02  0.00000000000E+00 0. -1.
<mgrwt>
<rscale>  0 0.14903875E+03</rscale>
<asrwt>0</asrwt>
<pdfrwt beam="1">  1        2 0.12582116E+00 0.15604287E+03</pdfrwt>
<pdfrwt beam="2">  1       -2 0.61519884E-02 0.15604287E+03</pdfrwt>
<totfact> 0.48035482E+03</totfact>
</mgrwt>
</event>
<event>
 7    1  0.5206756E-006  0.1266271E+03  0.7546771E-02  0.1247335E+00
          2   -1    0    0  501    0  0.00000000000E+00  0.00000000000E+00  0.47593931745E+02  0.47593931745E+02  0.00000000000E+00 0. -1.
         -2   -1    0    0    0  501 -0.00000000000E+00 -0.00000000000E+00 -0.25578165526E+03  0.25578165526E+03  0.00000000000E+00 0.  1.
         23    2    1    2    0    0  0.78827916364E+01 -0.18660489934E+02 -0.11219769985E+03  0.16918260757E+03  0.12499631420E+03 0.  0.
          5    1    3    3  502    0  0.65603763100E+02 -0.19839785937E+02 -0.61547245060E+02  0.92236783407E+02  0.47000000000E+01 0.  1.
         -5    1    3    3    0  502 -0.57720971464E+02  0.11792960031E+01 -0.50650454788E+02  0.76945824162E+02  0.47000000000E+01 0.  1.
        -11    1    1    2    0    0  0.22499935080E+02 -0.10381145285E+02 -0.87984538759E+02  0.91407299034E+02  0.00000000000E+00 0.  1.
         11    1    1    2    0    0 -0.30382726717E+02  0.29041635220E+02 -0.80054849095E+01  0.42785680403E+02  0.00000000000E+00 0. -1.
<mgrwt>
<rscale>  0 0.11746713E+03</rscale>
<asrwt>0</asrwt>
<pdfrwt beam="1">  1        2 0.73221435E-02 0.12662713E+03</pdfrwt>
<pdfrwt beam="2">  1       -2 0.39351023E-01 0.12662713E+03</pdfrwt>
<totfact> 0.55249479E+03</totfact>
</mgrwt>
</event>
<event>
 6    1  0.5206756E-006  0.1737757E+03  0.7546771E-02  0.1197343E+00
          2   -1    0    0  501    0  0.00000000000E+00  0.00000000000E+00  0.14587278805E+04  0.14587278805E+04  0.00000000000E+00 0. -1.
         -2   -1    0    0    0  501 -0.00000000000E+00 -0.00000000000E+00 -0.17374953787E+02  0.17374953787E+02  0.00000000000E+00 0.  1.
          5    1    1    2  502    0  0.95886721815E+02  0.33275999581E+02  0.81415444328E+03  0.82047005008E+03  0.47000000000E+01 0. -1.
         -5    1    1    2    0  502 -0.60039205846E+02  0.35440569192E+02  0.40010372064E+03  0.40615984225E+03  0.47000000000E+01 0.  1.
        -11    1    1    2    0    0  0.91879101943E+01 -0.40397262366E+02  0.15131386115E+03  0.15688288968E+03  0.00000000000E+00 0. -1.
         11    1    1    2    0    0 -0.45035426164E+02 -0.28319306407E+02  0.75780901618E+02  0.92590052248E+02  0.00000000000E+00 0.  1.
<mgrwt>
<rscale>  0 0.15257575E+03</rscale>
<asrwt>0</asrwt>
<pdfrwt beam="1">  1        2 0.22441958E+00 0.17377573E+03</pdfrwt>
<pdfrwt beam="2">  1       -2 0.26730710E-02 0.17377573E+03</pdfrwt>
<totfact> 0.71346701E+03</totfact>
</mgrwt>
</event>
<event>
 7    1  0.5206756E-006  0.1287251E+03  0.7546771E-02  0.1244695E+00
          1   -1    0    0  501    0  0.00000000000E+00  0.00000000000E+00  0.26875872117E+03  0.26875872117E+03  0.00000000000E+00 0.  1.
         -1   -1    0    0    0  501 -0.00000000000E+00 -0.00000000000E+00 -0.66726051780E+02  0.66726051780E+02  0.00000000000E+00 0. -1.
         23    2    1    2    0    0  0.17086328765E+02 -0.25565340291E+02  0.20413353442E+03  0.24133099553E+03  0.12499848109E+03 0.  0.
          5    1    3    3  502    0  0.63149135208E+02 -0.22467809064E+02  0.60600532345E+02  0.90482762127E+02  0.47000000000E+01 0. -1.
         -5    1    3    3    0  502 -0.46062806442E+02 -0.30975312269E+01  0.14353300208E+03  0.15084823341E+03  0.47000000000E+01 0. -1.
        -11    1    1    2    0    0 -0.11641709455E+02  0.73212729773E+01  0.43028425193E+02  0.45172733054E+02  0.00000000000E+00 0.  1.
         11    1    1    2    0    0 -0.54446193106E+01  0.18244067314E+02 -0.45129290219E+02  0.48981044367E+02  0.00000000000E+00 0. -1.
<mgrwt>
<rscale>  0 0.11903641E+03</rscale>
<asrwt>0</asrwt>
<pdfrwt beam="1">  1        1 0.41347495E-01 0.12872509E+03</pdfrwt>
<pdfrwt beam="2">  1       -1 0.10265547E-01 0.12872509E+03</pdfrwt>
<totfact> 0.56158090E+03</totfact>
</mgrwt>
</event>
<event>
 7    1  0.5949260E-006  0.2042052E+03  0.7546771E-02  0.1150267E+00
         -2   -1    0    0    0  501 -0.00000000000E+00  0.00000000000E+00  0.35511512341E+02  0.35511512341E+02  0.00000000000E+00 0.  1.
          2   -1    0    0  501    0  0.00000000000E+00 -0.00000000000E+00 -0.11454844095E+04  0.11454844095E+04  0.00000000000E+00 0. -1.
         23    2    1    2    0    0 -0.63025398587E+02 -0.14867259333E+03 -0.73170508570E+03  0.75966578518E+03  0.12499612737E+03 0.  0.
          5    1    3    3  502    0 -0.43832046734E+02 -0.11245112456E+02 -0.69529923384E+02  0.83091522557E+02  0.47000000000E+01 0.  1.
         -5    1    3    3    0  502 -0.19193351853E+02 -0.13742748087E+03 -0.66217516231E+03  0.67657426262E+03  0.47000000000E+01 0.  1.
        -11    1    1    2    0    0  0.85053147510E+01  0.10655907071E+02  0.13868370994E+01  0.13704453716E+02  0.00000000000E+00 0.  1.
         11    1    1    2    0    0  0.54520083836E+02  0.13801668626E+03 -0.37965464859E+03  0.40762568298E+03  0.00000000000E+00 0. -1.
<mgrwt>
<rscale>  0 0.19937526E+03</rscale>
<asrwt>0</asrwt>
<pdfrwt beam="2">  1        2 0.17622840E+00 0.20420522E+03</pdfrwt>
<pdfrwt beam="1">  1       -2 0.54633088E-02 0.20420522E+03</pdfrwt>
<totfact> 0.36502184E+03</totfact>
</mgrwt>
</event>
<event>
 7    1  0.5206756E-006  0.1267493E+03  0.7546771E-02  0.1247474E+00
         -2   -1    0    0    0  501 -0.00000000000E+00  0.00000000000E+00  0.14975738474E+03  0.14975738474E+03  0.00000000000E+00 0.  1.
          2   -1    0    0  501    0  0.00000000000E+00 -0.00000000000E+00 -0.81849891329E+02  0.81849891329E+02  0.00000000000E+00 0. -1.
         23    2    1    2    0    0  0.20501906410E+02  0.44939577001E+01  0.26040784658E+02  0.12939666471E+03  0.12499940220E+03 0.  0.
          5    1    3    3  502    0 -0.27426621293E+02  0.15617009005E+02  0.61010057868E+02  0.68850763880E+02  0.47000000000E+01 0. -1.
         -5    1    3    3    0  502  0.47928527703E+02 -0.11123051304E+02 -0.34969273210E+02  0.60545900827E+02  0.47000000000E+01 0. -1.
        -11    1    1    2    0    0 -0.38045631132E+02  0.27568760915E+02  0.45597077386E+02  0.65472132184E+02  0.00000000000E+00 0. -1.
         11    1    1    2    0    0  0.17543724722E+02 -0.32062718615E+02 -0.37303686334E+01  0.36738479178E+02  0.00000000000E+00 0.  1.
<mgrwt>
<rscale>  0 0.11738502E+03</rscale>
<asrwt>0</asrwt>
<pdfrwt beam="2">  1        2 0.12592291E-01 0.12674926E+03</pdfrwt>
<pdfrwt beam="1">  1       -2 0.23039598E-01 0.12674926E+03</pdfrwt>
<totfact> 0.74317215E+03</totfact>
</mgrwt>
</event>
<event>
 7    1  0.5206756E-006  0.1304277E+03  0.7546771E-02  0.1231384E+00
          1   -1    0    0  501    0  0.00000000000E+00  0.00000000000E+00  0.18600869323E+04  0.18600869323E+04  0.00000000000E+00 0. -1.
         -1   -1    0    0    0  501 -0.00000000000E+00 -0.00000000000E+00 -0.10479164503E+02  0.10479164503E+02  0.00000000000E+00 0.  1.
         23    2    1    2    0    0  0.13949665481E+02  0.38195510154E+02  0.13816290029E+04  0.13877716305E+04  0.12392702088E+03 0.  0.
          5    1    3    3  502    0  0.49969302618E+02  0.81436401489E+01  0.11632939660E+04  0.11644046511E+04  0.47000000000E+01 0. -1.
         -5    1    3    3    0  502 -0.36019637137E+02  0.30051870005E+02  0.21833503693E+03  0.22336697943E+03  0.47000000000E+01 0.  1.
        -11    1    1    2    0    0 -0.53338817221E+02 -0.48175783003E+02  0.36652983239E+03  0.37351044634E+03  0.00000000000E+00 0.  1.
         11    1    1    2    0    0  0.39389151740E+02  0.99802728491E+01  0.10144893251E+03  0.10928402000E+03  0.00000000000E+00 0. -1.
<mgrwt>
<rscale>  0 0.12738767E+03</rscale>
<asrwt>0</asrwt>
<pdfrwt beam="1">  1        1 0.28616696E+00 0.13042775E+03</pdfrwt>
<pdfrwt beam="2">  1       -1 0.16121806E-02 0.13042775E+03</pdfrwt>
<totfact> 0.38705486E+03</totfact>
</mgrwt>
</event>
<event>
 6    1  0.5206756E-006  0.2075653E+03  0.7546771E-02  0.1187944E+00
          2   -1    0    0  501    0  0.00000000000E+00  0.00000000000E+00  0.97815345529E+03  0.97815345529E+03  0.00000000000E+00 0. -1.
         -2   -1    0    0    0  501 -0.00000000000E+00 -0.00000000000E+00 -0.32494958245E+02  0.32494958245E+02  0.00000000000E+00 0.  1.
          5    1    1    2  502    0 -0.57130968616E+02 -0.17176540994E+02  0.63066206792E+03  0.63349484216E+03  0.47000000000E+01 0. -1.
         -5    1    1    2    0  502  0.68551935468E+02  0.83000528911E+02  0.26851219554E+03  0.28932567257E+03  0.47000000000E+01 0.  1.
        -11    1    1    2    0    0  0.40932180514E+01 -0.48201626860E+02  0.41699097060E+02  0.63866782928E+02  0.00000000000E+00 0.  1.
         11    1    1    2    0    0 -0.15514184903E+02 -0.17622361057E+02  0.47851365315E+01  0.23961115877E+02  0.00000000000E+00 0. -1.
<mgrwt>
<rscale>  0 0.16066880E+03</rscale>
<asrwt>0</asrwt>
<pdfrwt beam="1">  1        2 0.15048512E+00 0.20756528E+03</pdfrwt>
<pdfrwt beam="2">  1       -2 0.49992251E-02 0.20756528E+03</pdfrwt>
<totfact> 0.52508993E+03</totfact>
</mgrwt>
</event>
<event>
 7    1  0.5206756E-006  0.1261483E+03  0.7546771E-02  0.1249937E+00
         -1   -1    0    0    0  501 -0.00000000000E+00  0.00000000000E+00  0.15148048183E+02  0.15148048183E+02  0.00000000000E+00 0.  1.
          1   -1    0    0  501    0  0.00000000000E+00 -0.00000000000E+00 -0.77528715781E+03  0.77528715781E+03  0.00000000000E+00 0. -1.
         23    2    1    2    0    0 -0.12189119599E+02  0.11963698810E+02 -0.47126530833E+03  0.48785692386E+03  0.12498672970E+03 0.  0.
          5    1    3    3  502    0  0.49648581209E+02  0.32463512142E+02 -0.18965629447E+03  0.19877238558E+03  0.47000000000E+01 0. -1.
         -5    1    3    3    0  502 -0.61837700809E+02 -0.20499813332E+02 -0.28160901386E+03  0.28908453828E+03  0.47000000000E+01 0. -1.
        -11    1    1    2    0    0  0.37789117662E+01 -0.48074017803E+02 -0.11334937611E+03  0.12318064956E+03  0.00000000000E+00 0.  1.
         11    1    1    2    0    0  0.84102078332E+01  0.36110318993E+02 -0.17552442519E+03  0.17939763257E+03  0.00000000000E+00 0. -1.
<mgrwt>
<rscale>  0 0.11594680E+03</rscale>
<asrwt>0</asrwt>
<pdfrwt beam="2">  1        1 0.11927497E+00 0.12614828E+03</pdfrwt>
<pdfrwt beam="1">  1       -1 0.23304686E-02 0.12614828E+03</pdfrwt>
<totfact> 0.12595945E+04</totfact>
</mgrwt>
</event>
<event>
 6    1  0.5206756E-006  0.7821096E+03  0.7546771E-02  0.1003710E+00
         -2   -1    0    0    0  501 -0.00000000000E+00  0.00000000000E+00  0.15480736413E+03  0.15480736413E+03  0.00000000000E+00 0.  1.
          2   -1    0    0  501    0  0.00000000000E+00 -0.00000000000E+00 -0.17377114405E+04  0.17377114405E+04  0.00000000000E+00 0. -1.
          5    1    1    2  502    0 -0.42077021380E+02  0.34225410137E+03 -0.89434115205E+03  0.95852831563E+03  0.47000000000E+01 0. -1.
         -5    1    1    2    0  502 -0.99718306173E+02 -0.40178561845E+03 -0.61415520019E+03  0.74066464997E+03  0.47000000000E+01 0.  1.
        -11    1    1    2    0    0  0.13009147117E+03  0.81489364537E+02 -0.62525940795E+02  0.16575222676E+03  0.00000000000E+00 0. -1.
         11    1    1    2    0    0  0.11703856389E+02 -0.21957847451E+02 -0.11881783344E+02  0.27573612286E+02  0.00000000000E+00 0.  1.
<mgrwt>
<rscale>  0 0.54052973E+03</rscale>
<asrwt>0</asrwt>
<pdfrwt beam="2">  1        2 0.26734023E+00 0.78210964E+03</pdfrwt>
<pdfrwt beam="1">  1       -2 0.23816517E-01 0.78210964E+03</pdfrwt>
<totfact> 0.14866391E+02</totfact>
</mgrwt>
</event>
<event>
 7    1  0.5206756E-006  0.1277154E+03  0.7546771E-02  0.1245189E+00
          2   -1    0    0  501    0  0.00000000000E+00  0.00000000000E+00  0.40630281122E+03  0.40630281122E+03  0.00000000000E+00 0. -1.
         -2   -1    0    0    0  501 -0.00000000000E+00 -0.00000000000E+00 -0.49534206374E+02  0.49534206374E+02  0.00000000000E+00 0.  1.
         23    2    1    2    0    0 -0.16129076545E+02  0.20604514294E+02  0.33420734683E+03  0.35777895718E+03  0.12500615348E+03 0.  0.
          5    1    3    3  502    0 -0.13531447158E+02  0.72814922090E+02  0.17307706446E+03  0.18831588670E+03  0.47000000000E+01 0. -1.
         -5    1    3    3    0  502 -0.25976293867E+01 -0.52210407796E+02  0.16113028236E+03  0.16946307047E+03  0.47000000000E+01 0. -1.
        -11    1    1    2    0    0  0.32262208211E+02  0.40744965859E+01 -0.25737245129E+02  0.41471163330E+02  0.00000000000E+00 0.  1.
         11    1    1    2    0    0 -0.16133131666E+02 -0.24679010880E+02  0.48298503151E+02  0.56586897088E+02  0.00000000000E+00 0. -1.
<mgrwt>
<rscale>  0 0.11874100E+03</rscale>
<asrwt>0</asrwt>
<pdfrwt beam="1">  1        2 0.62508123E-01 0.12771543E+03</pdfrwt>
<pdfrwt beam="2">  1       -2 0.76206474E-02 0.12771543E+03</pdfrwt>
<totfact> 0.76098961E+03</totfact>
</mgrwt>
</event>
<event>
 7    1  0.5206756E-006  0.1251208E+03  0.7546771E-02  0.1250725E+00
          2   -1    0    0  501    0  0.00000000000E+00  0.00000000000E+00  0.27007136417E+03  0.27007136417E+03  0.00000000000E+00 0.  1.
         -2   -1    0    0    0  501 -0.00000000000E+00 -0.00000000000E+00 -0.52209667544E+02  0.52209667544E+02  0.00000000000E+00 0. -1.
         23    2    1    2    0    0  0.14805762573E+01  0.52943087825E+01  0.18958842676E+03  0.22715409521E+03  0.12499995840E+03 0.  0.
          5    1    3    3  502    0  0.49450108848E+02 -0.36109309967E+02  0.99087429203E+02  0.11657445757E+03  0.47000000000E+01 0.  1.
         -5    1    3    3    0  502 -0.47969532591E+02  0.41403618749E+02  0.90500997557E+02  0.11057963764E+03  0.47000000000E+01 0.  1.
        -11    1    1    2    0    0 -0.11827919135E+02  0.10177492018E+01 -0.31747521603E+02  0.33894551368E+02  0.00000000000E+00 0. -1.
         11    1    1    2    0    0  0.10347342877E+02 -0.63120579843E+01  0.60020791472E+02  0.61232385137E+02  0.00000000000E+00 0.  1.
<mgrwt>
<rscale>  0 0.11549209E+03</rscale>
<asrwt>0</asrwt>
<pdfrwt beam="1">  1        2 0.41549440E-01 0.12512079E+03</pdfrwt>
<pdfrwt beam="2">  1       -2 0.80322567E-02 0.12512079E+03</pdfrwt>
<totfact> 0.10801513E+04</totfact>
</mgrwt>
</event>
<event>
 6    1  0.5206756E-006  0.1435516E+03  0.7546771E-02  0.1229874E+00
          2   -1    0    0  501    0  0.00000000000E+00  0.00000000000E+00  0.16010619014E+03  0.16010619014E+03  0.00000000000E+00 0. -1.
         -2   -1    0    0    0  501 -0.00000000000E+00 -0.00000000000E+00 -0.86521944818E+02  0.86521944818E+02  0.00000000000E+00 0.  1.
          5    1    1    2  502    0  0.31548387771E+02 -0.16924197372E+01  0.89016501665E+02  0.94573741726E+02  0.47000000000E+01 0. -1.
         -5    1    1    2    0  502 -0.35327203301E+02 -0.39869061351E+01 -0.43169525014E+02  0.56121338219E+02  0.47000000000E+01 0.  1.
        -11    1    1    2    0    0  0.37555497906E+02 -0.17214437544E+02  0.35412495176E+02  0.54413207014E+02  0.00000000000E+00 0. -1.
         11    1    1    2    0    0 -0.33776682375E+02  0.22893763417E+02 -0.76752265075E+01  0.41519847996E+02  0.00000000000E+00 0.  1.
<mgrwt>
<rscale>  0 0.12838341E+03</rscale>
<asrwt>0</asrwt>
<pdfrwt beam="1">  1        2 0.24631722E-01 0.14355160E+03</pdfrwt>
<pdfrwt beam="2">  1       -2 0.13311068E-01 0.14355160E+03</pdfrwt>
<totfact> 0.86560620E+03</totfact>
</mgrwt>
</event>
<event>
 7    1  0.5206756E-006  0.1332636E+03  0.7546771E-02  0.1233191E+00
         -2   -1    0    0    0  501 -0.00000000000E+00  0.00000000000E+00  0.56634356691E+02  0.56634356691E+02  0.00000000000E+00 0.  1.
          2   -1    0    0  501    0  0.00000000000E+00 -0.00000000000E+00 -0.31580685997E+03  0.31580685997E+03  0.00000000000E+00 0. -1.
         23    2    1    2    0    0  0.36150755444E+02  0.28749151485E+02 -0.22208261561E+03  0.25899785113E+03  0.12500323156E+03 0.  0.
          5    1    3    3  502    0 -0.36054159419E+02  0.14026559743E+02 -0.15298210653E+03  0.15786786154E+03  0.47000000000E+01 0.  1.
         -5    1    3    3    0  502  0.72204914863E+02  0.14722591742E+02 -0.69100509089E+02  0.10112998959E+03  0.47000000000E+01 0.  1.
        -11    1    1    2    0    0 -0.62686377564E+02  0.56538884906E+01 -0.15004689503E+02  0.64704629620E+02  0.00000000000E+00 0.  1.
         11    1    1    2    0    0  0.26535622120E+02 -0.34403039975E+02 -0.22085198166E+02  0.48738735918E+02  0.00000000000E+00 0. -1.
<mgrwt>
<rscale>  0 0.12620932E+03</rscale>
<asrwt>0</asrwt>
<pdfrwt beam="2">  1        2 0.48585670E-01 0.13326364E+03</pdfrwt>
<pdfrwt beam="1">  1       -2 0.87129781E-02 0.13326364E+03</pdfrwt>
<totfact> 0.81097236E+03</totfact>
</mgrwt>
</event>
<event>
 7    1  0.5206756E-006  0.1372170E+03  0.7546771E-02  0.1229242E+00
         -1   -1    0    0    0  501 -0.00000000000E+00  0.00000000000E+00  0.28897481683E+02  0.28897481683E+02  0.00000000000E+00 0.  1.
          1   -1    0    0  501    0  0.00000000000E+00 -0.00000000000E+00 -0.51719276844E+03  0.51719276844E+03  0.00000000000E+00 0. -1.
         23    2    1    2    0    0  0.52427129246E+01  0.56363485012E+02 -0.29594283248E+03  0.32620645981E+03  0.12499666335E+03 0.  0.
          5    1    3    3  502    0 -0.38440923761E+02  0.78688116653E+02 -0.18021346234E+03  0.20042082310E+03  0.47000000000E+01 0.  1.
         -5    1    3    3    0  502  0.43683636686E+02 -0.22324631642E+02 -0.11572937013E+03  0.12578563671E+03  0.47000000000E+01 0.  1.
        -11    1    1    2    0    0 -0.34785088397E+02 -0.19825210625E+02 -0.27771204752E+02  0.48726596069E+02  0.00000000000E+00 0.  1.
         11    1    1    2    0    0  0.29542375473E+02 -0.36538274387E+02 -0.16458124953E+03  0.17115719424E+03  0.00000000000E+00 0. -1.
<mgrwt>
<rscale>  0 0.12880346E+03</rscale>
<asrwt>0</asrwt>
<pdfrwt beam="2">  1        1 0.79568118E-01 0.13721696E+03</pdfrwt>
<pdfrwt beam="1">  1       -1 0.44457664E-02 0.13721696E+03</pdfrwt>
<totfact> 0.86597786E+03</totfact>
</mgrwt>
</event>
<event>
 7    1  0.5206756E-006  0.1250116E+03  0.7546771E-02  0.1248427E+00
          1   -1    0    0  501    0  0.00000000000E+00  0.00000000000E+00  0.16800961735E+03  0.16800961735E+03  0.00000000000E+00 0. -1.
         -1   -1    0    0    0  501 -0.00000000000E+00 -0.00000000000E+00 -0.73900844572E+02  0.73900844572E+02  0.00000000000E+00 0.  1.
         23    2    1    2    0    0 -0.12320878377E+02 -0.23592221612E+02  0.35355394015E+02  0.12991496950E+03  0.12214539880E+03 0.  0.
          5    1    3    3  502    0 -0.53091915544E+02  0.21576285280E+02  0.37840559878E+02  0.68835205778E+02  0.47000000000E+01 0. -1.
         -5    1    3    3    0  502  0.40771037167E+02 -0.45168506892E+02 -0.24851658638E+01  0.61079763718E+02  0.47000000000E+01 0.  1.
        -11    1    1    2    0    0  0.35856577412E+02 -0.65457878792E+01 -0.58575801525E+01  0.36916835291E+02  0.00000000000E+00 0.  1.
         11    1    1    2    0    0 -0.23535699035E+02  0.30138009491E+02  0.64610958914E+02  0.75078657134E+02  0.00000000000E+00 0. -1.
<mgrwt>
<rscale>  0 0.11682595E+03</rscale>
<asrwt>0</asrwt>
<pdfrwt beam="1">  1        1 0.25847633E-01 0.12501158E+03</pdfrwt>
<pdfrwt beam="2">  1       -1 0.11369361E-01 0.12501158E+03</pdfrwt>
<totfact> 0.85789369E+03</totfact>
</mgrwt>
</event>
<event>
 7    1  0.5206756E-006  0.1327477E+03  0.7546771E-02  0.1235822E+00
         -2   -1    0    0    0  501 -0.00000000000E+00  0.00000000000E+00  0.38196765857E+02  0.38196765857E+02  0.00000000000E+00 0.  1.
          2   -1    0    0  501    0  0.00000000000E+00 -0.00000000000E+00 -0.63684640375E+03  0.63684640375E+03  0.00000000000E+00 0. -1.
         23    2    1    2    0    0 -0.43205706909E+02 -0.11391065103E+02 -0.54132736919E+03  0.55736636762E+03  0.12500183053E+03 0.  0.
          5    1    3    3  502    0 -0.76361412274E+02 -0.36939027822E+02 -0.27799989541E+03  0.29069157007E+03  0.47000000000E+01 0.  1.
         -5    1    3    3    0  502  0.33155705365E+02  0.25547962718E+02 -0.26332747378E+03  0.26667479754E+03  0.47000000000E+01 0.  1.
        -11    1    1    2    0    0  0.29974093033E+02  0.27241195495E+02 -0.78354345123E+02  0.88203924997E+02  0.00000000000E+00 0. -1.
         11    1    1    2    0    0  0.13231613876E+02 -0.15850130392E+02  0.21032076429E+02  0.29472876991E+02  0.00000000000E+00 0.  1.
<mgrwt>
<rscale>  0 0.12451980E+03</rscale>
<asrwt>0</asrwt>
<pdfrwt beam="2">  1        2 0.97976369E-01 0.13274768E+03</pdfrwt>
<pdfrwt beam="1">  1       -2 0.58764256E-02 0.13274768E+03</pdfrwt>
<totfact> 0.69062544E+03</totfact>
</mgrwt>
</event>
<event>
 7    1  0.5206756E-006  0.1658195E+03  0.7546771E-02  0.1189208E+00
         -2   -1    0    0    0  501 -0.00000000000E+00  0.00000000000E+00  0.21445888254E+02  0.21445888254E+02  0.00000000000E+00 0. -1.
          2   -1    0    0  501    0  0.00000000000E+00 -0.00000000000E+00 -0.13378836959E+04  0.13378836959E+04  0.00000000000E+00 0.  1.
         23    2    1    2    0    0 -0.10155251413E+03 -0.39488524692E+02 -0.98267923184E+03  0.99657140958E+03  0.12499537990E+03 0.  0.
          5    1    3    3  502    0 -0.10256940672E+03 -0.32633397080E+02 -0.98229849847E+03  0.98818917819E+03  0.47000000000E+01 0. -1.
         -5    1    3    3    0  502  0.10168925895E+01 -0.68551276121E+01 -0.38073336690E+00  0.83822313863E+01  0.47000000000E+01 0. -1.
        -11    1    1    2    0    0  0.95531269360E+00  0.41447810767E+02 -0.93196358751E+02  0.10200193588E+03  0.00000000000E+00 0. -1.
         11    1    1    2    0    0  0.10059720144E+03 -0.19592860747E+01 -0.24056221702E+03  0.26075623866E+03  0.00000000000E+00 0.  1.
<mgrwt>
<rscale>  0 0.15954828E+03</rscale>
<asrwt>0</asrwt>
<pdfrwt beam="2">  1        2 0.20582825E+00 0.16581949E+03</pdfrwt>
<pdfrwt beam="1">  1       -2 0.32993676E-02 0.16581949E+03</pdfrwt>
<totfact> 0.60567208E+03</totfact>
</mgrwt>
</event>
<event>
 7    1  0.5206756E-006  0.1531468E+03  0.7546771E-02  0.1205026E+00
         -2   -1    0    0    0  501 -0.00000000000E+00  0.00000000000E+00  0.90409616874E+02  0.90409616874E+02  0.00000000000E+00 0.  1.
          2   -1    0    0  501    0  0.00000000000E+00 -0.00000000000E+00 -0.22979705985E+03  0.22979705985E+03  0.00000000000E+00 0. -1.
         23    2    1    2    0    0  0.28046369570E+02  0.83917142798E+02 -0.11158216824E+03  0.18948492239E+03  0.12500107937E+03 0.  0.
          5    1    3    3  502    0 -0.48329411375E+02  0.42765043305E+02 -0.61132074810E+02  0.89015737391E+02  0.47000000000E+01 0.  1.
         -5    1    3    3    0  502  0.76375780945E+02  0.41152099492E+02 -0.50450093431E+02  0.10046918500E+03  0.47000000000E+01 0.  1.
        -11    1    1    2    0    0  0.95069804968E+01 -0.10957272009E+02 -0.44655104872E+02  0.46952346897E+02  0.00000000000E+00 0. -1.
         11    1    1    2    0    0 -0.37553350066E+02 -0.72959870788E+02  0.16849830135E+02  0.83769407436E+02  0.00000000000E+00 0.  1.
<mgrwt>
<rscale>  0 0.14635399E+03</rscale>
<asrwt>0</asrwt>
<pdfrwt beam="2">  1        2 0.35353394E-01 0.15314684E+03</pdfrwt>
<pdfrwt beam="1">  1       -2 0.13909172E-01 0.15314684E+03</pdfrwt>
<totfact> 0.54628986E+03</totfact>
</mgrwt>
</event>
<event>
 7    1  0.5206756E-006  0.1303229E+03  0.7546771E-02  0.1242361E+00
         -1   -1    0    0    0  501 -0.00000000000E+00  0.00000000000E+00  0.11463251932E+02  0.11463251932E+02  0.00000000000E+00 0.  1.
          1   -1    0    0  501    0  0.00000000000E+00 -0.00000000000E+00 -0.12583524539E+04  0.12583524539E+04  0.00000000000E+00 0. -1.
         23    2    1    2    0    0 -0.33043036107E+02 -0.16326805438E+02 -0.92627383055E+03  0.93539685570E+03  0.12500264673E+03 0.  0.
          5    1    3    3  502    0  0.28300997102E+01 -0.64824967992E+02 -0.35354892249E+03  0.35948465410E+03  0.47000000000E+01 0.  1.
         -5    1    3    3    0  502 -0.35873135817E+02  0.48498162554E+02 -0.57272490806E+03  0.57591220160E+03  0.47000000000E+01 0.  1.
        -11    1    1    2    0    0  0.43153981863E+02  0.40285073553E+02 -0.28026314024E+03  0.28641330464E+03  0.00000000000E+00 0.  1.
         11    1    1    2    0    0 -0.10110945757E+02 -0.23958268115E+02 -0.40352231138E+02  0.48005545440E+02  0.00000000000E+00 0. -1.
<mgrwt>
<rscale>  0 0.12044734E+03</rscale>
<asrwt>0</asrwt>
<pdfrwt beam="2">  1        1 0.19359267E+00 0.13032294E+03</pdfrwt>
<pdfrwt beam="1">  1       -1 0.17635773E-02 0.13032294E+03</pdfrwt>
<totfact> 0.83370726E+03</totfact>
</mgrwt>
</event>
<event>
 7    1  0.5206756E-006  0.1679306E+03  0.7546771E-02  0.1187033E+00
         -3   -1    0    0    0  501 -0.00000000000E+00  0.00000000000E+00  0.22148438806E+03  0.22148438806E+03  0.00000000000E+00 0.  1.
          3   -1    0    0  501    0  0.00000000000E+00 -0.00000000000E+00 -0.11050446340E+03  0.11050446340E+03  0.00000000000E+00 0. -1.
         23    2    1    2    0    0 -0.34167753526E+02  0.10681957146E+03  0.44294814364E+02  0.17367414773E+03  0.12499129082E+03 0.  0.
          5    1    3    3  502    0  0.67106861875E+01  0.30774467876E+02  0.75349116277E+02  0.81802692535E+02  0.47000000000E+01 0. -1.
         -5    1    3    3    0  502 -0.40878439714E+02  0.76045103580E+02 -0.31054301913E+02  0.91871455192E+02  0.47000000000E+01 0. -1.
        -11    1    1    2    0    0 -0.29633443043E+02 -0.48641160277E+02  0.31400477306E+02  0.65039168159E+02  0.00000000000E+00 0. -1.
         11    1    1    2    0    0  0.63801196570E+02 -0.58178411178E+02  0.35284632985E+02  0.93275535570E+02  0.00000000000E+00 0.  1.
<mgrwt>
<rscale>  0 0.16148217E+03</rscale>
<asrwt>0</asrwt>
<pdfrwt beam="2">  1        3 0.17000687E-01 0.16793058E+03</pdfrwt>
<pdfrwt beam="1">  1       -3 0.34074521E-01 0.16793058E+03</pdfrwt>
<totfact> 0.60229065E+02</totfact>
</mgrwt>
</event>
<event>
 7    1  0.5206756E-006  0.1348386E+03  0.7546771E-02  0.1232875E+00
         -2   -1    0    0    0  501 -0.00000000000E+00  0.00000000000E+00  0.48375668078E+02  0.48375668078E+02  0.00000000000E+00 0. -1.
          2   -1    0    0  501    0  0.00000000000E+00 -0.00000000000E+00 -0.38935901276E+03  0.38935901276E+03  0.00000000000E+00 0.  1.
         23    2    1    2    0    0 -0.35620737954E+02 -0.35857233871E+02 -0.29402502861E+03  0.32346896830E+03  0.12500751100E+03 0.  0.
          5    1    3    3  502    0  0.29260934202E+02 -0.48615591334E+02 -0.72191482266E+02  0.91942254176E+02  0.47000000000E+01 0. -1.
         -5    1    3    3    0  502 -0.64881672155E+02  0.12758357463E+02 -0.22183354635E+03  0.23152671412E+03  0.47000000000E+01 0. -1.
        -11    1    1    2    0    0  0.21439854425E+02  0.17409862251E+02 -0.73767039261E+02  0.78767675748E+02  0.00000000000E+00 0.  1.
         11    1    1    2    0    0  0.14180883529E+02  0.18447371620E+02  0.26808723189E+02  0.35498036796E+02  0.00000000000E+00 0. -1.
<mgrwt>
<rscale>  0 0.12641462E+03</rscale>
<asrwt>0</asrwt>
<pdfrwt beam="2">  1        2 0.59901389E-01 0.13483863E+03</pdfrwt>
<pdfrwt beam="1">  1       -2 0.74424102E-02 0.13483863E+03</pdfrwt>
<totfact> 0.82888958E+03</totfact>
</mgrwt>
</event>
<event>
 7    1  0.5206756E-006  0.1847777E+03  0.7546771E-02  0.1168623E+00
         -3   -1    0    0    0  501 -0.00000000000E+00  0.00000000000E+00  0.10839675741E+04  0.10839675741E+04  0.00000000000E+00 0.  1.
          3   -1    0    0  501    0  0.00000000000E+00 -0.00000000000E+00 -0.28056503696E+02  0.28056503696E+02  0.00000000000E+00 0. -1.
         23    2    1    2    0    0 -0.53494979190E+01 -0.13596872273E+03  0.59579200969E+03  0.62378754655E+03  0.12500669472E+03 0.  0.
          5    1    3    3  502    0 -0.53943463062E+02 -0.10782186971E+03  0.31330447821E+03  0.33573388101E+03  0.47000000000E+01 0.  1.
         -5    1    3    3    0  502  0.48593965143E+02 -0.28146853023E+02  0.28248753148E+03  0.28805366553E+03  0.47000000000E+01 0.  1.
        -11    1    1    2    0    0 -0.42170281768E+02  0.69102911512E+02  0.21351323677E+03  0.22834501817E+03  0.00000000000E+00 0.  1.
         11    1    1    2    0    0  0.47519779687E+02  0.66865811219E+02  0.24660582391E+03  0.25989151305E+03  0.00000000000E+00 0. -1.
<mgrwt>
<rscale>  0 0.17915566E+03</rscale>
<asrwt>0</asrwt>
<pdfrwt beam="2">  1        3 0.43163860E-02 0.18477766E+03</pdfrwt>
<pdfrwt beam="1">  1       -3 0.16676421E+00 0.18477766E+03</pdfrwt>
<totfact> 0.18233744E+02</totfact>
</mgrwt>
</event>
<event>
 7    1  0.5206756E-006  0.1284727E+03  0.7546771E-02  0.1247829E+00
         -2   -1    0    0    0  501 -0.00000000000E+00  0.00000000000E+00  0.39896647949E+02  0.39896647949E+02  0.00000000000E+00 0.  1.
          2   -1    0    0  501    0  0.00000000000E+00 -0.00000000000E+00 -0.30965377973E+03  0.30965377973E+03  0.00000000000E+00 0. -1.
         23    2    1    2    0    0  0.27041190750E+02  0.11759819708E+02 -0.19433858585E+03  0.23296504994E+03  0.12504282941E+03 0.  0.
          5    1    3    3  502    0 -0.18557140632E+02 -0.39313888723E+02 -0.13611475709E+03  0.14296596243E+03  0.47000000000E+01 0.  1.
         -5    1    3    3    0  502  0.45598331382E+02  0.51073708431E+02 -0.58223828755E+02  0.89999087510E+02  0.47000000000E+01 0.  1.
        -11    1    1    2    0    0 -0.21525350672E+02  0.30952854552E+02 -0.59959219021E+02  0.70827451402E+02  0.00000000000E+00 0.  1.
         11    1    1    2    0    0 -0.55158400782E+01 -0.42712674259E+02 -0.15459326910E+02  0.45757926337E+02  0.00000000000E+00 0. -1.
<mgrwt>
<rscale>  0 0.11717643E+03</rscale>
<asrwt>0</asrwt>
<pdfrwt beam="2">  1        2 0.47639042E-01 0.12847268E+03</pdfrwt>
<pdfrwt beam="1">  1       -2 0.61379459E-02 0.12847268E+03</pdfrwt>
<totfact> 0.14131196E+04</totfact>
</mgrwt>
</event>
<event>
 7    1  0.5206756E-006  0.1536905E+03  0.7546771E-02  0.1204223E+00
          1   -1    0    0  501    0  0.00000000000E+00  0.00000000000E+00  0.69394193215E+03  0.69394193215E+03  0.00000000000E+00 0. -1.
         -1   -1    0    0    0  501 -0.00000000000E+00 -0.00000000000E+00 -0.41537695489E+02  0.41537695489E+02  0.00000000000E+00 0.  1.
         23    2    1    2    0    0 -0.33475043060E+02  0.82913045841E+02  0.55008602348E+03  0.57115270991E+03  0.12500253250E+03 0.  0.
          5    1    3    3  502    0  0.13531529333E+02  0.62678368017E+02  0.47976493167E+03  0.48405388105E+03  0.47000000000E+01 0. -1.
         -5    1    3    3    0  502 -0.47006572394E+02  0.20234677824E+02  0.70321091811E+02  0.87098828858E+02  0.47000000000E+01 0. -1.
        -11    1    1    2    0    0 -0.72262814750E+00 -0.76175722685E+02  0.10459662136E+03  0.12939751202E+03  0.00000000000E+00 0. -1.
         11    1    1    2    0    0  0.34197671208E+02 -0.67373231563E+01 -0.22784081738E+01  0.34929405709E+02  0.00000000000E+00 0.  1.
<mgrwt>
<rscale>  0 0.14698860E+03</rscale>
<asrwt>0</asrwt>
<pdfrwt beam="1">  1        1 0.10676029E+00 0.15369055E+03</pdfrwt>
<pdfrwt beam="2">  1       -1 0.63904152E-02 0.15369055E+03</pdfrwt>
<totfact> 0.33990513E+03</totfact>
</mgrwt>
</event>
<event>
 7    1  0.5206756E-006  0.2905887E+03  0.7546771E-02  0.1091732E+00
         -2   -1    0    0    0  501 -0.00000000000E+00  0.00000000000E+00  0.11329425615E+03  0.11329425615E+03  0.00000000000E+00 0.  1.
          2   -1    0    0  501    0  0.00000000000E+00 -0.00000000000E+00 -0.73595170710E+03  0.73595170710E+03  0.00000000000E+00 0. -1.
         23    2    1    2    0    0  0.24781899844E+03  0.86034155597E+02 -0.24338801726E+03  0.37905083636E+03  0.12500271071E+03 0.  0.
          5    1    3    3  502    0  0.99941042692E+02 -0.46833616019E+01 -0.15433152630E+03  0.18398493390E+03  0.47000000000E+01 0. -1.
         -5    1    3    3    0  502  0.14787795575E+03  0.90717517198E+02 -0.89056490952E+02  0.19506590246E+03  0.47000000000E+01 0. -1.
        -11    1    1    2    0    0 -0.72708309286E+02 -0.38164569231E+02 -0.19471254815E+03  0.21131968434E+03  0.00000000000E+00 0. -1.
         11    1    1    2    0    0 -0.17511068916E+03 -0.47869586366E+02 -0.18455688555E+03  0.25887544255E+03  0.00000000000E+00 0.  1.
<mgrwt>
<rscale>  0 0.28736777E+03</rscale>
<asrwt>0</asrwt>
<pdfrwt beam="2">  1        2 0.11322334E+00 0.29058873E+03</pdfrwt>
<pdfrwt beam="1">  1       -2 0.17429886E-01 0.29058873E+03</pdfrwt>
<totfact> 0.10502289E+03</totfact>
</mgrwt>
</event>
<event>
 7    1  0.5206756E-006  0.1410204E+03  0.7546771E-02  0.1223408E+00
          1   -1    0    0  501    0  0.00000000000E+00  0.00000000000E+00  0.26745946301E+02  0.26745946301E+02  0.00000000000E+00 0. -1.
         -1   -1    0    0    0  501 -0.00000000000E+00 -0.00000000000E+00 -0.59831649899E+03  0.59831649899E+03  0.00000000000E+00 0.  1.
         23    2    1    2    0    0 -0.54373286404E+02 -0.36126138262E+02 -0.28970951088E+03  0.32220854252E+03  0.12500076816E+03 0.  0.
          5    1    3    3  502    0 -0.34079166112E+02  0.44000791832E+02 -0.14656335914E+03  0.15684504292E+03  0.47000000000E+01 0. -1.
         -5    1    3    3    0  502 -0.20294120292E+02 -0.80126930094E+02 -0.14314615173E+03  0.16536349960E+03  0.47000000000E+01 0. -1.
        -11    1    1    2    0    0  0.46783572949E+02  0.64025845689E+02 -0.17458457597E+03  0.19174927844E+03  0.00000000000E+00 0. -1.
         11    1    1    2    0    0  0.75897134554E+01 -0.27899707427E+02 -0.10727646583E+03  0.11110462433E+03  0.00000000000E+00 0.  1.
<mgrwt>
<rscale>  0 0.13276646E+03</rscale>
<asrwt>0</asrwt>
<pdfrwt beam="1">  1        1 0.41147613E-02 0.14102037E+03</pdfrwt>
<pdfrwt beam="2">  1       -1 0.92048685E-01 0.14102037E+03</pdfrwt>
<totfact> 0.25611704E+03</totfact>
</mgrwt>
</event>
<event>
 7    1  0.5206756E-006  0.1573053E+03  0.7546771E-02  0.1203608E+00
          2   -1    0    0  501    0  0.00000000000E+00  0.00000000000E+00  0.22898774663E+03  0.22898774663E+03  0.00000000000E+00 0. -1.
         -2   -1    0    0    0  501 -0.00000000000E+00 -0.00000000000E+00 -0.86111908100E+02  0.86111908100E+02  0.00000000000E+00 0.  1.
         23    2    1    2    0    0 -0.72845359468E+02 -0.61753279303E+02  0.99162545394E+02  0.18595205970E+03  0.12500017679E+03 0.  0.
          5    1    3    3  502    0 -0.33536442477E+02 -0.68958311004E+02 -0.22399537211E+01  0.76857329014E+02  0.47000000000E+01 0. -1.
         -5    1    3    3    0  502 -0.39308916991E+02  0.72050317010E+01  0.10140249912E+03  0.10909473069E+03  0.47000000000E+01 0. -1.
        -11    1    1    2    0    0  0.21856190428E+02  0.24499370994E+02 -0.20804804468E+02  0.38868394977E+02  0.00000000000E+00 0.  1.
         11    1    1    2    0    0  0.50989169040E+02  0.37253908309E+02  0.64518097603E+02  0.90279200052E+02  0.00000000000E+00 0. -1.
<mgrwt>
<rscale>  0 0.14747678E+03</rscale>
<asrwt>0</asrwt>
<pdfrwt beam="1">  1        2 0.35228884E-01 0.15730530E+03</pdfrwt>
<pdfrwt beam="2">  1       -2 0.13247986E-01 0.15730530E+03</pdfrwt>
<totfact> 0.59441039E+03</totfact>
</mgrwt>
</event>
<event>
 7    1  0.5206756E-006  0.1501865E+03  0.7546771E-02  0.1210692E+00
         -2   -1    0    0    0  501 -0.00000000000E+00  0.00000000000E+00  0.28358357223E+02  0.28358357223E+02  0.00000000000E+00 0.  1.
          2   -1    0    0  501    0  0.00000000000E+00 -0.00000000000E+00 -0.95083843558E+03  0.95083843558E+03  0.00000000000E+00 0. -1.
         23    2    1    2    0    0 -0.11820433211E+02 -0.82371928833E+02 -0.77342669084E+03  0.78787362107E+03  0.12502455509E+03 0.  0.
          5    1    3    3  502    0 -0.34481558733E+02 -0.10857191141E+03 -0.54609051946E+03  0.55786538097E+03  0.47000000000E+01 0.  1.
         -5    1    3    3    0  502  0.22661125522E+02  0.26199982577E+02 -0.22733617138E+03  0.23000824010E+03  0.47000000000E+01 0.  1.
        -11    1    1    2    0    0 -0.15004947459E+01  0.72807798128E+02 -0.15702478903E+03  0.17308960489E+03  0.00000000000E+00 0. -1.
         11    1    1    2    0    0  0.13320927957E+02  0.95641307051E+01  0.79714015071E+01  0.18233566842E+02  0.00000000000E+00 0.  1.
<mgrwt>
<rscale>  0 0.14197830E+03</rscale>
<asrwt>0</asrwt>
<pdfrwt beam="2">  1        2 0.14628284E+00 0.15018654E+03</pdfrwt>
<pdfrwt beam="1">  1       -2 0.43628240E-02 0.15018654E+03</pdfrwt>
<totfact> 0.66198427E+03</totfact>
</mgrwt>
</event>
<event>
 7    1  0.5206756E-006  0.1844860E+03  0.7546771E-02  0.1168993E+00
         -2   -1    0    0    0  501 -0.00000000000E+00  0.00000000000E+00  0.96771160055E+02  0.96771160055E+02  0.00000000000E+00 0. -1.
          2   -1    0    0  501    0  0.00000000000E+00 -0.00000000000E+00 -0.31948722584E+03  0.31948722584E+03  0.00000000000E+00 0.  1.
         23    2    1    2    0    0 -0.52118768604E+02  0.12526556832E+03 -0.15127712447E+03  0.23857884143E+03  0.12500906585E+03 0.  0.
          5    1    3    3  502    0 -0.64237908696E+02  0.10391810537E+03 -0.16853169406E+03  0.20820783712E+03  0.47000000000E+01 0. -1.
         -5    1    3    3    0  502  0.12119140091E+02  0.21347462953E+02  0.17254569590E+02  0.30371004311E+02  0.47000000000E+01 0. -1.
        -11    1    1    2    0    0  0.46576655363E+02 -0.91832819082E+02 -0.91965278945E+02  0.13805891502E+03  0.00000000000E+00 0.  1.
         11    1    1    2    0    0  0.55421132416E+01 -0.33432749238E+02  0.20526337630E+02  0.39620629440E+02  0.00000000000E+00 0. -1.
<mgrwt>
<rscale>  0 0.17877619E+03</rscale>
<asrwt>0</asrwt>
<pdfrwt beam="2">  1        2 0.49151880E-01 0.18448603E+03</pdfrwt>
<pdfrwt beam="1">  1       -2 0.14887871E-01 0.18448603E+03</pdfrwt>
<totfact> 0.34684022E+03</totfact>
</mgrwt>
</event>
<event>
 7    1  0.5206756E-006  0.1288497E+03  0.7546771E-02  0.1242117E+00
         -3   -1    0    0    0  501 -0.00000000000E+00  0.00000000000E+00  0.59498429598E+02  0.59498429598E+02  0.00000000000E+00 0.  1.
          3   -1    0    0  501    0  0.00000000000E+00 -0.00000000000E+00 -0.25392993458E+03  0.25392993458E+03  0.00000000000E+00 0. -1.
         23    2    1    2    0    0  0.28015702630E+02 -0.13902153313E+02 -0.16679007715E+03  0.21076332102E+03  0.12499639271E+03 0.  0.
          5    1    3    3  502    0 -0.18722269841E+01 -0.67292071981E+02 -0.86916536805E+02  0.11003773242E+03  0.47000000000E+01 0.  1.
         -5    1    3    3    0  502  0.29887929614E+02  0.53389918668E+02 -0.79873540346E+02  0.10072558860E+03  0.47000000000E+01 0.  1.
        -11    1    1    2    0    0 -0.21242392110E+02 -0.94898704260E+00  0.33336275715E+02  0.39540448625E+02  0.00000000000E+00 0.  1.
         11    1    1    2    0    0 -0.67733105205E+01  0.14851140356E+02 -0.60977703542E+02  0.63124594530E+02  0.00000000000E+00 0. -1.
<mgrwt>
<rscale>  0 0.12059605E+03</rscale>
<asrwt>0</asrwt>
<pdfrwt beam="2">  1        3 0.39066143E-01 0.12884971E+03</pdfrwt>
<pdfrwt beam="1">  1       -3 0.91536046E-02 0.12884971E+03</pdfrwt>
<totfact> 0.12680041E+03</totfact>
</mgrwt>
</event>
<event>
 7    1  0.5206756E-006  0.1834144E+03  0.7546771E-02  0.1169849E+00
         -2   -1    0    0    0  501 -0.00000000000E+00  0.00000000000E+00  0.13436462081E+03  0.13436462081E+03  0.00000000000E+00 0.  1.
          2   -1    0    0  501    0  0.00000000000E+00 -0.00000000000E+00 -0.22831694325E+03  0.22831694325E+03  0.00000000000E+00 0. -1.
         23    2    1    2    0    0  0.23535929579E+02  0.13214008247E+03 -0.78832378558E+02  0.19963813567E+03  0.12500359966E+03 0.  0.
          5    1    3    3  502    0 -0.13919706458E+02  0.12417605293E+03 -0.16214238691E+02  0.12608902366E+03  0.47000000000E+01 0. -1.
         -5    1    3    3    0  502  0.37455636037E+02  0.79640295321E+01 -0.62618139867E+02  0.73549112012E+02  0.47000000000E+01 0. -1.
        -11    1    1    2    0    0  0.27668553030E+01 -0.12194345322E+03 -0.36866320353E+02  0.12742443584E+03  0.00000000000E+00 0.  1.
         11    1    1    2    0    0 -0.26302784882E+02 -0.10196629243E+02  0.21746376476E+02  0.35618992550E+02  0.00000000000E+00 0. -1.
<mgrwt>
<rscale>  0 0.17790248E+03</rscale>
<asrwt>0</asrwt>
<pdfrwt beam="2">  1        2 0.35125684E-01 0.18341440E+03</pdfrwt>
<pdfrwt beam="1">  1       -2 0.20671480E-01 0.18341440E+03</pdfrwt>
<totfact> 0.28687548E+03</totfact>
</mgrwt>
</event>
<event>
 7    1  0.5206756E-006  0.1274998E+03  0.7546771E-02  0.1245588E+00
         -2   -1    0    0    0  501 -0.00000000000E+00  0.00000000000E+00  0.33978648073E+03  0.33978648073E+03  0.00000000000E+00 0.  1.
          2   -1    0    0  501    0  0.00000000000E+00 -0.00000000000E+00 -0.36536654303E+02  0.36536654303E+02  0.00000000000E+00 0. -1.
         23    2    1    2    0    0 -0.20650983048E+02 -0.14341860848E+02  0.18146304003E+03  0.22177701066E+03  0.12499622189E+03 0.  0.
          5    1    3    3  502    0 -0.12182087827E+02  0.28045543866E+02  0.17512629644E+03  0.17783775049E+03  0.47000000000E+01 0.  1.
         -5    1    3    3    0  502 -0.84688952208E+01 -0.42387404714E+02  0.63367435894E+01  0.43939260166E+02  0.47000000000E+01 0.  1.
        -11    1    1    2    0    0 -0.20626076079E+02  0.40239433978E+02  0.46458518891E+02  0.64830864862E+02  0.00000000000E+00 0. -1.
         11    1    1    2    0    0  0.41277059127E+02 -0.25897573130E+02  0.75328267507E+02  0.89715259514E+02  0.00000000000E+00 0.  1.
<mgrwt>
<rscale>  0 0.11850268E+03</rscale>
<asrwt>0</asrwt>
<pdfrwt beam="2">  1        2 0.56210240E-02 0.12749983E+03</pdfrwt>
<pdfrwt beam="1">  1       -2 0.52274841E-01 0.12749983E+03</pdfrwt>
<totfact> 0.44705143E+03</totfact>
</mgrwt>
</event>
<event>
 7    1  0.5206756E-006  0.1322119E+03  0.7546771E-02  0.1235797E+00
          2   -1    0    0  501    0  0.00000000000E+00  0.00000000000E+00  0.23568318002E+04  0.23568318002E+04  0.00000000000E+00 0. -1.
         -2   -1    0    0    0  501 -0.00000000000E+00 -0.00000000000E+00 -0.84846359796E+01  0.84846359796E+01  0.00000000000E+00 0.  1.
         23    2    1    2    0    0  0.42252162267E+02  0.83510092271E+01  0.19184254983E+04  0.19229759199E+04  0.12500004580E+03 0.  0.
          5    1    3    3  502    0  0.50752181780E+02 -0.16597167104E+02  0.18250808149E+04  0.18258678268E+04  0.47000000000E+01 0.  1.
         -5    1    3    3    0  502 -0.85000195124E+01  0.24948176331E+02  0.93344683337E+02  0.97108093078E+02  0.47000000000E+01 0.  1.
        -11    1    1    2    0    0  0.21339973987E+02  0.23165708116E+02  0.98844312932E+02  0.10374122961E+03  0.00000000000E+00 0.  1.
         11    1    1    2    0    0 -0.63592136254E+02 -0.31516717343E+02  0.33107735306E+03  0.33859928673E+03  0.00000000000E+00 0. -1.
<mgrwt>
<rscale>  0 0.12453575E+03</rscale>
<asrwt>0</asrwt>
<pdfrwt beam="1">  1        2 0.36258899E+00 0.13221194E+03</pdfrwt>
<pdfrwt beam="2">  1       -2 0.13053305E-02 0.13221194E+03</pdfrwt>
<totfact> 0.68918493E+03</totfact>
</mgrwt>
</event>
<event>
 7    1  0.5206756E-006  0.1554250E+03  0.7546771E-02  0.1201775E+00
         -3   -1    0    0    0  501 -0.00000000000E+00  0.00000000000E+00  0.92519510789E+02  0.92519510789E+02  0.00000000000E+00 0.  1.
          3   -1    0    0  501    0  0.00000000000E+00 -0.00000000000E+00 -0.55633978928E+03  0.55633978928E+03  0.00000000000E+00 0. -1.
         23    2    1    2    0    0  0.41624770486E+02 -0.82443433147E+02 -0.49097947412E+03  0.51499297696E+03  0.12500952413E+03 0.  0.
          5    1    3    3  502    0 -0.36621649070E+02 -0.19673709642E+02 -0.64725099591E+02  0.77068985648E+02  0.47000000000E+01 0. -1.
         -5    1    3    3    0  502  0.78246419556E+02 -0.62769723506E+02 -0.42625437453E+03  0.43792399131E+03  0.47000000000E+01 0. -1.
        -11    1    1    2    0    0 -0.70443705908E+02  0.61258149217E+02  0.29817277091E+02  0.97999727350E+02  0.00000000000E+00 0.  1.
         11    1    1    2    0    0  0.28818935422E+02  0.21185283931E+02 -0.26580814588E+01  0.35866595756E+02  0.00000000000E+00 0. -1.
<mgrwt>
<rscale>  0 0.14894524E+03</rscale>
<asrwt>0</asrwt>
<pdfrwt beam="2">  1        3 0.85590736E-01 0.15542497E+03</pdfrwt>
<pdfrwt beam="1">  1       -3 0.14233771E-01 0.15542497E+03</pdfrwt>
<totfact> 0.12448819E+02</totfact>
</mgrwt>
</event>
<event>
 7    1  0.5206756E-006  0.1510836E+03  0.7546771E-02  0.1208141E+00
          2   -1    0    0  501    0  0.00000000000E+00  0.00000000000E+00  0.50873559893E+03  0.50873559893E+03  0.00000000000E+00 0. -1.
         -2   -1    0    0    0  501 -0.00000000000E+00 -0.00000000000E+00 -0.41683753588E+02  0.41683753588E+02  0.00000000000E+00 0.  1.
         23    2    1    2    0    0  0.67035195853E+02 -0.52029183439E+02  0.34260739315E+03  0.37444101988E+03  0.12500199243E+03 0.  0.
          5    1    3    3  502    0  0.41448042825E+02 -0.64603052207E+02  0.33614977752E+03  0.34483366647E+03  0.47000000000E+01 0.  1.
         -5    1    3    3    0  502  0.25587153027E+02  0.12573868768E+02  0.64576156321E+01  0.29607353402E+02  0.47000000000E+01 0.  1.
        -11    1    1    2    0    0 -0.65080971095E+01  0.31539588937E+02  0.10402219520E+03  0.10889314989E+03  0.00000000000E+00 0. -1.
         11    1    1    2    0    0 -0.60527098743E+02  0.20489594502E+02  0.20422256998E+02  0.67085182761E+02  0.00000000000E+00 0.  1.
<mgrwt>
<rscale>  0 0.14392664E+03</rscale>
<asrwt>0</asrwt>
<pdfrwt beam="1">  1        2 0.78267011E-01 0.15108359E+03</pdfrwt>
<pdfrwt beam="2">  1       -2 0.64128855E-02 0.15108359E+03</pdfrwt>
<totfact> 0.78487304E+03</totfact>
</mgrwt>
</event>
<event>
 7    1  0.5206756E-006  0.1337256E+03  0.7546771E-02  0.1227930E+00
          1   -1    0    0  501    0  0.00000000000E+00  0.00000000000E+00  0.59251645151E+03  0.59251645151E+03  0.00000000000E+00 0. -1.
         -1   -1    0    0    0  501 -0.00000000000E+00 -0.00000000000E+00 -0.32288063350E+02  0.32288063350E+02  0.00000000000E+00 0.  1.
         23    2    1    2    0    0 -0.60389579543E+01  0.47128947142E+02  0.42305461750E+03  0.44368652903E+03  0.12499967994E+03 0.  0.
          5    1    3    3  502    0 -0.12204274939E+02 -0.39406142655E+02  0.84329806131E+02  0.93996779774E+02  0.47000000000E+01 0. -1.
         -5    1    3    3    0  502  0.61653169846E+01  0.86535089797E+02  0.33872481137E+03  0.34968974926E+03  0.47000000000E+01 0. -1.
        -11    1    1    2    0    0  0.51829082588E+02  0.14768248849E-01  0.70465585234E+02  0.87473725897E+02  0.00000000000E+00 0.  1.
         11    1    1    2    0    0 -0.45790124633E+02 -0.47143715391E+02  0.66708185425E+02  0.93644259929E+02  0.00000000000E+00 0. -1.
<mgrwt>
<rscale>  0 0.12968111E+03</rscale>
<asrwt>0</asrwt>
<pdfrwt beam="1">  1        1 0.91156369E-01 0.13372556E+03</pdfrwt>
<pdfrwt beam="2">  1       -1 0.49673948E-02 0.13372556E+03</pdfrwt>
<totfact> 0.61231040E+03</totfact>
</mgrwt>
</event>
<event>
 7    1  0.5206756E-006  0.1432402E+03  0.7546771E-02  0.1219228E+00
         -2   -1    0    0    0  501 -0.00000000000E+00  0.00000000000E+00  0.19908032866E+02  0.19908032866E+02  0.00000000000E+00 0.  1.
          2   -1    0    0  501    0  0.00000000000E+00 -0.00000000000E+00 -0.92355609548E+03  0.92355609548E+03  0.00000000000E+00 0. -1.
         23    2    1    2    0    0 -0.64539565968E+02 -0.26932789481E+02 -0.63719990681E+03  0.65310143268E+03  0.12500811737E+03 0.  0.
          5    1    3    3  502    0  0.17554227120E+02  0.10967271564E+01 -0.40131211267E+03  0.40172485046E+03  0.47000000000E+01 0.  1.
         -5    1    3    3    0  502 -0.82093793088E+02 -0.28029516637E+02 -0.23588779414E+03  0.25137658223E+03  0.47000000000E+01 0.  1.
        -11    1    1    2    0    0  0.86967286379E+02  0.11131211689E+02 -0.21126168049E+03  0.22873283634E+03  0.00000000000E+00 0. -1.
         11    1    1    2    0    0 -0.22427720411E+02  0.15801577791E+02 -0.55186475312E+02  0.61629859328E+02  0.00000000000E+00 0.  1.
<mgrwt>
<rscale>  0 0.13570472E+03</rscale>
<asrwt>0</asrwt>
<pdfrwt beam="2">  1        2 0.14208559E+00 0.14324022E+03</pdfrwt>
<pdfrwt beam="1">  1       -2 0.30627736E-02 0.14324022E+03</pdfrwt>
<totfact> 0.11605026E+04</totfact>
</mgrwt>
</event>
<event>
 7    1  0.5206756E-006  0.1296823E+03  0.7546771E-02  0.1241613E+00
          1   -1    0    0  501    0  0.00000000000E+00  0.00000000000E+00  0.27052323330E+03  0.27052323330E+03  0.00000000000E+00 0. -1.
         -1   -1    0    0    0  501 -0.00000000000E+00 -0.00000000000E+00 -0.49780106340E+02  0.49780106340E+02  0.00000000000E+00 0.  1.
         23    2    1    2    0    0 -0.26365941064E+02 -0.22289472856E+02  0.15601898475E+03  0.20287787719E+03  0.12500210398E+03 0.  0.
          5    1    3    3  502    0 -0.74698541514E+02 -0.20454815493E+01  0.72858536347E+02  0.10447254385E+03  0.47000000000E+01 0. -1.
         -5    1    3    3    0  502  0.48332600451E+02 -0.20243991307E+02  0.83160448407E+02  0.98405333339E+02  0.47000000000E+01 0. -1.
        -11    1    1    2    0    0  0.55885182388E+02 -0.12172108722E+01  0.21107459498E+02  0.59750816390E+02  0.00000000000E+00 0. -1.
         11    1    1    2    0    0 -0.29519241325E+02  0.23506683728E+02  0.43616682709E+02  0.57674646066E+02  0.00000000000E+00 0.  1.
<mgrwt>
<rscale>  0 0.12090433E+03</rscale>
<asrwt>0</asrwt>
<pdfrwt beam="1">  1        1 0.41618958E-01 0.12968234E+03</pdfrwt>
<pdfrwt beam="2">  1       -1 0.76584781E-02 0.12968234E+03</pdfrwt>
<totfact> 0.86864954E+03</totfact>
</mgrwt>
</event>
<event>
 7    1  0.5206756E-006  0.1359098E+03  0.7546771E-02  0.1230894E+00
         -2   -1    0    0    0  501 -0.00000000000E+00  0.00000000000E+00  0.49528565837E+02  0.49528565837E+02  0.00000000000E+00 0.  1.
          2   -1    0    0  501    0  0.00000000000E+00 -0.00000000000E+00 -0.31760826680E+03  0.31760826680E+03  0.00000000000E+00 0. -1.
         23    2    1    2    0    0  0.14572306194E+02 -0.51308306430E+02 -0.19778170014E+03  0.23997722739E+03  0.12500629719E+03 0.  0.
          5    1    3    3  502    0  0.35377591297E+02 -0.99857141988E+01 -0.18906722872E+03  0.19266498237E+03  0.47000000000E+01 0. -1.
         -5    1    3    3    0  502 -0.20805285103E+02 -0.41322592231E+02 -0.87144714224E+01  0.47312245023E+02  0.47000000000E+01 0. -1.
        -11    1    1    2    0    0  0.95937117132E+01  0.59025285829E+02 -0.80102886545E+02  0.99962473481E+02  0.00000000000E+00 0. -1.
         11    1    1    2    0    0 -0.24166017907E+02 -0.77169793990E+01  0.98048857216E+01  0.27197131771E+02  0.00000000000E+00 0.  1.
<mgrwt>
<rscale>  0 0.12770993E+03</rscale>
<asrwt>0</asrwt>
<pdfrwt beam="2">  1        2 0.48862811E-01 0.13590978E+03</pdfrwt>
<pdfrwt beam="1">  1       -2 0.76197793E-02 0.13590978E+03</pdfrwt>
<totfact> 0.99311959E+03</totfact>
</mgrwt>
</event>
<event>
 7    1  0.5206756E-006  0.1316523E+03  0.7546771E-02  0.1239434E+00
         -2   -1    0    0    0  501 -0.00000000000E+00  0.00000000000E+00  0.47328965408E+02  0.47328965408E+02  0.00000000000E+00 0.  1.
          2   -1    0    0  501    0  0.00000000000E+00 -0.00000000000E+00 -0.29348813605E+03  0.29348813605E+03  0.00000000000E+00 0. -1.
         23    2    1    2    0    0  0.40856081911E+02 -0.62783265615E+01 -0.17863675992E+03  0.22190855724E+03  0.12499471575E+03 0.  0.
          5    1    3    3  502    0  0.55263162581E+02  0.47970804681E+02 -0.81593021407E+02  0.10970290052E+03  0.47000000000E+01 0.  1.
         -5    1    3    3    0  502 -0.14407080670E+02 -0.54249131242E+02 -0.97043738518E+02  0.11220565672E+03  0.47000000000E+01 0.  1.
        -11    1    1    2    0    0 -0.13856750399E+02  0.17623664195E+02  0.17847196315E+02  0.28655287254E+02  0.00000000000E+00 0.  1.
         11    1    1    2    0    0 -0.26999331512E+02 -0.11345337634E+02 -0.85369607035E+02  0.90253256968E+02  0.00000000000E+00 0. -1.
<mgrwt>
<rscale>  0 0.12224799E+03</rscale>
<asrwt>0</asrwt>
<pdfrwt beam="2">  1        2 0.45152020E-01 0.13165225E+03</pdfrwt>
<pdfrwt beam="1">  1       -2 0.72813795E-02 0.13165225E+03</pdfrwt>
<totfact> 0.11550091E+04</totfact>
</mgrwt>
</event>
<event>
 7    1  0.5206756E-006  0.1664480E+03  0.7546771E-02  0.1188348E+00
          2   -1    0    0  501    0  0.00000000000E+00  0.00000000000E+00  0.17495089734E+04  0.17495089734E+04  0.00000000000E+00 0. -1.
         -2   -1    0    0    0  501 -0.00000000000E+00 -0.00000000000E+00 -0.20865657606E+02  0.20865657606E+02  0.00000000000E+00 0.  1.
         23    2    1    2    0    0 -0.13586700065E+02  0.10906729781E+03  0.14245688717E+04  0.14342598801E+04  0.12499863863E+03 0.  0.
          5    1    3    3  502    0  0.41417794265E+02 -0.17760846554E+01  0.29814607827E+03  0.30105109558E+03  0.47000000000E+01 0.  1.
         -5    1    3    3    0  502 -0.55004494329E+02  0.11084338246E+03  0.11264227934E+04  0.11332087846E+04  0.47000000000E+01 0.  1.
        -11    1    1    2    0    0 -0.28144488085E+02 -0.89578689066E+02  0.16802661018E+03  0.19248219521E+03  0.00000000000E+00 0. -1.
         11    1    1    2    0    0  0.41731188149E+02 -0.19488608739E+02  0.13604783389E+03  0.14363255564E+03  0.00000000000E+00 0.  1.
<mgrwt>
<rscale>  0 0.16030960E+03</rscale>
<asrwt>0</asrwt>
<pdfrwt beam="1">  1        2 0.26915511E+00 0.16644799E+03</pdfrwt>
<pdfrwt beam="2">  1       -2 0.32101025E-02 0.16644799E+03</pdfrwt>
<totfact> 0.38372424E+03</totfact>
</mgrwt>
</event>
<event>
 6    1  0.5206756E-006  0.2558047E+03  0.7546771E-02  0.1118494E+00
          1   -1    0    0  501    0  0.00000000000E+00  0.00000000000E+00  0.19465064210E+03  0.19465064210E+03  0.00000000000E+00 0. -1.
         -1   -1    0    0    0  501 -0.00000000000E+00 -0.00000000000E+00 -0.27291376829E+03  0.27291376829E+03  0.00000000000E+00 0.  1.
          5    1    1    2  502    0  0.77508629763E+01 -0.62465735927E+02 -0.14720475410E+02  0.64813782779E+02  0.47000000000E+01 0. -1.
         -5    1    1    2    0  502  0.17348865639E+03  0.83648739906E+02 -0.38456489737E+02  0.19645970881E+03  0.47000000000E+01 0.  1.
        -11    1    1    2    0    0 -0.11937326109E+01 -0.11817097513E+02 -0.23118409533E+02  0.25990953244E+02  0.00000000000E+00 0.  1.
         11    1    1    2    0    0 -0.18004578676E+03 -0.93659064650E+01 -0.19677515110E+01  0.18029996555E+03  0.00000000000E+00 0. -1.
<mgrwt>
<rscale>  0 0.24195948E+03</rscale>
<asrwt>0</asrwt>
<pdfrwt beam="1">  1        1 0.29946252E-01 0.25580471E+03</pdfrwt>
<pdfrwt beam="2">  1       -1 0.41986734E-01 0.25580471E+03</pdfrwt>
<totfact> 0.86005376E+02</totfact>
</mgrwt>
</event>
<event>
 7    1  0.5206756E-006  0.1575123E+03  0.7546771E-02  0.1199245E+00
          2   -1    0    0  501    0  0.00000000000E+00  0.00000000000E+00  0.83056138359E+03  0.83056138359E+03  0.00000000000E+00 0. -1.
         -2   -1    0    0    0  501 -0.00000000000E+00 -0.00000000000E+00 -0.28001241085E+02  0.28001241085E+02  0.00000000000E+00 0.  1.
         23    2    1    2    0    0 -0.89457877368E+02  0.34384110604E+02  0.56205769815E+03  0.58371139419E+03  0.12500062710E+03 0.  0.
          5    1    3    3  502    0 -0.33263748327E+02  0.64614510788E+02  0.43914618009E+03  0.44514376267E+03  0.47000000000E+01 0. -1.
         -5    1    3    3    0  502 -0.56194129042E+02 -0.30230400184E+02  0.12291151806E+03  0.13856763152E+03  0.47000000000E+01 0. -1.
        -11    1    1    2    0    0  0.68672401626E+02 -0.64497878796E+02  0.19411295262E+03  0.21576773042E+03  0.00000000000E+00 0.  1.
         11    1    1    2    0    0  0.20785475742E+02  0.30113768191E+02  0.46389491734E+02  0.59083500064E+02  0.00000000000E+00 0. -1.
<mgrwt>
<rscale>  0 0.15100385E+03</rscale>
<asrwt>0</asrwt>
<pdfrwt beam="1">  1        2 0.12777866E+00 0.15751233E+03</pdfrwt>
<pdfrwt beam="2">  1       -2 0.43078839E-02 0.15751233E+03</pdfrwt>
<totfact> 0.80694030E+03</totfact>
</mgrwt>
</event>
<event>
 7    1  0.5206756E-006  0.1438161E+03  0.7546771E-02  0.1218671E+00
         -1   -1    0    0    0  501 -0.00000000000E+00  0.00000000000E+00  0.37918071275E+02  0.37918071275E+02  0.00000000000E+00 0.  1.
          1   -1    0    0  501    0  0.00000000000E+00 -0.00000000000E+00 -0.51266026292E+03  0.51266026292E+03  0.00000000000E+00 0. -1.
         23    2    1    2    0    0 -0.67098357573E+02  0.23555979080E+02 -0.36092874486E+03  0.38852623981E+03  0.12500402561E+03 0.  0.
          5    1    3    3  502    0 -0.11387696118E+02  0.48906924757E+02 -0.47972676373E+02  0.69606282693E+02  0.47000000000E+01 0.  1.
         -5    1    3    3    0  502 -0.55710661456E+02 -0.25350945677E+02 -0.31295606848E+03  0.31891995712E+03  0.47000000000E+01 0.  1.
        -11    1    1    2    0    0  0.56570877917E+02 -0.37935575670E+02 -0.26740257715E+02  0.73173858121E+02  0.00000000000E+00 0.  1.
         11    1    1    2    0    0  0.10527479657E+02  0.14379596590E+02 -0.87073189075E+02  0.88878236265E+02  0.00000000000E+00 0. -1.
<mgrwt>
<rscale>  0 0.13610287E+03</rscale>
<asrwt>0</asrwt>
<pdfrwt beam="2">  1        1 0.78870805E-01 0.14381613E+03</pdfrwt>
<pdfrwt beam="1">  1       -1 0.58335498E-02 0.14381613E+03</pdfrwt>
<totfact> 0.58738221E+03</totfact>
</mgrwt>
</event>
<event>
 7    1  0.5206756E-006  0.1253943E+03  0.7546771E-02  0.1250178E+00
          2   -1    0    0  501    0  0.00000000000E+00  0.00000000000E+00  0.10937381958E+04  0.10937381958E+04  0.00000000000E+00 0.  1.
         -2   -1    0    0    0  501 -0.00000000000E+00 -0.00000000000E+00 -0.15262634533E+02  0.15262634533E+02  0.00000000000E+00 0. -1.
         23    2    1    2    0    0 -0.18481070131E+01 -0.96923517759E+01  0.89867939670E+03  0.90738547104E+03  0.12500551113E+03 0.  0.
          5    1    3    3  502    0  0.11922797074E+02 -0.65533746345E+02  0.53611149129E+03  0.54025405699E+03  0.47000000000E+01 0. -1.
         -5    1    3    3    0  502 -0.13770904087E+02  0.55841394569E+02  0.36256790542E+03  0.36713141405E+03  0.47000000000E+01 0. -1.
        -11    1    1    2    0    0 -0.44098445353E+02  0.11107088246E+01  0.78227829513E+02  0.89808128067E+02  0.00000000000E+00 0. -1.
         11    1    1    2    0    0  0.45946552366E+02  0.85816429514E+01  0.10156833508E+03  0.11180723125E+03  0.00000000000E+00 0.  1.
<mgrwt>
<rscale>  0 0.11580771E+03</rscale>
<asrwt>0</asrwt>
<pdfrwt beam="1">  1        2 0.16826735E+00 0.12539432E+03</pdfrwt>
<pdfrwt beam="2">  1       -2 0.23480985E-02 0.12539432E+03</pdfrwt>
<totfact> 0.13449555E+04</totfact>
</mgrwt>
</event>
<event>
 7    1  0.5206756E-006  0.1399086E+03  0.7546771E-02  0.1225048E+00
         -2   -1    0    0    0  501 -0.00000000000E+00  0.00000000000E+00  0.93517922025E+02  0.93517922025E+02  0.00000000000E+00 0.  1.
          2   -1    0    0  501    0  0.00000000000E+00 -0.00000000000E+00 -0.21592247695E+03  0.21592247695E+03  0.00000000000E+00 0. -1.
         23    2    1    2    0    0 -0.49494071184E+02  0.38733668088E+02 -0.14054430352E+03  0.19831063999E+03  0.12499779419E+03 0.  0.
          5    1    3    3  502    0 -0.38425735673E+02 -0.26951968446E+02 -0.11921798155E+03  0.12821061925E+03  0.47000000000E+01 0.  1.
         -5    1    3    3    0  502 -0.11068335510E+02  0.65685636534E+02 -0.21326321976E+02  0.70100020734E+02  0.47000000000E+01 0.  1.
        -11    1    1    2    0    0 -0.19320639019E+02 -0.86909874755E+01  0.28307947631E+02  0.35357605327E+02  0.00000000000E+00 0.  1.
         11    1    1    2    0    0  0.68814710203E+02 -0.30042680613E+02 -0.10168199032E+02  0.75772153660E+02  0.00000000000E+00 0. -1.
<mgrwt>
<rscale>  0 0.13163604E+03</rscale>
<asrwt>0</asrwt>
<pdfrwt beam="2">  1        2 0.33218842E-01 0.13990857E+03</pdfrwt>
<pdfrwt beam="1">  1       -2 0.14387373E-01 0.13990857E+03</pdfrwt>
<totfact> 0.54984354E+03</totfact>
</mgrwt>
</event>
<event>
 7    1  0.5206756E-006  0.1632237E+03  0.7546771E-02  0.1191245E+00
         -2   -1    0    0    0  501 -0.00000000000E+00  0.00000000000E+00  0.28869995635E+03  0.28869995635E+03  0.00000000000E+00 0. -1.
          2   -1    0    0  501    0  0.00000000000E+00 -0.00000000000E+00 -0.80935367327E+02  0.80935367327E+02  0.00000000000E+00 0.  1.
         23    2    1    2    0    0  0.99923160472E+02  0.19529263593E+02  0.11399086401E+03  0.19908762869E+03  0.12757717933E+03 0.  0.
          5    1    3    3  502    0  0.77909358979E+02 -0.31759948343E+02  0.11560072143E+03  0.14305306473E+03  0.47000000000E+01 0. -1.
         -5    1    3    3    0  502  0.22013801493E+02  0.51289211937E+02 -0.16098574156E+01  0.56034563960E+02  0.47000000000E+01 0.  1.
        -11    1    1    2    0    0 -0.11344590859E+03 -0.27287213106E+02  0.55475474764E+02  0.12919788882E+03  0.00000000000E+00 0. -1.
         11    1    1    2    0    0  0.13522748123E+02  0.77579495130E+01  0.38298250248E+02  0.41349806160E+02  0.00000000000E+00 0.  1.
<mgrwt>
<rscale>  0 0.15776318E+03</rscale>
<asrwt>0</asrwt>
<pdfrwt beam="2">  1        2 0.12451595E-01 0.16322367E+03</pdfrwt>
<pdfrwt beam="1">  1       -2 0.44415377E-01 0.16322367E+03</pdfrwt>
<totfact> 0.23128778E+03</totfact>
</mgrwt>
</event>
<event>
 7    1  0.5206756E-006  0.1273036E+03  0.7546771E-02  0.1246209E+00
         -1   -1    0    0    0  501 -0.00000000000E+00  0.00000000000E+00  0.28571150456E+03  0.28571150456E+03  0.00000000000E+00 0.  1.
          1   -1    0    0  501    0  0.00000000000E+00 -0.00000000000E+00 -0.43963724743E+02  0.43963724743E+02  0.00000000000E+00 0. -1.
         23    2    1    2    0    0 -0.16363583235E+02  0.17712583516E+02  0.11438514942E+03  0.17114370490E+03  0.12499881138E+03 0.  0.
          5    1    3    3  502    0 -0.27521751989E+02  0.13474030889E+02 -0.19513837460E+02  0.36631628319E+02  0.47000000000E+01 0.  1.
         -5    1    3    3    0  502  0.11158168753E+02  0.42385526278E+01  0.13389898688E+03  0.13451207658E+03  0.47000000000E+01 0.  1.
        -11    1    1    2    0    0  0.39783063991E+02  0.23704135046E+02  0.71048377475E+02  0.84808314100E+02  0.00000000000E+00 0. -1.
         11    1    1    2    0    0 -0.23419480756E+02 -0.41416718563E+02  0.56314252922E+02  0.73723210304E+02  0.00000000000E+00 0.  1.
<mgrwt>
<rscale>  0 0.11813303E+03</rscale>
<asrwt>0</asrwt>
<pdfrwt beam="2">  1        1 0.67636501E-02 0.12730360E+03</pdfrwt>
<pdfrwt beam="1">  1       -1 0.43955615E-01 0.12730360E+03</pdfrwt>
<totfact> 0.54062836E+03</totfact>
</mgrwt>
</event>
<event>
 7    1  0.5206756E-006  0.1595821E+03  0.7546771E-02  0.1196159E+00
          1   -1    0    0  501    0  0.00000000000E+00  0.00000000000E+00  0.18212310038E+04  0.18212310038E+04  0.00000000000E+00 0. -1.
         -1   -1    0    0    0  501 -0.00000000000E+00 -0.00000000000E+00 -0.12980267045E+02  0.12980267045E+02  0.00000000000E+00 0.  1.
         23    2    1    2    0    0 -0.96524283529E+02  0.32263450072E+02  0.12118721580E+04  0.12223340682E+04  0.12291696119E+03 0.  0.
          5    1    3    3  502    0 -0.41447749238E+01  0.59166743716E+02  0.34116555687E+03  0.34631475555E+03  0.47000000000E+01 0. -1.
         -5    1    3    3    0  502 -0.92379508605E+02 -0.26903293644E+02  0.87070660113E+03  0.87601931262E+03  0.47000000000E+01 0. -1.
        -11    1    1    2    0    0  0.72635379305E+00 -0.34639605496E+02  0.88561538532E+02  0.95097717985E+02  0.00000000000E+00 0.  1.
         11    1    1    2    0    0  0.95797929736E+02  0.23761554245E+01  0.50781704020E+03  0.51677948467E+03  0.00000000000E+00 0. -1.
<mgrwt>
<rscale>  0 0.15356585E+03</rscale>
<asrwt>0</asrwt>
<pdfrwt beam="1">  1        1 0.28018918E+00 0.15958210E+03</pdfrwt>
<pdfrwt beam="2">  1       -1 0.19969656E-02 0.15958210E+03</pdfrwt>
<totfact> 0.30181207E+03</totfact>
</mgrwt>
</event>
<event>
 7    1  0.5206756E-006  0.1295661E+03  0.7546771E-02  0.1242382E+00
         -2   -1    0    0    0  501 -0.00000000000E+00  0.00000000000E+00  0.79130241057E+01  0.79130241057E+01  0.00000000000E+00 0.  1.
          2   -1    0    0  501    0  0.00000000000E+00 -0.00000000000E+00 -0.18148206123E+04  0.18148206123E+04  0.00000000000E+00 0. -1.
         23    2    1    2    0    0 -0.33848917695E+02  0.42006236031E+01 -0.13177934832E+04  0.13241476685E+04  0.12499595602E+03 0.  0.
          5    1    3    3  502    0 -0.56396404539E+02  0.17857995613E+02 -0.29019758266E+03  0.29620295312E+03  0.47000000000E+01 0.  1.
         -5    1    3    3    0  502  0.22547486845E+02 -0.13657372009E+02 -0.10275959006E+04  0.10279447154E+04  0.47000000000E+01 0.  1.
        -11    1    1    2    0    0  0.17152435580E+02  0.43082541774E+02 -0.25133261364E+03  0.25557463515E+03  0.00000000000E+00 0.  1.
         11    1    1    2    0    0  0.16696482115E+02 -0.47283165377E+02 -0.23778149130E+03  0.24301133276E+03  0.00000000000E+00 0. -1.
<mgrwt>
<rscale>  0 0.12043458E+03</rscale>
<asrwt>0</asrwt>
<pdfrwt beam="2">  1        2 0.27920311E+00 0.12956614E+03</pdfrwt>
<pdfrwt beam="1">  1       -2 0.12173886E-02 0.12956614E+03</pdfrwt>
<totfact> 0.14467077E+04</totfact>
</mgrwt>
</event>
<event>
 7    1  0.5206756E-006  0.1362679E+03  0.7546771E-02  0.1229241E+00
          2   -1    0    0  501    0  0.00000000000E+00  0.00000000000E+00  0.44862598986E+03  0.44862598986E+03  0.00000000000E+00 0. -1.
         -2   -1    0    0    0  501 -0.00000000000E+00 -0.00000000000E+00 -0.42607329603E+02  0.42607329603E+02  0.00000000000E+00 0.  1.
         23    2    1    2    0    0  0.49520680908E+02  0.22155840365E+02  0.33412749347E+03  0.36084638775E+03  0.12500301820E+03 0.  0.
          5    1    3    3  502    0  0.70032857768E+02 -0.29868134292E+02  0.23329303635E+03  0.24544742293E+03  0.47000000000E+01 0. -1.
         -5    1    3    3    0  502 -0.20512176860E+02  0.52023974657E+02  0.10083445712E+03  0.11539896482E+03  0.47000000000E+01 0. -1.
        -11    1    1    2    0    0 -0.28778290660E+02 -0.55293055272E+01 -0.19505517822E+02  0.35202676865E+02  0.00000000000E+00 0.  1.
         11    1    1    2    0    0 -0.20742390248E+02 -0.16626534838E+02  0.91396684604E+02  0.95184254846E+02  0.00000000000E+00 0. -1.
<mgrwt>
<rscale>  0 0.12880398E+03</rscale>
<asrwt>0</asrwt>
<pdfrwt beam="1">  1        2 0.69019380E-01 0.13626787E+03</pdfrwt>
<pdfrwt beam="2">  1       -2 0.65549741E-02 0.13626787E+03</pdfrwt>
<totfact> 0.86525489E+03</totfact>
</mgrwt>
</event>
<event>
 7    1  0.5206756E-006  0.1292103E+03  0.7546771E-02  0.1253345E+00
         -2   -1    0    0    0  501 -0.00000000000E+00  0.00000000000E+00  0.13961711984E+02  0.13961711984E+02  0.00000000000E+00 0.  1.
          2   -1    0    0  501    0  0.00000000000E+00 -0.00000000000E+00 -0.79210390465E+03  0.79210390465E+03  0.00000000000E+00 0. -1.
         23    2    1    2    0    0  0.31914496718E+02  0.71960117087E+01 -0.54597916494E+03  0.56106019194E+03  0.12499989097E+03 0.  0.
          5    1    3    3  502    0  0.60028374966E+02  0.19978388728E+02 -0.50771754069E+03  0.51166564565E+03  0.47000000000E+01 0. -1.
         -5    1    3    3    0  502 -0.28113878248E+02 -0.12782377019E+02 -0.38261624254E+02  0.49394546288E+02  0.47000000000E+01 0. -1.
        -11    1    1    2    0    0  0.97062979483E+01 -0.15705752480E+02 -0.15178077935E+02  0.23900981792E+02  0.00000000000E+00 0.  1.
         11    1    1    2    0    0 -0.41620794666E+02  0.85097407716E+01 -0.21698494979E+03  0.22110444291E+03  0.00000000000E+00 0. -1.
<mgrwt>
<rscale>  0 0.11399544E+03</rscale>
<asrwt>0</asrwt>
<pdfrwt beam="2">  1        2 0.12186212E+00 0.12921026E+03</pdfrwt>
<pdfrwt beam="1">  1       -2 0.21479560E-02 0.12921026E+03</pdfrwt>
<totfact> 0.23553765E+04</totfact>
</mgrwt>
</event>
<event>
 7    1  0.5206756E-006  0.1254683E+03  0.7546771E-02  0.1247606E+00
          1   -1    0    0  501    0  0.00000000000E+00  0.00000000000E+00  0.31461077828E+03  0.31461077828E+03  0.00000000000E+00 0. -1.
         -1   -1    0    0    0  501 -0.00000000000E+00 -0.00000000000E+00 -0.38937170528E+02  0.38937170528E+02  0.00000000000E+00 0.  1.
         23    2    1    2    0    0 -0.50487641610E+01  0.93910521304E+01  0.15840119907E+03  0.20207235436E+03  0.12501445776E+03 0.  0.
          5    1    3    3  502    0 -0.11551050895E+02 -0.54437563111E+02  0.45109973946E+02  0.71790492432E+02  0.47000000000E+01 0. -1.
         -5    1    3    3    0  502  0.65022867335E+01  0.63828615242E+02  0.11329122513E+03  0.13028186193E+03  0.47000000000E+01 0. -1.
        -11    1    1    2    0    0  0.20719145361E+02  0.14606944929E+02 -0.50428976415E+01  0.25847178594E+02  0.00000000000E+00 0.  1.
         11    1    1    2    0    0 -0.15670381200E+02 -0.23997997059E+02  0.12231530632E+03  0.12562841585E+03  0.00000000000E+00 0. -1.
<mgrwt>
<rscale>  0 0.11730783E+03</rscale>
<asrwt>0</asrwt>
<pdfrwt beam="1">  1        1 0.48401657E-01 0.12546831E+03</pdfrwt>
<pdfrwt beam="2">  1       -1 0.59903341E-02 0.12546831E+03</pdfrwt>
<totfact> 0.10381822E+04</totfact>
</mgrwt>
</event>
<event>
 7    1  0.5206756E-006  0.1515934E+03  0.7546771E-02  0.1205976E+00
          2   -1    0    0  501    0  0.00000000000E+00  0.00000000000E+00  0.13011936966E+04  0.13011936966E+04  0.00000000000E+00 0. -1.
         -2   -1    0    0    0  501 -0.00000000000E+00 -0.00000000000E+00 -0.41712113711E+02  0.41712113711E+02  0.00000000000E+00 0.  1.
         23    2    1    2    0    0 -0.14113177319E+02  0.91300061508E+02  0.11834870303E+04  0.11931563624E+04  0.12019014624E+03 0.  0.
          5    1    3    3  502    0 -0.61200619384E+01 -0.23247048074E+02  0.45514066549E+03  0.45579929332E+03  0.47000000000E+01 0. -1.
         -5    1    3    3    0  502 -0.79931153810E+01  0.11454710958E+03  0.72834636476E+03  0.73735706904E+03  0.47000000000E+01 0.  1.
        -11    1    1    2    0    0 -0.20469157850E+01 -0.10090794338E+03  0.38905771831E+02  0.10816774928E+03  0.00000000000E+00 0. -1.
         11    1    1    2    0    0  0.16160093104E+02  0.96078818765E+01  0.37088780846E+02  0.41581698714E+02  0.00000000000E+00 0.  1.
<mgrwt>
<rscale>  0 0.14560828E+03</rscale>
<asrwt>0</asrwt>
<pdfrwt beam="1">  1        2 0.20018361E+00 0.15159338E+03</pdfrwt>
<pdfrwt beam="2">  1       -2 0.64172493E-02 0.15159338E+03</pdfrwt>
<totfact> 0.23296716E+03</totfact>
</mgrwt>
</event>
<event>
 7    1  0.5206756E-006  0.1379607E+03  0.7546771E-02  0.1227977E+00
          1   -1    0    0  501    0  0.00000000000E+00  0.00000000000E+00  0.70814646724E+03  0.70814646724E+03  0.00000000000E+00 0. -1.
         -1   -1    0    0    0  501 -0.00000000000E+00 -0.00000000000E+00 -0.27346381187E+02  0.27346381187E+02  0.00000000000E+00 0.  1.
         23    2    1    2    0    0  0.36737294666E+02  0.45358607212E+02  0.54521870821E+03  0.56240251658E+03  0.12500447511E+03 0.  0.
          5    1    3    3  502    0  0.21005144209E+02 -0.18878639016E+01  0.47864576789E+03  0.47913321867E+03  0.47000000000E+01 0. -1.
         -5    1    3    3    0  502  0.15732150457E+02  0.47246471113E+02  0.66572940325E+02  0.83269297909E+02  0.47000000000E+01 0. -1.
        -11    1    1    2    0    0  0.98073872825E+01 -0.29044116377E+02  0.11607028700E+03  0.12005022727E+03  0.00000000000E+00 0. -1.
         11    1    1    2    0    0 -0.46544681949E+02 -0.16314490834E+02  0.19511090838E+02  0.53040104587E+02  0.00000000000E+00 0.  1.
<mgrwt>
<rscale>  0 0.12964939E+03</rscale>
<asrwt>0</asrwt>
<pdfrwt beam="1">  1        1 0.10894560E+00 0.13796069E+03</pdfrwt>
<pdfrwt beam="2">  1       -1 0.42071361E-02 0.13796069E+03</pdfrwt>
<totfact> 0.61118350E+03</totfact>
</mgrwt>
</event>
<event>
 7    1  0.5206756E-006  0.1395492E+03  0.7546771E-02  0.1224928E+00
         -1   -1    0    0    0  501 -0.00000000000E+00  0.00000000000E+00  0.25697084407E+02  0.25697084407E+02  0.00000000000E+00 0.  1.
          1   -1    0    0  501    0  0.00000000000E+00 -0.00000000000E+00 -0.27068672237E+04  0.27068672237E+04  0.00000000000E+00 0. -1.
         23    2    1    2    0    0  0.61841979001E+02  0.49839717741E+01 -0.25761500466E+04  0.25799269468E+04  0.12499887060E+03 0.  0.
          5    1    3    3  502    0  0.72206615091E+02  0.53298975646E+02 -0.16895267868E+04  0.16919153139E+04  0.47000000000E+01 0. -1.
         -5    1    3    3    0  502 -0.10364636090E+02 -0.48315003872E+02 -0.88662325980E+03  0.88801163286E+03  0.47000000000E+01 0. -1.
        -11    1    1    2    0    0 -0.66321637028E+02 -0.38082599559E+02 -0.81648906647E+02  0.11187219442E+03  0.00000000000E+00 0. -1.
         11    1    1    2    0    0  0.44796580270E+01  0.33098627785E+02 -0.23371186026E+02  0.40765166914E+02  0.00000000000E+00 0.  1.
<mgrwt>
<rscale>  0 0.13171841E+03</rscale>
<asrwt>0</asrwt>
<pdfrwt beam="2">  1        1 0.41644087E+00 0.13954923E+03</pdfrwt>
<pdfrwt beam="1">  1       -1 0.39533998E-02 0.13954923E+03</pdfrwt>
<totfact> 0.29936060E+02</totfact>
</mgrwt>
</event>
<event>
 7    1  0.5206756E-006  0.1344625E+03  0.7546771E-02  0.1233891E+00
          2   -1    0    0  501    0  0.00000000000E+00  0.00000000000E+00  0.70793971485E+02  0.70793971485E+02  0.00000000000E+00 0.  1.
         -2   -1    0    0    0  501 -0.00000000000E+00 -0.00000000000E+00 -0.20119853024E+03  0.20119853024E+03  0.00000000000E+00 0. -1.
         23    2    1    2    0    0  0.42552600391E+02  0.25382372550E+02 -0.59452259105E+02  0.14701951020E+03  0.12500070652E+03 0.  0.
          5    1    3    3  502    0  0.33323968420E+02  0.11042386263E+02  0.35669207229E+02  0.50267320498E+02  0.47000000000E+01 0. -1.
         -5    1    3    3    0  502  0.92286319710E+01  0.14339986287E+02 -0.95121466334E+02  0.96752189703E+02  0.47000000000E+01 0. -1.
        -11    1    1    2    0    0  0.19493623513E+02 -0.70453096994E+01  0.85926889624E+01  0.22438182860E+02  0.00000000000E+00 0.  1.
         11    1    1    2    0    0 -0.62046223905E+02 -0.18337062850E+02 -0.79544988617E+02  0.10253480867E+03  0.00000000000E+00 0. -1.
<mgrwt>
<rscale>  0 0.12575702E+03</rscale>
<asrwt>0</asrwt>
<pdfrwt beam="1">  1        2 0.10891380E-01 0.13446251E+03</pdfrwt>
<pdfrwt beam="2">  1       -2 0.30953620E-01 0.13446251E+03</pdfrwt>
<totfact> 0.52815806E+03</totfact>
</mgrwt>
</event>
<event>
 7    1  0.5206756E-006  0.1705260E+03  0.7546771E-02  0.1184006E+00
         -2   -1    0    0    0  501 -0.00000000000E+00  0.00000000000E+00  0.21040324117E+02  0.21040324117E+02  0.00000000000E+00 0.  1.
          2   -1    0    0  501    0  0.00000000000E+00 -0.00000000000E+00 -0.12291670925E+04  0.12291670925E+04  0.00000000000E+00 0. -1.
         23    2    1    2    0    0  0.11574199711E+03  0.75710379875E+01 -0.75116873531E+03  0.77028149751E+03  0.12500234393E+03 0.  0.
          5    1    3    3  502    0  0.73947240520E+02 -0.55547386979E+01 -0.69467935207E+03  0.69864192666E+03  0.47000000000E+01 0. -1.
         -5    1    3    3    0  502  0.41794756589E+02  0.13125776685E+02 -0.56489383242E+02  0.71639570845E+02  0.47000000000E+01 0. -1.
        -11    1    1    2    0    0 -0.96046248047E+02  0.22329503311E+02 -0.40496282617E+03  0.41679536833E+03  0.00000000000E+00 0. -1.
         11    1    1    2    0    0 -0.19695749061E+02 -0.29900541299E+02 -0.51995206928E+02  0.63130550801E+02  0.00000000000E+00 0.  1.
<mgrwt>
<rscale>  0 0.16422671E+03</rscale>
<asrwt>0</asrwt>
<pdfrwt beam="2">  1        2 0.18910255E+00 0.17052600E+03</pdfrwt>
<pdfrwt beam="1">  1       -2 0.32369743E-02 0.17052600E+03</pdfrwt>
<totfact> 0.71507008E+03</totfact>
</mgrwt>
</event>
<event>
 7    1  0.5206756E-006  0.1516580E+03  0.7546771E-02  0.1207000E+00
          1   -1    0    0  501    0  0.00000000000E+00  0.00000000000E+00  0.34390502539E+03  0.34390502539E+03  0.00000000000E+00 0. -1.
         -1   -1    0    0    0  501 -0.00000000000E+00 -0.00000000000E+00 -0.56712974445E+02  0.56712974445E+02  0.00000000000E+00 0.  1.
         23    2    1    2    0    0  0.77140368465E+02 -0.37974280470E+02  0.17793523556E+03  0.23379714721E+03  0.12492988259E+03 0.  0.
          5    1    3    3  502    0  0.97567463943E+02 -0.14500525139E+02  0.69159104016E+02  0.12056013818E+03  0.47000000000E+01 0.  1.
         -5    1    3    3    0  502 -0.20427095478E+02 -0.23473755331E+02  0.10877613155E+03  0.11323700903E+03  0.47000000000E+01 0.  1.
        -11    1    1    2    0    0 -0.20974002392E+02 -0.22601784313E+02  0.67607918270E+02  0.74307335057E+02  0.00000000000E+00 0. -1.
         11    1    1    2    0    0 -0.56166366072E+02  0.60576064783E+02  0.41648897106E+02  0.92513517567E+02  0.00000000000E+00 0.  1.
<mgrwt>
<rscale>  0 0.14480944E+03</rscale>
<asrwt>0</asrwt>
<pdfrwt beam="1">  1        1 0.52908464E-01 0.15165803E+03</pdfrwt>
<pdfrwt beam="2">  1       -1 0.87250732E-02 0.15165803E+03</pdfrwt>
<totfact> 0.53496620E+03</totfact>
</mgrwt>
</event>
<event>
 7    1  0.5206756E-006  0.1286966E+03  0.7546771E-02  0.1242322E+00
         -1   -1    0    0    0  501 -0.00000000000E+00  0.00000000000E+00  0.89944473568E+02  0.89944473568E+02  0.00000000000E+00 0.  1.
          1   -1    0    0  501    0  0.00000000000E+00 -0.00000000000E+00 -0.14630205971E+03  0.14630205971E+03  0.00000000000E+00 0. -1.
         23    2    1    2    0    0 -0.78043763693E+01 -0.29670009721E+02 -0.46911194773E+02  0.13697978969E+03  0.12498633854E+03 0.  0.
          5    1    3    3  502    0 -0.53001011170E+02  0.14509504580E+02  0.45523932952E+01  0.55339381935E+02  0.47000000000E+01 0. -1.
         -5    1    3    3    0  502  0.45196634800E+02 -0.44179514301E+02 -0.51463588069E+02  0.81640407753E+02  0.47000000000E+01 0. -1.
        -11    1    1    2    0    0  0.17691157826E+02  0.36339800478E+02 -0.45754885235E+02  0.61049714880E+02  0.00000000000E+00 0. -1.
         11    1    1    2    0    0 -0.98867814570E+01 -0.66697907571E+01  0.36308493869E+02  0.38217028709E+02  0.00000000000E+00 0.  1.
<mgrwt>
<rscale>  0 0.12047094E+03</rscale>
<asrwt>0</asrwt>
<pdfrwt beam="2">  1        1 0.22508009E-01 0.12869655E+03</pdfrwt>
<pdfrwt beam="1">  1       -1 0.13837612E-01 0.12869655E+03</pdfrwt>
<totfact> 0.75509474E+03</totfact>
</mgrwt>
</event>
<event>
 7    1  0.5206756E-006  0.1495896E+03  0.7546771E-02  0.1211114E+00
         -2   -1    0    0    0  501 -0.00000000000E+00  0.00000000000E+00  0.79827432704E+02  0.79827432704E+02  0.00000000000E+00 0.  1.
          2   -1    0    0  501    0  0.00000000000E+00 -0.00000000000E+00 -0.26368890647E+03  0.26368890647E+03  0.00000000000E+00 0. -1.
         23    2    1    2    0    0 -0.61824734729E+01  0.81938554524E+02 -0.16331907025E+03  0.22147272370E+03  0.12499959576E+03 0.  0.
          5    1    3    3  502    0  0.41889361053E+01 -0.28150488726E+02 -0.65634108349E+01  0.29583197308E+02  0.47000000000E+01 0.  1.
         -5    1    3    3    0  502 -0.10371409578E+02  0.11008904325E+03 -0.15675565941E+03  0.19188952639E+03  0.47000000000E+01 0.  1.
        -11    1    1    2    0    0  0.82188488832E+01 -0.55772884279E+02  0.30903640678E+02  0.64289961152E+02  0.00000000000E+00 0.  1.
         11    1    1    2    0    0 -0.20363754103E+01 -0.26165670245E+02 -0.51446044193E+02  0.57753654320E+02  0.00000000000E+00 0. -1.
<mgrwt>
<rscale>  0 0.14165913E+03</rscale>
<asrwt>0</asrwt>
<pdfrwt beam="2">  1        2 0.40567525E-01 0.14958960E+03</pdfrwt>
<pdfrwt beam="1">  1       -2 0.12281143E-01 0.14958960E+03</pdfrwt>
<totfact> 0.57565456E+03</totfact>
</mgrwt>
</event>
<event>
 7    1  0.5206756E-006  0.1742419E+03  0.7546771E-02  0.1179911E+00
          1   -1    0    0  501    0  0.00000000000E+00  0.00000000000E+00  0.48519302995E+03  0.48519302995E+03  0.00000000000E+00 0. -1.
         -1   -1    0    0    0  501 -0.00000000000E+00 -0.00000000000E+00 -0.55204517095E+02  0.55204517095E+02  0.00000000000E+00 0.  1.
         23    2    1    2    0    0  0.62795235251E+02 -0.10386540756E+03  0.26266164294E+03  0.31520054030E+03  0.12501590889E+03 0.  0.
          5    1    3    3  502    0  0.33467946921E+02 -0.69805201919E+01  0.91429420800E+00  0.34521834643E+02  0.47000000000E+01 0. -1.
         -5    1    3    3    0  502  0.29327288330E+02 -0.96884887365E+02  0.26174734874E+03  0.28067870566E+03  0.47000000000E+01 0. -1.
        -11    1    1    2    0    0 -0.62297652557E+02  0.82850006723E+02  0.68706605145E+02  0.12436124283E+03  0.00000000000E+00 0.  1.
         11    1    1    2    0    0 -0.49758269342E+00  0.21015400835E+02  0.98620264763E+02  0.10083576391E+03  0.00000000000E+00 0. -1.
<mgrwt>
<rscale>  0 0.16803685E+03</rscale>
<asrwt>0</asrwt>
<pdfrwt beam="1">  1        1 0.74645079E-01 0.17424191E+03</pdfrwt>
<pdfrwt beam="2">  1       -1 0.84930029E-02 0.17424191E+03</pdfrwt>
<totfact> 0.36184939E+03</totfact>
</mgrwt>
</event>
<event>
 7    1  0.5206756E-006  0.1276117E+03  0.7546771E-02  0.1245406E+00
         -2   -1    0    0    0  501 -0.00000000000E+00  0.00000000000E+00  0.31043370518E+02  0.31043370518E+02  0.00000000000E+00 0.  1.
          2   -1    0    0  501    0  0.00000000000E+00 -0.00000000000E+00 -0.41059612205E+03  0.41059612205E+03  0.00000000000E+00 0. -1.
         23    2    1    2    0    0  0.69139333046E+01 -0.24718476678E+02 -0.25181215464E+03  0.28230146818E+03  0.12500380853E+03 0.  0.
          5    1    3    3  502    0  0.60553683506E+02 -0.78828976224E+01 -0.75694443612E+02  0.97368513673E+02  0.47000000000E+01 0. -1.
         -5    1    3    3    0  502 -0.53639750202E+02 -0.16835579056E+02 -0.17611771103E+03  0.18493295450E+03  0.47000000000E+01 0. -1.
        -11    1    1    2    0    0  0.39109150046E+02  0.28964888660E+02 -0.72383979147E+02  0.87223453437E+02  0.00000000000E+00 0.  1.
         11    1    1    2    0    0 -0.46023083350E+02 -0.42464119821E+01 -0.55356617748E+02  0.72114570957E+02  0.00000000000E+00 0. -1.
<mgrwt>
<rscale>  0 0.11861089E+03</rscale>
<asrwt>0</asrwt>
<pdfrwt beam="2">  1        2 0.63168631E-01 0.12761175E+03</pdfrwt>
<pdfrwt beam="1">  1       -2 0.47759034E-02 0.12761175E+03</pdfrwt>
<totfact> 0.15272872E+04</totfact>
</mgrwt>
</event>
<event>
 7    1  0.5206756E-006  0.1638639E+03  0.7546771E-02  0.1191564E+00
          1   -1    0    0  501    0  0.00000000000E+00  0.00000000000E+00  0.61427809535E+03  0.61427809535E+03  0.00000000000E+00 0. -1.
         -1   -1    0    0    0  501 -0.00000000000E+00 -0.00000000000E+00 -0.45832064487E+02  0.45832064487E+02  0.00000000000E+00 0.  1.
         23    2    1    2    0    0 -0.42155171908E+02  0.97207873772E+02  0.44277662821E+03  0.47212554933E+03  0.12499985038E+03 0.  0.
          5    1    3    3  502    0 -0.57425451036E+02  0.52802577945E+02  0.40269649983E+03  0.41021013595E+03  0.47000000000E+01 0.  1.
         -5    1    3    3    0  502  0.15270279128E+02  0.44405295827E+02  0.40080128385E+02  0.61915413376E+02  0.47000000000E+01 0.  1.
        -11    1    1    2    0    0  0.17112962193E+02 -0.10711228926E+03  0.79314990584E+02  0.13437545801E+03  0.00000000000E+00 0. -1.
         11    1    1    2    0    0  0.25042209715E+02  0.99044154840E+01  0.46354412066E+02  0.53609152498E+02  0.00000000000E+00 0.  1.
<mgrwt>
<rscale>  0 0.15748644E+03</rscale>
<asrwt>0</asrwt>
<pdfrwt beam="1">  1        1 0.94504317E-01 0.16386394E+03</pdfrwt>
<pdfrwt beam="2">  1       -1 0.70510873E-02 0.16386394E+03</pdfrwt>
<totfact> 0.34877271E+03</totfact>
</mgrwt>
</event>
<event>
 7    1  0.5206756E-006  0.1274092E+03  0.7546771E-02  0.1246074E+00
         -1   -1    0    0    0  501 -0.00000000000E+00  0.00000000000E+00  0.14146363472E+02  0.14146363472E+02  0.00000000000E+00 0.  1.
          1   -1    0    0  501    0  0.00000000000E+00 -0.00000000000E+00 -0.88109575434E+03  0.88109575434E+03  0.00000000000E+00 0. -1.
         23    2    1    2    0    0 -0.17616788638E+02 -0.17265806510E+02 -0.54762449761E+03  0.56225055932E+03  0.12499856701E+03 0.  0.
          5    1    3    3  502    0 -0.10148697966E+02 -0.68396988211E+02 -0.39534790323E+03  0.40137662944E+03  0.47000000000E+01 0.  1.
         -5    1    3    3    0  502 -0.74680906727E+01  0.51131181700E+02 -0.15227659438E+03  0.16087392988E+03  0.47000000000E+01 0.  1.
        -11    1    1    2    0    0  0.14133267916E+02  0.54734619209E+02 -0.20360673336E+03  0.21130861239E+03  0.00000000000E+00 0.  1.
         11    1    1    2    0    0  0.34835207221E+01 -0.37468812699E+02 -0.11571815990E+03  0.12168294610E+03  0.00000000000E+00 0. -1.
<mgrwt>
<rscale>  0 0.11821312E+03</rscale>
<asrwt>0</asrwt>
<pdfrwt beam="2">  1        1 0.13555324E+00 0.12740919E+03</pdfrwt>
<pdfrwt beam="1">  1       -1 0.21763628E-02 0.12740919E+03</pdfrwt>
<totfact> 0.11446340E+04</totfact>
</mgrwt>
</event>
<event>
 6    1  0.5206756E-006  0.1325964E+03  0.7546771E-02  0.1240715E+00
          1   -1    0    0  501    0  0.00000000000E+00  0.00000000000E+00  0.22441719196E+03  0.22441719196E+03  0.00000000000E+00 0. -1.
         -1   -1    0    0    0  501 -0.00000000000E+00 -0.00000000000E+00 -0.57653522010E+02  0.57653522010E+02  0.00000000000E+00 0.  1.
          5    1    1    2  502    0 -0.17334060947E+02  0.52212939996E+02  0.10113342485E+03  0.11522465185E+03  0.47000000000E+01 0. -1.
         -5    1    1    2    0  502  0.40373105173E+02 -0.41640560094E+02  0.12762544818E+02  0.59572614652E+02  0.47000000000E+01 0.  1.
        -11    1    1    2    0    0  0.33519121245E+02 -0.42360856351E+00  0.31404668556E+02  0.45934345977E+02  0.00000000000E+00 0.  1.
         11    1    1    2    0    0 -0.56558165471E+02 -0.10148771338E+02  0.21463031731E+02  0.61339101495E+02  0.00000000000E+00 0. -1.
<mgrwt>
<rscale>  0 0.12145549E+03</rscale>
<asrwt>0</asrwt>
<pdfrwt beam="1">  1        1 0.34525721E-01 0.13259635E+03</pdfrwt>
<pdfrwt beam="2">  1       -1 0.88697727E-02 0.13259635E+03</pdfrwt>
<totfact> 0.87817484E+03</totfact>
</mgrwt>
</event>
<event>
 7    1  0.5206756E-006  0.1322555E+03  0.7546771E-02  0.1237332E+00
         -1   -1    0    0    0  501 -0.00000000000E+00  0.00000000000E+00  0.61697643426E+03  0.61697643426E+03  0.00000000000E+00 0.  1.
          1   -1    0    0  501    0  0.00000000000E+00 -0.00000000000E+00 -0.23667420538E+02  0.23667420538E+02  0.00000000000E+00 0. -1.
         23    2    1    2    0    0 -0.40273063488E+02 -0.15638127505E+02  0.24967567922E+03  0.28254109154E+03  0.12500021176E+03 0.  0.
          5    1    3    3  502    0 -0.66579528316E+02 -0.53558771514E+02  0.17063939715E+03  0.19089596501E+03  0.47000000000E+01 0.  1.
         -5    1    3    3    0  502  0.26306464828E+02  0.37920644010E+02  0.79036282071E+02  0.91645126534E+02  0.47000000000E+01 0.  1.
        -11    1    1    2    0    0  0.67221264199E+02  0.31368602373E+01  0.27849815973E+03  0.28651311179E+03  0.00000000000E+00 0.  1.
         11    1    1    2    0    0 -0.26948200710E+02  0.12501267267E+02  0.65135174769E+02  0.71589651466E+02  0.00000000000E+00 0. -1.
<mgrwt>
<rscale>  0 0.12356302E+03</rscale>
<asrwt>0</asrwt>
<pdfrwt beam="2">  1        1 0.36411421E-02 0.13225552E+03</pdfrwt>
<pdfrwt beam="1">  1       -1 0.94919439E-01 0.13225552E+03</pdfrwt>
<totfact> 0.28276563E+03</totfact>
</mgrwt>
</event>
<event>
 7    1  0.5206756E-006  0.1428313E+03  0.7546771E-02  0.1211406E+00
          2   -1    0    0  501    0  0.00000000000E+00  0.00000000000E+00  0.36489976997E+03  0.36489976997E+03  0.00000000000E+00 0. -1.
         -2   -1    0    0    0  501 -0.00000000000E+00 -0.00000000000E+00 -0.57921583763E+02  0.57921583763E+02  0.00000000000E+00 0.  1.
         23    2    1    2    0    0 -0.72647499682E+02  0.52305499156E+02  0.99757250465E+02  0.17421910134E+03  0.11129807635E+03 0.  0.
          5    1    3    3  502    0 -0.81531431121E+02  0.41267783939E+02  0.11884397928E+03  0.14998795172E+03  0.47000000000E+01 0. -1.
         -5    1    3    3    0  502  0.88839314385E+01  0.11037715217E+02 -0.19086728811E+02  0.24231149616E+02  0.47000000000E+01 0.  1.
        -11    1    1    2    0    0  0.68377019651E+02  0.26470059822E+01  0.58604083835E+02  0.90093629626E+02  0.00000000000E+00 0.  1.
         11    1    1    2    0    0  0.42704800309E+01 -0.54952505138E+02  0.14861685191E+03  0.15850862277E+03  0.00000000000E+00 0. -1.
<mgrwt>
<rscale>  0 0.14143851E+03</rscale>
<asrwt>0</asrwt>
<pdfrwt beam="1">  1        2 0.56138425E-01 0.14283132E+03</pdfrwt>
<pdfrwt beam="2">  1       -2 0.89110131E-02 0.14283132E+03</pdfrwt>
<totfact> 0.67469940E+03</totfact>
</mgrwt>
</event>
<event>
 6    1  0.5206756E-006  0.1378539E+03  0.7546771E-02  0.1233613E+00
         -2   -1    0    0    0  501 -0.00000000000E+00  0.00000000000E+00  0.27029460491E+02  0.27029460491E+02  0.00000000000E+00 0.  1.
          2   -1    0    0  501    0  0.00000000000E+00 -0.00000000000E+00 -0.56211894728E+03  0.56211894728E+03  0.00000000000E+00 0. -1.
          5    1    1    2  502    0 -0.61265024769E+02 -0.12550779578E+02 -0.36379402939E+03  0.36916000752E+03  0.47000000000E+01 0. -1.
         -5    1    1    2    0  502  0.30079879229E+02  0.27239425521E+02 -0.38642965621E+02  0.56233035034E+02  0.47000000000E+01 0.  1.
        -11    1    1    2    0    0 -0.31163593211E+02  0.19175595114E+01 -0.37617672188E+02  0.48886970014E+02  0.00000000000E+00 0. -1.
         11    1    1    2    0    0  0.62348738751E+02 -0.16606205454E+02 -0.95034819592E+02  0.11486839521E+03  0.00000000000E+00 0.  1.
<mgrwt>
<rscale>  0 0.12593622E+03</rscale>
<asrwt>0</asrwt>
<pdfrwt beam="2">  1        2 0.86479838E-01 0.13785393E+03</pdfrwt>
<pdfrwt beam="1">  1       -2 0.41583785E-02 0.13785393E+03</pdfrwt>
<totfact> 0.13407376E+04</totfact>
</mgrwt>
</event>
<event>
 7    1  0.5206756E-006  0.1384184E+03  0.7546771E-02  0.1234899E+00
          1   -1    0    0  501    0  0.00000000000E+00  0.00000000000E+00  0.79154937078E+02  0.79154937078E+02  0.00000000000E+00 0. -1.
         -1   -1    0    0    0  501 -0.00000000000E+00 -0.00000000000E+00 -0.18082026189E+03  0.18082026189E+03  0.00000000000E+00 0.  1.
         23    2    1    2    0    0 -0.56703569294E+02  0.17319772088E+02 -0.26617795149E+02  0.14095442765E+03  0.12507747352E+03 0.  0.
          5    1    3    3  502    0 -0.49284928874E+02  0.12423924387E+02 -0.75452019181E+02  0.91095857808E+02  0.47000000000E+01 0.  1.
         -5    1    3    3    0  502 -0.74186404198E+01  0.48958477008E+01  0.48834224032E+02  0.49858569847E+02  0.47000000000E+01 0.  1.
        -11    1    1    2    0    0 -0.10647742021E+02 -0.21541547215E+02 -0.12865578401E+02  0.27256848206E+02  0.00000000000E+00 0.  1.
         11    1    1    2    0    0  0.67351311315E+02  0.42217751267E+01 -0.62181951263E+02  0.91763923106E+02  0.00000000000E+00 0. -1.
<mgrwt>
<rscale>  0 0.12510889E+03</rscale>
<asrwt>0</asrwt>
<pdfrwt beam="1">  1        1 0.12177683E-01 0.13841836E+03</pdfrwt>
<pdfrwt beam="2">  1       -1 0.27818501E-01 0.13841836E+03</pdfrwt>
<totfact> 0.54525520E+03</totfact>
</mgrwt>
</event>
<event>
 7    1  0.5206756E-006  0.1747702E+03  0.7546771E-02  0.1179276E+00
          2   -1    0    0  501    0  0.00000000000E+00  0.00000000000E+00  0.44773630521E+03  0.44773630521E+03  0.00000000000E+00 0.  1.
         -2   -1    0    0    0  501 -0.00000000000E+00 -0.00000000000E+00 -0.10294534916E+03  0.10294534916E+03  0.00000000000E+00 0. -1.
         23    2    1    2    0    0 -0.12160518725E+03 -0.11604357186E+02  0.35822773483E+03  0.39858715080E+03  0.12498849593E+03 0.  0.
          5    1    3    3  502    0  0.95946599416E+01  0.29105944444E+02  0.11606615947E+03  0.12013599326E+03  0.47000000000E+01 0. -1.
         -5    1    3    3    0  502 -0.13119984719E+03 -0.40710301630E+02  0.24216157536E+03  0.27845115755E+03  0.47000000000E+01 0. -1.
        -11    1    1    2    0    0  0.17553258955E+02  0.23866824544E+02  0.26714526546E+02  0.39892457211E+02  0.00000000000E+00 0.  1.
         11    1    1    2    0    0  0.10405192829E+03 -0.12262467358E+02 -0.40151305330E+02  0.11220204636E+03  0.00000000000E+00 0. -1.
<mgrwt>
<rscale>  0 0.16863723E+03</rscale>
<asrwt>0</asrwt>
<pdfrwt beam="1">  1        2 0.68882507E-01 0.17477015E+03</pdfrwt>
<pdfrwt beam="2">  1       -2 0.15837746E-01 0.17477015E+03</pdfrwt>
<totfact> 0.21731795E+03</totfact>
</mgrwt>
</event>
<event>
 7    1  0.5206756E-006  0.1576080E+03  0.7546771E-02  0.1195152E+00
          2   -1    0    0  501    0  0.00000000000E+00  0.00000000000E+00  0.28766933154E+04  0.28766933154E+04  0.00000000000E+00 0. -1.
         -2   -1    0    0    0  501 -0.00000000000E+00 -0.00000000000E+00 -0.37171504952E+02  0.37171504952E+02  0.00000000000E+00 0.  1.
         23    2    1    2    0    0  0.11003928214E+03 -0.23551952683E+02  0.27233285947E+04  0.27278854321E+04  0.11034925454E+03 0.  0.
          5    1    3    3  502    0  0.10475734970E+03 -0.18909246590E+02  0.27100357081E+04  0.27121296597E+04  0.47000000000E+01 0. -1.
         -5    1    3    3    0  502  0.52819324369E+01 -0.46427060925E+01  0.13292886630E+02  0.15755772437E+02  0.47000000000E+01 0.  1.
        -11    1    1    2    0    0 -0.52154640184E+02 -0.82453176785E+01  0.54868718976E+00  0.52805234721E+02  0.00000000000E+00 0.  1.
         11    1    1    2    0    0 -0.57884641954E+02  0.31797270361E+02  0.11564452854E+03  0.13317415349E+03  0.00000000000E+00 0. -1.
<mgrwt>
<rscale>  0 0.15441406E+03</rscale>
<asrwt>0</asrwt>
<pdfrwt beam="1">  1        2 0.44256803E+00 0.15760805E+03</pdfrwt>
<pdfrwt beam="2">  1       -2 0.57186953E-02 0.15760805E+03</pdfrwt>
<totfact> 0.40707574E+02</totfact>
</mgrwt>
</event>
<event>
 7    1  0.5206756E-006  0.1316220E+03  0.7546771E-02  0.1238455E+00
         -1   -1    0    0    0  501 -0.00000000000E+00  0.00000000000E+00  0.56668059732E+02  0.56668059732E+02  0.00000000000E+00 0.  1.
          1   -1    0    0  501    0  0.00000000000E+00 -0.00000000000E+00 -0.23655757992E+03  0.23655757992E+03  0.00000000000E+00 0. -1.
         23    2    1    2    0    0  0.37135993502E+02 -0.17907450711E+02 -0.10439651121E+03  0.16799695356E+03  0.12499834418E+03 0.  0.
          5    1    3    3  502    0  0.70983110004E+02  0.26080729394E+02 -0.56164032645E+02  0.94314871120E+02  0.47000000000E+01 0. -1.
         -5    1    3    3    0  502 -0.33847116501E+02 -0.43988180105E+02 -0.48232478561E+02  0.73682082439E+02  0.47000000000E+01 0. -1.
        -11    1    1    2    0    0  0.63483824643E+01  0.33329240487E+02 -0.71225486596E+02  0.78893663701E+02  0.00000000000E+00 0. -1.
         11    1    1    2    0    0 -0.43484375967E+02 -0.15421789776E+02 -0.42675223901E+01  0.46335022396E+02  0.00000000000E+00 0.  1.
<mgrwt>
<rscale>  0 0.12285819E+03</rscale>
<asrwt>0</asrwt>
<pdfrwt beam="2">  1        1 0.36393473E-01 0.13162198E+03</pdfrwt>
<pdfrwt beam="1">  1       -1 0.87181632E-02 0.13162198E+03</pdfrwt>
<totfact> 0.84405981E+03</totfact>
</mgrwt>
</event>
<event>
 7    1  0.5206756E-006  0.1782209E+03  0.7546771E-02  0.1175552E+00
          2   -1    0    0  501    0  0.00000000000E+00  0.00000000000E+00  0.14141108385E+04  0.14141108385E+04  0.00000000000E+00 0. -1.
         -2   -1    0    0    0  501 -0.00000000000E+00 -0.00000000000E+00 -0.21833199651E+02  0.21833199651E+02  0.00000000000E+00 0.  1.
         23    2    1    2    0    0  0.38200329254E+02  0.12111895012E+03  0.96417526606E+03  0.98050835732E+03  0.12503451472E+03 0.  0.
          5    1    3    3  502    0 -0.60360945033E+01  0.85894085096E+02  0.25744171505E+03  0.27150056158E+03  0.47000000000E+01 0.  1.
         -5    1    3    3    0  502  0.44236423757E+02  0.35224865024E+02  0.70673355101E+03  0.70900779575E+03  0.47000000000E+01 0.  1.
        -11    1    1    2    0    0 -0.23590439075E+02  0.80876284594E+01  0.57167262995E+02  0.62369980825E+02  0.00000000000E+00 0.  1.
         11    1    1    2    0    0 -0.14609890179E+02 -0.12920657858E+03  0.37093510983E+03  0.39306570003E+03  0.00000000000E+00 0. -1.
<mgrwt>
<rscale>  0 0.17222004E+03</rscale>
<asrwt>0</asrwt>
<pdfrwt beam="1">  1        2 0.21755544E+00 0.17822092E+03</pdfrwt>
<pdfrwt beam="2">  1       -2 0.33589549E-02 0.17822092E+03</pdfrwt>
<totfact> 0.53783743E+03</totfact>
</mgrwt>
</event>
<event>
 7    1  0.5206756E-006  0.1448466E+03  0.7546771E-02  0.1216709E+00
          2   -1    0    0  501    0  0.00000000000E+00  0.00000000000E+00  0.11441709557E+04  0.11441709557E+04  0.00000000000E+00 0.  1.
         -2   -1    0    0    0  501 -0.00000000000E+00 -0.00000000000E+00 -0.15070230864E+02  0.15070230864E+02  0.00000000000E+00 0. -1.
         23    2    1    2    0    0 -0.79917098432E+01 -0.72679939312E+02  0.60717341591E+03  0.62421158663E+03  0.12503722205E+03 0.  0.
          5    1    3    3  502    0 -0.32389839309E+02  0.14817945088E+02  0.34180002256E+03  0.34368302054E+03  0.47000000000E+01 0. -1.
         -5    1    3    3    0  502  0.24398129466E+02 -0.87497884400E+02  0.26537339335E+03  0.28052856609E+03  0.47000000000E+01 0. -1.
        -11    1    1    2    0    0  0.25127195980E+02  0.85494589906E+02  0.47718542036E+03  0.48543447167E+03  0.00000000000E+00 0.  1.
         11    1    1    2    0    0 -0.17135486137E+02 -0.12814650593E+02  0.44741888602E+02  0.49595128296E+02  0.00000000000E+00 0. -1.
<mgrwt>
<rscale>  0 0.13751715E+03</rscale>
<asrwt>0</asrwt>
<pdfrwt beam="1">  1        2 0.17602623E+00 0.14484664E+03</pdfrwt>
<pdfrwt beam="2">  1       -2 0.23184979E-02 0.14484664E+03</pdfrwt>
<totfact> 0.12935852E+04</totfact>
</mgrwt>
</event>
<event>
 7    1  0.5206756E-006  0.1333361E+03  0.7546771E-02  0.1233776E+00
          2   -1    0    0  501    0  0.00000000000E+00  0.00000000000E+00  0.21088812242E+03  0.21088812242E+03  0.00000000000E+00 0. -1.
         -2   -1    0    0    0  501 -0.00000000000E+00 -0.00000000000E+00 -0.69990742459E+02  0.69990742459E+02  0.00000000000E+00 0.  1.
         23    2    1    2    0    0  0.46380851101E+02  0.15120649813E+01  0.53450951684E+02  0.14365064634E+03  0.12500013708E+03 0.  0.
          5    1    3    3  502    0  0.47717783872E+02  0.40624730402E+01 -0.32150074424E+02  0.57872341151E+02  0.47000000000E+01 0. -1.
         -5    1    3    3    0  502 -0.13369327706E+01 -0.25504080589E+01  0.85601026108E+02  0.85778305190E+02  0.47000000000E+01 0. -1.
        -11    1    1    2    0    0  0.15352050155E+02  0.30120808605E+02  0.15182963651E+02  0.37060368862E+02  0.00000000000E+00 0.  1.
         11    1    1    2    0    0 -0.61732901256E+02 -0.31632873586E+02  0.72263464626E+02  0.10016784968E+03  0.00000000000E+00 0. -1.
<mgrwt>
<rscale>  0 0.12583133E+03</rscale>
<asrwt>0</asrwt>
<pdfrwt beam="1">  1        2 0.32444326E-01 0.13333606E+03</pdfrwt>
<pdfrwt beam="2">  1       -2 0.10767807E-01 0.13333606E+03</pdfrwt>
<totfact> 0.89457427E+03</totfact>
</mgrwt>
</event>
<event>
 7    1  0.5206756E-006  0.1878635E+03  0.7546771E-02  0.1165478E+00
         -2   -1    0    0    0  501 -0.00000000000E+00  0.00000000000E+00  0.52158227265E+02  0.52158227265E+02  0.00000000000E+00 0. -1.
          2   -1    0    0  501    0  0.00000000000E+00 -0.00000000000E+00 -0.60408062757E+03  0.60408062757E+03  0.00000000000E+00 0.  1.
         23    2    1    2    0    0  0.96155273332E+02 -0.10209269427E+03 -0.30052764695E+03  0.35441439803E+03  0.12499577647E+03 0.  0.
          5    1    3    3  502    0  0.12267271509E+03 -0.57461226851E+02 -0.20975433883E+03  0.24973858387E+03  0.47000000000E+01 0. -1.
         -5    1    3    3    0  502 -0.26517441755E+02 -0.44631467420E+02 -0.90773308128E+02  0.10467581416E+03  0.47000000000E+01 0. -1.
        -11    1    1    2    0    0 -0.32243356141E+02 -0.11227721824E+02 -0.32222675328E+02  0.46946741718E+02  0.00000000000E+00 0. -1.
         11    1    1    2    0    0 -0.63911917191E+02  0.11332041610E+03 -0.21917207803E+03  0.25487771509E+03  0.00000000000E+00 0.  1.
<mgrwt>
<rscale>  0 0.18242308E+03</rscale>
<asrwt>0</asrwt>
<pdfrwt beam="2">  1        2 0.92935483E-01 0.18786351E+03</pdfrwt>
<pdfrwt beam="1">  1       -2 0.80243425E-02 0.18786351E+03</pdfrwt>
<totfact> 0.46270950E+03</totfact>
</mgrwt>
</event>
<event>
 7    1  0.5206756E-006  0.3950602E+03  0.7546771E-02  0.1046296E+00
          1   -1    0    0  501    0  0.00000000000E+00  0.00000000000E+00  0.14263464631E+04  0.14263464631E+04  0.00000000000E+00 0. -1.
         -1   -1    0    0    0  501 -0.00000000000E+00 -0.00000000000E+00 -0.11276502746E+03  0.11276502746E+03  0.00000000000E+00 0.  1.
         23    2    1    2    0    0  0.25899295635E+03 -0.27087022837E+03  0.48944882647E+03  0.62899341964E+03  0.12499814461E+03 0.  0.
          5    1    3    3  502    0 -0.75494349635E+01 -0.18723553941E+02  0.51054137869E+01  0.21347615566E+02  0.47000000000E+01 0. -1.
         -5    1    3    3    0  502  0.26654239131E+03 -0.25214667443E+03  0.48434341268E+03  0.60764580407E+03  0.47000000000E+01 0. -1.
        -11    1    1    2    0    0 -0.87672384486E+02  0.10204986255E+03  0.40638587374E+03  0.42807721246E+03  0.00000000000E+00 0. -1.
         11    1    1    2    0    0 -0.17132057186E+03  0.16882036583E+03  0.41774673542E+03  0.48204085845E+03  0.00000000000E+00 0.  1.
<mgrwt>
<rscale>  0 0.39281637E+03</rscale>
<asrwt>0</asrwt>
<pdfrwt beam="1">  1        1 0.21943790E+00 0.39506021E+03</pdfrwt>
<pdfrwt beam="2">  1       -1 0.17348467E-01 0.39506021E+03</pdfrwt>
<totfact> 0.20105573E+02</totfact>
</mgrwt>
</event>
<event>
 7    1  0.5206756E-006  0.1474294E+03  0.7546771E-02  0.1213523E+00
         -1   -1    0    0    0  501 -0.00000000000E+00  0.00000000000E+00  0.27754430739E+02  0.27754430739E+02  0.00000000000E+00 0.  1.
          1   -1    0    0  501    0  0.00000000000E+00 -0.00000000000E+00 -0.65019816991E+03  0.65019816991E+03  0.00000000000E+00 0. -1.
         23    2    1    2    0    0 -0.58209189292E+02  0.52172904069E+02 -0.38297414896E+03  0.41037134070E+03  0.12500046745E+03 0.  0.
          5    1    3    3  502    0 -0.90042749315E+01 -0.10303866410E+02  0.42162114917E+01  0.15070271045E+02  0.47000000000E+01 0.  1.
         -5    1    3    3    0  502 -0.49204914360E+02  0.62476770479E+02 -0.38719036045E+03  0.39530106966E+03  0.47000000000E+01 0.  1.
        -11    1    1    2    0    0  0.79863362830E+01 -0.54036914865E+02 -0.59700695657E+02  0.80919359842E+02  0.00000000000E+00 0.  1.
         11    1    1    2    0    0  0.50222853009E+02  0.18640107959E+01 -0.17976889456E+03  0.18666190010E+03  0.00000000000E+00 0. -1.
<mgrwt>
<rscale>  0 0.13985578E+03</rscale>
<asrwt>0</asrwt>
<pdfrwt beam="2">  1        1 0.10003049E+00 0.14742944E+03</pdfrwt>
<pdfrwt beam="1">  1       -1 0.42699124E-02 0.14742944E+03</pdfrwt>
<totfact> 0.67725118E+03</totfact>
</mgrwt>
</event>
<event>
 7    1  0.5206756E-006  0.1931786E+03  0.7546771E-02  0.1160151E+00
         -1   -1    0    0    0  501 -0.00000000000E+00  0.00000000000E+00  0.33627014294E+02  0.33627014294E+02  0.00000000000E+00 0.  1.
          1   -1    0    0  501    0  0.00000000000E+00 -0.00000000000E+00 -0.10754925483E+04  0.10754925483E+04  0.00000000000E+00 0. -1.
         23    2    1    2    0    0 -0.11409058651E+02  0.14683745965E+03 -0.69211285475E+03  0.71856674455E+03  0.12500622581E+03 0.  0.
          5    1    3    3  502    0  0.53032116678E+01  0.47781709532E+01 -0.31645525841E+03  0.31657064859E+03  0.47000000000E+01 0. -1.
         -5    1    3    3    0  502 -0.16712270319E+02  0.14205928869E+03 -0.37565759633E+03  0.40199609596E+03  0.47000000000E+01 0. -1.
        -11    1    1    2    0    0  0.12075643243E+02  0.71731982058E+01 -0.91907004609E+01  0.16785258627E+02  0.00000000000E+00 0.  1.
         11    1    1    2    0    0 -0.66658459119E+00 -0.15401065785E+03 -0.34056197875E+03  0.37376755937E+03  0.00000000000E+00 0. -1.
<mgrwt>
<rscale>  0 0.18813877E+03</rscale>
<asrwt>0</asrwt>
<pdfrwt beam="2">  1        1 0.16546037E+00 0.19317858E+03</pdfrwt>
<pdfrwt beam="1">  1       -1 0.51733876E-02 0.19317858E+03</pdfrwt>
<totfact> 0.23405961E+03</totfact>
</mgrwt>
</event>
<event>
 7    1  0.5206756E-006  0.1263477E+03  0.7546771E-02  0.1250399E+00
          2   -1    0    0  501    0  0.00000000000E+00  0.00000000000E+00  0.92872623636E+03  0.92872623636E+03  0.00000000000E+00 0.  1.
         -2   -1    0    0    0  501 -0.00000000000E+00 -0.00000000000E+00 -0.15625435230E+02  0.15625435230E+02  0.00000000000E+00 0. -1.
         23    2    1    2    0    0  0.70798043597E+01 -0.16927612852E+02  0.73009215482E+03  0.74094419367E+03  0.12500830328E+03 0.  0.
          5    1    3    3  502    0 -0.51710852694E+02  0.16339564536E+02  0.42215468061E+03  0.42564968932E+03  0.47000000000E+01 0. -1.
         -5    1    3    3    0  502  0.58790657054E+02 -0.33267177388E+02  0.30793747421E+03  0.31529450434E+03  0.47000000000E+01 0. -1.
        -11    1    1    2    0    0 -0.37465091988E+02  0.36481928035E+02  0.11704429387E+03  0.12819489427E+03  0.00000000000E+00 0.  1.
         11    1    1    2    0    0  0.30385287629E+02 -0.19554315182E+02  0.65964352439E+02  0.75212583650E+02  0.00000000000E+00 0. -1.
<mgrwt>
<rscale>  0 0.11567995E+03</rscale>
<asrwt>0</asrwt>
<pdfrwt beam="1">  1        2 0.14288092E+00 0.12634771E+03</pdfrwt>
<pdfrwt beam="2">  1       -2 0.24039138E-02 0.12634771E+03</pdfrwt>
<totfact> 0.16290377E+04</totfact>
</mgrwt>
</event>
<event>
 7    1  0.5206756E-006  0.1319993E+03  0.7546771E-02  0.1237049E+00
          1   -1    0    0  501    0  0.00000000000E+00  0.00000000000E+00  0.22075756805E+02  0.22075756805E+02  0.00000000000E+00 0. -1.
         -1   -1    0    0    0  501 -0.00000000000E+00 -0.00000000000E+00 -0.68205253975E+03  0.68205253975E+03  0.00000000000E+00 0.  1.
         23    2    1    2    0    0 -0.42025325080E+02 -0.55943437744E+01 -0.26293613566E+03  0.29420951196E+03  0.12500560332E+03 0.  0.
          5    1    3    3  502    0 -0.30772130195E+02 -0.57134314805E+02 -0.76653453637E+02  0.10054399972E+03  0.47000000000E+01 0. -1.
         -5    1    3    3    0  502 -0.11253194885E+02  0.51539971031E+02 -0.18628268202E+03  0.19366551224E+03  0.47000000000E+01 0. -1.
        -11    1    1    2    0    0  0.26500917181E+02  0.44542348256E+02 -0.29633746382E+03  0.30083585534E+03  0.00000000000E+00 0.  1.
         11    1    1    2    0    0  0.15524407899E+02 -0.38948004481E+02 -0.10070318347E+03  0.10908292925E+03  0.00000000000E+00 0. -1.
<mgrwt>
<rscale>  0 0.12374194E+03</rscale>
<asrwt>0</asrwt>
<pdfrwt beam="1">  1        1 0.33962705E-02 0.13199934E+03</pdfrwt>
<pdfrwt beam="2">  1       -1 0.10493115E+00 0.13199934E+03</pdfrwt>
<totfact> 0.24970454E+03</totfact>
</mgrwt>
</event>
<event>
 7    1  0.5206756E-006  0.1931415E+03  0.7546771E-02  0.1160297E+00
          3   -1    0    0  501    0  0.00000000000E+00  0.00000000000E+00  0.12305031421E+04  0.12305031421E+04  0.00000000000E+00 0. -1.
         -3   -1    0    0    0  501 -0.00000000000E+00 -0.00000000000E+00 -0.28000563594E+02  0.28000563594E+02  0.00000000000E+00 0.  1.
         23    2    1    2    0    0 -0.37093711569E+02  0.14248970287E+03  0.73363515322E+03  0.75863309732E+03  0.12499751776E+03 0.  0.
          5    1    3    3  502    0 -0.36257464007E+02  0.31012961747E+02  0.46890335007E+03  0.47134790675E+03  0.47000000000E+01 0.  1.
         -5    1    3    3    0  502 -0.83624756191E+00  0.11147674112E+03  0.26473180315E+03  0.28728519057E+03  0.47000000000E+01 0.  1.
        -11    1    1    2    0    0 -0.15607756742E+02 -0.89844971382E+02  0.32899388671E+03  0.34139815238E+03  0.00000000000E+00 0.  1.
         11    1    1    2    0    0  0.52701468311E+02 -0.52644731483E+02  0.13987353852E+03  0.15847245595E+03  0.00000000000E+00 0. -1.
<mgrwt>
<rscale>  0 0.18797854E+03</rscale>
<asrwt>0</asrwt>
<pdfrwt beam="1">  1        3 0.18930813E+00 0.19314150E+03</pdfrwt>
<pdfrwt beam="2">  1       -3 0.43077800E-02 0.19314150E+03</pdfrwt>
<totfact> 0.13189232E+02</totfact>
</mgrwt>
</event>
<event>
 7    1  0.5206756E-006  0.1583572E+03  0.7546771E-02  0.1197894E+00
          2   -1    0    0  501    0  0.00000000000E+00  0.00000000000E+00  0.49936842879E+03  0.49936842879E+03  0.00000000000E+00 0. -1.
         -2   -1    0    0    0  501 -0.00000000000E+00 -0.00000000000E+00 -0.47362725112E+02  0.47362725112E+02  0.00000000000E+00 0.  1.
         23    2    1    2    0    0  0.96573724839E+02  0.11198150615E+02  0.32485771404E+03  0.36139941576E+03  0.12500048175E+03 0.  0.
          5    1    3    3  502    0  0.10152530728E+03  0.91802051318E+01  0.12477924878E+03  0.16119433958E+03  0.47000000000E+01 0.  1.
         -5    1    3    3    0  502 -0.49515824394E+01  0.20179454829E+01  0.20007846525E+03  0.20020507619E+03  0.47000000000E+01 0.  1.
        -11    1    1    2    0    0  0.88420857531E+01  0.15529247458E+02  0.46866700507E+02  0.50158026511E+02  0.00000000000E+00 0. -1.
         11    1    1    2    0    0 -0.10541581059E+03 -0.26727398073E+02  0.80281289133E+02  0.13517371163E+03  0.00000000000E+00 0.  1.
<mgrwt>
<rscale>  0 0.15211825E+03</rscale>
<asrwt>0</asrwt>
<pdfrwt beam="1">  1        2 0.76825908E-01 0.15835720E+03</pdfrwt>
<pdfrwt beam="2">  1       -2 0.72865735E-02 0.15835720E+03</pdfrwt>
<totfact> 0.66047943E+03</totfact>
</mgrwt>
</event>
<event>
 7    1  0.5206756E-006  0.1317159E+03  0.7546771E-02  0.1238397E+00
          4   -1    0    0  501    0  0.00000000000E+00  0.00000000000E+00  0.98528119951E+02  0.98528119951E+02  0.00000000000E+00 0. -1.
         -4   -1    0    0    0  501 -0.00000000000E+00 -0.00000000000E+00 -0.13642426150E+03  0.13642426150E+03  0.00000000000E+00 0.  1.
         23    2    1    2    0    0 -0.41685422625E+02 -0.22427226056E+01 -0.15250712838E+02  0.13259586962E+03  0.12492548233E+03 0.  0.
          5    1    3    3  502    0  0.41044565702E+02 -0.20982881333E+02 -0.31621383972E+00  0.46337109037E+02  0.47000000000E+01 0. -1.
         -5    1    3    3    0  502 -0.82729988327E+02  0.18740158728E+02 -0.14934498998E+02  0.86258760587E+02  0.47000000000E+01 0. -1.
        -11    1    1    2    0    0 -0.11053179626E+02  0.10016955840E+02 -0.42831022051E+02  0.45354257067E+02  0.00000000000E+00 0.  1.
         11    1    1    2    0    0  0.52738602251E+02 -0.77742332349E+01  0.20185593336E+02  0.57002254763E+02  0.00000000000E+00 0. -1.
<mgrwt>
<rscale>  0 0.12289469E+03</rscale>
<asrwt>0</asrwt>
<pdfrwt beam="1">  1        4 0.15158172E-01 0.13171591E+03</pdfrwt>
<pdfrwt beam="2">  1       -4 0.20988348E-01 0.13171591E+03</pdfrwt>
<totfact> 0.12525265E+03</totfact>
</mgrwt>
</event>
<event>
 7    1  0.5206756E-006  0.1462887E+03  0.7546771E-02  0.1214594E+00
          1   -1    0    0  501    0  0.00000000000E+00  0.00000000000E+00  0.15920177754E+04  0.15920177754E+04  0.00000000000E+00 0. -1.
         -1   -1    0    0    0  501 -0.00000000000E+00 -0.00000000000E+00 -0.17776645324E+02  0.17776645324E+02  0.00000000000E+00 0.  1.
         23    2    1    2    0    0  0.72506946790E+02 -0.22752538974E+02  0.13287605997E+04  0.13367891084E+04  0.12500181433E+03 0.  0.
          5    1    3    3  502    0  0.74592848403E+02 -0.90191174428E+01  0.13133877620E+04  0.13155435914E+04  0.47000000000E+01 0. -1.
         -5    1    3    3    0  502 -0.20859016133E+01 -0.13733421532E+02  0.15372837715E+02  0.21245516984E+02  0.47000000000E+01 0. -1.
        -11    1    1    2    0    0 -0.27592474535E+02  0.12176223705E+01  0.58233201363E+01  0.28226553325E+02  0.00000000000E+00 0.  1.
         11    1    1    2    0    0 -0.44914472256E+02  0.21534916604E+02  0.23965721024E+03  0.24477875903E+03  0.00000000000E+00 0. -1.
<mgrwt>
<rscale>  0 0.13906432E+03</rscale>
<asrwt>0</asrwt>
<pdfrwt beam="1">  1        1 0.24492570E+00 0.14628872E+03</pdfrwt>
<pdfrwt beam="2">  1       -1 0.27348698E-02 0.14628872E+03</pdfrwt>
<totfact> 0.26794644E+03</totfact>
</mgrwt>
</event>
<event>
 7    1  0.5206756E-006  0.1417822E+03  0.7546771E-02  0.1222976E+00
          1   -1    0    0  501    0  0.00000000000E+00  0.00000000000E+00  0.85109493263E+03  0.85109493263E+03  0.00000000000E+00 0. -1.
         -1   -1    0    0    0  501 -0.00000000000E+00 -0.00000000000E+00 -0.28060829070E+02  0.28060829070E+02  0.00000000000E+00 0.  1.
         23    2    1    2    0    0 -0.63010501576E+02 -0.22448756031E+02  0.69958001547E+03  0.71380276919E+03  0.12501170070E+03 0.  0.
          5    1    3    3  502    0 -0.71253556392E+02 -0.12989700561E+02  0.18044601437E+03  0.19449590156E+03  0.47000000000E+01 0. -1.
         -5    1    3    3    0  502  0.82430548159E+01 -0.94590554699E+01  0.51913400109E+03  0.51930686763E+03  0.47000000000E+01 0. -1.
        -11    1    1    2    0    0  0.42331136122E+01  0.12650196754E+02 -0.11637803158E+02  0.17702688811E+02  0.00000000000E+00 0.  1.
         11    1    1    2    0    0  0.58777387964E+02  0.97985592765E+01  0.13509189125E+03  0.14765030370E+03  0.00000000000E+00 0. -1.
<mgrwt>
<rscale>  0 0.13306616E+03</rscale>
<asrwt>0</asrwt>
<pdfrwt beam="1">  1        1 0.13093766E+00 0.14178221E+03</pdfrwt>
<pdfrwt beam="2">  1       -1 0.43170513E-02 0.14178221E+03</pdfrwt>
<totfact> 0.44789096E+03</totfact>
</mgrwt>
</event>
<event>
 6    1  0.5206756E-006  0.1756072E+03  0.7546771E-02  0.1198263E+00
         -2   -1    0    0    0  501 -0.00000000000E+00  0.00000000000E+00  0.16468734901E+02  0.16468734901E+02  0.00000000000E+00 0.  1.
          2   -1    0    0  501    0  0.00000000000E+00 -0.00000000000E+00 -0.12370374051E+04  0.12370374051E+04  0.00000000000E+00 0. -1.
          5    1    1    2  502    0 -0.53619212284E+02 -0.59248727331E+02 -0.75063246156E+03  0.75488847784E+03  0.47000000000E+01 0. -1.
         -5    1    1    2    0  502  0.65076076925E+02  0.21094043470E+02 -0.18998154343E+03  0.20197755148E+03  0.47000000000E+01 0.  1.
        -11    1    1    2    0    0 -0.13925634005E+02 -0.28189232086E+02 -0.80260138919E+02  0.86198874629E+02  0.00000000000E+00 0.  1.
         11    1    1    2    0    0  0.24687693646E+01  0.66343915947E+02 -0.19969452634E+03  0.21044123611E+03  0.00000000000E+00 0. -1.
<mgrwt>
<rscale>  0 0.15181260E+03</rscale>
<asrwt>0</asrwt>
<pdfrwt beam="2">  1        2 0.19031349E+00 0.17560721E+03</pdfrwt>
<pdfrwt beam="1">  1       -2 0.25336510E-02 0.17560721E+03</pdfrwt>
<totfact> 0.10175805E+04</totfact>
</mgrwt>
</event>
<event>
 7    1  0.5206756E-006  0.1352202E+03  0.7546771E-02  0.1233020E+00
         -1   -1    0    0    0  501 -0.00000000000E+00  0.00000000000E+00  0.45346362007E+02  0.45346362007E+02  0.00000000000E+00 0.  1.
          1   -1    0    0  501    0  0.00000000000E+00 -0.00000000000E+00 -0.39822705119E+03  0.39822705119E+03  0.00000000000E+00 0. -1.
         23    2    1    2    0    0  0.38214652627E+02 -0.34625094147E+02 -0.29716383014E+03  0.32648251410E+03  0.12500093299E+03 0.  0.
          5    1    3    3  502    0  0.13197543550E+02  0.15914090705E+02  0.26574449991E+01  0.21367860273E+02  0.47000000000E+01 0.  1.
         -5    1    3    3    0  502  0.25017109076E+02 -0.50539184852E+02 -0.29982127514E+03  0.30511465383E+03  0.47000000000E+01 0.  1.
        -11    1    1    2    0    0 -0.56416556237E+02  0.46420821478E+02 -0.20760358493E+02  0.75952043877E+02  0.00000000000E+00 0.  1.
         11    1    1    2    0    0  0.18201903611E+02 -0.11795727330E+02 -0.34956500548E+02  0.41138855221E+02  0.00000000000E+00 0. -1.
<mgrwt>
<rscale>  0 0.12632071E+03</rscale>
<asrwt>0</asrwt>
<pdfrwt beam="2">  1        1 0.61265701E-01 0.13522015E+03</pdfrwt>
<pdfrwt beam="1">  1       -1 0.69763633E-02 0.13522015E+03</pdfrwt>
<totfact> 0.61960945E+03</totfact>
</mgrwt>
</event>
<event>
 7    1  0.5206756E-006  0.1763996E+03  0.7546771E-02  0.1176879E+00
          1   -1    0    0  501    0  0.00000000000E+00  0.00000000000E+00  0.85118679218E+02  0.85118679218E+02  0.00000000000E+00 0. -1.
         -1   -1    0    0    0  501 -0.00000000000E+00 -0.00000000000E+00 -0.39123484730E+03  0.39123484730E+03  0.00000000000E+00 0.  1.
         23    2    1    2    0    0 -0.16226516928E+02 -0.12340637023E+03 -0.62146370994E+02  0.18702675133E+03  0.12499760886E+03 0.  0.
          5    1    3    3  502    0 -0.88683692065E+01 -0.81967172601E+02  0.28188454049E+02  0.87257918255E+02  0.47000000000E+01 0. -1.
         -5    1    3    3    0  502 -0.73581477219E+01 -0.41439197628E+02 -0.90334825043E+02  0.99768833077E+02  0.47000000000E+01 0. -1.
        -11    1    1    2    0    0 -0.32722941309E+02  0.16618400888E+02 -0.75462488577E+02  0.83913939952E+02  0.00000000000E+00 0.  1.
         11    1    1    2    0    0  0.48949458237E+02  0.10678796934E+03 -0.16850730851E+03  0.20541283523E+03  0.00000000000E+00 0. -1.
<mgrwt>
<rscale>  0 0.17093260E+03</rscale>
<asrwt>0</asrwt>
<pdfrwt beam="1">  1        1 0.13095182E-01 0.17639964E+03</pdfrwt>
<pdfrwt beam="2">  1       -1 0.60189976E-01 0.17639964E+03</pdfrwt>
<totfact> 0.12755128E+03</totfact>
</mgrwt>
</event>
<event>
 7    1  0.5206756E-006  0.1564955E+03  0.7546771E-02  0.1200195E+00
         -1   -1    0    0    0  501 -0.00000000000E+00  0.00000000000E+00  0.17210995924E+02  0.17210995924E+02  0.00000000000E+00 0.  1.
          1   -1    0    0  501    0  0.00000000000E+00 -0.00000000000E+00 -0.16354934956E+04  0.16354934956E+04  0.00000000000E+00 0. -1.
         23    2    1    2    0    0  0.65401444332E+02 -0.67730206290E+02 -0.12755174332E+04  0.12850819289E+04  0.12500444658E+03 0.  0.
          5    1    3    3  502    0  0.97446892515E+02 -0.51194460434E+02 -0.72058630752E+03  0.72896055190E+03  0.47000000000E+01 0.  1.
         -5    1    3    3    0  502 -0.32045448183E+02 -0.16535745856E+02 -0.55493112571E+03  0.55612137697E+03  0.47000000000E+01 0.  1.
        -11    1    1    2    0    0 -0.42731762981E+02  0.87510084637E+02 -0.29942095655E+03  0.31486017167E+03  0.00000000000E+00 0.  1.
         11    1    1    2    0    0 -0.22669681351E+02 -0.19779878347E+02 -0.43344109883E+02  0.52762390976E+02  0.00000000000E+00 0. -1.
<mgrwt>
<rscale>  0 0.15022613E+03</rscale>
<asrwt>0</asrwt>
<pdfrwt beam="2">  1        1 0.25161439E+00 0.15649550E+03</pdfrwt>
<pdfrwt beam="1">  1       -1 0.26478455E-02 0.15649550E+03</pdfrwt>
<totfact> 0.26350141E+03</totfact>
</mgrwt>
</event>
<event>
 7    1  0.5206756E-006  0.1252042E+03  0.7546771E-02  0.1250509E+00
         -2   -1    0    0    0  501 -0.00000000000E+00  0.00000000000E+00  0.11037334164E+02  0.11037334164E+02  0.00000000000E+00 0.  1.
          2   -1    0    0  501    0  0.00000000000E+00 -0.00000000000E+00 -0.11359820517E+04  0.11359820517E+04  0.00000000000E+00 0. -1.
         23    2    1    2    0    0  0.71169587340E+01 -0.57783659188E-01 -0.79274359376E+03  0.80256993830E+03  0.12500178390E+03 0.  0.
          5    1    3    3  502    0  0.78080972505E+01  0.28525811089E+02 -0.43757397562E+02  0.53023467657E+02  0.47000000000E+01 0. -1.
         -5    1    3    3    0  502 -0.69113851645E+00 -0.28583594749E+02 -0.74898619620E+03  0.74954647064E+03  0.47000000000E+01 0. -1.
        -11    1    1    2    0    0 -0.19851836239E+02  0.40876676508E+02 -0.21347699823E+03  0.21825999830E+03  0.00000000000E+00 0.  1.
         11    1    1    2    0    0  0.12734877505E+02 -0.40818892849E+02 -0.11872412553E+03  0.12618944925E+03  0.00000000000E+00 0. -1.
<mgrwt>
<rscale>  0 0.11561639E+03</rscale>
<asrwt>0</asrwt>
<pdfrwt beam="2">  1        2 0.17476647E+00 0.12520423E+03</pdfrwt>
<pdfrwt beam="1">  1       -2 0.16980514E-02 0.12520423E+03</pdfrwt>
<totfact> 0.20354333E+04</totfact>
</mgrwt>
</event>
<event>
 7    1  0.5206756E-006  0.1568523E+03  0.7546771E-02  0.1199814E+00
          1   -1    0    0  501    0  0.00000000000E+00  0.00000000000E+00  0.22895486323E+03  0.22895486323E+03  0.00000000000E+00 0. -1.
         -1   -1    0    0    0  501 -0.00000000000E+00 -0.00000000000E+00 -0.91788295413E+02  0.91788295413E+02  0.00000000000E+00 0.  1.
         23    2    1    2    0    0 -0.39413495031E+02 -0.86157168447E+02  0.73494627941E+02  0.17321689711E+03  0.12500460728E+03 0.  0.
          5    1    3    3  502    0 -0.36818335638E+02 -0.85351266259E+02  0.10553891788E+03  0.14071596099E+03  0.47000000000E+01 0. -1.
         -5    1    3    3    0  502 -0.25951593935E+01 -0.80590218809E+00 -0.32044289939E+02  0.32500936114E+02  0.47000000000E+01 0. -1.
        -11    1    1    2    0    0  0.15157982270E+02  0.10295284408E+02 -0.23270014503E+02  0.29618421337E+02  0.00000000000E+00 0.  1.
         11    1    1    2    0    0  0.24255512762E+02  0.75861884039E+02  0.86941954383E+02  0.11790784020E+03  0.00000000000E+00 0. -1.
<mgrwt>
<rscale>  0 0.15053762E+03</rscale>
<asrwt>0</asrwt>
<pdfrwt beam="1">  1        1 0.35223825E-01 0.15685227E+03</pdfrwt>
<pdfrwt beam="2">  1       -1 0.14121276E-01 0.15685227E+03</pdfrwt>
<totfact> 0.42316919E+03</totfact>
</mgrwt>
</event>
<event>
 7    1  0.5206756E-006  0.1817315E+03  0.7546771E-02  0.1171312E+00
         -3   -1    0    0    0  501 -0.00000000000E+00  0.00000000000E+00  0.10469575332E+03  0.10469575332E+03  0.00000000000E+00 0.  1.
          3   -1    0    0  501    0  0.00000000000E+00 -0.00000000000E+00 -0.28117222835E+03  0.28117222835E+03  0.00000000000E+00 0. -1.
         23    2    1    2    0    0  0.13186399414E+03  0.36907536554E+01 -0.91949380587E+02  0.20366892239E+03  0.12499842698E+03 0.  0.
          5    1    3    3  502    0  0.97813688805E+02  0.71002430946E+01 -0.12289003939E+03  0.15729584531E+03  0.47000000000E+01 0. -1.
         -5    1    3    3    0  502  0.34050305331E+02 -0.34094894393E+01  0.30940658803E+02  0.46373077087E+02  0.47000000000E+01 0. -1.
        -11    1    1    2    0    0 -0.11189248504E+03  0.31273080247E+02 -0.41756093919E+02  0.12345649087E+03  0.00000000000E+00 0.  1.
         11    1    1    2    0    0 -0.19971509091E+02 -0.34963833903E+02 -0.42771000526E+02  0.58742568403E+02  0.00000000000E+00 0. -1.
<mgrwt>
<rscale>  0 0.17642175E+03</rscale>
<asrwt>0</asrwt>
<pdfrwt beam="2">  1        3 0.43257265E-01 0.18173151E+03</pdfrwt>
<pdfrwt beam="1">  1       -3 0.16107039E-01 0.18173151E+03</pdfrwt>
<totfact> 0.42225383E+02</totfact>
</mgrwt>
</event>
<event>
 7    1  0.5206756E-006  0.1831878E+03  0.7546771E-02  0.1170316E+00
          1   -1    0    0  501    0  0.00000000000E+00  0.00000000000E+00  0.57018080060E+02  0.57018080060E+02  0.00000000000E+00 0. -1.
         -1   -1    0    0    0  501 -0.00000000000E+00 -0.00000000000E+00 -0.58012067763E+03  0.58012067763E+03  0.00000000000E+00 0.  1.
         23    2    1    2    0    0  0.10147788640E+03  0.87400798434E+02 -0.17419745058E+03  0.25278945911E+03  0.12498439045E+03 0.  0.
          5    1    3    3  502    0 -0.11527551852E+02  0.53161039535E+02 -0.19188379957E+02  0.57872830426E+02  0.47000000000E+01 0. -1.
         -5    1    3    3    0  502  0.11300543825E+03  0.34239758899E+02 -0.15500907062E+03  0.19491662869E+03  0.47000000000E+01 0. -1.
        -11    1    1    2    0    0 -0.13041025418E+02 -0.66119564740E+02 -0.18504031008E+03  0.19693090550E+03  0.00000000000E+00 0. -1.
         11    1    1    2    0    0 -0.88436860983E+02 -0.21281233694E+02 -0.16386483692E+03  0.18741839308E+03  0.00000000000E+00 0.  1.
<mgrwt>
<rscale>  0 0.17742804E+03</rscale>
<asrwt>0</asrwt>
<pdfrwt beam="1">  1        1 0.87720122E-02 0.18318777E+03</pdfrwt>
<pdfrwt beam="2">  1       -1 0.89249336E-01 0.18318777E+03</pdfrwt>
<totfact> 0.98412469E+02</totfact>
</mgrwt>
</event>
<event>
 7    1  0.5206756E-006  0.1290343E+03  0.7546771E-02  0.1243295E+00
         -2   -1    0    0    0  501 -0.00000000000E+00  0.00000000000E+00  0.10630535150E+03  0.10630535150E+03  0.00000000000E+00 0.  1.
          2   -1    0    0  501    0  0.00000000000E+00 -0.00000000000E+00 -0.11930279279E+03  0.11930279279E+03  0.00000000000E+00 0. -1.
         23    2    1    2    0    0  0.31483156896E+02 -0.74584100908E+01 -0.10146934562E+02  0.12943266540E+03  0.12491211928E+03 0.  0.
          5    1    3    3  502    0  0.40412536831E+02 -0.26792768729E+02 -0.58655544719E+02  0.76246891841E+02  0.47000000000E+01 0. -1.
         -5    1    3    3    0  502 -0.89293799348E+01  0.19334358638E+02  0.48508610157E+02  0.53185773561E+02  0.47000000000E+01 0. -1.
        -11    1    1    2    0    0 -0.82770488044E+01  0.44127419853E+02 -0.20465522348E+02  0.49341426051E+02  0.00000000000E+00 0. -1.
         11    1    1    2    0    0 -0.23206108091E+02 -0.36669009762E+02  0.17615015617E+02  0.46834052834E+02  0.00000000000E+00 0.  1.
<mgrwt>
<rscale>  0 0.11988016E+03</rscale>
<asrwt>0</asrwt>
<pdfrwt beam="2">  1        2 0.18354276E-01 0.12903432E+03</pdfrwt>
<pdfrwt beam="1">  1       -2 0.16354670E-01 0.12903432E+03</pdfrwt>
<totfact> 0.85386949E+03</totfact>
</mgrwt>
</event>
<event>
 7    1  0.5206756E-006  0.1753832E+03  0.7546771E-02  0.1179100E+00
          2   -1    0    0  501    0  0.00000000000E+00  0.00000000000E+00  0.10303832197E+03  0.10303832197E+03  0.00000000000E+00 0. -1.
         -2   -1    0    0    0  501 -0.00000000000E+00 -0.00000000000E+00 -0.28340406455E+03  0.28340406455E+03  0.00000000000E+00 0.  1.
         23    2    1    2    0    0 -0.11716099247E+03 -0.37527701172E+02 -0.38394797214E+02  0.17953673783E+03  0.12499701302E+03 0.  0.
          5    1    3    3  502    0 -0.97403353773E+01  0.10865580634E+02  0.36678912579E+02  0.39753837598E+02  0.47000000000E+01 0.  1.
         -5    1    3    3    0  502 -0.10742065709E+03 -0.48393281806E+02 -0.75073709793E+02  0.13978290023E+03  0.47000000000E+01 0.  1.
        -11    1    1    2    0    0 -0.12682525109E+02  0.86088164319E+01 -0.53886795169E+01  0.16247954654E+02  0.00000000000E+00 0.  1.
         11    1    1    2    0    0  0.12984351758E+03  0.28918884740E+02 -0.13658226585E+03  0.19065769404E+03  0.00000000000E+00 0. -1.
<mgrwt>
<rscale>  0 0.16880474E+03</rscale>
<asrwt>0</asrwt>
<pdfrwt beam="1">  1        2 0.15852050E-01 0.17538324E+03</pdfrwt>
<pdfrwt beam="2">  1       -2 0.43600624E-01 0.17538324E+03</pdfrwt>
<totfact> 0.18054019E+03</totfact>
</mgrwt>
</event>
<event>
 7    1  0.5206756E-006  0.2365392E+03  0.7546771E-02  0.1124882E+00
          2   -1    0    0  501    0  0.00000000000E+00  0.00000000000E+00  0.13331780496E+04  0.13331780496E+04  0.00000000000E+00 0. -1.
         -2   -1    0    0    0  501 -0.00000000000E+00 -0.00000000000E+00 -0.61055329653E+02  0.61055329653E+02  0.00000000000E+00 0.  1.
         23    2    1    2    0    0  0.13977312397E+01 -0.20080773526E+03  0.10667155088E+04  0.10926265505E+04  0.12500040728E+03 0.  0.
          5    1    3    3  502    0  0.58663024473E+02 -0.12816065626E+03  0.55784018769E+03  0.57539053629E+03  0.47000000000E+01 0. -1.
         -5    1    3    3    0  502 -0.57265293233E+02 -0.72647079000E+02  0.50887532115E+03  0.51723601419E+03  0.47000000000E+01 0. -1.
        -11    1    1    2    0    0  0.55451924734E+01  0.41149081538E+02  0.21156891537E+00  0.41521570688E+02  0.00000000000E+00 0.  1.
         11    1    1    2    0    0 -0.69429237131E+01  0.15965865373E+03  0.20519564220E+03  0.26008525810E+03  0.00000000000E+00 0. -1.
<mgrwt>
<rscale>  0 0.23251530E+03</rscale>
<asrwt>0</asrwt>
<pdfrwt beam="1">  1        2 0.20510429E+00 0.23653922E+03</pdfrwt>
<pdfrwt beam="2">  1       -2 0.93931287E-02 0.23653922E+03</pdfrwt>
<totfact> 0.12370082E+03</totfact>
</mgrwt>
</event>
<event>
 7    1  0.5206756E-006  0.1432261E+03  0.7546771E-02  0.1219819E+00
          2   -1    0    0  501    0  0.00000000000E+00  0.00000000000E+00  0.35846635609E+02  0.35846635609E+02  0.00000000000E+00 0. -1.
         -2   -1    0    0    0  501 -0.00000000000E+00 -0.00000000000E+00 -0.46864700364E+03  0.46864700364E+03  0.00000000000E+00 0.  1.
         23    2    1    2    0    0  0.62286299190E+02  0.31735006416E+02 -0.20957473433E+03  0.25384104737E+03  0.12500805720E+03 0.  0.
          5    1    3    3  502    0 -0.22761491427E+02  0.24998816625E+02 -0.82229318617E+01  0.35110296681E+02  0.47000000000E+01 0.  1.
         -5    1    3    3    0  502  0.85047790617E+02  0.67361897905E+01 -0.20135180247E+03  0.21873075069E+03  0.47000000000E+01 0.  1.
        -11    1    1    2    0    0  0.39431373305E+00 -0.40896875019E+02 -0.14125832364E+03  0.14705993291E+03  0.00000000000E+00 0.  1.
         11    1    1    2    0    0 -0.62680612923E+02  0.91618686029E+01 -0.81967310056E+02  0.10359265896E+03  0.00000000000E+00 0. -1.
<mgrwt>
<rscale>  0 0.13528421E+03</rscale>
<asrwt>0</asrwt>
<pdfrwt beam="1">  1        2 0.55148673E-02 0.14322607E+03</pdfrwt>
<pdfrwt beam="2">  1       -2 0.72099535E-01 0.14322607E+03</pdfrwt>
<totfact> 0.23781501E+03</totfact>
</mgrwt>
</event>
<event>
 7    1  0.5206756E-006  0.1404065E+03  0.7546771E-02  0.1223838E+00
          1   -1    0    0  501    0  0.00000000000E+00  0.00000000000E+00  0.60672086875E+03  0.60672086875E+03  0.00000000000E+00 0. -1.
         -1   -1    0    0    0  501 -0.00000000000E+00 -0.00000000000E+00 -0.27499507255E+02  0.27499507255E+02  0.00000000000E+00 0.  1.
         23    2    1    2    0    0 -0.76700427996E+01 -0.63485624494E+02  0.39266025722E+03  0.41700846470E+03  0.12499891182E+03 0.  0.
          5    1    3    3  502    0  0.51250594286E+02 -0.31931936846E+02  0.10114831601E+03  0.11789547844E+03  0.47000000000E+01 0. -1.
         -5    1    3    3    0  502 -0.58920637086E+02 -0.31553687648E+02  0.29151194122E+03  0.29911298626E+03  0.47000000000E+01 0. -1.
        -11    1    1    2    0    0 -0.32942260310E+02  0.21123065884E+02  0.27941411806E+02  0.48084289746E+02  0.00000000000E+00 0. -1.
         11    1    1    2    0    0  0.40612303110E+02  0.42362558610E+02  0.15861969247E+03  0.16912762156E+03  0.00000000000E+00 0.  1.
<mgrwt>
<rscale>  0 0.13246855E+03</rscale>
<asrwt>0</asrwt>
<pdfrwt beam="1">  1        1 0.93341662E-01 0.14040649E+03</pdfrwt>
<pdfrwt beam="2">  1       -1 0.42306939E-02 0.14040649E+03</pdfrwt>
<totfact> 0.75337213E+03</totfact>
</mgrwt>
</event>
<event>
 7    1  0.5206756E-006  0.1768907E+03  0.7546771E-02  0.1176539E+00
          2   -1    0    0  501    0  0.00000000000E+00  0.00000000000E+00  0.51387459967E+03  0.51387459967E+03  0.00000000000E+00 0. -1.
         -2   -1    0    0    0  501 -0.00000000000E+00 -0.00000000000E+00 -0.54817641791E+02  0.54817641791E+02  0.00000000000E+00 0.  1.
         23    2    1    2    0    0 -0.68689779519E+02 -0.10463291399E+03  0.28411395140E+03  0.33468053354E+03  0.12499595854E+03 0.  0.
          5    1    3    3  502    0  0.34410900224E+02 -0.35205658137E+02  0.11094943143E+03  0.12147186816E+03  0.47000000000E+01 0. -1.
         -5    1    3    3    0  502 -0.10310067974E+03 -0.69427255855E+02  0.17316451997E+03  0.21320866538E+03  0.47000000000E+01 0. -1.
        -11    1    1    2    0    0  0.79891618646E+02  0.10431346655E+03  0.12002040106E+03  0.17795748566E+03  0.00000000000E+00 0.  1.
         11    1    1    2    0    0 -0.11201839127E+02  0.31944744532E+00  0.54922605419E+02  0.56054222254E+02  0.00000000000E+00 0. -1.
<mgrwt>
<rscale>  0 0.17126075E+03</rscale>
<asrwt>0</asrwt>
<pdfrwt beam="1">  1        2 0.79057627E-01 0.17689071E+03</pdfrwt>
<pdfrwt beam="2">  1       -2 0.84334837E-02 0.17689071E+03</pdfrwt>
<totfact> 0.51294676E+03</totfact>
</mgrwt>
</event>
<event>
 7    1  0.5206756E-006  0.3657489E+03  0.7546771E-02  0.1057282E+00
          1   -1    0    0  501    0  0.00000000000E+00  0.00000000000E+00  0.25910003821E+03  0.25910003821E+03  0.00000000000E+00 0. -1.
         -1   -1    0    0    0  501 -0.00000000000E+00 -0.00000000000E+00 -0.61412421562E+03  0.61412421562E+03  0.00000000000E+00 0.  1.
         23    2    1    2    0    0 -0.29468304532E+03  0.17694554146E+03  0.64708550530E+01  0.36580616387E+03  0.12499782285E+03 0.  0.
          5    1    3    3  502    0 -0.17175914493E+03  0.32925136727E+02  0.19051244206E+02  0.17598382994E+03  0.47000000000E+01 0. -1.
         -5    1    3    3    0  502 -0.12292390039E+03  0.14402040473E+03 -0.12580389153E+02  0.18982233393E+03  0.47000000000E+01 0. -1.
        -11    1    1    2    0    0  0.24322510501E+03 -0.17450463458E+03 -0.33577350116E+03  0.44983793002E+03  0.00000000000E+00 0. -1.
         11    1    1    2    0    0  0.51457940308E+02 -0.24409068760E+01 -0.25721531293E+02  0.57580159944E+02  0.00000000000E+00 0.  1.
<mgrwt>
<rscale>  0 0.36330789E+03</rscale>
<asrwt>0</asrwt>
<pdfrwt beam="1">  1        1 0.39861544E-01 0.36574893E+03</pdfrwt>
<pdfrwt beam="2">  1       -1 0.94480649E-01 0.36574893E+03</pdfrwt>
<totfact> 0.12030062E+02</totfact>
</mgrwt>
</event>
<event>
 7    1  0.5206756E-006  0.1683917E+03  0.7546771E-02  0.1185962E+00
         -2   -1    0    0    0  501 -0.00000000000E+00  0.00000000000E+00  0.20428582704E+03  0.20428582704E+03  0.00000000000E+00 0. -1.
          2   -1    0    0  501    0  0.00000000000E+00 -0.00000000000E+00 -0.12087942943E+03  0.12087942943E+03  0.00000000000E+00 0.  1.
         23    2    1    2    0    0  0.10153730105E+03  0.49273848438E+02  0.47662516671E+02  0.17500704231E+03  0.12497205175E+03 0.  0.
          5    1    3    3  502    0  0.47763866199E+02 -0.42820039642E+01  0.79184793758E+02  0.92693279340E+02  0.47000000000E+01 0.  1.
         -5    1    3    3    0  502  0.53773434850E+02  0.53555852402E+02 -0.31522277087E+02  0.82313762973E+02  0.47000000000E+01 0.  1.
        -11    1    1    2    0    0 -0.19668563955E+02  0.78350011395E+01 -0.25426346290E+02  0.33086836303E+02  0.00000000000E+00 0.  1.
         11    1    1    2    0    0 -0.81868737094E+02 -0.57108849578E+02  0.61170227234E+02  0.11707137786E+03  0.00000000000E+00 0. -1.
<mgrwt>
<rscale>  0 0.16244674E+03</rscale>
<asrwt>0</asrwt>
<pdfrwt beam="2">  1        2 0.18596835E-01 0.16839165E+03</pdfrwt>
<pdfrwt beam="1">  1       -2 0.31428589E-01 0.16839165E+03</pdfrwt>
<totfact> 0.27666483E+03</totfact>
</mgrwt>
</event>
<event>
 7    1  0.5206756E-006  0.1556185E+03  0.7546771E-02  0.1201953E+00
         -2   -1    0    0    0  501 -0.00000000000E+00  0.00000000000E+00  0.32808071395E+03  0.32808071395E+03  0.00000000000E+00 0.  1.
          2   -1    0    0  501    0  0.00000000000E+00 -0.00000000000E+00 -0.62690764472E+02  0.62690764472E+02  0.00000000000E+00 0. -1.
         23    2    1    2    0    0  0.70555650129E+02 -0.60125158172E+02  0.16162852358E+03  0.22436774162E+03  0.12499587768E+03 0.  0.
          5    1    3    3  502    0  0.38056872695E+02 -0.53972546885E+02  0.17596869063E+03  0.18801178542E+03  0.47000000000E+01 0.  1.
         -5    1    3    3    0  502  0.32498777434E+02 -0.61526112875E+01 -0.14340167047E+02  0.36355956201E+02  0.47000000000E+01 0.  1.
        -11    1    1    2    0    0 -0.16184488967E+02  0.53165129171E+02  0.81147556722E+01  0.56163314562E+02  0.00000000000E+00 0. -1.
         11    1    1    2    0    0 -0.54371161162E+02  0.69600290008E+01  0.95646670221E+02  0.11024042223E+03  0.00000000000E+00 0.  1.
<mgrwt>
<rscale>  0 0.14880173E+03</rscale>
<asrwt>0</asrwt>
<pdfrwt beam="2">  1        2 0.96447332E-02 0.15561846E+03</pdfrwt>
<pdfrwt beam="1">  1       -2 0.50473955E-01 0.15561846E+03</pdfrwt>
<totfact> 0.24517990E+03</totfact>
</mgrwt>
</event>
<event>
 7    1  0.5206756E-006  0.1537760E+03  0.7546771E-02  0.1204441E+00
         -1   -1    0    0    0  501 -0.00000000000E+00  0.00000000000E+00  0.14523770972E+03  0.14523770972E+03  0.00000000000E+00 0.  1.
          1   -1    0    0  501    0  0.00000000000E+00 -0.00000000000E+00 -0.13691653936E+03  0.13691653936E+03  0.00000000000E+00 0. -1.
         23    2    1    2    0    0  0.75798370366E+02  0.47711133800E+02 -0.36905557995E+01  0.15382024491E+03  0.12500120920E+03 0.  0.
          5    1    3    3  502    0 -0.59352260234E+01  0.44229960581E+02  0.40739167304E+02  0.60607640389E+02  0.47000000000E+01 0. -1.
         -5    1    3    3    0  502  0.81733596389E+02  0.34811732198E+01 -0.44429723103E+02  0.93212604517E+02  0.47000000000E+01 0. -1.
        -11    1    1    2    0    0 -0.64603647354E+02 -0.42706613559E+02 -0.31143089155E+02  0.83470821820E+02  0.00000000000E+00 0. -1.
         11    1    1    2    0    0 -0.11194723012E+02 -0.50045202413E+01  0.43154815318E+02  0.44863182358E+02  0.00000000000E+00 0.  1.
<mgrwt>
<rscale>  0 0.14681624E+03</rscale>
<asrwt>0</asrwt>
<pdfrwt beam="2">  1        1 0.21064083E-01 0.15377597E+03</pdfrwt>
<pdfrwt beam="1">  1       -1 0.22344263E-01 0.15377597E+03</pdfrwt>
<totfact> 0.38773237E+03</totfact>
</mgrwt>
</event>
<event>
 7    1  0.5206756E-006  0.1426355E+03  0.7546771E-02  0.1219883E+00
         -2   -1    0    0    0  501 -0.00000000000E+00  0.00000000000E+00  0.11926343488E+03  0.11926343488E+03  0.00000000000E+00 0.  1.
          2   -1    0    0  501    0  0.00000000000E+00 -0.00000000000E+00 -0.14000372918E+03  0.14000372918E+03  0.00000000000E+00 0. -1.
         23    2    1    2    0    0  0.53978510178E+02  0.42517649836E+02 -0.19705530198E+02  0.14399026328E+03  0.12499383141E+03 0.  0.
          5    1    3    3  502    0  0.36604093624E+02  0.43644320337E+02 -0.70110739407E+02  0.90456023282E+02  0.47000000000E+01 0. -1.
         -5    1    3    3    0  502  0.17374416554E+02 -0.11266705007E+01  0.50405209210E+02  0.53534240001E+02  0.47000000000E+01 0. -1.
        -11    1    1    2    0    0 -0.73654664816E+02 -0.53920648425E+02 -0.76237212709E+01  0.91600038765E+02  0.00000000000E+00 0. -1.
         11    1    1    2    0    0  0.19676154639E+02  0.11402998589E+02  0.65889571652E+01  0.23676862011E+02  0.00000000000E+00 0.  1.
<mgrwt>
<rscale>  0 0.13523900E+03</rscale>
<asrwt>0</asrwt>
<pdfrwt beam="2">  1        2 0.21539035E-01 0.14263551E+03</pdfrwt>
<pdfrwt beam="1">  1       -2 0.18348221E-01 0.14263551E+03</pdfrwt>
<totfact> 0.59283212E+03</totfact>
</mgrwt>
</event>
<event>
 7    1  0.5206756E-006  0.1351362E+03  0.7546771E-02  0.1231783E+00
          2   -1    0    0  501    0  0.00000000000E+00  0.00000000000E+00  0.44798343732E+03  0.44798343732E+03  0.00000000000E+00 0. -1.
         -2   -1    0    0    0  501 -0.00000000000E+00 -0.00000000000E+00 -0.35417626945E+02  0.35417626945E+02  0.00000000000E+00 0.  1.
         23    2    1    2    0    0 -0.30461730723E+02 -0.41327803927E+02  0.29925191818E+03  0.32834967399E+03  0.12500357376E+03 0.  0.
          5    1    3    3  502    0 -0.43261980983E+02  0.35271465086E+02  0.10317180099E+03  0.11739755435E+03  0.47000000000E+01 0.  1.
         -5    1    3    3    0  502  0.12800250260E+02 -0.76599269013E+02  0.19608011719E+03  0.21095211964E+03  0.47000000000E+01 0.  1.
        -11    1    1    2    0    0  0.48894895696E+02 -0.66587269975E+01  0.31875149626E+02  0.58745847802E+02  0.00000000000E+00 0.  1.
         11    1    1    2    0    0 -0.18433164972E+02  0.47986530925E+02  0.81438742568E+02  0.96305542479E+02  0.00000000000E+00 0. -1.
<mgrwt>
<rscale>  0 0.12712630E+03</rscale>
<asrwt>0</asrwt>
<pdfrwt beam="1">  1        2 0.68920525E-01 0.13513622E+03</pdfrwt>
<pdfrwt beam="2">  1       -2 0.54488660E-02 0.13513622E+03</pdfrwt>
<totfact> 0.11461577E+04</totfact>
</mgrwt>
</event>
<event>
 7    1  0.5206756E-006  0.1679997E+03  0.7546771E-02  0.1186532E+00
         -1   -1    0    0    0  501 -0.00000000000E+00  0.00000000000E+00  0.58888560151E+02  0.58888560151E+02  0.00000000000E+00 0.  1.
          1   -1    0    0  501    0  0.00000000000E+00 -0.00000000000E+00 -0.11974420028E+04  0.11974420028E+04  0.00000000000E+00 0. -1.
         23    2    1    2    0    0  0.72433454034E+02 -0.85744215039E+02 -0.10907916062E+04  0.11036531325E+04  0.12500093190E+03 0.  0.
          5    1    3    3  502    0 -0.11642255304E+02 -0.39510467151E+02 -0.10052853653E+03  0.10874141704E+03  0.47000000000E+01 0.  1.
         -5    1    3    3    0  502  0.84075709338E+02 -0.46233747888E+02 -0.99026306966E+03  0.99491171542E+03  0.47000000000E+01 0.  1.
        -11    1    1    2    0    0 -0.27061843517E+01  0.30758458453E+02  0.23513760828E+02  0.38811121453E+02  0.00000000000E+00 0.  1.
         11    1    1    2    0    0 -0.69727269682E+02  0.54985756586E+02 -0.71275597274E+02  0.11386630903E+03  0.00000000000E+00 0. -1.
<mgrwt>
<rscale>  0 0.16193260E+03</rscale>
<asrwt>0</asrwt>
<pdfrwt beam="2">  1        1 0.18422185E+00 0.16799973E+03</pdfrwt>
<pdfrwt beam="1">  1       -1 0.90597784E-02 0.16799973E+03</pdfrwt>
<totfact> 0.82456456E+02</totfact>
</mgrwt>
</event>
<event>
 7    1  0.5206756E-006  0.2388446E+03  0.7546771E-02  0.1123576E+00
          1   -1    0    0  501    0  0.00000000000E+00  0.00000000000E+00  0.22185699214E+03  0.22185699214E+03  0.00000000000E+00 0. -1.
         -1   -1    0    0    0  501 -0.00000000000E+00 -0.00000000000E+00 -0.24316255814E+03  0.24316255814E+03  0.00000000000E+00 0.  1.
         23    2    1    2    0    0 -0.20142134005E+03  0.29221155468E+02  0.19782713504E+02  0.23966243607E+03  0.12498918095E+03 0.  0.
          5    1    3    3  502    0 -0.20546665771E+03  0.43547933141E+02 -0.52634257922E+01  0.21014938393E+03  0.47000000000E+01 0.  1.
         -5    1    3    3    0  502  0.40453176604E+01 -0.14326777673E+02  0.25046139296E+02  0.29513052148E+02  0.47000000000E+01 0.  1.
        -11    1    1    2    0    0  0.10287579194E+03  0.29077632859E+02 -0.15369295381E+02  0.10800533570E+03  0.00000000000E+00 0.  1.
         11    1    1    2    0    0  0.98545548118E+02 -0.58298788328E+02 -0.25718984116E+02  0.11735177850E+03  0.00000000000E+00 0. -1.
<mgrwt>
<rscale>  0 0.23440617E+03</rscale>
<asrwt>0</asrwt>
<pdfrwt beam="1">  1        1 0.34131845E-01 0.23884457E+03</pdfrwt>
<pdfrwt beam="2">  1       -1 0.37409624E-01 0.23884457E+03</pdfrwt>
<totfact> 0.89446177E+02</totfact>
</mgrwt>
</event>
<event>
 7    1  0.5206756E-006  0.1289074E+03  0.7546771E-02  0.1243957E+00
          2   -1    0    0  501    0  0.00000000000E+00  0.00000000000E+00  0.35414124843E+03  0.35414124843E+03  0.00000000000E+00 0.  1.
         -2   -1    0    0    0  501 -0.00000000000E+00 -0.00000000000E+00 -0.37195540540E+02  0.37195540540E+02  0.00000000000E+00 0. -1.
         23    2    1    2    0    0 -0.87284311186E+01  0.30035256523E+02  0.22333252754E+03  0.25786533081E+03  0.12505522313E+03 0.  0.
          5    1    3    3  502    0  0.69221075709E+01  0.19111349394E+02 -0.10397654728E+02  0.23310093795E+02  0.47000000000E+01 0. -1.
         -5    1    3    3    0  502 -0.15650538689E+02  0.10923907129E+02  0.23373018226E+03  0.23455523701E+03  0.47000000000E+01 0. -1.
        -11    1    1    2    0    0 -0.26914555385E+02 -0.10710785004E+01  0.81697357185E+02  0.86023244950E+02  0.00000000000E+00 0.  1.
         11    1    1    2    0    0  0.35642986503E+02 -0.28964178022E+02  0.11915823169E+02  0.47448213214E+02  0.00000000000E+00 0. -1.
<mgrwt>
<rscale>  0 0.11948038E+03</rscale>
<asrwt>0</asrwt>
<pdfrwt beam="1">  1        2 0.54483267E-01 0.12890737E+03</pdfrwt>
<pdfrwt beam="2">  1       -2 0.57223911E-02 0.12890737E+03</pdfrwt>
<totfact> 0.13634369E+04</totfact>
</mgrwt>
</event>
<event>
 6    1  0.5206756E-006  0.2243637E+03  0.7546771E-02  0.1163749E+00
          1   -1    0    0  501    0  0.00000000000E+00  0.00000000000E+00  0.31634482126E+04  0.31634482126E+04  0.00000000000E+00 0. -1.
         -1   -1    0    0    0  501 -0.00000000000E+00 -0.00000000000E+00 -0.13093169034E+02  0.13093169034E+02  0.00000000000E+00 0.  1.
          5    1    1    2  502    0  0.39373964794E+02  0.96516067921E+02  0.22117012429E+04  0.22141612719E+04  0.47000000000E+01 0. -1.
         -5    1    1    2    0  502 -0.67670876623E+02 -0.60334657883E+02  0.64807816155E+03  0.65440584652E+03  0.47000000000E+01 0.  1.
        -11    1    1    2    0    0 -0.91474014604E+01 -0.45038586737E+02  0.67852587319E+02  0.81951954550E+02  0.00000000000E+00 0.  1.
         11    1    1    2    0    0  0.37444313290E+02  0.88571766980E+01  0.22272305184E+03  0.22602230863E+03  0.00000000000E+00 0. -1.
<mgrwt>
<rscale>  0 0.18425376E+03</rscale>
<asrwt>0</asrwt>
<pdfrwt beam="1">  1        1 0.48668373E+00 0.22436370E+03</pdfrwt>
<pdfrwt beam="2">  1       -1 0.20143362E-02 0.22436370E+03</pdfrwt>
<totfact> 0.37988879E+02</totfact>
</mgrwt>
</event>
<event>
 6    1  0.5206756E-006  0.1825572E+03  0.7546771E-02  0.1185079E+00
         -2   -1    0    0    0  501 -0.00000000000E+00  0.00000000000E+00  0.56264703252E+02  0.56264703252E+02  0.00000000000E+00 0.  1.
          2   -1    0    0  501    0  0.00000000000E+00 -0.00000000000E+00 -0.43054864202E+03  0.43054864202E+03  0.00000000000E+00 0. -1.
          5    1    1    2  502    0 -0.54908788476E+02  0.82006009488E+02 -0.29544835263E+03  0.31153134628E+03  0.47000000000E+01 0. -1.
         -5    1    1    2    0  502  0.26553513645E+02 -0.15866325492E+02  0.48402465740E+01  0.31659869842E+02  0.47000000000E+01 0.  1.
        -11    1    1    2    0    0  0.61536649083E+02 -0.33427823154E+02 -0.47254294662E+02  0.84481636497E+02  0.00000000000E+00 0.  1.
         11    1    1    2    0    0 -0.33181374252E+02 -0.32711860842E+02 -0.36421538043E+02  0.59140492647E+02  0.00000000000E+00 0. -1.
<mgrwt>
<rscale>  0 0.16324655E+03</rscale>
<asrwt>0</asrwt>
<pdfrwt beam="2">  1        2 0.66238256E-01 0.18255722E+03</pdfrwt>
<pdfrwt beam="1">  1       -2 0.86561077E-02 0.18255722E+03</pdfrwt>
<totfact> 0.59919669E+03</totfact>
</mgrwt>
</event>
<event>
 7    1  0.5206756E-006  0.1406835E+03  0.7546771E-02  0.1223347E+00
          2   -1    0    0  501    0  0.00000000000E+00  0.00000000000E+00  0.65364081000E+03  0.65364081000E+03  0.00000000000E+00 0. -1.
         -2   -1    0    0    0  501 -0.00000000000E+00 -0.00000000000E+00 -0.32286432012E+02  0.32286432012E+02  0.00000000000E+00 0.  1.
         23    2    1    2    0    0  0.14422612040E+02  0.62921785704E+02  0.50657204575E+03  0.52574432081E+03  0.12499876192E+03 0.  0.
          5    1    3    3  502    0  0.39235497084E+02 -0.24001184420E+02  0.23436750006E+03  0.23888427359E+03  0.47000000000E+01 0.  1.
         -5    1    3    3    0  502 -0.24812885044E+02  0.86922970125E+02  0.27220454568E+03  0.28686004722E+03  0.47000000000E+01 0.  1.
        -11    1    1    2    0    0 -0.43639836862E+01 -0.16093335293E+02 -0.14635447022E+02  0.22186394569E+02  0.00000000000E+00 0.  1.
         11    1    1    2    0    0 -0.10058628354E+02 -0.46828450412E+02  0.12941777926E+03  0.13799652663E+03  0.00000000000E+00 0. -1.
<mgrwt>
<rscale>  0 0.13280818E+03</rscale>
<asrwt>0</asrwt>
<pdfrwt beam="1">  1        2 0.10056012E+00 0.14068352E+03</pdfrwt>
<pdfrwt beam="2">  1       -2 0.49671439E-02 0.14068352E+03</pdfrwt>
<totfact> 0.86626385E+03</totfact>
</mgrwt>
</event>
<event>
 7    1  0.5206756E-006  0.1269861E+03  0.7546771E-02  0.1247430E+00
         -2   -1    0    0    0  501 -0.00000000000E+00  0.00000000000E+00  0.21135346178E+02  0.21135346178E+02  0.00000000000E+00 0.  1.
          2   -1    0    0  501    0  0.00000000000E+00 -0.00000000000E+00 -0.57376005122E+03  0.57376005122E+03  0.00000000000E+00 0. -1.
         23    2    1    2    0    0  0.20082618280E+02  0.98617418292E+01 -0.33790862960E+03  0.36098159519E+03  0.12499961840E+03 0.  0.
          5    1    3    3  502    0 -0.26418645155E+02 -0.11948281030E+02 -0.13201302897E+02  0.32203581005E+02  0.47000000000E+01 0.  1.
         -5    1    3    3    0  502  0.46501263435E+02  0.21810022860E+02 -0.32470732671E+03  0.32877801419E+03  0.47000000000E+01 0.  1.
        -11    1    1    2    0    0  0.34595316423E+02 -0.45233543710E+01 -0.56219093544E+02  0.66165573617E+02  0.00000000000E+00 0.  1.
         11    1    1    2    0    0 -0.54677934703E+02 -0.53383874582E+01 -0.15849698190E+03  0.16774822859E+03  0.00000000000E+00 0. -1.
<mgrwt>
<rscale>  0 0.11741116E+03</rscale>
<asrwt>0</asrwt>
<pdfrwt beam="2">  1        2 0.88270765E-01 0.12698610E+03</pdfrwt>
<pdfrwt beam="1">  1       -2 0.32515922E-02 0.12698610E+03</pdfrwt>
<totfact> 0.18733719E+04</totfact>
</mgrwt>
</event>
<event>
 6    1  0.5206756E-006  0.1857983E+03  0.7546771E-02  0.1192612E+00
          1   -1    0    0  501    0  0.00000000000E+00  0.00000000000E+00  0.93346583125E+03  0.93346583125E+03  0.00000000000E+00 0. -1.
         -1   -1    0    0    0  501 -0.00000000000E+00 -0.00000000000E+00 -0.59055949659E+02  0.59055949659E+02  0.00000000000E+00 0.  1.
          5    1    1    2  502    0  0.42903103252E+02  0.13920688876E+02  0.76636057917E+03  0.76770117178E+03  0.47000000000E+01 0. -1.
         -5    1    1    2    0  502 -0.60497606765E+02 -0.26947970081E+02  0.11290037811E+03  0.13097610046E+03  0.47000000000E+01 0.  1.
        -11    1    1    2    0    0  0.15724449529E+02 -0.32426614052E+02 -0.25234266231E+02  0.43994451969E+02  0.00000000000E+00 0. -1.
         11    1    1    2    0    0  0.18700539842E+01  0.45453895256E+02  0.20383190545E+02  0.49850056697E+02  0.00000000000E+00 0.  1.
<mgrwt>
<rscale>  0 0.15658071E+03</rscale>
<asrwt>0</asrwt>
<pdfrwt beam="1">  1        1 0.14361012E+00 0.18579830E+03</pdfrwt>
<pdfrwt beam="2">  1       -1 0.90855314E-02 0.18579830E+03</pdfrwt>
<totfact> 0.12729631E+03</totfact>
</mgrwt>
</event>
<event>
 7    1  0.5206756E-006  0.1434418E+03  0.7546771E-02  0.1219422E+00
         -1   -1    0    0    0  501 -0.00000000000E+00  0.00000000000E+00  0.12431630912E+03  0.12431630912E+03  0.00000000000E+00 0.  1.
          1   -1    0    0  501    0  0.00000000000E+00 -0.00000000000E+00 -0.14872373915E+03  0.14872373915E+03  0.00000000000E+00 0. -1.
         23    2    1    2    0    0  0.49551006635E+02  0.49946905237E+02 -0.56523823936E+02  0.15417683952E+03  0.12500223827E+03 0.  0.
          5    1    3    3  502    0  0.30274910718E+02 -0.30153988186E+02 -0.57323622704E+02  0.71651384790E+02  0.47000000000E+01 0.  1.
         -5    1    3    3    0  502  0.19276095917E+02  0.80100893423E+02  0.79979876764E+00  0.82525454734E+02  0.47000000000E+01 0.  1.
        -11    1    1    2    0    0 -0.14891544944E+02 -0.71847916089E+02  0.18633433722E+02  0.75703936551E+02  0.00000000000E+00 0. -1.
         11    1    1    2    0    0 -0.34659461691E+02  0.21901010852E+02  0.13482960184E+02  0.43159272195E+02  0.00000000000E+00 0.  1.
<mgrwt>
<rscale>  0 0.13556679E+03</rscale>
<asrwt>0</asrwt>
<pdfrwt beam="2">  1        1 0.22880575E-01 0.14344182E+03</pdfrwt>
<pdfrwt beam="1">  1       -1 0.19125586E-01 0.14344182E+03</pdfrwt>
<totfact> 0.44707352E+03</totfact>
</mgrwt>
</event>
<event>
 7    1  0.5206756E-006  0.1534359E+03  0.7546771E-02  0.1202901E+00
          1   -1    0    0  501    0  0.00000000000E+00  0.00000000000E+00  0.63718993709E+02  0.63718993709E+02  0.00000000000E+00 0. -1.
         -1   -1    0    0    0  501 -0.00000000000E+00 -0.00000000000E+00 -0.37359503949E+03  0.37359503949E+03  0.00000000000E+00 0.  1.
         23    2    1    2    0    0 -0.24183500506E+02  0.88752733901E+02 -0.83263928860E+02  0.17457217523E+03  0.12280339183E+03 0.  0.
          5    1    3    3  502    0  0.30979364666E+02  0.83075927100E+02 -0.21345021691E+02  0.91318293072E+02  0.47000000000E+01 0. -1.
         -5    1    3    3    0  502 -0.55162865172E+02  0.56768068016E+01 -0.61918907169E+02  0.83253882159E+02  0.47000000000E+01 0.  1.
        -11    1    1    2    0    0 -0.20774890944E+02 -0.67118899131E+02 -0.73386159616E+02  0.10159759415E+03  0.00000000000E+00 0.  1.
         11    1    1    2    0    0  0.44958391450E+02 -0.21633834770E+02 -0.15322595731E+03  0.16114426382E+03  0.00000000000E+00 0. -1.
<mgrwt>
<rscale>  0 0.14804071E+03</rscale>
<asrwt>0</asrwt>
<pdfrwt beam="1">  1        1 0.98029222E-02 0.15343586E+03</pdfrwt>
<pdfrwt beam="2">  1       -1 0.57476159E-01 0.15343586E+03</pdfrwt>
<totfact> 0.20333660E+03</totfact>
</mgrwt>
</event>
<event>
 7    1  0.5206756E-006  0.2403812E+03  0.7546771E-02  0.1122092E+00
          1   -1    0    0  501    0  0.00000000000E+00  0.00000000000E+00  0.44977525984E+03  0.44977525984E+03  0.00000000000E+00 0. -1.
         -1   -1    0    0    0  501 -0.00000000000E+00 -0.00000000000E+00 -0.12131167153E+03  0.12131167153E+03  0.00000000000E+00 0.  1.
         23    2    1    2    0    0  0.18325335017E+02  0.20450552454E+03  0.19038381755E+03  0.30664171706E+03  0.12499926873E+03 0.  0.
          5    1    3    3  502    0  0.62314093038E+02  0.81791538125E+02  0.12111532983E+03  0.15894626457E+03  0.47000000000E+01 0.  1.
         -5    1    3    3    0  502 -0.43988758021E+02  0.12271398642E+03  0.69268487720E+02  0.14769545249E+03  0.47000000000E+01 0.  1.
        -11    1    1    2    0    0 -0.54732538891E+02 -0.13271595159E+03  0.10274130384E+03  0.17653597405E+03  0.00000000000E+00 0. -1.
         11    1    1    2    0    0  0.36407203873E+02 -0.71789572952E+02  0.35338466913E+02  0.87909240255E+02  0.00000000000E+00 0.  1.
<mgrwt>
<rscale>  0 0.23658003E+03</rscale>
<asrwt>0</asrwt>
<pdfrwt beam="1">  1        1 0.69196193E-01 0.24038125E+03</pdfrwt>
<pdfrwt beam="2">  1       -1 0.18663334E-01 0.24038125E+03</pdfrwt>
<totfact> 0.11735846E+03</totfact>
</mgrwt>
</event>
<event>
 7    1  0.5206756E-006  0.2135389E+03  0.7546771E-02  0.1142551E+00
          1   -1    0    0  501    0  0.00000000000E+00  0.00000000000E+00  0.43535131604E+03  0.43535131604E+03  0.00000000000E+00 0. -1.
         -1   -1    0    0    0  501 -0.00000000000E+00 -0.00000000000E+00 -0.14238806680E+03  0.14238806680E+03  0.00000000000E+00 0.  1.
         23    2    1    2    0    0 -0.17301899193E+03  0.61365896018E+01  0.31593411104E+03  0.38133084113E+03  0.12500247427E+03 0.  0.
          5    1    3    3  502    0 -0.12136768658E+03  0.14454118367E+02  0.96788691864E+02  0.15597813230E+03  0.47000000000E+01 0. -1.
         -5    1    3    3    0  502 -0.51651305352E+02 -0.83175287651E+01  0.21914541918E+03  0.22535270883E+03  0.47000000000E+01 0. -1.
        -11    1    1    2    0    0  0.25925252045E+02  0.33376946400E+02 -0.10762048482E+02  0.43611477069E+02  0.00000000000E+00 0.  1.
         11    1    1    2    0    0  0.14709373988E+03 -0.39513536002E+02 -0.12208813323E+02  0.15279706464E+03  0.00000000000E+00 0. -1.
<mgrwt>
<rscale>  0 0.20876136E+03</rscale>
<asrwt>0</asrwt>
<pdfrwt beam="1">  1        1 0.66977125E-01 0.21353887E+03</pdfrwt>
<pdfrwt beam="2">  1       -1 0.21905857E-01 0.21353887E+03</pdfrwt>
<totfact> 0.94256948E+02</totfact>
</mgrwt>
</event>
<event>
 7    1  0.5206756E-006  0.1282110E+03  0.7546771E-02  0.1243484E+00
         -1   -1    0    0    0  501 -0.00000000000E+00  0.00000000000E+00  0.88411627956E+02  0.88411627956E+02  0.00000000000E+00 0.  1.
          1   -1    0    0  501    0  0.00000000000E+00 -0.00000000000E+00 -0.21425007947E+03  0.21425007947E+03  0.00000000000E+00 0. -1.
         23    2    1    2    0    0  0.27830316577E+02  0.97912654221E+01 -0.15464093595E+03  0.20087777307E+03  0.12477045020E+03 0.  0.
          5    1    3    3  502    0  0.77058695245E+02  0.14424838896E+02 -0.93935928609E+02  0.12244250558E+03  0.47000000000E+01 0.  1.
         -5    1    3    3    0  502 -0.49228378669E+02 -0.46335734737E+01 -0.60705007340E+02  0.78435267486E+02  0.47000000000E+01 0.  1.
        -11    1    1    2    0    0 -0.34592142333E+02  0.28081056219E+02  0.41882571537E+02  0.61149912740E+02  0.00000000000E+00 0.  1.
         11    1    1    2    0    0  0.67618257567E+01 -0.37872321641E+02 -0.13080087102E+02  0.40634021615E+02  0.00000000000E+00 0. -1.
<mgrwt>
<rscale>  0 0.11976579E+03</rscale>
<asrwt>0</asrwt>
<pdfrwt beam="2">  1        1 0.32961550E-01 0.12821100E+03</pdfrwt>
<pdfrwt beam="1">  1       -1 0.13601789E-01 0.12821100E+03</pdfrwt>
<totfact> 0.48168215E+03</totfact>
</mgrwt>
</event>
<event>
 7    1  0.5206756E-006  0.1440265E+03  0.7546771E-02  0.1217627E+00
         -1   -1    0    0    0  501 -0.00000000000E+00  0.00000000000E+00  0.14221871680E+03  0.14221871680E+03  0.00000000000E+00 0.  1.
          1   -1    0    0  501    0  0.00000000000E+00 -0.00000000000E+00 -0.24095161396E+03  0.24095161396E+03  0.00000000000E+00 0. -1.
         23    2    1    2    0    0  0.65887608133E+02  0.27839733056E+02 -0.18717855655E+03  0.23617674227E+03  0.12500965529E+03 0.  0.
          5    1    3    3  502    0 -0.69444763862E+01 -0.10128058316E+02 -0.14143683141E+03  0.14204671977E+03  0.47000000000E+01 0.  1.
         -5    1    3    3    0  502  0.72832084519E+02  0.37967791372E+02 -0.45741725135E+02  0.94130022498E+02  0.47000000000E+01 0.  1.
        -11    1    1    2    0    0  0.37589824899E+01  0.25009716544E+02  0.39198818042E+02  0.46649364485E+02  0.00000000000E+00 0.  1.
         11    1    1    2    0    0 -0.69646590623E+02 -0.52849449600E+02  0.49246841350E+02  0.10034422401E+03  0.00000000000E+00 0. -1.
<mgrwt>
<rscale>  0 0.13685343E+03</rscale>
<asrwt>0</asrwt>
<pdfrwt beam="2">  1        1 0.37069479E-01 0.14402653E+03</pdfrwt>
<pdfrwt beam="1">  1       -1 0.21879803E-01 0.14402653E+03</pdfrwt>
<totfact> 0.19705921E+03</totfact>
</mgrwt>
</event>
<event>
 7    1  0.5206756E-006  0.1406687E+03  0.7546771E-02  0.1221861E+00
          2   -1    0    0  501    0  0.00000000000E+00  0.00000000000E+00  0.67143065366E+03  0.67143065366E+03  0.00000000000E+00 0. -1.
         -2   -1    0    0    0  501 -0.00000000000E+00 -0.00000000000E+00 -0.24488969420E+02  0.24488969420E+02  0.00000000000E+00 0.  1.
         23    2    1    2    0    0 -0.29394782000E+02  0.57465525518E+02  0.37694127177E+03  0.40233368705E+03  0.12498533329E+03 0.  0.
          5    1    3    3  502    0 -0.47064206090E+02 -0.25841413504E+02  0.11846674852E+03  0.13015098406E+03  0.47000000000E+01 0.  1.
         -5    1    3    3    0  502  0.17669424089E+02  0.83306939022E+02  0.25847452325E+03  0.27218270299E+03  0.47000000000E+01 0.  1.
        -11    1    1    2    0    0  0.52899262495E+02 -0.33330763157E+00  0.13975037741E+03  0.14942761142E+03  0.00000000000E+00 0.  1.
         11    1    1    2    0    0 -0.23504480494E+02 -0.57132217886E+02  0.13025003505E+03  0.14415832461E+03  0.00000000000E+00 0. -1.
<mgrwt>
<rscale>  0 0.13384396E+03</rscale>
<asrwt>0</asrwt>
<pdfrwt beam="1">  1        2 0.10329701E+00 0.14066867E+03</pdfrwt>
<pdfrwt beam="2">  1       -2 0.37675343E-02 0.14066867E+03</pdfrwt>
<totfact> 0.12682458E+04</totfact>
</mgrwt>
</event>
<event>
 7    1  0.5206756E-006  0.1321939E+03  0.7546771E-02  0.1235068E+00
         -2   -1    0    0    0  501 -0.00000000000E+00  0.00000000000E+00  0.54301996418E+02  0.54301996418E+02  0.00000000000E+00 0.  1.
          2   -1    0    0  501    0  0.00000000000E+00 -0.00000000000E+00 -0.26052022447E+03  0.26052022447E+03  0.00000000000E+00 0. -1.
         23    2    1    2    0    0 -0.42660807256E+02 -0.55090529677E+01 -0.11409122852E+03  0.17461967805E+03  0.12499971759E+03 0.  0.
          5    1    3    3  502    0 -0.36099031855E+02 -0.27342608644E+02  0.11443782684E+02  0.46944738901E+02  0.47000000000E+01 0. -1.
         -5    1    3    3    0  502 -0.65617754011E+01  0.21833555676E+02 -0.12553501120E+03  0.12767493915E+03  0.47000000000E+01 0. -1.
        -11    1    1    2    0    0 -0.14245017830E+02 -0.28694652614E+02 -0.56255399323E+02  0.64737729143E+02  0.00000000000E+00 0.  1.
         11    1    1    2    0    0  0.56905825086E+02  0.34203705582E+02 -0.35871600215E+02  0.75464813697E+02  0.00000000000E+00 0. -1.
<mgrwt>
<rscale>  0 0.12500060E+03</rscale>
<asrwt>0</asrwt>
<pdfrwt beam="2">  1        2 0.40080035E-01 0.13219389E+03</pdfrwt>
<pdfrwt beam="1">  1       -2 0.83541532E-02 0.13219389E+03</pdfrwt>
<totfact> 0.10607320E+04</totfact>
</mgrwt>
</event>
<event>
 7    1  0.5206756E-006  0.2539976E+03  0.7546771E-02  0.1113179E+00
         -2   -1    0    0    0  501 -0.00000000000E+00  0.00000000000E+00  0.28954393089E+02  0.28954393089E+02  0.00000000000E+00 0.  1.
          2   -1    0    0  501    0  0.00000000000E+00 -0.00000000000E+00 -0.38890624753E+04  0.38890624753E+04  0.00000000000E+00 0. -1.
         23    2    1    2    0    0  0.21981501534E+03  0.23903279591E+02 -0.32899299533E+04  0.32997202742E+04  0.12499913163E+03 0.  0.
          5    1    3    3  502    0  0.15271777863E+03 -0.14994901329E+02 -0.27436856165E+04  0.27479775144E+04  0.47000000000E+01 0. -1.
         -5    1    3    3    0  502  0.67097236712E+02  0.38898180920E+02 -0.54624433672E+03  0.55174275986E+03  0.47000000000E+01 0. -1.
        -11    1    1    2    0    0 -0.12707775090E+03  0.23183811025E+02 -0.24615305720E+03  0.27798843760E+03  0.00000000000E+00 0.  1.
         11    1    1    2    0    0 -0.92737264439E+02 -0.47087090616E+02 -0.32402507178E+03  0.34030815661E+03  0.00000000000E+00 0. -1.
<mgrwt>
<rscale>  0 0.25019864E+03</rscale>
<asrwt>0</asrwt>
<pdfrwt beam="2">  1        2 0.59831728E+00 0.25399762E+03</pdfrwt>
<pdfrwt beam="1">  1       -2 0.44545222E-02 0.25399762E+03</pdfrwt>
<totfact> 0.12755515E+02</totfact>
</mgrwt>
</event>
<event>
 7    1  0.5206756E-006  0.1943673E+03  0.7546771E-02  0.1159187E+00
          2   -1    0    0  501    0  0.00000000000E+00  0.00000000000E+00  0.16004977767E+04  0.16004977767E+04  0.00000000000E+00 0.  1.
         -2   -1    0    0    0  501 -0.00000000000E+00 -0.00000000000E+00 -0.25454012199E+02  0.25454012199E+02  0.00000000000E+00 0. -1.
         23    2    1    2    0    0 -0.14816377121E+03  0.14203405818E+02  0.11528007298E+04  0.11690715058E+04  0.12499769336E+03 0.  0.
          5    1    3    3  502    0 -0.11401823317E+03  0.64866238788E+02  0.70736238793E+03  0.71943826997E+03  0.47000000000E+01 0. -1.
         -5    1    3    3    0  502 -0.34145538038E+02 -0.50662832970E+02  0.44543834185E+03  0.44963323587E+03  0.47000000000E+01 0. -1.
        -11    1    1    2    0    0  0.30795937642E+02  0.29334803744E+02  0.59452294974E+02  0.73099219309E+02  0.00000000000E+00 0.  1.
         11    1    1    2    0    0  0.11736783357E+03 -0.43538209562E+02  0.36279073974E+03  0.38378106374E+03  0.00000000000E+00 0. -1.
<mgrwt>
<rscale>  0 0.18919803E+03</rscale>
<asrwt>0</asrwt>
<pdfrwt beam="1">  1        2 0.24623035E+00 0.19436734E+03</pdfrwt>
<pdfrwt beam="2">  1       -2 0.39160031E-02 0.19436734E+03</pdfrwt>
<totfact> 0.34152849E+03</totfact>
</mgrwt>
</event>
<event>
 7    1  0.5206756E-006  0.1536315E+03  0.7546771E-02  0.1204918E+00
          2   -1    0    0  501    0  0.00000000000E+00  0.00000000000E+00  0.17779347167E+03  0.17779347167E+03  0.00000000000E+00 0.  1.
         -2   -1    0    0    0  501 -0.00000000000E+00 -0.00000000000E+00 -0.11093473445E+03  0.11093473445E+03  0.00000000000E+00 0. -1.
         23    2    1    2    0    0  0.89123788936E+02  0.38247489760E+01  0.44560121860E+02  0.15996329155E+03  0.12507986138E+03 0.  0.
          5    1    3    3  502    0  0.17842506208E+02  0.52847948297E+02  0.47293982305E+02  0.73280771211E+02  0.47000000000E+01 0.  1.
         -5    1    3    3    0  502  0.71281282729E+02 -0.49023199321E+02 -0.27338604455E+01  0.86682520338E+02  0.47000000000E+01 0.  1.
        -11    1    1    2    0    0 -0.10780206877E+03 -0.95195917631E+00  0.17001484358E+02  0.10913863994E+03  0.00000000000E+00 0. -1.
         11    1    1    2    0    0  0.18678279836E+02 -0.28727897997E+01  0.52971309999E+01  0.19626274626E+02  0.00000000000E+00 0.  1.
<mgrwt>
<rscale>  0 0.14643900E+03</rscale>
<asrwt>0</asrwt>
<pdfrwt beam="1">  1        2 0.27352842E-01 0.15363154E+03</pdfrwt>
<pdfrwt beam="2">  1       -2 0.17066882E-01 0.15363154E+03</pdfrwt>
<totfact> 0.51557838E+03</totfact>
</mgrwt>
</event>
<event>
 7    1  0.5206756E-006  0.2073512E+03  0.7546771E-02  0.1147454E+00
         -1   -1    0    0    0  501 -0.00000000000E+00  0.00000000000E+00  0.37679240676E+02  0.37679240676E+02  0.00000000000E+00 0.  1.
          1   -1    0    0  501    0  0.00000000000E+00 -0.00000000000E+00 -0.11061948010E+04  0.11061948010E+04  0.00000000000E+00 0. -1.
         23    2    1    2    0    0  0.16548046262E+03 -0.16527099821E+01 -0.42242550888E+03  0.47057181428E+03  0.12493200903E+03 0.  0.
          5    1    3    3  502    0  0.13043110411E+03  0.54059947029E+02 -0.28124986011E+03  0.31473532468E+03  0.47000000000E+01 0. -1.
         -5    1    3    3    0  502  0.35049358506E+02 -0.55712657011E+02 -0.14117564877E+03  0.15583648960E+03  0.47000000000E+01 0. -1.
        -11    1    1    2    0    0 -0.15248237397E+03  0.75194998045E+01 -0.63971782973E+03  0.65768253658E+03  0.00000000000E+00 0. -1.
         11    1    1    2    0    0 -0.12998088648E+02 -0.58667898224E+01 -0.63722216930E+01  0.15619690798E+02  0.00000000000E+00 0.  1.
<mgrwt>
<rscale>  0 0.20273189E+03</rscale>
<asrwt>0</asrwt>
<pdfrwt beam="2">  1        1 0.17018381E+00 0.20735120E+03</pdfrwt>
<pdfrwt beam="1">  1       -1 0.57968064E-02 0.20735120E+03</pdfrwt>
<totfact> 0.18773182E+03</totfact>
</mgrwt>
</event>
<event>
 7    1  0.5206756E-006  0.1285177E+03  0.7546771E-02  0.1244445E+00
         -1   -1    0    0    0  501 -0.00000000000E+00  0.00000000000E+00  0.11434872910E+03  0.11434872910E+03  0.00000000000E+00 0.  1.
          1   -1    0    0  501    0  0.00000000000E+00 -0.00000000000E+00 -0.12529553036E+03  0.12529553036E+03  0.00000000000E+00 0. -1.
         23    2    1    2    0    0  0.39821735206E+02  0.25467985210E+02 -0.48591085912E+02  0.13739687273E+03  0.11950907137E+03 0.  0.
          5    1    3    3  502    0  0.21648560941E+02  0.42194419404E+01 -0.86876834711E+02  0.89755993062E+02  0.47000000000E+01 0. -1.
         -5    1    3    3    0  502  0.18173174265E+02  0.21248543270E+02  0.38285748799E+02  0.47640879663E+02  0.47000000000E+01 0.  1.
        -11    1    1    2    0    0 -0.17572949417E+02 -0.21417757509E+02  0.62668247835E+02  0.68518889182E+02  0.00000000000E+00 0.  1.
         11    1    1    2    0    0 -0.22248785788E+02 -0.40502277014E+01 -0.25023963180E+02  0.33728497546E+02  0.00000000000E+00 0. -1.
<mgrwt>
<rscale>  0 0.11918674E+03</rscale>
<asrwt>0</asrwt>
<pdfrwt beam="2">  1        1 0.19276236E-01 0.12851773E+03</pdfrwt>
<pdfrwt beam="1">  1       -1 0.17592112E-01 0.12851773E+03</pdfrwt>
<totfact> 0.63025120E+03</totfact>
</mgrwt>
</event>
<event>
 7    1  0.5206756E-006  0.1318673E+03  0.7546771E-02  0.1246346E+00
          2   -1    0    0  501    0  0.00000000000E+00  0.00000000000E+00  0.17302194870E+03  0.17302194870E+03  0.00000000000E+00 0.  1.
         -2   -1    0    0    0  501 -0.00000000000E+00 -0.00000000000E+00 -0.93458175275E+02  0.93458175275E+02  0.00000000000E+00 0. -1.
         23    2    1    2    0    0  0.31777485685E+02 -0.27479259361E+02  0.11471058956E+03  0.17477846420E+03  0.12499629555E+03 0.  0.
          5    1    3    3  502    0  0.46025883515E+02 -0.29999011359E+02 -0.38232116337E+01  0.55272322034E+02  0.47000000000E+01 0.  1.
         -5    1    3    3    0  502 -0.14248397830E+02  0.25197519987E+01  0.11853380119E+03  0.11950614217E+03  0.47000000000E+01 0.  1.
        -11    1    1    2    0    0  0.20566527074E+02  0.18195395067E+02 -0.25890551131E+02  0.37740893940E+02  0.00000000000E+00 0. -1.
         11    1    1    2    0    0 -0.52344012758E+02  0.92838642938E+01 -0.92562649990E+01  0.53960765836E+02  0.00000000000E+00 0.  1.
<mgrwt>
<rscale>  0 0.11805171E+03</rscale>
<asrwt>0</asrwt>
<pdfrwt beam="1">  1        2 0.26618761E-01 0.13186733E+03</pdfrwt>
<pdfrwt beam="2">  1       -2 0.14378181E-01 0.13186733E+03</pdfrwt>
<totfact> 0.69714042E+03</totfact>
</mgrwt>
</event>
<event>
 6    1  0.5206756E-006  0.2493674E+03  0.7546771E-02  0.1150943E+00
         -2   -1    0    0    0  501 -0.00000000000E+00  0.00000000000E+00  0.12274826102E+03  0.12274826102E+03  0.00000000000E+00 0.  1.
          2   -1    0    0  501    0  0.00000000000E+00 -0.00000000000E+00 -0.45626244562E+03  0.45626244562E+03  0.00000000000E+00 0. -1.
          5    1    1    2  502    0 -0.10880708704E+02  0.52308879026E+02 -0.36535540143E+03  0.36927126615E+03  0.47000000000E+01 0. -1.
         -5    1    1    2    0  502  0.52043907868E+02 -0.74239482372E+02 -0.25398127640E+02  0.94272074214E+02  0.47000000000E+01 0.  1.
        -11    1    1    2    0    0  0.23909049824E+02  0.56117991171E+01  0.38753286108E+02  0.45879757378E+02  0.00000000000E+00 0. -1.
         11    1    1    2    0    0 -0.65072248989E+02  0.16318804228E+02  0.18486058362E+02  0.69587608909E+02  0.00000000000E+00 0.  1.
<mgrwt>
<rscale>  0 0.19857974E+03</rscale>
<asrwt>0</asrwt>
<pdfrwt beam="2">  1        2 0.70194223E-01 0.24936742E+03</pdfrwt>
<pdfrwt beam="1">  1       -2 0.18884348E-01 0.24936742E+03</pdfrwt>
<totfact> 0.15974080E+03</totfact>
</mgrwt>
</event>
<event>
 7    1  0.5206756E-006  0.1774324E+03  0.7546771E-02  0.1176188E+00
          1   -1    0    0  501    0  0.00000000000E+00  0.00000000000E+00  0.87292817286E+02  0.87292817286E+02  0.00000000000E+00 0. -1.
         -1   -1    0    0    0  501 -0.00000000000E+00 -0.00000000000E+00 -0.31714641253E+03  0.31714641253E+03  0.00000000000E+00 0.  1.
         23    2    1    2    0    0 -0.12162872151E+03 -0.32666915742E+02 -0.12769013331E+03  0.21860243561E+03  0.12498632497E+03 0.  0.
          5    1    3    3  502    0 -0.14039895346E+03 -0.34261708520E+02 -0.13503518884E+03  0.19784418876E+03  0.47000000000E+01 0.  1.
         -5    1    3    3    0  502  0.18770231948E+02  0.15947927776E+01  0.73450555314E+01  0.20758246847E+02  0.47000000000E+01 0.  1.
        -11    1    1    2    0    0  0.27534643779E+02 -0.71103745108E+01 -0.74882275928E+02  0.80100370048E+02  0.00000000000E+00 0.  1.
         11    1    1    2    0    0  0.94094077729E+02  0.39777290253E+02 -0.27281186007E+02  0.10573642416E+03  0.00000000000E+00 0. -1.
<mgrwt>
<rscale>  0 0.17160193E+03</rscale>
<asrwt>0</asrwt>
<pdfrwt beam="1">  1        1 0.13429664E-01 0.17743239E+03</pdfrwt>
<pdfrwt beam="2">  1       -1 0.48791757E-01 0.17743239E+03</pdfrwt>
<totfact> 0.18271202E+03</totfact>
</mgrwt>
</event>
<event>
 7    1  0.5206756E-006  0.1426423E+03  0.7546771E-02  0.1221302E+00
          1   -1    0    0  501    0  0.00000000000E+00  0.00000000000E+00  0.24212644940E+03  0.24212644940E+03  0.00000000000E+00 0. -1.
         -1   -1    0    0    0  501 -0.00000000000E+00 -0.00000000000E+00 -0.73332162149E+02  0.73332162149E+02  0.00000000000E+00 0.  1.
         23    2    1    2    0    0 -0.68358655194E+02 -0.69242602887E+01  0.14015542495E+03  0.19997592473E+03  0.12500390478E+03 0.  0.
          5    1    3    3  502    0  0.77598158918E+01  0.19538970566E+02 -0.14189462780E+02  0.25795677302E+02  0.47000000000E+01 0. -1.
         -5    1    3    3    0  502 -0.76118471085E+02 -0.26463230855E+02  0.15434488773E+03  0.17418024743E+03  0.47000000000E+01 0. -1.
        -11    1    1    2    0    0  0.18622343247E+02  0.42675193722E+02  0.27791140502E+02  0.54224637551E+02  0.00000000000E+00 0. -1.
         11    1    1    2    0    0  0.49736311947E+02 -0.35750933433E+02  0.84772180173E+00  0.61258049264E+02  0.00000000000E+00 0.  1.
<mgrwt>
<rscale>  0 0.13423623E+03</rscale>
<asrwt>0</asrwt>
<pdfrwt beam="1">  1        1 0.37250223E-01 0.14264231E+03</pdfrwt>
<pdfrwt beam="2">  1       -1 0.11281871E-01 0.14264231E+03</pdfrwt>
<totfact> 0.55632224E+03</totfact>
</mgrwt>
</event>
<event>
 7    1  0.5206756E-006  0.1276212E+03  0.7546771E-02  0.1245834E+00
         -1   -1    0    0    0  501 -0.00000000000E+00  0.00000000000E+00  0.43009677546E+02  0.43009677546E+02  0.00000000000E+00 0.  1.
          1   -1    0    0  501    0  0.00000000000E+00 -0.00000000000E+00 -0.34861808060E+03  0.34861808060E+03  0.00000000000E+00 0. -1.
         23    2    1    2    0    0  0.44679111184E+00  0.25752472416E+02 -0.25346098978E+03  0.28377744285E+03  0.12499509699E+03 0.  0.
          5    1    3    3  502    0 -0.48129332925E+02  0.51785880033E+02 -0.16319054640E+03  0.17790855655E+03  0.47000000000E+01 0. -1.
         -5    1    3    3    0  502  0.48576124037E+02 -0.26033407617E+02 -0.90270443376E+02  0.10586888630E+03  0.47000000000E+01 0. -1.
        -11    1    1    2    0    0  0.41107835143E+02 -0.27461654458E+02 -0.42411349181E+02  0.65136158277E+02  0.00000000000E+00 0. -1.
         11    1    1    2    0    0 -0.41554626254E+02  0.17091820415E+01 -0.97360640998E+01  0.42714157027E+02  0.00000000000E+00 0.  1.
<mgrwt>
<rscale>  0 0.11835620E+03</rscale>
<asrwt>0</asrwt>
<pdfrwt beam="2">  1        1 0.53633552E-01 0.12762117E+03</pdfrwt>
<pdfrwt beam="1">  1       -1 0.66168733E-02 0.12762117E+03</pdfrwt>
<totfact> 0.78917212E+03</totfact>
</mgrwt>
</event>
<event>
 7    1  0.5206756E-006  0.1396454E+03  0.7546771E-02  0.1224733E+00
         -2   -1    0    0    0  501 -0.00000000000E+00  0.00000000000E+00  0.10748177065E+02  0.10748177065E+02  0.00000000000E+00 0. -1.
          2   -1    0    0  501    0  0.00000000000E+00 -0.00000000000E+00 -0.16864848449E+04  0.16864848449E+04  0.00000000000E+00 0.  1.
         23    2    1    2    0    0  0.22482651235E+01  0.62109729972E+02 -0.12293369789E+04  0.12372430032E+04  0.12505266106E+03 0.  0.
          5    1    3    3  502    0 -0.19420779572E+02  0.57405341297E+02 -0.11921086056E+04  0.11936572194E+04  0.47000000000E+01 0. -1.
         -5    1    3    3    0  502  0.21669044695E+02  0.47043886751E+01 -0.37228373277E+02  0.43585783779E+02  0.47000000000E+01 0. -1.
        -11    1    1    2    0    0  0.42718424623E+02 -0.46344143295E+02 -0.23708835726E+03  0.24532332251E+03  0.00000000000E+00 0.  1.
         11    1    1    2    0    0 -0.44966689747E+02 -0.15765586678E+02 -0.20931133166E+03  0.21466669623E+03  0.00000000000E+00 0. -1.
<mgrwt>
<rscale>  0 0.13185243E+03</rscale>
<asrwt>0</asrwt>
<pdfrwt beam="2">  1        2 0.25945910E+00 0.13964541E+03</pdfrwt>
<pdfrwt beam="1">  1       -2 0.16535664E-02 0.13964541E+03</pdfrwt>
<totfact> 0.10861368E+04</totfact>
</mgrwt>
</event>
<event>
 7    1  0.5206756E-006  0.1517948E+03  0.7546771E-02  0.1206758E+00
         -1   -1    0    0    0  501 -0.00000000000E+00  0.00000000000E+00  0.60946874887E+02  0.60946874887E+02  0.00000000000E+00 0.  1.
          1   -1    0    0  501    0  0.00000000000E+00 -0.00000000000E+00 -0.50075545810E+03  0.50075545810E+03  0.00000000000E+00 0. -1.
         23    2    1    2    0    0  0.30720113391E+02 -0.80437494644E+02 -0.40213231239E+03  0.42982794941E+03  0.12501101357E+03 0.  0.
          5    1    3    3  502    0  0.70826909039E+02 -0.13966688021E+02 -0.16212539467E+03  0.17753380809E+03  0.47000000000E+01 0. -1.
         -5    1    3    3    0  502 -0.40106795648E+02 -0.66470806623E+02 -0.24000691772E+03  0.25229414132E+03  0.47000000000E+01 0. -1.
        -11    1    1    2    0    0 -0.58717531525E+02  0.39820331661E+02 -0.19651919381E+01  0.70973722611E+02  0.00000000000E+00 0.  1.
         11    1    1    2    0    0  0.27997418134E+02  0.40617162983E+02 -0.35711078882E+02  0.60900660964E+02  0.00000000000E+00 0. -1.
<mgrwt>
<rscale>  0 0.14499747E+03</rscale>
<asrwt>0</asrwt>
<pdfrwt beam="2">  1        1 0.77039300E-01 0.15179483E+03</pdfrwt>
<pdfrwt beam="1">  1       -1 0.93764425E-02 0.15179483E+03</pdfrwt>
<totfact> 0.29705295E+03</totfact>
</mgrwt>
</event>
<event>
 7    1  0.5206756E-006  0.1399561E+03  0.7546771E-02  0.1224386E+00
          3   -1    0    0  501    0  0.00000000000E+00  0.00000000000E+00  0.12220248380E+03  0.12220248380E+03  0.00000000000E+00 0.  1.
         -3   -1    0    0    0  501 -0.00000000000E+00 -0.00000000000E+00 -0.12913591500E+03  0.12913591500E+03  0.00000000000E+00 0. -1.
         23    2    1    2    0    0 -0.59340787147E+02  0.20995943475E+02  0.15744957835E+01  0.13996499509E+03  0.12500224859E+03 0.  0.
          5    1    3    3  502    0 -0.97101007268E+02  0.25198805200E+02  0.94811932880E+01  0.10087402253E+03  0.47000000000E+01 0.  1.
         -5    1    3    3    0  502  0.37760220121E+02 -0.42028617255E+01 -0.79066975044E+01  0.39090972560E+02  0.47000000000E+01 0.  1.
        -11    1    1    2    0    0  0.68803261030E+02  0.54240249359E-01  0.22796064770E+02  0.72481392366E+02  0.00000000000E+00 0.  1.
         11    1    1    2    0    0 -0.94624738826E+01 -0.21050183724E+02 -0.31303991748E+02  0.38892011341E+02  0.00000000000E+00 0. -1.
<mgrwt>
<rscale>  0 0.13209051E+03</rscale>
<asrwt>0</asrwt>
<pdfrwt beam="1">  1        3 0.18800382E-01 0.13995614E+03</pdfrwt>
<pdfrwt beam="2">  1       -3 0.19867064E-01 0.13995614E+03</pdfrwt>
<totfact> 0.13145509E+03</totfact>
</mgrwt>
</event>
<event>
 7    1  0.5206756E-006  0.1528799E+03  0.7546771E-02  0.1206264E+00
          2   -1    0    0  501    0  0.00000000000E+00  0.00000000000E+00  0.50155101201E+03  0.50155101201E+03  0.00000000000E+00 0.  1.
         -2   -1    0    0    0  501 -0.00000000000E+00 -0.00000000000E+00 -0.39105030016E+02  0.39105030016E+02  0.00000000000E+00 0. -1.
         23    2    1    2    0    0 -0.11523822206E+02 -0.87263264586E+02  0.22049018040E+03  0.26830611243E+03  0.12499829794E+03 0.  0.
          5    1    3    3  502    0 -0.68315629577E+02 -0.45179225993E+02  0.11799275127E+03  0.14371001029E+03  0.47000000000E+01 0. -1.
         -5    1    3    3    0  502  0.56791807371E+02 -0.42084038593E+02  0.10249742913E+03  0.12459610213E+03  0.47000000000E+01 0. -1.
        -11    1    1    2    0    0 -0.23758747199E+02  0.70177234127E+02  0.96255007117E+02  0.12146747982E+03  0.00000000000E+00 0. -1.
         11    1    1    2    0    0  0.35282569405E+02  0.17086030458E+02  0.14570079447E+03  0.15088244978E+03  0.00000000000E+00 0.  1.
<mgrwt>
<rscale>  0 0.14538315E+03</rscale>
<asrwt>0</asrwt>
<pdfrwt beam="1">  1        2 0.77161690E-01 0.15287986E+03</pdfrwt>
<pdfrwt beam="2">  1       -2 0.60161588E-02 0.15287986E+03</pdfrwt>
<totfact> 0.87942187E+03</totfact>
</mgrwt>
</event>
<event>
 7    1  0.5206756E-006  0.1163681E+03  0.7546771E-02  0.1264034E+00
         -1   -1    0    0    0  501 -0.00000000000E+00  0.00000000000E+00  0.32794845487E+02  0.32794845487E+02  0.00000000000E+00 0.  1.
          1   -1    0    0  501    0  0.00000000000E+00 -0.00000000000E+00 -0.36725895936E+03  0.36725895936E+03  0.00000000000E+00 0. -1.
         23    2    1    2    0    0 -0.13839136436E+01 -0.11702030832E+02 -0.26304137103E+03  0.28763223697E+03  0.11576997938E+03 0.  0.
          5    1    3    3  502    0  0.28019366782E+02 -0.47160095107E+02 -0.69690281977E+02  0.88814328165E+02  0.47000000000E+01 0. -1.
         -5    1    3    3    0  502 -0.29403280426E+02  0.35458064275E+02 -0.19335108905E+03  0.19881790880E+03  0.47000000000E+01 0.  1.
        -11    1    1    2    0    0  0.16771984481E+02 -0.32339973603E+02 -0.15491035962E+02  0.39587189232E+02  0.00000000000E+00 0.  1.
         11    1    1    2    0    0 -0.15388070837E+02  0.44042004435E+02 -0.55931706882E+02  0.72834378651E+02  0.00000000000E+00 0. -1.
<mgrwt>
<rscale>  0 0.10815043E+03</rscale>
<asrwt>0</asrwt>
<pdfrwt beam="2">  1        1 0.56501379E-01 0.11636813E+03</pdfrwt>
<pdfrwt beam="1">  1       -1 0.50453608E-02 0.11636813E+03</pdfrwt>
<totfact> 0.10981703E+04</totfact>
</mgrwt>
</event>
<event>
 7    1  0.5206756E-006  0.1257261E+03  0.7546771E-02  0.1249485E+00
          3   -1    0    0  501    0  0.00000000000E+00  0.00000000000E+00  0.10307023273E+03  0.10307023273E+03  0.00000000000E+00 0. -1.
         -3   -1    0    0    0  501 -0.00000000000E+00 -0.00000000000E+00 -0.11484840015E+03  0.11484840015E+03  0.00000000000E+00 0.  1.
         23    2    1    2    0    0  0.10805401714E+02  0.81114657071E+01 -0.34401329335E+01  0.12577312675E+03  0.12499796925E+03 0.  0.
          5    1    3    3  502    0  0.54439958360E+02  0.43078207325E+02 -0.50814392181E+00  0.69582966470E+02  0.47000000000E+01 0.  1.
         -5    1    3    3    0  502 -0.43634556646E+02 -0.34966741617E+02 -0.29319890117E+01  0.56190160282E+02  0.47000000000E+01 0.  1.
        -11    1    1    2    0    0 -0.40368991954E+01 -0.33144506863E+02  0.30647933471E+02  0.45322739507E+02  0.00000000000E+00 0. -1.
         11    1    1    2    0    0 -0.67685025190E+01  0.25033041156E+02 -0.38985967956E+02  0.46822766613E+02  0.00000000000E+00 0.  1.
<mgrwt>
<rscale>  0 0.11620939E+03</rscale>
<asrwt>0</asrwt>
<pdfrwt beam="1">  1        3 0.15856959E-01 0.12572607E+03</pdfrwt>
<pdfrwt beam="2">  1       -3 0.17668984E-01 0.12572607E+03</pdfrwt>
<totfact> 0.21278799E+03</totfact>
</mgrwt>
</event>
<event>
 7    1  0.5206756E-006  0.1548004E+03  0.7546771E-02  0.1203112E+00
         -2   -1    0    0    0  501 -0.00000000000E+00  0.00000000000E+00  0.15034150306E+03  0.15034150306E+03  0.00000000000E+00 0.  1.
          2   -1    0    0  501    0  0.00000000000E+00 -0.00000000000E+00 -0.19163895605E+03  0.19163895605E+03  0.00000000000E+00 0. -1.
         23    2    1    2    0    0  0.86503575323E+02  0.29246236693E+02 -0.11560320959E+03  0.19320264116E+03  0.12499979032E+03 0.  0.
          5    1    3    3  502    0  0.65360825663E+02 -0.21080766131E+02 -0.40922356138E+01  0.68958484788E+02  0.47000000000E+01 0. -1.
         -5    1    3    3    0  502  0.21142749661E+02  0.50327002825E+02 -0.11151097398E+03  0.12424415638E+03  0.47000000000E+01 0. -1.
        -11    1    1    2    0    0 -0.59758003156E+02 -0.11629606808E+02 -0.71068070144E+01  0.61292523211E+02  0.00000000000E+00 0. -1.
         11    1    1    2    0    0 -0.26745572168E+02 -0.17616629886E+02  0.81412563614E+02  0.87485294726E+02  0.00000000000E+00 0.  1.
<mgrwt>
<rscale>  0 0.14787224E+03</rscale>
<asrwt>0</asrwt>
<pdfrwt beam="2">  1        2 0.29482916E-01 0.15480038E+03</pdfrwt>
<pdfrwt beam="1">  1       -2 0.23129462E-01 0.15480038E+03</pdfrwt>
<totfact> 0.28378895E+03</totfact>
</mgrwt>
</event>
<event>
 7    1  0.5206756E-006  0.1255267E+03  0.7546771E-02  0.1250058E+00
         -2   -1    0    0    0  501 -0.00000000000E+00  0.00000000000E+00  0.10926691699E+02  0.10926691699E+02  0.00000000000E+00 0.  1.
          2   -1    0    0  501    0  0.00000000000E+00 -0.00000000000E+00 -0.16879172248E+04  0.16879172248E+04  0.00000000000E+00 0. -1.
         23    2    1    2    0    0  0.24179459364E+01 -0.11221533997E+02 -0.14312091525E+04  0.14367033784E+04  0.12500076021E+03 0.  0.
          5    1    3    3  502    0  0.81916088739E+01  0.10891999649E+02 -0.13836861422E+04  0.13837612396E+04  0.47000000000E+01 0. -1.
         -5    1    3    3    0  502 -0.57736629375E+01 -0.22113533646E+02 -0.47523010336E+02  0.52942138844E+02  0.47000000000E+01 0. -1.
        -11    1    1    2    0    0  0.32354339086E+02  0.35527567812E+02 -0.11450223733E+03  0.12417638135E+03  0.00000000000E+00 0.  1.
         11    1    1    2    0    0 -0.34772285022E+02 -0.24306033816E+02 -0.13127914328E+03  0.13796415674E+03  0.00000000000E+00 0. -1.
<mgrwt>
<rscale>  0 0.11587691E+03</rscale>
<asrwt>0</asrwt>
<pdfrwt beam="2">  1        2 0.25967934E+00 0.12552673E+03</pdfrwt>
<pdfrwt beam="1">  1       -2 0.16810310E-02 0.12552673E+03</pdfrwt>
<totfact> 0.10542563E+04</totfact>
</mgrwt>
</event>
<event>
 7    1  0.5206756E-006  0.1452851E+03  0.7546771E-02  0.1216349E+00
         -2   -1    0    0    0  501 -0.00000000000E+00  0.00000000000E+00  0.99657676782E+02  0.99657676782E+02  0.00000000000E+00 0.  1.
          2   -1    0    0  501    0  0.00000000000E+00 -0.00000000000E+00 -0.62369413177E+03  0.62369413177E+03  0.00000000000E+00 0. -1.
         23    2    1    2    0    0  0.71754605496E+02  0.18290428413E+02 -0.57660046810E+03  0.59462244522E+03  0.12499795741E+03 0.  0.
          5    1    3    3  502    0  0.91321327058E+02  0.51524558169E+02 -0.38053351398E+03  0.39474322050E+03  0.47000000000E+01 0.  1.
         -5    1    3    3    0  502 -0.19566721562E+02 -0.33234129756E+02 -0.19606695413E+03  0.19987922472E+03  0.47000000000E+01 0.  1.
        -11    1    1    2    0    0 -0.53309288657E+02  0.24034287825E+01 -0.15223690791E+02  0.55492499388E+02  0.00000000000E+00 0. -1.
         11    1    1    2    0    0 -0.18445316839E+02 -0.20693857196E+02  0.67787703910E+02  0.73236863943E+02  0.00000000000E+00 0.  1.
<mgrwt>
<rscale>  0 0.13777905E+03</rscale>
<asrwt>0</asrwt>
<pdfrwt beam="2">  1        2 0.95952943E-01 0.14528507E+03</pdfrwt>
<pdfrwt beam="1">  1       -2 0.15331950E-01 0.14528507E+03</pdfrwt>
<totfact> 0.15760822E+03</totfact>
</mgrwt>
</event>
<event>
 7    1  0.5206756E-006  0.1255315E+03  0.7546771E-02  0.1253947E+00
         -1   -1    0    0    0  501 -0.00000000000E+00  0.00000000000E+00  0.43122253029E+02  0.43122253029E+02  0.00000000000E+00 0.  1.
          1   -1    0    0  501    0  0.00000000000E+00 -0.00000000000E+00 -0.32196165433E+03  0.32196165433E+03  0.00000000000E+00 0. -1.
         23    2    1    2    0    0 -0.50328863284E+01  0.10433980843E+02 -0.24284755405E+03  0.27337355492E+03  0.12499587241E+03 0.  0.
          5    1    3    3  502    0 -0.16328694235E+02  0.65632675118E+02 -0.15096276557E+03  0.16548752486E+03  0.47000000000E+01 0. -1.
         -5    1    3    3    0  502  0.11295807907E+02 -0.55198694275E+02 -0.91884788486E+02  0.10788603006E+03  0.47000000000E+01 0. -1.
        -11    1    1    2    0    0  0.19581945967E+02 -0.35309016099E+02 -0.45998595564E+02  0.61204983617E+02  0.00000000000E+00 0.  1.
         11    1    1    2    0    0 -0.14549059638E+02  0.24875035256E+02  0.10006748313E+02  0.30505368825E+02  0.00000000000E+00 0. -1.
<mgrwt>
<rscale>  0 0.11365521E+03</rscale>
<asrwt>0</asrwt>
<pdfrwt beam="2">  1        1 0.49532561E-01 0.12553153E+03</pdfrwt>
<pdfrwt beam="1">  1       -1 0.66341929E-02 0.12553153E+03</pdfrwt>
<totfact> 0.86663218E+03</totfact>
</mgrwt>
</event>
<event>
 7    1  0.5206756E-006  0.1475894E+03  0.7546771E-02  0.1212989E+00
         -2   -1    0    0    0  501 -0.00000000000E+00  0.00000000000E+00  0.72090025687E+03  0.72090025687E+03  0.00000000000E+00 0.  1.
          2   -1    0    0  501    0  0.00000000000E+00 -0.00000000000E+00 -0.25381394657E+02  0.25381394657E+02  0.00000000000E+00 0. -1.
         23    2    1    2    0    0 -0.78448913783E+02  0.20367463644E+01  0.33121430156E+03  0.36260936329E+03  0.12499702549E+03 0.  0.
          5    1    3    3  502    0 -0.53884786661E+02 -0.54520589388E+02  0.11951998272E+03  0.14206752327E+03  0.47000000000E+01 0.  1.
         -5    1    3    3    0  502 -0.24564127123E+02  0.56557335753E+02  0.21169431884E+03  0.22054184002E+03  0.47000000000E+01 0.  1.
        -11    1    1    2    0    0  0.93470965543E+02 -0.18698496356E+02  0.32165655228E+03  0.33548381897E+03  0.00000000000E+00 0.  1.
         11    1    1    2    0    0 -0.15022051759E+02  0.16661749992E+02  0.42648008373E+02  0.48188469264E+02  0.00000000000E+00 0. -1.
<mgrwt>
<rscale>  0 0.14025304E+03</rscale>
<asrwt>0</asrwt>
<pdfrwt beam="2">  1        2 0.39048305E-02 0.14758942E+03</pdfrwt>
<pdfrwt beam="1">  1       -2 0.11090772E+00 0.14758942E+03</pdfrwt>
<totfact> 0.14246471E+03</totfact>
</mgrwt>
</event>
<event>
 7    1  0.5206756E-006  0.2964588E+03  0.7546771E-02  0.1088809E+00
          1   -1    0    0  501    0  0.00000000000E+00  0.00000000000E+00  0.10227585715E+04  0.10227585715E+04  0.00000000000E+00 0. -1.
         -1   -1    0    0    0  501 -0.00000000000E+00 -0.00000000000E+00 -0.83945143782E+02  0.83945143782E+02  0.00000000000E+00 0.  1.
         23    2    1    2    0    0  0.26855599703E+03  0.11800137069E+02  0.56442145478E+03  0.63754167498E+03  0.12500496771E+03 0.  0.
          5    1    3    3  502    0  0.50243271019E+02 -0.18882535412E+02  0.35574952755E+02  0.64564724810E+02  0.47000000000E+01 0.  1.
         -5    1    3    3    0  502  0.21831272601E+03  0.30682672481E+02  0.52884650202E+03  0.57297695017E+03  0.47000000000E+01 0.  1.
        -11    1    1    2    0    0 -0.13834160086E+03 -0.20747257015E+02  0.12463847190E+03  0.18735953640E+03  0.00000000000E+00 0. -1.
         11    1    1    2    0    0 -0.13021439617E+03  0.89471199457E+01  0.24975350108E+03  0.28180250394E+03  0.00000000000E+00 0.  1.
<mgrwt>
<rscale>  0 0.29296872E+03</rscale>
<asrwt>0</asrwt>
<pdfrwt beam="1">  1        1 0.15734746E+00 0.29645878E+03</pdfrwt>
<pdfrwt beam="2">  1       -1 0.12914638E-01 0.29645878E+03</pdfrwt>
<totfact> 0.62818289E+02</totfact>
</mgrwt>
</event>
<event>
 6    1  0.5206756E-006  0.1771178E+03  0.7546771E-02  0.1184830E+00
          2   -1    0    0  501    0  0.00000000000E+00  0.00000000000E+00  0.16101785311E+03  0.16101785311E+03  0.00000000000E+00 0. -1.
         -2   -1    0    0    0  501 -0.00000000000E+00 -0.00000000000E+00 -0.15485574852E+03  0.15485574852E+03  0.00000000000E+00 0.  1.
          5    1    1    2  502    0 -0.40658180541E+02 -0.55497987233E+02  0.82145028253E+02  0.10725208575E+03  0.47000000000E+01 0. -1.
         -5    1    1    2    0  502  0.53125899117E+02 -0.35057240918E+02 -0.39327930194E+02  0.74967642294E+02  0.47000000000E+01 0.  1.
        -11    1    1    2    0    0  0.13269074854E+02  0.37109852802E+01 -0.40717178113E+02  0.42985210860E+02  0.00000000000E+00 0.  1.
         11    1    1    2    0    0 -0.25736793430E+02  0.86844242871E+02  0.40621846497E+01  0.90668662723E+02  0.00000000000E+00 0. -1.
<mgrwt>
<rscale>  0 0.16347344E+03</rscale>
<asrwt>0</asrwt>
<pdfrwt beam="1">  1        2 0.24771977E-01 0.17711783E+03</pdfrwt>
<pdfrwt beam="2">  1       -2 0.23823961E-01 0.17711783E+03</pdfrwt>
<totfact> 0.32854846E+03</totfact>
</mgrwt>
</event>
<event>
 7    1  0.5206756E-006  0.1434005E+03  0.7546771E-02  0.1218066E+00
         -1   -1    0    0    0  501 -0.00000000000E+00  0.00000000000E+00  0.12712615418E+03  0.12712615418E+03  0.00000000000E+00 0.  1.
          1   -1    0    0  501    0  0.00000000000E+00 -0.00000000000E+00 -0.17282760214E+03  0.17282760214E+03  0.00000000000E+00 0. -1.
         23    2    1    2    0    0  0.29428757139E+01 -0.70164752492E+02 -0.95200366357E+02  0.17212441567E+03  0.12502780373E+03 0.  0.
          5    1    3    3  502    0  0.59211777367E+02 -0.61670553828E+02 -0.65208410135E+02  0.10762675569E+03  0.47000000000E+01 0.  1.
         -5    1    3    3    0  502 -0.56268901653E+02 -0.84941986644E+01 -0.29991956222E+02  0.64497659975E+02  0.47000000000E+01 0.  1.
        -11    1    1    2    0    0  0.16701828496E+02  0.50213942437E+02 -0.17076575613E+02  0.55605759817E+02  0.00000000000E+00 0. -1.
         11    1    1    2    0    0 -0.19644704210E+02  0.19950810055E+02  0.66575494011E+02  0.72223580832E+02  0.00000000000E+00 0.  1.
<mgrwt>
<rscale>  0 0.13653738E+03</rscale>
<asrwt>0</asrwt>
<pdfrwt beam="2">  1        1 0.26588862E-01 0.14340050E+03</pdfrwt>
<pdfrwt beam="1">  1       -1 0.19557870E-01 0.14340050E+03</pdfrwt>
<totfact> 0.35706015E+03</totfact>
</mgrwt>
</event>
<event>
 7    1  0.5206756E-006  0.1960988E+03  0.7546771E-02  0.1157544E+00
         -2   -1    0    0    0  501 -0.00000000000E+00  0.00000000000E+00  0.33084286021E+02  0.33084286021E+02  0.00000000000E+00 0.  1.
          2   -1    0    0  501    0  0.00000000000E+00 -0.00000000000E+00 -0.12510847791E+04  0.12510847791E+04  0.00000000000E+00 0. -1.
         23    2    1    2    0    0  0.22861770486E+02  0.14935590067E+03 -0.89327023809E+03  0.91454166593E+03  0.12499957938E+03 0.  0.
          5    1    3    3  502    0  0.65695948890E+02  0.74986153430E+02 -0.62269647668E+03  0.63064401446E+03  0.47000000000E+01 0. -1.
         -5    1    3    3    0  502 -0.42834178403E+02  0.74369747241E+02 -0.27057376141E+03  0.28389765147E+03  0.47000000000E+01 0. -1.
        -11    1    1    2    0    0 -0.40758864652E+01 -0.93352069073E+01  0.46730056688E+01  0.11206958573E+02  0.00000000000E+00 0.  1.
         11    1    1    2    0    0 -0.18785884021E+02 -0.14002069376E+03 -0.32940326062E+03  0.35842044059E+03  0.00000000000E+00 0. -1.
<mgrwt>
<rscale>  0 0.19102115E+03</rscale>
<asrwt>0</asrwt>
<pdfrwt beam="2">  1        2 0.19247455E+00 0.19609880E+03</pdfrwt>
<pdfrwt beam="1">  1       -2 0.50898910E-02 0.19609880E+03</pdfrwt>
<totfact> 0.35419950E+03</totfact>
</mgrwt>
</event>
<event>
 7    1  0.1259348E-005  0.3198270E+03  0.7546771E-02  0.1077160E+00
          2   -1    0    0  501    0  0.00000000000E+00  0.00000000000E+00  0.53857130183E+03  0.53857130183E+03  0.00000000000E+00 0. -1.
         -2   -1    0    0    0  501 -0.00000000000E+00 -0.00000000000E+00 -0.19683681225E+03  0.19683681225E+03  0.00000000000E+00 0.  1.
         23    2    1    2    0    0  0.59186490750E+02  0.28837608677E+03  0.27223565705E+03  0.42000188457E+03  0.12500208786E+03 0.  0.
          5    1    3    3  502    0  0.36396617266E+02  0.17882206283E+02  0.71589871923E+02  0.82411690990E+02  0.47000000000E+01 0.  1.
         -5    1    3    3    0  502  0.22789873484E+02  0.27049388049E+03  0.20064578513E+03  0.33759019358E+03  0.47000000000E+01 0.  1.
        -11    1    1    2    0    0 -0.78145054920E+02 -0.17598096917E+03  0.56589946894E+02  0.20069472641E+03  0.00000000000E+00 0. -1.
         11    1    1    2    0    0  0.18958564170E+02 -0.11239511760E+03  0.12908885636E+02  0.11471150310E+03  0.00000000000E+00 0.  1.
<mgrwt>
<rscale>  0 0.31673935E+03</rscale>
<asrwt>0</asrwt>
<pdfrwt beam="1">  1        2 0.82857123E-01 0.31982703E+03</pdfrwt>
<pdfrwt beam="2">  1       -2 0.30282587E-01 0.31982703E+03</pdfrwt>
<totfact> 0.57684706E+02</totfact>
</mgrwt>
</event>
<event>
 7    1  0.5206756E-006  0.2753095E+03  0.7546771E-02  0.1100091E+00
         -2   -1    0    0    0  501 -0.00000000000E+00  0.00000000000E+00  0.53700489668E+03  0.53700489668E+03  0.00000000000E+00 0.  1.
          2   -1    0    0  501    0  0.00000000000E+00 -0.00000000000E+00 -0.26096637562E+03  0.26096637562E+03  0.00000000000E+00 0. -1.
         23    2    1    2    0    0  0.13470802638E+03  0.20499593491E+03 -0.13776357085E+03  0.30785401561E+03  0.12500283107E+03 0.  0.
          5    1    3    3  502    0  0.10316086507E+03  0.14768848553E+03 -0.15752731803E+03  0.23935538174E+03  0.47000000000E+01 0.  1.
         -5    1    3    3    0  502  0.31547161303E+02  0.57307449374E+02  0.19763747180E+02  0.68498633874E+02  0.47000000000E+01 0.  1.
        -11    1    1    2    0    0 -0.12157161618E+03 -0.10169252011E+03  0.25221850417E+03  0.29788454198E+03  0.00000000000E+00 0. -1.
         11    1    1    2    0    0 -0.13136410198E+02 -0.10330341480E+03  0.16158358773E+03  0.19223271471E+03  0.00000000000E+00 0.  1.
<mgrwt>
<rscale>  0 0.27208738E+03</rscale>
<asrwt>0</asrwt>
<pdfrwt beam="2">  1        2 0.40148673E-01 0.27530945E+03</pdfrwt>
<pdfrwt beam="1">  1       -2 0.82616138E-01 0.27530945E+03</pdfrwt>
<totfact> 0.16991075E+02</totfact>
</mgrwt>
</event>
<event>
 7    1  0.5206756E-006  0.1452758E+03  0.7546771E-02  0.1217921E+00
          2   -1    0    0  501    0  0.00000000000E+00  0.00000000000E+00  0.10505094606E+04  0.10505094606E+04  0.00000000000E+00 0. -1.
         -2   -1    0    0    0  501 -0.00000000000E+00 -0.00000000000E+00 -0.16029134970E+02  0.16029134970E+02  0.00000000000E+00 0.  1.
         23    2    1    2    0    0  0.68756768589E+02  0.27441766402E+02  0.61463660267E+03  0.63157201885E+03  0.12499807153E+03 0.  0.
          5    1    3    3  502    0 -0.24158064496E+02 -0.16501268179E+02  0.54216735405E+02  0.61785502585E+02  0.47000000000E+01 0. -1.
         -5    1    3    3    0  502  0.92914833086E+02  0.43943034581E+02  0.56041986726E+03  0.56978651626E+03  0.47000000000E+01 0. -1.
        -11    1    1    2    0    0 -0.29406928771E+02  0.31297373697E+02  0.16501588622E+03  0.17051256776E+03  0.00000000000E+00 0.  1.
         11    1    1    2    0    0 -0.39349839818E+02 -0.58739140100E+02  0.25482783673E+03  0.26445400894E+03  0.00000000000E+00 0. -1.
<mgrwt>
<rscale>  0 0.13664159E+03</rscale>
<asrwt>0</asrwt>
<pdfrwt beam="1">  1        2 0.16161679E+00 0.14527581E+03</pdfrwt>
<pdfrwt beam="2">  1       -2 0.24660216E-02 0.14527581E+03</pdfrwt>
<totfact> 0.13383074E+04</totfact>
</mgrwt>
</event>
<event>
 7    1  0.5206756E-006  0.1457709E+03  0.7546771E-02  0.1215315E+00
         -1   -1    0    0    0  501 -0.00000000000E+00  0.00000000000E+00  0.13396852984E+02  0.13396852984E+02  0.00000000000E+00 0.  1.
          1   -1    0    0  501    0  0.00000000000E+00 -0.00000000000E+00 -0.13933937481E+04  0.13933937481E+04  0.00000000000E+00 0. -1.
         23    2    1    2    0    0 -0.74814538280E+02 -0.51689736090E+01 -0.92966688556E+03  0.94102586277E+03  0.12500089150E+03 0.  0.
          5    1    3    3  502    0 -0.83884478183E+02 -0.21918943859E+02 -0.90658067488E+03  0.91072918908E+03  0.47000000000E+01 0.  1.
         -5    1    3    3    0  502  0.90699399023E+01  0.16749970250E+02 -0.23086210679E+02  0.30296673691E+02  0.47000000000E+01 0.  1.
        -11    1    1    2    0    0  0.37748686442E+02 -0.43238845417E+02 -0.19620853450E+03  0.20443177369E+03  0.00000000000E+00 0.  1.
         11    1    1    2    0    0  0.37065851838E+02  0.48407819026E+02 -0.25412147504E+03  0.26133296461E+03  0.00000000000E+00 0. -1.
<mgrwt>
<rscale>  0 0.13853454E+03</rscale>
<asrwt>0</asrwt>
<pdfrwt beam="2">  1        1 0.21436828E+00 0.14577090E+03</pdfrwt>
<pdfrwt beam="1">  1       -1 0.20610542E-02 0.14577090E+03</pdfrwt>
<totfact> 0.54388027E+03</totfact>
</mgrwt>
</event>
<event>
 7    1  0.5206756E-006  0.1487963E+03  0.7546771E-02  0.1211182E+00
         -2   -1    0    0    0  501 -0.00000000000E+00  0.00000000000E+00  0.30558258897E+02  0.30558258897E+02  0.00000000000E+00 0.  1.
          2   -1    0    0  501    0  0.00000000000E+00 -0.00000000000E+00 -0.65255884894E+03  0.65255884894E+03  0.00000000000E+00 0. -1.
         23    2    1    2    0    0  0.47134492546E+02  0.65534738928E+02 -0.43556112999E+03  0.46027582004E+03  0.12499548058E+03 0.  0.
          5    1    3    3  502    0  0.14866373600E+02 -0.39602535196E+00  0.27488468192E+01  0.15837047039E+02  0.47000000000E+01 0. -1.
         -5    1    3    3    0  502  0.32268118946E+02  0.65930764280E+02 -0.43830997681E+03  0.44443877300E+03  0.47000000000E+01 0. -1.
        -11    1    1    2    0    0 -0.32505335064E+02 -0.12395334678E+02 -0.15609354998E+03  0.15992322368E+03  0.00000000000E+00 0. -1.
         11    1    1    2    0    0 -0.14629157482E+02 -0.53139404251E+02 -0.30345910075E+02  0.62918064107E+02  0.00000000000E+00 0.  1.
<mgrwt>
<rscale>  0 0.14160778E+03</rscale>
<asrwt>0</asrwt>
<pdfrwt beam="2">  1        2 0.10039367E+00 0.14879628E+03</pdfrwt>
<pdfrwt beam="1">  1       -2 0.47012704E-02 0.14879628E+03</pdfrwt>
<totfact> 0.94586586E+03</totfact>
</mgrwt>
</event>
<event>
 7    1  0.5206756E-006  0.1462483E+03  0.7546771E-02  0.1215181E+00
          2   -1    0    0  501    0  0.00000000000E+00  0.00000000000E+00  0.26159252185E+03  0.26159252185E+03  0.00000000000E+00 0. -1.
         -2   -1    0    0    0  501 -0.00000000000E+00 -0.00000000000E+00 -0.74004883081E+02  0.74004883081E+02  0.00000000000E+00 0.  1.
         23    2    1    2    0    0  0.17426519775E+02 -0.73885149502E+02  0.15499263648E+03  0.21309920051E+03  0.12500341189E+03 0.  0.
          5    1    3    3  502    0  0.68044726131E+01  0.21436400398E+02 -0.76567024987E+01  0.24218488862E+02  0.47000000000E+01 0.  1.
         -5    1    3    3    0  502  0.10622047161E+02 -0.95321549900E+02  0.16264933898E+03  0.18888071164E+03  0.47000000000E+01 0.  1.
        -11    1    1    2    0    0 -0.29833872257E+02  0.56790895862E+02  0.60041470000E+02  0.87864918519E+02  0.00000000000E+00 0. -1.
         11    1    1    2    0    0  0.12407352483E+02  0.17094253639E+02 -0.27446467708E+02  0.34633285908E+02  0.00000000000E+00 0.  1.
<mgrwt>
<rscale>  0 0.13863217E+03</rscale>
<asrwt>0</asrwt>
<pdfrwt beam="1">  1        2 0.40245003E-01 0.14624825E+03</pdfrwt>
<pdfrwt beam="2">  1       -2 0.11385367E-01 0.14624825E+03</pdfrwt>
<totfact> 0.65433189E+03</totfact>
</mgrwt>
</event>
<event>
 7    1  0.5206756E-006  0.1481007E+03  0.7546771E-02  0.1221842E+00
          2   -1    0    0  501    0  0.00000000000E+00  0.00000000000E+00  0.15660348439E+03  0.15660348439E+03  0.00000000000E+00 0. -1.
         -2   -1    0    0    0  501 -0.00000000000E+00 -0.00000000000E+00 -0.35013701736E+03  0.35013701736E+03  0.00000000000E+00 0.  1.
         23    2    1    2    0    0 -0.39425166099E+02  0.68900357756E+02  0.11196006140E+03  0.18565791395E+03  0.12502880726E+03 0.  0.
          5    1    3    3  502    0 -0.67804566187E+02  0.63836455814E+02  0.12307274699E+03  0.15440707023E+03  0.47000000000E+01 0.  1.
         -5    1    3    3    0  502  0.28379400088E+02  0.50639019423E+01 -0.11112685590E+02  0.31250843721E+02  0.47000000000E+01 0.  1.
        -11    1    1    2    0    0  0.45037370152E+02 -0.33506603523E+02 -0.23946193387E+03  0.24595339998E+03  0.00000000000E+00 0.  1.
         11    1    1    2    0    0 -0.56122040532E+01 -0.35393754233E+02 -0.66031660502E+02  0.75129187814E+02  0.00000000000E+00 0. -1.
<mgrwt>
<rscale>  0 0.13385720E+03</rscale>
<asrwt>0</asrwt>
<pdfrwt beam="1">  1        2 0.24092844E-01 0.14810066E+03</pdfrwt>
<pdfrwt beam="2">  1       -2 0.53867233E-01 0.14810066E+03</pdfrwt>
<totfact> 0.73454715E+02</totfact>
</mgrwt>
</event>
<event>
 7    1  0.5206756E-006  0.1421548E+03  0.7546771E-02  0.1221108E+00
          2   -1    0    0  501    0  0.00000000000E+00  0.00000000000E+00  0.33594070999E+02  0.33594070999E+02  0.00000000000E+00 0. -1.
         -2   -1    0    0    0  501 -0.00000000000E+00 -0.00000000000E+00 -0.52994864616E+03  0.52994864616E+03  0.00000000000E+00 0.  1.
         23    2    1    2    0    0 -0.35762133716E+02  0.57463080783E+02 -0.19337029891E+03  0.24000011473E+03  0.12500818657E+03 0.  0.
          5    1    3    3  502    0 -0.17809751955E+02  0.89188937059E+02 -0.17842450299E+03  0.20032285697E+03  0.47000000000E+01 0.  1.
         -5    1    3    3    0  502 -0.17952381760E+02 -0.31725856276E+02 -0.14945795915E+02  0.39677257753E+02  0.47000000000E+01 0.  1.
        -11    1    1    2    0    0  0.12789945148E+02  0.24895469113E+02 -0.75157789312E+02  0.80200127017E+02  0.00000000000E+00 0.  1.
         11    1    1    2    0    0  0.22972188567E+02 -0.82358549896E+02 -0.22782648695E+03  0.24334247542E+03  0.00000000000E+00 0. -1.
<mgrwt>
<rscale>  0 0.13437301E+03</rscale>
<asrwt>0</asrwt>
<pdfrwt beam="1">  1        2 0.51683189E-02 0.14215478E+03</pdfrwt>
<pdfrwt beam="2">  1       -2 0.81530557E-01 0.14215478E+03</pdfrwt>
<totfact> 0.19810394E+03</totfact>
</mgrwt>
</event>
<event>
 7    1  0.5206756E-006  0.1288622E+03  0.7546771E-02  0.1242159E+00
          1   -1    0    0  501    0  0.00000000000E+00  0.00000000000E+00  0.62359665576E+02  0.62359665576E+02  0.00000000000E+00 0. -1.
         -1   -1    0    0    0  501 -0.00000000000E+00 -0.00000000000E+00 -0.28829728731E+03  0.28829728731E+03  0.00000000000E+00 0.  1.
         23    2    1    2    0    0 -0.14408398457E+02 -0.27792916710E+02 -0.31623925407E+02  0.13268581912E+03  0.12500162307E+03 0.  0.
          5    1    3    3  502    0  0.54403255319E+02 -0.75675673750E+00 -0.16787390613E+02  0.57133119586E+02  0.47000000000E+01 0.  1.
         -5    1    3    3    0  502 -0.68811653776E+02 -0.27036159972E+02 -0.14836534794E+02  0.75552699529E+02  0.47000000000E+01 0.  1.
        -11    1    1    2    0    0 -0.26618674467E+02 -0.24171835935E+01 -0.13166457561E+02  0.29795170945E+02  0.00000000000E+00 0. -1.
         11    1    1    2    0    0  0.41027072925E+02  0.30210100303E+02 -0.18114723877E+03  0.18817596283E+03  0.00000000000E+00 0.  1.
<mgrwt>
<rscale>  0 0.12057011E+03</rscale>
<asrwt>0</asrwt>
<pdfrwt beam="1">  1        1 0.95937948E-02 0.12886215E+03</pdfrwt>
<pdfrwt beam="2">  1       -1 0.44353428E-01 0.12886215E+03</pdfrwt>
<totfact> 0.33353350E+03</totfact>
</mgrwt>
</event>
<event>
 6    1  0.5206756E-006  0.1518025E+03  0.7546771E-02  0.1217910E+00
         -2   -1    0    0    0  501 -0.00000000000E+00  0.00000000000E+00  0.16544613052E+03  0.16544613052E+03  0.00000000000E+00 0.  1.
          2   -1    0    0  501    0  0.00000000000E+00 -0.00000000000E+00 -0.10686275278E+03  0.10686275278E+03  0.00000000000E+00 0. -1.
          5    1    1    2  502    0 -0.57038720062E+02 -0.75497640389E+02 -0.24793331816E+02  0.97929099828E+02  0.47000000000E+01 0. -1.
         -5    1    1    2    0  502  0.32014506418E+02  0.40287970472E+02  0.16096322411E+02  0.54122368583E+02  0.47000000000E+01 0.  1.
        -11    1    1    2    0    0 -0.16376036312E+01 -0.14064354935E+02  0.62438372743E+02  0.64023731664E+02  0.00000000000E+00 0. -1.
         11    1    1    2    0    0  0.26661817276E+02  0.49274024852E+02  0.48420144104E+01  0.56233683225E+02  0.00000000000E+00 0.  1.
<mgrwt>
<rscale>  0 0.13664896E+03</rscale>
<asrwt>0</asrwt>
<pdfrwt beam="2">  1        2 0.16440423E-01 0.15180254E+03</pdfrwt>
<pdfrwt beam="1">  1       -2 0.25453251E-01 0.15180254E+03</pdfrwt>
<totfact> 0.46237767E+03</totfact>
</mgrwt>
</event>
<event>
 7    1  0.5206756E-006  0.1467513E+03  0.7546771E-02  0.1214758E+00
         -1   -1    0    0    0  501 -0.00000000000E+00  0.00000000000E+00  0.30511691032E+02  0.30511691032E+02  0.00000000000E+00 0.  1.
          1   -1    0    0  501    0  0.00000000000E+00 -0.00000000000E+00 -0.58208850733E+03  0.58208850733E+03  0.00000000000E+00 0. -1.
         23    2    1    2    0    0  0.98499611154E+01 -0.76248607166E+02 -0.34134270461E+03  0.37155184366E+03  0.12500023484E+03 0.  0.
          5    1    3    3  502    0  0.53124391109E+01 -0.10542449117E+03 -0.19113009767E+03  0.21839265002E+03  0.47000000000E+01 0. -1.
         -5    1    3    3    0  502  0.45375220045E+01  0.29175884007E+02 -0.15021260693E+03  0.15315919364E+03  0.47000000000E+01 0. -1.
        -11    1    1    2    0    0  0.18412266780E+02 -0.14056854496E+02 -0.46058267940E+02  0.51555511557E+02  0.00000000000E+00 0. -1.
         11    1    1    2    0    0 -0.28262227895E+02  0.90305461662E+02 -0.16417584375E+03  0.18949284315E+03  0.00000000000E+00 0.  1.
<mgrwt>
<rscale>  0 0.13894290E+03</rscale>
<asrwt>0</asrwt>
<pdfrwt beam="2">  1        1 0.89552066E-01 0.14675125E+03</pdfrwt>
<pdfrwt beam="1">  1       -1 0.46941069E-02 0.14675125E+03</pdfrwt>
<totfact> 0.68546919E+03</totfact>
</mgrwt>
</event>
<event>
 7    1  0.5206756E-006  0.1233361E+03  0.7546771E-02  0.1246343E+00
          2   -1    0    0  501    0  0.00000000000E+00  0.00000000000E+00  0.95126903934E+03  0.95126903934E+03  0.00000000000E+00 0. -1.
         -2   -1    0    0    0  501 -0.00000000000E+00 -0.00000000000E+00 -0.10791540365E+03  0.10791540365E+03  0.00000000000E+00 0.  1.
         23    2    1    2    0    0  0.45223296303E+02  0.18537557599E+02  0.92134845714E+03  0.92956698272E+03  0.11323872268E+03 0.  0.
          5    1    3    3  502    0  0.43058667339E+02  0.64163457293E+02  0.58127964073E+03  0.58641206400E+03  0.47000000000E+01 0. -1.
         -5    1    3    3    0  502  0.21646289633E+01 -0.45625899694E+02  0.34006881641E+03  0.34315491871E+03  0.47000000000E+01 0.  1.
        -11    1    1    2    0    0 -0.21920756380E+02 -0.10075625332E+02  0.18237481099E+02  0.30243073636E+02  0.00000000000E+00 0. -1.
         11    1    1    2    0    0 -0.23302539922E+02 -0.84619322671E+01 -0.96232302556E+02  0.99374386639E+02  0.00000000000E+00 0.  1.
<mgrwt>
<rscale>  0 0.11805363E+03</rscale>
<asrwt>0</asrwt>
<pdfrwt beam="1">  1        2 0.14634908E+00 0.12333611E+03</pdfrwt>
<pdfrwt beam="2">  1       -2 0.16602370E-01 0.12333611E+03</pdfrwt>
<totfact> 0.82111265E+02</totfact>
</mgrwt>
</event>
<event>
 7    1  0.5206756E-006  0.1252139E+03  0.7546771E-02  0.1250185E+00
         -2   -1    0    0    0  501 -0.00000000000E+00  0.00000000000E+00  0.81032259008E+02  0.81032259008E+02  0.00000000000E+00 0.  1.
          2   -1    0    0  501    0  0.00000000000E+00 -0.00000000000E+00 -0.14722732089E+03  0.14722732089E+03  0.00000000000E+00 0. -1.
         23    2    1    2    0    0 -0.91950292532E+00  0.73955158002E+01 -0.51895934403E+02  0.13554225589E+03  0.12499190367E+03 0.  0.
          5    1    3    3  502    0 -0.61147101255E+02 -0.53793833378E+01 -0.37684876397E+02  0.72181338766E+02  0.47000000000E+01 0.  1.
         -5    1    3    3    0  502  0.60227598330E+02  0.12774899138E+02 -0.14211058005E+02  0.63360917119E+02  0.47000000000E+01 0.  1.
        -11    1    1    2    0    0  0.13300015984E+02 -0.45187857587E+02  0.69716501666E+01  0.47617610236E+02  0.00000000000E+00 0.  1.
         11    1    1    2    0    0 -0.12380513059E+02  0.37792341787E+02 -0.21270777651E+02  0.45099713782E+02  0.00000000000E+00 0. -1.
<mgrwt>
<rscale>  0 0.11580379E+03</rscale>
<asrwt>0</asrwt>
<pdfrwt beam="2">  1        2 0.22650357E-01 0.12521388E+03</pdfrwt>
<pdfrwt beam="1">  1       -2 0.12466502E-01 0.12521388E+03</pdfrwt>
<totfact> 0.10442968E+04</totfact>
</mgrwt>
</event>
<event>
 7    1  0.5206756E-006  0.1374891E+03  0.7546771E-02  0.1227940E+00
          2   -1    0    0  501    0  0.00000000000E+00  0.00000000000E+00  0.11660206044E+04  0.11660206044E+04  0.00000000000E+00 0. -1.
         -2   -1    0    0    0  501 -0.00000000000E+00 -0.00000000000E+00 -0.19397377966E+02  0.19397377966E+02  0.00000000000E+00 0.  1.
         23    2    1    2    0    0 -0.42076592468E+02 -0.38828049929E+02  0.95679567888E+03  0.96662361373E+03  0.12500072957E+03 0.  0.
          5    1    3    3  502    0  0.30485235110E+01 -0.75897724417E+02  0.63430970919E+03  0.63885886958E+03  0.47000000000E+01 0.  1.
         -5    1    3    3    0  502 -0.45125115979E+02  0.37069674488E+02  0.32248596970E+03  0.32776474415E+03  0.47000000000E+01 0.  1.
        -11    1    1    2    0    0  0.11120151512E+02  0.40586216454E+02  0.18201850463E+03  0.18681979221E+03  0.00000000000E+00 0. -1.
         11    1    1    2    0    0  0.30956440956E+02 -0.17581665251E+01  0.78090429249E+01  0.31974576426E+02  0.00000000000E+00 0.  1.
<mgrwt>
<rscale>  0 0.12967430E+03</rscale>
<asrwt>0</asrwt>
<pdfrwt beam="1">  1        2 0.17938773E+00 0.13748905E+03</pdfrwt>
<pdfrwt beam="2">  1       -2 0.29842129E-02 0.13748905E+03</pdfrwt>
<totfact> 0.86649676E+03</totfact>
</mgrwt>
</event>
<event>
 7    1  0.5206756E-006  0.1405228E+03  0.7546771E-02  0.1223797E+00
          2   -1    0    0  501    0  0.00000000000E+00  0.00000000000E+00  0.12750276279E+03  0.12750276279E+03  0.00000000000E+00 0.  1.
         -2   -1    0    0    0  501 -0.00000000000E+00 -0.00000000000E+00 -0.13334219423E+03  0.13334219423E+03  0.00000000000E+00 0. -1.
         23    2    1    2    0    0  0.49813193095E+02  0.40499425383E+02 -0.37337729293E+02  0.14539864554E+03  0.12500040974E+03 0.  0.
          5    1    3    3  502    0  0.11648013295E+02 -0.33600533005E+02 -0.49398094117E+02  0.61048617792E+02  0.47000000000E+01 0.  1.
         -5    1    3    3    0  502  0.38165179801E+02  0.74099958388E+02  0.12060364824E+02  0.84350027753E+02  0.47000000000E+01 0.  1.
        -11    1    1    2    0    0 -0.20284398039E+02 -0.49636596166E+02  0.54850901374E+02  0.76706387376E+02  0.00000000000E+00 0.  1.
         11    1    1    2    0    0 -0.29528795056E+02  0.91371707832E+01 -0.23352603521E+02  0.38739924091E+02  0.00000000000E+00 0. -1.
<mgrwt>
<rscale>  0 0.13249687E+03</rscale>
<asrwt>0</asrwt>
<pdfrwt beam="1">  1        2 0.19615810E-01 0.14052281E+03</pdfrwt>
<pdfrwt beam="2">  1       -2 0.20514184E-01 0.14052281E+03</pdfrwt>
<totfact> 0.54523580E+03</totfact>
</mgrwt>
</event>
<event>
 7    1  0.5206756E-006  0.1401901E+03  0.7546771E-02  0.1223433E+00
          1   -1    0    0  501    0  0.00000000000E+00  0.00000000000E+00  0.84559048137E+03  0.84559048137E+03  0.00000000000E+00 0. -1.
         -1   -1    0    0    0  501 -0.00000000000E+00 -0.00000000000E+00 -0.24032540320E+02  0.24032540320E+02  0.00000000000E+00 0.  1.
         23    2    1    2    0    0  0.49759152496E+02  0.39427698420E+02  0.64571298820E+03  0.66075602561E+03  0.12499098205E+03 0.  0.
          5    1    3    3  502    0  0.17020046140E+02 -0.39207136904E+02  0.36058847031E+03  0.36314324512E+03  0.47000000000E+01 0.  1.
         -5    1    3    3    0  502  0.32739106356E+02  0.78634835324E+02  0.28512451789E+03  0.29761278050E+03  0.47000000000E+01 0.  1.
        -11    1    1    2    0    0  0.10123684014E+02  0.10554714427E+02 -0.19117187825E+01  0.14749428577E+02  0.00000000000E+00 0.  1.
         11    1    1    2    0    0 -0.59882836511E+02 -0.49982412847E+02  0.17775667163E+03  0.19411756750E+03  0.00000000000E+00 0. -1.
<mgrwt>
<rscale>  0 0.13274875E+03</rscale>
<asrwt>0</asrwt>
<pdfrwt beam="1">  1        1 0.13009082E+00 0.14019009E+03</pdfrwt>
<pdfrwt beam="2">  1       -1 0.36973145E-02 0.14019009E+03</pdfrwt>
<totfact> 0.56785288E+03</totfact>
</mgrwt>
</event>
<event>
 7    1  0.5206756E-006  0.1285537E+03  0.7546771E-02  0.1243903E+00
         -2   -1    0    0    0  501 -0.00000000000E+00  0.00000000000E+00  0.73929618291E+02  0.73929618291E+02  0.00000000000E+00 0.  1.
          2   -1    0    0  501    0  0.00000000000E+00 -0.00000000000E+00 -0.18843225404E+03  0.18843225404E+03  0.00000000000E+00 0. -1.
         23    2    1    2    0    0  0.93702537776E+01  0.28488581117E+02 -0.10477298342E+03  0.16584161057E+03  0.12500664315E+03 0.  0.
          5    1    3    3  502    0 -0.99787198275E+01  0.55408140236E+02 -0.11721645999E+03  0.13012081058E+03  0.47000000000E+01 0. -1.
         -5    1    3    3    0  502  0.19348973605E+02 -0.26919559118E+02  0.12443476571E+02  0.35720799989E+02  0.47000000000E+01 0. -1.
        -11    1    1    2    0    0  0.11276081616E+02 -0.36198529694E+02  0.31813439599E+02  0.49493216785E+02  0.00000000000E+00 0.  1.
         11    1    1    2    0    0 -0.20646335393E+02  0.77099485765E+01 -0.41543091929E+02  0.47027044977E+02  0.00000000000E+00 0. -1.
<mgrwt>
<rscale>  0 0.11951260E+03</rscale>
<asrwt>0</asrwt>
<pdfrwt beam="2">  1        2 0.28989577E-01 0.12855373E+03</pdfrwt>
<pdfrwt beam="1">  1       -2 0.11373787E-01 0.12855373E+03</pdfrwt>
<totfact> 0.92372387E+03</totfact>
</mgrwt>
</event>
<event>
 7    1  0.5206756E-006  0.1738521E+03  0.7546771E-02  0.1179852E+00
         -2   -1    0    0    0  501 -0.00000000000E+00  0.00000000000E+00  0.13510280838E+04  0.13510280838E+04  0.00000000000E+00 0.  1.
          2   -1    0    0  501    0  0.00000000000E+00 -0.00000000000E+00 -0.20126270997E+02  0.20126270997E+02  0.00000000000E+00 0. -1.
         23    2    1    2    0    0  0.10277480128E+03 -0.63534507046E+02  0.81548500487E+03  0.83381074031E+03  0.12500105650E+03 0.  0.
          5    1    3    3  502    0  0.98717946697E+02 -0.81563636085E+02  0.45163771911E+03  0.46946414033E+03  0.47000000000E+01 0.  1.
         -5    1    3    3    0  502  0.40568545808E+01  0.18029129039E+02  0.36384728576E+03  0.36434659998E+03  0.47000000000E+01 0.  1.
        -11    1    1    2    0    0 -0.72968806112E+02  0.15578024001E+00  0.17166954396E+03  0.18653391986E+03  0.00000000000E+00 0. -1.
         11    1    1    2    0    0 -0.29805995165E+02  0.63378726806E+02  0.34374726396E+03  0.35080969462E+03  0.00000000000E+00 0.  1.
<mgrwt>
<rscale>  0 0.16809241E+03</rscale>
<asrwt>0</asrwt>
<pdfrwt beam="2">  1        2 0.30963504E-02 0.17385211E+03</pdfrwt>
<pdfrwt beam="1">  1       -2 0.20785040E+00 0.17385211E+03</pdfrwt>
<totfact> 0.38244193E+02</totfact>
</mgrwt>
</event>
<event>
 7    1  0.5206756E-006  0.1403214E+03  0.7546771E-02  0.1224302E+00
         -1   -1    0    0    0  501 -0.00000000000E+00  0.00000000000E+00  0.47707010397E+03  0.47707010397E+03  0.00000000000E+00 0.  1.
          1   -1    0    0  501    0  0.00000000000E+00 -0.00000000000E+00 -0.44259733181E+02  0.44259733181E+02  0.00000000000E+00 0. -1.
         23    2    1    2    0    0 -0.28402058026E+02  0.57088513326E+02  0.10448855448E+03  0.17495130834E+03  0.12499730805E+03 0.  0.
          5    1    3    3  502    0  0.24204121153E+01  0.37679766957E+02 -0.21510902299E+02  0.43708490599E+02  0.47000000000E+01 0. -1.
         -5    1    3    3    0  502 -0.30822470141E+02  0.19408746370E+02  0.12599945678E+03  0.13124281774E+03  0.47000000000E+01 0. -1.
        -11    1    1    2    0    0  0.15143949243E+02 -0.61974366839E+02  0.32584692197E+03  0.33203369995E+03  0.00000000000E+00 0.  1.
         11    1    1    2    0    0  0.13258108783E+02  0.48858535122E+01  0.24748943420E+01  0.14344828861E+02  0.00000000000E+00 0. -1.
<mgrwt>
<rscale>  0 0.13214833E+03</rscale>
<asrwt>0</asrwt>
<pdfrwt beam="2">  1        1 0.68091900E-02 0.14032142E+03</pdfrwt>
<pdfrwt beam="1">  1       -1 0.73395397E-01 0.14032142E+03</pdfrwt>
<totfact> 0.20555360E+03</totfact>
</mgrwt>
</event>
<event>
 7    1  0.5206756E-006  0.1329141E+03  0.7546771E-02  0.1236227E+00
         -1   -1    0    0    0  501 -0.00000000000E+00  0.00000000000E+00  0.27313162345E+02  0.27313162345E+02  0.00000000000E+00 0.  1.
          1   -1    0    0  501    0  0.00000000000E+00 -0.00000000000E+00 -0.51426022395E+03  0.51426022395E+03  0.00000000000E+00 0. -1.
         23    2    1    2    0    0  0.45183932197E+02  0.10681977512E+00 -0.31482291114E+03  0.34173033018E+03  0.12499821615E+03 0.  0.
          5    1    3    3  502    0  0.87819333883E+02 -0.59430501242E+01 -0.18622442919E+03  0.20603199575E+03  0.47000000000E+01 0. -1.
         -5    1    3    3    0  502 -0.42635401686E+02  0.60498698993E+01 -0.12859848196E+03  0.13569833442E+03  0.47000000000E+01 0. -1.
        -11    1    1    2    0    0  0.12972043773E+02 -0.23269799148E+02 -0.10385856528E+03  0.10722107560E+03  0.00000000000E+00 0. -1.
         11    1    1    2    0    0 -0.58155975970E+02  0.23162979373E+02 -0.68265585179E+02  0.92621980514E+02  0.00000000000E+00 0.  1.
<mgrwt>
<rscale>  0 0.12426200E+03</rscale>
<asrwt>0</asrwt>
<pdfrwt beam="2">  1        1 0.79116952E-01 0.13291408E+03</pdfrwt>
<pdfrwt beam="1">  1       -1 0.42020252E-02 0.13291408E+03</pdfrwt>
<totfact> 0.94596401E+03</totfact>
</mgrwt>
</event>
<event>
 7    1  0.5206756E-006  0.1633739E+03  0.7546771E-02  0.1187709E+00
          1   -1    0    0  501    0  0.00000000000E+00  0.00000000000E+00  0.66443537709E+03  0.66443537709E+03  0.00000000000E+00 0. -1.
         -1   -1    0    0    0  501 -0.00000000000E+00 -0.00000000000E+00 -0.23164927788E+03  0.23164927788E+03  0.00000000000E+00 0.  1.
         23    2    1    2    0    0  0.11722353564E+03  0.25394945750E+02  0.62730052335E+03  0.64822601720E+03  0.11092683266E+03 0.  0.
          5    1    3    3  502    0  0.30186796615E+02  0.37220885653E+02  0.42382127506E+03  0.42654800458E+03  0.47000000000E+01 0. -1.
         -5    1    3    3    0  502  0.87036739024E+02 -0.11825939903E+02  0.20347924829E+03  0.22167801262E+03  0.47000000000E+01 0.  1.
        -11    1    1    2    0    0  0.11371658420E+02 -0.24033248843E+01  0.20914037978E+01  0.11809511233E+02  0.00000000000E+00 0. -1.
         11    1    1    2    0    0 -0.12859519406E+03 -0.22991620865E+02 -0.19660582793E+03  0.23604912655E+03  0.00000000000E+00 0.  1.
<mgrwt>
<rscale>  0 0.16087792E+03</rscale>
<asrwt>0</asrwt>
<pdfrwt beam="1">  1        1 0.10222083E+00 0.16337387E+03</pdfrwt>
<pdfrwt beam="2">  1       -1 0.35638351E-01 0.16337387E+03</pdfrwt>
<totfact> 0.23659018E+02</totfact>
</mgrwt>
</event>
<event>
 7    1  0.5206756E-006  0.1409786E+03  0.7546771E-02  0.1223519E+00
          1   -1    0    0  501    0  0.00000000000E+00  0.00000000000E+00  0.37113682788E+03  0.37113682788E+03  0.00000000000E+00 0. -1.
         -1   -1    0    0    0  501 -0.00000000000E+00 -0.00000000000E+00 -0.42958926954E+02  0.42958926954E+02  0.00000000000E+00 0.  1.
         23    2    1    2    0    0  0.64195976362E+02  0.11330842993E+02  0.20130506717E+03  0.24576144612E+03  0.12500178777E+03 0.  0.
          5    1    3    3  502    0 -0.26463391038E+02 -0.25296646458E+02  0.91457565955E+02  0.98624579886E+02  0.47000000000E+01 0. -1.
         -5    1    3    3    0  502  0.90659367400E+02  0.36627489451E+02  0.10984750121E+03  0.14713686623E+03  0.47000000000E+01 0. -1.
        -11    1    1    2    0    0  0.12353466767E+02  0.68474021769E+01  0.69598494979E+02  0.71017220173E+02  0.00000000000E+00 0. -1.
         11    1    1    2    0    0 -0.76549443129E+02 -0.18178245170E+02  0.57274338781E+02  0.97317088549E+02  0.00000000000E+00 0.  1.
<mgrwt>
<rscale>  0 0.13268942E+03</rscale>
<asrwt>0</asrwt>
<pdfrwt beam="1">  1        1 0.57097972E-01 0.14097857E+03</pdfrwt>
<pdfrwt beam="2">  1       -1 0.66090659E-02 0.14097857E+03</pdfrwt>
<totfact> 0.73597249E+03</totfact>
</mgrwt>
</event>
<event>
 6    1  0.5206756E-006  0.6131085E+03  0.7546771E-02  0.1015747E+00
          2   -1    0    0  501    0  0.00000000000E+00  0.00000000000E+00  0.38323010484E+03  0.38323010484E+03  0.00000000000E+00 0. -1.
         -2   -1    0    0    0  501 -0.00000000000E+00 -0.00000000000E+00 -0.96979093465E+03  0.96979093465E+03  0.00000000000E+00 0.  1.
          5    1    1    2  502    0  0.14747544806E+03 -0.30817942551E+02  0.31969482272E+03  0.35344819004E+03  0.47000000000E+01 0. -1.
         -5    1    1    2    0  502  0.62925973102E+01 -0.15177597376E+03 -0.22032798380E+03  0.26766033221E+03  0.47000000000E+01 0.  1.
        -11    1    1    2    0    0 -0.70494434964E+02  0.14504552763E+03 -0.38459550435E+03  0.41703881403E+03  0.00000000000E+00 0.  1.
         11    1    1    2    0    0 -0.83273610407E+02  0.37548388675E+02 -0.30133216439E+03  0.31487370322E+03  0.00000000000E+00 0. -1.
<mgrwt>
<rscale>  0 0.49253064E+03</rscale>
<asrwt>0</asrwt>
<pdfrwt beam="1">  1        2 0.58958478E-01 0.61310850E+03</pdfrwt>
<pdfrwt beam="2">  1       -2 0.14919861E+00 0.61310850E+03</pdfrwt>
<totfact> 0.25983392E+01</totfact>
</mgrwt>
</event>
<event>
 7    1  0.5206756E-006  0.1438750E+03  0.7546771E-02  0.1218790E+00
          2   -1    0    0  501    0  0.00000000000E+00  0.00000000000E+00  0.14567321565E+03  0.14567321565E+03  0.00000000000E+00 0. -1.
         -2   -1    0    0    0  501 -0.00000000000E+00 -0.00000000000E+00 -0.16996042356E+03  0.16996042356E+03  0.00000000000E+00 0.  1.
         23    2    1    2    0    0 -0.26859359421E+02  0.65883635753E+02  0.76343671608E+02  0.16287535231E+03  0.12505177146E+03 0.  0.
          5    1    3    3  502    0 -0.17588379921E+02  0.89644721887E+02  0.94263509663E+02  0.13135153796E+03  0.47000000000E+01 0. -1.
         -5    1    3    3    0  502 -0.92709794991E+01 -0.23761086134E+02 -0.17919838055E+02  0.31523814348E+02  0.47000000000E+01 0. -1.
        -11    1    1    2    0    0  0.36866764436E+02  0.64390921840E+01 -0.55449559658E+02  0.66897487953E+02  0.00000000000E+00 0.  1.
         11    1    1    2    0    0 -0.10007405015E+02 -0.72322727937E+02 -0.45181319866E+02  0.85860798949E+02  0.00000000000E+00 0. -1.
<mgrwt>
<rscale>  0 0.13601783E+03</rscale>
<asrwt>0</asrwt>
<pdfrwt beam="1">  1        2 0.22411264E-01 0.14387503E+03</pdfrwt>
<pdfrwt beam="2">  1       -2 0.26147757E-01 0.14387503E+03</pdfrwt>
<totfact> 0.30890777E+03</totfact>
</mgrwt>
</event>
<event>
 7    1  0.5206756E-006  0.1668670E+03  0.7546771E-02  0.1187940E+00
         -2   -1    0    0    0  501 -0.00000000000E+00  0.00000000000E+00  0.11226161515E+03  0.11226161515E+03  0.00000000000E+00 0.  1.
          2   -1    0    0  501    0  0.00000000000E+00 -0.00000000000E+00 -0.39087226356E+03  0.39087226356E+03  0.00000000000E+00 0. -1.
         23    2    1    2    0    0 -0.10204570848E+03  0.42490930513E+02 -0.31383407155E+03  0.35543833710E+03  0.12500312482E+03 0.  0.
          5    1    3    3  502    0 -0.58036037388E+02  0.35547306745E+02 -0.30128620811E+03  0.30891303283E+03  0.47000000000E+01 0.  1.
         -5    1    3    3    0  502 -0.44009671090E+02  0.69436237683E+01 -0.12547863445E+02  0.46525304271E+02  0.47000000000E+01 0.  1.
        -11    1    1    2    0    0  0.89266647344E+02 -0.34385456514E+01  0.51940267134E+02  0.10333513088E+03  0.00000000000E+00 0.  1.
         11    1    1    2    0    0  0.12779061134E+02 -0.39052384862E+02 -0.16716843993E+02  0.44360410728E+02  0.00000000000E+00 0. -1.
<mgrwt>
<rscale>  0 0.16067220E+03</rscale>
<asrwt>0</asrwt>
<pdfrwt beam="2">  1        2 0.60134193E-01 0.16686697E+03</pdfrwt>
<pdfrwt beam="1">  1       -2 0.17271018E-01 0.16686697E+03</pdfrwt>
<totfact> 0.21769629E+03</totfact>
</mgrwt>
</event>
<event>
 7    1  0.5206756E-006  0.1354558E+03  0.7546771E-02  0.1231911E+00
          2   -1    0    0  501    0  0.00000000000E+00  0.00000000000E+00  0.11044794139E+04  0.11044794139E+04  0.00000000000E+00 0. -1.
         -2   -1    0    0    0  501 -0.00000000000E+00 -0.00000000000E+00 -0.22391573315E+02  0.22391573315E+02  0.00000000000E+00 0.  1.
         23    2    1    2    0    0  0.34069349582E+02 -0.38054746664E+02  0.94317873912E+03  0.95285592819E+03  0.12545677196E+03 0.  0.
          5    1    3    3  502    0  0.52493769193E+01 -0.66853263774E+02  0.82554978871E+03  0.82828223359E+03  0.47000000000E+01 0. -1.
         -5    1    3    3    0  502  0.28819972663E+02  0.28798517110E+02  0.11762895040E+03  0.12457369460E+03  0.47000000000E+01 0.  1.
        -11    1    1    2    0    0  0.47987531496E+01 -0.22164240128E+02  0.73723407109E+02  0.77132498521E+02  0.00000000000E+00 0. -1.
         11    1    1    2    0    0 -0.38868102732E+02  0.60218986792E+02  0.65185694331E+02  0.96882560482E+02  0.00000000000E+00 0.  1.
<mgrwt>
<rscale>  0 0.12704302E+03</rscale>
<asrwt>0</asrwt>
<pdfrwt beam="1">  1        2 0.16991987E+00 0.13545585E+03</pdfrwt>
<pdfrwt beam="2">  1       -2 0.34448583E-02 0.13545585E+03</pdfrwt>
<totfact> 0.75927862E+03</totfact>
</mgrwt>
</event>
<event>
 7    1  0.5206756E-006  0.1553059E+03  0.7546771E-02  0.1202293E+00
          2   -1    0    0  501    0  0.00000000000E+00  0.00000000000E+00  0.57528085557E+03  0.57528085557E+03  0.00000000000E+00 0. -1.
         -2   -1    0    0    0  501 -0.00000000000E+00 -0.00000000000E+00 -0.43246215878E+02  0.43246215878E+02  0.00000000000E+00 0.  1.
         23    2    1    2    0    0  0.91776136576E+02 -0.82362319572E+01  0.41706124850E+03  0.44503934573E+03  0.12501695679E+03 0.  0.
          5    1    3    3  502    0  0.29064930131E+02 -0.41863934644E+02  0.51571015954E+02  0.72656857033E+02  0.47000000000E+01 0. -1.
         -5    1    3    3    0  502  0.62711206445E+02  0.33627702687E+02  0.36549023254E+03  0.37238248869E+03  0.47000000000E+01 0. -1.
        -11    1    1    2    0    0 -0.96598183941E+02 -0.67485504242E+01  0.12240835492E+03  0.15607868986E+03  0.00000000000E+00 0.  1.
         11    1    1    2    0    0  0.48220473652E+01  0.14984782381E+02 -0.74349637307E+01  0.17409035857E+02  0.00000000000E+00 0. -1.
<mgrwt>
<rscale>  0 0.14852848E+03</rscale>
<asrwt>0</asrwt>
<pdfrwt beam="1">  1        2 0.88504742E-01 0.15530594E+03</pdfrwt>
<pdfrwt beam="2">  1       -2 0.66532644E-02 0.15530594E+03</pdfrwt>
<totfact> 0.64764601E+03</totfact>
</mgrwt>
</event>
<event>
 7    1  0.5206756E-006  0.1328868E+03  0.7546771E-02  0.1235626E+00
          2   -1    0    0  501    0  0.00000000000E+00  0.00000000000E+00  0.29544422591E+03  0.29544422591E+03  0.00000000000E+00 0. -1.
         -2   -1    0    0    0  501 -0.00000000000E+00 -0.00000000000E+00 -0.84160272081E+02  0.84160272081E+02  0.00000000000E+00 0.  1.
         23    2    1    2    0    0  0.34369514860E+02 -0.29183338506E+02  0.23866110566E+03  0.27316298661E+03  0.12500385236E+03 0.  0.
          5    1    3    3  502    0 -0.90905636870E+01 -0.62127599827E+02  0.18915300606E+03  0.19935753487E+03  0.47000000000E+01 0.  1.
         -5    1    3    3    0  502  0.43460078547E+02  0.32944261322E+02  0.49508099599E+02  0.73805451745E+02  0.47000000000E+01 0.  1.
        -11    1    1    2    0    0  0.24164311342E+02  0.19186694380E+02 -0.34901977481E+02  0.46585311161E+02  0.00000000000E+00 0.  1.
         11    1    1    2    0    0 -0.58533826202E+02  0.99966441263E+01  0.75248256586E+01  0.59856200221E+02  0.00000000000E+00 0. -1.
<mgrwt>
<rscale>  0 0.12464461E+03</rscale>
<asrwt>0</asrwt>
<pdfrwt beam="1">  1        2 0.45452957E-01 0.13288677E+03</pdfrwt>
<pdfrwt beam="2">  1       -2 0.12947734E-01 0.13288677E+03</pdfrwt>
<totfact> 0.46549980E+03</totfact>
</mgrwt>
</event>
<event>
 7    1  0.5206756E-006  0.1285192E+03  0.7546771E-02  0.1233550E+00
         -1   -1    0    0    0  501 -0.00000000000E+00  0.00000000000E+00  0.48705962864E+02  0.48705962864E+02  0.00000000000E+00 0.  1.
          1   -1    0    0  501    0  0.00000000000E+00 -0.00000000000E+00 -0.31888749729E+03  0.31888749729E+03  0.00000000000E+00 0. -1.
         23    2    1    2    0    0  0.17820538648E+01  0.29626155327E+02 -0.16410585311E+03  0.20844165597E+03  0.12504522431E+03 0.  0.
          5    1    3    3  502    0  0.19338771895E+02  0.62609811505E+02 -0.35997277909E+02  0.74912419611E+02  0.47000000000E+01 0.  1.
         -5    1    3    3    0  502 -0.17556718030E+02 -0.32983656178E+02 -0.12810857520E+03  0.13352923636E+03  0.47000000000E+01 0.  1.
        -11    1    1    2    0    0  0.18490524435E+02  0.38805371312E+02 -0.20216839731E+02  0.47502388837E+02  0.00000000000E+00 0.  1.
         11    1    1    2    0    0 -0.20272578300E+02 -0.68431526638E+02 -0.85858841591E+02  0.11164941535E+03  0.00000000000E+00 0. -1.
<mgrwt>
<rscale>  0 0.12597687E+03</rscale>
<asrwt>0</asrwt>
<pdfrwt beam="2">  1        1 0.49059616E-01 0.12851923E+03</pdfrwt>
<pdfrwt beam="1">  1       -1 0.74932249E-02 0.12851923E+03</pdfrwt>
<totfact> 0.73206764E+03</totfact>
</mgrwt>
</event>
<event>
 7    1  0.5206756E-006  0.1365314E+03  0.7546771E-02  0.1230832E+00
          1   -1    0    0  501    0  0.00000000000E+00  0.00000000000E+00  0.32947994539E+03  0.32947994539E+03  0.00000000000E+00 0.  1.
         -1   -1    0    0    0  501 -0.00000000000E+00 -0.00000000000E+00 -0.47382900617E+02  0.47382900617E+02  0.00000000000E+00 0. -1.
         23    2    1    2    0    0  0.20014086412E+02 -0.51206638431E+02  0.20731994882E+03  0.24823857125E+03  0.12497257140E+03 0.  0.
          5    1    3    3  502    0 -0.28692679551E+02 -0.34667239164E+02  0.18755206668E+03  0.19293251423E+03  0.47000000000E+01 0.  1.
         -5    1    3    3    0  502  0.48706765964E+02 -0.16539399267E+02  0.19767882140E+02  0.55306057019E+02  0.47000000000E+01 0.  1.
        -11    1    1    2    0    0 -0.36030089060E+02 -0.23822588594E-01  0.64634823163E+02  0.73998839521E+02  0.00000000000E+00 0.  1.
         11    1    1    2    0    0  0.16016002648E+02  0.51230461020E+02  0.10142272787E+02  0.54625435233E+02  0.00000000000E+00 0. -1.
<mgrwt>
<rscale>  0 0.12775092E+03</rscale>
<asrwt>0</asrwt>
<pdfrwt beam="1">  1        1 0.50689221E-01 0.13653141E+03</pdfrwt>
<pdfrwt beam="2">  1       -1 0.72896772E-02 0.13653141E+03</pdfrwt>
<totfact> 0.73565795E+03</totfact>
</mgrwt>
</event>
<event>
 7    1  0.5206756E-006  0.1558467E+03  0.7546771E-02  0.1201380E+00
         -4   -1    0    0    0  501 -0.00000000000E+00  0.00000000000E+00  0.39385024126E+02  0.39385024126E+02  0.00000000000E+00 0.  1.
          4   -1    0    0  501    0  0.00000000000E+00 -0.00000000000E+00 -0.52992645947E+03  0.52992645947E+03  0.00000000000E+00 0. -1.
         23    2    1    2    0    0  0.75500709085E+02  0.54453149136E+02 -0.23319209420E+03  0.28047594678E+03  0.12499080527E+03 0.  0.
          5    1    3    3  502    0 -0.23171470322E+02 -0.20936765939E+02 -0.47054395064E+02  0.56669844712E+02  0.47000000000E+01 0. -1.
         -5    1    3    3    0  502  0.98672179407E+02  0.75389915075E+02 -0.18613769914E+03  0.22380610207E+03  0.47000000000E+01 0. -1.
        -11    1    1    2    0    0 -0.17417432593E+02  0.26021779995E+02 -0.73905954112E+02  0.80265746402E+02  0.00000000000E+00 0.  1.
         11    1    1    2    0    0 -0.58083276492E+02 -0.80474929131E+02 -0.18344338703E+03  0.20856979041E+03  0.00000000000E+00 0. -1.
<mgrwt>
<rscale>  0 0.14926423E+03</rscale>
<asrwt>0</asrwt>
<pdfrwt beam="2">  1        4 0.81527148E-01 0.15584673E+03</pdfrwt>
<pdfrwt beam="1">  1       -4 0.60592345E-02 0.15584673E+03</pdfrwt>
<totfact> 0.40622745E+02</totfact>
</mgrwt>
</event>
<event>
 7    1  0.5206756E-006  0.1366290E+03  0.7546771E-02  0.1229791E+00
          2   -1    0    0  501    0  0.00000000000E+00  0.00000000000E+00  0.20131590152E+02  0.20131590152E+02  0.00000000000E+00 0. -1.
         -2   -1    0    0    0  501 -0.00000000000E+00 -0.00000000000E+00 -0.74807774394E+03  0.74807774394E+03  0.00000000000E+00 0.  1.
         23    2    1    2    0    0 -0.30684956391E+02 -0.45832933666E+02 -0.35806637519E+03  0.38324796917E+03  0.12500100987E+03 0.  0.
          5    1    3    3  502    0  0.17015386755E+02  0.27577216428E+02 -0.32695313060E+02  0.46272019066E+02  0.47000000000E+01 0.  1.
         -5    1    3    3    0  502 -0.47700343145E+02 -0.73410150094E+02 -0.32537106213E+03  0.33697595010E+03  0.47000000000E+01 0.  1.
        -11    1    1    2    0    0 -0.11764193852E+02  0.57885994539E+02 -0.25840548948E+03  0.26507089923E+03  0.00000000000E+00 0.  1.
         11    1    1    2    0    0  0.42449150243E+02 -0.12053060873E+02 -0.11147428911E+03  0.11989046570E+03  0.00000000000E+00 0. -1.
<mgrwt>
<rscale>  0 0.12843841E+03</rscale>
<asrwt>0</asrwt>
<pdfrwt beam="1">  1        2 0.30971681E-02 0.13662898E+03</pdfrwt>
<pdfrwt beam="2">  1       -2 0.11508887E+00 0.13662898E+03</pdfrwt>
<totfact> 0.17705459E+03</totfact>
</mgrwt>
</event>
<event>
 6    1  0.5206756E-006  0.1867534E+03  0.7546771E-02  0.1183707E+00
          2   -1    0    0  501    0  0.00000000000E+00  0.00000000000E+00  0.31675030096E+04  0.31675030096E+04  0.00000000000E+00 0. -1.
         -2   -1    0    0    0  501 -0.00000000000E+00 -0.00000000000E+00 -0.10845599311E+03  0.10845599311E+03  0.00000000000E+00 0.  1.
          5    1    1    2  502    0 -0.31045403375E+02  0.87182893912E+02  0.17169298713E+04  0.17194286688E+04  0.47000000000E+01 0. -1.
         -5    1    1    2    0  502  0.80135178462E+02 -0.47334222618E+02  0.14178921605E+04  0.14209512463E+04  0.47000000000E+01 0.  1.
        -11    1    1    2    0    0 -0.66091785768E+02 -0.26989900018E+02 -0.86138148884E+02  0.11187653705E+03  0.00000000000E+00 0.  1.
         11    1    1    2    0    0  0.17002010680E+02 -0.12858771276E+02  0.10363133476E+02  0.23702550524E+02  0.00000000000E+00 0. -1.
<mgrwt>
<rscale>  0 0.16450121E+03</rscale>
<asrwt>0</asrwt>
<pdfrwt beam="1">  1        2 0.48730809E+00 0.18675342E+03</pdfrwt>
<pdfrwt beam="2">  1       -2 0.16685540E-01 0.18675342E+03</pdfrwt>
<totfact> 0.49731650E+01</totfact>
</mgrwt>
</event>
<event>
 7    1  0.5206756E-006  0.1808077E+03  0.7546771E-02  0.1172285E+00
          1   -1    0    0  501    0  0.00000000000E+00  0.00000000000E+00  0.60708059964E+02  0.60708059964E+02  0.00000000000E+00 0. -1.
         -1   -1    0    0    0  501 -0.00000000000E+00 -0.00000000000E+00 -0.47932359104E+03  0.47932359104E+03  0.00000000000E+00 0.  1.
         23    2    1    2    0    0 -0.10631541563E+03  0.75914000189E+02 -0.22710340174E+03  0.29028845868E+03  0.12500212454E+03 0.  0.
          5    1    3    3  502    0 -0.11745084240E+02  0.71582236583E+02 -0.46411149549E+02  0.86244120962E+02  0.47000000000E+01 0.  1.
         -5    1    3    3    0  502 -0.94570331389E+02  0.43317636060E+01 -0.18069225219E+03  0.20404433772E+03  0.47000000000E+01 0.  1.
        -11    1    1    2    0    0  0.11433529030E+03 -0.36572613704E+02 -0.14733480565E+03  0.19004646705E+03  0.00000000000E+00 0. -1.
         11    1    1    2    0    0 -0.80198746678E+01 -0.39341386485E+02 -0.44177323681E+02  0.59696725270E+02  0.00000000000E+00 0.  1.
<mgrwt>
<rscale>  0 0.17544594E+03</rscale>
<asrwt>0</asrwt>
<pdfrwt beam="1">  1        1 0.93397015E-02 0.18080773E+03</pdfrwt>
<pdfrwt beam="2">  1       -1 0.73742091E-01 0.18080773E+03</pdfrwt>
<totfact> 0.13425515E+03</totfact>
</mgrwt>
</event>
<event>
 7    1  0.5206756E-006  0.1388936E+03  0.7546771E-02  0.1225620E+00
         -1   -1    0    0    0  501 -0.00000000000E+00  0.00000000000E+00  0.14186769854E+02  0.14186769854E+02  0.00000000000E+00 0.  1.
          1   -1    0    0  501    0  0.00000000000E+00 -0.00000000000E+00 -0.14296138176E+04  0.14296138176E+04  0.00000000000E+00 0. -1.
         23    2    1    2    0    0 -0.45196740443E+02 -0.40269205308E+02 -0.11149519266E+04  0.11235698630E+04  0.12500833650E+03 0.  0.
          5    1    3    3  502    0 -0.39044991095E+02  0.30807633578E+02 -0.21263364859E+03  0.21842339647E+03  0.47000000000E+01 0.  1.
         -5    1    3    3    0  502 -0.61517493479E+01 -0.71076838885E+02 -0.90231827803E+03  0.90514646655E+03  0.47000000000E+01 0.  1.
        -11    1    1    2    0    0  0.73775050326E+02  0.22903549842E+02 -0.21390972685E+03  0.22743065291E+03  0.00000000000E+00 0. -1.
         11    1    1    2    0    0 -0.28578309883E+02  0.17365655466E+02 -0.86565394313E+02  0.92800071542E+02  0.00000000000E+00 0.  1.
<mgrwt>
<rscale>  0 0.13124530E+03</rscale>
<asrwt>0</asrwt>
<pdfrwt beam="2">  1        1 0.21994057E+00 0.13889362E+03</pdfrwt>
<pdfrwt beam="1">  1       -1 0.21825801E-02 0.13889362E+03</pdfrwt>
<totfact> 0.47324384E+03</totfact>
</mgrwt>
</event>
<event>
 7    1  0.5206756E-006  0.1343066E+03  0.7546771E-02  0.1231366E+00
          1   -1    0    0  501    0  0.00000000000E+00  0.00000000000E+00  0.10748400585E+03  0.10748400585E+03  0.00000000000E+00 0. -1.
         -1   -1    0    0    0  501 -0.00000000000E+00 -0.00000000000E+00 -0.13744709676E+03  0.13744709676E+03  0.00000000000E+00 0.  1.
         23    2    1    2    0    0  0.29704858936E+02 -0.39102526469E+02 -0.18947967711E+02  0.13563662326E+03  0.12500752725E+03 0.  0.
          5    1    3    3  502    0  0.49857816373E+02 -0.80599805770E+01 -0.61057171960E+02  0.79377789010E+02  0.47000000000E+01 0.  1.
         -5    1    3    3    0  502 -0.20152957437E+02 -0.31042545892E+02  0.42109204249E+02  0.56258834252E+02  0.47000000000E+01 0.  1.
        -11    1    1    2    0    0  0.24565866213E+02  0.18884491338E+01 -0.31852879320E+02  0.40269764637E+02  0.00000000000E+00 0.  1.
         11    1    1    2    0    0 -0.54270725149E+02  0.37214077335E+02  0.20837756119E+02  0.69024714705E+02  0.00000000000E+00 0. -1.
<mgrwt>
<rscale>  0 0.12739970E+03</rscale>
<asrwt>0</asrwt>
<pdfrwt beam="1">  1        1 0.16536001E-01 0.13430662E+03</pdfrwt>
<pdfrwt beam="2">  1       -1 0.21145707E-01 0.13430662E+03</pdfrwt>
<totfact> 0.57313072E+03</totfact>
</mgrwt>
</event>
<event>
 7    1  0.5206756E-006  0.1501312E+03  0.7546771E-02  0.1211629E+00
          1   -1    0    0  501    0  0.00000000000E+00  0.00000000000E+00  0.20632168062E+04  0.20632168062E+04  0.00000000000E+00 0. -1.
         -1   -1    0    0    0  501 -0.00000000000E+00 -0.00000000000E+00 -0.11154282847E+02  0.11154282847E+02  0.00000000000E+00 0.  1.
         23    2    1    2    0    0 -0.54492709473E+02  0.62810552926E+02  0.16073135410E+04  0.16143098246E+04  0.12499907978E+03 0.  0.
          5    1    3    3  502    0 -0.68431843495E+02  0.41622451400E+02  0.15420216138E+04  0.15441075394E+04  0.47000000000E+01 0.  1.
         -5    1    3    3    0  502  0.13939134022E+02  0.21188101526E+02  0.65291927187E+02  0.70202285286E+02  0.47000000000E+01 0.  1.
        -11    1    1    2    0    0  0.72189405677E+02 -0.47780787497E+02  0.40391625120E+03  0.41308915736E+03  0.00000000000E+00 0. -1.
         11    1    1    2    0    0 -0.17696696204E+02 -0.15029765429E+02  0.40832731131E+02  0.46972107010E+02  0.00000000000E+00 0.  1.
<mgrwt>
<rscale>  0 0.14127099E+03</rscale>
<asrwt>0</asrwt>
<pdfrwt beam="1">  1        1 0.31741767E+00 0.15013125E+03</pdfrwt>
<pdfrwt beam="2">  1       -1 0.17160451E-02 0.15013125E+03</pdfrwt>
<totfact> 0.26317014E+03</totfact>
</mgrwt>
</event>
<event>
 7    1  0.5206756E-006  0.1345597E+03  0.7546771E-02  0.1229265E+00
         -2   -1    0    0    0  501 -0.00000000000E+00  0.00000000000E+00  0.23861561431E+02  0.23861561431E+02  0.00000000000E+00 0.  1.
          2   -1    0    0  501    0  0.00000000000E+00 -0.00000000000E+00 -0.71856125014E+03  0.71856125014E+03  0.00000000000E+00 0. -1.
         23    2    1    2    0    0 -0.38508225408E+02  0.62788006289E+02 -0.49549474503E+03  0.51344070519E+03  0.11261038245E+03 0.  0.
          5    1    3    3  502    0 -0.37604060612E+01  0.81691498314E+02 -0.42168764631E+03  0.42956978781E+03  0.47000000000E+01 0. -1.
         -5    1    3    3    0  502 -0.34747819347E+02 -0.18903492025E+02 -0.73807098719E+02  0.83870917375E+02  0.47000000000E+01 0.  1.
        -11    1    1    2    0    0  0.63001570465E+02 -0.61968113156E+02 -0.15340958776E+03  0.17704165201E+03  0.00000000000E+00 0.  1.
         11    1    1    2    0    0 -0.24493345057E+02 -0.81989313335E+00 -0.45795355918E+02  0.51940454373E+02  0.00000000000E+00 0. -1.
<mgrwt>
<rscale>  0 0.12878814E+03</rscale>
<asrwt>0</asrwt>
<pdfrwt beam="2">  1        2 0.11054790E+00 0.13455971E+03</pdfrwt>
<pdfrwt beam="1">  1       -2 0.36710090E-02 0.13455971E+03</pdfrwt>
<totfact> 0.12125112E+04</totfact>
</mgrwt>
</event>
<event>
 7    1  0.5206756E-006  0.1657574E+03  0.7546771E-02  0.1188977E+00
          1   -1    0    0  501    0  0.00000000000E+00  0.00000000000E+00  0.42225153266E+02  0.42225153266E+02  0.00000000000E+00 0. -1.
         -1   -1    0    0    0  501 -0.00000000000E+00 -0.00000000000E+00 -0.57841658503E+03  0.57841658503E+03  0.00000000000E+00 0.  1.
         23    2    1    2    0    0  0.62741875868E+02 -0.88962510417E+02 -0.23929766315E+03  0.29109941858E+03  0.12499851465E+03 0.  0.
          5    1    3    3  502    0 -0.27514135577E+02  0.55708237117E+01 -0.80463133825E+02  0.85349092779E+02  0.47000000000E+01 0. -1.
         -5    1    3    3    0  502  0.90256011445E+02 -0.94533334129E+02 -0.15883452932E+03  0.20575032580E+03  0.47000000000E+01 0. -1.
        -11    1    1    2    0    0 -0.24566811279E+02  0.99979701387E+02 -0.22387288104E+03  0.24641131421E+03  0.00000000000E+00 0.  1.
         11    1    1    2    0    0 -0.38175064589E+02 -0.11017190970E+02 -0.73020887575E+02  0.83131005500E+02  0.00000000000E+00 0. -1.
<mgrwt>
<rscale>  0 0.15975232E+03</rscale>
<asrwt>0</asrwt>
<pdfrwt beam="1">  1        1 0.64961776E-02 0.16575735E+03</pdfrwt>
<pdfrwt beam="2">  1       -1 0.88987164E-01 0.16575735E+03</pdfrwt>
<totfact> 0.14831931E+03</totfact>
</mgrwt>
</event>
<event>
 6    1  0.5206756E-006  0.3346263E+03  0.7546771E-02  0.1106848E+00
         -2   -1    0    0    0  501 -0.00000000000E+00  0.00000000000E+00  0.45751360728E+02  0.45751360728E+02  0.00000000000E+00 0.  1.
          2   -1    0    0  501    0  0.00000000000E+00 -0.00000000000E+00 -0.22363380223E+04  0.22363380223E+04  0.00000000000E+00 0. -1.
          5    1    1    2  502    0 -0.13989927343E+03 -0.12640215768E+03 -0.85585927634E+03  0.87639403414E+03  0.47000000000E+01 0. -1.
         -5    1    1    2    0  502  0.59805051339E+02  0.10547925306E+03 -0.12512897441E+04  0.12571597475E+04  0.47000000000E+01 0.  1.
        -11    1    1    2    0    0  0.58111897929E+02 -0.24473575922E+02 -0.74000719567E+02  0.97221680173E+02  0.00000000000E+00 0.  1.
         11    1    1    2    0    0  0.21982324158E+02  0.45396480547E+02 -0.94369215298E+01  0.51313921205E+02  0.00000000000E+00 0. -1.
<mgrwt>
<rscale>  0 0.26049278E+03</rscale>
<asrwt>0</asrwt>
<pdfrwt beam="2">  1        2 0.34405195E+00 0.33462628E+03</pdfrwt>
<pdfrwt beam="1">  1       -2 0.70386720E-02 0.33462628E+03</pdfrwt>
<totfact> 0.63738644E+02</totfact>
</mgrwt>
</event>
<event>
 7    1  0.5206756E-006  0.1361820E+03  0.7546771E-02  0.1229865E+00
          2   -1    0    0  501    0  0.00000000000E+00  0.00000000000E+00  0.54526583481E+03  0.54526583481E+03  0.00000000000E+00 0. -1.
         -2   -1    0    0    0  501 -0.00000000000E+00 -0.00000000000E+00 -0.39942614769E+02  0.39942614769E+02  0.00000000000E+00 0.  1.
         23    2    1    2    0    0  0.53696610333E+02 -0.64790548423E+01  0.43707763246E+03  0.45780170388E+03  0.12498095525E+03 0.  0.
          5    1    3    3  502    0 -0.25270676940E+02  0.59238299310E+00  0.28569499607E+03  0.28684957523E+03  0.47000000000E+01 0.  1.
         -5    1    3    3    0  502  0.78967287273E+02 -0.70714378354E+01  0.15138263638E+03  0.17095212865E+03  0.47000000000E+01 0.  1.
        -11    1    1    2    0    0  0.22197558029E+02  0.17490933888E+02  0.31658581490E+02  0.42437367174E+02  0.00000000000E+00 0. -1.
         11    1    1    2    0    0 -0.75894168362E+02 -0.11011879046E+02  0.36587006100E+02  0.84969378525E+02  0.00000000000E+00 0.  1.
<mgrwt>
<rscale>  0 0.12838966E+03</rscale>
<asrwt>0</asrwt>
<pdfrwt beam="1">  1        2 0.83887046E-01 0.13618202E+03</pdfrwt>
<pdfrwt beam="2">  1       -2 0.61450180E-02 0.13618202E+03</pdfrwt>
<totfact> 0.77066007E+03</totfact>
</mgrwt>
</event>
<event>
 7    1  0.5206756E-006  0.1362630E+03  0.7546771E-02  0.1231068E+00
         -2   -1    0    0    0  501 -0.00000000000E+00  0.00000000000E+00  0.34041517270E+02  0.34041517270E+02  0.00000000000E+00 0. -1.
          2   -1    0    0  501    0  0.00000000000E+00 -0.00000000000E+00 -0.44628887858E+03  0.44628887858E+03  0.00000000000E+00 0.  1.
         23    2    1    2    0    0  0.42691294650E+02  0.33230063174E+02 -0.28186050009E+03  0.31307020907E+03  0.12506330621E+03 0.  0.
          5    1    3    3  502    0 -0.63490922202E+01 -0.42598411823E+02 -0.12118433089E+03  0.12869602836E+03  0.47000000000E+01 0.  1.
         -5    1    3    3    0  502  0.49040386870E+02  0.75828474996E+02 -0.16067616919E+03  0.18437418071E+03  0.47000000000E+01 0.  1.
        -11    1    1    2    0    0 -0.53402152580E+02  0.12678394799E+02 -0.88819468425E+02  0.10440991124E+03  0.00000000000E+00 0.  1.
         11    1    1    2    0    0  0.10710857930E+02 -0.45908457972E+02 -0.41567392793E+02  0.62850275533E+02  0.00000000000E+00 0. -1.
<mgrwt>
<rscale>  0 0.12759548E+03</rscale>
<asrwt>0</asrwt>
<pdfrwt beam="2">  1        2 0.68659821E-01 0.13626303E+03</pdfrwt>
<pdfrwt beam="1">  1       -2 0.52371570E-02 0.13626303E+03</pdfrwt>
<totfact> 0.12224072E+04</totfact>
</mgrwt>
</event>
<event>
 7    1  0.5206756E-006  0.1342321E+03  0.7546771E-02  0.1234003E+00
          2   -1    0    0  501    0  0.00000000000E+00  0.00000000000E+00  0.39958979611E+02  0.39958979611E+02  0.00000000000E+00 0. -1.
         -2   -1    0    0    0  501 -0.00000000000E+00 -0.00000000000E+00 -0.35308444920E+03  0.35308444920E+03  0.00000000000E+00 0.  1.
         23    2    1    2    0    0 -0.11532798221E+02  0.47566669457E+02 -0.16992517629E+03  0.21654749311E+03  0.12499063067E+03 0.  0.
          5    1    3    3  502    0 -0.24261948391E+02 -0.30429731918E+02 -0.13910557435E+02  0.41595724930E+02  0.47000000000E+01 0. -1.
         -5    1    3    3    0  502  0.12729150170E+02  0.77996401375E+02 -0.15601461885E+03  0.17495176817E+03  0.47000000000E+01 0. -1.
        -11    1    1    2    0    0 -0.35641194613E+02 -0.42695400742E+02 -0.81706714755E+02  0.98839158404E+02  0.00000000000E+00 0.  1.
         11    1    1    2    0    0  0.47173992834E+02 -0.48712687152E+01 -0.61493578549E+02  0.77656777306E+02  0.00000000000E+00 0. -1.
<mgrwt>
<rscale>  0 0.12568483E+03</rscale>
<asrwt>0</asrwt>
<pdfrwt beam="1">  1        2 0.61475355E-02 0.13423208E+03</pdfrwt>
<pdfrwt beam="2">  1       -2 0.54320683E-01 0.13423208E+03</pdfrwt>
<totfact> 0.37028079E+03</totfact>
</mgrwt>
</event>
<event>
 7    1  0.5206756E-006  0.2499677E+03  0.7546771E-02  0.1115644E+00
          2   -1    0    0  501    0  0.00000000000E+00  0.00000000000E+00  0.10315691655E+03  0.10315691655E+03  0.00000000000E+00 0. -1.
         -2   -1    0    0    0  501 -0.00000000000E+00 -0.00000000000E+00 -0.58033963817E+03  0.58033963817E+03  0.00000000000E+00 0.  1.
         23    2    1    2    0    0  0.16932600310E+03  0.13485689587E+03 -0.20391451137E+03  0.32259102741E+03  0.12500466122E+03 0.  0.
          5    1    3    3  502    0  0.15917024903E+03  0.12344680172E+03 -0.11447437534E+03  0.23173423062E+03  0.47000000000E+01 0. -1.
         -5    1    3    3    0  502  0.10155754070E+02  0.11410094153E+02 -0.89440136036E+02  0.90856796792E+02  0.47000000000E+01 0. -1.
        -11    1    1    2    0    0 -0.15737412974E+03 -0.14382933168E+03 -0.22322879672E+03  0.30868201931E+03  0.00000000000E+00 0. -1.
         11    1    1    2    0    0 -0.11951873364E+02  0.89724358058E+01 -0.50039413527E+02  0.52223507995E+02  0.00000000000E+00 0.  1.
<mgrwt>
<rscale>  0 0.24633440E+03</rscale>
<asrwt>0</asrwt>
<pdfrwt beam="1">  1        2 0.15870295E-01 0.24996768E+03</pdfrwt>
<pdfrwt beam="2">  1       -2 0.89283020E-01 0.24996768E+03</pdfrwt>
<totfact> 0.40611996E+02</totfact>
</mgrwt>
</event>
<event>
 7    1  0.5206756E-006  0.1383420E+03  0.7546771E-02  0.1227405E+00
          2   -1    0    0  501    0  0.00000000000E+00  0.00000000000E+00  0.40912233227E+03  0.40912233227E+03  0.00000000000E+00 0. -1.
         -2   -1    0    0    0  501 -0.00000000000E+00 -0.00000000000E+00 -0.37821858307E+02  0.37821858307E+02  0.00000000000E+00 0.  1.
         23    2    1    2    0    0 -0.58659371819E+02 -0.85300360007E+01  0.23918872839E+03  0.27631461966E+03  0.12499935132E+03 0.  0.
          5    1    3    3  502    0  0.50106900311E+01  0.43362036485E+02  0.14377344375E+03  0.15032719764E+03  0.47000000000E+01 0. -1.
         -5    1    3    3    0  502 -0.63670061850E+02 -0.51892072486E+02  0.95415284644E+02  0.12598742202E+03  0.47000000000E+01 0. -1.
        -11    1    1    2    0    0  0.69575344270E+02  0.33905464957E+02  0.11328663422E+03  0.13720120472E+03  0.00000000000E+00 0. -1.
         11    1    1    2    0    0 -0.10915972452E+02 -0.25375428956E+02  0.18825111351E+02  0.33428366198E+02  0.00000000000E+00 0.  1.
<mgrwt>
<rscale>  0 0.13003412E+03</rscale>
<asrwt>0</asrwt>
<pdfrwt beam="1">  1        2 0.62941894E-01 0.13834204E+03</pdfrwt>
<pdfrwt beam="2">  1       -2 0.58187477E-02 0.13834204E+03</pdfrwt>
<totfact> 0.11462823E+04</totfact>
</mgrwt>
</event>
<event>
 6    1  0.5206756E-006  0.1358483E+03  0.7546771E-02  0.1234602E+00
         -2   -1    0    0    0  501 -0.00000000000E+00  0.00000000000E+00  0.22934664689E+02  0.22934664689E+02  0.00000000000E+00 0.  1.
          2   -1    0    0  501    0  0.00000000000E+00 -0.00000000000E+00 -0.68083254609E+03  0.68083254609E+03  0.00000000000E+00 0. -1.
          5    1    1    2  502    0  0.23179099744E+02  0.46088332823E+02 -0.23326617191E+03  0.23894895281E+03  0.47000000000E+01 0. -1.
         -5    1    1    2    0  502 -0.14186966591E+02 -0.80945032288E+02 -0.26351848804E+03  0.27607508365E+03  0.47000000000E+01 0.  1.
        -11    1    1    2    0    0  0.17101039911E+02  0.57265787941E+02 -0.12670078221E+03  0.14008891551E+03  0.00000000000E+00 0. -1.
         11    1    1    2    0    0 -0.26093173064E+02 -0.22409088476E+02 -0.34412439225E+02  0.48654258809E+02  0.00000000000E+00 0.  1.
<mgrwt>
<rscale>  0 0.12529952E+03</rscale>
<asrwt>0</asrwt>
<pdfrwt beam="2">  1        2 0.10474346E+00 0.13584830E+03</pdfrwt>
<pdfrwt beam="1">  1       -2 0.35284104E-02 0.13584830E+03</pdfrwt>
<totfact> 0.13715928E+04</totfact>
</mgrwt>
</event>
<event>
 7    1  0.5206756E-006  0.1300260E+03  0.7546771E-02  0.1237299E+00
         -2   -1    0    0    0  501 -0.00000000000E+00  0.00000000000E+00  0.32815659757E+02  0.32815659757E+02  0.00000000000E+00 0.  1.
          2   -1    0    0  501    0  0.00000000000E+00 -0.00000000000E+00 -0.43771909056E+03  0.43771909056E+03  0.00000000000E+00 0. -1.
         23    2    1    2    0    0  0.34717759172E+02  0.85855581902E+01 -0.26256203230E+03  0.29299416886E+03  0.12501090982E+03 0.  0.
          5    1    3    3  502    0 -0.19153995153E+02 -0.21457167658E+02 -0.20942867255E+03  0.21144678872E+03  0.47000000000E+01 0. -1.
         -5    1    3    3    0  502  0.53871754325E+02  0.30042725848E+02 -0.53133359747E+02  0.81547380145E+02  0.47000000000E+01 0. -1.
        -11    1    1    2    0    0 -0.51500240194E+02 -0.10577617792E+02 -0.15002867681E+03  0.15897410042E+03  0.00000000000E+00 0. -1.
         11    1    1    2    0    0  0.16782481022E+02  0.19920596019E+01  0.76872782947E+01  0.18566481043E+02  0.00000000000E+00 0.  1.
<mgrwt>
<rscale>  0 0.12358420E+03</rscale>
<asrwt>0</asrwt>
<pdfrwt beam="2">  1        2 0.67341394E-01 0.13002601E+03</pdfrwt>
<pdfrwt beam="1">  1       -2 0.50485634E-02 0.13002601E+03</pdfrwt>
<totfact> 0.13142357E+04</totfact>
</mgrwt>
</event>
<event>
 7    1  0.5206756E-006  0.1357124E+03  0.7546771E-02  0.1229137E+00
         -1   -1    0    0    0  501 -0.00000000000E+00  0.00000000000E+00  0.39857290160E+03  0.39857290160E+03  0.00000000000E+00 0.  1.
          1   -1    0    0  501    0  0.00000000000E+00 -0.00000000000E+00 -0.38101941024E+02  0.38101941024E+02  0.00000000000E+00 0. -1.
         23    2    1    2    0    0 -0.52841121128E+02 -0.90504559790E+00  0.18641555870E+03  0.23058323552E+03  0.12499945915E+03 0.  0.
          5    1    3    3  502    0  0.16193104283E+02  0.41793653736E+02  0.29529844152E+02  0.53879753290E+02  0.47000000000E+01 0. -1.
         -5    1    3    3    0  502 -0.69034225411E+02 -0.42698699334E+02  0.15688571455E+03  0.17670348223E+03  0.47000000000E+01 0. -1.
        -11    1    1    2    0    0  0.73925847997E+02  0.23687991828E+02  0.13946840822E+03  0.15961700677E+03  0.00000000000E+00 0. -1.
         11    1    1    2    0    0 -0.21084726869E+02 -0.22782946231E+02  0.34586993659E+02  0.46474600336E+02  0.00000000000E+00 0.  1.
<mgrwt>
<rscale>  0 0.12887356E+03</rscale>
<asrwt>0</asrwt>
<pdfrwt beam="2">  1        1 0.58618374E-02 0.13571245E+03</pdfrwt>
<pdfrwt beam="1">  1       -1 0.61318905E-01 0.13571245E+03</pdfrwt>
<totfact> 0.35716061E+03</totfact>
</mgrwt>
</event>
<event>
 7    1  0.5206756E-006  0.1317830E+03  0.7546771E-02  0.1236977E+00
          1   -1    0    0  501    0  0.00000000000E+00  0.00000000000E+00  0.14254233395E+03  0.14254233395E+03  0.00000000000E+00 0. -1.
         -1   -1    0    0    0  501 -0.00000000000E+00 -0.00000000000E+00 -0.10616460886E+03  0.10616460886E+03  0.00000000000E+00 0.  1.
         23    2    1    2    0    0  0.22497287105E+02 -0.35165560352E+02  0.57797023037E+02  0.14390014360E+03  0.12499604352E+03 0.  0.
          5    1    3    3  502    0 -0.19375430203E+02  0.32865511406E+02  0.50612943176E+02  0.63555559572E+02  0.47000000000E+01 0. -1.
         -5    1    3    3    0  502  0.41872717308E+02 -0.68031071759E+02  0.71840798614E+01  0.80344584029E+02  0.47000000000E+01 0. -1.
        -11    1    1    2    0    0  0.19400766822E+02 -0.23511514137E+02 -0.70986470827E+01  0.31298112415E+02  0.00000000000E+00 0.  1.
         11    1    1    2    0    0 -0.41898053927E+02  0.58677074490E+02 -0.14320650867E+02  0.73508686799E+02  0.00000000000E+00 0. -1.
<mgrwt>
<rscale>  0 0.12378721E+03</rscale>
<asrwt>0</asrwt>
<pdfrwt beam="1">  1        1 0.21929590E-01 0.13178299E+03</pdfrwt>
<pdfrwt beam="2">  1       -1 0.16333017E-01 0.13178299E+03</pdfrwt>
<totfact> 0.60293507E+03</totfact>
</mgrwt>
</event>
<event>
 7    1  0.5206756E-006  0.1325587E+03  0.7546771E-02  0.1238476E+00
          1   -1    0    0  501    0  0.00000000000E+00  0.00000000000E+00  0.98254844964E+03  0.98254844964E+03  0.00000000000E+00 0. -1.
         -1   -1    0    0    0  501 -0.00000000000E+00 -0.00000000000E+00 -0.13691155141E+02  0.13691155141E+02  0.00000000000E+00 0.  1.
         23    2    1    2    0    0 -0.36303190140E+02  0.25034795985E+02  0.61500909759E+03  0.62913272545E+03  0.12500853367E+03 0.  0.
          5    1    3    3  502    0 -0.29262116095E+02  0.17600278395E+00  0.59594554853E+03  0.59668206712E+03  0.47000000000E+01 0.  1.
         -5    1    3    3    0  502 -0.70410740452E+01  0.24858793201E+02  0.19063549062E+02  0.32450658329E+02  0.47000000000E+01 0.  1.
        -11    1    1    2    0    0  0.11299118131E+02  0.22625709887E+02  0.31988103852E+02  0.40777832293E+02  0.00000000000E+00 0.  1.
         11    1    1    2    0    0  0.25004072009E+02 -0.47660505872E+02  0.32186009305E+03  0.32632904703E+03  0.00000000000E+00 0. -1.
<mgrwt>
<rscale>  0 0.12284490E+03</rscale>
<asrwt>0</asrwt>
<pdfrwt beam="1">  1        1 0.15116124E+00 0.13255865E+03</pdfrwt>
<pdfrwt beam="2">  1       -1 0.21063323E-02 0.13255865E+03</pdfrwt>
<totfact> 0.10084774E+04</totfact>
</mgrwt>
</event>
<event>
 7    1  0.5206756E-006  0.1323528E+03  0.7546771E-02  0.1236930E+00
         -1   -1    0    0    0  501 -0.00000000000E+00  0.00000000000E+00  0.32538544629E+03  0.32538544629E+03  0.00000000000E+00 0.  1.
          1   -1    0    0  501    0  0.00000000000E+00 -0.00000000000E+00 -0.42606921851E+02  0.42606921851E+02  0.00000000000E+00 0. -1.
         23    2    1    2    0    0  0.41557749134E+02  0.12922988828E+02  0.18212690990E+03  0.22513877551E+03  0.12499282690E+03 0.  0.
          5    1    3    3  502    0  0.50423337401E+01  0.26818373299E+02 -0.96826225989E+01  0.29334168752E+02  0.47000000000E+01 0.  1.
         -5    1    3    3    0  502  0.36515415394E+02 -0.13895384472E+02  0.19180953249E+03  0.19580460676E+03  0.47000000000E+01 0.  1.
        -11    1    1    2    0    0 -0.45358791712E+02 -0.39799631466E+02  0.98641038869E+02  0.11563513826E+03  0.00000000000E+00 0.  1.
         11    1    1    2    0    0  0.38010425788E+01  0.26876642639E+02  0.20105756756E+01  0.27218454379E+02  0.00000000000E+00 0. -1.
<mgrwt>
<rscale>  0 0.12381690E+03</rscale>
<asrwt>0</asrwt>
<pdfrwt beam="2">  1        1 0.65549113E-02 0.13235277E+03</pdfrwt>
<pdfrwt beam="1">  1       -1 0.50059298E-01 0.13235277E+03</pdfrwt>
<totfact> 0.44745128E+03</totfact>
</mgrwt>
</event>
<event>
 7    1  0.5206756E-006  0.1829178E+03  0.7546771E-02  0.1170242E+00
          1   -1    0    0  501    0  0.00000000000E+00  0.00000000000E+00  0.20549631833E+03  0.20549631833E+03  0.00000000000E+00 0. -1.
         -1   -1    0    0    0  501 -0.00000000000E+00 -0.00000000000E+00 -0.15279071964E+03  0.15279071964E+03  0.00000000000E+00 0.  1.
         23    2    1    2    0    0 -0.89980500551E+02  0.98676016176E+02  0.68492839639E+02  0.19532076044E+03  0.12500193490E+03 0.  0.
          5    1    3    3  502    0 -0.61889179094E+02  0.68744505202E+02  0.10512338995E+03  0.14010387075E+03  0.47000000000E+01 0.  1.
         -5    1    3    3    0  502 -0.28091321457E+02  0.29931510974E+02 -0.36630550316E+02  0.55216889688E+02  0.47000000000E+01 0.  1.
        -11    1    1    2    0    0  0.68455188072E+02 -0.91396594349E+02 -0.47731336050E+02  0.12376482002E+03  0.00000000000E+00 0.  1.
         11    1    1    2    0    0  0.21525312479E+02 -0.72794218268E+01  0.31944095104E+02  0.39201457517E+02  0.00000000000E+00 0. -1.
<mgrwt>
<rscale>  0 0.17750255E+03</rscale>
<asrwt>0</asrwt>
<pdfrwt beam="1">  1        1 0.31614818E-01 0.18291782E+03</pdfrwt>
<pdfrwt beam="2">  1       -1 0.23506265E-01 0.18291782E+03</pdfrwt>
<totfact> 0.21545499E+03</totfact>
</mgrwt>
</event>
<event>
 7    1  0.5206756E-006  0.1336164E+03  0.7546771E-02  0.1235097E+00
         -1   -1    0    0    0  501 -0.00000000000E+00  0.00000000000E+00  0.84263539977E+02  0.84263539977E+02  0.00000000000E+00 0.  1.
          1   -1    0    0  501    0  0.00000000000E+00 -0.00000000000E+00 -0.16547015445E+03  0.16547015445E+03  0.00000000000E+00 0. -1.
         23    2    1    2    0    0 -0.32876936440E+02  0.33821281103E+02 -0.51786046112E+02  0.14330082884E+03  0.12501424307E+03 0.  0.
          5    1    3    3  502    0 -0.50328060457E+02  0.41920350864E+02 -0.83305355375E+02  0.10607592432E+03  0.47000000000E+01 0. -1.
         -5    1    3    3    0  502  0.17451124016E+02 -0.80990697604E+01  0.31519309263E+02  0.37224904524E+02  0.47000000000E+01 0. -1.
        -11    1    1    2    0    0  0.22290043161E+02  0.18139273375E+02  0.19140702508E+02  0.34528911874E+02  0.00000000000E+00 0.  1.
         11    1    1    2    0    0  0.10586893279E+02 -0.51960554478E+02 -0.48561270869E+02  0.71903953712E+02  0.00000000000E+00 0. -1.
<mgrwt>
<rscale>  0 0.12498232E+03</rscale>
<asrwt>0</asrwt>
<pdfrwt beam="2">  1        1 0.25456946E-01 0.13361636E+03</pdfrwt>
<pdfrwt beam="1">  1       -1 0.12963622E-01 0.13361636E+03</pdfrwt>
<totfact> 0.71779838E+03</totfact>
</mgrwt>
</event>
<event>
 7    1  0.5206756E-006  0.1263951E+03  0.7546771E-02  0.1247087E+00
          2   -1    0    0  501    0  0.00000000000E+00  0.00000000000E+00  0.55857684449E+03  0.55857684449E+03  0.00000000000E+00 0. -1.
         -2   -1    0    0    0  501 -0.00000000000E+00 -0.00000000000E+00 -0.22432639596E+02  0.22432639596E+02  0.00000000000E+00 0.  1.
         23    2    1    2    0    0  0.13706503282E+02 -0.12768921534E+02  0.35018483648E+03  0.37229712043E+03  0.12499925037E+03 0.  0.
          5    1    3    3  502    0  0.34711007764E+02 -0.43030049994E+02  0.68392793184E+02  0.88068742594E+02  0.47000000000E+01 0.  1.
         -5    1    3    3    0  502 -0.21004504482E+02  0.30261128460E+02  0.28179204329E+03  0.28422837783E+03  0.47000000000E+01 0.  1.
        -11    1    1    2    0    0  0.43412984102E+01 -0.33098267858E+02  0.12964484217E+03  0.13387354970E+03  0.00000000000E+00 0. -1.
         11    1    1    2    0    0 -0.18047801692E+02  0.45867189392E+02  0.56314526249E+02  0.74838813963E+02  0.00000000000E+00 0.  1.
<mgrwt>
<rscale>  0 0.11761347E+03</rscale>
<asrwt>0</asrwt>
<pdfrwt beam="1">  1        2 0.85934889E-01 0.12639512E+03</pdfrwt>
<pdfrwt beam="2">  1       -2 0.34511757E-02 0.12639512E+03</pdfrwt>
<totfact> 0.17676149E+04</totfact>
</mgrwt>
</event>
<event>
 7    1  0.5206756E-006  0.1751506E+03  0.7546771E-02  0.1178568E+00
          2   -1    0    0  501    0  0.00000000000E+00  0.00000000000E+00  0.30034984363E+03  0.30034984363E+03  0.00000000000E+00 0. -1.
         -2   -1    0    0    0  501 -0.00000000000E+00 -0.00000000000E+00 -0.90068319492E+02  0.90068319492E+02  0.00000000000E+00 0.  1.
         23    2    1    2    0    0  0.10725896360E+03 -0.59563913649E+02  0.12631925319E+03  0.21594970765E+03  0.12500150969E+03 0.  0.
          5    1    3    3  502    0  0.46350116399E+02 -0.72711641199E+02  0.12685489115E+03  0.15345868977E+03  0.47000000000E+01 0. -1.
         -5    1    3    3    0  502  0.60908847205E+02  0.13147727550E+02 -0.53563796243E+00  0.62491017879E+02  0.47000000000E+01 0. -1.
        -11    1    1    2    0    0 -0.53455025936E+02  0.10250766815E+02  0.85631323548E+02  0.10146546994E+03  0.00000000000E+00 0. -1.
         11    1    1    2    0    0 -0.53803937668E+02  0.49313146835E+02 -0.16690526042E+01  0.73002985528E+02  0.00000000000E+00 0.  1.
<mgrwt>
<rscale>  0 0.16931150E+03</rscale>
<asrwt>0</asrwt>
<pdfrwt beam="1">  1        2 0.46207668E-01 0.17515057E+03</pdfrwt>
<pdfrwt beam="2">  1       -2 0.13856665E-01 0.17515057E+03</pdfrwt>
<totfact> 0.41573765E+03</totfact>
</mgrwt>
</event>
<event>
 7    1  0.5206756E-006  0.2289198E+03  0.7546771E-02  0.1130438E+00
          2   -1    0    0  501    0  0.00000000000E+00  0.00000000000E+00  0.88083524117E+03  0.88083524117E+03  0.00000000000E+00 0. -1.
         -2   -1    0    0    0  501 -0.00000000000E+00 -0.00000000000E+00 -0.87051321597E+02  0.87051321597E+02  0.00000000000E+00 0.  1.
         23    2    1    2    0    0  0.16246985954E+02  0.19112421146E+03  0.69849552650E+03  0.73505120283E+03  0.12494735481E+03 0.  0.
          5    1    3    3  502    0  0.93146097493E+01  0.19734865287E+03  0.69704166176E+03  0.72451530072E+03  0.47000000000E+01 0. -1.
         -5    1    3    3    0  502  0.69323762045E+01 -0.62244414015E+01  0.14538647415E+01  0.10535902111E+02  0.47000000000E+01 0. -1.
        -11    1    1    2    0    0 -0.35592073208E+02 -0.18483027480E+03  0.71045090730E+02  0.20118755199E+03  0.00000000000E+00 0.  1.
         11    1    1    2    0    0  0.19345087254E+02 -0.62939366596E+01  0.24243302338E+02  0.31647807946E+02  0.00000000000E+00 0. -1.
<mgrwt>
<rscale>  0 0.22468475E+03</rscale>
<asrwt>0</asrwt>
<pdfrwt beam="1">  1        2 0.13551311E+00 0.22891979E+03</pdfrwt>
<pdfrwt beam="2">  1       -2 0.13392512E-01 0.22891979E+03</pdfrwt>
<totfact> 0.12926541E+03</totfact>
</mgrwt>
</event>
<event>
 7    1  0.5206756E-006  0.3113058E+03  0.7546771E-02  0.1081183E+00
          2   -1    0    0  501    0  0.00000000000E+00  0.00000000000E+00  0.10476707672E+04  0.10476707672E+04  0.00000000000E+00 0. -1.
         -2   -1    0    0    0  501 -0.00000000000E+00 -0.00000000000E+00 -0.10346623964E+03  0.10346623964E+03  0.00000000000E+00 0.  1.
         23    2    1    2    0    0 -0.26773317159E+03 -0.98001300283E+02  0.69550709901E+03  0.76199832604E+03  0.12500407233E+03 0.  0.
          5    1    3    3  502    0 -0.13926064739E+03 -0.91785378120E+02  0.50693651944E+03  0.53368980531E+03  0.47000000000E+01 0.  1.
         -5    1    3    3    0  502 -0.12847252420E+03 -0.62159221623E+01  0.18857057956E+03  0.22830852073E+03  0.47000000000E+01 0.  1.
        -11    1    1    2    0    0  0.18454596182E+03  0.24193654126E+02  0.17680109489E+03  0.25671223594E+03  0.00000000000E+00 0.  1.
         11    1    1    2    0    0  0.83187209767E+02  0.73807646157E+02  0.71896333630E+02  0.13242644483E+03  0.00000000000E+00 0. -1.
<mgrwt>
<rscale>  0 0.30825911E+03</rscale>
<asrwt>0</asrwt>
<pdfrwt beam="1">  1        2 0.16118011E+00 0.31130584E+03</pdfrwt>
<pdfrwt beam="2">  1       -2 0.15917884E-01 0.31130584E+03</pdfrwt>
<totfact> 0.76154908E+02</totfact>
</mgrwt>
</event>
<event>
 7    1  0.5206756E-006  0.1278546E+03  0.7546771E-02  0.1245460E+00
          2   -1    0    0  501    0  0.00000000000E+00  0.00000000000E+00  0.19033328056E+04  0.19033328056E+04  0.00000000000E+00 0.  1.
         -2   -1    0    0    0  501 -0.00000000000E+00 -0.00000000000E+00 -0.10053455683E+02  0.10053455683E+02  0.00000000000E+00 0. -1.
         23    2    1    2    0    0  0.25975487677E+02 -0.68991861545E+01  0.16028068548E+04  0.16078981991E+04  0.12499792073E+03 0.  0.
          5    1    3    3  502    0  0.92714576940E+01  0.16055550444E+02  0.15220087515E+04  0.15221289269E+04  0.47000000000E+01 0.  1.
         -5    1    3    3    0  502  0.16704029983E+02 -0.22954736599E+02  0.80798103328E+02  0.85769272186E+02  0.47000000000E+01 0.  1.
        -11    1    1    2    0    0  0.20658107514E+02 -0.28628452538E+02  0.12725422981E+03  0.13206053425E+03  0.00000000000E+00 0.  1.
         11    1    1    2    0    0 -0.46633595191E+02  0.35527638692E+02  0.16321826528E+03  0.17342752790E+03  0.00000000000E+00 0. -1.
<mgrwt>
<rscale>  0 0.11857885E+03</rscale>
<asrwt>0</asrwt>
<pdfrwt beam="1">  1        2 0.29282014E+00 0.12785462E+03</pdfrwt>
<pdfrwt beam="2">  1       -2 0.15466870E-02 0.12785462E+03</pdfrwt>
<totfact> 0.92393081E+03</totfact>
</mgrwt>
</event>
<event>
 7    1  0.5206756E-006  0.1550513E+03  0.7546771E-02  0.1202684E+00
         -2   -1    0    0    0  501 -0.00000000000E+00  0.00000000000E+00  0.65896488272E+02  0.65896488272E+02  0.00000000000E+00 0.  1.
          2   -1    0    0  501    0  0.00000000000E+00 -0.00000000000E+00 -0.36047482617E+03  0.36047482617E+03  0.00000000000E+00 0. -1.
         23    2    1    2    0    0  0.50112663259E+02 -0.76858344612E+02 -0.24032643507E+03  0.28600296339E+03  0.12498966167E+03 0.  0.
          5    1    3    3  502    0  0.36371799966E+02  0.29350934580E+02 -0.87779231571E+02  0.99557363810E+02  0.47000000000E+01 0.  1.
         -5    1    3    3    0  502  0.13740863294E+02 -0.10620927919E+03 -0.15254720349E+03  0.18644559958E+03  0.47000000000E+01 0.  1.
        -11    1    1    2    0    0 -0.72042925075E+02  0.45188059303E+02 -0.55970814957E+02  0.10180803448E+03  0.00000000000E+00 0. -1.
         11    1    1    2    0    0  0.21930261816E+02  0.31670285310E+02  0.17189121281E+01  0.38560316568E+02  0.00000000000E+00 0.  1.
<mgrwt>
<rscale>  0 0.14821453E+03</rscale>
<asrwt>0</asrwt>
<pdfrwt beam="2">  1        2 0.55457665E-01 0.15505128E+03</pdfrwt>
<pdfrwt beam="1">  1       -2 0.10137921E-01 0.15505128E+03</pdfrwt>
<totfact> 0.56105379E+03</totfact>
</mgrwt>
</event>
<event>
 6    1  0.5206756E-006  0.2489417E+03  0.7546771E-02  0.1144286E+00
          2   -1    0    0  501    0  0.00000000000E+00  0.00000000000E+00  0.66604911409E+03  0.66604911409E+03  0.00000000000E+00 0. -1.
         -2   -1    0    0    0  501 -0.00000000000E+00 -0.00000000000E+00 -0.12834098426E+03  0.12834098426E+03  0.00000000000E+00 0.  1.
          5    1    1    2  502    0  0.20565554398E+01 -0.10032452416E+03  0.54439018882E+03  0.55358107560E+03  0.47000000000E+01 0. -1.
         -5    1    1    2    0  502  0.58432581317E+02  0.56649998062E+02  0.63585926232E+02  0.10338688918E+03  0.47000000000E+01 0.  1.
        -11    1    1    2    0    0 -0.49440236094E+02 -0.19616100733E+02 -0.39090965047E+02  0.66009331926E+02  0.00000000000E+00 0.  1.
         11    1    1    2    0    0 -0.11048900663E+02  0.63290626834E+02 -0.31177020182E+02  0.71412801642E+02  0.00000000000E+00 0. -1.
<mgrwt>
<rscale>  0 0.20660188E+03</rscale>
<asrwt>0</asrwt>
<pdfrwt beam="1">  1        2 0.10246909E+00 0.24894166E+03</pdfrwt>
<pdfrwt beam="2">  1       -2 0.19744767E-01 0.24894166E+03</pdfrwt>
<totfact> 0.95969255E+02</totfact>
</mgrwt>
</event>
<event>
 7    1  0.5206756E-006  0.1376507E+03  0.7546771E-02  0.1226628E+00
         -2   -1    0    0    0  501 -0.00000000000E+00  0.00000000000E+00  0.15373060756E+02  0.15373060756E+02  0.00000000000E+00 0.  1.
          2   -1    0    0  501    0  0.00000000000E+00 -0.00000000000E+00 -0.14173610741E+04  0.14173610741E+04  0.00000000000E+00 0. -1.
         23    2    1    2    0    0 -0.10837725563E+02  0.56614614133E+02 -0.11367008416E+04  0.11450050316E+04  0.12500019300E+03 0.  0.
          5    1    3    3  502    0  0.33467792629E+02  0.75154691280E+02 -0.87665658333E+03  0.88052096844E+03  0.47000000000E+01 0.  1.
         -5    1    3    3    0  502 -0.44305518192E+02 -0.18540077147E+02 -0.26004425827E+03  0.26448406315E+03  0.47000000000E+01 0.  1.
        -11    1    1    2    0    0  0.28276408983E+02  0.80893385030E+01 -0.16171885006E+03  0.16437146701E+03  0.00000000000E+00 0. -1.
         11    1    1    2    0    0 -0.17438683420E+02 -0.64703952635E+02 -0.10356832170E+03  0.12335763627E+03  0.00000000000E+00 0.  1.
<mgrwt>
<rscale>  0 0.13055954E+03</rscale>
<asrwt>0</asrwt>
<pdfrwt beam="2">  1        2 0.21805550E+00 0.13765071E+03</pdfrwt>
<pdfrwt beam="1">  1       -2 0.23650868E-02 0.13765071E+03</pdfrwt>
<totfact> 0.89036332E+03</totfact>
</mgrwt>
</event>
<event>
 7    1  0.5206756E-006  0.2491360E+03  0.7546771E-02  0.1116452E+00
         -1   -1    0    0    0  501 -0.00000000000E+00  0.00000000000E+00  0.34141347181E+02  0.34141347181E+02  0.00000000000E+00 0.  1.
          1   -1    0    0  501    0  0.00000000000E+00 -0.00000000000E+00 -0.17243080651E+04  0.17243080651E+04  0.00000000000E+00 0. -1.
         23    2    1    2    0    0  0.14224891404E+03  0.16188835415E+03 -0.96695764052E+03  0.99853683469E+03  0.12500455559E+03 0.  0.
          5    1    3    3  502    0  0.10482181813E+03  0.16698446063E+03 -0.64882665929E+03  0.67813682060E+03  0.47000000000E+01 0.  1.
         -5    1    3    3    0  502  0.37427095909E+02 -0.50961064854E+01 -0.31813098123E+03  0.32040001409E+03  0.47000000000E+01 0.  1.
        -11    1    1    2    0    0 -0.19948639340E+02  0.69578452071E+01 -0.11600558817E+03  0.11791376640E+03  0.00000000000E+00 0.  1.
         11    1    1    2    0    0 -0.12230027470E+03 -0.16884619935E+03 -0.60720348919E+03  0.64199881114E+03  0.00000000000E+00 0. -1.
<mgrwt>
<rscale>  0 0.24508281E+03</rscale>
<asrwt>0</asrwt>
<pdfrwt beam="2">  1        1 0.26527815E+00 0.24913597E+03</pdfrwt>
<pdfrwt beam="1">  1       -1 0.52525152E-02 0.24913597E+03</pdfrwt>
<totfact> 0.83464273E+02</totfact>
</mgrwt>
</event>
<event>
 7    1  0.5206756E-006  0.1349047E+03  0.7546771E-02  0.1231854E+00
         -2   -1    0    0    0  501 -0.00000000000E+00  0.00000000000E+00  0.29094497101E+03  0.29094497101E+03  0.00000000000E+00 0. -1.
          2   -1    0    0  501    0  0.00000000000E+00 -0.00000000000E+00 -0.70032421504E+02  0.70032421504E+02  0.00000000000E+00 0.  1.
         23    2    1    2    0    0 -0.38921585199E+02 -0.32557214813E+02  0.23692053163E+02  0.13696933543E+03  0.12499769371E+03 0.  0.
          5    1    3    3  502    0 -0.21158139458E+02 -0.64318351168E+02  0.56067452833E+02  0.88035029559E+02  0.47000000000E+01 0. -1.
         -5    1    3    3    0  502 -0.17763445741E+02  0.31761136355E+02 -0.32375399670E+02  0.48934305870E+02  0.47000000000E+01 0. -1.
        -11    1    1    2    0    0  0.24512210568E+02 -0.26982500740E+02  0.34712334777E+02  0.50337361858E+02  0.00000000000E+00 0.  1.
         11    1    1    2    0    0  0.14409374631E+02  0.59539715554E+02  0.16250816157E+03  0.17367069523E+03  0.00000000000E+00 0. -1.
<mgrwt>
<rscale>  0 0.12707987E+03</rscale>
<asrwt>0</asrwt>
<pdfrwt beam="2">  1        2 0.10774219E-01 0.13490473E+03</pdfrwt>
<pdfrwt beam="1">  1       -2 0.44760764E-01 0.13490473E+03</pdfrwt>
<totfact> 0.26873951E+03</totfact>
</mgrwt>
</event>
<event>
 7    1  0.5206756E-006  0.1410849E+03  0.7546771E-02  0.1219940E+00
         -3   -1    0    0    0  501 -0.00000000000E+00  0.00000000000E+00  0.12356273692E+03  0.12356273692E+03  0.00000000000E+00 0.  1.
          3   -1    0    0  501    0  0.00000000000E+00 -0.00000000000E+00 -0.14977247954E+03  0.14977247954E+03  0.00000000000E+00 0. -1.
         23    2    1    2    0    0  0.78170201636E+02  0.69358121451E+01 -0.54161468547E+02  0.15112384631E+03  0.11724447251E+03 0.  0.
          5    1    3    3  502    0  0.69609790736E+02  0.35136598499E+02 -0.79879847293E+02  0.11172727296E+03  0.47000000000E+01 0. -1.
         -5    1    3    3    0  502  0.85604108993E+01 -0.28200786354E+02  0.25718378745E+02  0.39396573341E+02  0.47000000000E+01 0.  1.
        -11    1    1    2    0    0 -0.90827922921E+02 -0.13684391387E+02  0.12049609788E+01  0.91860906161E+02  0.00000000000E+00 0.  1.
         11    1    1    2    0    0  0.12657721285E+02  0.67485792415E+01  0.26746764942E+02  0.30350463996E+02  0.00000000000E+00 0. -1.
<mgrwt>
<rscale>  0 0.13519840E+03</rscale>
<asrwt>0</asrwt>
<pdfrwt beam="2">  1        3 0.23041920E-01 0.14108491E+03</pdfrwt>
<pdfrwt beam="1">  1       -3 0.19009652E-01 0.14108491E+03</pdfrwt>
<totfact> 0.99220031E+02</totfact>
</mgrwt>
</event>
<event>
 7    1  0.5206756E-006  0.2148856E+03  0.7546771E-02  0.1141294E+00
         -1   -1    0    0    0  501 -0.00000000000E+00  0.00000000000E+00  0.46997608714E+03  0.46997608714E+03  0.00000000000E+00 0.  1.
          1   -1    0    0  501    0  0.00000000000E+00 -0.00000000000E+00 -0.91471090141E+02  0.91471090141E+02  0.00000000000E+00 0. -1.
         23    2    1    2    0    0  0.16496065254E+03  0.57840968185E+02  0.16646798453E+03  0.27182236113E+03  0.12497284366E+03 0.  0.
          5    1    3    3  502    0  0.50444660531E+01 -0.33213520734E+00  0.81081684956E+02  0.81374975188E+02  0.47000000000E+01 0. -1.
         -5    1    3    3    0  502  0.15991618648E+03  0.58173103393E+02  0.85386299578E+02  0.19044738595E+03  0.47000000000E+01 0. -1.
        -11    1    1    2    0    0  0.10984166295E+02 -0.36082244913E+01  0.23012485624E+02  0.25753556798E+02  0.00000000000E+00 0.  1.
         11    1    1    2    0    0 -0.17594481883E+03 -0.54232743694E+02  0.18902452684E+03  0.26387125935E+03  0.00000000000E+00 0. -1.
<mgrwt>
<rscale>  0 0.21034442E+03</rscale>
<asrwt>0</asrwt>
<pdfrwt beam="2">  1        1 0.14072476E-01 0.21488557E+03</pdfrwt>
<pdfrwt beam="1">  1       -1 0.72304012E-01 0.21488557E+03</pdfrwt>
<totfact> 0.81281552E+02</totfact>
</mgrwt>
</event>
<event>
 7    1  0.5206756E-006  0.1397863E+03  0.7546771E-02  0.1223572E+00
         -2   -1    0    0    0  501 -0.00000000000E+00  0.00000000000E+00  0.12705500741E+03  0.12705500741E+03  0.00000000000E+00 0.  1.
          2   -1    0    0  501    0  0.00000000000E+00 -0.00000000000E+00 -0.12896132353E+03  0.12896132353E+03  0.00000000000E+00 0. -1.
         23    2    1    2    0    0  0.60929994953E+02  0.14278144931E+02 -0.20029188426E+02  0.14121390246E+03  0.12499547253E+03 0.  0.
          5    1    3    3  502    0 -0.12208784267E+01  0.53314859321E+02  0.20399377590E+02  0.57290395134E+02  0.47000000000E+01 0.  1.
         -5    1    3    3    0  502  0.62150873380E+02 -0.39036714389E+02 -0.40428566016E+02  0.83923507328E+02  0.47000000000E+01 0.  1.
        -11    1    1    2    0    0  0.22621093800E+02  0.87600223104E+01 -0.57001448744E+01  0.24918738475E+02  0.00000000000E+00 0. -1.
         11    1    1    2    0    0 -0.83551088753E+02 -0.23038167242E+02  0.23823017175E+02  0.89883690006E+02  0.00000000000E+00 0.  1.
<mgrwt>
<rscale>  0 0.13265272E+03</rscale>
<asrwt>0</asrwt>
<pdfrwt beam="2">  1        2 0.19840204E-01 0.13978626E+03</pdfrwt>
<pdfrwt beam="1">  1       -2 0.19546924E-01 0.13978626E+03</pdfrwt>
<totfact> 0.58393569E+03</totfact>
</mgrwt>
</event>
<event>
 7    1  0.5206756E-006  0.2298890E+03  0.7546771E-02  0.1129713E+00
         -1   -1    0    0    0  501 -0.00000000000E+00  0.00000000000E+00  0.85754959841E+02  0.85754959841E+02  0.00000000000E+00 0.  1.
          1   -1    0    0  501    0  0.00000000000E+00 -0.00000000000E+00 -0.64440386570E+03  0.64440386570E+03  0.00000000000E+00 0. -1.
         23    2    1    2    0    0  0.12699926468E+03 -0.14523825578E+03 -0.16722468252E+03  0.28427637187E+03  0.12500398789E+03 0.  0.
          5    1    3    3  502    0  0.18768603211E+02 -0.11418109739E+03 -0.10030755855E+03  0.15320992060E+03  0.47000000000E+01 0. -1.
         -5    1    3    3    0  502  0.10823066147E+03 -0.31057158394E+02 -0.66917123967E+02  0.13106645127E+03  0.47000000000E+01 0. -1.
        -11    1    1    2    0    0 -0.59463212869E+02  0.15685382254E+02 -0.72381521227E+02  0.94978889846E+02  0.00000000000E+00 0.  1.
         11    1    1    2    0    0 -0.67536051809E+02  0.12955287353E+03 -0.31904270211E+03  0.35090356382E+03  0.00000000000E+00 0. -1.
<mgrwt>
<rscale>  0 0.22568733E+03</rscale>
<asrwt>0</asrwt>
<pdfrwt beam="2">  1        1 0.99139051E-01 0.22988902E+03</pdfrwt>
<pdfrwt beam="1">  1       -1 0.13193071E-01 0.22988902E+03</pdfrwt>
<totfact> 0.12534715E+03</totfact>
</mgrwt>
</event>
<event>
 7    1  0.5206756E-006  0.1593250E+03  0.7546771E-02  0.1197315E+00
         -1   -1    0    0    0  501 -0.00000000000E+00  0.00000000000E+00  0.11757781336E+03  0.11757781336E+03  0.00000000000E+00 0.  1.
          1   -1    0    0  501    0  0.00000000000E+00 -0.00000000000E+00 -0.20298099324E+03  0.20298099324E+03  0.00000000000E+00 0. -1.
         23    2    1    2    0    0  0.21377574672E+01  0.98769944247E+02 -0.96086947311E+02  0.18605686138E+03  0.12499752929E+03 0.  0.
          5    1    3    3  502    0  0.15285451114E+02  0.80342174218E+02 -0.12474353795E+03  0.14923655797E+03  0.47000000000E+01 0.  1.
         -5    1    3    3    0  502 -0.13147693646E+02  0.18427770029E+02  0.28656590636E+02  0.36820303412E+02  0.47000000000E+01 0.  1.
        -11    1    1    2    0    0  0.25493594469E+02 -0.28409122109E+02  0.38252803921E+02  0.54039602013E+02  0.00000000000E+00 0.  1.
         11    1    1    2    0    0 -0.27631351936E+02 -0.70360822138E+02 -0.27569036487E+02  0.80462343209E+02  0.00000000000E+00 0. -1.
<mgrwt>
<rscale>  0 0.15259892E+03</rscale>
<asrwt>0</asrwt>
<pdfrwt beam="2">  1        1 0.31227845E-01 0.15932500E+03</pdfrwt>
<pdfrwt beam="1">  1       -1 0.18088895E-01 0.15932500E+03</pdfrwt>
<totfact> 0.33264508E+03</totfact>
</mgrwt>
</event>
<event>
 7    1  0.5206756E-006  0.1275184E+03  0.7546771E-02  0.1245100E+00
         -2   -1    0    0    0  501 -0.00000000000E+00  0.00000000000E+00  0.43535660729E+02  0.43535660729E+02  0.00000000000E+00 0. -1.
          2   -1    0    0  501    0  0.00000000000E+00 -0.00000000000E+00 -0.29322050225E+03  0.29322050225E+03  0.00000000000E+00 0.  1.
         23    2    1    2    0    0  0.12145907709E+02 -0.21025004254E+02 -0.16633046813E+03  0.20958715566E+03  0.12518537180E+03 0.  0.
          5    1    3    3  502    0  0.44573925905E+02 -0.13804471415E+02 -0.16951538673E+03  0.17588335521E+03  0.47000000000E+01 0.  1.
         -5    1    3    3    0  502 -0.32428018196E+02 -0.72205328390E+01  0.31849185981E+01  0.33703800455E+02  0.47000000000E+01 0.  1.
        -11    1    1    2    0    0  0.14644538867E+02 -0.30615472854E+02 -0.14173728358E+02  0.36778584424E+02  0.00000000000E+00 0. -1.
         11    1    1    2    0    0 -0.26790446577E+02  0.51640477107E+02 -0.69180645039E+02  0.90390422898E+02  0.00000000000E+00 0.  1.
<mgrwt>
<rscale>  0 0.11879404E+03</rscale>
<asrwt>0</asrwt>
<pdfrwt beam="2">  1        2 0.45110846E-01 0.12751843E+03</pdfrwt>
<pdfrwt beam="1">  1       -2 0.66977940E-02 0.12751843E+03</pdfrwt>
<totfact> 0.13101422E+04</totfact>
</mgrwt>
</event>
<event>
 7    1  0.5206756E-006  0.1250236E+03  0.7546771E-02  0.1251263E+00
         -1   -1    0    0    0  501 -0.00000000000E+00  0.00000000000E+00  0.25194380475E+02  0.25194380475E+02  0.00000000000E+00 0.  1.
          1   -1    0    0  501    0  0.00000000000E+00 -0.00000000000E+00 -0.49418508890E+03  0.49418508890E+03  0.00000000000E+00 0. -1.
         23    2    1    2    0    0 -0.97423080600E+00  0.23924921830E+01 -0.33826215766E+03  0.36062749901E+03  0.12499693035E+03 0.  0.
          5    1    3    3  502    0 -0.38676199950E+02 -0.25785561801E+02 -0.49693551903E+02  0.68207644298E+02  0.47000000000E+01 0. -1.
         -5    1    3    3    0  502  0.37701969144E+02  0.28178053984E+02 -0.28856860576E+03  0.29241985472E+03  0.47000000000E+01 0. -1.
        -11    1    1    2    0    0 -0.28201670872E+02 -0.28475441084E+02 -0.10374248435E+03  0.11121460355E+03  0.00000000000E+00 0. -1.
         11    1    1    2    0    0  0.29175901678E+02  0.26082948901E+02 -0.26986066411E+02  0.47537366802E+02  0.00000000000E+00 0.  1.
<mgrwt>
<rscale>  0 0.11518253E+03</rscale>
<asrwt>0</asrwt>
<pdfrwt beam="2">  1        1 0.76028471E-01 0.12502362E+03</pdfrwt>
<pdfrwt beam="1">  1       -1 0.38760588E-02 0.12502362E+03</pdfrwt>
<totfact> 0.11166439E+04</totfact>
</mgrwt>
</event>
<event>
 7    1  0.5206756E-006  0.1269058E+03  0.7546771E-02  0.1249825E+00
          1   -1    0    0  501    0  0.00000000000E+00  0.00000000000E+00  0.62114257974E+03  0.62114257974E+03  0.00000000000E+00 0. -1.
         -1   -1    0    0    0  501 -0.00000000000E+00 -0.00000000000E+00 -0.21417042138E+02  0.21417042138E+02  0.00000000000E+00 0.  1.
         23    2    1    2    0    0  0.21747733337E+02  0.24507531395E+01  0.45926288286E+03  0.47647401799E+03  0.12500449652E+03 0.  0.
          5    1    3    3  502    0 -0.26809611492E+02  0.48050056445E+02  0.27485495307E+03  0.28034781686E+03  0.47000000000E+01 0. -1.
         -5    1    3    3    0  502  0.48557344828E+02 -0.45599303305E+02  0.18440792979E+03  0.19612620113E+03  0.47000000000E+01 0. -1.
        -11    1    1    2    0    0 -0.90262246238E+01 -0.22950648921E+02  0.11386592563E+01  0.24688085421E+02  0.00000000000E+00 0.  1.
         11    1    1    2    0    0 -0.12721508713E+02  0.20499895781E+02  0.13932399548E+03  0.14139751846E+03  0.00000000000E+00 0. -1.
<mgrwt>
<rscale>  0 0.11601182E+03</rscale>
<asrwt>0</asrwt>
<pdfrwt beam="1">  1        1 0.95560383E-01 0.12690585E+03</pdfrwt>
<pdfrwt beam="2">  1       -1 0.32949300E-02 0.12690585E+03</pdfrwt>
<totfact> 0.10452398E+04</totfact>
</mgrwt>
</event>
<event>
 7    1  0.5206756E-006  0.1257404E+03  0.7546771E-02  0.1249500E+00
          1   -1    0    0  501    0  0.00000000000E+00  0.00000000000E+00  0.79320279345E+03  0.79320279345E+03  0.00000000000E+00 0. -1.
         -1   -1    0    0    0  501 -0.00000000000E+00 -0.00000000000E+00 -0.15193400873E+02  0.15193400873E+02  0.00000000000E+00 0.  1.
         23    2    1    2    0    0 -0.55540526327E+01  0.12525664061E+02  0.50395094655E+03  0.51940081416E+03  0.12499163756E+03 0.  0.
          5    1    3    3  502    0 -0.19316227883E+02 -0.36886421341E+02  0.64334660555E+02  0.76777361818E+02  0.47000000000E+01 0.  1.
         -5    1    3    3    0  502  0.13762175251E+02  0.49412085402E+02  0.43961628599E+03  0.44262345234E+03  0.47000000000E+01 0.  1.
        -11    1    1    2    0    0 -0.38989559773E+02 -0.17382129225E+01  0.18226181986E+03  0.18639361076E+03  0.00000000000E+00 0. -1.
         11    1    1    2    0    0  0.44543612406E+02 -0.10787451139E+02  0.91796626173E+02  0.10260176940E+03  0.00000000000E+00 0.  1.
<mgrwt>
<rscale>  0 0.11620038E+03</rscale>
<asrwt>0</asrwt>
<pdfrwt beam="1">  1        1 0.12203117E+00 0.12574040E+03</pdfrwt>
<pdfrwt beam="2">  1       -1 0.23374469E-02 0.12574040E+03</pdfrwt>
<totfact> 0.12119217E+04</totfact>
</mgrwt>
</event>
<event>
 7    1  0.5206756E-006  0.1275998E+03  0.7546771E-02  0.1246165E+00
          1   -1    0    0  501    0  0.00000000000E+00  0.00000000000E+00  0.25285166343E+03  0.25285166343E+03  0.00000000000E+00 0. -1.
         -1   -1    0    0    0  501 -0.00000000000E+00 -0.00000000000E+00 -0.57208715750E+02  0.57208715750E+02  0.00000000000E+00 0.  1.
         23    2    1    2    0    0  0.36301785163E+01  0.25369972109E+02  0.17043546573E+03  0.21290832035E+03  0.12499956486E+03 0.  0.
          5    1    3    3  502    0  0.28685690541E+02  0.35507033070E+02  0.60917980483E+01  0.46290584817E+02  0.47000000000E+01 0. -1.
         -5    1    3    3    0  502 -0.25055512025E+02 -0.10137060961E+02  0.16434366768E+03  0.16661773553E+03  0.47000000000E+01 0. -1.
        -11    1    1    2    0    0 -0.36866449149E+01  0.31508177225E+02 -0.59841613260E+01  0.32282607850E+02  0.00000000000E+00 0.  1.
         11    1    1    2    0    0  0.56466398623E-01 -0.56878149334E+02  0.31191643278E+02  0.64869450980E+02  0.00000000000E+00 0. -1.
<mgrwt>
<rscale>  0 0.11815904E+03</rscale>
<asrwt>0</asrwt>
<pdfrwt beam="1">  1        1 0.38900255E-01 0.12759978E+03</pdfrwt>
<pdfrwt beam="2">  1       -1 0.88013410E-02 0.12759978E+03</pdfrwt>
<totfact> 0.76454005E+03</totfact>
</mgrwt>
</event>
<event>
 7    1  0.5206756E-006  0.1567428E+03  0.7546771E-02  0.1200973E+00
          2   -1    0    0  501    0  0.00000000000E+00  0.00000000000E+00  0.66028766278E+03  0.66028766278E+03  0.00000000000E+00 0. -1.
         -2   -1    0    0    0  501 -0.00000000000E+00 -0.00000000000E+00 -0.31334634322E+02  0.31334634322E+02  0.00000000000E+00 0.  1.
         23    2    1    2    0    0  0.28314646187E+02 -0.90231120381E+02  0.37065405291E+03  0.40243350851E+03  0.12499971021E+03 0.  0.
          5    1    3    3  502    0 -0.24509189712E+02 -0.59626932683E+02  0.68677898107E+02  0.94312327773E+02  0.47000000000E+01 0.  1.
         -5    1    3    3    0  502  0.52823835899E+02 -0.30604187699E+02  0.30197615481E+03  0.30812118073E+03  0.47000000000E+01 0.  1.
        -11    1    1    2    0    0  0.29353608618E+02  0.50569382690E+02  0.14025590302E+03  0.15195596446E+03  0.00000000000E+00 0. -1.
         11    1    1    2    0    0 -0.57668254805E+02  0.39661737691E+02  0.11804307253E+03  0.13723282414E+03  0.00000000000E+00 0.  1.
<mgrwt>
<rscale>  0 0.14959407E+03</rscale>
<asrwt>0</asrwt>
<pdfrwt beam="1">  1        2 0.10158271E+00 0.15674279E+03</pdfrwt>
<pdfrwt beam="2">  1       -2 0.48207135E-02 0.15674279E+03</pdfrwt>
<totfact> 0.90123088E+03</totfact>
</mgrwt>
</event>
<event>
 7    1  0.5206756E-006  0.1290358E+03  0.7546771E-02  0.1243272E+00
         -1   -1    0    0    0  501 -0.00000000000E+00  0.00000000000E+00  0.82002760869E+02  0.82002760869E+02  0.00000000000E+00 0.  1.
          1   -1    0    0  501    0  0.00000000000E+00 -0.00000000000E+00 -0.15546204500E+03  0.15546204500E+03  0.00000000000E+00 0. -1.
         23    2    1    2    0    0  0.25816984191E+02  0.18953386596E+02 -0.50660005226E+02  0.13862420739E+03  0.12499794881E+03 0.  0.
          5    1    3    3  502    0 -0.67112807141E+01 -0.50173498429E+02 -0.31194418127E+02  0.59645644901E+02  0.47000000000E+01 0. -1.
         -5    1    3    3    0  502  0.32528264905E+02  0.69126885025E+02 -0.19465587099E+02  0.78978562484E+02  0.47000000000E+01 0. -1.
        -11    1    1    2    0    0 -0.12503320767E+02  0.31905592528E+02  0.11409984645E+02  0.36117691155E+02  0.00000000000E+00 0. -1.
         11    1    1    2    0    0 -0.13313663424E+02 -0.50858979124E+02 -0.34209263554E+02  0.62722907332E+02  0.00000000000E+00 0.  1.
<mgrwt>
<rscale>  0 0.11989425E+03</rscale>
<asrwt>0</asrwt>
<pdfrwt beam="2">  1        1 0.23917237E-01 0.12903579E+03</pdfrwt>
<pdfrwt beam="1">  1       -1 0.12615810E-01 0.12903579E+03</pdfrwt>
<totfact> 0.80753622E+03</totfact>
</mgrwt>
</event>
<event>
 7    1  0.5206756E-006  0.1202068E+03  0.7546771E-02  0.1250986E+00
         -1   -1    0    0    0  501 -0.00000000000E+00  0.00000000000E+00  0.15882893179E+03  0.15882893179E+03  0.00000000000E+00 0.  1.
          1   -1    0    0  501    0  0.00000000000E+00 -0.00000000000E+00 -0.77688963318E+02  0.77688963318E+02  0.00000000000E+00 0. -1.
         23    2    1    2    0    0 -0.25408224228E+02  0.38992828904E+02  0.46704479706E+02  0.12896119190E+03  0.11083168332E+03 0.  0.
          5    1    3    3  502    0  0.13655814665E+02  0.44936451432E+02 -0.20021460373E+02  0.51270993914E+02  0.47000000000E+01 0. -1.
         -5    1    3    3    0  502 -0.39064038893E+02 -0.59436225273E+01  0.66725940079E+02  0.77690197984E+02  0.47000000000E+01 0.  1.
        -11    1    1    2    0    0  0.48791820072E+02 -0.53253608581E+02  0.14465365872E+02  0.73660269770E+02  0.00000000000E+00 0. -1.
         11    1    1    2    0    0 -0.23383595844E+02  0.14260779676E+02  0.19970122896E+02  0.33896433442E+02  0.00000000000E+00 0.  1.
<mgrwt>
<rscale>  0 0.11534143E+03</rscale>
<asrwt>0</asrwt>
<pdfrwt beam="2">  1        1 0.11952148E-01 0.12020682E+03</pdfrwt>
<pdfrwt beam="1">  1       -1 0.24435220E-01 0.12020682E+03</pdfrwt>
<totfact> 0.68499964E+03</totfact>
</mgrwt>
</event>
<event>
 7    1  0.9280818E-006  0.3106515E+03  0.7546771E-02  0.1081551E+00
         -1   -1    0    0    0  501 -0.00000000000E+00  0.00000000000E+00  0.15254427811E+03  0.15254427811E+03  0.00000000000E+00 0.  1.
          1   -1    0    0  501    0  0.00000000000E+00 -0.00000000000E+00 -0.74933449411E+03  0.74933449411E+03  0.00000000000E+00 0. -1.
         23    2    1    2    0    0 -0.83846636019E+02 -0.27175275974E+03 -0.49942381853E+03  0.58815687108E+03  0.12499813474E+03 0.  0.
          5    1    3    3  502    0 -0.98306683348E+02 -0.15395699451E+03 -0.23026801651E+03  0.29395987750E+03  0.47000000000E+01 0.  1.
         -5    1    3    3    0  502  0.14460047329E+02 -0.11779576523E+03 -0.26915580202E+03  0.29419699358E+03  0.47000000000E+01 0.  1.
        -11    1    1    2    0    0  0.10397266136E+02  0.53764853378E+02  0.16308163656E+02  0.57137717873E+02  0.00000000000E+00 0.  1.
         11    1    1    2    0    0  0.73449369882E+02  0.21798790636E+03 -0.11367456113E+03  0.25658418327E+03  0.00000000000E+00 0. -1.
<mgrwt>
<rscale>  0 0.30749848E+03</rscale>
<asrwt>0</asrwt>
<pdfrwt beam="2">  1        1 0.11528223E+00 0.31065150E+03</pdfrwt>
<pdfrwt beam="1">  1       -1 0.23468351E-01 0.31065150E+03</pdfrwt>
<totfact> 0.39545566E+02</totfact>
</mgrwt>
</event>
<event>
 7    1  0.5206756E-006  0.1272746E+03  0.7546771E-02  0.1251475E+00
         -2   -1    0    0    0  501 -0.00000000000E+00  0.00000000000E+00  0.27798806425E+03  0.27798806425E+03  0.00000000000E+00 0.  1.
          2   -1    0    0  501    0  0.00000000000E+00 -0.00000000000E+00 -0.44136563511E+02  0.44136563511E+02  0.00000000000E+00 0. -1.
         23    2    1    2    0    0 -0.19465615805E+02 -0.13948516582E+02  0.93098060558E+02  0.15768977744E+03  0.12500138286E+03 0.  0.
          5    1    3    3  502    0 -0.49056561062E+02  0.41045366852E+02  0.40028033881E+02  0.75601599319E+02  0.47000000000E+01 0. -1.
         -5    1    3    3    0  502  0.29590945256E+02 -0.54993883433E+02  0.53070026677E+02  0.82088178124E+02  0.47000000000E+01 0. -1.
        -11    1    1    2    0    0  0.37588913762E+02 -0.10166636980E+02  0.12391101989E+03  0.12988544104E+03  0.00000000000E+00 0. -1.
         11    1    1    2    0    0 -0.18123297957E+02  0.24115153562E+02  0.16842420299E+02  0.34549409281E+02  0.00000000000E+00 0.  1.
<mgrwt>
<rscale>  0 0.11506101E+03</rscale>
<asrwt>0</asrwt>
<pdfrwt beam="2">  1        2 0.67902407E-02 0.12727457E+03</pdfrwt>
<pdfrwt beam="1">  1       -2 0.42767393E-01 0.12727457E+03</pdfrwt>
<totfact> 0.51922497E+03</totfact>
</mgrwt>
</event>
<event>
 7    1  0.5414688E-006  0.1656382E+03  0.7546771E-02  0.1189836E+00
         -2   -1    0    0    0  501 -0.00000000000E+00  0.00000000000E+00  0.25638626448E+02  0.25638626448E+02  0.00000000000E+00 0.  1.
          2   -1    0    0  501    0  0.00000000000E+00 -0.00000000000E+00 -0.91711199496E+03  0.91711199496E+03  0.00000000000E+00 0. -1.
         23    2    1    2    0    0 -0.70327374913E+02  0.82856063583E+02 -0.50672958631E+03  0.53311431652E+03  0.12499973561E+03 0.  0.
          5    1    3    3  502    0 -0.96075264465E+02  0.21438585924E+02 -0.31829784802E+03  0.33320516122E+03  0.47000000000E+01 0. -1.
         -5    1    3    3    0  502  0.25747889552E+02  0.61417477659E+02 -0.18843173829E+03  0.19990915530E+03  0.47000000000E+01 0. -1.
        -11    1    1    2    0    0  0.48208389765E+02 -0.72994345395E+01 -0.23965065842E+03  0.24456035792E+03  0.00000000000E+00 0. -1.
         11    1    1    2    0    0  0.22118985149E+02 -0.75556629043E+02 -0.14509312379E+03  0.16507594697E+03  0.00000000000E+00 0.  1.
<mgrwt>
<rscale>  0 0.15899463E+03</rscale>
<asrwt>0</asrwt>
<pdfrwt beam="2">  1        2 0.14109416E+00 0.16563816E+03</pdfrwt>
<pdfrwt beam="1">  1       -2 0.39444039E-02 0.16563816E+03</pdfrwt>
<totfact> 0.81133215E+03</totfact>
</mgrwt>
</event>
<event>
 7    1  0.5206756E-006  0.1420722E+03  0.7546771E-02  0.1220600E+00
         -2   -1    0    0    0  501 -0.00000000000E+00  0.00000000000E+00  0.11391318086E+02  0.11391318086E+02  0.00000000000E+00 0.  1.
          2   -1    0    0  501    0  0.00000000000E+00 -0.00000000000E+00 -0.16359852302E+04  0.16359852302E+04  0.00000000000E+00 0. -1.
         23    2    1    2    0    0 -0.30235942430E+02 -0.60378758489E+02 -0.11652467116E+04  0.11738758064E+04  0.12499881339E+03 0.  0.
          5    1    3    3  502    0 -0.74647407008E+02 -0.60518674360E+02 -0.86318796333E+03  0.86853341638E+03  0.47000000000E+01 0. -1.
         -5    1    3    3    0  502  0.44411464579E+02  0.13991587093E+00 -0.30205874828E+03  0.30534239007E+03  0.47000000000E+01 0. -1.
        -11    1    1    2    0    0  0.16180251824E+02  0.80022397955E+02 -0.41545911829E+03  0.42340484609E+03  0.00000000000E+00 0. -1.
         11    1    1    2    0    0  0.14055690605E+02 -0.19643639466E+02 -0.43888082175E+02  0.50095895709E+02  0.00000000000E+00 0.  1.
<mgrwt>
<rscale>  0 0.13473063E+03</rscale>
<asrwt>0</asrwt>
<pdfrwt beam="2">  1        2 0.25168986E+00 0.14207220E+03</pdfrwt>
<pdfrwt beam="1">  1       -2 0.17525117E-02 0.14207220E+03</pdfrwt>
<totfact> 0.10607648E+04</totfact>
</mgrwt>
</event>
<event>
 7    1  0.5206756E-006  0.1293491E+03  0.7546771E-02  0.1243396E+00
         -1   -1    0    0    0  501 -0.00000000000E+00  0.00000000000E+00  0.38688294854E+02  0.38688294854E+02  0.00000000000E+00 0.  1.
          1   -1    0    0  501    0  0.00000000000E+00 -0.00000000000E+00 -0.32696445868E+03  0.32696445868E+03  0.00000000000E+00 0. -1.
         23    2    1    2    0    0  0.28604352310E+02  0.16956262789E+02 -0.17609798949E+03  0.21849870911E+03  0.12500184063E+03 0.  0.
          5    1    3    3  502    0 -0.47295232736E+02  0.13237598179E+02 -0.96321658560E+02  0.10822210935E+03  0.47000000000E+01 0.  1.
         -5    1    3    3    0  502  0.75899585046E+02  0.37186646103E+01 -0.79776330935E+02  0.11027659976E+03  0.47000000000E+01 0.  1.
        -11    1    1    2    0    0  0.20168326419E+02  0.22161738709E+02 -0.53969510385E+02  0.61730155551E+02  0.00000000000E+00 0.  1.
         11    1    1    2    0    0 -0.48772678729E+02 -0.39118001498E+02 -0.58208663942E+02  0.85423888869E+02  0.00000000000E+00 0. -1.
<mgrwt>
<rscale>  0 0.11981898E+03</rscale>
<asrwt>0</asrwt>
<pdfrwt beam="2">  1        1 0.50302224E-01 0.12934908E+03</pdfrwt>
<pdfrwt beam="1">  1       -1 0.59520454E-02 0.12934908E+03</pdfrwt>
<totfact> 0.10016816E+04</totfact>
</mgrwt>
</event>
<event>
 7    1  0.5206756E-006  0.1522138E+03  0.7546771E-02  0.1206707E+00
         -1   -1    0    0    0  501 -0.00000000000E+00  0.00000000000E+00  0.19289083990E+03  0.19289083990E+03  0.00000000000E+00 0.  1.
          1   -1    0    0  501    0  0.00000000000E+00 -0.00000000000E+00 -0.17499221408E+03  0.17499221408E+03  0.00000000000E+00 0. -1.
         23    2    1    2    0    0 -0.74014274263E+02 -0.45452041255E+02 -0.11070085414E+03  0.18821191710E+03  0.12500018314E+03 0.  0.
          5    1    3    3  502    0 -0.10932752436E+03 -0.31237575173E+02 -0.85035527303E+02  0.14206134094E+03  0.47000000000E+01 0. -1.
         -5    1    3    3    0  502  0.35313250101E+02 -0.14214466082E+02 -0.25665326834E+02  0.46150576163E+02  0.47000000000E+01 0. -1.
        -11    1    1    2    0    0  0.68455393932E+02  0.71412410252E+02  0.10094997340E+03  0.14133920343E+03  0.00000000000E+00 0. -1.
         11    1    1    2    0    0  0.55588803311E+01 -0.25960368997E+02  0.27649506551E+02  0.38331933444E+02  0.00000000000E+00 0.  1.
<mgrwt>
<rscale>  0 0.14503725E+03</rscale>
<asrwt>0</asrwt>
<pdfrwt beam="2">  1        1 0.26921879E-01 0.15221382E+03</pdfrwt>
<pdfrwt beam="1">  1       -1 0.29675514E-01 0.15221382E+03</pdfrwt>
<totfact> 0.17780275E+03</totfact>
</mgrwt>
</event>
<event>
 7    1  0.5206756E-006  0.1550863E+03  0.7546771E-02  0.1202900E+00
          3   -1    0    0  501    0  0.00000000000E+00  0.00000000000E+00  0.54413430656E+03  0.54413430656E+03  0.00000000000E+00 0. -1.
         -3   -1    0    0    0  501 -0.00000000000E+00 -0.00000000000E+00 -0.10507856974E+03  0.10507856974E+03  0.00000000000E+00 0.  1.
         23    2    1    2    0    0  0.48575021509E+02  0.77875131016E+02  0.48754441571E+03  0.51161638689E+03  0.12501080471E+03 0.  0.
          5    1    3    3  502    0 -0.55828568309E+00  0.97401934407E+02  0.37014213161E+03  0.38277243383E+03  0.47000000000E+01 0.  1.
         -5    1    3    3    0  502  0.49133307192E+02 -0.19526803391E+02  0.11740228410E+03  0.12884395305E+03  0.47000000000E+01 0.  1.
        -11    1    1    2    0    0 -0.52668858658E+01 -0.22790346166E+02 -0.61972589882E+02  0.66240032169E+02  0.00000000000E+00 0.  1.
         11    1    1    2    0    0 -0.43308135643E+02 -0.55084784850E+02  0.13483910984E+02  0.71356457244E+02  0.00000000000E+00 0. -1.
<mgrwt>
<rscale>  0 0.14804154E+03</rscale>
<asrwt>0</asrwt>
<pdfrwt beam="1">  1        3 0.83712969E-01 0.15508633E+03</pdfrwt>
<pdfrwt beam="2">  1       -3 0.16165934E-01 0.15508633E+03</pdfrwt>
<totfact> 0.10501853E+02</totfact>
</mgrwt>
</event>
<event>
 6    1  0.5206756E-006  0.2018023E+03  0.7546771E-02  0.1172283E+00
         -1   -1    0    0    0  501 -0.00000000000E+00  0.00000000000E+00  0.57086185182E+02  0.57086185182E+02  0.00000000000E+00 0.  1.
          1   -1    0    0  501    0  0.00000000000E+00 -0.00000000000E+00 -0.44506120084E+03  0.44506120084E+03  0.00000000000E+00 0. -1.
          5    1    1    2  502    0  0.92384523396E+01 -0.12354628178E+03 -0.18324058463E+03  0.22124247919E+03  0.47000000000E+01 0. -1.
         -5    1    1    2    0  502 -0.40884441786E+02  0.64902908733E+02 -0.87988067982E+02  0.11682429221E+03  0.47000000000E+01 0.  1.
        -11    1    1    2    0    0  0.11335665610E+02 -0.16196066256E+02 -0.71753094656E+02  0.74426584428E+02  0.00000000000E+00 0. -1.
         11    1    1    2    0    0  0.20310323837E+02  0.74839439306E+02 -0.44993268394E+02  0.89654030198E+02  0.00000000000E+00 0.  1.
<mgrwt>
<rscale>  0 0.17544716E+03</rscale>
<asrwt>0</asrwt>
<pdfrwt beam="2">  1        1 0.68470954E-01 0.20180228E+03</pdfrwt>
<pdfrwt beam="1">  1       -1 0.87824901E-02 0.20180228E+03</pdfrwt>
<totfact> 0.38691080E+03</totfact>
</mgrwt>
</event>
<event>
 7    1  0.5206756E-006  0.1501035E+03  0.7546771E-02  0.1207186E+00
         -2   -1    0    0    0  501 -0.00000000000E+00  0.00000000000E+00  0.62364536590E+02  0.62364536590E+02  0.00000000000E+00 0. -1.
          2   -1    0    0  501    0  0.00000000000E+00 -0.00000000000E+00 -0.38523360185E+03  0.38523360185E+03  0.00000000000E+00 0.  1.
         23    2    1    2    0    0  0.52602546285E+02 -0.64307049428E+02 -0.26753820716E+03  0.30676988894E+03  0.12501459110E+03 0.  0.
          5    1    3    3  502    0  0.12628690026E+02 -0.85481351261E+02 -0.23616185132E+03  0.25151750484E+03  0.47000000000E+01 0. -1.
         -5    1    3    3    0  502  0.39973856259E+02  0.21174301833E+02 -0.31376355845E+02  0.55252384098E+02  0.47000000000E+01 0. -1.
        -11    1    1    2    0    0 -0.68460641202E+02  0.68854089417E+02 -0.16301421462E+02  0.98455479100E+02  0.00000000000E+00 0. -1.
         11    1    1    2    0    0  0.15858094917E+02 -0.45470399887E+01 -0.39029436630E+02  0.42372770392E+02  0.00000000000E+00 0.  1.
<mgrwt>
<rscale>  0 0.14466497E+03</rscale>
<asrwt>0</asrwt>
<pdfrwt beam="2">  1        2 0.59266707E-01 0.15010354E+03</pdfrwt>
<pdfrwt beam="1">  1       -2 0.95945442E-02 0.15010354E+03</pdfrwt>
<totfact> 0.56888888E+03</totfact>
</mgrwt>
</event>
<event>
 7    1  0.5206756E-006  0.1705510E+03  0.7546771E-02  0.1183646E+00
         -1   -1    0    0    0  501 -0.00000000000E+00  0.00000000000E+00  0.91724555886E+02  0.91724555886E+02  0.00000000000E+00 0.  1.
          1   -1    0    0  501    0  0.00000000000E+00 -0.00000000000E+00 -0.30562078609E+03  0.30562078609E+03  0.00000000000E+00 0. -1.
         23    2    1    2    0    0  0.81126119140E+02 -0.82996984342E+02 -0.17530625531E+03  0.24458111470E+03  0.12497076418E+03 0.  0.
          5    1    3    3  502    0  0.56741023048E+02 -0.24362136294E+02 -0.16971293210E+03  0.18065886832E+03  0.47000000000E+01 0.  1.
         -5    1    3    3    0  502  0.24385096092E+02 -0.58634848049E+02 -0.55933232058E+01  0.63922246375E+02  0.47000000000E+01 0.  1.
        -11    1    1    2    0    0 -0.20322034719E+02  0.80748663530E+02 -0.38929693125E+02  0.91917641201E+02  0.00000000000E+00 0. -1.
         11    1    1    2    0    0 -0.60804084421E+02  0.22483208118E+01  0.33971822897E+00  0.60846586077E+02  0.00000000000E+00 0.  1.
<mgrwt>
<rscale>  0 0.16455703E+03</rscale>
<asrwt>0</asrwt>
<pdfrwt beam="2">  1        1 0.47018583E-01 0.17055099E+03</pdfrwt>
<pdfrwt beam="1">  1       -1 0.14111470E-01 0.17055099E+03</pdfrwt>
<totfact> 0.29690487E+03</totfact>
</mgrwt>
</event>
<event>
 6    1  0.5206756E-006  0.1904686E+03  0.7546771E-02  0.1169109E+00
          2   -1    0    0  501    0  0.00000000000E+00  0.00000000000E+00  0.16393887360E+03  0.16393887360E+03  0.00000000000E+00 0. -1.
         -2   -1    0    0    0  501 -0.00000000000E+00 -0.00000000000E+00 -0.26228803033E+03  0.26228803033E+03  0.00000000000E+00 0.  1.
          5    1    1    2  502    0  0.19157788496E+02 -0.27028222464E+02  0.42560607138E+02  0.54139088924E+02  0.47000000000E+01 0. -1.
         -5    1    1    2    0  502 -0.28627743815E+02  0.14325282273E+03  0.26998368723E+02  0.14863351186E+03  0.47000000000E+01 0.  1.
        -11    1    1    2    0    0  0.34473136257E+02 -0.21877917359E+02 -0.89089160386E+02  0.97999586171E+02  0.00000000000E+00 0.  1.
         11    1    1    2    0    0 -0.25003180938E+02 -0.94346682904E+02 -0.78818972198E+02  0.12545471697E+03  0.00000000000E+00 0. -1.
<mgrwt>
<rscale>  0 0.17865766E+03</rscale>
<asrwt>0</asrwt>
<pdfrwt beam="1">  1        2 0.25221365E-01 0.19046857E+03</pdfrwt>
<pdfrwt beam="2">  1       -2 0.40352004E-01 0.19046857E+03</pdfrwt>
<totfact> 0.12366470E+03</totfact>
</mgrwt>
</event>
<event>
 6    1  0.5206756E-006  0.3533798E+03  0.7546771E-02  0.1061236E+00
          2   -1    0    0  501    0  0.00000000000E+00  0.00000000000E+00  0.12718177935E+04  0.12718177935E+04  0.00000000000E+00 0. -1.
         -2   -1    0    0    0  501 -0.00000000000E+00 -0.00000000000E+00 -0.24547013440E+02  0.24547013440E+02  0.00000000000E+00 0.  1.
          5    1    1    2  502    0 -0.53751220114E+02  0.78357553540E+02  0.85507214485E+03  0.86034851239E+03  0.47000000000E+01 0. -1.
         -5    1    1    2    0  502 -0.32954224296E+02  0.49666285959E+01  0.36108361642E+02  0.49361443243E+02  0.47000000000E+01 0.  1.
        -11    1    1    2    0    0  0.92385544069E+01 -0.70818615269E+02  0.18941018094E+03  0.20242737908E+03  0.00000000000E+00 0.  1.
         11    1    1    2    0    0  0.77466890003E+02 -0.12505566867E+02  0.16668009264E+03  0.18422747225E+03  0.00000000000E+00 0. -1.
<mgrwt>
<rscale>  0 0.35337984E+03</rscale>
<asrwt>0</asrwt>
<pdfrwt beam="1">  1        2 0.19566422E+00 0.35337984E+03</pdfrwt>
<pdfrwt beam="2">  1       -2 0.37764646E-02 0.35337984E+03</pdfrwt>
<totfact> 0.54743785E+03</totfact>
</mgrwt>
</event>
<event>
 7    1  0.5206756E-006  0.2625360E+03  0.7546771E-02  0.1107660E+00
         -2   -1    0    0    0  501 -0.00000000000E+00  0.00000000000E+00  0.10668190831E+03  0.10668190831E+03  0.00000000000E+00 0.  1.
          2   -1    0    0  501    0  0.00000000000E+00 -0.00000000000E+00 -0.18098404470E+04  0.18098404470E+04  0.00000000000E+00 0. -1.
         23    2    1    2    0    0  0.21874042032E+03  0.73841364554E+02 -0.16380256836E+04  0.16589313659E+04  0.12500087246E+03 0.  0.
          5    1    3    3  502    0  0.67386926141E+02 -0.14232089021E+02 -0.23253021284E+03  0.24256120888E+03  0.47000000000E+01 0. -1.
         -5    1    3    3    0  502  0.15135349418E+03  0.88073453575E+02 -0.14054954707E+04  0.14163701570E+04  0.47000000000E+01 0. -1.
        -11    1    1    2    0    0 -0.15623687045E+03 -0.43572737756E+02 -0.87927467417E+02  0.18449873358E+03  0.00000000000E+00 0. -1.
         11    1    1    2    0    0 -0.62503549864E+02 -0.30268626798E+02  0.22794612289E+02  0.73092255837E+02  0.00000000000E+00 0.  1.
<mgrwt>
<rscale>  0 0.25914183E+03</rscale>
<asrwt>0</asrwt>
<pdfrwt beam="2">  1        2 0.27843698E+00 0.26253597E+03</pdfrwt>
<pdfrwt beam="1">  1       -2 0.16412602E-01 0.26253597E+03</pdfrwt>
<totfact> 0.27728503E+02</totfact>
</mgrwt>
</event>
<event>
 7    1  0.5206756E-006  0.1277564E+03  0.7546771E-02  0.1242771E+00
          1   -1    0    0  501    0  0.00000000000E+00  0.00000000000E+00  0.50003096029E+02  0.50003096029E+02  0.00000000000E+00 0. -1.
         -1   -1    0    0    0  501 -0.00000000000E+00 -0.00000000000E+00 -0.37503894950E+03  0.37503894950E+03  0.00000000000E+00 0.  1.
         23    2    1    2    0    0  0.22611727563E+02  0.13853159608E+02 -0.58854654619E+02  0.14066120381E+03  0.12497401183E+03 0.  0.
          5    1    3    3  502    0  0.40379464945E+02  0.40322106450E+02 -0.82690756789E+02  0.10057944480E+03  0.47000000000E+01 0.  1.
         -5    1    3    3    0  502 -0.17767737382E+02 -0.26468946842E+02  0.23836102170E+02  0.40081759009E+02  0.47000000000E+01 0.  1.
        -11    1    1    2    0    0 -0.31176609034E+02  0.31472559577E+02 -0.19186359766E+03  0.19691151074E+03  0.00000000000E+00 0.  1.
         11    1    1    2    0    0  0.85648814707E+01 -0.45325719185E+02 -0.74317601194E+02  0.87469330977E+02  0.00000000000E+00 0. -1.
<mgrwt>
<rscale>  0 0.12019757E+03</rscale>
<asrwt>0</asrwt>
<pdfrwt beam="1">  1        1 0.76927836E-02 0.12775642E+03</pdfrwt>
<pdfrwt beam="2">  1       -1 0.57698303E-01 0.12775642E+03</pdfrwt>
<totfact> 0.27671810E+03</totfact>
</mgrwt>
</event>
<event>
 7    1  0.7749916E-006  0.3907509E+03  0.7546771E-02  0.1047843E+00
         -2   -1    0    0    0  501 -0.00000000000E+00  0.00000000000E+00  0.82949531786E+03  0.82949531786E+03  0.00000000000E+00 0.  1.
          2   -1    0    0  501    0  0.00000000000E+00 -0.00000000000E+00 -0.18018334072E+03  0.18018334072E+03  0.00000000000E+00 0. -1.
         23    2    1    2    0    0 -0.37013758660E+03  0.77151066084E+01  0.34997556771E+03  0.52456566521E+03  0.12499953299E+03 0.  0.
          5    1    3    3  502    0 -0.32524932092E+03  0.62638093604E+01  0.23587001395E+03  0.40184961060E+03  0.47000000000E+01 0.  1.
         -5    1    3    3    0  502 -0.44888265681E+02  0.14512972479E+01  0.11410555376E+03  0.12271605461E+03  0.47000000000E+01 0.  1.
        -11    1    1    2    0    0  0.13572093202E+03  0.38037958568E+02  0.13520483069E+03  0.19531360403E+03  0.00000000000E+00 0.  1.
         11    1    1    2    0    0  0.23441665458E+03 -0.45753065176E+02  0.16413157874E+03  0.28979938933E+03  0.00000000000E+00 0. -1.
<mgrwt>
<rscale>  0 0.38848070E+03</rscale>
<asrwt>0</asrwt>
<pdfrwt beam="2">  1        2 0.27720515E-01 0.39075087E+03</pdfrwt>
<pdfrwt beam="1">  1       -2 0.12761466E+00 0.39075087E+03</pdfrwt>
<totfact> 0.91149900E+01</totfact>
</mgrwt>
</event>
<event>
 7    1  0.5206756E-006  0.1430072E+03  0.7546771E-02  0.1218801E+00
         -2   -1    0    0    0  501 -0.00000000000E+00  0.00000000000E+00  0.28941659552E+02  0.28941659552E+02  0.00000000000E+00 0.  1.
          2   -1    0    0  501    0  0.00000000000E+00 -0.00000000000E+00 -0.86701557687E+03  0.86701557687E+03  0.00000000000E+00 0. -1.
         23    2    1    2    0    0 -0.35419789118E+02 -0.59699238992E+02 -0.70234970703E+03  0.71676088810E+03  0.12502999299E+03 0.  0.
          5    1    3    3  502    0  0.28810722373E+02 -0.36042479880E+02 -0.51775294855E+03  0.51982624387E+03  0.47000000000E+01 0.  1.
         -5    1    3    3    0  502 -0.64230511491E+02 -0.23656759111E+02 -0.18459675848E+03  0.19693464424E+03  0.47000000000E+01 0.  1.
        -11    1    1    2    0    0  0.53086943765E+01  0.80329113176E+02 -0.93694230094E+02  0.12352958112E+03  0.00000000000E+00 0. -1.
         11    1    1    2    0    0  0.30111094741E+02 -0.20629874184E+02 -0.42029980196E+02  0.55666767201E+02  0.00000000000E+00 0.  1.
<mgrwt>
<rscale>  0 0.13600972E+03</rscale>
<asrwt>0</asrwt>
<pdfrwt beam="2">  1        2 0.13338702E+00 0.14300720E+03</pdfrwt>
<pdfrwt beam="1">  1       -2 0.44525628E-02 0.14300720E+03</pdfrwt>
<totfact> 0.72344447E+03</totfact>
</mgrwt>
</event>
<event>
 7    1  0.5206756E-006  0.1730681E+03  0.7546771E-02  0.1180850E+00
         -2   -1    0    0    0  501 -0.00000000000E+00  0.00000000000E+00  0.40159533856E+02  0.40159533856E+02  0.00000000000E+00 0.  1.
          2   -1    0    0  501    0  0.00000000000E+00 -0.00000000000E+00 -0.74102019093E+03  0.74102019093E+03  0.00000000000E+00 0. -1.
         23    2    1    2    0    0 -0.79226537462E+02  0.89635029073E+02 -0.50683731672E+03  0.53557132413E+03  0.12506516277E+03 0.  0.
          5    1    3    3  502    0  0.45176247675E+01  0.53824186214E+02 -0.66072464560E+02  0.85469951025E+02  0.47000000000E+01 0. -1.
         -5    1    3    3    0  502 -0.83744162230E+02  0.35810842859E+02 -0.44076485216E+03  0.45010137311E+03  0.47000000000E+01 0. -1.
        -11    1    1    2    0    0 -0.17707406233E+01 -0.44374194935E+02 -0.20666755799E+02  0.48982848976E+02  0.00000000000E+00 0. -1.
         11    1    1    2    0    0  0.80997278085E+02 -0.45260834138E+02 -0.17335658456E+03  0.19662555168E+03  0.00000000000E+00 0.  1.
<mgrwt>
<rscale>  0 0.16715311E+03</rscale>
<asrwt>0</asrwt>
<pdfrwt beam="2">  1        2 0.11400310E+00 0.17306813E+03</pdfrwt>
<pdfrwt beam="1">  1       -2 0.61783904E-02 0.17306813E+03</pdfrwt>
<totfact> 0.54161146E+03</totfact>
</mgrwt>
</event>
<event>
 7    1  0.5206756E-006  0.1834411E+03  0.7546771E-02  0.1166634E+00
         -1   -1    0    0    0  501 -0.00000000000E+00  0.00000000000E+00  0.97625721486E+03  0.97625721486E+03  0.00000000000E+00 0.  1.
          1   -1    0    0  501    0  0.00000000000E+00 -0.00000000000E+00 -0.36994008452E+02  0.36994008452E+02  0.00000000000E+00 0. -1.
         23    2    1    2    0    0  0.49417696056E+02 -0.12482729858E+03  0.31018369545E+03  0.36036726764E+03  0.12500671785E+03 0.  0.
          5    1    3    3  502    0  0.62853714289E+02 -0.25645370050E+02  0.59466067431E+02  0.90369118512E+02  0.47000000000E+01 0. -1.
         -5    1    3    3    0  502 -0.13436018233E+02 -0.99181928525E+02  0.25071762802E+03  0.26999814912E+03  0.47000000000E+01 0. -1.
        -11    1    1    2    0    0 -0.65631979275E+02  0.77318467354E+02  0.54959714230E+03  0.55887630198E+03  0.00000000000E+00 0.  1.
         11    1    1    2    0    0  0.16214283219E+02  0.47508831222E+02  0.79482368661E+02  0.94007653690E+02  0.00000000000E+00 0. -1.
<mgrwt>
<rscale>  0 0.18121295E+03</rscale>
<asrwt>0</asrwt>
<pdfrwt beam="2">  1        1 0.56913866E-02 0.18344111E+03</pdfrwt>
<pdfrwt beam="1">  1       -1 0.15019340E+00 0.18344111E+03</pdfrwt>
<totfact> 0.52259425E+02</totfact>
</mgrwt>
</event>
<event>
 7    1  0.5206756E-006  0.1389641E+03  0.7546771E-02  0.1226466E+00
          1   -1    0    0  501    0  0.00000000000E+00  0.00000000000E+00  0.63248504505E+03  0.63248504505E+03  0.00000000000E+00 0. -1.
         -1   -1    0    0    0  501 -0.00000000000E+00 -0.00000000000E+00 -0.24422589963E+02  0.24422589963E+02  0.00000000000E+00 0.  1.
         23    2    1    2    0    0 -0.46907330950E+02 -0.38535341013E+02  0.36973102090E+03  0.39498361110E+03  0.12500302003E+03 0.  0.
          5    1    3    3  502    0 -0.38718410666E+02  0.33749707270E+02  0.72700124416E+02  0.89137849175E+02  0.47000000000E+01 0. -1.
         -5    1    3    3    0  502 -0.81889202836E+01 -0.72285048283E+02  0.29703089648E+03  0.30584576192E+03  0.47000000000E+01 0. -1.
        -11    1    1    2    0    0  0.17604698510E+02 -0.13409112055E+02  0.72753760895E+01  0.23295080875E+02  0.00000000000E+00 0.  1.
         11    1    1    2    0    0  0.29302632440E+02  0.51944453069E+02  0.23105605810E+03  0.23862894304E+03  0.00000000000E+00 0. -1.
<mgrwt>
<rscale>  0 0.13066911E+03</rscale>
<asrwt>0</asrwt>
<pdfrwt beam="1">  1        1 0.97305379E-01 0.13896411E+03</pdfrwt>
<pdfrwt beam="2">  1       -1 0.37573220E-02 0.13896411E+03</pdfrwt>
<totfact> 0.84647198E+03</totfact>
</mgrwt>
</event>
<event>
 7    1  0.5206756E-006  0.1766635E+03  0.7546771E-02  0.1176873E+00
          1   -1    0    0  501    0  0.00000000000E+00  0.00000000000E+00  0.98803021112E+03  0.98803021112E+03  0.00000000000E+00 0. -1.
         -1   -1    0    0    0  501 -0.00000000000E+00 -0.00000000000E+00 -0.35304842652E+02  0.35304842652E+02  0.00000000000E+00 0.  1.
         23    2    1    2    0    0 -0.19287699189E+01 -0.12483419312E+03  0.73642174183E+03  0.75731563259E+03  0.12499075806E+03 0.  0.
          5    1    3    3  502    0 -0.44612739269E+02 -0.23813659284E+01  0.14381378936E+03  0.15066672963E+03  0.47000000000E+01 0.  1.
         -5    1    3    3    0  502  0.42683969350E+02 -0.12245282719E+03  0.59260795247E+03  0.60664890296E+03  0.47000000000E+01 0.  1.
        -11    1    1    2    0    0  0.11647716210E+01  0.92118148419E+02  0.68936189197E+02  0.11506219250E+03  0.00000000000E+00 0.  1.
         11    1    1    2    0    0  0.76399829795E+00  0.32716044704E+02  0.14736743744E+03  0.15095722868E+03  0.00000000000E+00 0. -1.
<mgrwt>
<rscale>  0 0.17093820E+03</rscale>
<asrwt>0</asrwt>
<pdfrwt beam="1">  1        1 0.15200463E+00 0.17666348E+03</pdfrwt>
<pdfrwt beam="2">  1       -1 0.54315150E-02 0.17666348E+03</pdfrwt>
<totfact> 0.25181010E+03</totfact>
</mgrwt>
</event>
<event>
 7    1  0.5206756E-006  0.1384555E+03  0.7546771E-02  0.1224070E+00
          2   -1    0    0  501    0  0.00000000000E+00  0.00000000000E+00  0.36629029114E+03  0.36629029114E+03  0.00000000000E+00 0. -1.
         -2   -1    0    0    0  501 -0.00000000000E+00 -0.00000000000E+00 -0.44065574854E+02  0.44065574854E+02  0.00000000000E+00 0.  1.
         23    2    1    2    0    0 -0.34042966234E+02  0.48844954519E+02  0.18340205106E+03  0.22979610686E+03  0.12500074106E+03 0.  0.
          5    1    3    3  502    0 -0.55565190469E+02  0.77928497226E+02  0.15984347735E+03  0.18636622098E+03  0.47000000000E+01 0. -1.
         -5    1    3    3    0  502  0.21522224235E+02 -0.29083542708E+02  0.23558573710E+02  0.43429885882E+02  0.47000000000E+01 0. -1.
        -11    1    1    2    0    0  0.66686652607E+02 -0.26313199772E+02  0.65068699626E+02  0.96816474782E+02  0.00000000000E+00 0.  1.
         11    1    1    2    0    0 -0.32643686373E+02 -0.22531754747E+02  0.73753965604E+02  0.83743284353E+02  0.00000000000E+00 0. -1.
<mgrwt>
<rscale>  0 0.13230825E+03</rscale>
<asrwt>0</asrwt>
<pdfrwt beam="1">  1        2 0.56352350E-01 0.13845555E+03</pdfrwt>
<pdfrwt beam="2">  1       -2 0.67793195E-02 0.13845555E+03</pdfrwt>
<totfact> 0.10224521E+04</totfact>
</mgrwt>
</event>
<event>
 7    1  0.5206756E-006  0.1278946E+03  0.7546771E-02  0.1230730E+00
          1   -1    0    0  501    0  0.00000000000E+00  0.00000000000E+00  0.19108115996E+03  0.19108115996E+03  0.00000000000E+00 0. -1.
         -1   -1    0    0    0  501 -0.00000000000E+00 -0.00000000000E+00 -0.85686204137E+02  0.85686204137E+02  0.00000000000E+00 0.  1.
         23    2    1    2    0    0 -0.25468144826E+02  0.14432210268E+01  0.44594715628E+02  0.13515631678E+03  0.12501132755E+03 0.  0.
          5    1    3    3  502    0  0.26423226857E+02 -0.48488131266E+02  0.19067991337E+02  0.58608566651E+02  0.47000000000E+01 0.  1.
         -5    1    3    3    0  502 -0.51891371683E+02  0.49931352293E+02  0.25526724292E+02  0.76547750131E+02  0.47000000000E+01 0.  1.
        -11    1    1    2    0    0 -0.42398005945E+02  0.11050851101E+02 -0.75771168346E+01  0.44464872851E+02  0.00000000000E+00 0.  1.
         11    1    1    2    0    0  0.67866150771E+02 -0.12494072127E+02  0.68377357034E+02  0.97146174467E+02  0.00000000000E+00 0. -1.
<mgrwt>
<rscale>  0 0.12781770E+03</rscale>
<asrwt>0</asrwt>
<pdfrwt beam="1">  1        1 0.29397102E-01 0.12789456E+03</pdfrwt>
<pdfrwt beam="2">  1       -1 0.13182493E-01 0.12789456E+03</pdfrwt>
<totfact> 0.58267780E+03</totfact>
</mgrwt>
</event>
<event>
 6    1  0.5206756E-006  0.2412132E+03  0.7546771E-02  0.1141882E+00
         -1   -1    0    0    0  501 -0.00000000000E+00  0.00000000000E+00  0.39802921070E+02  0.39802921070E+02  0.00000000000E+00 0.  1.
          1   -1    0    0  501    0  0.00000000000E+00 -0.00000000000E+00 -0.90095193160E+03  0.90095193160E+03  0.00000000000E+00 0. -1.
          5    1    1    2  502    0  0.70838888533E+02  0.67476070290E+02 -0.41535307991E+03  0.42674516891E+03  0.47000000000E+01 0. -1.
         -5    1    1    2    0  502  0.24045352939E+02 -0.10697550046E+03 -0.13381106547E+03  0.17305903021E+03  0.47000000000E+01 0.  1.
        -11    1    1    2    0    0 -0.19593842684E+02  0.37578293743E+02 -0.20963894916E+03  0.21387972283E+03  0.00000000000E+00 0. -1.
         11    1    1    2    0    0 -0.75290398789E+02  0.19211364312E+01 -0.10234591599E+03  0.12707093072E+03  0.00000000000E+00 0.  1.
<mgrwt>
<rscale>  0 0.20960194E+03</rscale>
<asrwt>0</asrwt>
<pdfrwt beam="2">  1        1 0.13860799E+00 0.24121322E+03</pdfrwt>
<pdfrwt beam="1">  1       -1 0.61235265E-02 0.24121322E+03</pdfrwt>
<totfact> 0.24629870E+03</totfact>
</mgrwt>
</event>
<event>
 7    1  0.5206756E-006  0.1381712E+03  0.7546771E-02  0.1227313E+00
         -1   -1    0    0    0  501 -0.00000000000E+00  0.00000000000E+00  0.20085597304E+02  0.20085597304E+02  0.00000000000E+00 0.  1.
          1   -1    0    0  501    0  0.00000000000E+00 -0.00000000000E+00 -0.82221420391E+03  0.82221420391E+03  0.00000000000E+00 0. -1.
         23    2    1    2    0    0  0.42272516392E+02 -0.40843244718E+02 -0.56236828671E+03  0.57909357617E+03  0.12504456719E+03 0.  0.
          5    1    3    3  502    0  0.36708723383E+02 -0.83096369599E+02 -0.30855806440E+03  0.32168728001E+03  0.47000000000E+01 0. -1.
         -5    1    3    3    0  502  0.55637930088E+01  0.42253124881E+02 -0.25381022231E+03  0.25740629616E+03  0.47000000000E+01 0. -1.
        -11    1    1    2    0    0 -0.83961443222E+01  0.62926427795E+02 -0.10691536467E+03  0.12434277525E+03  0.00000000000E+00 0.  1.
         11    1    1    2    0    0 -0.33876372069E+02 -0.22083183078E+02 -0.13284495523E+03  0.13886344980E+03  0.00000000000E+00 0. -1.
<mgrwt>
<rscale>  0 0.13009599E+03</rscale>
<asrwt>0</asrwt>
<pdfrwt beam="2">  1        1 0.12649449E+00 0.13817120E+03</pdfrwt>
<pdfrwt beam="1">  1       -1 0.30900919E-02 0.13817120E+03</pdfrwt>
<totfact> 0.77007243E+03</totfact>
</mgrwt>
</event>
<event>
 7    1  0.5206756E-006  0.1170763E+03  0.7546771E-02  0.1318546E+00
         -1   -1    0    0    0  501 -0.00000000000E+00  0.00000000000E+00  0.50789395902E+01  0.50789395902E+01  0.00000000000E+00 0.  1.
          1   -1    0    0  501    0  0.00000000000E+00 -0.00000000000E+00 -0.12441273161E+04  0.12441273161E+04  0.00000000000E+00 0. -1.
         23    2    1    2    0    0  0.15283865306E+02  0.25909679079E+02 -0.11252328286E+04  0.11313071140E+04  0.11314574503E+03 0.  0.
          5    1    3    3  502    0  0.22434221632E+02 -0.37544559668E+02 -0.25880594195E+03  0.26251760674E+03  0.47000000000E+01 0. -1.
         -5    1    3    3    0  502 -0.71503563256E+01  0.63454238747E+02 -0.86642688661E+03  0.86878950721E+03  0.47000000000E+01 0.  1.
        -11    1    1    2    0    0 -0.71434397753E+01 -0.13373218485E+02 -0.69365462308E+02  0.71003091944E+02  0.00000000000E+00 0. -1.
         11    1    1    2    0    0 -0.81404255308E+01 -0.12536460594E+02 -0.44450085651E+02  0.46896049795E+02  0.00000000000E+00 0.  1.
<mgrwt>
<rscale>  0 0.83820712E+02</rscale>
<asrwt>0</asrwt>
<pdfrwt beam="2">  1        1 0.19140427E+00 0.11707633E+03</pdfrwt>
<pdfrwt beam="1">  1       -1 0.78137504E-03 0.11707633E+03</pdfrwt>
<totfact> 0.27017159E+04</totfact>
</mgrwt>
</event>
<event>
 7    1  0.5206756E-006  0.1520104E+03  0.7546771E-02  0.1204669E+00
          2   -1    0    0  501    0  0.00000000000E+00  0.00000000000E+00  0.93926569896E+03  0.93926569896E+03  0.00000000000E+00 0. -1.
         -2   -1    0    0    0  501 -0.00000000000E+00 -0.00000000000E+00 -0.21435359137E+02  0.21435359137E+02  0.00000000000E+00 0.  1.
         23    2    1    2    0    0 -0.77665955781E+02 -0.38094227537E+02  0.50743920836E+03  0.52971852920E+03  0.12499599649E+03 0.  0.
          5    1    3    3  502    0  0.23179171616E+02 -0.43266936527E+02  0.20440988683E+03  0.21027314053E+03  0.47000000000E+01 0.  1.
         -5    1    3    3    0  502 -0.10084512740E+03  0.51727089894E+01  0.30302932153E+03  0.31944538868E+03  0.47000000000E+01 0.  1.
        -11    1    1    2    0    0 -0.15370316898E+02 -0.88236344577E+00  0.10673351653E+02  0.18733543239E+02  0.00000000000E+00 0.  1.
         11    1    1    2    0    0  0.93036272678E+02  0.38976590983E+02  0.39971777981E+03  0.41224898566E+03  0.00000000000E+00 0. -1.
<mgrwt>
<rscale>  0 0.14663559E+03</rscale>
<asrwt>0</asrwt>
<pdfrwt beam="1">  1        2 0.14450238E+00 0.15201043E+03</pdfrwt>
<pdfrwt beam="2">  1       -2 0.32977483E-02 0.15201043E+03</pdfrwt>
<totfact> 0.10208987E+04</totfact>
</mgrwt>
</event>
<event>
 7    1  0.5206756E-006  0.1814653E+03  0.7546771E-02  0.1171761E+00
         -2   -1    0    0    0  501 -0.00000000000E+00  0.00000000000E+00  0.61454011280E+02  0.61454011280E+02  0.00000000000E+00 0.  1.
          2   -1    0    0  501    0  0.00000000000E+00 -0.00000000000E+00 -0.65981884672E+03  0.65981884672E+03  0.00000000000E+00 0. -1.
         23    2    1    2    0    0 -0.12829963018E+03  0.29096822904E+02 -0.50271686843E+03  0.53446600684E+03  0.12498896933E+03 0.  0.
          5    1    3    3  502    0 -0.39150150298E+02 -0.48948890095E+02 -0.17891145015E+03  0.18963155092E+03  0.47000000000E+01 0.  1.
         -5    1    3    3    0  502 -0.89149479879E+02  0.78045712999E+02 -0.32380541828E+03  0.34483445592E+03  0.47000000000E+01 0.  1.
        -11    1    1    2    0    0  0.17736896679E+02  0.11221029204E+02  0.14585277978E+02  0.25558547179E+02  0.00000000000E+00 0.  1.
         11    1    1    2    0    0  0.11056273350E+03 -0.40317852108E+02 -0.11023324499E+03  0.16124830398E+03  0.00000000000E+00 0. -1.
<mgrwt>
<rscale>  0 0.17597004E+03</rscale>
<asrwt>0</asrwt>
<pdfrwt beam="2">  1        2 0.10151059E+00 0.18146532E+03</pdfrwt>
<pdfrwt beam="1">  1       -2 0.94544633E-02 0.18146532E+03</pdfrwt>
<totfact> 0.32249841E+03</totfact>
</mgrwt>
</event>
<event>
 7    1  0.5206756E-006  0.1172171E+03  0.7546771E-02  0.1257703E+00
          2   -1    0    0  501    0  0.00000000000E+00  0.00000000000E+00  0.61805606028E+03  0.61805606028E+03  0.00000000000E+00 0. -1.
         -2   -1    0    0    0  501 -0.00000000000E+00 -0.00000000000E+00 -0.18876661242E+02  0.18876661242E+02  0.00000000000E+00 0.  1.
         23    2    1    2    0    0 -0.20979106004E+02  0.33043558843E+02  0.37765909665E+03  0.39543171258E+03  0.11048912328E+03 0.  0.
          5    1    3    3  502    0  0.43582190531E+02  0.28464422900E+02  0.17464265500E+03  0.18229585198E+03  0.47000000000E+01 0. -1.
         -5    1    3    3    0  502 -0.64561296535E+02  0.45791359430E+01  0.20301644164E+03  0.21313586060E+03  0.47000000000E+01 0.  1.
        -11    1    1    2    0    0  0.27998750789E+02 -0.61123813594E+02  0.15332977703E+03  0.16742183597E+03  0.00000000000E+00 0.  1.
         11    1    1    2    0    0 -0.70196447851E+01  0.28080254751E+02  0.68190525354E+02  0.74079172970E+02  0.00000000000E+00 0. -1.
<mgrwt>
<rscale>  0 0.11156287E+03</rscale>
<asrwt>0</asrwt>
<pdfrwt beam="1">  1        2 0.95085532E-01 0.11721709E+03</pdfrwt>
<pdfrwt beam="2">  1       -2 0.29041022E-02 0.11721709E+03</pdfrwt>
<totfact> 0.20188133E+04</totfact>
</mgrwt>
</event>
<event>
 7    1  0.5206756E-006  0.1483077E+03  0.7546771E-02  0.1211728E+00
         -1   -1    0    0    0  501 -0.00000000000E+00  0.00000000000E+00  0.90463836251E+02  0.90463836251E+02  0.00000000000E+00 0.  1.
          1   -1    0    0  501    0  0.00000000000E+00 -0.00000000000E+00 -0.20173722550E+03  0.20173722550E+03  0.00000000000E+00 0. -1.
         23    2    1    2    0    0  0.12643396467E+02 -0.78812683032E+02 -0.63315963173E+02  0.16125780711E+03  0.12499549864E+03 0.  0.
          5    1    3    3  502    0 -0.46877240220E+02 -0.74786225501E+02 -0.40306882381E+02  0.97145200307E+02  0.47000000000E+01 0. -1.
         -5    1    3    3    0  502  0.59520636687E+02 -0.40264575310E+01 -0.23009080792E+02  0.64112606801E+02  0.47000000000E+01 0. -1.
        -11    1    1    2    0    0  0.29252964923E+02  0.21735009391E+02  0.11785588060E+02  0.38302045323E+02  0.00000000000E+00 0.  1.
         11    1    1    2    0    0 -0.41896361390E+02  0.57077673641E+02 -0.59743014133E+02  0.92641209317E+02  0.00000000000E+00 0. -1.
<mgrwt>
<rscale>  0 0.14119676E+03</rscale>
<asrwt>0</asrwt>
<pdfrwt beam="2">  1        1 0.31036496E-01 0.14830768E+03</pdfrwt>
<pdfrwt beam="1">  1       -1 0.13917513E-01 0.14830768E+03</pdfrwt>
<totfact> 0.50515182E+03</totfact>
</mgrwt>
</event>
<event>
 7    1  0.5206756E-006  0.1797511E+03  0.7546771E-02  0.1173587E+00
         -2   -1    0    0    0  501 -0.00000000000E+00  0.00000000000E+00  0.12140638676E+03  0.12140638676E+03  0.00000000000E+00 0.  1.
          2   -1    0    0  501    0  0.00000000000E+00 -0.00000000000E+00 -0.25379409078E+03  0.25379409078E+03  0.00000000000E+00 0. -1.
         23    2    1    2    0    0 -0.28498200116E+02  0.12599434746E+03 -0.12044540646E+03  0.21637363140E+03  0.12499491759E+03 0.  0.
          5    1    3    3  502    0 -0.40238519478E+02  0.13958621226E+03 -0.67476512170E+02  0.16024549541E+03  0.47000000000E+01 0.  1.
         -5    1    3    3    0  502  0.11740319362E+02 -0.13591864797E+02 -0.52968894295E+02  0.56128135994E+02  0.47000000000E+01 0.  1.
        -11    1    1    2    0    0 -0.65520429010E+01 -0.12267400521E+03 -0.50580229649E+01  0.12295293578E+03  0.00000000000E+00 0.  1.
         11    1    1    2    0    0  0.35050243017E+02 -0.33203422546E+01 -0.68842745888E+01  0.35873910364E+02  0.00000000000E+00 0. -1.
<mgrwt>
<rscale>  0 0.17415134E+03</rscale>
<asrwt>0</asrwt>
<pdfrwt beam="2">  1        2 0.39045245E-01 0.17975108E+03</pdfrwt>
<pdfrwt beam="1">  1       -2 0.18677905E-01 0.17975108E+03</pdfrwt>
<totfact> 0.30385784E+03</totfact>
</mgrwt>
</event>
<event>
 7    1  0.5206756E-006  0.1334732E+03  0.7546771E-02  0.1236144E+00
          2   -1    0    0  501    0  0.00000000000E+00  0.00000000000E+00  0.53155949017E+02  0.53155949017E+02  0.00000000000E+00 0. -1.
         -2   -1    0    0    0  501 -0.00000000000E+00 -0.00000000000E+00 -0.25885274735E+03  0.25885274735E+03  0.00000000000E+00 0.  1.
         23    2    1    2    0    0 -0.57363912126E+01 -0.46434522691E+02 -0.10546465583E+03  0.17011140593E+03  0.12500410280E+03 0.  0.
          5    1    3    3  502    0  0.11890423122E+02 -0.18996319396E+02 -0.12810375770E+03  0.13013418094E+03  0.47000000000E+01 0. -1.
         -5    1    3    3    0  502 -0.17626814335E+02 -0.27438203294E+02  0.22639101876E+02  0.39977224983E+02  0.47000000000E+01 0. -1.
        -11    1    1    2    0    0 -0.44831445867E+01 -0.24061946822E+02 -0.46930208313E+02  0.52929389969E+02  0.00000000000E+00 0.  1.
         11    1    1    2    0    0  0.10219535799E+02  0.70496469512E+02 -0.53301934200E+02  0.88967900476E+02  0.00000000000E+00 0. -1.
<mgrwt>
<rscale>  0 0.12431489E+03</rscale>
<asrwt>0</asrwt>
<pdfrwt beam="1">  1        2 0.81778384E-02 0.13347321E+03</pdfrwt>
<pdfrwt beam="2">  1       -2 0.39823499E-01 0.13347321E+03</pdfrwt>
<totfact> 0.47196659E+03</totfact>
</mgrwt>
</event>
<event>
 7    1  0.5206756E-006  0.1255178E+03  0.7546771E-02  0.1254154E+00
          1   -1    0    0  501    0  0.00000000000E+00  0.00000000000E+00  0.45453406472E+03  0.45453406472E+03  0.00000000000E+00 0. -1.
         -1   -1    0    0    0  501 -0.00000000000E+00 -0.00000000000E+00 -0.24372922953E+02  0.24372922953E+02  0.00000000000E+00 0.  1.
         23    2    1    2    0    0  0.70325501135E+01 -0.89914465365E+01  0.27961903142E+03  0.30649880991E+03  0.12499765949E+03 0.  0.
          5    1    3    3  502    0  0.22430297711E+02 -0.62950160749E+02  0.12292925878E+03  0.13999833449E+03  0.47000000000E+01 0. -1.
         -5    1    3    3    0  502 -0.15397747598E+02  0.53958714213E+02  0.15668977263E+03  0.16650047543E+03  0.47000000000E+01 0. -1.
        -11    1    1    2    0    0  0.23101959521E+02 -0.26315534690E+02  0.44302024252E+02  0.56470144790E+02  0.00000000000E+00 0.  1.
         11    1    1    2    0    0 -0.30134509634E+02  0.35306981227E+02  0.10624008610E+03  0.11593803296E+03  0.00000000000E+00 0. -1.
<mgrwt>
<rscale>  0 0.11353827E+03</rscale>
<asrwt>0</asrwt>
<pdfrwt beam="1">  1        1 0.69928311E-01 0.12551780E+03</pdfrwt>
<pdfrwt beam="2">  1       -1 0.37496808E-02 0.12551780E+03</pdfrwt>
<totfact> 0.13058166E+04</totfact>
</mgrwt>
</event>
<event>
 7    1  0.5206756E-006  0.1389476E+03  0.7546771E-02  0.1225867E+00
          1   -1    0    0  501    0  0.00000000000E+00  0.00000000000E+00  0.34376190766E+03  0.34376190766E+03  0.00000000000E+00 0. -1.
         -1   -1    0    0    0  501 -0.00000000000E+00 -0.00000000000E+00 -0.45527945945E+02  0.45527945945E+02  0.00000000000E+00 0.  1.
         23    2    1    2    0    0  0.43747370947E+02  0.42037438481E+02  0.18533333205E+03  0.23163521433E+03  0.12500179939E+03 0.  0.
          5    1    3    3  502    0 -0.40005323776E+02 -0.11417784630E+01  0.31382565931E+02  0.51075287888E+02  0.47000000000E+01 0. -1.
         -5    1    3    3    0  502  0.83752694723E+02  0.43179216945E+02  0.15395076612E+03  0.18055992644E+03  0.47000000000E+01 0. -1.
        -11    1    1    2    0    0 -0.40131534590E+02 -0.22310587864E+02  0.30818356844E+01  0.46019562259E+02  0.00000000000E+00 0.  1.
         11    1    1    2    0    0 -0.36158363573E+01 -0.19726850618E+02  0.10981879399E+03  0.11163507702E+03  0.00000000000E+00 0. -1.
<mgrwt>
<rscale>  0 0.13107631E+03</rscale>
<asrwt>0</asrwt>
<pdfrwt beam="1">  1        1 0.52886446E-01 0.13894757E+03</pdfrwt>
<pdfrwt beam="2">  1       -1 0.70042996E-02 0.13894757E+03</pdfrwt>
<totfact> 0.74176665E+03</totfact>
</mgrwt>
</event>
<event>
 7    1  0.5206756E-006  0.1456164E+03  0.7546771E-02  0.1217164E+00
         -1   -1    0    0    0  501 -0.00000000000E+00  0.00000000000E+00  0.22816404693E+02  0.22816404693E+02  0.00000000000E+00 0.  1.
          1   -1    0    0  501    0  0.00000000000E+00 -0.00000000000E+00 -0.75527596860E+03  0.75527596860E+03  0.00000000000E+00 0. -1.
         23    2    1    2    0    0  0.37336405996E+02  0.64688546211E+02 -0.45900877598E+03  0.48155290649E+03  0.12500212038E+03 0.  0.
          5    1    3    3  502    0 -0.42974334938E+02  0.44140687686E+02 -0.17124552537E+03  0.18205030550E+03  0.47000000000E+01 0.  1.
         -5    1    3    3    0  502  0.80310740934E+02  0.20547858524E+02 -0.28776325061E+03  0.29950260099E+03  0.47000000000E+01 0.  1.
        -11    1    1    2    0    0 -0.53545212775E+02 -0.27513629159E+02 -0.87443220638E+02  0.10616217046E+03  0.00000000000E+00 0.  1.
         11    1    1    2    0    0  0.16208806779E+02 -0.37174917052E+02 -0.18600756729E+03  0.19037729634E+03  0.00000000000E+00 0. -1.
<mgrwt>
<rscale>  0 0.13718799E+03</rscale>
<asrwt>0</asrwt>
<pdfrwt beam="2">  1        1 0.11619627E+00 0.14561643E+03</pdfrwt>
<pdfrwt beam="1">  1       -1 0.35102171E-02 0.14561643E+03</pdfrwt>
<totfact> 0.72804175E+03</totfact>
</mgrwt>
</event>
<event>
 7    1  0.5206756E-006  0.1268727E+03  0.7546771E-02  0.1247795E+00
         -1   -1    0    0    0  501 -0.00000000000E+00  0.00000000000E+00  0.44573183281E+02  0.44573183281E+02  0.00000000000E+00 0.  1.
          1   -1    0    0  501    0  0.00000000000E+00 -0.00000000000E+00 -0.28793166349E+03  0.28793166349E+03  0.00000000000E+00 0. -1.
         23    2    1    2    0    0  0.15688017172E+02  0.14985873331E+02 -0.18105333147E+03  0.22108139951E+03  0.12500394430E+03 0.  0.
          5    1    3    3  502    0 -0.23605538594E+02 -0.43278334852E+02 -0.11193205015E+03  0.12239734299E+03  0.47000000000E+01 0. -1.
         -5    1    3    3    0  502  0.39293555766E+02  0.58264208183E+02 -0.69121281316E+02  0.98684056517E+02  0.47000000000E+01 0. -1.
        -11    1    1    2    0    0 -0.45650128339E+02 -0.21416215426E+02 -0.10917744411E+02  0.51592496001E+02  0.00000000000E+00 0. -1.
         11    1    1    2    0    0  0.29962111167E+02  0.64303420958E+01 -0.51387404327E+02  0.59830951259E+02  0.00000000000E+00 0.  1.
<mgrwt>
<rscale>  0 0.11719671E+03</rscale>
<asrwt>0</asrwt>
<pdfrwt beam="2">  1        1 0.44297179E-01 0.12687268E+03</pdfrwt>
<pdfrwt beam="1">  1       -1 0.68574128E-02 0.12687268E+03</pdfrwt>
<totfact> 0.94766745E+03</totfact>
</mgrwt>
</event>
<event>
 7    1  0.5206756E-006  0.1430561E+03  0.7546771E-02  0.1215346E+00
         -2   -1    0    0    0  501 -0.00000000000E+00  0.00000000000E+00  0.86267579049E+02  0.86267579049E+02  0.00000000000E+00 0.  1.
          2   -1    0    0  501    0  0.00000000000E+00 -0.00000000000E+00 -0.21331189930E+03  0.21331189930E+03  0.00000000000E+00 0. -1.
         23    2    1    2    0    0 -0.45419795185E+02 -0.52689982477E+02 -0.87893066882E+02  0.16789948758E+03  0.12500341866E+03 0.  0.
          5    1    3    3  502    0 -0.71467137318E+02 -0.94385038968E+00 -0.12511374649E+02  0.72712220882E+02  0.47000000000E+01 0. -1.
         -5    1    3    3    0  502  0.26047342132E+02 -0.51746132087E+02 -0.75381692232E+02  0.95187266701E+02  0.47000000000E+01 0. -1.
        -11    1    1    2    0    0  0.25333928389E+01 -0.29233385035E+02  0.40410825763E+01  0.29619912699E+02  0.00000000000E+00 0.  1.
         11    1    1    2    0    0  0.42886402347E+02  0.81923367512E+02 -0.43192335946E+02  0.10206007807E+03  0.00000000000E+00 0. -1.
<mgrwt>
<rscale>  0 0.13851132E+03</rscale>
<asrwt>0</asrwt>
<pdfrwt beam="2">  1        2 0.32817215E-01 0.14305610E+03</pdfrwt>
<pdfrwt beam="1">  1       -2 0.13271935E-01 0.14305610E+03</pdfrwt>
<totfact> 0.63585271E+03</totfact>
</mgrwt>
</event>
<event>
 6    1  0.5206756E-006  0.3641015E+03  0.7546771E-02  0.1056972E+00
         -2   -1    0    0    0  501 -0.00000000000E+00  0.00000000000E+00  0.36199176357E+02  0.36199176357E+02  0.00000000000E+00 0.  1.
          2   -1    0    0  501    0  0.00000000000E+00 -0.00000000000E+00 -0.91555901891E+03  0.91555901891E+03  0.00000000000E+00 0. -1.
          5    1    1    2  502    0 -0.22721098353E+02 -0.32306359213E+01 -0.67307656350E+03  0.67348410200E+03  0.47000000000E+01 0. -1.
         -5    1    1    2    0  502 -0.53988115454E+00  0.59968155776E+02 -0.13308154535E+03  0.14604540011E+03  0.47000000000E+01 0.  1.
        -11    1    1    2    0    0 -0.28465597796E+02 -0.41856209474E+02 -0.14649015319E+02  0.52695599240E+02  0.00000000000E+00 0. -1.
         11    1    1    2    0    0  0.51726577304E+02 -0.14881310381E+02 -0.58552718384E+02  0.79533093919E+02  0.00000000000E+00 0.  1.
<mgrwt>
<rscale>  0 0.36410154E+03</rscale>
<asrwt>0</asrwt>
<pdfrwt beam="2">  1        2 0.14085524E+00 0.36410154E+03</pdfrwt>
<pdfrwt beam="1">  1       -2 0.55691036E-02 0.36410154E+03</pdfrwt>
<totfact> 0.49495226E+03</totfact>
</mgrwt>
</event>
<event>
 7    1  0.5206756E-006  0.1425276E+03  0.7546771E-02  0.1220678E+00
          1   -1    0    0  501    0  0.00000000000E+00  0.00000000000E+00  0.28828875629E+03  0.28828875629E+03  0.00000000000E+00 0. -1.
         -1   -1    0    0    0  501 -0.00000000000E+00 -0.00000000000E+00 -0.56908413985E+02  0.56908413985E+02  0.00000000000E+00 0.  1.
         23    2    1    2    0    0 -0.60174061729E+02  0.32690237240E+02  0.13101508439E+03  0.19359512421E+03  0.12499820185E+03 0.  0.
          5    1    3    3  502    0 -0.10071707839E+02  0.61135458884E+02  0.14918041422E+02  0.63903220511E+02  0.47000000000E+01 0. -1.
         -5    1    3    3    0  502 -0.50102353890E+02 -0.28445221644E+02  0.11609704297E+03  0.12969190370E+03  0.47000000000E+01 0. -1.
        -11    1    1    2    0    0 -0.28460180380E+01 -0.39571379693E+02  0.94785442643E+01  0.40790154583E+02  0.00000000000E+00 0.  1.
         11    1    1    2    0    0  0.63020079767E+02  0.68811424532E+01  0.90886713649E+02  0.11081189148E+03  0.00000000000E+00 0. -1.
<mgrwt>
<rscale>  0 0.13467594E+03</rscale>
<asrwt>0</asrwt>
<pdfrwt beam="1">  1        1 0.44352116E-01 0.14252761E+03</pdfrwt>
<pdfrwt beam="2">  1       -1 0.87551408E-02 0.14252761E+03</pdfrwt>
<totfact> 0.66027399E+03</totfact>
</mgrwt>
</event>
<event>
 7    1  0.5206756E-006  0.2150558E+03  0.7546771E-02  0.1139175E+00
          1   -1    0    0  501    0  0.00000000000E+00  0.00000000000E+00  0.65111103404E+03  0.65111103404E+03  0.00000000000E+00 0. -1.
         -1   -1    0    0    0  501 -0.00000000000E+00 -0.00000000000E+00 -0.68802286085E+02  0.68802286085E+02  0.00000000000E+00 0.  1.
         23    2    1    2    0    0 -0.15656477922E+03 -0.90183215659E+02  0.32273886974E+03  0.38782648917E+03  0.11663389379E+03 0.  0.
          5    1    3    3  502    0 -0.12510982591E+03 -0.90653019435E+01  0.16143311184E+03  0.20449300193E+03  0.47000000000E+01 0. -1.
         -5    1    3    3    0  502 -0.31454953312E+02 -0.81117913715E+02  0.16130575790E+03  0.18333348724E+03  0.47000000000E+01 0.  1.
        -11    1    1    2    0    0  0.26775147207E+02  0.53571254628E+02  0.32890764609E+02  0.68327082675E+02  0.00000000000E+00 0.  1.
         11    1    1    2    0    0  0.12978963201E+03  0.36611961031E+02  0.22667911360E+03  0.26375974828E+03  0.00000000000E+00 0. -1.
<mgrwt>
<rscale>  0 0.21304781E+03</rscale>
<asrwt>0</asrwt>
<pdfrwt beam="1">  1        1 0.10017092E+00 0.21505582E+03</pdfrwt>
<pdfrwt beam="2">  1       -1 0.10584968E-01 0.21505582E+03</pdfrwt>
<totfact> 0.17405616E+03</totfact>
</mgrwt>
</event>
<event>
 7    1  0.5206756E-006  0.1326862E+03  0.7546771E-02  0.1238677E+00
         -1   -1    0    0    0  501 -0.00000000000E+00  0.00000000000E+00  0.60670432653E+02  0.60670432653E+02  0.00000000000E+00 0.  1.
          1   -1    0    0  501    0  0.00000000000E+00 -0.00000000000E+00 -0.22993768805E+03  0.22993768805E+03  0.00000000000E+00 0. -1.
         23    2    1    2    0    0 -0.44385500265E+02  0.32026328241E+01 -0.13037120774E+03  0.18601686120E+03  0.12500116540E+03 0.  0.
          5    1    3    3  502    0 -0.81750833515E+02  0.25077912686E+02 -0.65208776979E+02  0.10764002546E+03  0.47000000000E+01 0. -1.
         -5    1    3    3    0  502  0.37365333250E+02 -0.21875279862E+02 -0.65162430765E+02  0.78376835743E+02  0.47000000000E+01 0. -1.
        -11    1    1    2    0    0  0.58649531932E+02 -0.17487713819E+02 -0.49031781533E+00  0.61203171013E+02  0.00000000000E+00 0.  1.
         11    1    1    2    0    0 -0.14264031668E+02  0.14285080995E+02 -0.38405729837E+02  0.43388088489E+02  0.00000000000E+00 0. -1.
<mgrwt>
<rscale>  0 0.12271924E+03</rscale>
<asrwt>0</asrwt>
<pdfrwt beam="2">  1        1 0.35375029E-01 0.13268617E+03</pdfrwt>
<pdfrwt beam="1">  1       -1 0.93339128E-02 0.13268617E+03</pdfrwt>
<totfact> 0.78872526E+03</totfact>
</mgrwt>
</event>
<event>
 7    1  0.5206756E-006  0.1283765E+03  0.7546771E-02  0.1244012E+00
         -2   -1    0    0    0  501 -0.00000000000E+00  0.00000000000E+00  0.29309265820E+02  0.29309265820E+02  0.00000000000E+00 0.  1.
          2   -1    0    0  501    0  0.00000000000E+00 -0.00000000000E+00 -0.75807617256E+03  0.75807617256E+03  0.00000000000E+00 0. -1.
         23    2    1    2    0    0 -0.70676369133E+01 -0.28345104538E+02 -0.65137924967E+03  0.66390921780E+03  0.12500850426E+03 0.  0.
          5    1    3    3  502    0 -0.51151542233E+02 -0.40945450871E+02 -0.20764652712E+03  0.21778930287E+03  0.47000000000E+01 0. -1.
         -5    1    3    3    0  502  0.44083905320E+02  0.12600346333E+02 -0.44373272255E+03  0.44611991493E+03  0.47000000000E+01 0. -1.
        -11    1    1    2    0    0  0.27187333796E+02 -0.71872724455E+01  0.76497695765E+01  0.29143214969E+02  0.00000000000E+00 0.  1.
         11    1    1    2    0    0 -0.20119696883E+02  0.35532376983E+02 -0.85037426642E+02  0.94333005606E+02  0.00000000000E+00 0. -1.
<mgrwt>
<rscale>  0 0.11944721E+03</rscale>
<asrwt>0</asrwt>
<pdfrwt beam="2">  1        2 0.11662711E+00 0.12837649E+03</pdfrwt>
<pdfrwt beam="1">  1       -2 0.45091178E-02 0.12837649E+03</pdfrwt>
<totfact> 0.83490974E+03</totfact>
</mgrwt>
</event>
<event>
 7    1  0.5206756E-006  0.1283904E+03  0.7546771E-02  0.1243662E+00
         -2   -1    0    0    0  501 -0.00000000000E+00  0.00000000000E+00  0.60449683611E+02  0.60449683611E+02  0.00000000000E+00 0.  1.
          2   -1    0    0  501    0  0.00000000000E+00 -0.00000000000E+00 -0.23599886746E+03  0.23599886746E+03  0.00000000000E+00 0. -1.
         23    2    1    2    0    0  0.11636644793E+01 -0.29272626915E+02 -0.14760649166E+03  0.19563171936E+03  0.12500340970E+03 0.  0.
          5    1    3    3  502    0 -0.62394754691E+01  0.37472430654E+02 -0.11427054852E+03  0.12051125413E+03  0.47000000000E+01 0.  1.
         -5    1    3    3    0  502  0.74031399484E+01 -0.66745057569E+02 -0.33335943141E+02  0.75120465228E+02  0.47000000000E+01 0.  1.
        -11    1    1    2    0    0 -0.28620675619E+02 -0.88786963566E+00  0.22162889712E+02  0.36209460998E+02  0.00000000000E+00 0.  1.
         11    1    1    2    0    0  0.27457011140E+02  0.30160496551E+02 -0.50105581898E+02  0.64607370712E+02  0.00000000000E+00 0. -1.
<mgrwt>
<rscale>  0 0.11965848E+03</rscale>
<asrwt>0</asrwt>
<pdfrwt beam="2">  1        2 0.36307518E-01 0.12839039E+03</pdfrwt>
<pdfrwt beam="1">  1       -2 0.92999512E-02 0.12839039E+03</pdfrwt>
<totfact> 0.99524200E+03</totfact>
</mgrwt>
</event>
<event>
 7    1  0.5206756E-006  0.1547242E+03  0.7546771E-02  0.1203117E+00
         -1   -1    0    0    0  501 -0.00000000000E+00  0.00000000000E+00  0.64993305830E+02  0.64993305830E+02  0.00000000000E+00 0.  1.
          1   -1    0    0  501    0  0.00000000000E+00 -0.00000000000E+00 -0.39123282392E+03  0.39123282392E+03  0.00000000000E+00 0. -1.
         23    2    1    2    0    0 -0.90484825655E+02 -0.11271871476E+02 -0.27853108274E+03  0.31862069783E+03  0.12500010508E+03 0.  0.
          5    1    3    3  502    0 -0.99907226828E+02  0.10382718623E+02 -0.27677786456E+03  0.29447806561E+03  0.47000000000E+01 0. -1.
         -5    1    3    3    0  502  0.94224011729E+01 -0.21654590099E+02 -0.17532181848E+01  0.24142632214E+02  0.47000000000E+01 0. -1.
        -11    1    1    2    0    0 -0.13022701696E+02 -0.14575035402E+02 -0.18690537866E+02  0.27043642916E+02  0.00000000000E+00 0. -1.
         11    1    1    2    0    0  0.10350752735E+03  0.25846906878E+02 -0.29017897478E+02  0.11056178900E+03  0.00000000000E+00 0.  1.
<mgrwt>
<rscale>  0 0.14786840E+03</rscale>
<asrwt>0</asrwt>
<pdfrwt beam="2">  1        1 0.60189667E-01 0.15472422E+03</pdfrwt>
<pdfrwt beam="1">  1       -1 0.99989698E-02 0.15472422E+03</pdfrwt>
<totfact> 0.36994034E+03</totfact>
</mgrwt>
</event>
<event>
 7    1  0.5206756E-006  0.1472605E+03  0.7546771E-02  0.1213340E+00
         -1   -1    0    0    0  501 -0.00000000000E+00  0.00000000000E+00  0.25308423634E+02  0.25308423634E+02  0.00000000000E+00 0.  1.
          1   -1    0    0  501    0  0.00000000000E+00 -0.00000000000E+00 -0.74262164017E+03  0.74262164017E+03  0.00000000000E+00 0. -1.
         23    2    1    2    0    0 -0.32207913942E+02  0.70874798136E+02 -0.47679418625E+03  0.49901737737E+03  0.12500024056E+03 0.  0.
          5    1    3    3  502    0 -0.12924054597E+02 -0.33296262761E+02 -0.18680245720E+03  0.19024437000E+03  0.47000000000E+01 0. -1.
         -5    1    3    3    0  502 -0.19283859345E+02  0.10417106090E+03 -0.28999172905E+03  0.30877300736E+03  0.47000000000E+01 0. -1.
        -11    1    1    2    0    0 -0.11779506118E+02 -0.60242431870E+02 -0.72944969382E+02  0.95335596291E+02  0.00000000000E+00 0.  1.
         11    1    1    2    0    0  0.43987420060E+02 -0.10632366266E+02 -0.16757406090E+03  0.17357709014E+03  0.00000000000E+00 0. -1.
<mgrwt>
<rscale>  0 0.13999195E+03</rscale>
<asrwt>0</asrwt>
<pdfrwt beam="2">  1        1 0.11424948E+00 0.14726047E+03</pdfrwt>
<pdfrwt beam="1">  1       -1 0.38936037E-02 0.14726047E+03</pdfrwt>
<totfact> 0.64139805E+03</totfact>
</mgrwt>
</event>
<event>
 7    1  0.5206756E-006  0.1467561E+03  0.7546771E-02  0.1214185E+00
         -4   -1    0    0    0  501 -0.00000000000E+00  0.00000000000E+00  0.19094930789E+03  0.19094930789E+03  0.00000000000E+00 0.  1.
          4   -1    0    0  501    0  0.00000000000E+00 -0.00000000000E+00 -0.10323684106E+03  0.10323684106E+03  0.00000000000E+00 0. -1.
         23    2    1    2    0    0 -0.56513599320E+02  0.52136208467E+02  0.11724388946E+01  0.14676075353E+03  0.12500149208E+03 0.  0.
          5    1    3    3  502    0 -0.92801348198E+02  0.39010436071E+02  0.21272862595E+02  0.10299771373E+03  0.47000000000E+01 0. -1.
         -5    1    3    3    0  502  0.36287748878E+02  0.13125772396E+02 -0.20100423700E+02  0.43763039801E+02  0.47000000000E+01 0. -1.
        -11    1    1    2    0    0  0.11704391012E+02  0.19627123866E+02  0.50567570716E+02  0.55491404455E+02  0.00000000000E+00 0.  1.
         11    1    1    2    0    0  0.44809208308E+02 -0.71763332334E+02  0.35972457219E+02  0.91933990968E+02  0.00000000000E+00 0. -1.
<mgrwt>
<rscale>  0 0.13936545E+03</rscale>
<asrwt>0</asrwt>
<pdfrwt beam="2">  1        4 0.15882591E-01 0.14675607E+03</pdfrwt>
<pdfrwt beam="1">  1       -4 0.29376817E-01 0.14675607E+03</pdfrwt>
<totfact> 0.63413811E+02</totfact>
</mgrwt>
</event>
<event>
 7    1  0.5206756E-006  0.1855539E+03  0.7546771E-02  0.1167790E+00
          1   -1    0    0  501    0  0.00000000000E+00  0.00000000000E+00  0.80129161239E+03  0.80129161239E+03  0.00000000000E+00 0. -1.
         -1   -1    0    0    0  501 -0.00000000000E+00 -0.00000000000E+00 -0.44539088732E+02  0.44539088732E+02  0.00000000000E+00 0.  1.
         23    2    1    2    0    0  0.11822586472E+03 -0.69470186330E+02  0.55729775146E+03  0.58737639172E+03  0.12500711935E+03 0.  0.
          5    1    3    3  502    0 -0.22906454047E+02 -0.35800446814E+01  0.34363576599E+02  0.41718913620E+02  0.47000000000E+01 0.  1.
         -5    1    3    3    0  502  0.14113231876E+03 -0.65890141649E+02  0.52293417486E+03  0.54565747810E+03  0.47000000000E+01 0.  1.
        -11    1    1    2    0    0 -0.10435418927E+03  0.60184767982E+02  0.20749250440E+03  0.23992736921E+03  0.00000000000E+00 0. -1.
         11    1    1    2    0    0 -0.13871675451E+02  0.92854183485E+01 -0.80377322065E+01  0.18526940189E+02  0.00000000000E+00 0.  1.
<mgrwt>
<rscale>  0 0.18001389E+03</rscale>
<asrwt>0</asrwt>
<pdfrwt beam="1">  1        1 0.12327562E+00 0.18555388E+03</pdfrwt>
<pdfrwt beam="2">  1       -1 0.68521681E-02 0.18555388E+03</pdfrwt>
<totfact> 0.24879376E+03</totfact>
</mgrwt>
</event>
<event>
 7    1  0.5206756E-006  0.1532733E+03  0.7546771E-02  0.1204776E+00
         -4   -1    0    0    0  501 -0.00000000000E+00  0.00000000000E+00  0.25249570872E+02  0.25249570872E+02  0.00000000000E+00 0.  1.
          4   -1    0    0  501    0  0.00000000000E+00 -0.00000000000E+00 -0.79109251527E+03  0.79109251527E+03  0.00000000000E+00 0. -1.
         23    2    1    2    0    0  0.78773916007E+02  0.40774301839E+02 -0.37808408836E+03  0.40797094557E+03  0.12499936410E+03 0.  0.
          5    1    3    3  502    0  0.11337234985E+02  0.60812819617E+02 -0.77731755672E+02  0.99453746872E+02  0.47000000000E+01 0.  1.
         -5    1    3    3    0  502  0.67436681022E+02 -0.20038517778E+02 -0.30035233269E+03  0.30851719870E+03  0.47000000000E+01 0.  1.
        -11    1    1    2    0    0 -0.89013293049E+01 -0.25888679413E+02 -0.20428527340E+02  0.34158192494E+02  0.00000000000E+00 0.  1.
         11    1    1    2    0    0 -0.69872586702E+02 -0.14885622426E+02 -0.36733032870E+03  0.37421294808E+03  0.00000000000E+00 0. -1.
<mgrwt>
<rscale>  0 0.14655098E+03</rscale>
<asrwt>0</asrwt>
<pdfrwt beam="2">  1        4 0.12170654E+00 0.15327333E+03</pdfrwt>
<pdfrwt beam="1">  1       -4 0.38845493E-02 0.15327333E+03</pdfrwt>
<totfact> 0.32733921E+02</totfact>
</mgrwt>
</event>
<event>
 7    1  0.5206756E-006  0.1410183E+03  0.7546771E-02  0.1222238E+00
          1   -1    0    0  501    0  0.00000000000E+00  0.00000000000E+00  0.24043039180E+03  0.24043039180E+03  0.00000000000E+00 0.  1.
         -1   -1    0    0    0  501 -0.00000000000E+00 -0.00000000000E+00 -0.68023127672E+02  0.68023127672E+02  0.00000000000E+00 0. -1.
         23    2    1    2    0    0  0.49028483143E+02 -0.43119421247E+02  0.11035494703E+03  0.17906528487E+03  0.12499234082E+03 0.  0.
          5    1    3    3  502    0  0.32999422593E+02  0.42163239607E+02  0.35957924351E+02  0.64666552323E+02  0.47000000000E+01 0. -1.
         -5    1    3    3    0  502  0.16029060550E+02 -0.85282660854E+02  0.74397022683E+02  0.11439873255E+03  0.47000000000E+01 0. -1.
        -11    1    1    2    0    0 -0.19496448555E+02 -0.99642163626E+01  0.64982598246E+02  0.68572116700E+02  0.00000000000E+00 0.  1.
         11    1    1    2    0    0 -0.29532034588E+02  0.53083637610E+02 -0.29302811525E+01  0.60816117900E+02  0.00000000000E+00 0. -1.
<mgrwt>
<rscale>  0 0.13358008E+03</rscale>
<asrwt>0</asrwt>
<pdfrwt beam="1">  1        1 0.36989290E-01 0.14101830E+03</pdfrwt>
<pdfrwt beam="2">  1       -1 0.10465097E-01 0.14101830E+03</pdfrwt>
<totfact> 0.62937264E+03</totfact>
</mgrwt>
</event>
<event>
 6    1  0.5206756E-006  0.1383736E+03  0.7546771E-02  0.1229009E+00
         -1   -1    0    0    0  501 -0.00000000000E+00  0.00000000000E+00  0.94026533362E+02  0.94026533362E+02  0.00000000000E+00 0.  1.
          1   -1    0    0  501    0  0.00000000000E+00 -0.00000000000E+00 -0.31904961775E+03  0.31904961775E+03  0.00000000000E+00 0. -1.
          5    1    1    2  502    0  0.57618366247E+02  0.37671900401E+02 -0.15061148091E+03  0.16566519366E+03  0.47000000000E+01 0. -1.
         -5    1    1    2    0  502 -0.14574952244E+02 -0.66781554090E+02 -0.11626197610E+03  0.13494866537E+03  0.47000000000E+01 0.  1.
        -11    1    1    2    0    0 -0.61656563484E+02  0.38227276550E+02  0.82900177037E+01  0.73017675166E+02  0.00000000000E+00 0.  1.
         11    1    1    2    0    0  0.18613149482E+02 -0.91176228602E+01  0.33560354924E+02  0.39444616906E+02  0.00000000000E+00 0. -1.
<mgrwt>
<rscale>  0 0.12895846E+03</rscale>
<asrwt>0</asrwt>
<pdfrwt beam="2">  1        1 0.49084556E-01 0.13837359E+03</pdfrwt>
<pdfrwt beam="1">  1       -1 0.14465621E-01 0.13837359E+03</pdfrwt>
<totfact> 0.26846646E+03</totfact>
</mgrwt>
</event>
<event>
 7    1  0.5206756E-006  0.1313125E+03  0.7546771E-02  0.1238149E+00
         -2   -1    0    0    0  501 -0.00000000000E+00  0.00000000000E+00  0.52987840750E+02  0.52987840750E+02  0.00000000000E+00 0.  1.
          2   -1    0    0  501    0  0.00000000000E+00 -0.00000000000E+00 -0.26234377096E+03  0.26234377096E+03  0.00000000000E+00 0. -1.
         23    2    1    2    0    0  0.13187047318E+02  0.37992556946E+02 -0.14367382019E+03  0.19464102149E+03  0.12500251214E+03 0.  0.
          5    1    3    3  502    0 -0.51367269519E+02 -0.64588100942E+01 -0.46849172527E+02  0.69980337040E+02  0.47000000000E+01 0. -1.
         -5    1    3    3    0  502  0.64554316837E+02  0.44451367040E+02 -0.96824647661E+02  0.12466068445E+03  0.47000000000E+01 0. -1.
        -11    1    1    2    0    0 -0.48052128306E+02 -0.43792751601E+02 -0.50031018788E+02  0.82036058953E+02  0.00000000000E+00 0. -1.
         11    1    1    2    0    0  0.34865080988E+02  0.58001946550E+01 -0.15651091232E+02  0.38654531262E+02  0.00000000000E+00 0.  1.
<mgrwt>
<rscale>  0 0.12304981E+03</rscale>
<asrwt>0</asrwt>
<pdfrwt beam="2">  1        2 0.40360579E-01 0.13131245E+03</pdfrwt>
<pdfrwt beam="1">  1       -2 0.81519757E-02 0.13131245E+03</pdfrwt>
<totfact> 0.10929815E+04</totfact>
</mgrwt>
</event>
<event>
 6    1  0.5206756E-006  0.4160062E+03  0.7546771E-02  0.1054152E+00
         -1   -1    0    0    0  501 -0.00000000000E+00  0.00000000000E+00  0.48675802801E+03  0.48675802801E+03  0.00000000000E+00 0.  1.
          1   -1    0    0  501    0  0.00000000000E+00 -0.00000000000E+00 -0.41468227003E+03  0.41468227003E+03  0.00000000000E+00 0. -1.
          5    1    1    2  502    0  0.73939407769E+02  0.12793607428E+03 -0.31998599233E+03  0.35248801456E+03  0.47000000000E+01 0. -1.
         -5    1    1    2    0  502 -0.11461668425E+02  0.11170620854E+03  0.70424760598E+02  0.13263251402E+03  0.47000000000E+01 0.  1.
        -11    1    1    2    0    0 -0.62110475401E+02 -0.18596908716E+03  0.30012914892E+03  0.35849646939E+03  0.00000000000E+00 0.  1.
         11    1    1    2    0    0 -0.36726394266E+00 -0.53673195660E+02  0.21507840801E+02  0.57823300071E+02  0.00000000000E+00 0. -1.
<mgrwt>
<rscale>  0 0.37141766E+03</rscale>
<asrwt>0</asrwt>
<pdfrwt beam="2">  1        1 0.63797272E-01 0.41600615E+03</pdfrwt>
<pdfrwt beam="1">  1       -1 0.74885851E-01 0.41600615E+03</pdfrwt>
<totfact> 0.10722574E+02</totfact>
</mgrwt>
</event>
<event>
 7    1  0.5536786E-006  0.2165918E+03  0.7546771E-02  0.1140031E+00
          1   -1    0    0  501    0  0.00000000000E+00  0.00000000000E+00  0.19447782569E+03  0.19447782569E+03  0.00000000000E+00 0. -1.
         -1   -1    0    0    0  501 -0.00000000000E+00 -0.00000000000E+00 -0.22612913328E+03  0.22612913328E+03  0.00000000000E+00 0.  1.
         23    2    1    2    0    0 -0.12566864934E+03  0.12447618593E+03  0.13201203866E+02  0.21699368603E+03  0.12500023081E+03 0.  0.
          5    1    3    3  502    0 -0.11274778237E+03  0.86374364073E+02 -0.42311867677E+02  0.14827331973E+03  0.47000000000E+01 0. -1.
         -5    1    3    3    0  502 -0.12920866970E+02  0.38101821862E+02  0.55513071543E+02  0.68720366302E+02  0.47000000000E+01 0. -1.
        -11    1    1    2    0    0  0.67574342118E+02 -0.94951178260E+02  0.11966625985E+02  0.11715467598E+03  0.00000000000E+00 0. -1.
         11    1    1    2    0    0  0.58094307222E+02 -0.29525007675E+02 -0.56819137434E+02  0.86458596961E+02  0.00000000000E+00 0.  1.
<mgrwt>
<rscale>  0 0.21194963E+03</rscale>
<asrwt>0</asrwt>
<pdfrwt beam="1">  1        1 0.29919666E-01 0.21659175E+03</pdfrwt>
<pdfrwt beam="2">  1       -1 0.34789097E-01 0.21659175E+03</pdfrwt>
<totfact> 0.11971258E+03</totfact>
</mgrwt>
</event>
<event>
 7    1  0.5206756E-006  0.1363179E+03  0.7546771E-02  0.1230791E+00
         -2   -1    0    0    0  501 -0.00000000000E+00  0.00000000000E+00  0.69087630209E+02  0.69087630209E+02  0.00000000000E+00 0.  1.
          2   -1    0    0  501    0  0.00000000000E+00 -0.00000000000E+00 -0.22482962714E+03  0.22482962714E+03  0.00000000000E+00 0. -1.
         23    2    1    2    0    0  0.39068887194E+02 -0.37847130672E+02 -0.12326530641E+03  0.18378495245E+03  0.12499515886E+03 0.  0.
          5    1    3    3  502    0 -0.99146495738E+01  0.17534043571E+02  0.15926424507E+02  0.26105247704E+02  0.47000000000E+01 0. -1.
         -5    1    3    3    0  502  0.48983536768E+02 -0.55381174242E+02 -0.13919173091E+03  0.15767970475E+03  0.47000000000E+01 0. -1.
        -11    1    1    2    0    0 -0.65355872913E+02  0.26309853209E+02 -0.39233655152E+02  0.80640425326E+02  0.00000000000E+00 0. -1.
         11    1    1    2    0    0  0.26286985719E+02  0.11537277462E+02  0.67569646305E+01  0.29491879568E+02  0.00000000000E+00 0.  1.
<mgrwt>
<rscale>  0 0.12777758E+03</rscale>
<asrwt>0</asrwt>
<pdfrwt beam="2">  1        2 0.34589173E-01 0.13631791E+03</pdfrwt>
<pdfrwt beam="1">  1       -2 0.10628866E-01 0.13631791E+03</pdfrwt>
<totfact> 0.85382109E+03</totfact>
</mgrwt>
</event>
<event>
 7    1  0.5206756E-006  0.1261693E+03  0.7546771E-02  0.1242859E+00
         -1   -1    0    0    0  501 -0.00000000000E+00  0.00000000000E+00  0.10653609256E+02  0.10653609256E+02  0.00000000000E+00 0.  1.
          1   -1    0    0  501    0  0.00000000000E+00 -0.00000000000E+00 -0.13635304551E+04  0.13635304551E+04  0.00000000000E+00 0. -1.
         23    2    1    2    0    0 -0.52421814618E+02 -0.69308609454E+01 -0.94204570697E+03  0.95045715926E+03  0.11455397896E+03 0.  0.
          5    1    3    3  502    0 -0.20276489854E+02  0.20367260314E+02 -0.83206358242E+03  0.83257303375E+03  0.47000000000E+01 0. -1.
         -5    1    3    3    0  502 -0.32145324765E+02 -0.27298121259E+02 -0.10998212455E+03  0.11788412552E+03  0.47000000000E+01 0.  1.
        -11    1    1    2    0    0 -0.18109313988E+02 -0.10561386062E+02 -0.33927286131E+02  0.39881711007E+02  0.00000000000E+00 0.  1.
         11    1    1    2    0    0  0.70531128606E+02  0.17492247008E+02 -0.37690385271E+03  0.38384519405E+03  0.00000000000E+00 0. -1.
<mgrwt>
<rscale>  0 0.12014433E+03</rscale>
<asrwt>0</asrwt>
<pdfrwt beam="2">  1        1 0.20977395E+00 0.12616932E+03</pdfrwt>
<pdfrwt beam="1">  1       -1 0.16390165E-02 0.12616932E+03</pdfrwt>
<totfact> 0.78707381E+03</totfact>
</mgrwt>
</event>
<event>
 7    1  0.5206756E-006  0.1627352E+03  0.7546771E-02  0.1193593E+00
          2   -1    0    0  501    0  0.00000000000E+00  0.00000000000E+00  0.38391768441E+03  0.38391768441E+03  0.00000000000E+00 0. -1.
         -2   -1    0    0    0  501 -0.00000000000E+00 -0.00000000000E+00 -0.67246025599E+02  0.67246025599E+02  0.00000000000E+00 0.  1.
         23    2    1    2    0    0  0.79583215136E+02 -0.67267542496E+02  0.25232788704E+03  0.30025340772E+03  0.12499734344E+03 0.  0.
          5    1    3    3  502    0  0.74234390115E+02 -0.67971781166E+02  0.26620690889E+03  0.28463857091E+03  0.47000000000E+01 0. -1.
         -5    1    3    3    0  502  0.53488250210E+01  0.70423867020E+00 -0.13879021848E+02  0.15614836812E+02  0.47000000000E+01 0. -1.
        -11    1    1    2    0    0  0.18832411194E+02  0.14418090313E+02  0.43572463995E+01  0.24114863380E+02  0.00000000000E+00 0. -1.
         11    1    1    2    0    0 -0.98415626329E+02  0.52849452182E+02  0.59986525377E+02  0.12679543891E+03  0.00000000000E+00 0.  1.
<mgrwt>
<rscale>  0 0.15573951E+03</rscale>
<asrwt>0</asrwt>
<pdfrwt beam="1">  1        2 0.59064258E-01 0.16273520E+03</pdfrwt>
<pdfrwt beam="2">  1       -2 0.10345543E-01 0.16273520E+03</pdfrwt>
<totfact> 0.50925184E+03</totfact>
</mgrwt>
</event>
<event>
 7    1  0.5206756E-006  0.1298097E+03  0.7546771E-02  0.1241611E+00
          1   -1    0    0  501    0  0.00000000000E+00  0.00000000000E+00  0.75344534009E+03  0.75344534009E+03  0.00000000000E+00 0. -1.
         -1   -1    0    0    0  501 -0.00000000000E+00 -0.00000000000E+00 -0.17185045441E+02  0.17185045441E+02  0.00000000000E+00 0.  1.
         23    2    1    2    0    0 -0.22595974206E+02  0.26777536175E+02  0.41016563768E+03  0.43021671361E+03  0.12499182310E+03 0.  0.
          5    1    3    3  502    0  0.27800136619E+02  0.38061062504E+02  0.33827165454E+03  0.34157179969E+03  0.47000000000E+01 0. -1.
         -5    1    3    3    0  502 -0.50396110826E+02 -0.11283526329E+02  0.71893983140E+02  0.88644913924E+02  0.47000000000E+01 0. -1.
        -11    1    1    2    0    0 -0.34399953516E+02 -0.20868883896E+02  0.14406296800E+03  0.14957608721E+03  0.00000000000E+00 0.  1.
         11    1    1    2    0    0  0.56995927722E+02 -0.59086522791E+01  0.18203168898E+03  0.19083758472E+03  0.00000000000E+00 0. -1.
<mgrwt>
<rscale>  0 0.12090529E+03</rscale>
<asrwt>0</asrwt>
<pdfrwt beam="1">  1        1 0.11591464E+00 0.12980975E+03</pdfrwt>
<pdfrwt beam="2">  1       -1 0.26438537E-02 0.12980975E+03</pdfrwt>
<totfact> 0.10967312E+04</totfact>
</mgrwt>
</event>
<event>
 7    1  0.5206756E-006  0.1296820E+03  0.7546771E-02  0.1242946E+00
          4   -1    0    0  501    0  0.00000000000E+00  0.00000000000E+00  0.62766174011E+02  0.62766174011E+02  0.00000000000E+00 0. -1.
         -4   -1    0    0    0  501 -0.00000000000E+00 -0.00000000000E+00 -0.21892602602E+03  0.21892602602E+03  0.00000000000E+00 0.  1.
         23    2    1    2    0    0 -0.20706597156E+02  0.27643919566E+02 -0.50004146051E+02  0.13898864259E+03  0.12499791475E+03 0.  0.
          5    1    3    3  502    0 -0.21930778313E+02  0.12983014484E+02  0.40004172622E+02  0.47664887807E+02  0.47000000000E+01 0. -1.
         -5    1    3    3    0  502  0.12241811565E+01  0.14660905082E+02 -0.90008318673E+02  0.91323754783E+02  0.47000000000E+01 0. -1.
        -11    1    1    2    0    0 -0.82380033931E+01 -0.49894445303E+02 -0.31443699158E+02  0.59548522977E+02  0.00000000000E+00 0.  1.
         11    1    1    2    0    0  0.28944600550E+02  0.22250525737E+02 -0.74712006795E+02  0.83155034460E+02  0.00000000000E+00 0. -1.
<mgrwt>
<rscale>  0 0.12009137E+03</rscale>
<asrwt>0</asrwt>
<pdfrwt beam="1">  1        4 0.96563345E-02 0.12968203E+03</pdfrwt>
<pdfrwt beam="2">  1       -4 0.33680927E-01 0.12968203E+03</pdfrwt>
<totfact> 0.11202096E+03</totfact>
</mgrwt>
</event>
<event>
 7    1  0.5206756E-006  0.1284087E+03  0.7546771E-02  0.1244867E+00
          4   -1    0    0  501    0  0.00000000000E+00  0.00000000000E+00  0.16358905438E+03  0.16358905438E+03  0.00000000000E+00 0. -1.
         -4   -1    0    0    0  501 -0.00000000000E+00 -0.00000000000E+00 -0.79170046176E+02  0.79170046176E+02  0.00000000000E+00 0.  1.
         23    2    1    2    0    0 -0.29363800108E+02  0.11358931622E+01  0.72632665381E+02  0.14752731943E+03  0.12500113155E+03 0.  0.
          5    1    3    3  502    0  0.22193376555E+02  0.43651394844E+02  0.62868988063E+02  0.79828503023E+02  0.47000000000E+01 0.  1.
         -5    1    3    3    0  502 -0.51557176663E+02 -0.42515501682E+02  0.97636773178E+01  0.67698816412E+02  0.47000000000E+01 0.  1.
        -11    1    1    2    0    0  0.52471211854E+02  0.79406137456E+01  0.33071638606E+02  0.62530110348E+02  0.00000000000E+00 0. -1.
         11    1    1    2    0    0 -0.23107411746E+02 -0.90765069078E+01 -0.21285295778E+02  0.32701670777E+02  0.00000000000E+00 0.  1.
<mgrwt>
<rscale>  0 0.11893329E+03</rscale>
<asrwt>0</asrwt>
<pdfrwt beam="1">  1        4 0.25167547E-01 0.12840875E+03</pdfrwt>
<pdfrwt beam="2">  1       -4 0.12180007E-01 0.12840875E+03</pdfrwt>
<totfact> 0.13046896E+03</totfact>
</mgrwt>
</event>
<event>
 7    1  0.5206756E-006  0.1282554E+03  0.7546771E-02  0.1243965E+00
         -3   -1    0    0    0  501 -0.00000000000E+00  0.00000000000E+00  0.12205749293E+03  0.12205749293E+03  0.00000000000E+00 0.  1.
          3   -1    0    0  501    0  0.00000000000E+00 -0.00000000000E+00 -0.10892252091E+03  0.10892252091E+03  0.00000000000E+00 0. -1.
         23    2    1    2    0    0 -0.25564567226E+02 -0.13071968165E+02 -0.17983016610E+02  0.12951002112E+03  0.12500013293E+03 0.  0.
          5    1    3    3  502    0 -0.25812281690E+02  0.39830191464E+02 -0.48692359610E+02  0.68159767624E+02  0.47000000000E+01 0.  1.
         -5    1    3    3    0  502  0.24771446428E+00 -0.52902159630E+02  0.30709343000E+02  0.61350253491E+02  0.47000000000E+01 0.  1.
        -11    1    1    2    0    0  0.35171152146E+01 -0.36721500576E+02  0.29084150953E+02  0.46975808036E+02  0.00000000000E+00 0.  1.
         11    1    1    2    0    0  0.22047452011E+02  0.49793468741E+02  0.20338376817E+01  0.54494184691E+02  0.00000000000E+00 0. -1.
<mgrwt>
<rscale>  0 0.11947565E+03</rscale>
<asrwt>0</asrwt>
<pdfrwt beam="2">  1        3 0.16757311E-01 0.12825544E+03</pdfrwt>
<pdfrwt beam="1">  1       -3 0.18778076E-01 0.12825544E+03</pdfrwt>
<totfact> 0.17466285E+03</totfact>
</mgrwt>
</event>
<event>
 6    1  0.5206756E-006  0.1440920E+03  0.7546771E-02  0.1221970E+00
          2   -1    0    0  501    0  0.00000000000E+00  0.00000000000E+00  0.43842304074E+02  0.43842304074E+02  0.00000000000E+00 0. -1.
         -2   -1    0    0    0  501 -0.00000000000E+00 -0.00000000000E+00 -0.36410169734E+03  0.36410169734E+03  0.00000000000E+00 0.  1.
          5    1    1    2  502    0 -0.36495126464E+02  0.79156352701E+02 -0.59204830152E+02  0.10547475689E+03  0.47000000000E+01 0. -1.
         -5    1    1    2    0  502 -0.10972191795E+02 -0.41540717438E+02 -0.10178309279E+03  0.11057987238E+03  0.47000000000E+01 0.  1.
        -11    1    1    2    0    0  0.18870699820E+02  0.14681914811E+02 -0.11547329942E+03  0.11792262215E+03  0.00000000000E+00 0. -1.
         11    1    1    2    0    0  0.28596618438E+02 -0.52297550074E+02 -0.43798170900E+02  0.73966749990E+02  0.00000000000E+00 0.  1.
<mgrwt>
<rscale>  0 0.13376733E+03</rscale>
<asrwt>0</asrwt>
<pdfrwt beam="1">  1        2 0.67449700E-02 0.14409196E+03</pdfrwt>
<pdfrwt beam="2">  1       -2 0.56015644E-01 0.14409196E+03</pdfrwt>
<totfact> 0.31047268E+03</totfact>
</mgrwt>
</event>
<event>
 7    1  0.5206756E-006  0.1720775E+03  0.7546771E-02  0.1180115E+00
         -1   -1    0    0    0  501 -0.00000000000E+00  0.00000000000E+00  0.35312062814E+02  0.35312062814E+02  0.00000000000E+00 0.  1.
          1   -1    0    0  501    0  0.00000000000E+00 -0.00000000000E+00 -0.76355755009E+03  0.76355755009E+03  0.00000000000E+00 0. -1.
         23    2    1    2    0    0 -0.10884391092E+03 -0.46330511803E+02 -0.35868619625E+03  0.39782717752E+03  0.12496864618E+03 0.  0.
          5    1    3    3  502    0 -0.26633813287E+02  0.29009105342E+02 -0.27293277977E+02  0.48144586671E+02  0.47000000000E+01 0.  1.
         -5    1    3    3    0  502 -0.82210097628E+02 -0.75339617145E+02 -0.33139291827E+03  0.34968259085E+03  0.47000000000E+01 0.  1.
        -11    1    1    2    0    0  0.75482152905E+02  0.47653627312E+02 -0.35234717792E+03  0.36347896417E+03  0.00000000000E+00 0. -1.
         11    1    1    2    0    0  0.33361758011E+02 -0.13231155093E+01 -0.17212113108E+02  0.37563471217E+02  0.00000000000E+00 0.  1.
<mgrwt>
<rscale>  0 0.16784431E+03</rscale>
<asrwt>0</asrwt>
<pdfrwt beam="2">  1        1 0.11747039E+00 0.17207753E+03</pdfrwt>
<pdfrwt beam="1">  1       -1 0.54326250E-02 0.17207753E+03</pdfrwt>
<totfact> 0.37832289E+03</totfact>
</mgrwt>
</event>
<event>
 7    1  0.5206756E-006  0.1275671E+03  0.7546771E-02  0.1246710E+00
         -1   -1    0    0    0  501 -0.00000000000E+00  0.00000000000E+00  0.26229607691E+02  0.26229607691E+02  0.00000000000E+00 0.  1.
          1   -1    0    0  501    0  0.00000000000E+00 -0.00000000000E+00 -0.47161900028E+03  0.47161900028E+03  0.00000000000E+00 0. -1.
         23    2    1    2    0    0  0.42760891689E+01 -0.25155026833E+02 -0.29002339620E+03  0.31683895670E+03  0.12498917484E+03 0.  0.
          5    1    3    3  502    0  0.70148369194E+01 -0.20352975931E+02  0.42794115584E+01  0.22446713113E+02  0.47000000000E+01 0. -1.
         -5    1    3    3    0  502 -0.27387477505E+01 -0.48020509011E+01 -0.29430280775E+03  0.29439224359E+03  0.47000000000E+01 0. -1.
        -11    1    1    2    0    0  0.18669370088E+02  0.58279155633E+01  0.30356576628E+01  0.19792048826E+02  0.00000000000E+00 0.  1.
         11    1    1    2    0    0 -0.22945459257E+02  0.19327111269E+02 -0.15840165405E+03  0.16121760244E+03  0.00000000000E+00 0. -1.
<mgrwt>
<rscale>  0 0.11783640E+03</rscale>
<asrwt>0</asrwt>
<pdfrwt beam="2">  1        1 0.72556763E-01 0.12756706E+03</pdfrwt>
<pdfrwt beam="1">  1       -1 0.40353246E-02 0.12756706E+03</pdfrwt>
<totfact> 0.11199296E+04</totfact>
</mgrwt>
</event>
<event>
 7    1  0.5206756E-006  0.1314640E+03  0.7546771E-02  0.1237572E+00
         -2   -1    0    0    0  501 -0.00000000000E+00  0.00000000000E+00  0.35978032341E+02  0.35978032341E+02  0.00000000000E+00 0. -1.
          2   -1    0    0  501    0  0.00000000000E+00 -0.00000000000E+00 -0.49868383196E+03  0.49868383196E+03  0.00000000000E+00 0.  1.
         23    2    1    2    0    0  0.40037843829E+02  0.73583004877E+01 -0.38361182653E+03  0.40551302745E+03  0.12500243379E+03 0.  0.
          5    1    3    3  502    0  0.10094191643E+02 -0.41460127289E+02 -0.30571794600E+03  0.30871732599E+03  0.47000000000E+01 0.  1.
         -5    1    3    3    0  502  0.29943652186E+02  0.48818427776E+02 -0.77893880524E+02  0.96795701454E+02  0.47000000000E+01 0.  1.
        -11    1    1    2    0    0 -0.65531900095E+02 -0.61921125585E+01 -0.27012889679E+02  0.71151025269E+02  0.00000000000E+00 0. -1.
         11    1    1    2    0    0  0.25494056267E+02 -0.11661879293E+01 -0.52081083412E+02  0.57997811585E+02  0.00000000000E+00 0.  1.
<mgrwt>
<rscale>  0 0.12341193E+03</rscale>
<asrwt>0</asrwt>
<pdfrwt beam="2">  1        2 0.76720580E-01 0.13146399E+03</pdfrwt>
<pdfrwt beam="1">  1       -2 0.55350826E-02 0.13146399E+03</pdfrwt>
<totfact> 0.99411955E+03</totfact>
</mgrwt>
</event>
<event>
 7    1  0.5206756E-006  0.1356503E+03  0.7546771E-02  0.1232332E+00
         -2   -1    0    0    0  501 -0.00000000000E+00  0.00000000000E+00  0.13491331238E+02  0.13491331238E+02  0.00000000000E+00 0.  1.
          2   -1    0    0  501    0  0.00000000000E+00 -0.00000000000E+00 -0.12230670645E+04  0.12230670645E+04  0.00000000000E+00 0. -1.
         23    2    1    2    0    0  0.42994780681E+02 -0.30459403858E+02 -0.89966743244E+03  0.90983651404E+03  0.12499866734E+03 0.  0.
          5    1    3    3  502    0 -0.26103950773E+02  0.62510834791E+01 -0.53443991796E+02  0.59990353806E+02  0.47000000000E+01 0. -1.
         -5    1    3    3    0  502  0.69098731454E+02 -0.36710487337E+02 -0.84622344065E+03  0.84984616024E+03  0.47000000000E+01 0. -1.
        -11    1    1    2    0    0 -0.12907822359E+02 -0.31339485879E+02 -0.12267307665E+03  0.12726923818E+03  0.00000000000E+00 0. -1.
         11    1    1    2    0    0 -0.30086958322E+02  0.61798889737E+02 -0.18723522416E+03  0.19945264350E+03  0.00000000000E+00 0.  1.
<mgrwt>
<rscale>  0 0.12676779E+03</rscale>
<asrwt>0</asrwt>
<pdfrwt beam="2">  1        2 0.18816426E+00 0.13565026E+03</pdfrwt>
<pdfrwt beam="1">  1       -2 0.20755883E-02 0.13565026E+03</pdfrwt>
<totfact> 0.13685016E+04</totfact>
</mgrwt>
</event>
<event>
 7    1  0.5206756E-006  0.1456581E+03  0.7546771E-02  0.1216901E+00
         -1   -1    0    0    0  501 -0.00000000000E+00  0.00000000000E+00  0.55457324708E+02  0.55457324708E+02  0.00000000000E+00 0.  1.
          1   -1    0    0  501    0  0.00000000000E+00 -0.00000000000E+00 -0.40456079049E+03  0.40456079049E+03  0.00000000000E+00 0. -1.
         23    2    1    2    0    0  0.68340037282E+02 -0.30364121722E+02 -0.30241214337E+03  0.33566261900E+03  0.12499579493E+03 0.  0.
          5    1    3    3  502    0  0.18803120031E+01 -0.33505699230E+02 -0.94152749429E+01  0.35169658179E+02  0.47000000000E+01 0. -1.
         -5    1    3    3    0  502  0.66459725279E+02  0.31415775088E+01 -0.29299686843E+03  0.30049296082E+03  0.47000000000E+01 0. -1.
        -11    1    1    2    0    0 -0.76968344605E+02 -0.53061864861E+01 -0.40509189931E+02  0.87139406442E+02  0.00000000000E+00 0. -1.
         11    1    1    2    0    0  0.86283073228E+01  0.35670308208E+02 -0.61821324792E+01  0.37216089758E+02  0.00000000000E+00 0.  1.
<mgrwt>
<rscale>  0 0.13737826E+03</rscale>
<asrwt>0</asrwt>
<pdfrwt beam="2">  1        1 0.62240121E-01 0.14565812E+03</pdfrwt>
<pdfrwt beam="1">  1       -1 0.85318962E-02 0.14565812E+03</pdfrwt>
<totfact> 0.45026768E+03</totfact>
</mgrwt>
</event>
<event>
 7    1  0.5206756E-006  0.1402876E+03  0.7546771E-02  0.1224404E+00
         -1   -1    0    0    0  501 -0.00000000000E+00  0.00000000000E+00  0.26685939046E+02  0.26685939046E+02  0.00000000000E+00 0.  1.
          1   -1    0    0  501    0  0.00000000000E+00 -0.00000000000E+00 -0.69971586501E+03  0.69971586501E+03  0.00000000000E+00 0. -1.
         23    2    1    2    0    0  0.18092084553E+02  0.61011989735E+02 -0.51475444000E+03  0.53352856651E+03  0.12502324331E+03 0.  0.
          5    1    3    3  502    0  0.20720804657E+02  0.85693054463E+02 -0.49092646163E+03  0.49880209709E+03  0.47000000000E+01 0. -1.
         -5    1    3    3    0  502 -0.26287201038E+01 -0.24681064728E+02 -0.23827978370E+02  0.34726469425E+02  0.47000000000E+01 0. -1.
        -11    1    1    2    0    0 -0.30863557146E+02 -0.67828533220E+02 -0.16165742720E+03  0.17800672135E+03  0.00000000000E+00 0. -1.
         11    1    1    2    0    0  0.12771472593E+02  0.68165434849E+01  0.33819412325E+01  0.14866516195E+02  0.00000000000E+00 0.  1.
<mgrwt>
<rscale>  0 0.13207838E+03</rscale>
<asrwt>0</asrwt>
<pdfrwt beam="2">  1        1 0.10764861E+00 0.14028755E+03</pdfrwt>
<pdfrwt beam="1">  1       -1 0.41055287E-02 0.14028755E+03</pdfrwt>
<totfact> 0.64508669E+03</totfact>
</mgrwt>
</event>
<event>
 7    1  0.5206756E-006  0.1566805E+03  0.7546771E-02  0.1198116E+00
          1   -1    0    0  501    0  0.00000000000E+00  0.00000000000E+00  0.11123180140E+04  0.11123180140E+04  0.00000000000E+00 0. -1.
         -1   -1    0    0    0  501 -0.00000000000E+00 -0.00000000000E+00 -0.20699765373E+02  0.20699765373E+02  0.00000000000E+00 0.  1.
         23    2    1    2    0    0  0.67227983859E+02 -0.66367829413E+02  0.70856069829E+03  0.72567694973E+03  0.12499792643E+03 0.  0.
          5    1    3    3  502    0  0.25349223854E+02  0.23425156491E+02  0.58449171100E+02  0.68042021640E+02  0.47000000000E+01 0.  1.
         -5    1    3    3    0  502  0.41878760005E+02 -0.89792985904E+02  0.65011152719E+03  0.65763492809E+03  0.47000000000E+01 0.  1.
        -11    1    1    2    0    0 -0.73511296037E+02  0.47828640264E+01  0.16565264104E+03  0.18129419163E+03  0.00000000000E+00 0.  1.
         11    1    1    2    0    0  0.62833121777E+01  0.61584965387E+02  0.21740490932E+03  0.22604663805E+03  0.00000000000E+00 0. -1.
<mgrwt>
<rscale>  0 0.15193413E+03</rscale>
<asrwt>0</asrwt>
<pdfrwt beam="1">  1        1 0.17112580E+00 0.15668048E+03</pdfrwt>
<pdfrwt beam="2">  1       -1 0.31845802E-02 0.15668048E+03</pdfrwt>
<totfact> 0.44936833E+03</totfact>
</mgrwt>
</event>
<event>
 7    1  0.5206756E-006  0.2893342E+03  0.7546771E-02  0.1092391E+00
          2   -1    0    0  501    0  0.00000000000E+00  0.00000000000E+00  0.71892059791E+03  0.71892059791E+03  0.00000000000E+00 0. -1.
         -2   -1    0    0    0  501 -0.00000000000E+00 -0.00000000000E+00 -0.11169856848E+03  0.11169856848E+03  0.00000000000E+00 0.  1.
         23    2    1    2    0    0  0.24583553049E+03 -0.87477762492E+02  0.33125895405E+03  0.43982584999E+03  0.12500726657E+03 0.  0.
          5    1    3    3  502    0  0.17512292665E+03 -0.68582291548E+02  0.31143757086E+03  0.36385027235E+03  0.47000000000E+01 0.  1.
         -5    1    3    3    0  502  0.70712603844E+02 -0.18895470944E+02  0.19821383194E+02  0.75975577631E+02  0.47000000000E+01 0.  1.
        -11    1    1    2    0    0 -0.14391266102E+03  0.15804767819E+02  0.19231456828E+03  0.24071879416E+03  0.00000000000E+00 0. -1.
         11    1    1    2    0    0 -0.10192286947E+03  0.71672994673E+02  0.83648507102E+02  0.15007452224E+03  0.00000000000E+00 0.  1.
<mgrwt>
<rscale>  0 0.28612300E+03</rscale>
<asrwt>0</asrwt>
<pdfrwt beam="1">  1        2 0.11060317E+00 0.28933421E+03</pdfrwt>
<pdfrwt beam="2">  1       -2 0.17184396E-01 0.28933421E+03</pdfrwt>
<totfact> 0.11073370E+03</totfact>
</mgrwt>
</event>
<event>
 7    1  0.5206756E-006  0.1319335E+03  0.7546771E-02  0.1237361E+00
          1   -1    0    0  501    0  0.00000000000E+00  0.00000000000E+00  0.44109983588E+03  0.44109983588E+03  0.00000000000E+00 0. -1.
         -1   -1    0    0    0  501 -0.00000000000E+00 -0.00000000000E+00 -0.45452194846E+02  0.45452194846E+02  0.00000000000E+00 0.  1.
         23    2    1    2    0    0 -0.11405479327E+02  0.40644947061E+02  0.35237253389E+03  0.37626167744E+03  0.12499740235E+03 0.  0.
          5    1    3    3  502    0  0.42305356626E+02 -0.16816913186E+02  0.74518042450E+02  0.87450445505E+02  0.47000000000E+01 0. -1.
         -5    1    3    3    0  502 -0.53710835953E+02  0.57461860247E+02  0.27785449144E+03  0.28881123194E+03  0.47000000000E+01 0. -1.
        -11    1    1    2    0    0  0.28301041344E+01 -0.49049549814E+02  0.67362500756E+02  0.83376101699E+02  0.00000000000E+00 0. -1.
         11    1    1    2    0    0  0.85753751929E+01  0.84046027539E+01 -0.24087393612E+02  0.26914251581E+02  0.00000000000E+00 0.  1.
<mgrwt>
<rscale>  0 0.12354486E+03</rscale>
<asrwt>0</asrwt>
<pdfrwt beam="1">  1        1 0.67861510E-01 0.13193350E+03</pdfrwt>
<pdfrwt beam="2">  1       -1 0.69926457E-02 0.13193350E+03</pdfrwt>
<totfact> 0.54164461E+03</totfact>
</mgrwt>
</event>
<event>
 7    1  0.5206756E-006  0.1317520E+03  0.7546771E-02  0.1236627E+00
          2   -1    0    0  501    0  0.00000000000E+00  0.00000000000E+00  0.15322221304E+03  0.15322221304E+03  0.00000000000E+00 0.  1.
         -2   -1    0    0    0  501 -0.00000000000E+00 -0.00000000000E+00 -0.91668799918E+02  0.91668799918E+02  0.00000000000E+00 0. -1.
         23    2    1    2    0    0  0.30523423214E+02  0.28306492993E+02  0.49683947395E+02  0.14080867431E+03  0.12500260486E+03 0.  0.
          5    1    3    3  502    0 -0.15222948863E+02 -0.37205149574E+02  0.45156383835E+02  0.60639511278E+02  0.47000000000E+01 0.  1.
         -5    1    3    3    0  502  0.45746372077E+02  0.65511642568E+02  0.45275635594E+01  0.80169163036E+02  0.47000000000E+01 0.  1.
        -11    1    1    2    0    0  0.39912410690E+01  0.15421521059E+02  0.38993460785E+02  0.42121767544E+02  0.00000000000E+00 0.  1.
         11    1    1    2    0    0 -0.34514664283E+02 -0.43728014053E+02 -0.27123995056E+02  0.61960571103E+02  0.00000000000E+00 0. -1.
<mgrwt>
<rscale>  0 0.12400852E+03</rscale>
<asrwt>0</asrwt>
<pdfrwt beam="1">  1        2 0.23572648E-01 0.13175199E+03</pdfrwt>
<pdfrwt beam="2">  1       -2 0.14102892E-01 0.13175199E+03</pdfrwt>
<totfact> 0.82240809E+03</totfact>
</mgrwt>
</event>
<event>
 7    1  0.5206756E-006  0.3184652E+03  0.7546771E-02  0.1077935E+00
          2   -1    0    0  501    0  0.00000000000E+00  0.00000000000E+00  0.49509359408E+03  0.49509359408E+03  0.00000000000E+00 0. -1.
         -2   -1    0    0    0  501 -0.00000000000E+00 -0.00000000000E+00 -0.22533661647E+03  0.22533661647E+03  0.00000000000E+00 0.  1.
         23    2    1    2    0    0 -0.11575288143E+03  0.26906533965E+03  0.82743260234E+01  0.31857271265E+03  0.12500088887E+03 0.  0.
          5    1    3    3  502    0  0.25157656311E+01  0.14287145867E+03 -0.15995980831E+02  0.14386293540E+03  0.47000000000E+01 0.  1.
         -5    1    3    3    0  502 -0.11826864706E+03  0.12619388097E+03  0.24270306855E+02  0.17470977725E+03  0.47000000000E+01 0.  1.
        -11    1    1    2    0    0  0.86993473853E+02 -0.25193533390E+03  0.25262466803E+03  0.36723085363E+03  0.00000000000E+00 0. -1.
         11    1    1    2    0    0  0.28759407573E+02 -0.17130005748E+02  0.88579835513E+01  0.34626644271E+02  0.00000000000E+00 0.  1.
<mgrwt>
<rscale>  0 0.31508282E+03</rscale>
<asrwt>0</asrwt>
<pdfrwt beam="1">  1        2 0.76168245E-01 0.31846524E+03</pdfrwt>
<pdfrwt beam="2">  1       -2 0.34667172E-01 0.31846524E+03</pdfrwt>
<totfact> 0.49418361E+02</totfact>
</mgrwt>
</event>
<event>
 7    1  0.5206756E-006  0.1322033E+03  0.7546771E-02  0.1237399E+00
          2   -1    0    0  501    0  0.00000000000E+00  0.00000000000E+00  0.10647612661E+03  0.10647612661E+03  0.00000000000E+00 0.  1.
         -2   -1    0    0    0  501 -0.00000000000E+00 -0.00000000000E+00 -0.13218241302E+03  0.13218241302E+03  0.00000000000E+00 0. -1.
         23    2    1    2    0    0 -0.21391790709E+02  0.37328850221E+02  0.79364308044E+01  0.13244131087E+03  0.12500664831E+03 0.  0.
          5    1    3    3  502    0 -0.71333321492E+02  0.40095105339E+02  0.47327109216E+01  0.82100845184E+02  0.47000000000E+01 0.  1.
         -5    1    3    3    0  502  0.49941530783E+02 -0.27662551184E+01  0.32037198828E+01  0.50340465685E+02  0.47000000000E+01 0.  1.
        -11    1    1    2    0    0  0.55109285843E+02 -0.79481552063E+01 -0.14268993142E+02  0.57478784979E+02  0.00000000000E+00 0.  1.
         11    1    1    2    0    0 -0.33717495134E+02 -0.29380695014E+02 -0.19373724072E+02  0.48738443780E+02  0.00000000000E+00 0. -1.
<mgrwt>
<rscale>  0 0.12352118E+03</rscale>
<asrwt>0</asrwt>
<pdfrwt beam="1">  1        2 0.16380943E-01 0.13220331E+03</pdfrwt>
<pdfrwt beam="2">  1       -2 0.20335756E-01 0.13220331E+03</pdfrwt>
<totfact> 0.67749719E+03</totfact>
</mgrwt>
</event>
<event>
 6    1  0.5206756E-006  0.2355176E+03  0.7546771E-02  0.1125985E+00
          2   -1    0    0  501    0  0.00000000000E+00  0.00000000000E+00  0.12459409105E+04  0.12459409105E+04  0.00000000000E+00 0. -1.
         -2   -1    0    0    0  501 -0.00000000000E+00 -0.00000000000E+00 -0.48876734557E+02  0.48876734557E+02  0.00000000000E+00 0.  1.
          5    1    1    2  502    0 -0.20343494592E+03 -0.33214376454E+02  0.76840928060E+03  0.79559027429E+03  0.47000000000E+01 0. -1.
         -5    1    1    2    0  502  0.16060605718E+02 -0.24081526462E+02  0.10609177960E+03  0.11007006256E+03  0.47000000000E+01 0.  1.
        -11    1    1    2    0    0  0.11197558914E+03  0.17550904365E+00  0.11225370179E+03  0.15855427125E+03  0.00000000000E+00 0.  1.
         11    1    1    2    0    0  0.75398751062E+02  0.57120393872E+02  0.21030941396E+03  0.23060303697E+03  0.00000000000E+00 0. -1.
<mgrwt>
<rscale>  0 0.23093287E+03</rscale>
<asrwt>0</asrwt>
<pdfrwt beam="1">  1        2 0.19168319E+00 0.23551760E+03</pdfrwt>
<pdfrwt beam="2">  1       -2 0.75194986E-02 0.23551760E+03</pdfrwt>
<totfact> 0.19606711E+03</totfact>
</mgrwt>
</event>
<event>
 7    1  0.5206756E-006  0.1182368E+03  0.7546771E-02  0.1254109E+00
         -1   -1    0    0    0  501 -0.00000000000E+00  0.00000000000E+00  0.17823653531E+03  0.17823653531E+03  0.00000000000E+00 0.  1.
          1   -1    0    0  501    0  0.00000000000E+00 -0.00000000000E+00 -0.73209347880E+02  0.73209347880E+02  0.00000000000E+00 0. -1.
         23    2    1    2    0    0 -0.42739163232E+02  0.65649888597E+01  0.20436394707E+02  0.11998996459E+03  0.11004640031E+03 0.  0.
          5    1    3    3  502    0 -0.32092769086E+02  0.36642898855E+02  0.54387689630E+02  0.73162549487E+02  0.47000000000E+01 0. -1.
         -5    1    3    3    0  502 -0.10646394146E+02 -0.30077909996E+02 -0.33951294924E+02  0.46827415101E+02  0.47000000000E+01 0.  1.
        -11    1    1    2    0    0 -0.88838171985E+01 -0.38266667442E+02  0.25536107099E+02  0.46854592207E+02  0.00000000000E+00 0.  1.
         11    1    1    2    0    0  0.51622980430E+02  0.31701678583E+02  0.59054685625E+02  0.84601326395E+02  0.00000000000E+00 0. -1.
<mgrwt>
<rscale>  0 0.11356362E+03</rscale>
<asrwt>0</asrwt>
<pdfrwt beam="2">  1        1 0.11262977E-01 0.11823682E+03</pdfrwt>
<pdfrwt beam="1">  1       -1 0.27421005E-01 0.11823682E+03</pdfrwt>
<totfact> 0.61183769E+03</totfact>
</mgrwt>
</event>
<event>
 7    1  0.5206756E-006  0.1620933E+03  0.7546771E-02  0.1193610E+00
          3   -1    0    0  501    0  0.00000000000E+00  0.00000000000E+00  0.31007154499E+03  0.31007154499E+03  0.00000000000E+00 0. -1.
         -3   -1    0    0    0  501 -0.00000000000E+00 -0.00000000000E+00 -0.75640118977E+02  0.75640118977E+02  0.00000000000E+00 0.  1.
         23    2    1    2    0    0 -0.10320100408E+03  0.36948296658E+00  0.16446442583E+03  0.23091726792E+03  0.12499461390E+03 0.  0.
          5    1    3    3  502    0 -0.95737234130E+02 -0.13712460574E+02  0.39048794571E+02  0.10440568917E+03  0.47000000000E+01 0. -1.
         -5    1    3    3    0  502 -0.74637699452E+01  0.14081943540E+02  0.12541563125E+03  0.12651157875E+03  0.47000000000E+01 0. -1.
        -11    1    1    2    0    0  0.94557805088E+02  0.25049522609E+02  0.22675722660E+02  0.10041337303E+03  0.00000000000E+00 0.  1.
         11    1    1    2    0    0  0.86431989871E+01 -0.25419005576E+02  0.47291277525E+02  0.54381023006E+02  0.00000000000E+00 0. -1.
<mgrwt>
<rscale>  0 0.15572417E+03</rscale>
<asrwt>0</asrwt>
<pdfrwt beam="1">  1        3 0.47703314E-01 0.16209330E+03</pdfrwt>
<pdfrwt beam="2">  1       -3 0.11636942E-01 0.16209330E+03</pdfrwt>
<totfact> 0.59705609E+02</totfact>
</mgrwt>
</event>
<event>
 7    1  0.5206756E-006  0.1450347E+03  0.7546771E-02  0.1216968E+00
         -2   -1    0    0    0  501 -0.00000000000E+00  0.00000000000E+00  0.14875479817E+03  0.14875479817E+03  0.00000000000E+00 0.  1.
          2   -1    0    0  501    0  0.00000000000E+00 -0.00000000000E+00 -0.13885549630E+03  0.13885549630E+03  0.00000000000E+00 0. -1.
         23    2    1    2    0    0  0.72401185895E+02  0.13117131051E+02 -0.53881894538E+02  0.15472013476E+03  0.12498428180E+03 0.  0.
          5    1    3    3  502    0  0.45104583575E+02  0.23256160435E+02 -0.92808431722E+02  0.10588091167E+03  0.47000000000E+01 0. -1.
         -5    1    3    3    0  502  0.27296602320E+02 -0.10139029384E+02  0.38926537185E+02  0.48839223092E+02  0.47000000000E+01 0. -1.
        -11    1    1    2    0    0 -0.90241592802E+02  0.59794031408E+01  0.48727037653E+02  0.10273082562E+03  0.00000000000E+00 0. -1.
         11    1    1    2    0    0  0.17840406907E+02 -0.19096534192E+02  0.15054158759E+02  0.30159334089E+02  0.00000000000E+00 0.  1.
<mgrwt>
<rscale>  0 0.13732935E+03</rscale>
<asrwt>0</asrwt>
<pdfrwt beam="2">  1        2 0.21362384E-01 0.14503469E+03</pdfrwt>
<pdfrwt beam="1">  1       -2 0.22885354E-01 0.14503469E+03</pdfrwt>
<totfact> 0.41137621E+03</totfact>
</mgrwt>
</event>
<event>
 7    1  0.5206756E-006  0.1274565E+03  0.7546771E-02  0.1245628E+00
          2   -1    0    0  501    0  0.00000000000E+00  0.00000000000E+00  0.15670196950E+02  0.15670196950E+02  0.00000000000E+00 0. -1.
         -2   -1    0    0    0  501 -0.00000000000E+00 -0.00000000000E+00 -0.79161015761E+03  0.79161015761E+03  0.00000000000E+00 0.  1.
         23    2    1    2    0    0 -0.10542750913E+02 -0.22543113553E+02 -0.43043455995E+03  0.44890874059E+03  0.12500322160E+03 0.  0.
          5    1    3    3  502    0  0.16226814435E+02  0.45857178469E+02 -0.23606102898E+03  0.24106656700E+03  0.47000000000E+01 0. -1.
         -5    1    3    3    0  502 -0.26769565349E+02 -0.68400292022E+02 -0.19437353097E+03  0.20784217358E+03  0.47000000000E+01 0. -1.
        -11    1    1    2    0    0 -0.30711024684E+02 -0.13971135446E+02 -0.73937750806E+02  0.81272077967E+02  0.00000000000E+00 0. -1.
         11    1    1    2    0    0  0.41253775597E+02  0.36514248999E+02 -0.27156764990E+03  0.27709953600E+03  0.00000000000E+00 0.  1.
<mgrwt>
<rscale>  0 0.11847857E+03</rscale>
<asrwt>0</asrwt>
<pdfrwt beam="1">  1        2 0.24107990E-02 0.12745645E+03</pdfrwt>
<pdfrwt beam="2">  1       -2 0.12178620E+00 0.12745645E+03</pdfrwt>
<totfact> 0.21572387E+03</totfact>
</mgrwt>
</event>
<event>
 7    1  0.5206756E-006  0.1629993E+03  0.7546771E-02  0.1193180E+00
         -1   -1    0    0    0  501 -0.00000000000E+00  0.00000000000E+00  0.81873223101E+02  0.81873223101E+02  0.00000000000E+00 0.  1.
          1   -1    0    0  501    0  0.00000000000E+00 -0.00000000000E+00 -0.30314094392E+03  0.30314094392E+03  0.00000000000E+00 0. -1.
         23    2    1    2    0    0  0.55462735705E+02 -0.88698856458E+02 -0.17779766850E+03  0.24120690330E+03  0.12500062836E+03 0.  0.
          5    1    3    3  502    0  0.13485306293E+02 -0.10313588638E+03 -0.16440550422E+03  0.19460247779E+03  0.47000000000E+01 0. -1.
         -5    1    3    3    0  502  0.41977429412E+02  0.14437029923E+02 -0.13392164274E+02  0.46604425508E+02  0.47000000000E+01 0. -1.
        -11    1    1    2    0    0 -0.38620002612E+02  0.10514028397E+03 -0.43799078470E+02  0.12026779781E+03  0.00000000000E+00 0.  1.
         11    1    1    2    0    0 -0.16842733093E+02 -0.16441427516E+02  0.32902614865E+00  0.23539465903E+02  0.00000000000E+00 0. -1.
<mgrwt>
<rscale>  0 0.15609271E+03</rscale>
<asrwt>0</asrwt>
<pdfrwt beam="2">  1        1 0.46637069E-01 0.16299926E+03</pdfrwt>
<pdfrwt beam="1">  1       -1 0.12595880E-01 0.16299926E+03</pdfrwt>
<totfact> 0.35750712E+03</totfact>
</mgrwt>
</event>
<event>
 7    1  0.5206756E-006  0.1545948E+03  0.7546771E-02  0.1196661E+00
          1   -1    0    0  501    0  0.00000000000E+00  0.00000000000E+00  0.20696705357E+04  0.20696705357E+04  0.00000000000E+00 0. -1.
         -1   -1    0    0    0  501 -0.00000000000E+00 -0.00000000000E+00 -0.21030622160E+02  0.21030622160E+02  0.00000000000E+00 0.  1.
         23    2    1    2    0    0  0.56498602934E+02  0.57854346701E+02  0.17314928189E+04  0.17378813182E+04  0.12499950750E+03 0.  0.
          5    1    3    3  502    0  0.34580303974E+02  0.81747306503E+02  0.15963985460E+04  0.15988711103E+04  0.47000000000E+01 0.  1.
         -5    1    3    3    0  502  0.21918298961E+02 -0.23892959802E+02  0.13509427288E+03  0.13901020798E+03  0.47000000000E+01 0.  1.
        -11    1    1    2    0    0 -0.77280616003E+02  0.30275586368E+01  0.24116070472E+03  0.25325865281E+03  0.00000000000E+00 0. -1.
         11    1    1    2    0    0  0.20782013069E+02 -0.60881905338E+02  0.75986389951E+02  0.99561186828E+02  0.00000000000E+00 0.  1.
<mgrwt>
<rscale>  0 0.15314487E+03</rscale>
<asrwt>0</asrwt>
<pdfrwt beam="1">  1        1 0.31841069E+00 0.15459482E+03</pdfrwt>
<pdfrwt beam="2">  1       -1 0.32354820E-02 0.15459482E+03</pdfrwt>
<totfact> 0.10376321E+03</totfact>
</mgrwt>
</event>
<event>
 7    1  0.5206756E-006  0.1378648E+03  0.7546771E-02  0.1226583E+00
          2   -1    0    0  501    0  0.00000000000E+00  0.00000000000E+00  0.82675050706E+03  0.82675050706E+03  0.00000000000E+00 0. -1.
         -2   -1    0    0    0  501 -0.00000000000E+00 -0.00000000000E+00 -0.22648549030E+02  0.22648549030E+02  0.00000000000E+00 0.  1.
         23    2    1    2    0    0  0.12311051854E+02 -0.56842506648E+02  0.61383366072E+03  0.62912515393E+03  0.12499625483E+03 0.  0.
          5    1    3    3  502    0 -0.23006991736E+02 -0.76097823662E+02  0.23488905127E+03  0.24802249261E+03  0.47000000000E+01 0. -1.
         -5    1    3    3    0  502  0.35318043590E+02  0.19255317014E+02  0.37894460945E+03  0.38110266132E+03  0.47000000000E+01 0. -1.
        -11    1    1    2    0    0 -0.43737956585E+02 -0.15222582082E+01  0.62009980570E+02  0.75898378155E+02  0.00000000000E+00 0.  1.
         11    1    1    2    0    0  0.31426904731E+02  0.58364764856E+02  0.12825831675E+03  0.14437552401E+03  0.00000000000E+00 0. -1.
<mgrwt>
<rscale>  0 0.13059003E+03</rscale>
<asrwt>0</asrwt>
<pdfrwt beam="1">  1        2 0.12719236E+00 0.13786478E+03</pdfrwt>
<pdfrwt beam="2">  1       -2 0.34843928E-02 0.13786478E+03</pdfrwt>
<totfact> 0.11043969E+04</totfact>
</mgrwt>
</event>
<event>
 6    1  0.5206756E-006  0.3766083E+03  0.7546771E-02  0.1104395E+00
          2   -1    0    0  501    0  0.00000000000E+00  0.00000000000E+00  0.47584990085E+03  0.47584990085E+03  0.00000000000E+00 0. -1.
         -2   -1    0    0    0  501 -0.00000000000E+00 -0.00000000000E+00 -0.12120685751E+03  0.12120685751E+03  0.00000000000E+00 0.  1.
          5    1    1    2  502    0 -0.14496340680E+03 -0.80037153181E+02  0.32936851915E+03  0.36868149751E+03  0.47000000000E+01 0. -1.
         -5    1    1    2    0  502  0.10640671163E+03  0.81337520842E+02  0.36806206400E+01  0.13406646689E+03  0.47000000000E+01 0.  1.
        -11    1    1    2    0    0  0.20948573157E+02  0.34284431919E+02  0.34083957924E+02  0.52687580862E+02  0.00000000000E+00 0.  1.
         11    1    1    2    0    0  0.17608122014E+02 -0.35584799580E+02 -0.12490054362E+02  0.41621213101E+02  0.00000000000E+00 0. -1.
<mgrwt>
<rscale>  0 0.26462569E+03</rscale>
<asrwt>0</asrwt>
<pdfrwt beam="1">  1        2 0.73207676E-01 0.37660827E+03</pdfrwt>
<pdfrwt beam="2">  1       -2 0.18647209E-01 0.37660827E+03</pdfrwt>
<totfact> 0.15659064E+03</totfact>
</mgrwt>
</event>
<event>
 7    1  0.5206756E-006  0.1340056E+03  0.7546771E-02  0.1233380E+00
          1   -1    0    0  501    0  0.00000000000E+00  0.00000000000E+00  0.14694412651E+03  0.14694412651E+03  0.00000000000E+00 0. -1.
         -1   -1    0    0    0  501 -0.00000000000E+00 -0.00000000000E+00 -0.97646939767E+02  0.97646939767E+02  0.00000000000E+00 0.  1.
         23    2    1    2    0    0 -0.30609657740E+02  0.37363754261E+02  0.19501232476E+02  0.13541708109E+03  0.12499794599E+03 0.  0.
          5    1    3    3  502    0  0.33907820880E+02  0.45191584531E+02  0.37307963772E+02  0.67867472253E+02  0.47000000000E+01 0.  1.
         -5    1    3    3    0  502 -0.64517478621E+02 -0.78278302692E+01 -0.17806731295E+02  0.67549608834E+02  0.47000000000E+01 0.  1.
        -11    1    1    2    0    0  0.19582937943E+02 -0.68419827848E+01 -0.32717236047E+02  0.38739149726E+02  0.00000000000E+00 0.  1.
         11    1    1    2    0    0  0.11026719797E+02 -0.30521771477E+02  0.62513190312E+02  0.70434835462E+02  0.00000000000E+00 0. -1.
<mgrwt>
<rscale>  0 0.12608683E+03</rscale>
<asrwt>0</asrwt>
<pdfrwt beam="1">  1        1 0.22606789E-01 0.13400555E+03</pdfrwt>
<pdfrwt beam="2">  1       -1 0.15022606E-01 0.13400555E+03</pdfrwt>
<totfact> 0.66247022E+03</totfact>
</mgrwt>
</event>
<event>
 7    1  0.5206756E-006  0.1256323E+03  0.7546771E-02  0.1246361E+00
         -1   -1    0    0    0  501 -0.00000000000E+00  0.00000000000E+00  0.28283052093E+03  0.28283052093E+03  0.00000000000E+00 0.  1.
          1   -1    0    0  501    0  0.00000000000E+00 -0.00000000000E+00 -0.45421962302E+02  0.45421962302E+02  0.00000000000E+00 0. -1.
         23    2    1    2    0    0  0.10788112950E+02  0.65413025412E+01  0.10601030621E+03  0.16438264636E+03  0.12499718950E+03 0.  0.
          5    1    3    3  502    0 -0.44237374266E+02  0.36563219350E+02  0.27512960868E+02  0.63819019946E+02  0.47000000000E+01 0.  1.
         -5    1    3    3    0  502  0.55025487216E+02 -0.30021916808E+02  0.78497345341E+02  0.10056362642E+03  0.47000000000E+01 0.  1.
        -11    1    1    2    0    0  0.24442600652E+01 -0.47968512075E+02  0.97646334072E+02  0.10881984707E+03  0.00000000000E+00 0. -1.
         11    1    1    2    0    0 -0.13232373016E+02  0.41427209533E+02  0.33751918348E+02  0.55049989805E+02  0.00000000000E+00 0.  1.
<mgrwt>
<rscale>  0 0.11804319E+03</rscale>
<asrwt>0</asrwt>
<pdfrwt beam="2">  1        1 0.69879944E-02 0.12563228E+03</pdfrwt>
<pdfrwt beam="1">  1       -1 0.43512387E-01 0.12563228E+03</pdfrwt>
<totfact> 0.52627216E+03</totfact>
</mgrwt>
</event>
<event>
 7    1  0.5206756E-006  0.1387018E+03  0.7546771E-02  0.1226796E+00
          1   -1    0    0  501    0  0.00000000000E+00  0.00000000000E+00  0.36384478799E+03  0.36384478799E+03  0.00000000000E+00 0. -1.
         -1   -1    0    0    0  501 -0.00000000000E+00 -0.00000000000E+00 -0.44628508283E+02  0.44628508283E+02  0.00000000000E+00 0.  1.
         23    2    1    2    0    0 -0.58221191886E+02 -0.14459486553E+02  0.22724145505E+03  0.26622708326E+03  0.12505757485E+03 0.  0.
          5    1    3    3  502    0 -0.21595521628E+01 -0.63692962108E+02  0.10154432964E+03  0.11997832292E+03  0.47000000000E+01 0. -1.
         -5    1    3    3    0  502 -0.56061639723E+02  0.49233475555E+02  0.12569712541E+03  0.14624876034E+03  0.47000000000E+01 0. -1.
        -11    1    1    2    0    0 -0.20769197466E+02  0.17318253619E+02  0.37570203297E+02  0.46290405567E+02  0.00000000000E+00 0. -1.
         11    1    1    2    0    0  0.78990389351E+02 -0.28587670667E+01  0.54404621360E+02  0.95955807455E+02  0.00000000000E+00 0.  1.
<mgrwt>
<rscale>  0 0.13044572E+03</rscale>
<asrwt>0</asrwt>
<pdfrwt beam="1">  1        1 0.55976119E-01 0.13870177E+03</pdfrwt>
<pdfrwt beam="2">  1       -1 0.68659246E-02 0.13870177E+03</pdfrwt>
<totfact> 0.71188017E+03</totfact>
</mgrwt>
</event>
<event>
 7    1  0.5206756E-006  0.1666030E+03  0.7546771E-02  0.1188388E+00
         -1   -1    0    0    0  501 -0.00000000000E+00  0.00000000000E+00  0.29103307564E+02  0.29103307564E+02  0.00000000000E+00 0.  1.
          1   -1    0    0  501    0  0.00000000000E+00 -0.00000000000E+00 -0.84765748629E+03  0.84765748629E+03  0.00000000000E+00 0. -1.
         23    2    1    2    0    0  0.95021174073E+01 -0.10973329449E+03 -0.51635875154E+03  0.54257064938E+03  0.12499945250E+03 0.  0.
          5    1    3    3  502    0  0.41135444244E+01  0.27717068503E+02 -0.72779980181E+02  0.78129204843E+02  0.47000000000E+01 0.  1.
         -5    1    3    3    0  502  0.53885729829E+01 -0.13745036299E+03 -0.44357877136E+03  0.46444144454E+03  0.47000000000E+01 0.  1.
        -11    1    1    2    0    0 -0.20836423620E+02 -0.93351636799E+01 -0.56115142280E+02  0.60582266574E+02  0.00000000000E+00 0.  1.
         11    1    1    2    0    0  0.11334306212E+02  0.11906845817E+03 -0.24608028491E+03  0.27360787790E+03  0.00000000000E+00 0. -1.
<mgrwt>
<rscale>  0 0.16027356E+03</rscale>
<asrwt>0</asrwt>
<pdfrwt beam="2">  1        1 0.13040884E+00 0.16660297E+03</pdfrwt>
<pdfrwt beam="1">  1       -1 0.44774320E-02 0.16660297E+03</pdfrwt>
<totfact> 0.42964959E+03</totfact>
</mgrwt>
</event>
<event>
 7    1  0.5206756E-006  0.1308333E+03  0.7546771E-02  0.1240724E+00
         -2   -1    0    0    0  501 -0.00000000000E+00  0.00000000000E+00  0.75606736802E+02  0.75606736802E+02  0.00000000000E+00 0.  1.
          2   -1    0    0  501    0  0.00000000000E+00 -0.00000000000E+00 -0.30226466096E+03  0.30226466096E+03  0.00000000000E+00 0. -1.
         23    2    1    2    0    0  0.11415549136E+01  0.38603185796E+02 -0.24617541289E+03  0.27878248642E+03  0.12500332684E+03 0.  0.
          5    1    3    3  502    0  0.19920970155E+02 -0.36889204267E+02 -0.14534530369E+03  0.15134399806E+03  0.47000000000E+01 0. -1.
         -5    1    3    3    0  502 -0.18779415242E+02  0.75492390063E+02 -0.10083010920E+03  0.12743848836E+03  0.47000000000E+01 0. -1.
        -11    1    1    2    0    0  0.27127641798E+02 -0.16132309290E+02 -0.26066274228E+02  0.40934227789E+02  0.00000000000E+00 0. -1.
         11    1    1    2    0    0 -0.28269196711E+02 -0.22470876507E+02  0.45583762961E+02  0.58154683555E+02  0.00000000000E+00 0.  1.
<mgrwt>
<rscale>  0 0.12144979E+03</rscale>
<asrwt>0</asrwt>
<pdfrwt beam="2">  1        2 0.46502255E-01 0.13083326E+03</pdfrwt>
<pdfrwt beam="1">  1       -2 0.11631806E-01 0.13083326E+03</pdfrwt>
<totfact> 0.53883318E+03</totfact>
</mgrwt>
</event>
<event>
 7    1  0.5206756E-006  0.1294179E+03  0.7546771E-02  0.1242931E+00
          3   -1    0    0  501    0  0.00000000000E+00  0.00000000000E+00  0.84804273590E+02  0.84804273590E+02  0.00000000000E+00 0. -1.
         -3   -1    0    0    0  501 -0.00000000000E+00 -0.00000000000E+00 -0.15025331388E+03  0.15025331388E+03  0.00000000000E+00 0.  1.
         23    2    1    2    0    0  0.33458739704E+02 -0.21847899929E+01 -0.44123547934E+02  0.13673283332E+03  0.12499887862E+03 0.  0.
          5    1    3    3  502    0 -0.86379938271E+01 -0.57365996269E+02 -0.93069906493E+01  0.58942196602E+02  0.47000000000E+01 0.  1.
         -5    1    3    3    0  502  0.42096733531E+02  0.55181206276E+02 -0.34816557285E+02  0.77790636720E+02  0.47000000000E+01 0.  1.
        -11    1    1    2    0    0 -0.52615106767E+02  0.20207839302E+02 -0.37267055127E+02  0.67568777014E+02  0.00000000000E+00 0.  1.
         11    1    1    2    0    0  0.19156367063E+02 -0.18023049309E+02  0.15941562775E+02  0.30755977129E+02  0.00000000000E+00 0. -1.
<mgrwt>
<rscale>  0 0.12010073E+03</rscale>
<asrwt>0</asrwt>
<pdfrwt beam="1">  1        3 0.13046811E-01 0.12941785E+03</pdfrwt>
<pdfrwt beam="2">  1       -3 0.23115894E-01 0.12941785E+03</pdfrwt>
<totfact> 0.18572233E+03</totfact>
</mgrwt>
</event>
<event>
 7    1  0.5206756E-006  0.1865476E+03  0.7546771E-02  0.1166859E+00
          2   -1    0    0  501    0  0.00000000000E+00  0.00000000000E+00  0.44231666250E+03  0.44231666250E+03  0.00000000000E+00 0. -1.
         -2   -1    0    0    0  501 -0.00000000000E+00 -0.00000000000E+00 -0.73875747062E+02  0.73875747062E+02  0.00000000000E+00 0.  1.
         23    2    1    2    0    0  0.29507332835E+02 -0.13529095846E+03  0.13539683379E+03  0.23050443761E+03  0.12500266807E+03 0.  0.
          5    1    3    3  502    0  0.69519276102E+02 -0.34039033116E+02  0.54355883201E+02  0.94700779109E+02  0.47000000000E+01 0.  1.
         -5    1    3    3    0  502 -0.40011943268E+02 -0.10125192535E+03  0.81040950589E+02  0.13580365850E+03  0.47000000000E+01 0.  1.
        -11    1    1    2    0    0  0.21261391504E+02  0.49784573360E+02  0.36115562350E+02  0.65075989098E+02  0.00000000000E+00 0.  1.
         11    1    1    2    0    0 -0.50768724339E+02  0.85506385103E+02  0.19692851929E+03  0.22061198285E+03  0.00000000000E+00 0. -1.
<mgrwt>
<rscale>  0 0.18097916E+03</rscale>
<asrwt>0</asrwt>
<pdfrwt beam="1">  1        2 0.68048716E-01 0.18654756E+03</pdfrwt>
<pdfrwt beam="2">  1       -2 0.11365500E-01 0.18654756E+03</pdfrwt>
<totfact> 0.37857559E+03</totfact>
</mgrwt>
</event>
<event>
 7    1  0.5206756E-006  0.1392015E+03  0.7546771E-02  0.1226739E+00
         -1   -1    0    0    0  501 -0.00000000000E+00  0.00000000000E+00  0.21001412032E+03  0.21001412032E+03  0.00000000000E+00 0.  1.
          1   -1    0    0  501    0  0.00000000000E+00 -0.00000000000E+00 -0.75794052435E+02  0.75794052435E+02  0.00000000000E+00 0. -1.
         23    2    1    2    0    0  0.54729212405E+02  0.27535716234E+02  0.45510121646E+02  0.14645218113E+03  0.12499427117E+03 0.  0.
          5    1    3    3  502    0 -0.40191631999E+01 -0.40890424989E+02 -0.70650843702E+01  0.41954570022E+02  0.47000000000E+01 0. -1.
         -5    1    3    3    0  502  0.58748375605E+02  0.68426141223E+02  0.52575206017E+02  0.10449761110E+03  0.47000000000E+01 0. -1.
        -11    1    1    2    0    0 -0.48808255841E+02  0.12811943025E+02  0.11075718123E+02  0.51662977598E+02  0.00000000000E+00 0. -1.
         11    1    1    2    0    0 -0.59209565640E+01 -0.40347659260E+02  0.77634228117E+02  0.87693014030E+02  0.00000000000E+00 0.  1.
<mgrwt>
<rscale>  0 0.13048446E+03</rscale>
<asrwt>0</asrwt>
<pdfrwt beam="2">  1        1 0.11660624E-01 0.13920155E+03</pdfrwt>
<pdfrwt beam="1">  1       -1 0.32309864E-01 0.13920155E+03</pdfrwt>
<totfact> 0.44900417E+03</totfact>
</mgrwt>
</event>
<event>
 7    1  0.5206756E-006  0.1284373E+03  0.7546771E-02  0.1242363E+00
         -1   -1    0    0    0  501 -0.00000000000E+00  0.00000000000E+00  0.11851901217E+03  0.11851901217E+03  0.00000000000E+00 0.  1.
          1   -1    0    0  501    0  0.00000000000E+00 -0.00000000000E+00 -0.12830862934E+03  0.12830862934E+03  0.00000000000E+00 0. -1.
         23    2    1    2    0    0  0.55737239255E+01  0.29011553659E+02 -0.52432536949E+02  0.13872751271E+03  0.12499366067E+03 0.  0.
          5    1    3    3  502    0  0.20222332264E+02 -0.45136647611E+02 -0.35686057959E+02  0.61170617231E+02  0.47000000000E+01 0. -1.
         -5    1    3    3    0  502 -0.14648608339E+02  0.74148201270E+02 -0.16746478990E+02  0.77556895479E+02  0.47000000000E+01 0. -1.
        -11    1    1    2    0    0 -0.26020937258E+02  0.80298808192E+01 -0.19092176176E+02  0.33257771316E+02  0.00000000000E+00 0. -1.
         11    1    1    2    0    0  0.20447213332E+02 -0.37041434478E+02  0.61735095952E+02  0.74842357482E+02  0.00000000000E+00 0.  1.
<mgrwt>
<rscale>  0 0.12044613E+03</rscale>
<asrwt>0</asrwt>
<pdfrwt beam="2">  1        1 0.19739789E-01 0.12843735E+03</pdfrwt>
<pdfrwt beam="1">  1       -1 0.18233694E-01 0.12843735E+03</pdfrwt>
<totfact> 0.57768067E+03</totfact>
</mgrwt>
</event>
<event>
 7    1  0.5206756E-006  0.1946864E+03  0.7546771E-02  0.1158580E+00
         -2   -1    0    0    0  501 -0.00000000000E+00  0.00000000000E+00  0.17226467177E+03  0.17226467177E+03  0.00000000000E+00 0.  1.
          2   -1    0    0  501    0  0.00000000000E+00 -0.00000000000E+00 -0.20052924514E+03  0.20052924514E+03  0.00000000000E+00 0. -1.
         23    2    1    2    0    0 -0.10930236480E+03 -0.10164749213E+03 -0.27909271056E+02  0.19667671700E+03  0.12499433583E+03 0.  0.
          5    1    3    3  502    0 -0.34444347444E+02  0.74708937197E+01  0.35166314222E+02  0.50009868824E+02  0.47000000000E+01 0.  1.
         -5    1    3    3    0  502 -0.74858017359E+02 -0.10911838585E+03 -0.63075585279E+02  0.14666684817E+03  0.47000000000E+01 0.  1.
        -11    1    1    2    0    0  0.97857802901E+02  0.10439308291E+03  0.27654237085E+02  0.14573545271E+03  0.00000000000E+00 0.  1.
         11    1    1    2    0    0  0.11444561902E+02 -0.27455907738E+01 -0.28009539399E+02  0.30381747203E+02  0.00000000000E+00 0. -1.
<mgrwt>
<rscale>  0 0.18986809E+03</rscale>
<asrwt>0</asrwt>
<pdfrwt beam="2">  1        2 0.30850653E-01 0.19468642E+03</pdfrwt>
<pdfrwt beam="1">  1       -2 0.26502257E-01 0.19468642E+03</pdfrwt>
<totfact> 0.21473759E+03</totfact>
</mgrwt>
</event>
<event>
 6    1  0.5206756E-006  0.1757618E+03  0.7546771E-02  0.1187583E+00
         -1   -1    0    0    0  501 -0.00000000000E+00  0.00000000000E+00  0.10443501840E+03  0.10443501840E+03  0.00000000000E+00 0.  1.
          1   -1    0    0  501    0  0.00000000000E+00 -0.00000000000E+00 -0.26776240693E+03  0.26776240693E+03  0.00000000000E+00 0. -1.
          5    1    1    2  502    0 -0.10801668026E+02  0.77241088320E+02 -0.19599684331E+03  0.21099695340E+03  0.47000000000E+01 0. -1.
         -5    1    1    2    0  502 -0.29752546608E+02 -0.34504582300E+01  0.21114756488E+02  0.36946483367E+02  0.47000000000E+01 0.  1.
        -11    1    1    2    0    0  0.63498818767E+02 -0.77783570111E+02  0.86207137034E+01  0.10078045678E+03  0.00000000000E+00 0.  1.
         11    1    1    2    0    0 -0.22944604132E+02  0.39929400210E+01  0.29339845946E+01  0.23473531784E+02  0.00000000000E+00 0. -1.
<mgrwt>
<rscale>  0 0.16099019E+03</rscale>
<asrwt>0</asrwt>
<pdfrwt beam="2">  1        1 0.41194217E-01 0.17576178E+03</pdfrwt>
<pdfrwt beam="1">  1       -1 0.16066926E-01 0.17576178E+03</pdfrwt>
<totfact> 0.28562761E+03</totfact>
</mgrwt>
</event>
<event>
 7    1  0.5206756E-006  0.2088038E+03  0.7546771E-02  0.1146413E+00
         -2   -1    0    0    0  501 -0.00000000000E+00  0.00000000000E+00  0.81718574333E+02  0.81718574333E+02  0.00000000000E+00 0.  1.
          2   -1    0    0  501    0  0.00000000000E+00 -0.00000000000E+00 -0.55214420038E+03  0.55214420038E+03  0.00000000000E+00 0. -1.
         23    2    1    2    0    0 -0.73262026424E+02 -0.15033331258E+03 -0.35356306090E+03  0.41061646731E+03  0.12502646043E+03 0.  0.
          5    1    3    3  502    0 -0.83666995990E+02 -0.16144390666E+03 -0.27004680335E+03  0.32559432921E+03  0.47000000000E+01 0.  1.
         -5    1    3    3    0  502  0.10404969566E+02  0.11110594077E+02 -0.83516257547E+02  0.85022138100E+02  0.47000000000E+01 0.  1.
        -11    1    1    2    0    0  0.90265252329E+02  0.10737674431E+03 -0.67619495349E+02  0.15572404165E+03  0.00000000000E+00 0.  1.
         11    1    1    2    0    0 -0.17003225905E+02  0.42956568270E+02 -0.49243069796E+02  0.67522265747E+02  0.00000000000E+00 0. -1.
<mgrwt>
<rscale>  0 0.20399312E+03</rscale>
<asrwt>0</asrwt>
<pdfrwt beam="2">  1        2 0.84945262E-01 0.20880384E+03</pdfrwt>
<pdfrwt beam="1">  1       -2 0.12572088E-01 0.20880384E+03</pdfrwt>
<totfact> 0.25240918E+03</totfact>
</mgrwt>
</event>
<event>
 7    1  0.5989424E-006  0.1726130E+03  0.7546771E-02  0.1181166E+00
          1   -1    0    0  501    0  0.00000000000E+00  0.00000000000E+00  0.18226435018E+03  0.18226435018E+03  0.00000000000E+00 0. -1.
         -1   -1    0    0    0  501 -0.00000000000E+00 -0.00000000000E+00 -0.16390222928E+03  0.16390222928E+03  0.00000000000E+00 0.  1.
         23    2    1    2    0    0 -0.11091371040E+03  0.43233499258E+02  0.70831407107E+02  0.18658060549E+03  0.12499698997E+03 0.  0.
          5    1    3    3  502    0 -0.10971583751E+03  0.10700373437E+02  0.20689877993E+01  0.11035594095E+03  0.47000000000E+01 0.  1.
         -5    1    3    3    0  502 -0.11978728822E+01  0.32533125821E+02  0.68762419308E+02  0.76224664540E+02  0.47000000000E+01 0.  1.
        -11    1    1    2    0    0  0.71063154522E+02 -0.23516499064E+02 -0.78171360744E+02  0.10823012196E+03  0.00000000000E+00 0.  1.
         11    1    1    2    0    0  0.39850555874E+02 -0.19717000193E+02  0.25702074530E+02  0.51355852006E+02  0.00000000000E+00 0. -1.
<mgrwt>
<rscale>  0 0.16685657E+03</rscale>
<asrwt>0</asrwt>
<pdfrwt beam="1">  1        1 0.28040669E-01 0.17261296E+03</pdfrwt>
<pdfrwt beam="2">  1       -1 0.25215727E-01 0.17261296E+03</pdfrwt>
<totfact> 0.22261742E+03</totfact>
</mgrwt>
</event>
<event>
 7    1  0.5206756E-006  0.1637713E+03  0.7546771E-02  0.1191864E+00
         -1   -1    0    0    0  501 -0.00000000000E+00  0.00000000000E+00  0.68258320639E+02  0.68258320639E+02  0.00000000000E+00 0.  1.
          1   -1    0    0  501    0  0.00000000000E+00 -0.00000000000E+00 -0.34461263867E+03  0.34461263867E+03  0.00000000000E+00 0. -1.
         23    2    1    2    0    0 -0.92639110241E+02 -0.51118660412E+02 -0.18164158491E+03  0.24457045815E+03  0.12500368571E+03 0.  0.
          5    1    3    3  502    0 -0.80590318844E+02 -0.13198497273E+02 -0.18703880174E+03  0.20414358471E+03  0.47000000000E+01 0.  1.
         -5    1    3    3    0  502 -0.12048791396E+02 -0.37920163139E+02  0.53972168282E+01  0.40426873440E+02  0.47000000000E+01 0.  1.
        -11    1    1    2    0    0  0.47114204278E+02  0.35995815071E+02 -0.10373931721E+03  0.11948762649E+03  0.00000000000E+00 0. -1.
         11    1    1    2    0    0  0.45524905963E+02  0.15122845341E+02  0.90265840885E+01  0.48812874679E+02  0.00000000000E+00 0.  1.
<mgrwt>
<rscale>  0 0.15722669E+03</rscale>
<asrwt>0</asrwt>
<pdfrwt beam="2">  1        1 0.53017328E-01 0.16377132E+03</pdfrwt>
<pdfrwt beam="1">  1       -1 0.10501280E-01 0.16377132E+03</pdfrwt>
<totfact> 0.40358090E+03</totfact>
</mgrwt>
</event>
<event>
 7    1  0.5206756E-006  0.1910634E+03  0.7546771E-02  0.1162393E+00
          1   -1    0    0  501    0  0.00000000000E+00  0.00000000000E+00  0.26640575673E+03  0.26640575673E+03  0.00000000000E+00 0. -1.
         -1   -1    0    0    0  501 -0.00000000000E+00 -0.00000000000E+00 -0.12701221900E+03  0.12701221900E+03  0.00000000000E+00 0.  1.
         23    2    1    2    0    0 -0.11819912605E+03 -0.83124204472E+02  0.10976419784E+03  0.22034835445E+03  0.12499820563E+03 0.  0.
          5    1    3    3  502    0 -0.13932114880E+03 -0.84367147110E+02  0.74985401986E+02  0.17936861076E+03  0.47000000000E+01 0. -1.
         -5    1    3    3    0  502  0.21122022748E+02  0.12429426374E+01  0.34778795855E+02  0.40979743685E+02  0.47000000000E+01 0. -1.
        -11    1    1    2    0    0  0.87079222983E+02  0.17587579656E+02  0.43958031700E+02  0.99118225289E+02  0.00000000000E+00 0. -1.
         11    1    1    2    0    0  0.31119903071E+02  0.65536624816E+02 -0.14328691809E+02  0.73951395987E+02  0.00000000000E+00 0.  1.
<mgrwt>
<rscale>  0 0.18570493E+03</rscale>
<asrwt>0</asrwt>
<pdfrwt beam="1">  1        1 0.40985501E-01 0.19106339E+03</pdfrwt>
<pdfrwt beam="2">  1       -1 0.19540341E-01 0.19106339E+03</pdfrwt>
<totfact> 0.21077435E+03</totfact>
</mgrwt>
</event>
<event>
 7    1  0.5206756E-006  0.1713938E+03  0.7546771E-02  0.1182480E+00
         -1   -1    0    0    0  501 -0.00000000000E+00  0.00000000000E+00  0.48742413223E+02  0.48742413223E+02  0.00000000000E+00 0.  1.
          1   -1    0    0  501    0  0.00000000000E+00 -0.00000000000E+00 -0.59310518361E+03  0.59310518361E+03  0.00000000000E+00 0. -1.
         23    2    1    2    0    0  0.87854427621E+02 -0.77666648954E+02 -0.39474669924E+03  0.43034962139E+03  0.12500132503E+03 0.  0.
          5    1    3    3  502    0  0.59928996766E+02  0.15213962060E+02 -0.81559043750E+02  0.10245446263E+03  0.47000000000E+01 0. -1.
         -5    1    3    3    0  502  0.27925430855E+02 -0.92880611014E+02 -0.31318765549E+03  0.32789515876E+03  0.47000000000E+01 0. -1.
        -11    1    1    2    0    0 -0.13038188644E+02  0.92376623153E+01 -0.94997655174E+02  0.96332150691E+02  0.00000000000E+00 0. -1.
         11    1    1    2    0    0 -0.74816238977E+02  0.68428986639E+02 -0.54618415978E+02  0.11516582475E+03  0.00000000000E+00 0.  1.
<mgrwt>
<rscale>  0 0.16563319E+03</rscale>
<asrwt>0</asrwt>
<pdfrwt beam="2">  1        1 0.91246951E-01 0.17139382E+03</pdfrwt>
<pdfrwt beam="1">  1       -1 0.74988328E-02 0.17139382E+03</pdfrwt>
<totfact> 0.33402935E+03</totfact>
</mgrwt>
</event>
<event>
 7    1  0.5206756E-006  0.1298964E+03  0.7546771E-02  0.1241545E+00
         -1   -1    0    0    0  501 -0.00000000000E+00  0.00000000000E+00  0.29895112552E+02  0.29895112552E+02  0.00000000000E+00 0.  1.
          1   -1    0    0  501    0  0.00000000000E+00 -0.00000000000E+00 -0.44169380554E+03  0.44169380554E+03  0.00000000000E+00 0. -1.
         23    2    1    2    0    0  0.32860170257E+02 -0.13003704718E+02 -0.26745708660E+03  0.29733207146E+03  0.12499672163E+03 0.  0.
          5    1    3    3  502    0 -0.18064871383E+02 -0.58517140210E+02 -0.12858931246E+03  0.14250577727E+03  0.47000000000E+01 0.  1.
         -5    1    3    3    0  502  0.50925041640E+02  0.45513435492E+02 -0.13886777415E+03  0.15482629419E+03  0.47000000000E+01 0.  1.
        -11    1    1    2    0    0  0.96634884822E+01  0.17434763253E+02  0.36045110385E+01  0.20257010617E+02  0.00000000000E+00 0.  1.
         11    1    1    2    0    0 -0.42523658739E+02 -0.44310585348E+01 -0.14794611742E+03  0.15399983601E+03  0.00000000000E+00 0. -1.
<mgrwt>
<rscale>  0 0.12094552E+03</rscale>
<asrwt>0</asrwt>
<pdfrwt beam="2">  1        1 0.67952896E-01 0.12989637E+03</pdfrwt>
<pdfrwt beam="1">  1       -1 0.45992479E-02 0.12989637E+03</pdfrwt>
<totfact> 0.10063602E+04</totfact>
</mgrwt>
</event>
<event>
 7    1  0.5206756E-006  0.1370148E+03  0.7546771E-02  0.1229138E+00
         -2   -1    0    0    0  501 -0.00000000000E+00  0.00000000000E+00  0.90475772965E+02  0.90475772965E+02  0.00000000000E+00 0.  1.
          2   -1    0    0  501    0  0.00000000000E+00 -0.00000000000E+00 -0.37161656293E+03  0.37161656293E+03  0.00000000000E+00 0. -1.
         23    2    1    2    0    0  0.52153534035E+02 -0.20640589567E+02 -0.31994766342E+03  0.34805108608E+03  0.12500810432E+03 0.  0.
          5    1    3    3  502    0  0.59545131071E+02 -0.66984096304E+02 -0.21608079524E+03  0.23397754564E+03  0.47000000000E+01 0. -1.
         -5    1    3    3    0  502 -0.73915970361E+01  0.46343506737E+02 -0.10386686818E+03  0.11407354044E+03  0.47000000000E+01 0. -1.
        -11    1    1    2    0    0 -0.91991635004E+01  0.45376712448E+02 -0.66634280597E+01  0.46776830965E+02  0.00000000000E+00 0. -1.
         11    1    1    2    0    0 -0.42954370535E+02 -0.24736122881E+02  0.45470301514E+02  0.67264418849E+02  0.00000000000E+00 0.  1.
<mgrwt>
<rscale>  0 0.12887246E+03</rscale>
<asrwt>0</asrwt>
<pdfrwt beam="2">  1        2 0.57171778E-01 0.13701478E+03</pdfrwt>
<pdfrwt beam="1">  1       -2 0.13919350E-01 0.13701478E+03</pdfrwt>
<totfact> 0.32518829E+03</totfact>
</mgrwt>
</event>
<event>
 7    1  0.5206756E-006  0.1482762E+03  0.7546771E-02  0.1216397E+00
          1   -1    0    0  501    0  0.00000000000E+00  0.00000000000E+00  0.20512763019E+04  0.20512763019E+04  0.00000000000E+00 0. -1.
         -1   -1    0    0    0  501 -0.00000000000E+00 -0.00000000000E+00 -0.13457059732E+02  0.13457059732E+02  0.00000000000E+00 0.  1.
         23    2    1    2    0    0 -0.48332850758E+02 -0.63441685917E+02  0.17529470808E+04  0.17592070077E+04  0.12499966299E+03 0.  0.
          5    1    3    3  502    0 -0.46758735565E+02 -0.90529694743E+02  0.89088063087E+03  0.89670083831E+03  0.47000000000E+01 0.  1.
         -5    1    3    3    0  502 -0.15741151929E+01  0.27088008826E+02  0.86206644993E+03  0.86250616935E+03  0.47000000000E+01 0.  1.
        -11    1    1    2    0    0  0.23282913326E+02  0.55342265777E+02  0.26709373745E+03  0.27375888117E+03  0.00000000000E+00 0. -1.
         11    1    1    2    0    0  0.25049937432E+02  0.80994201393E+01  0.17778423948E+02  0.31767472830E+02  0.00000000000E+00 0.  1.
<mgrwt>
<rscale>  0 0.13774402E+03</rscale>
<asrwt>0</asrwt>
<pdfrwt beam="1">  1        1 0.31558072E+00 0.14827619E+03</pdfrwt>
<pdfrwt beam="2">  1       -1 0.20703185E-02 0.14827619E+03</pdfrwt>
<totfact> 0.20423842E+03</totfact>
</mgrwt>
</event>
<event>
 7    1  0.5206756E-006  0.1272342E+03  0.7546771E-02  0.1246123E+00
          1   -1    0    0  501    0  0.00000000000E+00  0.00000000000E+00  0.18147362162E+04  0.18147362162E+04  0.00000000000E+00 0. -1.
         -1   -1    0    0    0  501 -0.00000000000E+00 -0.00000000000E+00 -0.13443758709E+02  0.13443758709E+02  0.00000000000E+00 0.  1.
         23    2    1    2    0    0  0.21049439583E+02 -0.10554837634E+02  0.16070106914E+04  0.16120396691E+04  0.12503619080E+03 0.  0.
          5    1    3    3  502    0  0.32448569165E+02  0.45799333351E+02  0.43804622080E+03  0.44165265779E+03  0.47000000000E+01 0.  1.
         -5    1    3    3    0  502 -0.11399129582E+02 -0.56354170985E+02  0.11689644706E+04  0.11703870113E+04  0.47000000000E+01 0.  1.
        -11    1    1    2    0    0  0.25610094387E+02  0.25644818196E+02  0.13191329248E+03  0.13680149987E+03  0.00000000000E+00 0. -1.
         11    1    1    2    0    0 -0.46659533970E+02 -0.15089980562E+02  0.62368473574E+02  0.79338805887E+02  0.00000000000E+00 0.  1.
<mgrwt>
<rscale>  0 0.11818416E+03</rscale>
<asrwt>0</asrwt>
<pdfrwt beam="1">  1        1 0.27918999E+00 0.12723416E+03</pdfrwt>
<pdfrwt beam="2">  1       -1 0.20682720E-02 0.12723416E+03</pdfrwt>
<totfact> 0.28894306E+03</totfact>
</mgrwt>
</event>
<event>
 7    1  0.5206756E-006  0.1637476E+03  0.7546771E-02  0.1192191E+00
         -1   -1    0    0    0  501 -0.00000000000E+00  0.00000000000E+00  0.54301254562E+02  0.54301254562E+02  0.00000000000E+00 0.  1.
          1   -1    0    0  501    0  0.00000000000E+00 -0.00000000000E+00 -0.44095245199E+03  0.44095245199E+03  0.00000000000E+00 0. -1.
         23    2    1    2    0    0  0.61654929297E+02  0.85971625529E+02 -0.26307926280E+03  0.30987735821E+03  0.12498331054E+03 0.  0.
          5    1    3    3  502    0 -0.15753419832E+02  0.84302601709E+02 -0.12903643634E+03  0.15500835718E+03  0.47000000000E+01 0.  1.
         -5    1    3    3    0  502  0.77408349129E+02  0.16690238203E+01 -0.13404282645E+03  0.15486900103E+03  0.47000000000E+01 0.  1.
        -11    1    1    2    0    0 -0.23414626938E+00 -0.35237814448E+02 -0.94020807762E+02  0.10040752304E+03  0.00000000000E+00 0. -1.
         11    1    1    2    0    0 -0.61420783027E+02 -0.50733811080E+02 -0.29551126873E+02  0.84968825306E+02  0.00000000000E+00 0.  1.
<mgrwt>
<rscale>  0 0.15694388E+03</rscale>
<asrwt>0</asrwt>
<pdfrwt beam="2">  1        1 0.67838837E-01 0.16374761E+03</pdfrwt>
<pdfrwt beam="1">  1       -1 0.83540393E-02 0.16374761E+03</pdfrwt>
<totfact> 0.41890087E+03</totfact>
</mgrwt>
</event>
<event>
 7    1  0.5206756E-006  0.1381681E+03  0.7546771E-02  0.1226799E+00
         -4   -1    0    0    0  501 -0.00000000000E+00  0.00000000000E+00  0.24050822846E+03  0.24050822846E+03  0.00000000000E+00 0.  1.
          4   -1    0    0  501    0  0.00000000000E+00 -0.00000000000E+00 -0.75061718474E+02  0.75061718474E+02  0.00000000000E+00 0. -1.
         23    2    1    2    0    0  0.12240950869E+02 -0.57586703321E+02  0.30280113340E+02  0.14144719941E+03  0.12499742269E+03 0.  0.
          5    1    3    3  502    0 -0.30660187613E+01  0.39423445158E+02  0.75234888697E+01  0.40525317815E+02  0.47000000000E+01 0.  1.
         -5    1    3    3    0  502  0.15306969630E+02 -0.97010148480E+02  0.22756624470E+02  0.10092188159E+03  0.47000000000E+01 0.  1.
        -11    1    1    2    0    0 -0.45918524804E+02  0.36201169142E+02  0.11591213789E+03  0.12982549548E+03  0.00000000000E+00 0.  1.
         11    1    1    2    0    0  0.33677573935E+02  0.21385534179E+02  0.19254258762E+02  0.44297252045E+02  0.00000000000E+00 0. -1.
<mgrwt>
<rscale>  0 0.13044388E+03</rscale>
<asrwt>0</asrwt>
<pdfrwt beam="2">  1        4 0.11547957E-01 0.13816810E+03</pdfrwt>
<pdfrwt beam="1">  1       -4 0.37001265E-01 0.13816810E+03</pdfrwt>
<totfact> 0.69930896E+02</totfact>
</mgrwt>
</event>
<event>
 7    1  0.5206756E-006  0.3642143E+03  0.7546771E-02  0.1057737E+00
          4   -1    0    0  501    0  0.00000000000E+00  0.00000000000E+00  0.54400865159E+03  0.54400865159E+03  0.00000000000E+00 0. -1.
         -4   -1    0    0    0  501 -0.00000000000E+00 -0.00000000000E+00 -0.31504616239E+03  0.31504616239E+03  0.00000000000E+00 0.  1.
         23    2    1    2    0    0 -0.34208233909E+03  0.27750853679E+01  0.32734125296E+03  0.48969824453E+03  0.12499618788E+03 0.  0.
          5    1    3    3  502    0 -0.21176791707E+03  0.15180863603E+02  0.27775914051E+03  0.34964030010E+03  0.47000000000E+01 0. -1.
         -5    1    3    3    0  502 -0.13031442202E+03 -0.12405778235E+02  0.49582112450E+02  0.14005794442E+03  0.47000000000E+01 0. -1.
        -11    1    1    2    0    0  0.20318826100E+03  0.12570642664E+02 -0.10578554553E+03  0.22942116752E+03  0.00000000000E+00 0.  1.
         11    1    1    2    0    0  0.13889407809E+03 -0.15345728032E+02  0.74067817599E+01  0.13993540193E+03  0.00000000000E+00 0. -1.
<mgrwt>
<rscale>  0 0.36214668E+03</rscale>
<asrwt>0</asrwt>
<pdfrwt beam="1">  1        4 0.83693638E-01 0.36421433E+03</pdfrwt>
<pdfrwt beam="2">  1       -4 0.48468641E-01 0.36421433E+03</pdfrwt>
<totfact> 0.98476092E+00</totfact>
</mgrwt>
</event>
<event>
 7    1  0.5206756E-006  0.1398446E+03  0.7546771E-02  0.1225165E+00
          2   -1    0    0  501    0  0.00000000000E+00  0.00000000000E+00  0.11871693926E+03  0.11871693926E+03  0.00000000000E+00 0. -1.
         -2   -1    0    0    0  501 -0.00000000000E+00 -0.00000000000E+00 -0.13531196686E+03  0.13531196686E+03  0.00000000000E+00 0.  1.
         23    2    1    2    0    0  0.31195806864E+02  0.54379870728E+02  0.13364941726E+02  0.14048181721E+03  0.12500468228E+03 0.  0.
          5    1    3    3  502    0  0.24921949444E+02  0.24885956977E+02 -0.55077287316E+02  0.65543969950E+02  0.47000000000E+01 0.  1.
         -5    1    3    3    0  502  0.62738574197E+01  0.29493913752E+02  0.68442229041E+02  0.74937847257E+02  0.47000000000E+01 0.  1.
        -11    1    1    2    0    0 -0.18038370502E+01 -0.73971423267E+02 -0.16996524741E+02  0.75920400035E+02  0.00000000000E+00 0.  1.
         11    1    1    2    0    0 -0.29391969813E+02  0.19591552539E+02 -0.12963444590E+02  0.37626688879E+02  0.00000000000E+00 0. -1.
<mgrwt>
<rscale>  0 0.13155608E+03</rscale>
<asrwt>0</asrwt>
<pdfrwt beam="1">  1        2 0.18264144E-01 0.13984463E+03</pdfrwt>
<pdfrwt beam="2">  1       -2 0.20817226E-01 0.13984463E+03</pdfrwt>
<totfact> 0.57668248E+03</totfact>
</mgrwt>
</event>
<event>
 7    1  0.5206756E-006  0.1313431E+03  0.7546771E-02  0.1237694E+00
         -2   -1    0    0    0  501 -0.00000000000E+00  0.00000000000E+00  0.45961726735E+02  0.45961726735E+02  0.00000000000E+00 0.  1.
          2   -1    0    0  501    0  0.00000000000E+00 -0.00000000000E+00 -0.29701383926E+03  0.29701383926E+03  0.00000000000E+00 0. -1.
         23    2    1    2    0    0 -0.40279703166E+02  0.15879429223E+01 -0.13399677159E+03  0.18763300382E+03  0.12500413303E+03 0.  0.
          5    1    3    3  502    0 -0.46202975651E+02 -0.53529814636E+02 -0.99549077111E+02  0.12219764633E+03  0.47000000000E+01 0. -1.
         -5    1    3    3    0  502  0.59232724848E+01  0.55117757558E+02 -0.34447694474E+02  0.65435357489E+02  0.47000000000E+01 0. -1.
        -11    1    1    2    0    0 -0.18582373796E+02 -0.11174215259E+02 -0.84825757635E+02  0.87553280126E+02  0.00000000000E+00 0. -1.
         11    1    1    2    0    0  0.58862076962E+02  0.95862723365E+01 -0.32229583310E+02  0.67789282058E+02  0.00000000000E+00 0.  1.
<mgrwt>
<rscale>  0 0.12333537E+03</rscale>
<asrwt>0</asrwt>
<pdfrwt beam="2">  1        2 0.45694438E-01 0.13134310E+03</pdfrwt>
<pdfrwt beam="1">  1       -2 0.70710347E-02 0.13134310E+03</pdfrwt>
<totfact> 0.11926543E+04</totfact>
</mgrwt>
</event>
<event>
 7    1  0.5206756E-006  0.1277711E+03  0.7546771E-02  0.1245397E+00
         -2   -1    0    0    0  501 -0.00000000000E+00  0.00000000000E+00  0.17537779545E+03  0.17537779545E+03  0.00000000000E+00 0.  1.
          2   -1    0    0  501    0  0.00000000000E+00 -0.00000000000E+00 -0.72173929812E+02  0.72173929812E+02  0.00000000000E+00 0. -1.
         23    2    1    2    0    0 -0.24428483764E+02 -0.10010054129E+02  0.41452230482E+02  0.13432698461E+03  0.12501399674E+03 0.  0.
          5    1    3    3  502    0 -0.62842382409E+02 -0.44411791940E+01  0.63389563516E+02  0.89494222507E+02  0.47000000000E+01 0.  1.
         -5    1    3    3    0  502  0.38413898645E+02 -0.55688749347E+01 -0.21937333034E+02  0.44832762103E+02  0.47000000000E+01 0.  1.
        -11    1    1    2    0    0 -0.23976565188E+02 -0.24755601328E+02  0.30034459028E+02  0.45714157593E+02  0.00000000000E+00 0. -1.
         11    1    1    2    0    0  0.48405048952E+02  0.34765655457E+02  0.31717176127E+02  0.67510583058E+02  0.00000000000E+00 0.  1.
<mgrwt>
<rscale>  0 0.11861631E+03</rscale>
<asrwt>0</asrwt>
<pdfrwt beam="2">  1        2 0.11103682E-01 0.12777109E+03</pdfrwt>
<pdfrwt beam="1">  1       -2 0.26981199E-01 0.12777109E+03</pdfrwt>
<totfact> 0.65686253E+03</totfact>
</mgrwt>
</event>
<event>
 7    1  0.5206756E-006  0.1561933E+03  0.7546771E-02  0.1200359E+00
         -1   -1    0    0    0  501 -0.00000000000E+00  0.00000000000E+00  0.14078241097E+03  0.14078241097E+03  0.00000000000E+00 0.  1.
          1   -1    0    0  501    0  0.00000000000E+00 -0.00000000000E+00 -0.15243933867E+03  0.15243933867E+03  0.00000000000E+00 0. -1.
         23    2    1    2    0    0  0.89410166311E+02  0.27915021300E+02 -0.29163892531E+02  0.15889271176E+03  0.12499173960E+03 0.  0.
          5    1    3    3  502    0 -0.19733090432E+02  0.66498185853E+01  0.26845893695E+02  0.34298789389E+02  0.47000000000E+01 0.  1.
         -5    1    3    3    0  502  0.10914325674E+03  0.21265202714E+02 -0.56009786226E+02  0.12459392237E+03  0.47000000000E+01 0.  1.
        -11    1    1    2    0    0  0.12702683379E+02 -0.24730624906E+02  0.16160255947E+02  0.32157671644E+02  0.00000000000E+00 0.  1.
         11    1    1    2    0    0 -0.10211284969E+03 -0.31843963935E+01  0.13467088860E+01  0.10217136623E+03  0.00000000000E+00 0. -1.
<mgrwt>
<rscale>  0 0.15009263E+03</rscale>
<asrwt>0</asrwt>
<pdfrwt beam="2">  1        1 0.23452206E-01 0.15619335E+03</pdfrwt>
<pdfrwt beam="1">  1       -1 0.21658833E-01 0.15619335E+03</pdfrwt>
<totfact> 0.35624164E+03</totfact>
</mgrwt>
</event>
<event>
 7    1  0.5206756E-006  0.1617546E+03  0.7546771E-02  0.1194298E+00
          1   -1    0    0  501    0  0.00000000000E+00  0.00000000000E+00  0.88927918222E+03  0.88927918222E+03  0.00000000000E+00 0. -1.
         -1   -1    0    0    0  501 -0.00000000000E+00 -0.00000000000E+00 -0.47600041865E+02  0.47600041865E+02  0.00000000000E+00 0.  1.
         23    2    1    2    0    0 -0.89244821784E+02 -0.50737072443E+02  0.76100198136E+03  0.77800292607E+03  0.12500259440E+03 0.  0.
          5    1    3    3  502    0  0.14690141213E+02 -0.55182284168E+02  0.29399236195E+03  0.29952376136E+03  0.47000000000E+01 0. -1.
         -5    1    3    3    0  502 -0.10393496300E+03  0.44452117246E+01  0.46700961941E+03  0.47847916471E+03  0.47000000000E+01 0. -1.
        -11    1    1    2    0    0  0.99978868853E+02  0.18476543584E+02  0.69220433935E+02  0.12299847704E+03  0.00000000000E+00 0.  1.
         11    1    1    2    0    0 -0.10734047069E+02  0.32260528859E+02  0.11456725059E+02  0.35877820974E+02  0.00000000000E+00 0. -1.
<mgrwt>
<rscale>  0 0.15513791E+03</rscale>
<asrwt>0</asrwt>
<pdfrwt beam="1">  1        1 0.13681217E+00 0.16175456E+03</pdfrwt>
<pdfrwt beam="2">  1       -1 0.73230840E-02 0.16175456E+03</pdfrwt>
<totfact> 0.19085091E+03</totfact>
</mgrwt>
</event>
<event>
 7    1  0.5206756E-006  0.1605898E+03  0.7546771E-02  0.1195763E+00
          1   -1    0    0  501    0  0.00000000000E+00  0.00000000000E+00  0.90932529212E+03  0.90932529212E+03  0.00000000000E+00 0. -1.
         -1   -1    0    0    0  501 -0.00000000000E+00 -0.00000000000E+00 -0.26436043566E+02  0.26436043566E+02  0.00000000000E+00 0.  1.
         23    2    1    2    0    0 -0.31086068040E+02  0.95903193784E+02  0.61438871607E+03  0.63502958656E+03  0.12500126070E+03 0.  0.
          5    1    3    3  502    0 -0.25009931101E+02  0.87951613478E+02  0.61692836509E+03  0.62368556230E+03  0.47000000000E+01 0. -1.
         -5    1    3    3    0  502 -0.60761369391E+01  0.79515803058E+01 -0.25396490193E+01  0.11344024268E+02  0.47000000000E+01 0. -1.
        -11    1    1    2    0    0  0.81294161574E+01 -0.49076228164E+02  0.23150904936E+03  0.23679316610E+03  0.00000000000E+00 0. -1.
         11    1    1    2    0    0  0.22956651883E+02 -0.46826965620E+02  0.36991483132E+02  0.63938583024E+02  0.00000000000E+00 0.  1.
<mgrwt>
<rscale>  0 0.15389844E+03</rscale>
<asrwt>0</asrwt>
<pdfrwt beam="1">  1        1 0.13989617E+00 0.16058979E+03</pdfrwt>
<pdfrwt beam="2">  1       -1 0.40670843E-02 0.16058979E+03</pdfrwt>
<totfact> 0.44254184E+03</totfact>
</mgrwt>
</event>
<event>
 7    1  0.5206756E-006  0.1517474E+03  0.7546771E-02  0.1206991E+00
         -1   -1    0    0    0  501 -0.00000000000E+00  0.00000000000E+00  0.16236196982E+02  0.16236196982E+02  0.00000000000E+00 0.  1.
          1   -1    0    0  501    0  0.00000000000E+00 -0.00000000000E+00 -0.12326578570E+04  0.12326578570E+04  0.00000000000E+00 0. -1.
         23    2    1    2    0    0  0.85961361284E+02  0.35797996799E+01 -0.78288906369E+03  0.79746006851E+03  0.12500041689E+03 0.  0.
          5    1    3    3  502    0  0.40803226713E+02 -0.52881593265E+02 -0.22104857377E+03  0.23096737472E+03  0.47000000000E+01 0.  1.
         -5    1    3    3    0  502  0.45158134572E+02  0.56461392945E+02 -0.56184048992E+03  0.56649269380E+03  0.47000000000E+01 0.  1.
        -11    1    1    2    0    0  0.10556761888E+02 -0.11509285466E+02 -0.14347394436E+02  0.21207465681E+02  0.00000000000E+00 0.  1.
         11    1    1    2    0    0 -0.96518123172E+02  0.79294857858E+01 -0.41918520184E+03  0.43022651974E+03  0.00000000000E+00 0. -1.
<mgrwt>
<rscale>  0 0.14481637E+03</rscale>
<asrwt>0</asrwt>
<pdfrwt beam="2">  1        1 0.18963968E+00 0.15174740E+03</pdfrwt>
<pdfrwt beam="1">  1       -1 0.24978764E-02 0.15174740E+03</pdfrwt>
<totfact> 0.52800373E+03</totfact>
</mgrwt>
</event>
<event>
 7    1  0.5206756E-006  0.1422548E+03  0.7546771E-02  0.1220824E+00
         -1   -1    0    0    0  501 -0.00000000000E+00  0.00000000000E+00  0.32267970571E+03  0.32267970571E+03  0.00000000000E+00 0.  1.
          1   -1    0    0  501    0  0.00000000000E+00 -0.00000000000E+00 -0.50875277072E+02  0.50875277072E+02  0.00000000000E+00 0. -1.
         23    2    1    2    0    0 -0.39172991083E+02 -0.55486139788E+02  0.14657194139E+03  0.20425419413E+03  0.12499282729E+03 0.  0.
          5    1    3    3  502    0 -0.67163682968E+02  0.10926870647E+02  0.87532192799E+02  0.11096995804E+03  0.47000000000E+01 0.  1.
         -5    1    3    3    0  502  0.27990691885E+02 -0.66413010435E+02  0.59039748595E+02  0.93284236082E+02  0.47000000000E+01 0.  1.
        -11    1    1    2    0    0  0.15491689239E+02  0.68919511999E+02  0.43044764964E+02  0.82720876207E+02  0.00000000000E+00 0. -1.
         11    1    1    2    0    0  0.23681301844E+02 -0.13433372211E+02  0.82187722285E+02  0.86579912453E+02  0.00000000000E+00 0.  1.
<mgrwt>
<rscale>  0 0.13457299E+03</rscale>
<asrwt>0</asrwt>
<pdfrwt beam="2">  1        1 0.78269659E-02 0.14225485E+03</pdfrwt>
<pdfrwt beam="1">  1       -1 0.49643030E-01 0.14225485E+03</pdfrwt>
<totfact> 0.35925986E+03</totfact>
</mgrwt>
</event>
<event>
 7    1  0.5206756E-006  0.2473060E+03  0.7546771E-02  0.1117629E+00
         -2   -1    0    0    0  501 -0.00000000000E+00  0.00000000000E+00  0.90548371123E+03  0.90548371123E+03  0.00000000000E+00 0. -1.
          2   -1    0    0  501    0  0.00000000000E+00 -0.00000000000E+00 -0.86576042629E+02  0.86576042629E+02  0.00000000000E+00 0.  1.
         23    2    1    2    0    0  0.19132173490E+03 -0.94498799919E+02  0.16228890965E+03  0.29580053512E+03  0.12500494770E+03 0.  0.
          5    1    3    3  502    0  0.99298883518E+01  0.25624259078E+01 -0.18642087475E+02  0.21789587757E+02  0.47000000000E+01 0. -1.
         -5    1    3    3    0  502  0.18139184655E+03 -0.97061225826E+02  0.18093099713E+03  0.27401094736E+03  0.47000000000E+01 0. -1.
        -11    1    1    2    0    0 -0.15821024408E+03  0.34918251757E+02  0.49547890532E+03  0.52129560832E+03  0.00000000000E+00 0. -1.
         11    1    1    2    0    0 -0.33111490819E+02  0.59580548161E+02  0.16113985363E+03  0.17496361042E+03  0.00000000000E+00 0.  1.
<mgrwt>
<rscale>  0 0.24327679E+03</rscale>
<asrwt>0</asrwt>
<pdfrwt beam="2">  1        2 0.13319392E-01 0.24730602E+03</pdfrwt>
<pdfrwt beam="1">  1       -2 0.13930518E+00 0.24730602E+03</pdfrwt>
<totfact> 0.17287961E+02</totfact>
</mgrwt>
</event>
<event>
 7    1  0.5206756E-006  0.1410764E+03  0.7546771E-02  0.1222499E+00
          1   -1    0    0  501    0  0.00000000000E+00  0.00000000000E+00  0.96704984541E+02  0.96704984541E+02  0.00000000000E+00 0. -1.
         -1   -1    0    0    0  501 -0.00000000000E+00 -0.00000000000E+00 -0.16829095543E+03  0.16829095543E+03  0.00000000000E+00 0.  1.
         23    2    1    2    0    0 -0.62382558271E+02 -0.19629890727E+02 -0.26535553351E+02  0.14355030800E+03  0.12500255657E+03 0.  0.
          5    1    3    3  502    0 -0.75658193453E+01 -0.62280289768E+02  0.11902317634E+02  0.64029924886E+02  0.47000000000E+01 0. -1.
         -5    1    3    3    0  502 -0.54816738925E+02  0.42650399040E+02 -0.38437870985E+02  0.79520383114E+02  0.47000000000E+01 0. -1.
        -11    1    1    2    0    0 -0.54726332844E+01 -0.23589541023E+02 -0.31706304264E+02  0.39896188926E+02  0.00000000000E+00 0.  1.
         11    1    1    2    0    0  0.67855191555E+02  0.43219431750E+02 -0.13344113275E+02  0.81549443045E+02  0.00000000000E+00 0. -1.
<mgrwt>
<rscale>  0 0.13339808E+03</rscale>
<asrwt>0</asrwt>
<pdfrwt beam="1">  1        1 0.14877690E-01 0.14107642E+03</pdfrwt>
<pdfrwt beam="2">  1       -1 0.25890916E-01 0.14107642E+03</pdfrwt>
<totfact> 0.47358382E+03</totfact>
</mgrwt>
</event>
<event>
 7    1  0.5206756E-006  0.1264233E+03  0.7546771E-02  0.1248847E+00
         -2   -1    0    0    0  501 -0.00000000000E+00  0.00000000000E+00  0.15550230741E+03  0.15550230741E+03  0.00000000000E+00 0.  1.
          2   -1    0    0  501    0  0.00000000000E+00 -0.00000000000E+00 -0.80325884458E+02  0.80325884458E+02  0.00000000000E+00 0. -1.
         23    2    1    2    0    0 -0.18889164238E+02  0.16694851827E+00  0.17224777562E+02  0.12759131099E+03  0.12500408505E+03 0.  0.
          5    1    3    3  502    0  0.32508158334E+02 -0.15546416869E+02  0.51974029726E+02  0.63418145682E+02  0.47000000000E+01 0.  1.
         -5    1    3    3    0  502 -0.51397322572E+02  0.15713365388E+02 -0.34749252165E+02  0.64173165306E+02  0.47000000000E+01 0.  1.
        -11    1    1    2    0    0  0.39742594914E+02 -0.28443718609E+01 -0.65644996653E+01  0.40381393706E+02  0.00000000000E+00 0. -1.
         11    1    1    2    0    0 -0.20853430676E+02  0.26774233427E+01  0.64516145057E+02  0.67855487175E+02  0.00000000000E+00 0.  1.
<mgrwt>
<rscale>  0 0.11658039E+03</rscale>
<asrwt>0</asrwt>
<pdfrwt beam="2">  1        2 0.12357828E-01 0.12642330E+03</pdfrwt>
<pdfrwt beam="1">  1       -2 0.23923432E-01 0.12642330E+03</pdfrwt>
<totfact> 0.71204670E+03</totfact>
</mgrwt>
</event>
<event>
 6    1  0.5206756E-006  0.1834282E+03  0.7546771E-02  0.1171382E+00
          1   -1    0    0  501    0  0.00000000000E+00  0.00000000000E+00  0.89419247680E+03  0.89419247680E+03  0.00000000000E+00 0. -1.
         -1   -1    0    0    0  501 -0.00000000000E+00 -0.00000000000E+00 -0.42857340073E+02  0.42857340073E+02  0.00000000000E+00 0.  1.
          5    1    1    2  502    0 -0.11612727182E+03  0.10022634950E+03  0.52043084892E+03  0.54258752557E+03  0.47000000000E+01 0. -1.
         -5    1    1    2    0  502  0.16983250876E+02 -0.19057181737E+02  0.16194701605E+03  0.16401381952E+03  0.47000000000E+01 0.  1.
        -11    1    1    2    0    0 -0.94680866005E+01  0.41112310536E+01  0.40680562025E+02  0.41969691580E+02  0.00000000000E+00 0. -1.
         11    1    1    2    0    0  0.10861210755E+03 -0.85280398819E+02  0.12827670974E+03  0.18847878021E+03  0.00000000000E+00 0.  1.
<mgrwt>
<rscale>  0 0.17635104E+03</rscale>
<asrwt>0</asrwt>
<pdfrwt beam="1">  1        1 0.13756806E+00 0.18342822E+03</pdfrwt>
<pdfrwt beam="2">  1       -1 0.65934376E-02 0.18342822E+03</pdfrwt>
<totfact> 0.22204343E+03</totfact>
</mgrwt>
</event>
<event>
 7    1  0.5206756E-006  0.1384664E+03  0.7546771E-02  0.1227157E+00
         -2   -1    0    0    0  501 -0.00000000000E+00  0.00000000000E+00  0.16440086448E+02  0.16440086448E+02  0.00000000000E+00 0.  1.
          2   -1    0    0  501    0  0.00000000000E+00 -0.00000000000E+00 -0.10064359449E+04  0.10064359449E+04  0.00000000000E+00 0. -1.
         23    2    1    2    0    0  0.34791710362E+02  0.48338301252E+02 -0.69466881034E+03  0.70833444878E+03  0.12500352311E+03 0.  0.
          5    1    3    3  502    0 -0.12282983929E+02 -0.28772127107E+02 -0.66002848707E+02  0.73192711590E+02  0.47000000000E+01 0. -1.
         -5    1    3    3    0  502  0.47074694291E+02  0.77110428359E+02 -0.62866596163E+03  0.63514173719E+03  0.47000000000E+01 0. -1.
        -11    1    1    2    0    0 -0.27177997210E+02  0.16340896056E+02 -0.17374765787E+03  0.17661799747E+03  0.00000000000E+00 0. -1.
         11    1    1    2    0    0 -0.76137131524E+01 -0.64679197309E+02 -0.12157939020E+03  0.13792358505E+03  0.00000000000E+00 0.  1.
<mgrwt>
<rscale>  0 0.13020165E+03</rscale>
<asrwt>0</asrwt>
<pdfrwt beam="2">  1        2 0.15483634E+00 0.13846637E+03</pdfrwt>
<pdfrwt beam="1">  1       -2 0.25292434E-02 0.13846637E+03</pdfrwt>
<totfact> 0.13653478E+04</totfact>
</mgrwt>
</event>
<event>
 7    1  0.5206756E-006  0.1728675E+03  0.7546771E-02  0.1177343E+00
          2   -1    0    0  501    0  0.00000000000E+00  0.00000000000E+00  0.38159704511E+03  0.38159704511E+03  0.00000000000E+00 0. -1.
         -2   -1    0    0    0  501 -0.00000000000E+00 -0.00000000000E+00 -0.95617638129E+02  0.95617638129E+02  0.00000000000E+00 0.  1.
         23    2    1    2    0    0 -0.69430627889E+02 -0.97142918974E+02  0.25912302906E+03  0.31149305732E+03  0.12500328704E+03 0.  0.
          5    1    3    3  502    0 -0.56763159491E+02 -0.37411564048E+02  0.30230554598E+02  0.74549700410E+02  0.47000000000E+01 0. -1.
         -5    1    3    3    0  502 -0.12667468398E+02 -0.59731354926E+02  0.22889247446E+03  0.23694335691E+03  0.47000000000E+01 0. -1.
        -11    1    1    2    0    0  0.57794111341E+01  0.93579926561E+02 -0.60992756815E+01  0.93956401656E+02  0.00000000000E+00 0. -1.
         11    1    1    2    0    0  0.63651216755E+02  0.35629924130E+01  0.32955653598E+02  0.71765224263E+02  0.00000000000E+00 0.  1.
<mgrwt>
<rscale>  0 0.17048457E+03</rscale>
<asrwt>0</asrwt>
<pdfrwt beam="1">  1        2 0.58707237E-01 0.17286752E+03</pdfrwt>
<pdfrwt beam="2">  1       -2 0.14710406E-01 0.17286752E+03</pdfrwt>
<totfact> 0.29162353E+03</totfact>
</mgrwt>
</event>
<event>
 7    1  0.5206756E-006  0.1496633E+03  0.7546771E-02  0.1209543E+00
          2   -1    0    0  501    0  0.00000000000E+00  0.00000000000E+00  0.43175249259E+02  0.43175249259E+02  0.00000000000E+00 0. -1.
         -2   -1    0    0    0  501 -0.00000000000E+00 -0.00000000000E+00 -0.43455392669E+03  0.43455392669E+03  0.00000000000E+00 0.  1.
         23    2    1    2    0    0  0.66495966599E+01  0.82043796696E+02 -0.20864198435E+03  0.25676952094E+03  0.12499483005E+03 0.  0.
          5    1    3    3  502    0  0.95279824212E+01  0.34771189265E+02  0.60567062206E+01  0.36859079508E+02  0.47000000000E+01 0.  1.
         -5    1    3    3    0  502 -0.28783857613E+01  0.47272607430E+02 -0.21469869058E+03  0.21991044144E+03  0.47000000000E+01 0.  1.
        -11    1    1    2    0    0 -0.14053264300E+02  0.18595160110E+02 -0.34105698841E+02  0.41309477247E+02  0.00000000000E+00 0. -1.
         11    1    1    2    0    0  0.74036676402E+01 -0.10063895681E+03 -0.14863099424E+03  0.17965017776E+03  0.00000000000E+00 0.  1.
<mgrwt>
<rscale>  0 0.14285121E+03</rscale>
<asrwt>0</asrwt>
<pdfrwt beam="1">  1        2 0.66423462E-02 0.14966332E+03</pdfrwt>
<pdfrwt beam="2">  1       -2 0.66854448E-01 0.14966332E+03</pdfrwt>
<totfact> 0.22021479E+03</totfact>
</mgrwt>
</event>
<event>
 7    1  0.5206756E-006  0.1319671E+03  0.7546771E-02  0.1235680E+00
          2   -1    0    0  501    0  0.00000000000E+00  0.00000000000E+00  0.50935842476E+03  0.50935842476E+03  0.00000000000E+00 0.  1.
         -2   -1    0    0    0  501 -0.00000000000E+00 -0.00000000000E+00 -0.28227172580E+02  0.28227172580E+02  0.00000000000E+00 0. -1.
         23    2    1    2    0    0 -0.35443835445E+02  0.23431319043E+02  0.30905254011E+03  0.33604877236E+03  0.12494003630E+03 0.  0.
          5    1    3    3  502    0  0.11089673397E+02  0.51687417813E+02  0.55959206540E+02  0.77123879654E+02  0.47000000000E+01 0.  1.
         -5    1    3    3    0  502 -0.46533508842E+02 -0.28256098770E+02  0.25309333357E+03  0.25892489270E+03  0.47000000000E+01 0.  1.
        -11    1    1    2    0    0 -0.23580268809E+02  0.20421706542E+02  0.45926581057E+02  0.55518699758E+02  0.00000000000E+00 0. -1.
         11    1    1    2    0    0  0.59024104254E+02 -0.43853025585E+02  0.12615213101E+03  0.14601812523E+03  0.00000000000E+00 0.  1.
<mgrwt>
<rscale>  0 0.12461000E+03</rscale>
<asrwt>0</asrwt>
<pdfrwt beam="1">  1        2 0.78362828E-01 0.13196706E+03</pdfrwt>
<pdfrwt beam="2">  1       -2 0.43426423E-02 0.13196706E+03</pdfrwt>
<totfact> 0.13976968E+04</totfact>
</mgrwt>
</event>
<event>
 7    1  0.5206756E-006  0.1271725E+03  0.7546771E-02  0.1249849E+00
          1   -1    0    0  501    0  0.00000000000E+00  0.00000000000E+00  0.33601775015E+03  0.33601775015E+03  0.00000000000E+00 0. -1.
         -1   -1    0    0    0  501 -0.00000000000E+00 -0.00000000000E+00 -0.38285219473E+02  0.38285219473E+02  0.00000000000E+00 0.  1.
         23    2    1    2    0    0 -0.76585936661E+01  0.22739907803E+02  0.23153607601E+03  0.26416242693E+03  0.12488825342E+03 0.  0.
          5    1    3    3  502    0 -0.45222334406E+02  0.53491818998E+02  0.18000189744E+03  0.19320767923E+03  0.47000000000E+01 0.  1.
         -5    1    3    3    0  502  0.37563740740E+02 -0.30751911195E+02  0.51534178566E+02  0.70954747699E+02  0.47000000000E+01 0.  1.
        -11    1    1    2    0    0 -0.31942183488E+02  0.70735002362E+01  0.79708388060E+01  0.33673012381E+02  0.00000000000E+00 0.  1.
         11    1    1    2    0    0  0.39600777154E+02 -0.29813408039E+02  0.58225615857E+02  0.76467530312E+02  0.00000000000E+00 0. -1.
<mgrwt>
<rscale>  0 0.11599794E+03</rscale>
<asrwt>0</asrwt>
<pdfrwt beam="1">  1        1 0.51695036E-01 0.12717245E+03</pdfrwt>
<pdfrwt beam="2">  1       -1 0.58900340E-02 0.12717245E+03</pdfrwt>
<totfact> 0.98221225E+03</totfact>
</mgrwt>
</event>
<event>
 7    1  0.5206756E-006  0.1277830E+03  0.7546771E-02  0.1236357E+00
          1   -1    0    0  501    0  0.00000000000E+00  0.00000000000E+00  0.30164906297E+02  0.30164906297E+02  0.00000000000E+00 0. -1.
         -1   -1    0    0    0  501 -0.00000000000E+00 -0.00000000000E+00 -0.50135983961E+03  0.50135983961E+03  0.00000000000E+00 0.  1.
         23    2    1    2    0    0 -0.64012456532E+01 -0.25666601500E+02 -0.19975385887E+03  0.23712887088E+03  0.12501498667E+03 0.  0.
          5    1    3    3  502    0 -0.47034135507E+01 -0.61362135402E+02 -0.40442573295E+02  0.73791093601E+02  0.47000000000E+01 0.  1.
         -5    1    3    3    0  502 -0.16978321024E+01  0.35695533901E+02 -0.15931128558E+03  0.16333777728E+03  0.47000000000E+01 0.  1.
        -11    1    1    2    0    0  0.48918973222E+02  0.43538518952E+02 -0.18766576271E+03  0.19876394811E+03  0.00000000000E+00 0.  1.
         11    1    1    2    0    0 -0.42517727569E+02 -0.17871917452E+02 -0.83775311739E+02  0.95631926928E+02  0.00000000000E+00 0. -1.
<mgrwt>
<rscale>  0 0.12417965E+03</rscale>
<asrwt>0</asrwt>
<pdfrwt beam="1">  1        1 0.46407550E-02 0.12778301E+03</pdfrwt>
<pdfrwt beam="2">  1       -1 0.77132280E-01 0.12778301E+03</pdfrwt>
<totfact> 0.31186797E+03</totfact>
</mgrwt>
</event>
<event>
 6    1  0.5206756E-006  0.1477278E+03  0.7546771E-02  0.1216523E+00
         -1   -1    0    0    0  501 -0.00000000000E+00  0.00000000000E+00  0.26372470563E+02  0.26372470563E+02  0.00000000000E+00 0.  1.
          1   -1    0    0  501    0  0.00000000000E+00 -0.00000000000E+00 -0.16187285439E+04  0.16187285439E+04  0.00000000000E+00 0. -1.
          5    1    1    2  502    0 -0.57491931930E-01  0.57161755337E+02 -0.28393571356E+03  0.28967058707E+03  0.47000000000E+01 0. -1.
         -5    1    1    2    0  502 -0.56285675976E+02 -0.26468275639E+02 -0.11944726960E+04  0.11961002292E+04  0.47000000000E+01 0.  1.
        -11    1    1    2    0    0 -0.15603498600E+02 -0.35837564414E+02 -0.43999473761E+02  0.58853664991E+02  0.00000000000E+00 0. -1.
         11    1    1    2    0    0  0.71946666508E+02  0.51440847159E+01 -0.69948190060E+02  0.10047653319E+03  0.00000000000E+00 0.  1.
<mgrwt>
<rscale>  0 0.13765223E+03</rscale>
<asrwt>0</asrwt>
<pdfrwt beam="2">  1        1 0.24903523E+00 0.14772777E+03</pdfrwt>
<pdfrwt beam="1">  1       -1 0.40573021E-02 0.14772777E+03</pdfrwt>
<totfact> 0.14460062E+03</totfact>
</mgrwt>
</event>
<event>
 7    1  0.5206756E-006  0.1744303E+03  0.7546771E-02  0.1179278E+00
         -2   -1    0    0    0  501 -0.00000000000E+00  0.00000000000E+00  0.52455551222E+02  0.52455551222E+02  0.00000000000E+00 0.  1.
          2   -1    0    0  501    0  0.00000000000E+00 -0.00000000000E+00 -0.51250859532E+03  0.51250859532E+03  0.00000000000E+00 0. -1.
         23    2    1    2    0    0  0.30159654530E+02  0.11785382880E+03 -0.26863554829E+03  0.32029826699E+03  0.12500716903E+03 0.  0.
          5    1    3    3  502    0  0.39675254867E+02  0.12533767973E+03 -0.27572731302E+03  0.30550172005E+03  0.47000000000E+01 0.  1.
         -5    1    3    3    0  502 -0.95156003369E+01 -0.74838509269E+01  0.70917647289E+01  0.14796546943E+02  0.47000000000E+01 0.  1.
        -11    1    1    2    0    0 -0.55669862867E+02 -0.11022710251E+03 -0.13939834125E+03  0.18622847608E+03  0.00000000000E+00 0.  1.
         11    1    1    2    0    0  0.25510208337E+02 -0.76267262899E+01 -0.52019154550E+02  0.58437403462E+02  0.00000000000E+00 0. -1.
<mgrwt>
<rscale>  0 0.16863624E+03</rscale>
<asrwt>0</asrwt>
<pdfrwt beam="2">  1        2 0.78847476E-01 0.17443028E+03</pdfrwt>
<pdfrwt beam="1">  1       -2 0.80700848E-02 0.17443028E+03</pdfrwt>
<totfact> 0.55063235E+03</totfact>
</mgrwt>
</event>
<event>
 7    1  0.5206756E-006  0.1740275E+03  0.7546771E-02  0.1177909E+00
         -1   -1    0    0    0  501 -0.00000000000E+00  0.00000000000E+00  0.36282531287E+02  0.36282531287E+02  0.00000000000E+00 0.  1.
          1   -1    0    0  501    0  0.00000000000E+00 -0.00000000000E+00 -0.85763694848E+03  0.85763694848E+03  0.00000000000E+00 0. -1.
         23    2    1    2    0    0  0.93318485191E+02 -0.77152955840E+02 -0.57805578556E+03  0.60368373151E+03  0.12499855279E+03 0.  0.
          5    1    3    3  502    0  0.28562214670E+02 -0.58963361758E+02 -0.48124122041E+03  0.48570328428E+03  0.47000000000E+01 0.  1.
         -5    1    3    3    0  502  0.64756270521E+02 -0.18189594082E+02 -0.96814565154E+02  0.11798044724E+03  0.47000000000E+01 0.  1.
        -11    1    1    2    0    0 -0.44950180667E+02  0.96260549017E+02 -0.16233788630E+03  0.19401082797E+03  0.00000000000E+00 0.  1.
         11    1    1    2    0    0 -0.48368304525E+02 -0.19107593178E+02 -0.80960745330E+02  0.96224920286E+02  0.00000000000E+00 0. -1.
<mgrwt>
<rscale>  0 0.16994101E+03</rscale>
<asrwt>0</asrwt>
<pdfrwt beam="2">  1        1 0.13194415E+00 0.17402746E+03</pdfrwt>
<pdfrwt beam="1">  1       -1 0.55819276E-02 0.17402746E+03</pdfrwt>
<totfact> 0.30427214E+03</totfact>
</mgrwt>
</event>
<event>
 7    1  0.5206756E-006  0.2240893E+03  0.7546771E-02  0.1133478E+00
         -2   -1    0    0    0  501 -0.00000000000E+00  0.00000000000E+00  0.46657601427E+03  0.46657601427E+03  0.00000000000E+00 0.  1.
          2   -1    0    0  501    0  0.00000000000E+00 -0.00000000000E+00 -0.11068541272E+03  0.11068541272E+03  0.00000000000E+00 0. -1.
         23    2    1    2    0    0 -0.24719042658E+02 -0.18433352169E+03  0.98132084206E+02  0.24463427113E+03  0.12500456942E+03 0.  0.
          5    1    3    3  502    0  0.47436035322E+02 -0.72100243209E+02  0.61848347253E+02  0.10628231544E+03  0.47000000000E+01 0.  1.
         -5    1    3    3    0  502 -0.72155077980E+02 -0.11223327848E+03  0.36283736953E+02  0.13835195569E+03  0.47000000000E+01 0.  1.
        -11    1    1    2    0    0  0.31585490289E+02  0.93489019736E+02  0.61557607086E+02  0.11630640136E+03  0.00000000000E+00 0.  1.
         11    1    1    2    0    0 -0.68664476310E+01  0.90844501951E+02  0.19620091025E+03  0.21632075449E+03  0.00000000000E+00 0. -1.
<mgrwt>
<rscale>  0 0.22054404E+03</rscale>
<asrwt>0</asrwt>
<pdfrwt beam="2">  1        2 0.17028525E-01 0.22408931E+03</pdfrwt>
<pdfrwt beam="1">  1       -2 0.71780924E-01 0.22408931E+03</pdfrwt>
<totfact> 0.60456970E+02</totfact>
</mgrwt>
</event>
<event>
 7    1  0.5206756E-006  0.1374709E+03  0.7546771E-02  0.1227702E+00
          1   -1    0    0  501    0  0.00000000000E+00  0.00000000000E+00  0.88598217266E+02  0.88598217266E+02  0.00000000000E+00 0. -1.
         -1   -1    0    0    0  501 -0.00000000000E+00 -0.00000000000E+00 -0.17219099754E+03  0.17219099754E+03  0.00000000000E+00 0.  1.
         23    2    1    2    0    0  0.56843544462E+02 -0.48473438306E+01 -0.51504264156E+02  0.14680238298E+03  0.12507423849E+03 0.  0.
          5    1    3    3  502    0  0.60289480883E+02  0.66535979259E+01  0.27492107550E+02  0.66760750805E+02  0.47000000000E+01 0.  1.
         -5    1    3    3    0  502 -0.34459364211E+01 -0.11500941756E+02 -0.78996371705E+02  0.80041632178E+02  0.47000000000E+01 0.  1.
        -11    1    1    2    0    0 -0.59374579700E+02 -0.30609551996E+02 -0.39598339607E+02  0.77655095696E+02  0.00000000000E+00 0.  1.
         11    1    1    2    0    0  0.25310352378E+01  0.35456895826E+02  0.75098234912E+01  0.36331736125E+02  0.00000000000E+00 0. -1.
<mgrwt>
<rscale>  0 0.12983434E+03</rscale>
<asrwt>0</asrwt>
<pdfrwt beam="1">  1        1 0.13630495E-01 0.13747091E+03</pdfrwt>
<pdfrwt beam="2">  1       -1 0.26490922E-01 0.13747091E+03</pdfrwt>
<totfact> 0.51011371E+03</totfact>
</mgrwt>
</event>
<event>
 7    1  0.5206756E-006  0.2034382E+03  0.7546771E-02  0.1151229E+00
         -2   -1    0    0    0  501 -0.00000000000E+00  0.00000000000E+00  0.17240128025E+02  0.17240128025E+02  0.00000000000E+00 0.  1.
          2   -1    0    0  501    0  0.00000000000E+00 -0.00000000000E+00 -0.35808959643E+04  0.35808959643E+04  0.00000000000E+00 0. -1.
         23    2    1    2    0    0 -0.15186662980E+03 -0.51960648887E+02 -0.29658218049E+04  0.29727909609E+04  0.12499494427E+03 0.  0.
          5    1    3    3  502    0 -0.13186451083E+02  0.30347280341E+02 -0.25623718197E+03  0.25840747539E+03  0.47000000000E+01 0.  1.
         -5    1    3    3    0  502 -0.13868017872E+03 -0.82307929228E+02 -0.27095846230E+04  0.27143834855E+04  0.47000000000E+01 0.  1.
        -11    1    1    2    0    0  0.73746472296E+02  0.53570998192E+02 -0.19835115133E+03  0.21829240312E+03  0.00000000000E+00 0.  1.
         11    1    1    2    0    0  0.78120157504E+02 -0.16103493053E+01 -0.39948288002E+03  0.40705272836E+03  0.00000000000E+00 0. -1.
<mgrwt>
<rscale>  0 0.19824361E+03</rscale>
<asrwt>0</asrwt>
<pdfrwt beam="2">  1        2 0.55090716E+00 0.20343824E+03</pdfrwt>
<pdfrwt beam="1">  1       -2 0.26523270E-02 0.20343824E+03</pdfrwt>
<totfact> 0.46557103E+02</totfact>
</mgrwt>
</event>
<event>
 7    1  0.5206756E-006  0.1475957E+03  0.7546771E-02  0.1213544E+00
          2   -1    0    0  501    0  0.00000000000E+00  0.00000000000E+00  0.62299305836E+03  0.62299305836E+03  0.00000000000E+00 0. -1.
         -2   -1    0    0    0  501 -0.00000000000E+00 -0.00000000000E+00 -0.53123662134E+02  0.53123662134E+02  0.00000000000E+00 0.  1.
         23    2    1    2    0    0  0.77897170372E+02  0.95654892873E+01  0.53078794688E+03  0.55092680514E+03  0.12500012933E+03 0.  0.
          5    1    3    3  502    0  0.18476041375E+02 -0.32783966712E+02  0.41550755601E+02  0.56255736323E+02  0.47000000000E+01 0.  1.
         -5    1    3    3    0  502  0.59421128997E+02  0.42349455999E+02  0.48923719128E+03  0.49467106881E+03  0.47000000000E+01 0.  1.
        -11    1    1    2    0    0 -0.34407062178E+02 -0.16789533704E+02 -0.26217946470E+02  0.46401671164E+02  0.00000000000E+00 0.  1.
         11    1    1    2    0    0 -0.43490108194E+02  0.72240444165E+01  0.65299395822E+02  0.78788244194E+02  0.00000000000E+00 0. -1.
<mgrwt>
<rscale>  0 0.13983997E+03</rscale>
<asrwt>0</asrwt>
<pdfrwt beam="1">  1        2 0.95845081E-01 0.14759573E+03</pdfrwt>
<pdfrwt beam="2">  1       -2 0.81728715E-02 0.14759573E+03</pdfrwt>
<totfact> 0.42969346E+03</totfact>
</mgrwt>
</event>
<event>
 7    1  0.5206756E-006  0.1475558E+03  0.7546771E-02  0.1213423E+00
         -1   -1    0    0    0  501 -0.00000000000E+00  0.00000000000E+00  0.21035713194E+02  0.21035713194E+02  0.00000000000E+00 0.  1.
          1   -1    0    0  501    0  0.00000000000E+00 -0.00000000000E+00 -0.93728763628E+03  0.93728763628E+03  0.00000000000E+00 0. -1.
         23    2    1    2    0    0  0.52802533668E+02  0.57968674468E+02 -0.65020485810E+03  0.66673763805E+03  0.12499698285E+03 0.  0.
          5    1    3    3  502    0 -0.30766882169E+02  0.26073295725E+02 -0.37799223253E+03  0.38016658933E+03  0.47000000000E+01 0. -1.
         -5    1    3    3    0  502  0.83569415837E+02  0.31895378743E+02 -0.27221262557E+03  0.28657104872E+03  0.47000000000E+01 0. -1.
        -11    1    1    2    0    0  0.51421322490E+00 -0.59528646320E+02 -0.18682622815E+03  0.19608152303E+03  0.00000000000E+00 0. -1.
         11    1    1    2    0    0 -0.53316746893E+02  0.15599718521E+01 -0.79220836835E+02  0.95504188391E+02  0.00000000000E+00 0.  1.
<mgrwt>
<rscale>  0 0.13992990E+03</rscale>
<asrwt>0</asrwt>
<pdfrwt beam="2">  1        1 0.14419808E+00 0.14755582E+03</pdfrwt>
<pdfrwt beam="1">  1       -1 0.32362640E-02 0.14755582E+03</pdfrwt>
<totfact> 0.58737953E+03</totfact>
</mgrwt>
</event>
<event>
 7    1  0.5206756E-006  0.3253028E+03  0.7546771E-02  0.1074531E+00
          1   -1    0    0  501    0  0.00000000000E+00  0.00000000000E+00  0.14794165987E+04  0.14794165987E+04  0.00000000000E+00 0. -1.
         -1   -1    0    0    0  501 -0.00000000000E+00 -0.00000000000E+00 -0.69606095531E+02  0.69606095531E+02  0.00000000000E+00 0.  1.
         23    2    1    2    0    0  0.13844496873E+03  0.26650663214E+03  0.78535860723E+03  0.85006474288E+03  0.12501652208E+03 0.  0.
          5    1    3    3  502    0  0.64640410404E+02  0.10675247039E+03  0.49497394725E+03  0.51048581865E+03  0.47000000000E+01 0.  1.
         -5    1    3    3    0  502  0.73804558326E+02  0.15975416175E+03  0.29038465998E+03  0.33957892423E+03  0.47000000000E+01 0.  1.
        -11    1    1    2    0    0 -0.14970764534E+03 -0.25570223789E+03  0.60754362711E+03  0.67594768465E+03  0.00000000000E+00 0. -1.
         11    1    1    2    0    0  0.11262676606E+02 -0.10804394253E+02  0.16908268846E+02  0.23010266728E+02  0.00000000000E+00 0.  1.
<mgrwt>
<rscale>  0 0.32244201E+03</rscale>
<asrwt>0</asrwt>
<pdfrwt beam="1">  1        1 0.22760253E+00 0.32530282E+03</pdfrwt>
<pdfrwt beam="2">  1       -1 0.10708631E-01 0.32530282E+03</pdfrwt>
<totfact> 0.40291177E+02</totfact>
</mgrwt>
</event>
<event>
 7    1  0.5206756E-006  0.2003007E+03  0.7546771E-02  0.1153989E+00
         -2   -1    0    0    0  501 -0.00000000000E+00  0.00000000000E+00  0.57220160532E+02  0.57220160532E+02  0.00000000000E+00 0.  1.
          2   -1    0    0  501    0  0.00000000000E+00 -0.00000000000E+00 -0.76435575348E+03  0.76435575348E+03  0.00000000000E+00 0. -1.
         23    2    1    2    0    0 -0.79069014776E+02 -0.13505413419E+03 -0.53972174173E+03  0.57569082794E+03  0.12501536953E+03 0.  0.
          5    1    3    3  502    0 -0.46011792272E+01 -0.66656448378E+02 -0.38511475036E+03  0.39089603977E+03  0.47000000000E+01 0. -1.
         -5    1    3    3    0  502 -0.74467835549E+02 -0.68397685810E+02 -0.15460699137E+03  0.18479478818E+03  0.47000000000E+01 0. -1.
        -11    1    1    2    0    0  0.87651757727E+02  0.75938522194E+02 -0.13481718458E+03  0.17783465085E+03  0.00000000000E+00 0.  1.
         11    1    1    2    0    0 -0.85827429515E+01  0.59115611993E+02 -0.32596666640E+02  0.68050435222E+02  0.00000000000E+00 0. -1.
<mgrwt>
<rscale>  0 0.19504450E+03</rscale>
<asrwt>0</asrwt>
<pdfrwt beam="2">  1        2 0.11759319E+00 0.20030070E+03</pdfrwt>
<pdfrwt beam="1">  1       -2 0.88031015E-02 0.20030070E+03</pdfrwt>
<totfact> 0.30283218E+03</totfact>
</mgrwt>
</event>
<event>
 7    1  0.5206756E-006  0.1367075E+03  0.7546771E-02  0.1230017E+00
          2   -1    0    0  501    0  0.00000000000E+00  0.00000000000E+00  0.68231700560E+02  0.68231700560E+02  0.00000000000E+00 0. -1.
         -2   -1    0    0    0  501 -0.00000000000E+00 -0.00000000000E+00 -0.24179927514E+03  0.24179927514E+03  0.00000000000E+00 0.  1.
         23    2    1    2    0    0 -0.36421700052E+02  0.41629784751E+02 -0.46176244061E+02  0.14429552692E+03  0.12501749622E+03 0.  0.
          5    1    3    3  502    0 -0.45377170510E+02 -0.31951835004E+02 -0.42268397140E+02  0.69919344680E+02  0.47000000000E+01 0.  1.
         -5    1    3    3    0  502  0.89554704582E+01  0.73581619756E+02 -0.39078469210E+01  0.74376182240E+02  0.47000000000E+01 0.  1.
        -11    1    1    2    0    0  0.46863427983E+02  0.87507520559E+01 -0.32200031055E+02  0.57529110403E+02  0.00000000000E+00 0. -1.
         11    1    1    2    0    0 -0.10441727931E+02 -0.50380536807E+02 -0.95191299460E+02  0.10820633837E+03  0.00000000000E+00 0.  1.
<mgrwt>
<rscale>  0 0.12828877E+03</rscale>
<asrwt>0</asrwt>
<pdfrwt beam="1">  1        2 0.10497185E-01 0.13670755E+03</pdfrwt>
<pdfrwt beam="2">  1       -2 0.37199888E-01 0.13670755E+03</pdfrwt>
<totfact> 0.39457019E+03</totfact>
</mgrwt>
</event>
<event>
 7    1  0.5206756E-006  0.1275212E+03  0.7546771E-02  0.1245302E+00
          1   -1    0    0  501    0  0.00000000000E+00  0.00000000000E+00  0.46565477726E+03  0.46565477726E+03  0.00000000000E+00 0. -1.
         -1   -1    0    0    0  501 -0.00000000000E+00 -0.00000000000E+00 -0.26918710642E+02  0.26918710642E+02  0.00000000000E+00 0.  1.
         23    2    1    2    0    0  0.25075258578E+02  0.28089939643E+01  0.27043895569E+03  0.29899645284E+03  0.12499996406E+03 0.  0.
          5    1    3    3  502    0 -0.11539428562E+02  0.55556252472E+02  0.81727664354E+02  0.99605003494E+02  0.47000000000E+01 0.  1.
         -5    1    3    3    0  502  0.36614687139E+02 -0.52747258508E+02  0.18871129134E+03  0.19939144935E+03  0.47000000000E+01 0.  1.
        -11    1    1    2    0    0 -0.11965291034E+02 -0.39523700057E+02  0.33256137203E+02  0.53021332663E+02  0.00000000000E+00 0. -1.
         11    1    1    2    0    0 -0.13109967543E+02  0.36714706092E+02  0.13504097372E+03  0.14055570239E+03  0.00000000000E+00 0.  1.
<mgrwt>
<rscale>  0 0.11867340E+03</rscale>
<asrwt>0</asrwt>
<pdfrwt beam="1">  1        1 0.71639190E-01 0.12752117E+03</pdfrwt>
<pdfrwt beam="2">  1       -1 0.41413405E-02 0.12752117E+03</pdfrwt>
<totfact> 0.10958902E+04</totfact>
</mgrwt>
</event>
<event>
 7    1  0.5206756E-006  0.1648988E+03  0.7546771E-02  0.1190367E+00
          1   -1    0    0  501    0  0.00000000000E+00  0.00000000000E+00  0.13884695306E+04  0.13884695306E+04  0.00000000000E+00 0. -1.
         -1   -1    0    0    0  501 -0.00000000000E+00 -0.00000000000E+00 -0.18456328657E+02  0.18456328657E+02  0.00000000000E+00 0.  1.
         23    2    1    2    0    0  0.19071227082E+02  0.10585005268E+03  0.94217339373E+03  0.95649480107E+03  0.12499462098E+03 0.  0.
          5    1    3    3  502    0  0.56098275901E+02  0.26672342625E+02  0.20818069806E+03  0.21730099739E+03  0.47000000000E+01 0.  1.
         -5    1    3    3    0  502 -0.37027048819E+02  0.79177710056E+02  0.73399269567E+03  0.73919380369E+03  0.47000000000E+01 0.  1.
        -11    1    1    2    0    0  0.16373847043E+02 -0.76687631480E+02  0.36053953031E+03  0.36896862821E+03  0.00000000000E+00 0. -1.
         11    1    1    2    0    0 -0.35445074125E+02 -0.29162421202E+02  0.67300277882E+02  0.81462429949E+02  0.00000000000E+00 0.  1.
<mgrwt>
<rscale>  0 0.15852915E+03</rscale>
<asrwt>0</asrwt>
<pdfrwt beam="1">  1        1 0.21361062E+00 0.16489876E+03</pdfrwt>
<pdfrwt beam="2">  1       -1 0.28394363E-02 0.16489876E+03</pdfrwt>
<totfact> 0.34505883E+03</totfact>
</mgrwt>
</event>
<event>
 7    1  0.5206756E-006  0.1370809E+03  0.7546771E-02  0.1228466E+00
          2   -1    0    0  501    0  0.00000000000E+00  0.00000000000E+00  0.66961005704E+03  0.66961005704E+03  0.00000000000E+00 0. -1.
         -2   -1    0    0    0  501 -0.00000000000E+00 -0.00000000000E+00 -0.23360323415E+02  0.23360323415E+02  0.00000000000E+00 0.  1.
         23    2    1    2    0    0  0.44105309729E+02 -0.34879720129E+02  0.42412044088E+03  0.44572336524E+03  0.12501718574E+03 0.  0.
          5    1    3    3  502    0  0.82994987566E+02  0.19492651030E+01  0.26808290025E+03  0.28068220286E+03  0.47000000000E+01 0. -1.
         -5    1    3    3    0  502 -0.38889677837E+02 -0.36828985233E+02  0.15603754063E+03  0.16504116239E+03  0.47000000000E+01 0. -1.
        -11    1    1    2    0    0 -0.73114710315E+02  0.23098933523E+02  0.14549105142E+03  0.16445962312E+03  0.00000000000E+00 0.  1.
         11    1    1    2    0    0  0.29009400585E+02  0.11780786607E+02  0.76638241333E+02  0.82787392095E+02  0.00000000000E+00 0. -1.
<mgrwt>
<rscale>  0 0.12932139E+03</rscale>
<asrwt>0</asrwt>
<pdfrwt beam="1">  1        2 0.10301692E+00 0.13708089E+03</pdfrwt>
<pdfrwt beam="2">  1       -2 0.35938964E-02 0.13708089E+03</pdfrwt>
<totfact> 0.13619708E+04</totfact>
</mgrwt>
</event>
<event>
 7    1  0.5206756E-006  0.1864690E+03  0.7546771E-02  0.1166780E+00
          2   -1    0    0  501    0  0.00000000000E+00  0.00000000000E+00  0.94864696745E+03  0.94864696745E+03  0.00000000000E+00 0. -1.
         -2   -1    0    0    0  501 -0.00000000000E+00 -0.00000000000E+00 -0.33753299833E+02  0.33753299833E+02  0.00000000000E+00 0.  1.
         23    2    1    2    0    0  0.30650519323E+02  0.13492856967E+03  0.57030795702E+03  0.60001821535E+03  0.12500207865E+03 0.  0.
          5    1    3    3  502    0  0.29155714125E+02  0.21429061511E+02  0.28147675285E+02  0.46082990000E+02  0.47000000000E+01 0.  1.
         -5    1    3    3    0  502  0.14948051980E+01  0.11349950816E+03  0.54216028173E+03  0.55393522535E+03  0.47000000000E+01 0.  1.
        -11    1    1    2    0    0 -0.34528744588E+02 -0.30750659148E+02  0.19264382040E+03  0.19811481212E+03  0.00000000000E+00 0.  1.
         11    1    1    2    0    0  0.38782252651E+01 -0.10417791052E+03  0.15194189020E+03  0.18426723982E+03  0.00000000000E+00 0. -1.
<mgrwt>
<rscale>  0 0.18106129E+03</rscale>
<asrwt>0</asrwt>
<pdfrwt beam="1">  1        2 0.14594567E+00 0.18646901E+03</pdfrwt>
<pdfrwt beam="2">  1       -2 0.51928161E-02 0.18646901E+03</pdfrwt>
<totfact> 0.51516730E+03</totfact>
</mgrwt>
</event>
<event>
 7    1  0.5206756E-006  0.1644854E+03  0.7546771E-02  0.1190558E+00
         -2   -1    0    0    0  501 -0.00000000000E+00  0.00000000000E+00  0.45012373104E+02  0.45012373104E+02  0.00000000000E+00 0.  1.
          2   -1    0    0  501    0  0.00000000000E+00 -0.00000000000E+00 -0.58883230581E+03  0.58883230581E+03  0.00000000000E+00 0. -1.
         23    2    1    2    0    0 -0.52082139505E+02  0.93222394557E+02 -0.39861205173E+03  0.43121575212E+03  0.12510992361E+03 0.  0.
          5    1    3    3  502    0  0.37626900993E+01  0.75698822186E+02 -0.93245484991E+02  0.12025506222E+03  0.47000000000E+01 0. -1.
         -5    1    3    3    0  502 -0.55844829605E+02  0.17523572372E+02 -0.30536656674E+03  0.31096068991E+03  0.47000000000E+01 0. -1.
        -11    1    1    2    0    0  0.76544656989E+02 -0.61884310154E+02 -0.82758374594E+02  0.12859899270E+03  0.00000000000E+00 0.  1.
         11    1    1    2    0    0 -0.24462517484E+02 -0.31338084403E+02 -0.62449506381E+02  0.74029934100E+02  0.00000000000E+00 0. -1.
<mgrwt>
<rscale>  0 0.15836216E+03</rscale>
<asrwt>0</asrwt>
<pdfrwt beam="2">  1        2 0.90589582E-01 0.16448543E+03</pdfrwt>
<pdfrwt beam="1">  1       -2 0.69249808E-02 0.16448543E+03</pdfrwt>
<totfact> 0.59490511E+03</totfact>
</mgrwt>
</event>
<event>
 7    1  0.5206756E-006  0.1298897E+03  0.7546771E-02  0.1240726E+00
          2   -1    0    0  501    0  0.00000000000E+00  0.00000000000E+00  0.22665337115E+03  0.22665337115E+03  0.00000000000E+00 0. -1.
         -2   -1    0    0    0  501 -0.00000000000E+00 -0.00000000000E+00 -0.60530850333E+02  0.60530850333E+02  0.00000000000E+00 0.  1.
         23    2    1    2    0    0 -0.27013354964E+02  0.22690564238E+02  0.12320422874E+03  0.17902682279E+03  0.12500695280E+03 0.  0.
          5    1    3    3  502    0 -0.10715674912E+02 -0.18743923612E+01 -0.25095333143E+02  0.27752563505E+02  0.47000000000E+01 0. -1.
         -5    1    3    3    0  502 -0.16297680052E+02  0.24564956599E+02  0.14829956189E+03  0.15127425929E+03  0.47000000000E+01 0. -1.
        -11    1    1    2    0    0  0.10376406864E+02  0.28085837252E+02 -0.11330072567E+02  0.32013350620E+02  0.00000000000E+00 0. -1.
         11    1    1    2    0    0  0.16636948100E+02 -0.50776401489E+02  0.54248364641E+02  0.76144048070E+02  0.00000000000E+00 0.  1.
<mgrwt>
<rscale>  0 0.12144894E+03</rscale>
<asrwt>0</asrwt>
<pdfrwt beam="1">  1        2 0.34869749E-01 0.12988965E+03</pdfrwt>
<pdfrwt beam="2">  1       -2 0.93124386E-02 0.12988965E+03</pdfrwt>
<totfact> 0.10379354E+04</totfact>
</mgrwt>
</event>
<event>
 7    1  0.5206756E-006  0.1453611E+03  0.7546771E-02  0.1216445E+00
         -2   -1    0    0    0  501 -0.00000000000E+00  0.00000000000E+00  0.10270879336E+03  0.10270879336E+03  0.00000000000E+00 0.  1.
          2   -1    0    0  501    0  0.00000000000E+00 -0.00000000000E+00 -0.31638682115E+03  0.31638682115E+03  0.00000000000E+00 0. -1.
         23    2    1    2    0    0 -0.73953112181E+02 -0.60571882920E+01 -0.25616841357E+03  0.29453711386E+03  0.12499641194E+03 0.  0.
          5    1    3    3  502    0  0.13382067924E+02  0.20148989607E+02 -0.22979311812E+01  0.24747363735E+02  0.47000000000E+01 0.  1.
         -5    1    3    3    0  502 -0.87335180106E+02 -0.26206177899E+02 -0.25387048239E+03  0.26978975012E+03  0.47000000000E+01 0.  1.
        -11    1    1    2    0    0  0.38268317373E+02  0.52393412199E+01 -0.26527089419E+02  0.46857243666E+02  0.00000000000E+00 0. -1.
         11    1    1    2    0    0  0.35684794809E+02  0.81784707209E+00  0.69017475203E+02  0.77701256989E+02  0.00000000000E+00 0.  1.
<mgrwt>
<rscale>  0 0.13770936E+03</rscale>
<asrwt>0</asrwt>
<pdfrwt beam="2">  1        2 0.48674895E-01 0.14536112E+03</pdfrwt>
<pdfrwt beam="1">  1       -2 0.15801353E-01 0.14536112E+03</pdfrwt>
<totfact> 0.31449155E+03</totfact>
</mgrwt>
</event>
<event>
 7    1  0.5206756E-006  0.3808138E+03  0.7546771E-02  0.1051556E+00
          2   -1    0    0  501    0  0.00000000000E+00  0.00000000000E+00  0.40472943690E+03  0.40472943690E+03  0.00000000000E+00 0. -1.
         -2   -1    0    0    0  501 -0.00000000000E+00 -0.00000000000E+00 -0.35463044584E+03  0.35463044584E+03  0.00000000000E+00 0.  1.
         23    2    1    2    0    0 -0.21286105628E+02  0.35908333689E+03 -0.22127845122E+02  0.38145611008E+03  0.12500072505E+03 0.  0.
          5    1    3    3  502    0  0.48622781326E+02  0.18066111489E+03 -0.30346062571E+02  0.18959321404E+03  0.47000000000E+01 0.  1.
         -5    1    3    3    0  502 -0.69908886954E+02  0.17842222200E+03  0.82182174493E+01  0.19186289604E+03  0.47000000000E+01 0.  1.
        -11    1    1    2    0    0  0.36039336038E+02 -0.58718766929E+02  0.12175755404E+01  0.68907255219E+02  0.00000000000E+00 0.  1.
         11    1    1    2    0    0 -0.14753230409E+02 -0.30036456996E+03  0.71009260638E+02  0.30899651744E+03  0.00000000000E+00 0. -1.
<mgrwt>
<rscale>  0 0.37832029E+03</rscale>
<asrwt>0</asrwt>
<pdfrwt beam="1">  1        2 0.62266067E-01 0.38081376E+03</pdfrwt>
<pdfrwt beam="2">  1       -2 0.54558530E-01 0.38081376E+03</pdfrwt>
<totfact> 0.25396190E+02</totfact>
</mgrwt>
</event>
<event>
 7    1  0.5206756E-006  0.1634512E+03  0.7546771E-02  0.1191505E+00
          1   -1    0    0  501    0  0.00000000000E+00  0.00000000000E+00  0.42582667782E+02  0.42582667782E+02  0.00000000000E+00 0. -1.
         -1   -1    0    0    0  501 -0.00000000000E+00 -0.00000000000E+00 -0.58268165692E+03  0.58268165692E+03  0.00000000000E+00 0.  1.
         23    2    1    2    0    0  0.42725934351E+02 -0.96262276866E+02 -0.20863644089E+03  0.26503861554E+03  0.12499748736E+03 0.  0.
          5    1    3    3  502    0  0.21351492789E+02  0.73937215288E+01 -0.13270358048E+03  0.13469552195E+03  0.47000000000E+01 0. -1.
         -5    1    3    3    0  502  0.21374441561E+02 -0.10365599839E+03 -0.75932860413E+02  0.13034309359E+03  0.47000000000E+01 0. -1.
        -11    1    1    2    0    0 -0.30610729585E+01 -0.12525966418E+02 -0.49901133069E+01  0.13826468572E+02  0.00000000000E+00 0.  1.
         11    1    1    2    0    0 -0.39664861392E+02  0.10878824328E+03 -0.32647243494E+03  0.34639924059E+03  0.00000000000E+00 0. -1.
<mgrwt>
<rscale>  0 0.15753770E+03</rscale>
<asrwt>0</asrwt>
<pdfrwt beam="1">  1        1 0.65511797E-02 0.16345123E+03</pdfrwt>
<pdfrwt beam="2">  1       -1 0.89643332E-01 0.16345123E+03</pdfrwt>
<totfact> 0.14428853E+03</totfact>
</mgrwt>
</event>
<event>
 7    1  0.5206756E-006  0.1262403E+03  0.7546771E-02  0.1249610E+00
          1   -1    0    0  501    0  0.00000000000E+00  0.00000000000E+00  0.29781896253E+03  0.29781896253E+03  0.00000000000E+00 0. -1.
         -1   -1    0    0    0  501 -0.00000000000E+00 -0.00000000000E+00 -0.41047711291E+02  0.41047711291E+02  0.00000000000E+00 0.  1.
         23    2    1    2    0    0  0.51004954903E+01  0.16903362360E+02  0.18219798119E+03  0.22165902795E+03  0.12499952643E+03 0.  0.
          5    1    3    3  502    0 -0.11406152140E+02  0.46749734779E+02  0.18085203214E+03  0.18720359381E+03  0.47000000000E+01 0.  1.
         -5    1    3    3    0  502  0.16506647631E+02 -0.29846372419E+02  0.13459490560E+01  0.34455434135E+02  0.47000000000E+01 0.  1.
        -11    1    1    2    0    0  0.34794997497E+02 -0.77367320086E+00  0.64068421223E+02  0.72911268121E+02  0.00000000000E+00 0. -1.
         11    1    1    2    0    0 -0.39895492987E+02 -0.16129689159E+02  0.10504848823E+02  0.44296377751E+02  0.00000000000E+00 0.  1.
<mgrwt>
<rscale>  0 0.11613664E+03</rscale>
<asrwt>0</asrwt>
<pdfrwt beam="1">  1        1 0.45818301E-01 0.12624033E+03</pdfrwt>
<pdfrwt beam="2">  1       -1 0.63150327E-02 0.12624033E+03</pdfrwt>
<totfact> 0.10275506E+04</totfact>
</mgrwt>
</event>
<event>
 7    1  0.5206756E-006  0.1522732E+03  0.7546771E-02  0.1206593E+00
          1   -1    0    0  501    0  0.00000000000E+00  0.00000000000E+00  0.12445209148E+04  0.12445209148E+04  0.00000000000E+00 0. -1.
         -1   -1    0    0    0  501 -0.00000000000E+00 -0.00000000000E+00 -0.20705839497E+02  0.20705839497E+02  0.00000000000E+00 0.  1.
         23    2    1    2    0    0  0.75965705593E+02 -0.42316352344E+02  0.97151809068E+03  0.98337913733E+03  0.12500266043E+03 0.  0.
          5    1    3    3  502    0 -0.24749421780E+02  0.15311302224E+02  0.10314778620E+03  0.10727779665E+03  0.47000000000E+01 0. -1.
         -5    1    3    3    0  502  0.10071512737E+03 -0.57627654568E+02  0.86837030448E+03  0.87610134068E+03  0.47000000000E+01 0. -1.
        -11    1    1    2    0    0 -0.47229376476E+02 -0.21827373662E+02  0.76460877920E+02  0.92484128885E+02  0.00000000000E+00 0.  1.
         11    1    1    2    0    0 -0.28736329117E+02  0.64143726007E+02  0.17583610666E+03  0.18936348804E+03  0.00000000000E+00 0. -1.
<mgrwt>
<rscale>  0 0.14512619E+03</rscale>
<asrwt>0</asrwt>
<pdfrwt beam="1">  1        1 0.19146470E+00 0.15227320E+03</pdfrwt>
<pdfrwt beam="2">  1       -1 0.31855147E-02 0.15227320E+03</pdfrwt>
<totfact> 0.36359754E+03</totfact>
</mgrwt>
</event>
<event>
 7    1  0.5206756E-006  0.2094464E+03  0.7546771E-02  0.1145766E+00
          1   -1    0    0  501    0  0.00000000000E+00  0.00000000000E+00  0.39492314451E+02  0.39492314451E+02  0.00000000000E+00 0. -1.
         -1   -1    0    0    0  501 -0.00000000000E+00 -0.00000000000E+00 -0.10186300366E+04  0.10186300366E+04  0.00000000000E+00 0.  1.
         23    2    1    2    0    0  0.16642055667E+03 -0.23215960966E+02 -0.49151852793E+03  0.53428292340E+03  0.12503198155E+03 0.  0.
          5    1    3    3  502    0  0.99816872650E+02 -0.60974443447E+02 -0.38907870337E+03  0.40630729533E+03  0.47000000000E+01 0. -1.
         -5    1    3    3    0  502  0.66603684023E+02  0.37758482482E+02 -0.10243982456E+03  0.12797562807E+03  0.47000000000E+01 0. -1.
        -11    1    1    2    0    0 -0.11286029172E+03  0.19854842291E+02 -0.43039055571E+03  0.44538487924E+03  0.00000000000E+00 0.  1.
         11    1    1    2    0    0 -0.53560264952E+02  0.33611186742E+01 -0.57228638487E+02  0.78454548393E+02  0.00000000000E+00 0. -1.
<mgrwt>
<rscale>  0 0.20478212E+03</rscale>
<asrwt>0</asrwt>
<pdfrwt beam="1">  1        1 0.60757409E-02 0.20944636E+03</pdfrwt>
<pdfrwt beam="2">  1       -1 0.15671231E+00 0.20944636E+03</pdfrwt>
<totfact> 0.42739477E+02</totfact>
</mgrwt>
</event>
<event>
 6    1  0.5206756E-006  0.3715920E+03  0.7546771E-02  0.1106366E+00
          2   -1    0    0  501    0  0.00000000000E+00  0.00000000000E+00  0.53245613748E+03  0.53245613748E+03  0.00000000000E+00 0. -1.
         -2   -1    0    0    0  501 -0.00000000000E+00 -0.00000000000E+00 -0.10188553140E+03  0.10188553140E+03  0.00000000000E+00 0.  1.
          5    1    1    2  502    0  0.13771652669E+03  0.12373416024E+03  0.19461893783E+03  0.26865331767E+03  0.47000000000E+01 0. -1.
         -5    1    1    2    0  502 -0.13717084211E+03 -0.12587060357E+03  0.17991935773E+03  0.25894461580E+03  0.47000000000E+01 0.  1.
        -11    1    1    2    0    0 -0.24964572989E+02 -0.21834676633E+01  0.72677921468E+02  0.76877029758E+02  0.00000000000E+00 0.  1.
         11    1    1    2    0    0  0.24418888411E+02  0.43199109946E+01 -0.16645610947E+02  0.29866705644E+02  0.00000000000E+00 0. -1.
<mgrwt>
<rscale>  0 0.26129845E+03</rscale>
<asrwt>0</asrwt>
<pdfrwt beam="1">  1        2 0.81916327E-01 0.37159204E+03</pdfrwt>
<pdfrwt beam="2">  1       -2 0.15674697E-01 0.37159204E+03</pdfrwt>
<totfact> 0.18489067E+03</totfact>
</mgrwt>
</event>
<event>
 7    1  0.5206756E-006  0.1794761E+03  0.7546771E-02  0.1171108E+00
          2   -1    0    0  501    0  0.00000000000E+00  0.00000000000E+00  0.12644503476E+03  0.12644503476E+03  0.00000000000E+00 0. -1.
         -2   -1    0    0    0  501 -0.00000000000E+00 -0.00000000000E+00 -0.25540933219E+03  0.25540933219E+03  0.00000000000E+00 0.  1.
         23    2    1    2    0    0 -0.11194507868E+03 -0.83452293116E+02 -0.18333069530E+02  0.18041005293E+03  0.11276391218E+03 0.  0.
          5    1    3    3  502    0 -0.66036550517E+02 -0.10780021200E+03 -0.20652822534E+02  0.12818089089E+03  0.47000000000E+01 0. -1.
         -5    1    3    3    0  502 -0.45908528167E+02  0.24347918887E+02  0.23197530041E+01  0.52229162032E+02  0.47000000000E+01 0.  1.
        -11    1    1    2    0    0  0.77974404273E+02  0.99981647538E+02 -0.10191168470E+03  0.16267245939E+03  0.00000000000E+00 0.  1.
         11    1    1    2    0    0  0.33970674411E+02 -0.16529354422E+02 -0.87195432045E+01  0.38771854627E+02  0.00000000000E+00 0. -1.
<mgrwt>
<rscale>  0 0.17662658E+03</rscale>
<asrwt>0</asrwt>
<pdfrwt beam="1">  1        2 0.19453082E-01 0.17947614E+03</pdfrwt>
<pdfrwt beam="2">  1       -2 0.39293743E-01 0.17947614E+03</pdfrwt>
<totfact> 0.17399931E+03</totfact>
</mgrwt>
</event>
<event>
 7    1  0.5206756E-006  0.1455956E+03  0.7546771E-02  0.1216060E+00
         -1   -1    0    0    0  501 -0.00000000000E+00  0.00000000000E+00  0.41789965600E+03  0.41789965600E+03  0.00000000000E+00 0.  1.
          1   -1    0    0  501    0  0.00000000000E+00 -0.00000000000E+00 -0.56504988812E+02  0.56504988812E+02  0.00000000000E+00 0. -1.
         23    2    1    2    0    0  0.24347953614E+02  0.70570073526E+02  0.72726179301E+02  0.16274877355E+03  0.12500043205E+03 0.  0.
          5    1    3    3  502    0 -0.30145991519E+02  0.65391660283E+02  0.79531479926E+02  0.10738806423E+03  0.47000000000E+01 0.  1.
         -5    1    3    3    0  502  0.54493945133E+02  0.51784132422E+01 -0.68053006249E+01  0.55360709321E+02  0.47000000000E+01 0.  1.
        -11    1    1    2    0    0  0.46771753811E+01 -0.66142939102E+02  0.26714438253E+03  0.27525058671E+03  0.00000000000E+00 0.  1.
         11    1    1    2    0    0 -0.29025128995E+02 -0.44271344235E+01  0.21524105351E+02  0.36405284555E+02  0.00000000000E+00 0. -1.
<mgrwt>
<rscale>  0 0.13798934E+03</rscale>
<asrwt>0</asrwt>
<pdfrwt beam="2">  1        1 0.86930755E-02 0.14559556E+03</pdfrwt>
<pdfrwt beam="1">  1       -1 0.64292253E-01 0.14559556E+03</pdfrwt>
<totfact> 0.19229514E+03</totfact>
</mgrwt>
</event>
<event>
 7    1  0.5206756E-006  0.1350809E+03  0.7546771E-02  0.1232422E+00
         -1   -1    0    0    0  501 -0.00000000000E+00  0.00000000000E+00  0.21747755073E+02  0.21747755073E+02  0.00000000000E+00 0.  1.
          1   -1    0    0  501    0  0.00000000000E+00 -0.00000000000E+00 -0.70265265673E+03  0.70265265673E+03  0.00000000000E+00 0. -1.
         23    2    1    2    0    0 -0.42233388143E+02 -0.29090729995E+02 -0.29288991955E+03  0.32253891313E+03  0.12496765928E+03 0.  0.
          5    1    3    3  502    0  0.44628999247E+01 -0.36310187594E+01 -0.25941181718E+03  0.25951817406E+03  0.47000000000E+01 0.  1.
         -5    1    3    3    0  502 -0.46696288068E+02 -0.25459711236E+02 -0.33478102365E+02  0.63020739075E+02  0.47000000000E+01 0.  1.
        -11    1    1    2    0    0  0.63359721503E+02 -0.49856274018E+01 -0.26321091778E+03  0.27077536451E+03  0.00000000000E+00 0.  1.
         11    1    1    2    0    0 -0.21126333360E+02  0.34076357397E+02 -0.12480406433E+03  0.13108613415E+03  0.00000000000E+00 0. -1.
<mgrwt>
<rscale>  0 0.12670912E+03</rscale>
<asrwt>0</asrwt>
<pdfrwt beam="2">  1        1 0.10810042E+00 0.13508089E+03</pdfrwt>
<pdfrwt beam="1">  1       -1 0.33458081E-02 0.13508089E+03</pdfrwt>
<totfact> 0.86360642E+03</totfact>
</mgrwt>
</event>
<event>
 7    1  0.5206756E-006  0.2077644E+03  0.7546771E-02  0.1146831E+00
         -2   -1    0    0    0  501 -0.00000000000E+00  0.00000000000E+00  0.36343346927E+02  0.36343346927E+02  0.00000000000E+00 0.  1.
          2   -1    0    0  501    0  0.00000000000E+00 -0.00000000000E+00 -0.15384254739E+04  0.15384254739E+04  0.00000000000E+00 0. -1.
         23    2    1    2    0    0  0.49518938124E+02 -0.15839944383E+03 -0.11958494407E+04  0.12137635364E+04  0.12499411304E+03 0.  0.
          5    1    3    3  502    0  0.72459617150E+02 -0.95247590395E+02 -0.98897310486E+03  0.99619897195E+03  0.47000000000E+01 0.  1.
         -5    1    3    3    0  502 -0.22940679026E+02 -0.63151853432E+02 -0.20687633589E+03  0.21756456443E+03  0.47000000000E+01 0.  1.
        -11    1    1    2    0    0 -0.45218387116E+02  0.48225588853E+02 -0.52729530084E+02  0.84562481612E+02  0.00000000000E+00 0.  1.
         11    1    1    2    0    0 -0.43005510080E+01  0.11017385497E+03 -0.25350315611E+03  0.27644280280E+03  0.00000000000E+00 0. -1.
<mgrwt>
<rscale>  0 0.20348567E+03</rscale>
<asrwt>0</asrwt>
<pdfrwt beam="2">  1        2 0.23668076E+00 0.20776438E+03</pdfrwt>
<pdfrwt beam="1">  1       -2 0.55912860E-02 0.20776438E+03</pdfrwt>
<totfact> 0.21497341E+03</totfact>
</mgrwt>
</event>
<event>
 7    1  0.5206756E-006  0.1288379E+03  0.7546771E-02  0.1244250E+00
         -2   -1    0    0    0  501 -0.00000000000E+00  0.00000000000E+00  0.15887587008E+03  0.15887587008E+03  0.00000000000E+00 0.  1.
          2   -1    0    0  501    0  0.00000000000E+00 -0.00000000000E+00 -0.92709090997E+02  0.92709090997E+02  0.00000000000E+00 0. -1.
         23    2    1    2    0    0 -0.29753668599E+01  0.31070026851E+02 -0.11134414527E+02  0.12931808386E+03  0.12499996900E+03 0.  0.
          5    1    3    3  502    0 -0.51050027028E+02  0.96643853947E+00  0.29711988913E+02  0.59261552023E+02  0.47000000000E+01 0. -1.
         -5    1    3    3    0  502  0.48074660168E+02  0.30103588311E+02 -0.40846403440E+02  0.70056531840E+02  0.47000000000E+01 0. -1.
        -11    1    1    2    0    0 -0.29520788958E+02 -0.33915299936E+02  0.79966783522E+01  0.45669151679E+02  0.00000000000E+00 0. -1.
         11    1    1    2    0    0  0.32496155818E+02  0.28452730854E+01  0.69304515261E+02  0.76597725537E+02  0.00000000000E+00 0.  1.
<mgrwt>
<rscale>  0 0.11930376E+03</rscale>
<asrwt>0</asrwt>
<pdfrwt beam="2">  1        2 0.14262937E-01 0.12883785E+03</pdfrwt>
<pdfrwt beam="1">  1       -2 0.24442442E-01 0.12883785E+03</pdfrwt>
<totfact> 0.57960464E+03</totfact>
</mgrwt>
</event>
<event>
 7    1  0.5206756E-006  0.1481982E+03  0.7546771E-02  0.1212185E+00
          2   -1    0    0  501    0  0.00000000000E+00  0.00000000000E+00  0.88227388883E+03  0.88227388883E+03  0.00000000000E+00 0.  1.
         -2   -1    0    0    0  501 -0.00000000000E+00 -0.00000000000E+00 -0.40212947447E+02  0.40212947447E+02  0.00000000000E+00 0. -1.
         23    2    1    2    0    0  0.34265830717E+02  0.71754442589E+02  0.76469589847E+03  0.77892395535E+03  0.12505944149E+03 0.  0.
          5    1    3    3  502    0  0.24805329198E+02  0.82359983825E+02  0.75737963793E+03  0.76226273504E+03  0.47000000000E+01 0. -1.
         -5    1    3    3    0  502  0.94605015189E+01 -0.10605541236E+02  0.73162605418E+01  0.16661220310E+02  0.47000000000E+01 0. -1.
        -11    1    1    2    0    0  0.23627836307E+02 -0.47888751486E+02  0.15659453876E+02  0.55649129941E+02  0.00000000000E+00 0. -1.
         11    1    1    2    0    0 -0.57893667024E+02 -0.23865691103E+02  0.61705589039E+02  0.87913750983E+02  0.00000000000E+00 0.  1.
<mgrwt>
<rscale>  0 0.14085395E+03</rscale>
<asrwt>0</asrwt>
<pdfrwt beam="1">  1        2 0.13573443E+00 0.14819822E+03</pdfrwt>
<pdfrwt beam="2">  1       -2 0.61866079E-02 0.14819822E+03</pdfrwt>
<totfact> 0.43135680E+03</totfact>
</mgrwt>
</event>
<event>
 7    1  0.5206756E-006  0.1618856E+03  0.7546771E-02  0.1193889E+00
          2   -1    0    0  501    0  0.00000000000E+00  0.00000000000E+00  0.36189255639E+03  0.36189255639E+03  0.00000000000E+00 0. -1.
         -2   -1    0    0    0  501 -0.00000000000E+00 -0.00000000000E+00 -0.67195585858E+02  0.67195585858E+02  0.00000000000E+00 0.  1.
         23    2    1    2    0    0 -0.35501486426E+02 -0.96507471255E+02  0.21760792881E+03  0.27121978933E+03  0.12503165957E+03 0.  0.
          5    1    3    3  502    0 -0.35345708088E+02 -0.12591221734E+03  0.18932585134E+03  0.23015119713E+03  0.47000000000E+01 0. -1.
         -5    1    3    3    0  502 -0.15577833767E+00  0.29404746083E+02  0.28282077473E+02  0.41068592200E+02  0.47000000000E+01 0. -1.
        -11    1    1    2    0    0  0.54798643496E+02  0.21860101293E+02  0.21402703558E+02  0.62760107371E+02  0.00000000000E+00 0.  1.
         11    1    1    2    0    0 -0.19297157071E+02  0.74647369962E+02  0.55686338163E+02  0.95108245548E+02  0.00000000000E+00 0. -1.
<mgrwt>
<rscale>  0 0.15548640E+03</rscale>
<asrwt>0</asrwt>
<pdfrwt beam="1">  1        2 0.55675777E-01 0.16188565E+03</pdfrwt>
<pdfrwt beam="2">  1       -2 0.10337783E-01 0.16188565E+03</pdfrwt>
<totfact> 0.54302156E+03</totfact>
</mgrwt>
</event>
<event>
 7    1  0.5206756E-006  0.1339893E+03  0.7546771E-02  0.1230609E+00
         -1   -1    0    0    0  501 -0.00000000000E+00  0.00000000000E+00  0.20422941401E+02  0.20422941401E+02  0.00000000000E+00 0. -1.
          1   -1    0    0  501    0  0.00000000000E+00 -0.00000000000E+00 -0.11820779342E+04  0.11820779342E+04  0.00000000000E+00 0.  1.
         23    2    1    2    0    0  0.48189434894E+02 -0.19423712106E+01 -0.98269828559E+03  0.99179083683E+03  0.12500859599E+03 0.  0.
          5    1    3    3  502    0  0.41485974430E+02  0.57931702166E+02 -0.61912218819E+03  0.62322671805E+03  0.47000000000E+01 0. -1.
         -5    1    3    3    0  502  0.67034604640E+01 -0.59874073377E+02 -0.36357609741E+03  0.36856411878E+03  0.47000000000E+01 0. -1.
        -11    1    1    2    0    0 -0.92658738224E+01  0.33934936091E+02 -0.14676027911E+03  0.15091724829E+03  0.00000000000E+00 0.  1.
         11    1    1    2    0    0 -0.38923561072E+02 -0.31992564880E+02 -0.32196428136E+02  0.59792790525E+02  0.00000000000E+00 0. -1.
<mgrwt>
<rscale>  0 0.12789778E+03</rscale>
<asrwt>0</asrwt>
<pdfrwt beam="2">  1        1 0.18185817E+00 0.13398934E+03</pdfrwt>
<pdfrwt beam="1">  1       -1 0.31419906E-02 0.13398934E+03</pdfrwt>
<totfact> 0.40782103E+03</totfact>
</mgrwt>
</event>
<event>
 7    1  0.5206756E-006  0.1774058E+03  0.7546771E-02  0.1175949E+00
         -2   -1    0    0    0  501 -0.00000000000E+00  0.00000000000E+00  0.30603108172E+02  0.30603108172E+02  0.00000000000E+00 0.  1.
          2   -1    0    0  501    0  0.00000000000E+00 -0.00000000000E+00 -0.91992595208E+03  0.91992595208E+03  0.00000000000E+00 0. -1.
         23    2    1    2    0    0 -0.25723041897E+02 -0.12322435795E+03 -0.42063741969E+03  0.45651797116E+03  0.12500760724E+03 0.  0.
          5    1    3    3  502    0  0.21277678062E+02 -0.12175277269E+03 -0.24254509007E+03  0.27226216769E+03  0.47000000000E+01 0. -1.
         -5    1    3    3    0  502 -0.47000719960E+02 -0.14715852664E+01 -0.17809232963E+03  0.18425580347E+03  0.47000000000E+01 0. -1.
        -11    1    1    2    0    0 -0.28857811919E+02  0.24123456267E+02 -0.68577933833E+02  0.78215391451E+02  0.00000000000E+00 0.  1.
         11    1    1    2    0    0  0.54580853817E+02  0.99100901685E+02 -0.40010749038E+03  0.41579569764E+03  0.00000000000E+00 0. -1.
<mgrwt>
<rscale>  0 0.17183323E+03</rscale>
<asrwt>0</asrwt>
<pdfrwt beam="2">  1        2 0.14152705E+00 0.17740580E+03</pdfrwt>
<pdfrwt beam="1">  1       -2 0.47081712E-02 0.17740580E+03</pdfrwt>
<totfact> 0.62150048E+03</totfact>
</mgrwt>
</event>
<event>
 6    1  0.5206756E-006  0.3231263E+03  0.7546771E-02  0.1074219E+00
          2   -1    0    0  501    0  0.00000000000E+00  0.00000000000E+00  0.43465834554E+03  0.43465834554E+03  0.00000000000E+00 0. -1.
         -2   -1    0    0    0  501 -0.00000000000E+00 -0.00000000000E+00 -0.60053265055E+02  0.60053265055E+02  0.00000000000E+00 0.  1.
          5    1    1    2  502    0  0.39336536641E+02  0.49917987345E+02  0.36695452462E+03  0.37244715292E+03  0.47000000000E+01 0. -1.
         -5    1    1    2    0  502 -0.26648545254E+01 -0.62747411764E+01 -0.92709571090E+01  0.12430385038E+02  0.47000000000E+01 0.  1.
        -11    1    1    2    0    0 -0.18048988978E+02 -0.53630959140E+02 -0.25785611849E+02  0.62184753436E+02  0.00000000000E+00 0.  1.
         11    1    1    2    0    0 -0.18622693137E+02  0.99877129714E+01  0.42707124822E+02  0.47649319204E+02  0.00000000000E+00 0. -1.
<mgrwt>
<rscale>  0 0.32312631E+03</rscale>
<asrwt>0</asrwt>
<pdfrwt beam="1">  1        2 0.66870513E-01 0.32312631E+03</pdfrwt>
<pdfrwt beam="2">  1       -2 0.92389641E-02 0.32312631E+03</pdfrwt>
<totfact> 0.54893846E+03</totfact>
</mgrwt>
</event>
<event>
 7    1  0.5206756E-006  0.1636934E+03  0.7546771E-02  0.1192123E+00
         -1   -1    0    0    0  501 -0.00000000000E+00  0.00000000000E+00  0.83299169973E+02  0.83299169973E+02  0.00000000000E+00 0.  1.
          1   -1    0    0  501    0  0.00000000000E+00 -0.00000000000E+00 -0.31143419587E+03  0.31143419587E+03  0.00000000000E+00 0. -1.
         23    2    1    2    0    0  0.10576759004E+03  0.15988974232E+01 -0.19053334287E+03  0.25119411634E+03  0.12492473638E+03 0.  0.
          5    1    3    3  502    0 -0.11551353686E+02  0.10754664985E+02 -0.10338031923E+03  0.10468369975E+03  0.47000000000E+01 0. -1.
         -5    1    3    3    0  502  0.11731894373E+03 -0.91557675621E+01 -0.87153023648E+02  0.14651041659E+03  0.47000000000E+01 0. -1.
        -11    1    1    2    0    0 -0.68775447718E+02 -0.42614725686E+02 -0.35257408540E+02  0.88256228739E+02  0.00000000000E+00 0. -1.
         11    1    1    2    0    0 -0.36992142325E+02  0.41015828263E+02 -0.23442744824E+01  0.55283020764E+02  0.00000000000E+00 0.  1.
<mgrwt>
<rscale>  0 0.15700255E+03</rscale>
<asrwt>0</asrwt>
<pdfrwt beam="2">  1        1 0.47912953E-01 0.16369340E+03</pdfrwt>
<pdfrwt beam="1">  1       -1 0.12815257E-01 0.16369340E+03</pdfrwt>
<totfact> 0.33658122E+03</totfact>
</mgrwt>
</event>
<event>
 7    1  0.5206756E-006  0.1284574E+03  0.7546771E-02  0.1241308E+00
          2   -1    0    0  501    0  0.00000000000E+00  0.00000000000E+00  0.33293055558E+03  0.33293055558E+03  0.00000000000E+00 0. -1.
         -2   -1    0    0    0  501 -0.00000000000E+00 -0.00000000000E+00 -0.42069508820E+02  0.42069508820E+02  0.00000000000E+00 0.  1.
         23    2    1    2    0    0  0.24495372050E+02 -0.16670328049E+02  0.20590924581E+03  0.24269303710E+03  0.12499347847E+03 0.  0.
          5    1    3    3  502    0  0.75050070160E+01  0.26096359193E+02 -0.39112550157E+01  0.27834026106E+02  0.47000000000E+01 0. -1.
         -5    1    3    3    0  502  0.16990365034E+02 -0.42766687242E+02  0.20982050082E+03  0.21485901100E+03  0.47000000000E+01 0. -1.
        -11    1    1    2    0    0  0.65873795407E+01 -0.27347387041E+02 -0.38932704854E+01  0.28397723540E+02  0.00000000000E+00 0.  1.
         11    1    1    2    0    0 -0.31082751591E+02  0.44017715090E+02  0.88845071440E+02  0.10390930376E+03  0.00000000000E+00 0. -1.
<mgrwt>
<rscale>  0 0.12109115E+03</rscale>
<asrwt>0</asrwt>
<pdfrwt beam="1">  1        2 0.51220084E-01 0.12845736E+03</pdfrwt>
<pdfrwt beam="2">  1       -2 0.64722323E-02 0.12845736E+03</pdfrwt>
<totfact> 0.12075260E+04</totfact>
</mgrwt>
</event>
<event>
 7    1  0.5206756E-006  0.1162711E+03  0.7546771E-02  0.1260067E+00
         -1   -1    0    0    0  501 -0.00000000000E+00  0.00000000000E+00  0.32047565461E+03  0.32047565461E+03  0.00000000000E+00 0.  1.
          1   -1    0    0  501    0  0.00000000000E+00 -0.00000000000E+00 -0.40120000327E+02  0.40120000327E+02  0.00000000000E+00 0. -1.
         23    2    1    2    0    0 -0.11067879008E+02 -0.30312347643E+02  0.85829573094E+02  0.14451880601E+03  0.11170332720E+03 0.  0.
          5    1    3    3  502    0 -0.35666635608E+01 -0.75223127140E+01 -0.27222957126E+02  0.28852827803E+02  0.47000000000E+01 0. -1.
         -5    1    3    3    0  502 -0.75012154468E+01 -0.22790034929E+02  0.11305253022E+03  0.11566597821E+03  0.47000000000E+01 0.  1.
        -11    1    1    2    0    0  0.39635940835E+02  0.26215170632E+02  0.51122363223E+02  0.69797843797E+02  0.00000000000E+00 0. -1.
         11    1    1    2    0    0 -0.28568061828E+02  0.40971770115E+01  0.14340371796E+03  0.14627900513E+03  0.00000000000E+00 0.  1.
<mgrwt>
<rscale>  0 0.11027180E+03</rscale>
<asrwt>0</asrwt>
<pdfrwt beam="2">  1        1 0.61723079E-02 0.11627110E+03</pdfrwt>
<pdfrwt beam="1">  1       -1 0.49303945E-01 0.11627110E+03</pdfrwt>
<totfact> 0.49448024E+03</totfact>
</mgrwt>
</event>
<event>
 7    1  0.5206756E-006  0.1621788E+03  0.7546771E-02  0.1193289E+00
          1   -1    0    0  501    0  0.00000000000E+00  0.00000000000E+00  0.40409667398E+03  0.40409667398E+03  0.00000000000E+00 0. -1.
         -1   -1    0    0    0  501 -0.00000000000E+00 -0.00000000000E+00 -0.57853245397E+02  0.57853245397E+02  0.00000000000E+00 0.  1.
         23    2    1    2    0    0  0.88210453323E+02 -0.53799802481E+02  0.14555754355E+03  0.21791960106E+03  0.12500580474E+03 0.  0.
          5    1    3    3  502    0  0.97094672563E+02  0.35515250208E+00  0.12671322020E+03  0.15970545309E+03  0.47000000000E+01 0. -1.
         -5    1    3    3    0  502 -0.88842192406E+01 -0.54154954983E+02  0.18844323346E+02  0.58214147963E+02  0.47000000000E+01 0. -1.
        -11    1    1    2    0    0 -0.15800064981E+02  0.51228374312E+02  0.13862108698E+03  0.14862635750E+03  0.00000000000E+00 0.  1.
         11    1    1    2    0    0 -0.72410388341E+02  0.25714281693E+01  0.62064798046E+02  0.95403960814E+02  0.00000000000E+00 0. -1.
<mgrwt>
<rscale>  0 0.15599926E+03</rscale>
<asrwt>0</asrwt>
<pdfrwt beam="1">  1        1 0.62168717E-01 0.16217877E+03</pdfrwt>
<pdfrwt beam="2">  1       -1 0.89004995E-02 0.16217877E+03</pdfrwt>
<totfact> 0.42508215E+03</totfact>
</mgrwt>
</event>
<event>
 7    1  0.5206756E-006  0.1718216E+03  0.7546771E-02  0.1182640E+00
         -2   -1    0    0    0  501 -0.00000000000E+00  0.00000000000E+00  0.15549114962E+03  0.15549114962E+03  0.00000000000E+00 0.  1.
          2   -1    0    0  501    0  0.00000000000E+00 -0.00000000000E+00 -0.17335504357E+03  0.17335504357E+03  0.00000000000E+00 0. -1.
         23    2    1    2    0    0  0.10435421410E+03  0.54844357399E+02 -0.47057509582E+02  0.17814902674E+03  0.12499984392E+03 0.  0.
          5    1    3    3  502    0  0.22287922631E+02 -0.31924977556E+02  0.16767173393E+02  0.42651890822E+02  0.47000000000E+01 0.  1.
         -5    1    3    3    0  502  0.82066291469E+02  0.86769334955E+02 -0.63824682975E+02  0.13549713591E+03  0.47000000000E+01 0.  1.
        -11    1    1    2    0    0 -0.90158222380E+02 -0.72079158476E+02  0.44409036674E+02  0.12367729253E+03  0.00000000000E+00 0.  1.
         11    1    1    2    0    0 -0.14195991720E+02  0.17234801076E+02 -0.15215421040E+02  0.27019873917E+02  0.00000000000E+00 0. -1.
<mgrwt>
<rscale>  0 0.16548479E+03</rscale>
<asrwt>0</asrwt>
<pdfrwt beam="2">  1        2 0.26670007E-01 0.17182161E+03</pdfrwt>
<pdfrwt beam="1">  1       -2 0.23921715E-01 0.17182161E+03</pdfrwt>
<totfact> 0.30016162E+03</totfact>
</mgrwt>
</event>
<event>
 7    1  0.5206756E-006  0.1342025E+03  0.7546771E-02  0.1238658E+00
         -2   -1    0    0    0  501 -0.00000000000E+00  0.00000000000E+00  0.39665139510E+02  0.39665139510E+02  0.00000000000E+00 0.  1.
          2   -1    0    0  501    0  0.00000000000E+00 -0.00000000000E+00 -0.33391167907E+03  0.33391167907E+03  0.00000000000E+00 0. -1.
         23    2    1    2    0    0  0.48229762588E+01 -0.48595406824E+02 -0.19742023416E+03  0.23871544823E+03  0.12500216680E+03 0.  0.
          5    1    3    3  502    0  0.52409775276E+00  0.42105081143E+02 -0.50311164599E+02  0.65775495588E+02  0.47000000000E+01 0. -1.
         -5    1    3    3    0  502  0.42988785061E+01 -0.90700487967E+02 -0.14710906956E+03  0.17293995265E+03  0.47000000000E+01 0. -1.
        -11    1    1    2    0    0 -0.19444155008E+02 -0.12742383570E+02 -0.55134856827E+01  0.23892300589E+02  0.00000000000E+00 0.  1.
         11    1    1    2    0    0  0.14621178750E+02  0.61337790394E+02 -0.91312819718E+02  0.11096906976E+03  0.00000000000E+00 0. -1.
<mgrwt>
<rscale>  0 0.12273160E+03</rscale>
<asrwt>0</asrwt>
<pdfrwt beam="2">  1        2 0.51371030E-01 0.13420252E+03</pdfrwt>
<pdfrwt beam="1">  1       -2 0.61023289E-02 0.13420252E+03</pdfrwt>
<totfact> 0.13210196E+04</totfact>
</mgrwt>
</event>
<event>
 6    1  0.5206756E-006  0.1404207E+03  0.7546771E-02  0.1224418E+00
         -1   -1    0    0    0  501 -0.00000000000E+00  0.00000000000E+00  0.43742656471E+02  0.43742656471E+02  0.00000000000E+00 0.  1.
          1   -1    0    0  501    0  0.00000000000E+00 -0.00000000000E+00 -0.36736532205E+03  0.36736532205E+03  0.00000000000E+00 0. -1.
          5    1    1    2  502    0 -0.70462883378E+02 -0.19374392500E+02 -0.21187602199E+03  0.22417386938E+03  0.47000000000E+01 0. -1.
         -5    1    1    2    0  502  0.27156076248E+02 -0.14962808803E+02 -0.16705125500E+01  0.31404119740E+02  0.47000000000E+01 0.  1.
        -11    1    1    2    0    0  0.20232207440E+01 -0.18168328162E+02  0.79349043646E+01  0.19928479060E+02  0.00000000000E+00 0.  1.
         11    1    1    2    0    0  0.41283586386E+02  0.52505529465E+02 -0.11801103540E+03  0.13560151033E+03  0.00000000000E+00 0. -1.
<mgrwt>
<rscale>  0 0.13206860E+03</rscale>
<asrwt>0</asrwt>
<pdfrwt beam="2">  1        1 0.56517743E-01 0.14042075E+03</pdfrwt>
<pdfrwt beam="1">  1       -1 0.67296394E-02 0.14042075E+03</pdfrwt>
<totfact> 0.72536385E+03</totfact>
</mgrwt>
</event>
<event>
 7    1  0.5206756E-006  0.1431495E+03  0.7546771E-02  0.1219526E+00
          1   -1    0    0  501    0  0.00000000000E+00  0.00000000000E+00  0.35101815188E+02  0.35101815188E+02  0.00000000000E+00 0. -1.
         -1   -1    0    0    0  501 -0.00000000000E+00 -0.00000000000E+00 -0.47639377174E+03  0.47639377174E+03  0.00000000000E+00 0.  1.
         23    2    1    2    0    0  0.58738018775E+02 -0.37628549701E+02 -0.26182161055E+03  0.29839962017E+03  0.12500285982E+03 0.  0.
          5    1    3    3  502    0  0.61260490305E+02  0.32539676619E+02 -0.16178349891E+03  0.17608994504E+03  0.47000000000E+01 0. -1.
         -5    1    3    3    0  502 -0.25224715299E+01 -0.70168226320E+02 -0.10003811165E+03  0.12230967513E+03  0.47000000000E+01 0. -1.
        -11    1    1    2    0    0 -0.72729189922E+02  0.55040209125E+02 -0.15591961962E+03  0.18063744759E+03  0.00000000000E+00 0.  1.
         11    1    1    2    0    0  0.13991171147E+02 -0.17411659425E+02 -0.23550726375E+02  0.32458519171E+02  0.00000000000E+00 0. -1.
<mgrwt>
<rscale>  0 0.13549251E+03</rscale>
<asrwt>0</asrwt>
<pdfrwt beam="1">  1        1 0.54002794E-02 0.14314949E+03</pdfrwt>
<pdfrwt beam="2">  1       -1 0.73291347E-01 0.14314949E+03</pdfrwt>
<totfact> 0.28273914E+03</totfact>
</mgrwt>
</event>
<event>
 7    1  0.5206756E-006  0.1282381E+03  0.7546771E-02  0.1244637E+00
         -1   -1    0    0    0  501 -0.00000000000E+00  0.00000000000E+00  0.27402533009E+02  0.27402533009E+02  0.00000000000E+00 0.  1.
          1   -1    0    0  501    0  0.00000000000E+00 -0.00000000000E+00 -0.53295617608E+03  0.53295617608E+03  0.00000000000E+00 0. -1.
         23    2    1    2    0    0  0.24969027430E+02  0.14029449941E+02 -0.39012531833E+03  0.41066137362E+03  0.12499888793E+03 0.  0.
          5    1    3    3  502    0  0.55307585453E+01 -0.14577562549E+02 -0.37002535332E+03  0.37038351302E+03  0.47000000000E+01 0. -1.
         -5    1    3    3    0  502  0.19438268885E+02  0.28607012491E+02 -0.20099965014E+02  0.40277860599E+02  0.47000000000E+01 0. -1.
        -11    1    1    2    0    0 -0.24194207847E+02  0.48790634543E+01 -0.12574445846E+03  0.12814380121E+03  0.00000000000E+00 0. -1.
         11    1    1    2    0    0 -0.77481958283E+00 -0.18908513396E+02  0.10316133723E+02  0.21553534262E+02  0.00000000000E+00 0.  1.
<mgrwt>
<rscale>  0 0.11907124E+03</rscale>
<asrwt>0</asrwt>
<pdfrwt beam="2">  1        1 0.81993256E-01 0.12823806E+03</pdfrwt>
<pdfrwt beam="1">  1       -1 0.42157744E-02 0.12823806E+03</pdfrwt>
<totfact> 0.89603915E+03</totfact>
</mgrwt>
</event>
<event>
 7    1  0.5206756E-006  0.1357237E+03  0.7546771E-02  0.1231122E+00
         -1   -1    0    0    0  501 -0.00000000000E+00  0.00000000000E+00  0.10609243912E+03  0.10609243912E+03  0.00000000000E+00 0.  1.
          1   -1    0    0  501    0  0.00000000000E+00 -0.00000000000E+00 -0.14379879464E+03  0.14379879464E+03  0.00000000000E+00 0. -1.
         23    2    1    2    0    0  0.22644663715E+02  0.47787637264E+02 -0.46890757618E+02  0.14359549248E+03  0.12499793294E+03 0.  0.
          5    1    3    3  502    0  0.60668478948E+02  0.50364028108E+02  0.48781145203E+01  0.79139659251E+02  0.47000000000E+01 0.  1.
         -5    1    3    3    0  502 -0.38023815233E+02 -0.25763908441E+01 -0.51768872138E+02  0.64455833228E+02  0.47000000000E+01 0.  1.
        -11    1    1    2    0    0  0.16925463530E+02 -0.53431513046E+02  0.27380087091E+02  0.62378418313E+02  0.00000000000E+00 0.  1.
         11    1    1    2    0    0 -0.39570127245E+02  0.56438757822E+01 -0.18195684993E+02  0.43917322965E+02  0.00000000000E+00 0. -1.
<mgrwt>
<rscale>  0 0.12755983E+03</rscale>
<asrwt>0</asrwt>
<pdfrwt beam="2">  1        1 0.22122891E-01 0.13572370E+03</pdfrwt>
<pdfrwt beam="1">  1       -1 0.16321914E-01 0.13572370E+03</pdfrwt>
<totfact> 0.59809123E+03</totfact>
</mgrwt>
</event>
<event>
 7    1  0.5206756E-006  0.1283481E+03  0.7546771E-02  0.1244087E+00
          1   -1    0    0  501    0  0.00000000000E+00  0.00000000000E+00  0.43194346236E+03  0.43194346236E+03  0.00000000000E+00 0. -1.
         -1   -1    0    0    0  501 -0.00000000000E+00 -0.00000000000E+00 -0.30819526983E+02  0.30819526983E+02  0.00000000000E+00 0.  1.
         23    2    1    2    0    0 -0.13552366891E+02 -0.25780786130E+02  0.28087048094E+03  0.30880650488E+03  0.12499965924E+03 0.  0.
          5    1    3    3  502    0 -0.48550381427E+02 -0.20527152070E+02  0.26412321970E+03  0.26937273190E+03  0.47000000000E+01 0.  1.
         -5    1    3    3    0  502  0.34998014536E+02 -0.52536340600E+01  0.16747261247E+02  0.39433772982E+02  0.47000000000E+01 0.  1.
        -11    1    1    2    0    0  0.13040105616E+02  0.58541533746E+02  0.57104441576E+02  0.82813481847E+02  0.00000000000E+00 0.  1.
         11    1    1    2    0    0  0.51226127532E+00 -0.32760747616E+02  0.63149012853E+02  0.71143002609E+02  0.00000000000E+00 0. -1.
<mgrwt>
<rscale>  0 0.11940185E+03</rscale>
<asrwt>0</asrwt>
<pdfrwt beam="1">  1        1 0.66452836E-01 0.12834808E+03</pdfrwt>
<pdfrwt beam="2">  1       -1 0.47414660E-02 0.12834808E+03</pdfrwt>
<totfact> 0.98903284E+03</totfact>
</mgrwt>
</event>
<event>
 7    1  0.5206756E-006  0.1229321E+03  0.7546771E-02  0.1251577E+00
         -2   -1    0    0    0  501 -0.00000000000E+00  0.00000000000E+00  0.26473157713E+02  0.26473157713E+02  0.00000000000E+00 0.  1.
          2   -1    0    0  501    0  0.00000000000E+00 -0.00000000000E+00 -0.15136552779E+04  0.15136552779E+04  0.00000000000E+00 0. -1.
         23    2    1    2    0    0 -0.17705634413E+02  0.36077500430E+01 -0.14179326367E+04  0.14232516492E+04  0.12159683177E+03 0.  0.
          5    1    3    3  502    0 -0.62365155710E+02  0.31489391569E+02 -0.82845122105E+03  0.83140514197E+03  0.47000000000E+01 0. -1.
         -5    1    3    3    0  502  0.44659521297E+02 -0.27881641526E+02 -0.58948141564E+03  0.59184650727E+03  0.47000000000E+01 0.  1.
        -11    1    1    2    0    0  0.35537542187E+02  0.10621579095E+02  0.65975533410E+01  0.37673101243E+02  0.00000000000E+00 0.  1.
         11    1    1    2    0    0 -0.17831907774E+02 -0.14229329138E+02 -0.75847036860E+02  0.79203685161E+02  0.00000000000E+00 0. -1.
<mgrwt>
<rscale>  0 0.11500239E+03</rscale>
<asrwt>0</asrwt>
<pdfrwt beam="2">  1        2 0.23287005E+00 0.12293207E+03</pdfrwt>
<pdfrwt beam="1">  1       -2 0.40727934E-02 0.12293207E+03</pdfrwt>
<totfact> 0.35544571E+03</totfact>
</mgrwt>
</event>
<event>
 7    1  0.5206756E-006  0.1371538E+03  0.7546771E-02  0.1229613E+00
         -1   -1    0    0    0  501 -0.00000000000E+00  0.00000000000E+00  0.59147543731E+02  0.59147543731E+02  0.00000000000E+00 0.  1.
          1   -1    0    0  501    0  0.00000000000E+00 -0.00000000000E+00 -0.47022014313E+03  0.47022014313E+03  0.00000000000E+00 0. -1.
         23    2    1    2    0    0  0.40700888915E+02 -0.39112659102E+02 -0.40007637339E+03  0.42293294818E+03  0.12499924661E+03 0.  0.
          5    1    3    3  502    0  0.56382139697E+02 -0.62024375969E+02 -0.37783507524E+03  0.38704961306E+03  0.47000000000E+01 0.  1.
         -5    1    3    3    0  502 -0.15681250782E+02  0.22911716867E+02 -0.22241298149E+02  0.35883335119E+02  0.47000000000E+01 0.  1.
        -11    1    1    2    0    0 -0.48623964250E+02  0.56579524659E+02 -0.29083951490E+02  0.80071272903E+02  0.00000000000E+00 0. -1.
         11    1    1    2    0    0  0.79230753356E+01 -0.17466865556E+02  0.18087725475E+02  0.26363465781E+02  0.00000000000E+00 0.  1.
<mgrwt>
<rscale>  0 0.12855656E+03</rscale>
<asrwt>0</asrwt>
<pdfrwt beam="2">  1        1 0.72341560E-01 0.13715383E+03</pdfrwt>
<pdfrwt beam="1">  1       -1 0.90996222E-02 0.13715383E+03</pdfrwt>
<totfact> 0.33606655E+03</totfact>
</mgrwt>
</event>
<event>
 7    1  0.5206756E-006  0.1347421E+03  0.7546771E-02  0.1233042E+00
          1   -1    0    0  501    0  0.00000000000E+00  0.00000000000E+00  0.31974074878E+03  0.31974074878E+03  0.00000000000E+00 0. -1.
         -1   -1    0    0    0  501 -0.00000000000E+00 -0.00000000000E+00 -0.45122616739E+02  0.45122616739E+02  0.00000000000E+00 0.  1.
         23    2    1    2    0    0  0.35590004081E+01 -0.50145333122E+02  0.13490314579E+03  0.19066803542E+03  0.12501287962E+03 0.  0.
          5    1    3    3  502    0 -0.18397098414E+02 -0.43472038356E+02 -0.60136596348E+01  0.47817626992E+02  0.47000000000E+01 0. -1.
         -5    1    3    3    0  502  0.21956098822E+02 -0.66732947653E+01  0.14091680542E+03  0.14285040843E+03  0.47000000000E+01 0. -1.
        -11    1    1    2    0    0  0.24898493749E+02 -0.15848046365E+02  0.24286048782E+02  0.38221822694E+02  0.00000000000E+00 0.  1.
         11    1    1    2    0    0 -0.28457494157E+02  0.65993379487E+02  0.11542893747E+03  0.13597350740E+03  0.00000000000E+00 0. -1.
<mgrwt>
<rscale>  0 0.12630621E+03</rscale>
<asrwt>0</asrwt>
<pdfrwt beam="1">  1        1 0.49190883E-01 0.13474213E+03</pdfrwt>
<pdfrwt beam="2">  1       -1 0.69419413E-02 0.13474213E+03</pdfrwt>
<totfact> 0.82096224E+03</totfact>
</mgrwt>
</event>
<event>
 7    1  0.5206756E-006  0.1677063E+03  0.7546771E-02  0.1187107E+00
         -2   -1    0    0    0  501 -0.00000000000E+00  0.00000000000E+00  0.31631552104E+03  0.31631552104E+03  0.00000000000E+00 0.  1.
          2   -1    0    0  501    0  0.00000000000E+00 -0.00000000000E+00 -0.16496552247E+03  0.16496552247E+03  0.00000000000E+00 0. -1.
         23    2    1    2    0    0 -0.54740280810E+02  0.97507869013E+02 -0.97367789417E+02  0.19392233803E+03  0.12498441466E+03 0.  0.
          5    1    3    3  502    0  0.45034407898E+01 -0.28003182290E+02 -0.19078707105E+02  0.34504293387E+02  0.47000000000E+01 0. -1.
         -5    1    3    3    0  502 -0.59243721600E+02  0.12551105130E+03 -0.78289082311E+02  0.15941804464E+03  0.47000000000E+01 0. -1.
        -11    1    1    2    0    0  0.22437215654E+02  0.47683942748E+01  0.10808880071E+03  0.11049595046E+03  0.00000000000E+00 0.  1.
         11    1    1    2    0    0  0.32303065156E+02 -0.10227626329E+03  0.14062898728E+03  0.17686275502E+03  0.00000000000E+00 0. -1.
<mgrwt>
<rscale>  0 0.16141586E+03</rscale>
<asrwt>0</asrwt>
<pdfrwt beam="2">  1        2 0.25379311E-01 0.16770625E+03</pdfrwt>
<pdfrwt beam="1">  1       -2 0.48663926E-01 0.16770625E+03</pdfrwt>
<totfact> 0.85120340E+02</totfact>
</mgrwt>
</event>
<event>
 7    1  0.5206756E-006  0.1673153E+03  0.7546771E-02  0.1187602E+00
         -1   -1    0    0    0  501 -0.00000000000E+00  0.00000000000E+00  0.80686734490E+02  0.80686734490E+02  0.00000000000E+00 0.  1.
          1   -1    0    0  501    0  0.00000000000E+00 -0.00000000000E+00 -0.29920343444E+03  0.29920343444E+03  0.00000000000E+00 0. -1.
         23    2    1    2    0    0  0.75858242865E+02 -0.81344441116E+02 -0.12204575850E+03  0.20709798194E+03  0.12499206312E+03 0.  0.
          5    1    3    3  502    0 -0.25457918405E+02 -0.40303593575E+02 -0.71372972305E+01  0.48430530415E+02  0.47000000000E+01 0.  1.
         -5    1    3    3    0  502  0.10131616127E+03 -0.41040847541E+02 -0.11490846127E+03  0.15866745152E+03  0.47000000000E+01 0.  1.
        -11    1    1    2    0    0 -0.35446017552E+02  0.89039800033E+02 -0.89380487717E+02  0.13104723475E+03  0.00000000000E+00 0. -1.
         11    1    1    2    0    0 -0.40412225314E+02 -0.76953589167E+01 -0.70904537291E+01  0.41744952243E+02  0.00000000000E+00 0.  1.
<mgrwt>
<rscale>  0 0.16097355E+03</rscale>
<asrwt>0</asrwt>
<pdfrwt beam="2">  1        1 0.46031297E-01 0.16731529E+03</pdfrwt>
<pdfrwt beam="1">  1       -1 0.12413344E-01 0.16731529E+03</pdfrwt>
<totfact> 0.37214786E+03</totfact>
</mgrwt>
</event>
<event>
 7    1  0.5206756E-006  0.1590244E+03  0.7546771E-02  0.1197423E+00
          3   -1    0    0  501    0  0.00000000000E+00  0.00000000000E+00  0.73164472263E+02  0.73164472263E+02  0.00000000000E+00 0. -1.
         -3   -1    0    0    0  501 -0.00000000000E+00 -0.00000000000E+00 -0.29933671869E+03  0.29933671869E+03  0.00000000000E+00 0.  1.
         23    2    1    2    0    0 -0.38520609332E+02 -0.90390158626E+02 -0.98633827483E+02  0.18712932000E+03  0.12503812363E+03 0.  0.
          5    1    3    3  502    0 -0.61933716814E+02 -0.69035055142E+02 -0.11764263459E+03  0.14987829593E+03  0.47000000000E+01 0. -1.
         -5    1    3    3    0  502  0.23413107482E+02 -0.21355103484E+02  0.19008807110E+02  0.37251024073E+02  0.47000000000E+01 0. -1.
        -11    1    1    2    0    0  0.33585545649E+01 -0.19152009673E+02 -0.19893097557E+02  0.27817524938E+02  0.00000000000E+00 0. -1.
         11    1    1    2    0    0  0.35162054767E+02  0.10954216830E+03 -0.10764532139E+03  0.15755434601E+03  0.00000000000E+00 0.  1.
<mgrwt>
<rscale>  0 0.15250976E+03</rscale>
<asrwt>0</asrwt>
<pdfrwt beam="1">  1        3 0.11256073E-01 0.15902437E+03</pdfrwt>
<pdfrwt beam="2">  1       -3 0.46051803E-01 0.15902437E+03</pdfrwt>
<totfact> 0.67486305E+02</totfact>
</mgrwt>
</event>
<event>
 7    1  0.5206756E-006  0.1327108E+03  0.7546771E-02  0.1234794E+00
         -1   -1    0    0    0  501 -0.00000000000E+00  0.00000000000E+00  0.73101957962E+02  0.73101957962E+02  0.00000000000E+00 0.  1.
          1   -1    0    0  501    0  0.00000000000E+00 -0.00000000000E+00 -0.20246202801E+03  0.20246202801E+03  0.00000000000E+00 0. -1.
         23    2    1    2    0    0 -0.46700660286E+02  0.19166976859E+02 -0.10096335178E+03  0.16675060960E+03  0.12273484724E+03 0.  0.
          5    1    3    3  502    0 -0.48305303788E+02  0.73909786088E+01  0.14022771938E+02  0.51056410681E+02  0.47000000000E+01 0. -1.
         -5    1    3    3    0  502  0.16046435015E+01  0.11775998251E+02 -0.11498612372E+03  0.11569419892E+03  0.47000000000E+01 0. -1.
        -11    1    1    2    0    0  0.33532768627E+02 -0.51895380286E+02 -0.37634442236E+02  0.72345893520E+02  0.00000000000E+00 0.  1.
         11    1    1    2    0    0  0.13167891659E+02  0.32728403427E+02  0.92377239669E+01  0.36467482854E+02  0.00000000000E+00 0. -1.
<mgrwt>
<rscale>  0 0.12517607E+03</rscale>
<asrwt>0</asrwt>
<pdfrwt beam="2">  1        1 0.31148003E-01 0.13271084E+03</pdfrwt>
<pdfrwt beam="1">  1       -1 0.11246455E-01 0.13271084E+03</pdfrwt>
<totfact> 0.69463385E+03</totfact>
</mgrwt>
</event>
<event>
 7    1  0.5206756E-006  0.1417351E+03  0.7546771E-02  0.1221614E+00
         -1   -1    0    0    0  501 -0.00000000000E+00  0.00000000000E+00  0.46678659415E+02  0.46678659415E+02  0.00000000000E+00 0.  1.
          1   -1    0    0  501    0  0.00000000000E+00 -0.00000000000E+00 -0.34836343067E+03  0.34836343067E+03  0.00000000000E+00 0. -1.
         23    2    1    2    0    0  0.36854370094E+01 -0.66706610047E+02 -0.16604860049E+03  0.21831397076E+03  0.12500199132E+03 0.  0.
          5    1    3    3  502    0  0.50663210644E+02 -0.55943942097E+02 -0.45140389063E+02  0.88069462896E+02  0.47000000000E+01 0.  1.
         -5    1    3    3    0  502 -0.46977773634E+02 -0.10762667949E+02 -0.12090821143E+03  0.13024450786E+03  0.47000000000E+01 0.  1.
        -11    1    1    2    0    0 -0.17242822271E+02  0.33388189717E+02 -0.13564826794E+03  0.14075702017E+03  0.00000000000E+00 0. -1.
         11    1    1    2    0    0  0.13557385262E+02  0.33318420330E+02  0.12097172536E-01  0.35971099160E+02  0.00000000000E+00 0.  1.
<mgrwt>
<rscale>  0 0.13401717E+03</rscale>
<asrwt>0</asrwt>
<pdfrwt beam="2">  1        1 0.53594374E-01 0.14173515E+03</pdfrwt>
<pdfrwt beam="1">  1       -1 0.71813322E-02 0.14173515E+03</pdfrwt>
<totfact> 0.70362086E+03</totfact>
</mgrwt>
</event>
<event>
 7    1  0.5206756E-006  0.2045328E+03  0.7546771E-02  0.1150376E+00
         -4   -1    0    0    0  501 -0.00000000000E+00  0.00000000000E+00  0.12418578473E+03  0.12418578473E+03  0.00000000000E+00 0.  1.
          4   -1    0    0  501    0  0.00000000000E+00 -0.00000000000E+00 -0.38582178747E+03  0.38582178747E+03  0.00000000000E+00 0. -1.
         23    2    1    2    0    0  0.84310310607E+02  0.13820174216E+03 -0.25337738376E+03  0.32562827398E+03  0.12500289678E+03 0.  0.
          5    1    3    3  502    0  0.45128299698E+02 -0.33667343636E+01 -0.19703539362E+02  0.49580417478E+02  0.47000000000E+01 0. -1.
         -5    1    3    3    0  502  0.39182010908E+02  0.14156847653E+03 -0.23367384440E+03  0.27604785651E+03  0.47000000000E+01 0. -1.
        -11    1    1    2    0    0 -0.95555658306E+01 -0.99259809087E+02 -0.86010915510E+01  0.10008894701E+03  0.00000000000E+00 0.  1.
         11    1    1    2    0    0 -0.74754744776E+02 -0.38941933075E+02  0.34247257453E+00  0.84290351201E+02  0.00000000000E+00 0. -1.
<mgrwt>
<rscale>  0 0.19924676E+03</rscale>
<asrwt>0</asrwt>
<pdfrwt beam="2">  1        4 0.59357198E-01 0.20453282E+03</pdfrwt>
<pdfrwt beam="1">  1       -4 0.19105505E-01 0.20453282E+03</pdfrwt>
<totfact> 0.11857690E+02</totfact>
</mgrwt>
</event>
<event>
 7    1  0.5206756E-006  0.1376216E+03  0.7546771E-02  0.1230075E+00
         -1   -1    0    0    0  501 -0.00000000000E+00  0.00000000000E+00  0.14902367327E+03  0.14902367327E+03  0.00000000000E+00 0.  1.
          1   -1    0    0  501    0  0.00000000000E+00 -0.00000000000E+00 -0.10722565388E+03  0.10722565388E+03  0.00000000000E+00 0. -1.
         23    2    1    2    0    0 -0.32987090995E+02  0.47208678217E+02 -0.14131813910E+02  0.13834526302E+03  0.12499158438E+03 0.  0.
          5    1    3    3  502    0  0.19190298502E+02  0.67067303978E+02 -0.35462012382E+02  0.78396014832E+02  0.47000000000E+01 0. -1.
         -5    1    3    3    0  502 -0.52177389497E+02 -0.19858625761E+02  0.21330198472E+02  0.59949248191E+02  0.47000000000E+01 0. -1.
        -11    1    1    2    0    0  0.39052111046E+02 -0.25490614536E+02  0.75037127801E+02  0.88348227799E+02  0.00000000000E+00 0.  1.
         11    1    1    2    0    0 -0.60650200509E+01 -0.21718063680E+02 -0.19107294497E+02  0.29555836331E+02  0.00000000000E+00 0. -1.
<mgrwt>
<rscale>  0 0.12825023E+03</rscale>
<asrwt>0</asrwt>
<pdfrwt beam="2">  1        1 0.16496255E-01 0.13762160E+03</pdfrwt>
<pdfrwt beam="1">  1       -1 0.22926719E-01 0.13762160E+03</pdfrwt>
<totfact> 0.50507103E+03</totfact>
</mgrwt>
</event>
<event>
 7    1  0.5206756E-006  0.1725444E+03  0.7546771E-02  0.1182186E+00
         -1   -1    0    0    0  501 -0.00000000000E+00  0.00000000000E+00  0.17672820906E+03  0.17672820906E+03  0.00000000000E+00 0.  1.
          1   -1    0    0  501    0  0.00000000000E+00 -0.00000000000E+00 -0.17013556819E+03  0.17013556819E+03  0.00000000000E+00 0. -1.
         23    2    1    2    0    0 -0.23985024070E+02  0.11649359907E+03 -0.63129259134E+02  0.18373046484E+03  0.12500216138E+03 0.  0.
          5    1    3    3  502    0 -0.48773915885E+02  0.64518800921E+02  0.19096387142E+02  0.83236605798E+02  0.47000000000E+01 0.  1.
         -5    1    3    3    0  502  0.24788891815E+02  0.51974798151E+02 -0.82225646276E+02  0.10049385905E+03  0.47000000000E+01 0.  1.
        -11    1    1    2    0    0 -0.12129842636E+02 -0.82262078911E+02  0.75404120184E+01  0.83492757306E+02  0.00000000000E+00 0. -1.
         11    1    1    2    0    0  0.36114866706E+02 -0.34231520160E+02  0.62181487978E+02  0.79640555101E+02  0.00000000000E+00 0.  1.
<mgrwt>
<rscale>  0 0.16590575E+03</rscale>
<asrwt>0</asrwt>
<pdfrwt beam="2">  1        1 0.26174703E-01 0.17254443E+03</pdfrwt>
<pdfrwt beam="1">  1       -1 0.27188955E-01 0.17254443E+03</pdfrwt>
<totfact> 0.21420754E+03</totfact>
</mgrwt>
</event>
<event>
 7    1  0.5206756E-006  0.1500305E+03  0.7546771E-02  0.1209334E+00
          1   -1    0    0  501    0  0.00000000000E+00  0.00000000000E+00  0.58850877749E+03  0.58850877749E+03  0.00000000000E+00 0. -1.
         -1   -1    0    0    0  501 -0.00000000000E+00 -0.00000000000E+00 -0.44611082214E+02  0.44611082214E+02  0.00000000000E+00 0.  1.
         23    2    1    2    0    0 -0.82352187184E+02 -0.10052510675E+02  0.45915131343E+03  0.48304147383E+03  0.12500480435E+03 0.  0.
          5    1    3    3  502    0 -0.14121610157E+02  0.24784071256E+02  0.34052500773E+03  0.34174996848E+03  0.47000000000E+01 0.  1.
         -5    1    3    3    0  502 -0.68230577027E+02 -0.34836581931E+02  0.11862630570E+03  0.14129150536E+03  0.47000000000E+01 0.  1.
        -11    1    1    2    0    0  0.32931833357E+02  0.46140435967E+02  0.63924801491E+02  0.85439017580E+02  0.00000000000E+00 0.  1.
         11    1    1    2    0    0  0.49420353827E+02 -0.36087925292E+02  0.20821580346E+02  0.64639368286E+02  0.00000000000E+00 0. -1.
<mgrwt>
<rscale>  0 0.14301062E+03</rscale>
<asrwt>0</asrwt>
<pdfrwt beam="1">  1        1 0.90539806E-01 0.15003045E+03</pdfrwt>
<pdfrwt beam="2">  1       -1 0.68632438E-02 0.15003045E+03</pdfrwt>
<totfact> 0.38387297E+03</totfact>
</mgrwt>
</event>
<event>
 7    1  0.5206756E-006  0.1271900E+03  0.7546771E-02  0.1246025E+00
         -1   -1    0    0    0  501 -0.00000000000E+00  0.00000000000E+00  0.17489097015E+02  0.17489097015E+02  0.00000000000E+00 0.  1.
          1   -1    0    0  501    0  0.00000000000E+00 -0.00000000000E+00 -0.15022758596E+04  0.15022758596E+04  0.00000000000E+00 0. -1.
         23    2    1    2    0    0  0.23355153058E+02  0.33268430180E+01 -0.13435044742E+04  0.13495116034E+04  0.12498305623E+03 0.  0.
          5    1    3    3  502    0  0.32219246146E+02 -0.44123543005E+02 -0.10918549739E+04  0.10932311471E+04  0.47000000000E+01 0. -1.
         -5    1    3    3    0  502 -0.88640930877E+01  0.47450386023E+02 -0.25164950030E+03  0.25628045630E+03  0.47000000000E+01 0. -1.
        -11    1    1    2    0    0 -0.94329851751E+01  0.24854391994E+02 -0.13576121860E+03  0.13833954780E+03  0.00000000000E+00 0. -1.
         11    1    1    2    0    0 -0.13922167883E+02 -0.28181235012E+02 -0.55210697543E+01  0.31913805423E+02  0.00000000000E+00 0.  1.
<mgrwt>
<rscale>  0 0.11824254E+03</rscale>
<asrwt>0</asrwt>
<pdfrwt beam="2">  1        1 0.23111942E+00 0.12719000E+03</pdfrwt>
<pdfrwt beam="1">  1       -1 0.26906297E-02 0.12719000E+03</pdfrwt>
<totfact> 0.31284699E+03</totfact>
</mgrwt>
</event>
<event>
 7    1  0.5206756E-006  0.1134691E+03  0.7546771E-02  0.1262191E+00
         -1   -1    0    0    0  501 -0.00000000000E+00  0.00000000000E+00  0.28570855445E+02  0.28570855445E+02  0.00000000000E+00 0.  1.
          1   -1    0    0  501    0  0.00000000000E+00 -0.00000000000E+00 -0.89287826624E+03  0.89287826624E+03  0.00000000000E+00 0. -1.
         23    2    1    2    0    0  0.17444255237E+02 -0.15526902172E+02 -0.79279144742E+03  0.80087046734E+03  0.11103981096E+03 0.  0.
          5    1    3    3  502    0  0.21888797249E+02  0.41423148698E+02 -0.51972340710E+03  0.52185199682E+03  0.47000000000E+01 0. -1.
         -5    1    3    3    0  502 -0.44445420128E+01 -0.56950050869E+02 -0.27306804032E+03  0.27901847052E+03  0.47000000000E+01 0.  1.
        -11    1    1    2    0    0 -0.15571182830E+02 -0.23660217194E+02  0.10061112560E+02  0.30058170242E+02  0.00000000000E+00 0.  1.
         11    1    1    2    0    0 -0.18730724070E+01  0.39187119366E+02 -0.81577075929E+02  0.90520484099E+02  0.00000000000E+00 0. -1.
<mgrwt>
<rscale>  0 0.10912931E+03</rscale>
<asrwt>0</asrwt>
<pdfrwt beam="2">  1        1 0.13736590E+00 0.11346905E+03</pdfrwt>
<pdfrwt beam="1">  1       -1 0.43955159E-02 0.11346905E+03</pdfrwt>
<totfact> 0.40115024E+03</totfact>
</mgrwt>
</event>
<event>
 7    1  0.5206756E-006  0.1280757E+03  0.7546771E-02  0.1245048E+00
         -1   -1    0    0    0  501 -0.00000000000E+00  0.00000000000E+00  0.19037290539E+03  0.19037290539E+03  0.00000000000E+00 0.  1.
          1   -1    0    0  501    0  0.00000000000E+00 -0.00000000000E+00 -0.87362345133E+02  0.87362345133E+02  0.00000000000E+00 0. -1.
         23    2    1    2    0    0  0.27616497877E+00 -0.27904087143E+02 -0.11993262970E+02  0.12863597360E+03  0.12499864399E+03 0.  0.
          5    1    3    3  502    0  0.48120215774E+02 -0.54533705848E+02 -0.29530325208E+01  0.72940322461E+02  0.47000000000E+01 0. -1.
         -5    1    3    3    0  502 -0.47844050795E+02  0.26629618705E+02 -0.90402304489E+01  0.55695651136E+02  0.47000000000E+01 0. -1.
        -11    1    1    2    0    0  0.42340422026E+02  0.10476659557E+02  0.80521361490E+02  0.91575986967E+02  0.00000000000E+00 0.  1.
         11    1    1    2    0    0 -0.42616587005E+02  0.17427427586E+02  0.34482461732E+02  0.57523289956E+02  0.00000000000E+00 0. -1.
<mgrwt>
<rscale>  0 0.11882524E+03</rscale>
<asrwt>0</asrwt>
<pdfrwt beam="2">  1        1 0.13440361E-01 0.12807566E+03</pdfrwt>
<pdfrwt beam="1">  1       -1 0.29288139E-01 0.12807566E+03</pdfrwt>
<totfact> 0.43767642E+03</totfact>
</mgrwt>
</event>
<event>
 7    1  0.5206756E-006  0.2311299E+03  0.7546771E-02  0.1128982E+00
         -1   -1    0    0    0  501 -0.00000000000E+00  0.00000000000E+00  0.11580032217E+03  0.11580032217E+03  0.00000000000E+00 0.  1.
          1   -1    0    0  501    0  0.00000000000E+00 -0.00000000000E+00 -0.11034327290E+04  0.11034327290E+04  0.00000000000E+00 0. -1.
         23    2    1    2    0    0 -0.14099156561E+03 -0.13385730651E+03 -0.97816128935E+03  0.10050972757E+04  0.12499850193E+03 0.  0.
          5    1    3    3  502    0 -0.10390247667E+03 -0.93773426161E+02 -0.89236553357E+03  0.90328706158E+03  0.47000000000E+01 0.  1.
         -5    1    3    3    0  502 -0.37089088935E+02 -0.40083880352E+02 -0.85795755782E+02  0.10181021409E+03  0.47000000000E+01 0.  1.
        -11    1    1    2    0    0  0.44097604755E+02  0.44917050099E+02  0.38902836786E+02  0.73997100245E+02  0.00000000000E+00 0.  1.
         11    1    1    2    0    0  0.96893960854E+02  0.88940256414E+02 -0.48373954314E+02  0.14013867531E+03  0.00000000000E+00 0. -1.
<mgrwt>
<rscale>  0 0.22670343E+03</rscale>
<asrwt>0</asrwt>
<pdfrwt beam="2">  1        1 0.16975888E+00 0.23112989E+03</pdfrwt>
<pdfrwt beam="1">  1       -1 0.17815434E-01 0.23112989E+03</pdfrwt>
<totfact> 0.33071983E+02</totfact>
</mgrwt>
</event>
<event>
 7    1  0.5206756E-006  0.2173039E+03  0.7546771E-02  0.1139011E+00
         -2   -1    0    0    0  501 -0.00000000000E+00  0.00000000000E+00  0.20012919248E+03  0.20012919248E+03  0.00000000000E+00 0.  1.
          2   -1    0    0  501    0  0.00000000000E+00 -0.00000000000E+00 -0.21981205898E+03  0.21981205898E+03  0.00000000000E+00 0. -1.
         23    2    1    2    0    0 -0.98623551438E+02 -0.14788142367E+03 -0.21505733466E+02  0.21836548852E+03  0.12500187855E+03 0.  0.
          5    1    3    3  502    0 -0.11588548159E+03 -0.12166313902E+03  0.16445999405E+02  0.16889027543E+03  0.47000000000E+01 0. -1.
         -5    1    3    3    0  502  0.17261930148E+02 -0.26218284647E+02 -0.37951732871E+02  0.49475213089E+02  0.47000000000E+01 0. -1.
        -11    1    1    2    0    0  0.56183862352E+02  0.14841893409E+03  0.67937603439E+01  0.15884256849E+03  0.00000000000E+00 0.  1.
         11    1    1    2    0    0  0.42439689086E+02 -0.53751041865E+00 -0.49708933802E+01  0.42733194453E+02  0.00000000000E+00 0. -1.
<mgrwt>
<rscale>  0 0.21325823E+03</rscale>
<asrwt>0</asrwt>
<pdfrwt beam="2">  1        2 0.33817240E-01 0.21730391E+03</pdfrwt>
<pdfrwt beam="1">  1       -2 0.30789107E-01 0.21730391E+03</pdfrwt>
<totfact> 0.14882943E+03</totfact>
</mgrwt>
</event>
<event>
 7    1  0.5206756E-006  0.1343429E+03  0.7546771E-02  0.1237841E+00
         -2   -1    0    0    0  501 -0.00000000000E+00  0.00000000000E+00  0.15697307944E+02  0.15697307944E+02  0.00000000000E+00 0.  1.
          2   -1    0    0  501    0  0.00000000000E+00 -0.00000000000E+00 -0.85094402354E+03  0.85094402354E+03  0.00000000000E+00 0. -1.
         23    2    1    2    0    0  0.16585835738E+02 -0.46332032817E+02 -0.53896588461E+03  0.55545678764E+03  0.12500508370E+03 0.  0.
          5    1    3    3  502    0 -0.27515315383E+02 -0.15651858525E+02 -0.30729909702E+02  0.44367675240E+02  0.47000000000E+01 0.  1.
         -5    1    3    3    0  502  0.44101151120E+02 -0.30680174292E+02 -0.50823597490E+03  0.51108911240E+03  0.47000000000E+01 0.  1.
        -11    1    1    2    0    0 -0.39587018152E+02 -0.11446322887E+01 -0.91214094455E+02  0.99440702011E+02  0.00000000000E+00 0.  1.
         11    1    1    2    0    0  0.23001182415E+02  0.47476665106E+02 -0.20506673654E+03  0.21174384184E+03  0.00000000000E+00 0. -1.
<mgrwt>
<rscale>  0 0.12324323E+03</rscale>
<asrwt>0</asrwt>
<pdfrwt beam="2">  1        2 0.13091448E+00 0.13434291E+03</pdfrwt>
<pdfrwt beam="1">  1       -2 0.24149701E-02 0.13434291E+03</pdfrwt>
<totfact> 0.18208157E+04</totfact>
</mgrwt>
</event>
<event>
 7    1  0.5206756E-006  0.1377488E+03  0.7546771E-02  0.1227293E+00
          1   -1    0    0  501    0  0.00000000000E+00  0.00000000000E+00  0.20016398636E+03  0.20016398636E+03  0.00000000000E+00 0. -1.
         -1   -1    0    0    0  501 -0.00000000000E+00 -0.00000000000E+00 -0.77100078792E+02  0.77100078792E+02  0.00000000000E+00 0.  1.
         23    2    1    2    0    0  0.32111562451E+02  0.48147695974E+02  0.81208354132E+02  0.15990475084E+03  0.12500151795E+03 0.  0.
          5    1    3    3  502    0  0.10480183572E+02 -0.31785215202E+02 -0.11321545185E+02  0.35642692638E+02  0.47000000000E+01 0.  1.
         -5    1    3    3    0  502  0.21631378880E+02  0.79932911177E+02  0.92529899317E+02  0.12426205820E+03  0.47000000000E+01 0.  1.
        -11    1    1    2    0    0 -0.15425185922E+02 -0.60034603198E+02 -0.89042837227E+01  0.62620892763E+02  0.00000000000E+00 0.  1.
         11    1    1    2    0    0 -0.16686376530E+02  0.11886907223E+02  0.50759837159E+02  0.54738421547E+02  0.00000000000E+00 0. -1.
<mgrwt>
<rscale>  0 0.13010977E+03</rscale>
<asrwt>0</asrwt>
<pdfrwt beam="1">  1        1 0.30794459E-01 0.13774880E+03</pdfrwt>
<pdfrwt beam="2">  1       -1 0.11861551E-01 0.13774880E+03</pdfrwt>
<totfact> 0.65072588E+03</totfact>
</mgrwt>
</event>
<event>
 7    1  0.5206756E-006  0.1572782E+03  0.7546771E-02  0.1198654E+00
          1   -1    0    0  501    0  0.00000000000E+00  0.00000000000E+00  0.36458811128E+03  0.36458811128E+03  0.00000000000E+00 0. -1.
         -1   -1    0    0    0  501 -0.00000000000E+00 -0.00000000000E+00 -0.62248318732E+02  0.62248318732E+02  0.00000000000E+00 0.  1.
         23    2    1    2    0    0  0.47002495132E+02 -0.83101232739E+02  0.21246989310E+03  0.26434802312E+03  0.12498548884E+03 0.  0.
          5    1    3    3  502    0  0.13000606878E+02 -0.10409311838E+03  0.19284755156E+03  0.21958292560E+03  0.47000000000E+01 0. -1.
         -5    1    3    3    0  502  0.34001888254E+02  0.20991885646E+02  0.19622341540E+02  0.44765097513E+02  0.47000000000E+01 0. -1.
        -11    1    1    2    0    0 -0.71327158729E+02  0.82291152646E+02  0.61340888032E+02  0.12498840715E+03  0.00000000000E+00 0.  1.
         11    1    1    2    0    0  0.24324663597E+02  0.81008009254E+00  0.28529011418E+02  0.37499999751E+02  0.00000000000E+00 0. -1.
<mgrwt>
<rscale>  0 0.15149017E+03</rscale>
<asrwt>0</asrwt>
<pdfrwt beam="1">  1        1 0.56090477E-01 0.15727817E+03</pdfrwt>
<pdfrwt beam="2">  1       -1 0.95766646E-02 0.15727817E+03</pdfrwt>
<totfact> 0.43224835E+03</totfact>
</mgrwt>
</event>
<event>
 7    1  0.5206756E-006  0.1622500E+03  0.7546771E-02  0.1193352E+00
          2   -1    0    0  501    0  0.00000000000E+00  0.00000000000E+00  0.12606331786E+04  0.12606331786E+04  0.00000000000E+00 0. -1.
         -2   -1    0    0    0  501 -0.00000000000E+00 -0.00000000000E+00 -0.19246832973E+02  0.19246832973E+02  0.00000000000E+00 0.  1.
         23    2    1    2    0    0 -0.85259473077E+02 -0.58572589426E+02  0.83312357266E+03  0.84877556314E+03  0.12500057314E+03 0.  0.
          5    1    3    3  502    0  0.21238039429E+02 -0.47540029345E+02  0.35193344654E+03  0.35579537588E+03  0.47000000000E+01 0. -1.
         -5    1    3    3    0  502 -0.10649751251E+03 -0.11032560081E+02  0.48119012612E+03  0.49298018726E+03  0.47000000000E+01 0. -1.
        -11    1    1    2    0    0  0.65836479550E+02 -0.65099380070E+00  0.12737780583E+03  0.14338748638E+03  0.00000000000E+00 0.  1.
         11    1    1    2    0    0  0.19422993527E+02  0.59223583227E+02  0.28088496714E+03  0.28771696205E+03  0.00000000000E+00 0. -1.
<mgrwt>
<rscale>  0 0.15594576E+03</rscale>
<asrwt>0</asrwt>
<pdfrwt beam="1">  1        2 0.19394350E+00 0.16225002E+03</pdfrwt>
<pdfrwt beam="2">  1       -2 0.29610522E-02 0.16225002E+03</pdfrwt>
<totfact> 0.78238463E+03</totfact>
</mgrwt>
</event>
<event>
 7    1  0.5206756E-006  0.2583606E+03  0.7546771E-02  0.1110349E+00
          1   -1    0    0  501    0  0.00000000000E+00  0.00000000000E+00  0.38210463980E+03  0.38210463980E+03  0.00000000000E+00 0. -1.
         -1   -1    0    0    0  501 -0.00000000000E+00 -0.00000000000E+00 -0.39832581545E+03  0.39832581545E+03  0.00000000000E+00 0.  1.
         23    2    1    2    0    0 -0.14751024449E+03 -0.17137038850E+03  0.29025836137E+03  0.38858736420E+03  0.12499256374E+03 0.  0.
          5    1    3    3  502    0  0.10608185967E+02 -0.44591344816E+02  0.18747074374E+02  0.49743988979E+02  0.47000000000E+01 0. -1.
         -5    1    3    3    0  502 -0.15811843046E+03 -0.12677904369E+03  0.27151128699E+03  0.33884337522E+03  0.47000000000E+01 0. -1.
        -11    1    1    2    0    0  0.70453721973E+02  0.77597587803E+02 -0.21721893905E+03  0.24118287678E+03  0.00000000000E+00 0.  1.
         11    1    1    2    0    0  0.77056522521E+02  0.93772800702E+02 -0.89260597965E+02  0.15066021427E+03  0.00000000000E+00 0. -1.
<mgrwt>
<rscale>  0 0.25473337E+03</rscale>
<asrwt>0</asrwt>
<pdfrwt beam="1">  1        1 0.58785329E-01 0.25836065E+03</pdfrwt>
<pdfrwt beam="2">  1       -1 0.61280895E-01 0.25836065E+03</pdfrwt>
<totfact> 0.18130711E+02</totfact>
</mgrwt>
</event>
<event>
 6    1  0.5206756E-006  0.2550635E+03  0.7546771E-02  0.1133214E+00
          1   -1    0    0  501    0  0.00000000000E+00  0.00000000000E+00  0.36823083157E+03  0.36823083157E+03  0.00000000000E+00 0. -1.
         -1   -1    0    0    0  501 -0.00000000000E+00 -0.00000000000E+00 -0.21438862443E+03  0.21438862443E+03  0.00000000000E+00 0.  1.
          5    1    1    2  502    0 -0.96576145523E+02  0.14509387203E+03  0.14804644731E+03  0.22873352213E+03  0.47000000000E+01 0. -1.
         -5    1    1    2    0  502  0.20667841755E+02 -0.65149196956E+02  0.14097910628E+03  0.15674430118E+03  0.47000000000E+01 0.  1.
        -11    1    1    2    0    0 -0.69494109692E+01 -0.16554335757E+02  0.82680957667E+01  0.19766176990E+02  0.00000000000E+00 0. -1.
         11    1    1    2    0    0  0.82857714737E+02 -0.63390339314E+02 -0.14345144222E+03  0.17737545570E+03  0.00000000000E+00 0.  1.
<mgrwt>
<rscale>  0 0.22089914E+03</rscale>
<asrwt>0</asrwt>
<pdfrwt beam="1">  1        1 0.56650897E-01 0.25506349E+03</pdfrwt>
<pdfrwt beam="2">  1       -1 0.32982865E-01 0.25506349E+03</pdfrwt>
<totfact> 0.58761424E+02</totfact>
</mgrwt>
</event>
<event>
 7    1  0.5206756E-006  0.2187763E+03  0.7546771E-02  0.1138076E+00
          1   -1    0    0  501    0  0.00000000000E+00  0.00000000000E+00  0.60465268371E+03  0.60465268371E+03  0.00000000000E+00 0. -1.
         -1   -1    0    0    0  501 -0.00000000000E+00 -0.00000000000E+00 -0.75943238243E+02  0.75943238243E+02  0.00000000000E+00 0.  1.
         23    2    1    2    0    0  0.11555974136E+03 -0.13741787823E+03  0.21009943665E+03  0.30332300764E+03  0.12500138640E+03 0.  0.
          5    1    3    3  502    0  0.14021045353E+03 -0.96153605508E+02  0.15578092956E+03  0.23063884136E+03  0.47000000000E+01 0.  1.
         -5    1    3    3    0  502 -0.24650712175E+02 -0.41264272724E+02  0.54318507091E+02  0.72684166273E+02  0.47000000000E+01 0.  1.
        -11    1    1    2    0    0 -0.31582852369E+02 -0.76758363855E+01  0.72940729980E+02  0.79854524718E+02  0.00000000000E+00 0. -1.
         11    1    1    2    0    0 -0.83976888988E+02  0.14509371462E+03  0.24566927885E+03  0.29741838960E+03  0.00000000000E+00 0.  1.
<mgrwt>
<rscale>  0 0.21446809E+03</rscale>
<asrwt>0</asrwt>
<pdfrwt beam="1">  1        1 0.93023487E-01 0.21877631E+03</pdfrwt>
<pdfrwt beam="2">  1       -1 0.11683576E-01 0.21877631E+03</pdfrwt>
<totfact> 0.16567811E+03</totfact>
</mgrwt>
</event>
<event>
 7    1  0.5206756E-006  0.2115140E+03  0.7546771E-02  0.1144672E+00
          1   -1    0    0  501    0  0.00000000000E+00  0.00000000000E+00  0.11856190567E+04  0.11856190567E+04  0.00000000000E+00 0. -1.
         -1   -1    0    0    0  501 -0.00000000000E+00 -0.00000000000E+00 -0.34123891335E+02  0.34123891335E+02  0.00000000000E+00 0.  1.
         23    2    1    2    0    0  0.15753884928E+03 -0.65536287535E+02  0.60821026646E+03  0.64393935725E+03  0.12499869427E+03 0.  0.
          5    1    3    3  502    0  0.16523932405E+03 -0.79877785468E+02  0.59431721653E+03  0.62202856742E+03  0.47000000000E+01 0.  1.
         -5    1    3    3    0  502 -0.77004747682E+01  0.14341497933E+02  0.13893049936E+02  0.21910789834E+02  0.47000000000E+01 0.  1.
        -11    1    1    2    0    0 -0.65440446613E+02  0.16337422432E+02  0.10164377127E+03  0.12198696513E+03  0.00000000000E+00 0.  1.
         11    1    1    2    0    0 -0.92098402666E+02  0.49198865103E+02  0.44164112767E+03  0.45381662569E+03  0.00000000000E+00 0. -1.
<mgrwt>
<rscale>  0 0.20612421E+03</rscale>
<asrwt>0</asrwt>
<pdfrwt beam="1">  1        1 0.18240290E+00 0.21151399E+03</pdfrwt>
<pdfrwt beam="2">  1       -1 0.52498303E-02 0.21151399E+03</pdfrwt>
<totfact> 0.19147788E+03</totfact>
</mgrwt>
</event>
<event>
 7    1  0.5206756E-006  0.1990209E+03  0.7546771E-02  0.1155345E+00
         -1   -1    0    0    0  501 -0.00000000000E+00  0.00000000000E+00  0.12011813908E+03  0.12011813908E+03  0.00000000000E+00 0. -1.
          1   -1    0    0  501    0  0.00000000000E+00 -0.00000000000E+00 -0.39995098048E+03  0.39995098048E+03  0.00000000000E+00 0.  1.
         23    2    1    2    0    0 -0.64162547989E+02 -0.14095011318E+03 -0.27842099883E+03  0.34223903378E+03  0.12500214674E+03 0.  0.
          5    1    3    3  502    0  0.32785963169E+02 -0.43289619757E+02 -0.12337751981E+03  0.13488147743E+03  0.47000000000E+01 0. -1.
         -5    1    3    3    0  502 -0.96948511159E+02 -0.97660493420E+02 -0.15504347902E+03  0.20735755635E+03  0.47000000000E+01 0. -1.
        -11    1    1    2    0    0  0.44396162081E+01  0.90681842680E+02  0.27060407656E+02  0.94737386741E+02  0.00000000000E+00 0. -1.
         11    1    1    2    0    0  0.59722931781E+02  0.50268270497E+02 -0.28472250239E+02  0.83092699035E+02  0.00000000000E+00 0.  1.
<mgrwt>
<rscale>  0 0.19349593E+03</rscale>
<asrwt>0</asrwt>
<pdfrwt beam="2">  1        1 0.61530919E-01 0.19902086E+03</pdfrwt>
<pdfrwt beam="1">  1       -1 0.18479714E-01 0.19902086E+03</pdfrwt>
<totfact> 0.13842868E+03</totfact>
</mgrwt>
</event>
<event>
 7    1  0.5206756E-006  0.2870531E+03  0.7546771E-02  0.1093673E+00
          1   -1    0    0  501    0  0.00000000000E+00  0.00000000000E+00  0.23812309845E+03  0.23812309845E+03  0.00000000000E+00 0. -1.
         -1   -1    0    0    0  501 -0.00000000000E+00 -0.00000000000E+00 -0.37350275272E+03  0.37350275272E+03  0.00000000000E+00 0.  1.
         23    2    1    2    0    0 -0.11469515855E+03  0.23156008218E+03  0.34737478272E+02  0.28914735888E+03  0.12499780675E+03 0.  0.
          5    1    3    3  502    0 -0.10152610557E+03  0.19018262084E+03 -0.22879839390E+02  0.21684685018E+03  0.47000000000E+01 0. -1.
         -5    1    3    3    0  502 -0.13169052983E+02  0.41377461343E+02  0.57617317662E+02  0.72300508699E+02  0.47000000000E+01 0. -1.
        -11    1    1    2    0    0  0.11779893480E+03 -0.15661011228E+03 -0.10094034418E+03  0.22043654278E+03  0.00000000000E+00 0. -1.
         11    1    1    2    0    0 -0.31037762495E+01 -0.74949969898E+02 -0.69176788356E+02  0.10204194952E+03  0.00000000000E+00 0.  1.
<mgrwt>
<rscale>  0 0.28372160E+03</rscale>
<asrwt>0</asrwt>
<pdfrwt beam="1">  1        1 0.36634323E-01 0.28705314E+03</pdfrwt>
<pdfrwt beam="2">  1       -1 0.57461962E-01 0.28705314E+03</pdfrwt>
<totfact> 0.37280572E+02</totfact>
</mgrwt>
</event>
<event>
 7    1  0.5206756E-006  0.1480854E+03  0.7546771E-02  0.1212239E+00
         -1   -1    0    0    0  501 -0.00000000000E+00  0.00000000000E+00  0.19326911292E+03  0.19326911292E+03  0.00000000000E+00 0.  1.
          1   -1    0    0  501    0  0.00000000000E+00 -0.00000000000E+00 -0.13752711359E+03  0.13752711359E+03  0.00000000000E+00 0. -1.
         23    2    1    2    0    0 -0.37053936214E+02 -0.70209247752E+02 -0.63262001363E+02  0.16103218796E+03  0.12500780809E+03 0.  0.
          5    1    3    3  502    0 -0.27587096559E+02  0.12738026989E+02 -0.70687549750E+02  0.77085179625E+02  0.47000000000E+01 0. -1.
         -5    1    3    3    0  502 -0.94668396549E+01 -0.82947274740E+02  0.74255483869E+01  0.83947008337E+02  0.47000000000E+01 0. -1.
        -11    1    1    2    0    0  0.62938879080E+02  0.32958608988E+02  0.94436820234E+02  0.11817734733E+03  0.00000000000E+00 0.  1.
         11    1    1    2    0    0 -0.25884942866E+02  0.37250638763E+02  0.24567180450E+02  0.51586691217E+02  0.00000000000E+00 0. -1.
<mgrwt>
<rscale>  0 0.14081310E+03</rscale>
<asrwt>0</asrwt>
<pdfrwt beam="2">  1        1 0.21158017E-01 0.14808540E+03</pdfrwt>
<pdfrwt beam="1">  1       -1 0.29733710E-01 0.14808540E+03</pdfrwt>
<totfact> 0.23994501E+03</totfact>
</mgrwt>
</event>
<event>
 7    1  0.5206756E-006  0.1643369E+03  0.7546771E-02  0.1190872E+00
         -2   -1    0    0    0  501 -0.00000000000E+00  0.00000000000E+00  0.42970668425E+02  0.42970668425E+02  0.00000000000E+00 0.  1.
          2   -1    0    0  501    0  0.00000000000E+00 -0.00000000000E+00 -0.57399255167E+03  0.57399255167E+03  0.00000000000E+00 0. -1.
         23    2    1    2    0    0 -0.96453959950E+02 -0.45615178722E+02 -0.35812410621E+03  0.39402981637E+03  0.12499003887E+03 0.  0.
          5    1    3    3  502    0 -0.55615137445E+02  0.19550391226E+02 -0.53280381168E+02  0.79599939244E+02  0.47000000000E+01 0. -1.
         -5    1    3    3    0  502 -0.40838822505E+02 -0.65165569947E+02 -0.30484372504E+03  0.31442987712E+03  0.47000000000E+01 0. -1.
        -11    1    1    2    0    0  0.28045609906E+02  0.62642624403E+02 -0.10209164218E+03  0.12301771430E+03  0.00000000000E+00 0.  1.
         11    1    1    2    0    0  0.68408350044E+02 -0.17027445681E+02 -0.70806134852E+02  0.99915689433E+02  0.00000000000E+00 0. -1.
<mgrwt>
<rscale>  0 0.15808840E+03</rscale>
<asrwt>0</asrwt>
<pdfrwt beam="2">  1        2 0.88306541E-01 0.16433691E+03</pdfrwt>
<pdfrwt beam="1">  1       -2 0.66108725E-02 0.16433691E+03</pdfrwt>
<totfact> 0.65762720E+03</totfact>
</mgrwt>
</event>
<event>
 7    1  0.5206756E-006  0.1297784E+03  0.7546771E-02  0.1241294E+00
          1   -1    0    0  501    0  0.00000000000E+00  0.00000000000E+00  0.98743582307E+02  0.98743582307E+02  0.00000000000E+00 0. -1.
         -1   -1    0    0    0  501 -0.00000000000E+00 -0.00000000000E+00 -0.14511962386E+03  0.14511962386E+03  0.00000000000E+00 0.  1.
         23    2    1    2    0    0 -0.27284882911E+02  0.21733867367E+02  0.10520126469E+02  0.13020408168E+03  0.12500241598E+03 0.  0.
          5    1    3    3  502    0 -0.52131257629E+02  0.62532280767E+02  0.10369467125E+02  0.82204440321E+02  0.47000000000E+01 0.  1.
         -5    1    3    3    0  502  0.24846374718E+02 -0.40798413401E+02  0.15065934352E+00  0.47999641362E+02  0.47000000000E+01 0.  1.
        -11    1    1    2    0    0  0.16324282036E+02 -0.33453965995E+02 -0.78423270082E+02  0.86809327351E+02  0.00000000000E+00 0.  1.
         11    1    1    2    0    0  0.10960600876E+02  0.11720098629E+02  0.21527102055E+02  0.26849797137E+02  0.00000000000E+00 0. -1.
<mgrwt>
<rscale>  0 0.12109970E+03</rscale>
<asrwt>0</asrwt>
<pdfrwt beam="1">  1        1 0.15191320E-01 0.12977839E+03</pdfrwt>
<pdfrwt beam="2">  1       -1 0.22326096E-01 0.12977839E+03</pdfrwt>
<totfact> 0.58419015E+03</totfact>
</mgrwt>
</event>
<event>
 7    1  0.5206756E-006  0.1351110E+03  0.7546771E-02  0.1231266E+00
          2   -1    0    0  501    0  0.00000000000E+00  0.00000000000E+00  0.11121960332E+04  0.11121960332E+04  0.00000000000E+00 0.  1.
         -2   -1    0    0    0  501 -0.00000000000E+00 -0.00000000000E+00 -0.14429626833E+02  0.14429626833E+02  0.00000000000E+00 0. -1.
         23    2    1    2    0    0  0.39236721883E+02 -0.32999440800E+02  0.77183219303E+03  0.78356870247E+03  0.12500597524E+03 0.  0.
          5    1    3    3  502    0  0.36668033697E+02 -0.47561445584E+02  0.15141817887E+03  0.16296070292E+03  0.47000000000E+01 0.  1.
         -5    1    3    3    0  502  0.25686881859E+01  0.14562004784E+02  0.62041401416E+03  0.62060799955E+03  0.47000000000E+01 0.  1.
        -11    1    1    2    0    0 -0.58765964884E+02  0.80056087602E+01  0.28586647882E+03  0.29195405822E+03  0.00000000000E+00 0.  1.
         11    1    1    2    0    0  0.19529243001E+02  0.24993832040E+02  0.40067734524E+02  0.51102899351E+02  0.00000000000E+00 0. -1.
<mgrwt>
<rscale>  0 0.12746537E+03</rscale>
<asrwt>0</asrwt>
<pdfrwt beam="1">  1        2 0.17110701E+00 0.13511098E+03</pdfrwt>
<pdfrwt beam="2">  1       -2 0.22199435E-02 0.13511098E+03</pdfrwt>
<totfact> 0.14310855E+04</totfact>
</mgrwt>
</event>
<event>
 7    1  0.5206756E-006  0.1485037E+03  0.7546771E-02  0.1211744E+00
          2   -1    0    0  501    0  0.00000000000E+00  0.00000000000E+00  0.11699627447E+04  0.11699627447E+04  0.00000000000E+00 0. -1.
         -2   -1    0    0    0  501 -0.00000000000E+00 -0.00000000000E+00 -0.18652607379E+02  0.18652607379E+02  0.00000000000E+00 0.  1.
         23    2    1    2    0    0  0.70938616798E+02  0.37359352034E+02  0.86510055170E+03  0.87775413170E+03  0.12500137051E+03 0.  0.
          5    1    3    3  502    0 -0.17931470326E+02  0.52090641620E+02  0.24749541260E+03  0.25359621809E+03  0.47000000000E+01 0.  1.
         -5    1    3    3    0  502  0.88870087124E+02 -0.14731289586E+02  0.61760513910E+03  0.62415791361E+03  0.47000000000E+01 0.  1.
        -11    1    1    2    0    0 -0.49115046891E+02  0.24348738874E+02  0.11036005502E+03  0.12322536532E+03  0.00000000000E+00 0. -1.
         11    1    1    2    0    0 -0.21823569907E+02 -0.61708090908E+02  0.17584953057E+03  0.18763585502E+03  0.00000000000E+00 0.  1.
<mgrwt>
<rscale>  0 0.14118447E+03</rscale>
<asrwt>0</asrwt>
<pdfrwt beam="1">  1        2 0.17999421E+00 0.14850371E+03</pdfrwt>
<pdfrwt beam="2">  1       -2 0.28696328E-02 0.14850371E+03</pdfrwt>
<totfact> 0.91647024E+03</totfact>
</mgrwt>
</event>
<event>
 7    1  0.5206756E-006  0.1906926E+03  0.7546771E-02  0.1162459E+00
         -3   -1    0    0    0  501 -0.00000000000E+00  0.00000000000E+00  0.30227188740E+03  0.30227188740E+03  0.00000000000E+00 0.  1.
          3   -1    0    0  501    0  0.00000000000E+00 -0.00000000000E+00 -0.10920197474E+03  0.10920197474E+03  0.00000000000E+00 0. -1.
         23    2    1    2    0    0 -0.14211849977E+03  0.23258647246E+02  0.83512778147E+02  0.20817794770E+03  0.12500016458E+03 0.  0.
          5    1    3    3  502    0 -0.50055789855E+02  0.27318262888E+02  0.99260920165E+02  0.11457176728E+03  0.47000000000E+01 0.  1.
         -5    1    3    3    0  502 -0.92062709910E+02 -0.40596156425E+01 -0.15748142018E+02  0.93606180417E+02  0.47000000000E+01 0.  1.
        -11    1    1    2    0    0  0.11561032147E+03 -0.79068306302E+01  0.32467167424E+02  0.12034276614E+03  0.00000000000E+00 0. -1.
         11    1    1    2    0    0  0.26508178297E+02 -0.15351816616E+02  0.77089967085E+02  0.82953148314E+02  0.00000000000E+00 0.  1.
<mgrwt>
<rscale>  0 0.18563415E+03</rscale>
<asrwt>0</asrwt>
<pdfrwt beam="2">  1        3 0.16800304E-01 0.19069262E+03</pdfrwt>
<pdfrwt beam="1">  1       -3 0.46503367E-01 0.19069262E+03</pdfrwt>
<totfact> 0.34208272E+02</totfact>
</mgrwt>
</event>
<event>
 7    1  0.5206756E-006  0.1853112E+03  0.7546771E-02  0.1168135E+00
         -2   -1    0    0    0  501 -0.00000000000E+00  0.00000000000E+00  0.78640891510E+03  0.78640891510E+03  0.00000000000E+00 0.  1.
          2   -1    0    0  501    0  0.00000000000E+00 -0.00000000000E+00 -0.39619812762E+02  0.39619812762E+02  0.00000000000E+00 0. -1.
         23    2    1    2    0    0 -0.79634310015E+02 -0.11124545912E+03  0.45793345504E+03  0.49400738901E+03  0.12499230234E+03 0.  0.
          5    1    3    3  502    0 -0.45641836566E+02  0.85655614678E+01  0.22539457634E+03  0.23017678234E+03  0.47000000000E+01 0.  1.
         -5    1    3    3    0  502 -0.33992473450E+02 -0.11981102058E+03  0.23253887871E+03  0.26383060667E+03  0.47000000000E+01 0.  1.
        -11    1    1    2    0    0  0.11129574810E+02  0.79677166986E+02  0.19934870661E+03  0.21497028911E+03  0.00000000000E+00 0.  1.
         11    1    1    2    0    0  0.68504735205E+02  0.31568292131E+02  0.89506940681E+02  0.11705104973E+03  0.00000000000E+00 0. -1.
<mgrwt>
<rscale>  0 0.17965708E+03</rscale>
<asrwt>0</asrwt>
<pdfrwt beam="2">  1        2 0.60953564E-02 0.18531123E+03</pdfrwt>
<pdfrwt beam="1">  1       -2 0.12098598E+00 0.18531123E+03</pdfrwt>
<totfact> 0.65111998E+02</totfact>
</mgrwt>
</event>
<event>
 7    1  0.5206756E-006  0.1371573E+03  0.7546771E-02  0.1228497E+00
          2   -1    0    0  501    0  0.00000000000E+00  0.00000000000E+00  0.18626985645E+03  0.18626985645E+03  0.00000000000E+00 0. -1.
         -2   -1    0    0    0  501 -0.00000000000E+00 -0.00000000000E+00 -0.81453921380E+02  0.81453921380E+02  0.00000000000E+00 0.  1.
         23    2    1    2    0    0  0.53527630778E+02 -0.17975451566E+02  0.69653047264E+02  0.15383004921E+03  0.12499525163E+03 0.  0.
          5    1    3    3  502    0  0.68427358671E+02  0.34034006625E+02  0.62929173389E+02  0.99109978736E+02  0.47000000000E+01 0. -1.
         -5    1    3    3    0  502 -0.14899727894E+02 -0.52009458191E+02  0.67238738750E+01  0.54720070472E+02  0.47000000000E+01 0. -1.
        -11    1    1    2    0    0 -0.62749424527E+01  0.14576365911E+02 -0.29639699287E+02  0.33620784045E+02  0.00000000000E+00 0.  1.
         11    1    1    2    0    0 -0.47252688325E+02  0.33990856549E+01  0.64802587097E+02  0.80272944581E+02  0.00000000000E+00 0. -1.
<mgrwt>
<rscale>  0 0.12930083E+03</rscale>
<asrwt>0</asrwt>
<pdfrwt beam="1">  1        2 0.28656901E-01 0.13715734E+03</pdfrwt>
<pdfrwt beam="2">  1       -2 0.12531373E-01 0.13715734E+03</pdfrwt>
<totfact> 0.80529772E+03</totfact>
</mgrwt>
</event>
<event>
 7    1  0.5206756E-006  0.2239695E+03  0.7546771E-02  0.1134215E+00
          3   -1    0    0  501    0  0.00000000000E+00  0.00000000000E+00  0.83146667214E+02  0.83146667214E+02  0.00000000000E+00 0. -1.
         -3   -1    0    0    0  501 -0.00000000000E+00 -0.00000000000E+00 -0.60304093710E+03  0.60304093710E+03  0.00000000000E+00 0.  1.
         23    2    1    2    0    0 -0.77144737986E+02  0.16904944863E+03 -0.17583613798E+03  0.28474666560E+03  0.12503315348E+03 0.  0.
          5    1    3    3  502    0 -0.99875445286E+02  0.10866978860E+03 -0.76775164901E+02  0.16643540330E+03  0.47000000000E+01 0. -1.
         -5    1    3    3    0  502  0.22730707300E+02  0.60379660032E+02 -0.99060973082E+02  0.11831126230E+03  0.47000000000E+01 0. -1.
        -11    1    1    2    0    0  0.76026135829E+02 -0.14386987725E+03 -0.33857331794E+03  0.37564665117E+03  0.00000000000E+00 0.  1.
         11    1    1    2    0    0  0.11186021578E+01 -0.25179571381E+02 -0.54848139585E+01  0.25794287543E+02  0.00000000000E+00 0. -1.
<mgrwt>
<rscale>  0 0.21955595E+03</rscale>
<asrwt>0</asrwt>
<pdfrwt beam="1">  1        3 0.12791795E-01 0.22396945E+03</pdfrwt>
<pdfrwt beam="2">  1       -3 0.92775528E-01 0.22396945E+03</pdfrwt>
<totfact> 0.12908873E+02</totfact>
</mgrwt>
</event>
<event>
 7    1  0.5206756E-006  0.1283088E+03  0.7546771E-02  0.1243993E+00
         -2   -1    0    0    0  501 -0.00000000000E+00  0.00000000000E+00  0.18880132892E+02  0.18880132892E+02  0.00000000000E+00 0.  1.
          2   -1    0    0  501    0  0.00000000000E+00 -0.00000000000E+00 -0.76451869047E+03  0.76451869047E+03  0.00000000000E+00 0. -1.
         23    2    1    2    0    0 -0.89585763017E+01 -0.27587909097E+02 -0.55659556653E+03  0.57119328078E+03  0.12498716139E+03 0.  0.
          5    1    3    3  502    0 -0.30058016416E+02 -0.33804735375E+02 -0.66398271727E+02  0.80480214792E+02  0.47000000000E+01 0.  1.
         -5    1    3    3    0  502  0.21099440114E+02  0.62168262778E+01 -0.49019729480E+03  0.49071306599E+03  0.47000000000E+01 0.  1.
        -11    1    1    2    0    0 -0.28393768190E+02  0.43938086755E+02 -0.78052561465E+02  0.93962566435E+02  0.00000000000E+00 0.  1.
         11    1    1    2    0    0  0.37352344492E+02 -0.16350177658E+02 -0.11099042958E+03  0.11824297615E+03  0.00000000000E+00 0. -1.
<mgrwt>
<rscale>  0 0.11945855E+03</rscale>
<asrwt>0</asrwt>
<pdfrwt beam="2">  1        2 0.11761826E+00 0.12830877E+03</pdfrwt>
<pdfrwt beam="1">  1       -2 0.29046357E-02 0.12830877E+03</pdfrwt>
<totfact> 0.15830097E+04</totfact>
</mgrwt>
</event>
<event>
 7    1  0.5206756E-006  0.2918329E+03  0.7546771E-02  0.1091120E+00
         -2   -1    0    0    0  501 -0.00000000000E+00  0.00000000000E+00  0.27720104193E+03  0.27720104193E+03  0.00000000000E+00 0.  1.
          2   -1    0    0  501    0  0.00000000000E+00 -0.00000000000E+00 -0.34266586905E+03  0.34266586905E+03  0.00000000000E+00 0. -1.
         23    2    1    2    0    0  0.15494355363E+03  0.21338881867E+03 -0.15049583731E+03  0.32835260218E+03  0.12499656622E+03 0.  0.
          5    1    3    3  502    0  0.17595029936E+03  0.19052461521E+03 -0.14248960129E+03  0.29594511877E+03  0.47000000000E+01 0.  1.
         -5    1    3    3    0  502 -0.21006745729E+02  0.22864203459E+02 -0.80062360138E+01  0.32407483411E+02  0.47000000000E+01 0.  1.
        -11    1    1    2    0    0 -0.31235942954E+02 -0.96858023377E+02  0.64113815992E+02  0.12028192809E+03  0.00000000000E+00 0.  1.
         11    1    1    2    0    0 -0.12370761068E+03 -0.11653079529E+03  0.20917194195E+02  0.17123238071E+03  0.00000000000E+00 0. -1.
<mgrwt>
<rscale>  0 0.28852832E+03</rscale>
<asrwt>0</asrwt>
<pdfrwt beam="2">  1        2 0.52717826E-01 0.29183289E+03</pdfrwt>
<pdfrwt beam="1">  1       -2 0.42646314E-01 0.29183289E+03</pdfrwt>
<totfact> 0.49991592E+02</totfact>
</mgrwt>
</event>
<event>
 7    1  0.5206756E-006  0.1982028E+03  0.7546771E-02  0.1155508E+00
         -1   -1    0    0    0  501 -0.00000000000E+00  0.00000000000E+00  0.45977773445E+02  0.45977773445E+02  0.00000000000E+00 0.  1.
          1   -1    0    0  501    0  0.00000000000E+00 -0.00000000000E+00 -0.80654453683E+03  0.80654453683E+03  0.00000000000E+00 0. -1.
         23    2    1    2    0    0 -0.97850437768E+02 -0.11868604481E+03 -0.31444609583E+03  0.37169973909E+03  0.12499305362E+03 0.  0.
          5    1    3    3  502    0 -0.73998592917E-01 -0.93928678460E+02 -0.11865415398E+03  0.15140508700E+03  0.47000000000E+01 0. -1.
         -5    1    3    3    0  502 -0.97776439175E+02 -0.24757366354E+02 -0.19579194185E+03  0.22029465209E+03  0.47000000000E+01 0. -1.
        -11    1    1    2    0    0  0.96635381193E+02  0.60209807160E+02 -0.22595499938E+03  0.25302031445E+03  0.00000000000E+00 0.  1.
         11    1    1    2    0    0  0.12150565750E+01  0.58476237654E+02 -0.22016566818E+03  0.22780225674E+03  0.00000000000E+00 0. -1.
<mgrwt>
<rscale>  0 0.19331170E+03</rscale>
<asrwt>0</asrwt>
<pdfrwt beam="2">  1        1 0.12408376E+00 0.19820280E+03</pdfrwt>
<pdfrwt beam="1">  1       -1 0.70735045E-02 0.19820280E+03</pdfrwt>
<totfact> 0.23506819E+03</totfact>
</mgrwt>
</event>
<event>
 7    1  0.5206756E-006  0.1586721E+03  0.7546771E-02  0.1197629E+00
         -1   -1    0    0    0  501 -0.00000000000E+00  0.00000000000E+00  0.43853500551E+03  0.43853500551E+03  0.00000000000E+00 0.  1.
          1   -1    0    0  501    0  0.00000000000E+00 -0.00000000000E+00 -0.64948479084E+02  0.64948479084E+02  0.00000000000E+00 0. -1.
         23    2    1    2    0    0 -0.96123597103E+02  0.17743362971E+02  0.74241626882E+02  0.17518176337E+03  0.12498903235E+03 0.  0.
          5    1    3    3  502    0 -0.10921748926E+03  0.24059120706E+02  0.13733001403E+02  0.11277405099E+03  0.47000000000E+01 0. -1.
         -5    1    3    3    0  502  0.13093892156E+02 -0.63157577355E+01  0.60508625479E+02  0.62407712383E+02  0.47000000000E+01 0. -1.
        -11    1    1    2    0    0  0.60380171581E+02 -0.40226311965E+02  0.26223265759E+03  0.27208433986E+03  0.00000000000E+00 0.  1.
         11    1    1    2    0    0  0.35743425521E+02  0.22482948995E+02  0.37112241957E+02  0.56217381356E+02  0.00000000000E+00 0. -1.
<mgrwt>
<rscale>  0 0.15233814E+03</rscale>
<asrwt>0</asrwt>
<pdfrwt beam="2">  1        1 0.99920740E-02 0.15867209E+03</pdfrwt>
<pdfrwt beam="1">  1       -1 0.67466922E-01 0.15867209E+03</pdfrwt>
<totfact> 0.14582404E+03</totfact>
</mgrwt>
</event>
<event>
 7    1  0.5206756E-006  0.1250812E+03  0.7546771E-02  0.1250875E+00
          3   -1    0    0  501    0  0.00000000000E+00  0.00000000000E+00  0.35854433344E+02  0.35854433344E+02  0.00000000000E+00 0. -1.
         -3   -1    0    0    0  501 -0.00000000000E+00 -0.00000000000E+00 -0.32758775758E+03  0.32758775758E+03  0.00000000000E+00 0.  1.
         23    2    1    2    0    0  0.23797720539E+01  0.39718563412E+01 -0.15145886131E+03  0.19643089158E+03  0.12499547809E+03 0.  0.
          5    1    3    3  502    0 -0.38313179580E+02 -0.35638500002E+01  0.60167946512E+00  0.38769224580E+02  0.47000000000E+01 0. -1.
         -5    1    3    3    0  502  0.40692951634E+02  0.75357063414E+01 -0.15206054077E+03  0.15766166700E+03  0.47000000000E+01 0. -1.
        -11    1    1    2    0    0 -0.30976008139E+02 -0.28746085914E+02 -0.11220968753E+03  0.11990356338E+03  0.00000000000E+00 0.  1.
         11    1    1    2    0    0  0.28596236085E+02  0.24774229572E+02 -0.28064775401E+02  0.47107735962E+02  0.00000000000E+00 0. -1.
<mgrwt>
<rscale>  0 0.11540526E+03</rscale>
<asrwt>0</asrwt>
<pdfrwt beam="1">  1        3 0.55160665E-02 0.12508121E+03</pdfrwt>
<pdfrwt beam="2">  1       -3 0.50398118E-01 0.12508121E+03</pdfrwt>
<totfact> 0.17342567E+03</totfact>
</mgrwt>
</event>
<event>
 7    1  0.5206756E-006  0.1294525E+03  0.7546771E-02  0.1243434E+00
         -1   -1    0    0    0  501 -0.00000000000E+00  0.00000000000E+00  0.20034480430E+02  0.20034480430E+02  0.00000000000E+00 0.  1.
          1   -1    0    0  501    0  0.00000000000E+00 -0.00000000000E+00 -0.88373512364E+03  0.88373512364E+03  0.00000000000E+00 0. -1.
         23    2    1    2    0    0  0.12022538967E+02  0.31450913717E+02 -0.71997010637E+03  0.73151548173E+03  0.12499697805E+03 0.  0.
          5    1    3    3  502    0  0.38870238520E+02 -0.26473899188E+02 -0.50523997972E+03  0.50744584922E+03  0.47000000000E+01 0.  1.
         -5    1    3    3    0  502 -0.26847699553E+02  0.57924812905E+02 -0.21473012666E+03  0.22406963251E+03  0.47000000000E+01 0.  1.
        -11    1    1    2    0    0 -0.19847604780E+01 -0.62375764217E+02 -0.92969273796E+02  0.11197303741E+03  0.00000000000E+00 0. -1.
         11    1    1    2    0    0 -0.10037778489E+02  0.30924850499E+02 -0.50761263039E+02  0.60281084933E+02  0.00000000000E+00 0.  1.
<mgrwt>
<rscale>  0 0.11979579E+03</rscale>
<asrwt>0</asrwt>
<pdfrwt beam="2">  1        1 0.13595923E+00 0.12945249E+03</pdfrwt>
<pdfrwt beam="1">  1       -1 0.30822283E-02 0.12945249E+03</pdfrwt>
<totfact> 0.68876925E+03</totfact>
</mgrwt>
</event>
<event>
 7    1  0.5206756E-006  0.1623022E+03  0.7546771E-02  0.1193540E+00
          2   -1    0    0  501    0  0.00000000000E+00  0.00000000000E+00  0.39528612688E+03  0.39528612688E+03  0.00000000000E+00 0. -1.
         -2   -1    0    0    0  501 -0.00000000000E+00 -0.00000000000E+00 -0.57217444859E+02  0.57217444859E+02  0.00000000000E+00 0.  1.
         23    2    1    2    0    0 -0.79344622821E+02 -0.66500169949E+02  0.19837457772E+03  0.25630934685E+03  0.12499666565E+03 0.  0.
          5    1    3    3  502    0  0.95159166880E+01 -0.69606198389E+02  0.64239673272E+02  0.95312124867E+02  0.47000000000E+01 0. -1.
         -5    1    3    3    0  502 -0.88860539509E+02  0.31060284406E+01  0.13413490445E+03  0.16099722198E+03  0.47000000000E+01 0. -1.
        -11    1    1    2    0    0  0.20142274467E+02  0.23693009105E+02 -0.73914604695E+01  0.31964098440E+02  0.00000000000E+00 0.  1.
         11    1    1    2    0    0  0.59202348354E+02  0.42807160843E+02  0.14708556478E+03  0.16423012646E+03  0.00000000000E+00 0. -1.
<mgrwt>
<rscale>  0 0.15578436E+03</rscale>
<asrwt>0</asrwt>
<pdfrwt beam="1">  1        2 0.60813249E-01 0.16230221E+03</pdfrwt>
<pdfrwt beam="2">  1       -2 0.88026841E-02 0.16230221E+03</pdfrwt>
<totfact> 0.63612023E+03</totfact>
</mgrwt>
</event>
<event>
 7    1  0.5206756E-006  0.1582312E+03  0.7546771E-02  0.1198373E+00
          2   -1    0    0  501    0  0.00000000000E+00  0.00000000000E+00  0.51278850623E+02  0.51278850623E+02  0.00000000000E+00 0. -1.
         -2   -1    0    0    0  501 -0.00000000000E+00 -0.00000000000E+00 -0.48372401799E+03  0.48372401799E+03  0.00000000000E+00 0.  1.
         23    2    1    2    0    0  0.62890021320E+02  0.73871134962E+02 -0.13175268720E+03  0.20590263696E+03  0.12500010384E+03 0.  0.
          5    1    3    3  502    0 -0.23189793023E+01  0.51531338394E+02 -0.12640559912E+03  0.13660644930E+03  0.47000000000E+01 0. -1.
         -5    1    3    3    0  502  0.65209000623E+02  0.22339796568E+02 -0.53470880809E+01  0.69296187657E+02  0.47000000000E+01 0. -1.
        -11    1    1    2    0    0 -0.49394489907E+02 -0.85656644018E+01 -0.21363080173E+03  0.21943405772E+03  0.00000000000E+00 0.  1.
         11    1    1    2    0    0 -0.13495531414E+02 -0.65305470560E+02 -0.87061678429E+02  0.10966617393E+03  0.00000000000E+00 0. -1.
<mgrwt>
<rscale>  0 0.15172197E+03</rscale>
<asrwt>0</asrwt>
<pdfrwt beam="1">  1        2 0.78890539E-02 0.15823124E+03</pdfrwt>
<pdfrwt beam="2">  1       -2 0.74419081E-01 0.15823124E+03</pdfrwt>
<totfact> 0.14120306E+03</totfact>
</mgrwt>
</event>
<event>
 6    1  0.5206756E-006  0.1452354E+03  0.7546771E-02  0.1221704E+00
          2   -1    0    0  501    0  0.00000000000E+00  0.00000000000E+00  0.10517215291E+04  0.10517215291E+04  0.00000000000E+00 0. -1.
         -2   -1    0    0    0  501 -0.00000000000E+00 -0.00000000000E+00 -0.17643483247E+02  0.17643483247E+02  0.00000000000E+00 0.  1.
          5    1    1    2  502    0 -0.33421405106E+02 -0.96946993752E+01  0.78166746336E+03  0.78245580756E+03  0.47000000000E+01 0. -1.
         -5    1    1    2    0  502 -0.18898713192E+02  0.10972576068E+02  0.14037563277E+02  0.26395112590E+02  0.47000000000E+01 0.  1.
        -11    1    1    2    0    0  0.66567613642E+02  0.16504965385E+02  0.22227408707E+03  0.23261433930E+03  0.00000000000E+00 0.  1.
         11    1    1    2    0    0 -0.14247495344E+02 -0.17782842077E+02  0.16098932191E+02  0.27899752931E+02  0.00000000000E+00 0. -1.
<mgrwt>
<rscale>  0 0.13395363E+03</rscale>
<asrwt>0</asrwt>
<pdfrwt beam="1">  1        2 0.16180326E+00 0.14523540E+03</pdfrwt>
<pdfrwt beam="2">  1       -2 0.27143829E-02 0.14523540E+03</pdfrwt>
<totfact> 0.11608727E+04</totfact>
</mgrwt>
</event>
<event>
 7    1  0.5206756E-006  0.1679143E+03  0.7546771E-02  0.1186978E+00
          2   -1    0    0  501    0  0.00000000000E+00  0.00000000000E+00  0.10193717725E+04  0.10193717725E+04  0.00000000000E+00 0.  1.
         -2   -1    0    0    0  501 -0.00000000000E+00 -0.00000000000E+00 -0.29816496500E+02  0.29816496500E+02  0.00000000000E+00 0. -1.
         23    2    1    2    0    0 -0.11105501124E+03  0.15400615038E+02  0.75985759477E+03  0.77818943090E+03  0.12499932632E+03 0.  0.
          5    1    3    3  502    0 -0.50906395772E+02 -0.52355093666E+02  0.25705245362E+03  0.26726498250E+03  0.47000000000E+01 0.  1.
         -5    1    3    3    0  502 -0.60148615465E+02  0.67755708704E+02  0.50280514115E+03  0.51092444840E+03  0.47000000000E+01 0.  1.
        -11    1    1    2    0    0  0.11043790029E+03 -0.25553271965E+02  0.23395681604E+03  0.25997171250E+03  0.00000000000E+00 0.  1.
         11    1    1    2    0    0  0.61711094726E+00  0.10152656928E+02 -0.42591348397E+01  0.11027125563E+02  0.00000000000E+00 0. -1.
<mgrwt>
<rscale>  0 0.16153177E+03</rscale>
<asrwt>0</asrwt>
<pdfrwt beam="1">  1        2 0.15682640E+00 0.16791434E+03</pdfrwt>
<pdfrwt beam="2">  1       -2 0.45871541E-02 0.16791434E+03</pdfrwt>
<totfact> 0.56051960E+03</totfact>
</mgrwt>
</event>
<event>
 7    1  0.5206756E-006  0.3370769E+03  0.7546771E-02  0.1069265E+00
         -1   -1    0    0    0  501 -0.00000000000E+00  0.00000000000E+00  0.24829697830E+03  0.24829697830E+03  0.00000000000E+00 0.  1.
          1   -1    0    0  501    0  0.00000000000E+00 -0.00000000000E+00 -0.58279160178E+03  0.58279160178E+03  0.00000000000E+00 0. -1.
         23    2    1    2    0    0 -0.27071506069E+03 -0.15719197337E+03 -0.37313058363E+03  0.50283918690E+03  0.12499941948E+03 0.  0.
          5    1    3    3  502    0 -0.22485123908E+03 -0.15272117126E+03 -0.36608702069E+03  0.45598643904E+03  0.47000000000E+01 0. -1.
         -5    1    3    3    0  502 -0.45863821603E+02 -0.44708021120E+01 -0.70435629382E+01  0.46852747864E+02  0.47000000000E+01 0. -1.
        -11    1    1    2    0    0  0.26582195907E+03  0.14826975042E+03  0.54681120182E+02  0.30924950722E+03  0.00000000000E+00 0.  1.
         11    1    1    2    0    0  0.48931016179E+01  0.89222229531E+01 -0.16045160027E+02  0.18999885951E+02  0.00000000000E+00 0. -1.
<mgrwt>
<rscale>  0 0.33426457E+03</rscale>
<asrwt>0</asrwt>
<pdfrwt beam="2">  1        1 0.89660244E-01 0.33707687E+03</pdfrwt>
<pdfrwt beam="1">  1       -1 0.38199536E-01 0.33707687E+03</pdfrwt>
<totfact> 0.24605712E+02</totfact>
</mgrwt>
</event>
<event>
 7    1  0.5206756E-006  0.1429450E+03  0.7546771E-02  0.1219925E+00
         -3   -1    0    0    0  501 -0.00000000000E+00  0.00000000000E+00  0.70522647252E+02  0.70522647252E+02  0.00000000000E+00 0.  1.
          3   -1    0    0  501    0  0.00000000000E+00 -0.00000000000E+00 -0.24315867720E+03  0.24315867720E+03  0.00000000000E+00 0. -1.
         23    2    1    2    0    0  0.46707878628E+02 -0.51303504868E+02 -0.12443824324E+03  0.18952083298E+03  0.12497837499E+03 0.  0.
          5    1    3    3  502    0 -0.34957604756E+01 -0.63027880534E+02 -0.12229780785E+03  0.13770830720E+03  0.47000000000E+01 0.  1.
         -5    1    3    3    0  502  0.50203639103E+02  0.11724375666E+02 -0.21404353838E+01  0.51812525779E+02  0.47000000000E+01 0.  1.
        -11    1    1    2    0    0 -0.72232895601E+02  0.42070469893E+02 -0.22003247086E+02  0.86438755927E+02  0.00000000000E+00 0.  1.
         11    1    1    2    0    0  0.25525016974E+02  0.92330349757E+01 -0.26194539623E+02  0.37721735544E+02  0.00000000000E+00 0. -1.
<mgrwt>
<rscale>  0 0.13520905E+03</rscale>
<asrwt>0</asrwt>
<pdfrwt beam="2">  1        3 0.37409027E-01 0.14294499E+03</pdfrwt>
<pdfrwt beam="1">  1       -3 0.10849638E-01 0.14294499E+03</pdfrwt>
<totfact> 0.10577399E+03</totfact>
</mgrwt>
</event>
<event>
 7    1  0.5206756E-006  0.1886563E+03  0.7546771E-02  0.1164711E+00
         -1   -1    0    0    0  501 -0.00000000000E+00  0.00000000000E+00  0.67970110004E+02  0.67970110004E+02  0.00000000000E+00 0.  1.
          1   -1    0    0  501    0  0.00000000000E+00 -0.00000000000E+00 -0.47670377118E+03  0.47670377118E+03  0.00000000000E+00 0. -1.
         23    2    1    2    0    0  0.10099149646E+03  0.98803244554E+02 -0.25373495188E+03  0.31618450546E+03  0.12501940727E+03 0.  0.
          5    1    3    3  502    0  0.11506958967E+03  0.67646633275E+02 -0.12509979567E+03  0.18300034518E+03  0.47000000000E+01 0.  1.
         -5    1    3    3    0  502 -0.14078093212E+02  0.31156611279E+02 -0.12863515621E+03  0.13318416028E+03  0.47000000000E+01 0.  1.
        -11    1    1    2    0    0 -0.10118644545E+03 -0.57672278794E+02 -0.74974398056E+02  0.13851335260E+03  0.00000000000E+00 0.  1.
         11    1    1    2    0    0  0.19494899117E+00 -0.41130965760E+02 -0.80024311236E+02  0.89976023129E+02  0.00000000000E+00 0. -1.
<mgrwt>
<rscale>  0 0.18323210E+03</rscale>
<asrwt>0</asrwt>
<pdfrwt beam="2">  1        1 0.73339044E-01 0.18865634E+03</pdfrwt>
<pdfrwt beam="1">  1       -1 0.10456940E-01 0.18865634E+03</pdfrwt>
<totfact> 0.26998157E+03</totfact>
</mgrwt>
</event>
<event>
 7    1  0.5206756E-006  0.1886105E+03  0.7546771E-02  0.1164201E+00
          2   -1    0    0  501    0  0.00000000000E+00  0.00000000000E+00  0.19151896188E+04  0.19151896188E+04  0.00000000000E+00 0. -1.
         -2   -1    0    0    0  501 -0.00000000000E+00 -0.00000000000E+00 -0.18222625148E+02  0.18222625148E+02  0.00000000000E+00 0.  1.
         23    2    1    2    0    0  0.18532081921E+02 -0.14002401071E+03  0.12649091870E+04  0.12788937231E+04  0.12499496718E+03 0.  0.
          5    1    3    3  502    0 -0.30895881201E+02  0.81162678126E+01  0.23129417016E+03  0.23353696159E+03  0.47000000000E+01 0.  1.
         -5    1    3    3    0  502  0.49427963121E+02 -0.14814027852E+03  0.10336150169E+04  0.10453567615E+04  0.47000000000E+01 0.  1.
        -11    1    1    2    0    0 -0.40956119803E+02  0.50054247099E+02  0.14582075997E+03  0.15951967101E+03  0.00000000000E+00 0.  1.
         11    1    1    2    0    0  0.22424037882E+02  0.89969763610E+02  0.48623704666E+03  0.49499884988E+03  0.00000000000E+00 0. -1.
<mgrwt>
<rscale>  0 0.18377300E+03</rscale>
<asrwt>0</asrwt>
<pdfrwt beam="1">  1        2 0.29464440E+00 0.18861045E+03</pdfrwt>
<pdfrwt beam="2">  1       -2 0.28034823E-02 0.18861045E+03</pdfrwt>
<totfact> 0.38530479E+03</totfact>
</mgrwt>
</event>
<event>
 7    1  0.5206756E-006  0.1281467E+03  0.7546771E-02  0.1246004E+00
         -1   -1    0    0    0  501 -0.00000000000E+00  0.00000000000E+00  0.10167174435E+03  0.10167174435E+03  0.00000000000E+00 0.  1.
          1   -1    0    0  501    0  0.00000000000E+00 -0.00000000000E+00 -0.12886641862E+03  0.12886641862E+03  0.00000000000E+00 0. -1.
         23    2    1    2    0    0  0.20253210002E+02  0.19657512774E+02 -0.45190338807E+02  0.13588131398E+03  0.12499981778E+03 0.  0.
          5    1    3    3  502    0  0.26083793852E+02  0.13929584638E+02 -0.87527489746E+02  0.92507021847E+02  0.47000000000E+01 0. -1.
         -5    1    3    3    0  502 -0.58305838494E+01  0.57279281358E+01  0.42337150939E+02  0.43374292137E+02  0.47000000000E+01 0. -1.
        -11    1    1    2    0    0 -0.52432626421E+01 -0.46467792099E+02 -0.15441439137E+02  0.49246172930E+02  0.00000000000E+00 0. -1.
         11    1    1    2    0    0 -0.15009947360E+02  0.26810279325E+02  0.33437103673E+02  0.45410676050E+02  0.00000000000E+00 0.  1.
<mgrwt>
<rscale>  0 0.11825513E+03</rscale>
<asrwt>0</asrwt>
<pdfrwt beam="2">  1        1 0.19825603E-01 0.12814665E+03</pdfrwt>
<pdfrwt beam="1">  1       -1 0.15641807E-01 0.12814665E+03</pdfrwt>
<totfact> 0.73180566E+03</totfact>
</mgrwt>
</event>
<event>
 7    1  0.5206756E-006  0.1259997E+03  0.7546771E-02  0.1243770E+00
          1   -1    0    0  501    0  0.00000000000E+00  0.00000000000E+00  0.46484754040E+03  0.46484754040E+03  0.00000000000E+00 0. -1.
         -1   -1    0    0    0  501 -0.00000000000E+00 -0.00000000000E+00 -0.42194077542E+02  0.42194077542E+02  0.00000000000E+00 0.  1.
         23    2    1    2    0    0  0.42783892153E+02 -0.19088078026E+02  0.37232084892E+03  0.39306328290E+03  0.11696629289E+03 0.  0.
          5    1    3    3  502    0 -0.35642480315E+02 -0.17160600980E+02  0.19619529315E+03  0.20019879041E+03  0.47000000000E+01 0. -1.
         -5    1    3    3    0  502  0.78426372468E+02 -0.19274770463E+01  0.17612555577E+03  0.19286449249E+03  0.47000000000E+01 0.  1.
        -11    1    1    2    0    0  0.11450445659E+02 -0.11997799955E+02  0.48698788961E+02  0.51445426967E+02  0.00000000000E+00 0.  1.
         11    1    1    2    0    0 -0.54234337812E+02  0.31085877981E+02  0.16338249707E+01  0.62532908071E+02  0.00000000000E+00 0. -1.
<mgrwt>
<rscale>  0 0.11959325E+03</rscale>
<asrwt>0</asrwt>
<pdfrwt beam="1">  1        1 0.71515003E-01 0.12599972E+03</pdfrwt>
<pdfrwt beam="2">  1       -1 0.64913969E-02 0.12599972E+03</pdfrwt>
<totfact> 0.56455498E+03</totfact>
</mgrwt>
</event>
<event>
 6    1  0.5206756E-006  0.1770136E+03  0.7546771E-02  0.1194241E+00
          1   -1    0    0  501    0  0.00000000000E+00  0.00000000000E+00  0.38495647459E+03  0.38495647459E+03  0.00000000000E+00 0. -1.
         -1   -1    0    0    0  501 -0.00000000000E+00 -0.00000000000E+00 -0.51571340794E+02  0.51571340794E+02  0.00000000000E+00 0.  1.
          5    1    1    2  502    0 -0.13717205958E+02  0.64694344838E+02  0.32418068051E+02  0.73800685156E+02  0.47000000000E+01 0. -1.
         -5    1    1    2    0  502  0.63689337831E+02 -0.65920318198E+02  0.18539944473E+03  0.20687402981E+03  0.47000000000E+01 0.  1.
        -11    1    1    2    0    0 -0.25178901901E+02 -0.42512253043E+02  0.80857533764E+02  0.94758691033E+02  0.00000000000E+00 0. -1.
         11    1    1    2    0    0 -0.24793229972E+02  0.43738226402E+02  0.34710087257E+02  0.61094409390E+02  0.00000000000E+00 0.  1.
<mgrwt>
<rscale>  0 0.15518652E+03</rscale>
<asrwt>0</asrwt>
<pdfrwt beam="1">  1        1 0.59224071E-01 0.17701363E+03</pdfrwt>
<pdfrwt beam="2">  1       -1 0.79340527E-02 0.17701363E+03</pdfrwt>
<totfact> 0.54069075E+03</totfact>
</mgrwt>
</event>
<event>
 6    1  0.5206756E-006  0.1944397E+03  0.7546771E-02  0.1175384E+00
          2   -1    0    0  501    0  0.00000000000E+00  0.00000000000E+00  0.14549785592E+03  0.14549785592E+03  0.00000000000E+00 0. -1.
         -2   -1    0    0    0  501 -0.00000000000E+00 -0.00000000000E+00 -0.29365672934E+03  0.29365672934E+03  0.00000000000E+00 0.  1.
          5    1    1    2  502    0  0.11240113695E+03 -0.72734997914E+01  0.87709944985E+02  0.14283572325E+03  0.47000000000E+01 0. -1.
         -5    1    1    2    0  502 -0.39322728787E+02  0.31009393379E+02 -0.31768798544E+02  0.59491226563E+02  0.47000000000E+01 0.  1.
        -11    1    1    2    0    0  0.83041683009E+01 -0.22085122699E+02 -0.10956611401E+03  0.11207785327E+03  0.00000000000E+00 0. -1.
         11    1    1    2    0    0 -0.81382576462E+02 -0.16507708888E+01 -0.94533905860E+02  0.12474978218E+03  0.00000000000E+00 0.  1.
<mgrwt>
<rscale>  0 0.17238476E+03</rscale>
<asrwt>0</asrwt>
<pdfrwt beam="1">  1        2 0.22384286E-01 0.19443966E+03</pdfrwt>
<pdfrwt beam="2">  1       -2 0.45177958E-01 0.19443966E+03</pdfrwt>
<totfact> 0.11373276E+03</totfact>
</mgrwt>
</event>
<event>
 7    1  0.5206756E-006  0.1674926E+03  0.7546771E-02  0.1186077E+00
         -1   -1    0    0    0  501 -0.00000000000E+00  0.00000000000E+00  0.31868300864E+02  0.31868300864E+02  0.00000000000E+00 0.  1.
          1   -1    0    0  501    0  0.00000000000E+00 -0.00000000000E+00 -0.10297878882E+04  0.10297878882E+04  0.00000000000E+00 0. -1.
         23    2    1    2    0    0 -0.73479069949E+02 -0.83884228221E+02 -0.78360188665E+03  0.80130248772E+03  0.12497208731E+03 0.  0.
          5    1    3    3  502    0  0.20170211423E+02  0.18405291374E+02 -0.10052561507E+03  0.10427406899E+03  0.47000000000E+01 0. -1.
         -5    1    3    3    0  502 -0.93649281373E+02 -0.10228951959E+03 -0.68307627158E+03  0.69702841873E+03  0.47000000000E+01 0. -1.
        -11    1    1    2    0    0  0.49720524304E+02  0.55325036328E+02 -0.44843989522E+02  0.86856050900E+02  0.00000000000E+00 0.  1.
         11    1    1    2    0    0  0.23758545646E+02  0.28559191893E+02 -0.16947371116E+03  0.17349765043E+03  0.00000000000E+00 0. -1.
<mgrwt>
<rscale>  0 0.16234278E+03</rscale>
<asrwt>0</asrwt>
<pdfrwt beam="2">  1        1 0.15842891E+00 0.16749257E+03</pdfrwt>
<pdfrwt beam="1">  1       -1 0.49028155E-02 0.16749257E+03</pdfrwt>
<totfact> 0.27300913E+03</totfact>
</mgrwt>
</event>
<event>
 7    1  0.5206756E-006  0.1252004E+03  0.7546771E-02  0.1250664E+00
          1   -1    0    0  501    0  0.00000000000E+00  0.00000000000E+00  0.53725155827E+02  0.53725155827E+02  0.00000000000E+00 0. -1.
         -1   -1    0    0    0  501 -0.00000000000E+00 -0.00000000000E+00 -0.22279582123E+03  0.22279582123E+03  0.00000000000E+00 0.  1.
         23    2    1    2    0    0 -0.49763448441E+01 -0.49666916383E+01 -0.75713071774E+02  0.14631342494E+03  0.12500286816E+03 0.  0.
          5    1    3    3  502    0  0.77645346923E+01 -0.41979359089E+02  0.16512575924E+02  0.46014234235E+02  0.47000000000E+01 0. -1.
         -5    1    3    3    0  502 -0.12740879536E+02  0.37012667451E+02 -0.92225647698E+02  0.10029919071E+03  0.47000000000E+01 0. -1.
        -11    1    1    2    0    0 -0.13962352893E+02 -0.34395941427E+02 -0.14099421696E+02  0.39709215267E+02  0.00000000000E+00 0. -1.
         11    1    1    2    0    0  0.18938697737E+02  0.39362633066E+02 -0.79258171933E+02  0.90498336847E+02  0.00000000000E+00 0.  1.
<mgrwt>
<rscale>  0 0.11552727E+03</rscale>
<asrwt>0</asrwt>
<pdfrwt beam="1">  1        1 0.82654085E-02 0.12520044E+03</pdfrwt>
<pdfrwt beam="2">  1       -1 0.34276281E-01 0.12520044E+03</pdfrwt>
<totfact> 0.63618100E+03</totfact>
</mgrwt>
</event>
<event>
 6    1  0.5206756E-006  0.2538656E+03  0.7546771E-02  0.1134005E+00
          2   -1    0    0  501    0  0.00000000000E+00  0.00000000000E+00  0.12825184749E+04  0.12825184749E+04  0.00000000000E+00 0. -1.
         -2   -1    0    0    0  501 -0.00000000000E+00 -0.00000000000E+00 -0.48578391464E+02  0.48578391464E+02  0.00000000000E+00 0.  1.
          5    1    1    2  502    0 -0.89905604991E+02  0.73844739390E+02  0.98744075008E+03  0.99428234836E+03  0.47000000000E+01 0. -1.
         -5    1    1    2    0  502  0.77688701874E+02  0.11386595466E+02  0.13266073283E+03  0.15422758829E+03  0.47000000000E+01 0.  1.
        -11    1    1    2    0    0  0.67336306544E+01 -0.97955949475E+02  0.12895538721E+03  0.16208084930E+03  0.00000000000E+00 0.  1.
         11    1    1    2    0    0  0.54832724625E+01  0.12724614619E+02 -0.15116786684E+02  0.20506080409E+02  0.00000000000E+00 0. -1.
<mgrwt>
<rscale>  0 0.21983666E+03</rscale>
<asrwt>0</asrwt>
<pdfrwt beam="1">  1        2 0.19731051E+00 0.25386560E+03</pdfrwt>
<pdfrwt beam="2">  1       -2 0.74735996E-02 0.25386560E+03</pdfrwt>
<totfact> 0.18884612E+03</totfact>
</mgrwt>
</event>
<event>
 7    1  0.5206756E-006  0.1473261E+03  0.7546771E-02  0.1213400E+00
         -1   -1    0    0    0  501 -0.00000000000E+00  0.00000000000E+00  0.84422257001E+02  0.84422257001E+02  0.00000000000E+00 0.  1.
          1   -1    0    0  501    0  0.00000000000E+00 -0.00000000000E+00 -0.63800298275E+03  0.63800298275E+03  0.00000000000E+00 0. -1.
         23    2    1    2    0    0  0.53610592106E+02  0.56633434574E+02 -0.58099099960E+03  0.59937928195E+03  0.12499416195E+03 0.  0.
          5    1    3    3  502    0  0.78935730619E+02  0.42957212581E+02 -0.54802774226E+03  0.55536714700E+03  0.47000000000E+01 0.  1.
         -5    1    3    3    0  502 -0.25325138513E+02  0.13676221993E+02 -0.32963257340E+02  0.44012134954E+02  0.47000000000E+01 0.  1.
        -11    1    1    2    0    0 -0.43765475263E+02 -0.71704467141E+02  0.47147814713E+02  0.96332050042E+02  0.00000000000E+00 0. -1.
         11    1    1    2    0    0 -0.98451168434E+01  0.15071032568E+02 -0.19737540865E+02  0.26713907758E+02  0.00000000000E+00 0.  1.
<mgrwt>
<rscale>  0 0.13994699E+03</rscale>
<asrwt>0</asrwt>
<pdfrwt beam="2">  1        1 0.98154301E-01 0.14732611E+03</pdfrwt>
<pdfrwt beam="1">  1       -1 0.12988040E-01 0.14732611E+03</pdfrwt>
<totfact> 0.12974447E+03</totfact>
</mgrwt>
</event>
<event>
 7    1  0.5206756E-006  0.1961251E+03  0.7546771E-02  0.1157519E+00
         -1   -1    0    0    0  501 -0.00000000000E+00  0.00000000000E+00  0.58994469163E+02  0.58994469163E+02  0.00000000000E+00 0.  1.
          1   -1    0    0  501    0  0.00000000000E+00 -0.00000000000E+00 -0.59118191268E+03  0.59118191268E+03  0.00000000000E+00 0. -1.
         23    2    1    2    0    0  0.13995866343E+03 -0.57024909283E+02 -0.25891150073E+03  0.32480796871E+03  0.12499913430E+03 0.  0.
          5    1    3    3  502    0  0.10329450660E+03 -0.43314691529E+02 -0.26228478197E+03  0.28523904790E+03  0.47000000000E+01 0. -1.
         -5    1    3    3    0  502  0.36664156837E+02 -0.13710217754E+02  0.33732812370E+01  0.39568920806E+02  0.47000000000E+01 0. -1.
        -11    1    1    2    0    0 -0.98160339839E+02  0.80080129595E+02 -0.21974161556E+03  0.25364277455E+03  0.00000000000E+00 0. -1.
         11    1    1    2    0    0 -0.41798323594E+02 -0.23055220312E+02 -0.53534327231E+02  0.71725638589E+02  0.00000000000E+00 0.  1.
<mgrwt>
<rscale>  0 0.19104816E+03</rscale>
<asrwt>0</asrwt>
<pdfrwt beam="2">  1        1 0.90951063E-01 0.19612509E+03</pdfrwt>
<pdfrwt beam="1">  1       -1 0.90760722E-02 0.19612509E+03</pdfrwt>
<totfact> 0.25194105E+03</totfact>
</mgrwt>
</event>
<event>
 7    1  0.5206756E-006  0.1790396E+03  0.7546771E-02  0.1174658E+00
          2   -1    0    0  501    0  0.00000000000E+00  0.00000000000E+00  0.88066445417E+02  0.88066445417E+02  0.00000000000E+00 0. -1.
         -2   -1    0    0    0  501 -0.00000000000E+00 -0.00000000000E+00 -0.33397792064E+03  0.33397792064E+03  0.00000000000E+00 0.  1.
         23    2    1    2    0    0  0.16607303527E+02 -0.12707264593E+03 -0.86978084987E+02  0.19904863366E+03  0.12502764261E+03 0.  0.
          5    1    3    3  502    0  0.35017775773E+02 -0.13883978390E+03 -0.42771035469E+02  0.14951314889E+03  0.47000000000E+01 0. -1.
         -5    1    3    3    0  502 -0.18410472246E+02  0.11767137972E+02 -0.44207049518E+02  0.49535484770E+02  0.47000000000E+01 0. -1.
        -11    1    1    2    0    0  0.15672770194E+02  0.68863772991E+02 -0.13482726857E+03  0.15220462314E+03  0.00000000000E+00 0.  1.
         11    1    1    2    0    0 -0.32280073721E+02  0.58208872942E+02 -0.24106121671E+02  0.70791109262E+02  0.00000000000E+00 0. -1.
<mgrwt>
<rscale>  0 0.17309518E+03</rscale>
<asrwt>0</asrwt>
<pdfrwt beam="1">  1        2 0.13548684E-01 0.17903958E+03</pdfrwt>
<pdfrwt beam="2">  1       -2 0.51381219E-01 0.17903958E+03</pdfrwt>
<totfact> 0.15753947E+03</totfact>
</mgrwt>
</event>
<event>
 7    1  0.5206756E-006  0.1355153E+03  0.7546771E-02  0.1231809E+00
         -2   -1    0    0    0  501 -0.00000000000E+00  0.00000000000E+00  0.33072113867E+02  0.33072113867E+02  0.00000000000E+00 0.  1.
          2   -1    0    0  501    0  0.00000000000E+00 -0.00000000000E+00 -0.47396603355E+03  0.47396603355E+03  0.00000000000E+00 0. -1.
         23    2    1    2    0    0  0.43717704306E+02  0.28770630256E+02 -0.31669943787E+03  0.34447486763E+03  0.12500165457E+03 0.  0.
          5    1    3    3  502    0 -0.29323853396E+02  0.45628858153E+02 -0.18520653309E+03  0.19304256260E+03  0.47000000000E+01 0. -1.
         -5    1    3    3    0  502  0.73041557703E+02 -0.16858227897E+02 -0.13149290478E+03  0.15143230503E+03  0.47000000000E+01 0. -1.
        -11    1    1    2    0    0  0.18228199694E+02  0.95174488774E+01 -0.24608571286E+01  0.20710019677E+02  0.00000000000E+00 0.  1.
         11    1    1    2    0    0 -0.61945904001E+02 -0.38288079133E+02 -0.12173362469E+03  0.14185326012E+03  0.00000000000E+00 0. -1.
<mgrwt>
<rscale>  0 0.12710948E+03</rscale>
<asrwt>0</asrwt>
<pdfrwt beam="2">  1        2 0.72917847E-01 0.13551531E+03</pdfrwt>
<pdfrwt beam="1">  1       -2 0.50880178E-02 0.13551531E+03</pdfrwt>
<totfact> 0.11955327E+04</totfact>
</mgrwt>
</event>
<event>
 7    1  0.5206756E-006  0.1511059E+03  0.7546771E-02  0.1208279E+00
         -1   -1    0    0    0  501 -0.00000000000E+00  0.00000000000E+00  0.12062321654E+03  0.12062321654E+03  0.00000000000E+00 0.  1.
          1   -1    0    0  501    0  0.00000000000E+00 -0.00000000000E+00 -0.21700865710E+03  0.21700865710E+03  0.00000000000E+00 0. -1.
         23    2    1    2    0    0 -0.22652903607E+02 -0.81817591763E+02 -0.14018596360E+03  0.20611912358E+03  0.12500286536E+03 0.  0.
          5    1    3    3  502    0 -0.65709954083E+02 -0.77613807291E+02 -0.70032897376E+02  0.12356535867E+03  0.47000000000E+01 0.  1.
         -5    1    3    3    0  502  0.43057050477E+02 -0.42037844727E+01 -0.70153066228E+02  0.82553764910E+02  0.47000000000E+01 0.  1.
        -11    1    1    2    0    0  0.20200660898E+01  0.75979441041E+02  0.65989603276E+02  0.10065576918E+03  0.00000000000E+00 0.  1.
         11    1    1    2    0    0  0.20632837517E+02  0.58381507226E+01 -0.22189080229E+02  0.30856980884E+02  0.00000000000E+00 0. -1.
<mgrwt>
<rscale>  0 0.14382037E+03</rscale>
<asrwt>0</asrwt>
<pdfrwt beam="2">  1        1 0.33385947E-01 0.15110589E+03</pdfrwt>
<pdfrwt beam="1">  1       -1 0.18557418E-01 0.15110589E+03</pdfrwt>
<totfact> 0.29310088E+03</totfact>
</mgrwt>
</event>
<event>
 7    1  0.5206756E-006  0.1286456E+03  0.7546771E-02  0.1243347E+00
          3   -1    0    0  501    0  0.00000000000E+00  0.00000000000E+00  0.36105235287E+02  0.36105235287E+02  0.00000000000E+00 0. -1.
         -3   -1    0    0    0  501 -0.00000000000E+00 -0.00000000000E+00 -0.36575693044E+03  0.36575693044E+03  0.00000000000E+00 0.  1.
         23    2    1    2    0    0  0.22566369909E+02 -0.19902287393E+02 -0.14892903601E+03  0.19679823579E+03  0.12507735905E+03 0.  0.
          5    1    3    3  502    0 -0.14309012172E+02 -0.30387267649E+02  0.82824470798E+01  0.34911642673E+02  0.47000000000E+01 0.  1.
         -5    1    3    3    0  502  0.36875382082E+02  0.10484980256E+02 -0.15721148309E+03  0.16188659312E+03  0.47000000000E+01 0.  1.
        -11    1    1    2    0    0 -0.24099905194E+00 -0.36067340726E+02 -0.57105384048E+02  0.67542105644E+02  0.00000000000E+00 0. -1.
         11    1    1    2    0    0 -0.22325370858E+02  0.55969628118E+02 -0.12361727509E+03  0.13752182429E+03  0.00000000000E+00 0.  1.
<mgrwt>
<rscale>  0 0.11984846E+03</rscale>
<asrwt>0</asrwt>
<pdfrwt beam="1">  1        3 0.55546519E-02 0.12864559E+03</pdfrwt>
<pdfrwt beam="2">  1       -3 0.56270293E-01 0.12864559E+03</pdfrwt>
<totfact> 0.13805074E+03</totfact>
</mgrwt>
</event>
<event>
 7    1  0.5206756E-006  0.1602632E+03  0.7546771E-02  0.1195998E+00
         -3   -1    0    0    0  501 -0.00000000000E+00  0.00000000000E+00  0.58089580050E+03  0.58089580050E+03  0.00000000000E+00 0.  1.
          3   -1    0    0  501    0  0.00000000000E+00 -0.00000000000E+00 -0.40335571623E+02  0.40335571623E+02  0.00000000000E+00 0. -1.
         23    2    1    2    0    0 -0.89652894450E+02 -0.44986778539E+02  0.21171901035E+03  0.26553574808E+03  0.12499136946E+03 0.  0.
          5    1    3    3  502    0 -0.39677214070E+02  0.57926473398E+01  0.18491143065E+03  0.18926743847E+03  0.47000000000E+01 0.  1.
         -5    1    3    3    0  502 -0.49975680380E+02 -0.50779425879E+02  0.26807579699E+02  0.76268309614E+02  0.47000000000E+01 0.  1.
        -11    1    1    2    0    0  0.19024568027E+02 -0.27383383994E+01  0.37091587410E+01  0.19575253367E+02  0.00000000000E+00 0. -1.
         11    1    1    2    0    0  0.70628326423E+02  0.47725116939E+02  0.32513205979E+03  0.33612037068E+03  0.00000000000E+00 0.  1.
<mgrwt>
<rscale>  0 0.15370108E+03</rscale>
<asrwt>0</asrwt>
<pdfrwt beam="2">  1        3 0.62054730E-02 0.16026320E+03</pdfrwt>
<pdfrwt beam="1">  1       -3 0.89368578E-01 0.16026320E+03</pdfrwt>
<totfact> 0.44703317E+02</totfact>
</mgrwt>
</event>
<event>
 7    1  0.5206756E-006  0.2142787E+03  0.7546771E-02  0.1142110E+00
         -2   -1    0    0    0  501 -0.00000000000E+00  0.00000000000E+00  0.13980052177E+03  0.13980052177E+03  0.00000000000E+00 0.  1.
          2   -1    0    0  501    0  0.00000000000E+00 -0.00000000000E+00 -0.37881916502E+03  0.37881916502E+03  0.00000000000E+00 0. -1.
         23    2    1    2    0    0  0.17307486695E+03 -0.18312107250E+02 -0.24234329382E+03  0.32348974494E+03  0.12500040072E+03 0.  0.
          5    1    3    3  502    0  0.47053037313E+02  0.40600503375E+02 -0.13161901450E+03  0.14562981897E+03  0.47000000000E+01 0. -1.
         -5    1    3    3    0  502  0.12602182964E+03 -0.58912610625E+02 -0.11072427931E+03  0.17785992597E+03  0.47000000000E+01 0. -1.
        -11    1    1    2    0    0 -0.12270447598E+03  0.45211838495E+02  0.26632189967E+02  0.13345325889E+03  0.00000000000E+00 0.  1.
         11    1    1    2    0    0 -0.50370390967E+02 -0.26899731245E+02 -0.23307539402E+02  0.61676682954E+02  0.00000000000E+00 0. -1.
<mgrwt>
<rscale>  0 0.20931454E+03</rscale>
<asrwt>0</asrwt>
<pdfrwt beam="2">  1        2 0.58279871E-01 0.21427866E+03</pdfrwt>
<pdfrwt beam="1">  1       -2 0.21507773E-01 0.21427866E+03</pdfrwt>
<totfact> 0.15619241E+03</totfact>
</mgrwt>
</event>
<event>
 7    1  0.5206756E-006  0.1667202E+03  0.7546771E-02  0.1189148E+00
         -2   -1    0    0    0  501 -0.00000000000E+00  0.00000000000E+00  0.34656078116E+02  0.34656078116E+02  0.00000000000E+00 0.  1.
          2   -1    0    0  501    0  0.00000000000E+00 -0.00000000000E+00 -0.70261648686E+03  0.70261648686E+03  0.00000000000E+00 0. -1.
         23    2    1    2    0    0 -0.83158287050E+02  0.72499229527E+02 -0.42979556238E+03  0.46099874789E+03  0.12499672445E+03 0.  0.
          5    1    3    3  502    0 -0.74172724318E+02 -0.11258818524E+02 -0.13673138786E+03  0.15603178027E+03  0.47000000000E+01 0.  1.
         -5    1    3    3    0  502 -0.89855627322E+01  0.83758048051E+02 -0.29306417452E+03  0.30496696762E+03  0.47000000000E+01 0.  1.
        -11    1    1    2    0    0  0.49811001337E+01 -0.30894896065E+02 -0.14256465685E+03  0.14595885497E+03  0.00000000000E+00 0. -1.
         11    1    1    2    0    0  0.78177186917E+02 -0.41604333462E+02 -0.95600189506E+02  0.13031496211E+03  0.00000000000E+00 0.  1.
<mgrwt>
<rscale>  0 0.15960123E+03</rscale>
<asrwt>0</asrwt>
<pdfrwt beam="2">  1        2 0.10809484E+00 0.16672019E+03</pdfrwt>
<pdfrwt beam="1">  1       -2 0.53317044E-02 0.16672019E+03</pdfrwt>
<totfact> 0.72152945E+03</totfact>
</mgrwt>
</event>
<event>
 7    1  0.5206756E-006  0.1316917E+03  0.7546771E-02  0.1238707E+00
          4   -1    0    0  501    0  0.00000000000E+00  0.00000000000E+00  0.23924958121E+02  0.23924958121E+02  0.00000000000E+00 0. -1.
         -4   -1    0    0    0  501 -0.00000000000E+00 -0.00000000000E+00 -0.56430529572E+03  0.56430529572E+03  0.00000000000E+00 0.  1.
         23    2    1    2    0    0 -0.13935548085E+02  0.39058391474E+02 -0.27520174740E+03  0.30508804786E+03  0.12499183066E+03 0.  0.
          5    1    3    3  502    0 -0.30410486711E+02  0.80848497636E+02 -0.17828279017E+03  0.19816185441E+03  0.47000000000E+01 0.  1.
         -5    1    3    3    0  502  0.16474938626E+02 -0.41790106162E+02 -0.96918957229E+02  0.10692619345E+03  0.47000000000E+01 0.  1.
        -11    1    1    2    0    0  0.49903485328E+02 -0.22931762947E+02 -0.19570658460E+03  0.20326655124E+03  0.00000000000E+00 0.  1.
         11    1    1    2    0    0 -0.35967937243E+02 -0.16126628527E+02 -0.69472005606E+02  0.79875654739E+02  0.00000000000E+00 0. -1.
<mgrwt>
<rscale>  0 0.12270082E+03</rscale>
<asrwt>0</asrwt>
<pdfrwt beam="1">  1        4 0.36807631E-02 0.13169174E+03</pdfrwt>
<pdfrwt beam="2">  1       -4 0.86816193E-01 0.13169174E+03</pdfrwt>
<totfact> 0.76064831E+02</totfact>
</mgrwt>
</event>
<event>
 7    1  0.5206756E-006  0.1525176E+03  0.7546771E-02  0.1206833E+00
          1   -1    0    0  501    0  0.00000000000E+00  0.00000000000E+00  0.89912425073E+02  0.89912425073E+02  0.00000000000E+00 0. -1.
         -1   -1    0    0    0  501 -0.00000000000E+00 -0.00000000000E+00 -0.26614703433E+03  0.26614703433E+03  0.00000000000E+00 0.  1.
         23    2    1    2    0    0 -0.65313326225E+02  0.58009479795E+02 -0.16211195503E+02  0.15337675296E+03  0.12502277856E+03 0.  0.
          5    1    3    3  502    0  0.34271901612E+02  0.36869416103E+02 -0.71867250986E+01  0.51065214202E+02  0.47000000000E+01 0. -1.
         -5    1    3    3    0  502 -0.99585227837E+02  0.21140063692E+02 -0.90244704039E+01  0.10231153875E+03  0.47000000000E+01 0. -1.
        -11    1    1    2    0    0  0.63252454057E+02 -0.19397849191E+02 -0.14812191832E+03  0.16222592944E+03  0.00000000000E+00 0.  1.
         11    1    1    2    0    0  0.20608721683E+01 -0.38611630604E+02 -0.11901495439E+02  0.40456777006E+02  0.00000000000E+00 0. -1.
<mgrwt>
<rscale>  0 0.14493928E+03</rscale>
<asrwt>0</asrwt>
<pdfrwt beam="1">  1        1 0.13832681E-01 0.15251762E+03</pdfrwt>
<pdfrwt beam="2">  1       -1 0.40945697E-01 0.15251762E+03</pdfrwt>
<totfact> 0.23943191E+03</totfact>
</mgrwt>
</event>
<event>
 7    1  0.5206756E-006  0.1365685E+03  0.7546771E-02  0.1229468E+00
          1   -1    0    0  501    0  0.00000000000E+00  0.00000000000E+00  0.72694564401E+02  0.72694564401E+02  0.00000000000E+00 0. -1.
         -1   -1    0    0    0  501 -0.00000000000E+00 -0.00000000000E+00 -0.22036252606E+03  0.22036252606E+03  0.00000000000E+00 0.  1.
         23    2    1    2    0    0  0.40247903568E+02  0.37533196032E+02 -0.43504930576E+02  0.14333053025E+03  0.12498930902E+03 0.  0.
          5    1    3    3  502    0  0.40267168449E+01  0.80154488171E+02 -0.23807439261E+02  0.83844144617E+02  0.47000000000E+01 0.  1.
         -5    1    3    3    0  502  0.36221186723E+02 -0.42621292139E+02 -0.19697491315E+02  0.59486385629E+02  0.47000000000E+01 0.  1.
        -11    1    1    2    0    0 -0.52964770568E+02 -0.53856957769E+02 -0.10460732298E+03  0.12902918601E+03  0.00000000000E+00 0.  1.
         11    1    1    2    0    0  0.12716867000E+02  0.16323761737E+02  0.44429189915E+00  0.20697374201E+02  0.00000000000E+00 0. -1.
<mgrwt>
<rscale>  0 0.12865324E+03</rscale>
<asrwt>0</asrwt>
<pdfrwt beam="1">  1        1 0.11183779E-01 0.13656852E+03</pdfrwt>
<pdfrwt beam="2">  1       -1 0.33901927E-01 0.13656852E+03</pdfrwt>
<totfact> 0.43656452E+03</totfact>
</mgrwt>
</event>
<event>
 7    1  0.5206756E-006  0.1574259E+03  0.7546771E-02  0.1199703E+00
         -2   -1    0    0    0  501 -0.00000000000E+00  0.00000000000E+00  0.30034859289E+02  0.30034859289E+02  0.00000000000E+00 0.  1.
          2   -1    0    0  501    0  0.00000000000E+00 -0.00000000000E+00 -0.71066275918E+03  0.71066275918E+03  0.00000000000E+00 0. -1.
         23    2    1    2    0    0  0.91346998655E+02 -0.28525978724E+02 -0.31853466044E+03  0.35531290153E+03  0.12499968985E+03 0.  0.
          5    1    3    3  502    0  0.87121256769E+01 -0.24265237393E+01  0.10732315966E+02  0.14800735024E+02  0.47000000000E+01 0. -1.
         -5    1    3    3    0  502  0.82634872978E+02 -0.26099454985E+02 -0.32926697641E+03  0.34051216650E+03  0.47000000000E+01 0. -1.
        -11    1    1    2    0    0 -0.56374849050E+02  0.51196379203E+02 -0.13958410413E+03  0.15900602182E+03  0.00000000000E+00 0.  1.
         11    1    1    2    0    0 -0.34972149605E+02 -0.22670400479E+02 -0.22250913532E+03  0.22637869513E+03  0.00000000000E+00 0. -1.
<mgrwt>
<rscale>  0 0.15062833E+03</rscale>
<asrwt>0</asrwt>
<pdfrwt beam="2">  1        2 0.10933273E+00 0.15742594E+03</pdfrwt>
<pdfrwt beam="1">  1       -2 0.46207475E-02 0.15742594E+03</pdfrwt>
<totfact> 0.88045653E+03</totfact>
</mgrwt>
</event>
<event>
 7    1  0.5206756E-006  0.2344686E+03  0.7546771E-02  0.1125471E+00
         -1   -1    0    0    0  501 -0.00000000000E+00  0.00000000000E+00  0.42898038535E+03  0.42898038535E+03  0.00000000000E+00 0.  1.
          1   -1    0    0  501    0  0.00000000000E+00 -0.00000000000E+00 -0.49063221434E+03  0.49063221434E+03  0.00000000000E+00 0. -1.
         23    2    1    2    0    0 -0.20491048181E+03 -0.23680867673E+02 -0.42942808338E+03  0.48926884181E+03  0.11147390599E+03 0.  0.
          5    1    3    3  502    0 -0.14889921965E+03  0.21925669496E+02 -0.21144282674E+03  0.25958018332E+03  0.47000000000E+01 0. -1.
         -5    1    3    3    0  502 -0.56011262157E+02 -0.45606537168E+02 -0.21798525665E+03  0.22968865848E+03  0.47000000000E+01 0.  1.
        -11    1    1    2    0    0  0.59584846013E+02  0.13217129958E+02  0.43834063211E+02  0.75143006969E+02  0.00000000000E+00 0. -1.
         11    1    1    2    0    0  0.14532563580E+03  0.10463737715E+02  0.32394219118E+03  0.35520075092E+03  0.00000000000E+00 0.  1.
<mgrwt>
<rscale>  0 0.23166778E+03</rscale>
<asrwt>0</asrwt>
<pdfrwt beam="2">  1        1 0.75481879E-01 0.23446859E+03</pdfrwt>
<pdfrwt beam="1">  1       -1 0.65996983E-01 0.23446859E+03</pdfrwt>
<totfact> 0.11377618E+02</totfact>
</mgrwt>
</event>
<event>
 6    1  0.5206756E-006  0.1730089E+03  0.7546771E-02  0.1199846E+00
         -1   -1    0    0    0  501 -0.00000000000E+00  0.00000000000E+00  0.38154953565E+03  0.38154953565E+03  0.00000000000E+00 0.  1.
          1   -1    0    0  501    0  0.00000000000E+00 -0.00000000000E+00 -0.25243477764E+03  0.25243477764E+03  0.00000000000E+00 0. -1.
          5    1    1    2  502    0  0.64797355083E+02 -0.12544998212E+02 -0.17424259462E+03  0.18638306249E+03  0.47000000000E+01 0. -1.
         -5    1    1    2    0  502 -0.70412952065E+02 -0.37162842389E+02 -0.40710388866E+02  0.89546001778E+02  0.47000000000E+01 0.  1.
        -11    1    1    2    0    0 -0.24077367673E+02  0.56669911306E+02  0.28503662322E+03  0.29161117101E+03  0.00000000000E+00 0.  1.
         11    1    1    2    0    0  0.29692964654E+02 -0.69620707055E+01  0.59031118271E+02  0.66444078012E+02  0.00000000000E+00 0. -1.
<mgrwt>
<rscale>  0 0.15051176E+03</rscale>
<asrwt>0</asrwt>
<pdfrwt beam="2">  1        1 0.38836120E-01 0.17300885E+03</pdfrwt>
<pdfrwt beam="1">  1       -1 0.58699929E-01 0.17300885E+03</pdfrwt>
<totfact> 0.33484021E+02</totfact>
</mgrwt>
</event>
<event>
 7    1  0.5206756E-006  0.1753162E+03  0.7546771E-02  0.1178050E+00
          2   -1    0    0  501    0  0.00000000000E+00  0.00000000000E+00  0.55227030965E+03  0.55227030965E+03  0.00000000000E+00 0. -1.
         -2   -1    0    0    0  501 -0.00000000000E+00 -0.00000000000E+00 -0.64765288531E+02  0.64765288531E+02  0.00000000000E+00 0.  1.
         23    2    1    2    0    0 -0.88572325020E+02 -0.85236989177E+02  0.40666955579E+03  0.44284976509E+03  0.12500154301E+03 0.  0.
          5    1    3    3  502    0 -0.31753704282E+02 -0.80876097072E+02  0.35590490965E+03  0.36638727534E+03  0.47000000000E+01 0. -1.
         -5    1    3    3    0  502 -0.56818620738E+02 -0.43608921056E+01  0.50764646136E+02  0.76462489757E+02  0.47000000000E+01 0. -1.
        -11    1    1    2    0    0  0.52395118217E+02  0.17695793499E+02 -0.90905278606E+01  0.56044867894E+02  0.00000000000E+00 0.  1.
         11    1    1    2    0    0  0.36177206803E+02  0.67541195679E+02  0.89925993190E+02  0.11814096519E+03  0.00000000000E+00 0. -1.
<mgrwt>
<rscale>  0 0.16980606E+03</rscale>
<asrwt>0</asrwt>
<pdfrwt beam="1">  1        2 0.84964660E-01 0.17531625E+03</pdfrwt>
<pdfrwt beam="2">  1       -2 0.99638909E-02 0.17531625E+03</pdfrwt>
<totfact> 0.36401545E+03</totfact>
</mgrwt>
</event>
<event>
 7    1  0.5206756E-006  0.1256196E+03  0.7546771E-02  0.1248514E+00
          2   -1    0    0  501    0  0.00000000000E+00  0.00000000000E+00  0.40560169806E+03  0.40560169806E+03  0.00000000000E+00 0.  1.
         -2   -1    0    0    0  501 -0.00000000000E+00 -0.00000000000E+00 -0.29777578881E+02  0.29777578881E+02  0.00000000000E+00 0. -1.
         23    2    1    2    0    0 -0.12450644361E+02 -0.12450812320E+01  0.22762807303E+03  0.25999002113E+03  0.12499481063E+03 0.  0.
          5    1    3    3  502    0 -0.33516597871E+02 -0.53810614306E+02  0.82618776448E+02  0.10424440880E+03  0.47000000000E+01 0. -1.
         -5    1    3    3    0  502  0.21065953511E+02  0.52565533074E+02  0.14500929658E+03  0.15574561233E+03  0.47000000000E+01 0. -1.
        -11    1    1    2    0    0 -0.12890583325E+01  0.31932594007E+02  0.13587031188E+03  0.13957827152E+03  0.00000000000E+00 0.  1.
         11    1    1    2    0    0  0.13739702693E+02 -0.30687512775E+02  0.12325734274E+02  0.35810984290E+02  0.00000000000E+00 0. -1.
<mgrwt>
<rscale>  0 0.11677479E+03</rscale>
<asrwt>0</asrwt>
<pdfrwt beam="1">  1        2 0.62400257E-01 0.12561955E+03</pdfrwt>
<pdfrwt beam="2">  1       -2 0.45811663E-02 0.12561955E+03</pdfrwt>
<totfact> 0.16444466E+04</totfact>
</mgrwt>
</event>
<event>
 7    1  0.5206756E-006  0.1255076E+03  0.7546771E-02  0.1246762E+00
         -1   -1    0    0    0  501 -0.00000000000E+00  0.00000000000E+00  0.11988252643E+02  0.11988252643E+02  0.00000000000E+00 0.  1.
          1   -1    0    0  501    0  0.00000000000E+00 -0.00000000000E+00 -0.10368800157E+04  0.10368800157E+04  0.00000000000E+00 0. -1.
         23    2    1    2    0    0  0.32376912664E+02  0.23451698160E+02 -0.56535514244E+03  0.57911881244E+03  0.11897022826E+03 0.  0.
          5    1    3    3  502    0  0.45882437810E+01  0.59242065705E+02 -0.46625698905E+03  0.47005142715E+03  0.47000000000E+01 0. -1.
         -5    1    3    3    0  502  0.27788668883E+02 -0.35790367545E+02 -0.99098153394E+02  0.10906738529E+03  0.47000000000E+01 0.  1.
        -11    1    1    2    0    0 -0.43228738610E+02  0.23062157813E+02 -0.25997232477E+03  0.26454904387E+03  0.00000000000E+00 0. -1.
         11    1    1    2    0    0  0.10851825946E+02 -0.46513855973E+02 -0.19956429580E+03  0.20520041200E+03  0.00000000000E+00 0.  1.
<mgrwt>
<rscale>  0 0.11780522E+03</rscale>
<asrwt>0</asrwt>
<pdfrwt beam="2">  1        1 0.15952002E+00 0.12550762E+03</pdfrwt>
<pdfrwt beam="1">  1       -1 0.18443464E-02 0.12550762E+03</pdfrwt>
<totfact> 0.11111530E+04</totfact>
</mgrwt>
</event>
<event>
 7    1  0.5206756E-006  0.1572721E+03  0.7546771E-02  0.1200343E+00
          2   -1    0    0  501    0  0.00000000000E+00  0.00000000000E+00  0.16395974008E+04  0.16395974008E+04  0.00000000000E+00 0. -1.
         -2   -1    0    0    0  501 -0.00000000000E+00 -0.00000000000E+00 -0.16741477093E+02  0.16741477093E+02  0.00000000000E+00 0.  1.
         23    2    1    2    0    0 -0.88748587627E+02 -0.35116291765E+02  0.12775445654E+04  0.12871886580E+04  0.12500023554E+03 0.  0.
          5    1    3    3  502    0 -0.51427159081E+02  0.29498155618E+02  0.91948813673E+03  0.92140947329E+03  0.47000000000E+01 0.  1.
         -5    1    3    3    0  502 -0.37321428547E+02 -0.64614447383E+02  0.35805642868E+03  0.36577918470E+03  0.47000000000E+01 0.  1.
        -11    1    1    2    0    0  0.90149354201E+02  0.51499365183E+01  0.18271064572E+03  0.20380531880E+03  0.00000000000E+00 0.  1.
         11    1    1    2    0    0 -0.14007665734E+01  0.29966355247E+02  0.16260071256E+03  0.16534490110E+03  0.00000000000E+00 0. -1.
<mgrwt>
<rscale>  0 0.15010560E+03</rscale>
<asrwt>0</asrwt>
<pdfrwt beam="1">  1        2 0.25224563E+00 0.15727214E+03</pdfrwt>
<pdfrwt beam="2">  1       -2 0.25756132E-02 0.15727214E+03</pdfrwt>
<totfact> 0.60445598E+03</totfact>
</mgrwt>
</event>
<event>
 7    1  0.5206756E-006  0.1350941E+03  0.7546771E-02  0.1232509E+00
          2   -1    0    0  501    0  0.00000000000E+00  0.00000000000E+00  0.13074320710E+03  0.13074320710E+03  0.00000000000E+00 0. -1.
         -2   -1    0    0    0  501 -0.00000000000E+00 -0.00000000000E+00 -0.17963397621E+03  0.17963397621E+03  0.00000000000E+00 0.  1.
         23    2    1    2    0    0  0.50005276304E+02  0.11155672579E+02  0.70022369789E+02  0.15216288506E+03  0.12500173851E+03 0.  0.
          5    1    3    3  502    0 -0.18563435345E+02 -0.39022417501E+02  0.46972467527E+02  0.63998850810E+02  0.47000000000E+01 0.  1.
         -5    1    3    3    0  502  0.68568711649E+02  0.50178090080E+02  0.23049902263E+02  0.88164034252E+02  0.47000000000E+01 0.  1.
        -11    1    1    2    0    0  0.20654893834E+01 -0.23932143161E+02  0.37812417567E+01  0.24316897662E+02  0.00000000000E+00 0. -1.
         11    1    1    2    0    0 -0.52070765687E+02  0.12776470583E+02 -0.12269438065E+03  0.13389740059E+03  0.00000000000E+00 0.  1.
<mgrwt>
<rscale>  0 0.12665223E+03</rscale>
<asrwt>0</asrwt>
<pdfrwt beam="1">  1        2 0.20114340E-01 0.13509408E+03</pdfrwt>
<pdfrwt beam="2">  1       -2 0.27635996E-01 0.13509408E+03</pdfrwt>
<totfact> 0.31528295E+03</totfact>
</mgrwt>
</event>
<event>
 7    1  0.5206756E-006  0.2027642E+03  0.7546771E-02  0.1152499E+00
         -2   -1    0    0    0  501 -0.00000000000E+00  0.00000000000E+00  0.83736281315E+02  0.83736281315E+02  0.00000000000E+00 0. -1.
          2   -1    0    0  501    0  0.00000000000E+00 -0.00000000000E+00 -0.45416149612E+03  0.45416149612E+03  0.00000000000E+00 0.  1.
         23    2    1    2    0    0 -0.93271815394E+02  0.12959788463E+03 -0.24815284621E+03  0.32045773129E+03  0.12497231380E+03 0.  0.
          5    1    3    3  502    0 -0.11379464352E+03  0.13685204279E+03 -0.20234717407E+03  0.26952582690E+03  0.47000000000E+01 0.  1.
         -5    1    3    3    0  502  0.20522828130E+02 -0.72541581632E+01 -0.45805672138E+02  0.50931904393E+02  0.47000000000E+01 0.  1.
        -11    1    1    2    0    0  0.40411804924E+02 -0.96362716113E+02 -0.11368491457E+03  0.15441226258E+03  0.00000000000E+00 0.  1.
         11    1    1    2    0    0  0.52860010470E+02 -0.33235168517E+02 -0.85874540146E+01  0.63027783554E+02  0.00000000000E+00 0. -1.
<mgrwt>
<rscale>  0 0.19676306E+03</rscale>
<asrwt>0</asrwt>
<pdfrwt beam="2">  1        2 0.69870997E-01 0.20276420E+03</pdfrwt>
<pdfrwt beam="1">  1       -2 0.12882505E-01 0.20276420E+03</pdfrwt>
<totfact> 0.30145826E+03</totfact>
</mgrwt>
</event>
<event>
 6    1  0.5206756E-006  0.2073891E+03  0.7546771E-02  0.1157739E+00
          1   -1    0    0  501    0  0.00000000000E+00  0.00000000000E+00  0.27649094018E+03  0.27649094018E+03  0.00000000000E+00 0. -1.
         -1   -1    0    0    0  501 -0.00000000000E+00 -0.00000000000E+00 -0.11553610648E+03  0.11553610648E+03  0.00000000000E+00 0.  1.
          5    1    1    2  502    0 -0.24847485997E+02 -0.12356055306E+01 -0.30135194256E+02  0.39359169380E+02  0.47000000000E+01 0. -1.
         -5    1    1    2    0  502  0.12415271397E+03 -0.54621937248E+02  0.14139281718E+03  0.19598844651E+03  0.47000000000E+01 0.  1.
        -11    1    1    2    0    0 -0.53651603270E+02  0.58064498121E+02  0.70993492908E+02  0.10625467760E+03  0.00000000000E+00 0. -1.
         11    1    1    2    0    0 -0.45653624699E+02 -0.22069553426E+01 -0.21296282135E+02  0.50424753176E+02  0.00000000000E+00 0.  1.
<mgrwt>
<rscale>  0 0.19080334E+03</rscale>
<asrwt>0</asrwt>
<pdfrwt beam="1">  1        1 0.42537068E-01 0.20738911E+03</pdfrwt>
<pdfrwt beam="2">  1       -1 0.17774786E-01 0.20738911E+03</pdfrwt>
<totfact> 0.23493334E+03</totfact>
</mgrwt>
</event>
<event>
 7    1  0.5206756E-006  0.1477829E+03  0.7546771E-02  0.1212502E+00
         -3   -1    0    0    0  501 -0.00000000000E+00  0.00000000000E+00  0.11746499779E+03  0.11746499779E+03  0.00000000000E+00 0.  1.
          3   -1    0    0  501    0  0.00000000000E+00 -0.00000000000E+00 -0.15420564985E+03  0.15420564985E+03  0.00000000000E+00 0. -1.
         23    2    1    2    0    0 -0.76568673342E+02 -0.18798645536E+02 -0.26083052991E+02  0.15006699023E+03  0.12499450024E+03 0.  0.
          5    1    3    3  502    0 -0.42226313561E+02 -0.45568878264E+02  0.37605797279E+02  0.72772729866E+02  0.47000000000E+01 0.  1.
         -5    1    3    3    0  502 -0.34342359781E+02  0.26770232729E+02 -0.63688850270E+02  0.77294260359E+02  0.47000000000E+01 0.  1.
        -11    1    1    2    0    0  0.23616009007E+01 -0.25607830655E+02  0.16978975077E+02  0.30815965738E+02  0.00000000000E+00 0.  1.
         11    1    1    2    0    0  0.74207072442E+02  0.44406476191E+02 -0.27636574148E+02  0.90787691669E+02  0.00000000000E+00 0. -1.
<mgrwt>
<rscale>  0 0.14061645E+03</rscale>
<asrwt>0</asrwt>
<pdfrwt beam="2">  1        3 0.23723946E-01 0.14778287E+03</pdfrwt>
<pdfrwt beam="1">  1       -3 0.18071538E-01 0.14778287E+03</pdfrwt>
<totfact> 0.10361023E+03</totfact>
</mgrwt>
</event>
<event>
 7    1  0.5206756E-006  0.3906430E+03  0.7546771E-02  0.1047943E+00
         -1   -1    0    0    0  501 -0.00000000000E+00  0.00000000000E+00  0.22706789632E+03  0.22706789632E+03  0.00000000000E+00 0.  1.
          1   -1    0    0  501    0  0.00000000000E+00 -0.00000000000E+00 -0.69499310043E+03  0.69499310043E+03  0.00000000000E+00 0. -1.
         23    2    1    2    0    0 -0.14163629562E+03  0.34192571600E+03 -0.34658436321E+03  0.52222855332E+03  0.12501162180E+03 0.  0.
          5    1    3    3  502    0 -0.16309637244E+03  0.27712411314E+03 -0.29669382943E+03  0.43754716226E+03  0.47000000000E+01 0. -1.
         -5    1    3    3    0  502  0.21460076817E+02  0.64801602860E+02 -0.49890533783E+02  0.84681391057E+02  0.47000000000E+01 0. -1.
        -11    1    1    2    0    0  0.41380689950E+02 -0.17806742751E+03 -0.94742444821E+02  0.20590410655E+03  0.00000000000E+00 0.  1.
         11    1    1    2    0    0  0.10025560567E+03 -0.16385828849E+03 -0.26598396075E+02  0.19392833689E+03  0.00000000000E+00 0. -1.
<mgrwt>
<rscale>  0 0.38820337E+03</rscale>
<asrwt>0</asrwt>
<pdfrwt beam="2">  1        1 0.10692201E+00 0.39064298E+03</pdfrwt>
<pdfrwt beam="1">  1       -1 0.34933523E-01 0.39064298E+03</pdfrwt>
<totfact> 0.22270318E+02</totfact>
</mgrwt>
</event>
<event>
 7    1  0.5206756E-006  0.2550417E+03  0.7546771E-02  0.1111966E+00
         -1   -1    0    0    0  501 -0.00000000000E+00  0.00000000000E+00  0.36483291447E+02  0.36483291447E+02  0.00000000000E+00 0.  1.
          1   -1    0    0  501    0  0.00000000000E+00 -0.00000000000E+00 -0.17387417022E+04  0.17387417022E+04  0.00000000000E+00 0. -1.
         23    2    1    2    0    0 -0.95624710724E+02 -0.20419555264E+03 -0.99613627841E+03  0.10282673623E+04  0.11919049561E+03 0.  0.
          5    1    3    3  502    0 -0.44808935900E+02 -0.16001510812E+03 -0.86445371539E+03  0.88029256024E+03  0.47000000000E+01 0. -1.
         -5    1    3    3    0  502 -0.50815774824E+02 -0.44180444523E+02 -0.13168256302E+03  0.14797480209E+03  0.47000000000E+01 0.  1.
        -11    1    1    2    0    0  0.94453453251E+01  0.53283064075E+02 -0.75912686295E+02  0.93225722878E+02  0.00000000000E+00 0. -1.
         11    1    1    2    0    0  0.86179365399E+02  0.15091248857E+03 -0.63020944603E+03  0.65373190843E+03  0.00000000000E+00 0.  1.
<mgrwt>
<rscale>  0 0.25212990E+03</rscale>
<asrwt>0</asrwt>
<pdfrwt beam="2">  1        1 0.26749871E+00 0.25504173E+03</pdfrwt>
<pdfrwt beam="1">  1       -1 0.56128143E-02 0.25504173E+03</pdfrwt>
<totfact> 0.73864392E+02</totfact>
</mgrwt>
</event>
<event>
 7    1  0.5206756E-006  0.2480590E+03  0.7546771E-02  0.1117003E+00
         -2   -1    0    0    0  501 -0.00000000000E+00  0.00000000000E+00  0.86324664425E+02  0.86324664425E+02  0.00000000000E+00 0.  1.
          2   -1    0    0  501    0  0.00000000000E+00 -0.00000000000E+00 -0.67144912178E+03  0.67144912178E+03  0.00000000000E+00 0. -1.
         23    2    1    2    0    0 -0.21306802494E+03 -0.24385333368E+02 -0.31569089902E+03  0.40148976789E+03  0.12466219258E+03 0.  0.
          5    1    3    3  502    0 -0.13077714311E+03 -0.46004705412E+02 -0.27291353002E+03  0.30614208948E+03  0.47000000000E+01 0. -1.
         -5    1    3    3    0  502 -0.82290881830E+02  0.21619372045E+02 -0.42777369002E+02  0.95347678412E+02  0.47000000000E+01 0. -1.
        -11    1    1    2    0    0  0.12956823308E+03  0.38959690841E+02 -0.10490203811E+03  0.17120228425E+03  0.00000000000E+00 0.  1.
         11    1    1    2    0    0  0.83499791867E+02 -0.14574357473E+02 -0.16453152022E+03  0.18508173406E+03  0.00000000000E+00 0. -1.
<mgrwt>
<rscale>  0 0.24423624E+03</rscale>
<asrwt>0</asrwt>
<pdfrwt beam="2">  1        2 0.10329986E+00 0.24805905E+03</pdfrwt>
<pdfrwt beam="1">  1       -2 0.13280718E-01 0.24805905E+03</pdfrwt>
<totfact> 0.18440111E+03</totfact>
</mgrwt>
</event>
<event>
 7    1  0.5206756E-006  0.1624875E+03  0.7546771E-02  0.1192658E+00
         -3   -1    0    0    0  501 -0.00000000000E+00  0.00000000000E+00  0.78517844044E+02  0.78517844044E+02  0.00000000000E+00 0.  1.
          3   -1    0    0  501    0  0.00000000000E+00 -0.00000000000E+00 -0.31250361004E+03  0.31250361004E+03  0.00000000000E+00 0. -1.
         23    2    1    2    0    0 -0.79145804294E+02  0.67166577284E+02 -0.17591825825E+03  0.23947740971E+03  0.12500715473E+03 0.  0.
          5    1    3    3  502    0 -0.61114959089E+02  0.30242072917E+02 -0.10726271669E+02  0.69186444501E+02  0.47000000000E+01 0.  1.
         -5    1    3    3    0  502 -0.18030845206E+02  0.36924504367E+02 -0.16519198658E+03  0.17029096521E+03  0.47000000000E+01 0.  1.
        -11    1    1    2    0    0  0.45307006550E+02 -0.69724342702E+02  0.13001042597E+01  0.83161884772E+02  0.00000000000E+00 0.  1.
         11    1    1    2    0    0  0.33838797744E+02  0.25577654172E+01 -0.59367612009E+02  0.68382159606E+02  0.00000000000E+00 0. -1.
<mgrwt>
<rscale>  0 0.15654159E+03</rscale>
<asrwt>0</asrwt>
<pdfrwt beam="2">  1        3 0.48077479E-01 0.16248753E+03</pdfrwt>
<pdfrwt beam="1">  1       -3 0.12079668E-01 0.16248753E+03</pdfrwt>
<totfact> 0.55225861E+02</totfact>
</mgrwt>
</event>
<event>
 7    1  0.5206756E-006  0.1294489E+03  0.7546771E-02  0.1243197E+00
          1   -1    0    0  501    0  0.00000000000E+00  0.00000000000E+00  0.10040363748E+04  0.10040363748E+04  0.00000000000E+00 0. -1.
         -1   -1    0    0    0  501 -0.00000000000E+00 -0.00000000000E+00 -0.16034834888E+02  0.16034834888E+02  0.00000000000E+00 0.  1.
         23    2    1    2    0    0 -0.13663222972E+02  0.30752277207E+02  0.78703966896E+03  0.79761422106E+03  0.12499847561E+03 0.  0.
          5    1    3    3  502    0 -0.64339722551E+02 -0.30913840857E+01  0.49894004440E+03  0.50310278717E+03  0.47000000000E+01 0. -1.
         -5    1    3    3    0  502  0.50676499579E+02  0.33843661293E+02  0.28809962456E+03  0.29451143389E+03  0.47000000000E+01 0. -1.
        -11    1    1    2    0    0  0.18354545346E+01  0.28414199279E+02  0.30947201891E+02  0.42053120205E+02  0.00000000000E+00 0.  1.
         11    1    1    2    0    0  0.11827768437E+02 -0.59166476487E+02  0.17001466903E+03  0.18040386840E+03  0.00000000000E+00 0. -1.
<mgrwt>
<rscale>  0 0.11993955E+03</rscale>
<asrwt>0</asrwt>
<pdfrwt beam="1">  1        1 0.15446709E+00 0.12944885E+03</pdfrwt>
<pdfrwt beam="2">  1       -1 0.24668985E-02 0.12944885E+03</pdfrwt>
<totfact> 0.77297076E+03</totfact>
</mgrwt>
</event>
<event>
 7    1  0.5206756E-006  0.1311413E+03  0.7546771E-02  0.1240135E+00
          1   -1    0    0  501    0  0.00000000000E+00  0.00000000000E+00  0.98006001597E+02  0.98006001597E+02  0.00000000000E+00 0. -1.
         -1   -1    0    0    0  501 -0.00000000000E+00 -0.00000000000E+00 -0.13451997689E+03  0.13451997689E+03  0.00000000000E+00 0.  1.
         23    2    1    2    0    0 -0.13359008345E+02  0.37326766473E+02 -0.10884822258E+02  0.13159222822E+03  0.12500513819E+03 0.  0.
          5    1    3    3  502    0  0.22842991685E-01  0.83075045541E+02 -0.54034377691E+01  0.83383156891E+02  0.47000000000E+01 0. -1.
         -5    1    3    3    0  502 -0.13381851337E+02 -0.45748279068E+02 -0.54813844889E+01  0.48209071333E+02  0.47000000000E+01 0. -1.
        -11    1    1    2    0    0  0.14358729869E+02  0.26493487791E+02  0.42956064707E+01  0.30438959472E+02  0.00000000000E+00 0. -1.
         11    1    1    2    0    0 -0.99972152384E+00 -0.63820254264E+02 -0.29924759509E+02  0.70494790795E+02  0.00000000000E+00 0.  1.
<mgrwt>
<rscale>  0 0.12181354E+03</rscale>
<asrwt>0</asrwt>
<pdfrwt beam="1">  1        1 0.15077846E-01 0.13114128E+03</pdfrwt>
<pdfrwt beam="2">  1       -1 0.20695381E-01 0.13114128E+03</pdfrwt>
<totfact> 0.66725690E+03</totfact>
</mgrwt>
</event>
<event>
 7    1  0.5206756E-006  0.1258788E+03  0.7546771E-02  0.1247737E+00
          2   -1    0    0  501    0  0.00000000000E+00  0.00000000000E+00  0.57927992514E+03  0.57927992514E+03  0.00000000000E+00 0. -1.
         -2   -1    0    0    0  501 -0.00000000000E+00 -0.00000000000E+00 -0.21943352715E+02  0.21943352715E+02  0.00000000000E+00 0.  1.
         23    2    1    2    0    0  0.14580515434E+02 -0.28476570003E+01  0.37822750005E+03  0.39862454132E+03  0.12499913026E+03 0.  0.
          5    1    3    3  502    0  0.32255506092E+01  0.18224077567E+02 -0.51067205231E+00  0.19101622074E+02  0.47000000000E+01 0.  1.
         -5    1    3    3    0  502  0.11354964824E+02 -0.21071734568E+02  0.37873817211E+03  0.37952291925E+03  0.47000000000E+01 0.  1.
        -11    1    1    2    0    0  0.22160369274E+02 -0.34594613663E+01  0.30486671744E+01  0.22635021777E+02  0.00000000000E+00 0.  1.
         11    1    1    2    0    0 -0.36740884707E+02  0.63071183666E+01  0.17606040520E+03  0.17996371476E+03  0.00000000000E+00 0. -1.
<mgrwt>
<rscale>  0 0.11723048E+03</rscale>
<asrwt>0</asrwt>
<pdfrwt beam="1">  1        2 0.89119977E-01 0.12587884E+03</pdfrwt>
<pdfrwt beam="2">  1       -2 0.33759009E-02 0.12587884E+03</pdfrwt>
<totfact> 0.17524214E+04</totfact>
</mgrwt>
</event>
<event>
 7    1  0.5206756E-006  0.1401744E+03  0.7546771E-02  0.1224195E+00
          2   -1    0    0  501    0  0.00000000000E+00  0.00000000000E+00  0.60060653638E+02  0.60060653638E+02  0.00000000000E+00 0.  1.
         -2   -1    0    0    0  501 -0.00000000000E+00 -0.00000000000E+00 -0.34492252361E+03  0.34492252361E+03  0.00000000000E+00 0. -1.
         23    2    1    2    0    0  0.61452068234E+02 -0.15763732840E+02 -0.56588738278E+02  0.15116599449E+03  0.12499608244E+03 0.  0.
          5    1    3    3  502    0 -0.22073662106E+02 -0.39127034875E+02 -0.44610291188E+02  0.63484954885E+02  0.47000000000E+01 0.  1.
         -5    1    3    3    0  502  0.83525730339E+02  0.23363302035E+02 -0.11978447089E+02  0.87681039600E+02  0.47000000000E+01 0.  1.
        -11    1    1    2    0    0 -0.69165327035E+02  0.38493357237E+02 -0.20745864829E+03  0.22204655315E+03  0.00000000000E+00 0.  1.
         11    1    1    2    0    0  0.77132588015E+01 -0.22729624397E+02 -0.20814483401E+02  0.31770629610E+02  0.00000000000E+00 0. -1.
<mgrwt>
<rscale>  0 0.13222205E+03</rscale>
<asrwt>0</asrwt>
<pdfrwt beam="1">  1        2 0.92401006E-02 0.14017444E+03</pdfrwt>
<pdfrwt beam="2">  1       -2 0.53065004E-01 0.14017444E+03</pdfrwt>
<totfact> 0.23263496E+03</totfact>
</mgrwt>
</event>
<event>
 7    1  0.5206756E-006  0.1498078E+03  0.7546771E-02  0.1210982E+00
          2   -1    0    0  501    0  0.00000000000E+00  0.00000000000E+00  0.19855475228E+03  0.19855475228E+03  0.00000000000E+00 0. -1.
         -2   -1    0    0    0  501 -0.00000000000E+00 -0.00000000000E+00 -0.91818475067E+02  0.91818475067E+02  0.00000000000E+00 0.  1.
         23    2    1    2    0    0 -0.14097076289E+02  0.81355001479E+02  0.54879894855E+02  0.15954365457E+03  0.12500004412E+03 0.  0.
          5    1    3    3  502    0 -0.40414954724E+01  0.10079962678E+03  0.77929065736E+00  0.10099304797E+03  0.47000000000E+01 0. -1.
         -5    1    3    3    0  502 -0.10055580816E+02 -0.19444625300E+02  0.54100604197E+02  0.58550606599E+02  0.47000000000E+01 0. -1.
        -11    1    1    2    0    0 -0.26816395280E+02 -0.77404694851E+00  0.24696073049E+02  0.36463875666E+02  0.00000000000E+00 0. -1.
         11    1    1    2    0    0  0.40913471569E+02 -0.80580954531E+02  0.27160309305E+02  0.94365697107E+02  0.00000000000E+00 0.  1.
<mgrwt>
<rscale>  0 0.14175843E+03</rscale>
<asrwt>0</asrwt>
<pdfrwt beam="1">  1        2 0.30546885E-01 0.14980779E+03</pdfrwt>
<pdfrwt beam="2">  1       -2 0.14125919E-01 0.14980779E+03</pdfrwt>
<totfact> 0.62287473E+03</totfact>
</mgrwt>
</event>
<event>
 7    1  0.5206756E-006  0.1706762E+03  0.7546771E-02  0.1183712E+00
          1   -1    0    0  501    0  0.00000000000E+00  0.00000000000E+00  0.74607387650E+03  0.74607387650E+03  0.00000000000E+00 0. -1.
         -1   -1    0    0    0  501 -0.00000000000E+00 -0.00000000000E+00 -0.34739927852E+02  0.34739927852E+02  0.00000000000E+00 0.  1.
         23    2    1    2    0    0  0.29968885488E+02 -0.11229764323E+03  0.44268941073E+03  0.47445156648E+03  0.12498591837E+03 0.  0.
          5    1    3    3  502    0  0.57198720482E+01 -0.45209606179E+02  0.28099258380E+02  0.53742755313E+02  0.47000000000E+01 0. -1.
         -5    1    3    3    0  502  0.24249013440E+02 -0.67088037049E+02  0.41459015235E+03  0.42070881117E+03  0.47000000000E+01 0. -1.
        -11    1    1    2    0    0 -0.10476532690E+02  0.11042083736E+03  0.26382920994E+03  0.28619638551E+03  0.00000000000E+00 0. -1.
         11    1    1    2    0    0 -0.19492352798E+02  0.18768058673E+01  0.48153279722E+01  0.20165852359E+02  0.00000000000E+00 0.  1.
<mgrwt>
<rscale>  0 0.16449665E+03</rscale>
<asrwt>0</asrwt>
<pdfrwt beam="1">  1        1 0.11478058E+00 0.17067623E+03</pdfrwt>
<pdfrwt beam="2">  1       -1 0.53446048E-02 0.17067623E+03</pdfrwt>
<totfact> 0.40109103E+03</totfact>
</mgrwt>
</event>
<event>
 7    1  0.5206756E-006  0.1807168E+03  0.7546771E-02  0.1175807E+00
          2   -1    0    0  501    0  0.00000000000E+00  0.00000000000E+00  0.40487204584E+03  0.40487204584E+03  0.00000000000E+00 0. -1.
         -2   -1    0    0    0  501 -0.00000000000E+00 -0.00000000000E+00 -0.79106999775E+02  0.79106999775E+02  0.00000000000E+00 0.  1.
         23    2    1    2    0    0 -0.28022336664E+02  0.12746978146E+03  0.27153334773E+03  0.32617315067E+03  0.12499907500E+03 0.  0.
          5    1    3    3  502    0 -0.86374456148E+01 -0.17090619365E+02  0.95516348432E+02  0.97530290447E+02  0.47000000000E+01 0.  1.
         -5    1    3    3    0  502 -0.19384891049E+02  0.14456040083E+03  0.17601699930E+03  0.22864286023E+03  0.47000000000E+01 0.  1.
        -11    1    1    2    0    0  0.10254907190E+02 -0.10307512098E+03  0.97351699987E+01  0.10404045954E+03  0.00000000000E+00 0.  1.
         11    1    1    2    0    0  0.17767429474E+02 -0.24394660489E+02  0.44496528331E+02  0.53765435402E+02  0.00000000000E+00 0. -1.
<mgrwt>
<rscale>  0 0.17197169E+03</rscale>
<asrwt>0</asrwt>
<pdfrwt beam="1">  1        2 0.62288006E-01 0.18071681E+03</pdfrwt>
<pdfrwt beam="2">  1       -2 0.12170308E-01 0.18071681E+03</pdfrwt>
<totfact> 0.37291219E+03</totfact>
</mgrwt>
</event>
<event>
 7    1  0.5206756E-006  0.1685625E+03  0.7546771E-02  0.1185578E+00
         -1   -1    0    0    0  501 -0.00000000000E+00  0.00000000000E+00  0.21891695691E+02  0.21891695691E+02  0.00000000000E+00 0.  1.
          1   -1    0    0  501    0  0.00000000000E+00 -0.00000000000E+00 -0.11352124351E+04  0.11352124351E+04  0.00000000000E+00 0. -1.
         23    2    1    2    0    0 -0.75143465372E+02  0.84515009741E+02 -0.60827521737E+03  0.63119891150E+03  0.12499599415E+03 0.  0.
          5    1    3    3  502    0 -0.86907211132E+02  0.40692321793E+02 -0.54377660620E+03  0.55219907267E+03  0.47000000000E+01 0. -1.
         -5    1    3    3    0  502  0.11763745761E+02  0.43822687948E+02 -0.64498611167E+02  0.78999838834E+02  0.47000000000E+01 0. -1.
        -11    1    1    2    0    0  0.45018416713E+02  0.10751731143E+02 -0.14137646674E+03  0.14876008508E+03  0.00000000000E+00 0. -1.
         11    1    1    2    0    0  0.30125048659E+02 -0.95266740884E+02 -0.36366905532E+03  0.37714513423E+03  0.00000000000E+00 0.  1.
<mgrwt>
<rscale>  0 0.16279423E+03</rscale>
<asrwt>0</asrwt>
<pdfrwt beam="2">  1        1 0.17464808E+00 0.16856253E+03</pdfrwt>
<pdfrwt beam="1">  1       -1 0.33679529E-02 0.16856253E+03</pdfrwt>
<totfact> 0.39972559E+03</totfact>
</mgrwt>
</event>
<event>
 7    1  0.7053459E-006  0.2759312E+03  0.7546771E-02  0.1099549E+00
          1   -1    0    0  501    0  0.00000000000E+00  0.00000000000E+00  0.92346660345E+03  0.92346660345E+03  0.00000000000E+00 0. -1.
         -1   -1    0    0    0  501 -0.00000000000E+00 -0.00000000000E+00 -0.80981472968E+02  0.80981472968E+02  0.00000000000E+00 0.  1.
         23    2    1    2    0    0 -0.23487537718E+03  0.73120489877E+02  0.50665848718E+03  0.57692362658E+03  0.12499999769E+03 0.  0.
          5    1    3    3  502    0 -0.64046194257E+02 -0.13326290151E+02  0.52413885121E+02  0.83957193625E+02  0.47000000000E+01 0. -1.
         -5    1    3    3    0  502 -0.17082918293E+03  0.86446780028E+02  0.45424460206E+03  0.49296643295E+03  0.47000000000E+01 0. -1.
        -11    1    1    2    0    0  0.11183950950E+03 -0.27722603517E+02  0.23628121352E+03  0.26287911764E+03  0.00000000000E+00 0.  1.
         11    1    1    2    0    0  0.12303586769E+03 -0.45397886360E+02  0.99545429780E+02  0.16464533220E+03  0.00000000000E+00 0. -1.
<mgrwt>
<rscale>  0 0.27304615E+03</rscale>
<asrwt>0</asrwt>
<pdfrwt beam="1">  1        1 0.14207178E+00 0.27593124E+03</pdfrwt>
<pdfrwt beam="2">  1       -1 0.12458689E-01 0.27593124E+03</pdfrwt>
<totfact> 0.79220372E+02</totfact>
</mgrwt>
</event>
<event>
 7    1  0.5206756E-006  0.1684000E+03  0.7546771E-02  0.1180778E+00
         -1   -1    0    0    0  501 -0.00000000000E+00  0.00000000000E+00  0.11125096910E+03  0.11125096910E+03  0.00000000000E+00 0.  1.
          1   -1    0    0  501    0  0.00000000000E+00 -0.00000000000E+00 -0.31024348378E+03  0.31024348378E+03  0.00000000000E+00 0. -1.
         23    2    1    2    0    0 -0.10688001406E+03  0.36241361510E+02 -0.19508785227E+03  0.25771653720E+03  0.12498707836E+03 0.  0.
          5    1    3    3  502    0  0.19912780203E+02  0.99046872284E+01  0.91542149906E+00  0.22749717383E+02  0.47000000000E+01 0.  1.
         -5    1    3    3    0  502 -0.12679279426E+03  0.26336674281E+02 -0.19600327377E+03  0.23496681982E+03  0.47000000000E+01 0.  1.
        -11    1    1    2    0    0  0.10130089311E+03 -0.73002246880E+02 -0.12882579933E+02  0.12552752631E+03  0.00000000000E+00 0. -1.
         11    1    1    2    0    0  0.55791209449E+01  0.36760885370E+02  0.89779175189E+01  0.38250389367E+02  0.00000000000E+00 0.  1.
<mgrwt>
<rscale>  0 0.16722047E+03</rscale>
<asrwt>0</asrwt>
<pdfrwt beam="2">  1        1 0.47729766E-01 0.16839995E+03</pdfrwt>
<pdfrwt beam="1">  1       -1 0.17115534E-01 0.16839995E+03</pdfrwt>
<totfact> 0.21470554E+03</totfact>
</mgrwt>
</event>
<event>
 7    1  0.5206756E-006  0.1478377E+03  0.7546771E-02  0.1213063E+00
          2   -1    0    0  501    0  0.00000000000E+00  0.00000000000E+00  0.62328583991E+03  0.62328583991E+03  0.00000000000E+00 0. -1.
         -2   -1    0    0    0  501 -0.00000000000E+00 -0.00000000000E+00 -0.30549897791E+02  0.30549897791E+02  0.00000000000E+00 0.  1.
         23    2    1    2    0    0 -0.46546056475E+02 -0.63752091347E+02  0.40622946618E+03  0.43229428737E+03  0.12500042871E+03 0.  0.
          5    1    3    3  502    0 -0.78319174492E+02 -0.34706109915E+01  0.24207304634E+03  0.25449437715E+03  0.47000000000E+01 0. -1.
         -5    1    3    3    0  502  0.31773118016E+02 -0.60281480356E+02  0.16415641984E+03  0.17779991022E+03  0.47000000000E+01 0. -1.
        -11    1    1    2    0    0  0.17458429832E+01  0.57878223474E+02  0.15760391232E+03  0.16790452614E+03  0.00000000000E+00 0. -1.
         11    1    1    2    0    0  0.44800213492E+02  0.58738678731E+01  0.28902563626E+02  0.53636924193E+02  0.00000000000E+00 0.  1.
<mgrwt>
<rscale>  0 0.14019755E+03</rscale>
<asrwt>0</asrwt>
<pdfrwt beam="1">  1        2 0.95890120E-01 0.14783765E+03</pdfrwt>
<pdfrwt beam="2">  1       -2 0.46999847E-02 0.14783765E+03</pdfrwt>
<totfact> 0.99758907E+03</totfact>
</mgrwt>
</event>
<event>
 7    1  0.5206756E-006  0.1539127E+03  0.7546771E-02  0.1204486E+00
          2   -1    0    0  501    0  0.00000000000E+00  0.00000000000E+00  0.10653907291E+03  0.10653907291E+03  0.00000000000E+00 0. -1.
         -2   -1    0    0    0  501 -0.00000000000E+00 -0.00000000000E+00 -0.23118921824E+03  0.23118921824E+03  0.00000000000E+00 0.  1.
         23    2    1    2    0    0 -0.85840247149E+02  0.26370350321E+02  0.76780876106E+01  0.15410411959E+03  0.12500073296E+03 0.  0.
          5    1    3    3  502    0  0.50035884876E+01 -0.40192790899E+02  0.70776692208E+01  0.41384535029E+02  0.47000000000E+01 0.  1.
         -5    1    3    3    0  502 -0.90843835637E+02  0.66563141220E+02  0.60041838978E+00  0.11271958457E+03  0.47000000000E+01 0.  1.
        -11    1    1    2    0    0  0.62796795682E+02  0.10861836469E+02 -0.12347564910E+03  0.13895198077E+03  0.00000000000E+00 0.  1.
         11    1    1    2    0    0  0.23043451468E+02 -0.37232186790E+02 -0.88525838384E+01  0.44672190783E+02  0.00000000000E+00 0. -1.
<mgrwt>
<rscale>  0 0.14678071E+03</rscale>
<asrwt>0</asrwt>
<pdfrwt beam="1">  1        2 0.16390627E-01 0.15391272E+03</pdfrwt>
<pdfrwt beam="2">  1       -2 0.35567572E-01 0.15391272E+03</pdfrwt>
<totfact> 0.25391008E+03</totfact>
</mgrwt>
</event>
<event>
 7    1  0.5206756E-006  0.1282942E+03  0.7546771E-02  0.1245719E+00
         -2   -1    0    0    0  501 -0.00000000000E+00  0.00000000000E+00  0.38214460206E+02  0.38214460206E+02  0.00000000000E+00 0.  1.
          2   -1    0    0  501    0  0.00000000000E+00 -0.00000000000E+00 -0.33919243865E+03  0.33919243865E+03  0.00000000000E+00 0. -1.
         23    2    1    2    0    0  0.20567635069E+02 -0.20280020330E+02 -0.21652220646E+03  0.25167688778E+03  0.12500033246E+03 0.  0.
          5    1    3    3  502    0  0.43734833931E+02 -0.23876971490E+02 -0.20310266046E+02  0.54013353658E+02  0.47000000000E+01 0. -1.
         -5    1    3    3    0  502 -0.23167198863E+02  0.35969511602E+01 -0.19621194042E+03  0.19766353412E+03  0.47000000000E+01 0. -1.
        -11    1    1    2    0    0 -0.18295379830E+02  0.35474235179E+02 -0.26352086374E-01  0.39914195208E+02  0.00000000000E+00 0.  1.
         11    1    1    2    0    0 -0.22722552383E+01 -0.15194214849E+02 -0.84429419891E+02  0.85815815861E+02  0.00000000000E+00 0. -1.
<mgrwt>
<rscale>  0 0.11842420E+03</rscale>
<asrwt>0</asrwt>
<pdfrwt beam="2">  1        2 0.52183451E-01 0.12829415E+03</pdfrwt>
<pdfrwt beam="1">  1       -2 0.58791478E-02 0.12829415E+03</pdfrwt>
<totfact> 0.13695630E+04</totfact>
</mgrwt>
</event>
<event>
 7    1  0.5206756E-006  0.1334692E+03  0.7546771E-02  0.1234936E+00
         -1   -1    0    0    0  501 -0.00000000000E+00  0.00000000000E+00  0.11278168401E+03  0.11278168401E+03  0.00000000000E+00 0.  1.
          1   -1    0    0  501    0  0.00000000000E+00 -0.00000000000E+00 -0.17562015577E+03  0.17562015577E+03  0.00000000000E+00 0. -1.
         23    2    1    2    0    0  0.19760848696E+02 -0.42381402462E+02 -0.11206422330E+03  0.17427684113E+03  0.12500941083E+03 0.  0.
          5    1    3    3  502    0  0.38029312893E+02  0.28485415294E+02 -0.10304822469E+02  0.48845950597E+02  0.47000000000E+01 0.  1.
         -5    1    3    3    0  502 -0.18268464196E+02 -0.70866817756E+02 -0.10175940083E+03  0.12543089054E+03  0.47000000000E+01 0.  1.
        -11    1    1    2    0    0 -0.20309457928E+02 -0.26702377720E+02  0.20419613144E+02  0.39274058336E+02  0.00000000000E+00 0.  1.
         11    1    1    2    0    0  0.54860923183E+00  0.69083780182E+02  0.28806138397E+02  0.74850940312E+02  0.00000000000E+00 0. -1.
<mgrwt>
<rscale>  0 0.12508519E+03</rscale>
<asrwt>0</asrwt>
<pdfrwt beam="2">  1        1 0.27018485E-01 0.13346920E+03</pdfrwt>
<pdfrwt beam="1">  1       -1 0.17351028E-01 0.13346920E+03</pdfrwt>
<totfact> 0.42195984E+03</totfact>
</mgrwt>
</event>
<event>
 6    1  0.5206756E-006  0.6831467E+03  0.7546771E-02  0.1031806E+00
          1   -1    0    0  501    0  0.00000000000E+00  0.00000000000E+00  0.14087807528E+04  0.14087807528E+04  0.00000000000E+00 0. -1.
         -1   -1    0    0    0  501 -0.00000000000E+00 -0.00000000000E+00 -0.11436960183E+03  0.11436960183E+03  0.00000000000E+00 0.  1.
          5    1    1    2  502    0 -0.29141945215E+03  0.76493701490E+02  0.81684159513E+03  0.87064853126E+03  0.47000000000E+01 0. -1.
         -5    1    1    2    0  502  0.33002867036E+03 -0.19073631725E+02  0.34997774179E+03  0.48144494642E+03  0.47000000000E+01 0.  1.
        -11    1    1    2    0    0 -0.22540206310E+02  0.15264806836E+02  0.75343848490E+02  0.80110990092E+02  0.00000000000E+00 0.  1.
         11    1    1    2    0    0 -0.16069011903E+02 -0.72684876601E+02  0.52247965544E+02  0.90945886842E+02  0.00000000000E+00 0. -1.
<mgrwt>
<rscale>  0 0.43656418E+03</rscale>
<asrwt>0</asrwt>
<pdfrwt beam="1">  1        1 0.21673549E+00 0.68314670E+03</pdfrwt>
<pdfrwt beam="2">  1       -1 0.17595324E-01 0.68314670E+03</pdfrwt>
<totfact> 0.19606772E+02</totfact>
</mgrwt>
</event>
<event>
 7    1  0.5206756E-006  0.1616295E+03  0.7546771E-02  0.1194939E+00
         -2   -1    0    0    0  501 -0.00000000000E+00  0.00000000000E+00  0.50695742319E+02  0.50695742319E+02  0.00000000000E+00 0.  1.
          2   -1    0    0  501    0  0.00000000000E+00 -0.00000000000E+00 -0.48573126811E+03  0.48573126811E+03  0.00000000000E+00 0. -1.
         23    2    1    2    0    0 -0.77592518748E+02 -0.66932208095E+02 -0.32142821790E+03  0.35977799717E+03  0.12499435403E+03 0.  0.
          5    1    3    3  502    0 -0.60119184872E+02 -0.10169148514E+03 -0.27286080705E+03  0.29737280401E+03  0.47000000000E+01 0.  1.
         -5    1    3    3    0  502 -0.17473333876E+02  0.34759277041E+02 -0.48567410851E+02  0.62405193165E+02  0.47000000000E+01 0.  1.
        -11    1    1    2    0    0  0.19446311299E+02  0.19199210762E+02  0.12309020877E+02  0.29971331501E+02  0.00000000000E+00 0.  1.
         11    1    1    2    0    0  0.58146207449E+02  0.47732997334E+02 -0.12591632877E+03  0.14667768175E+03  0.00000000000E+00 0. -1.
<mgrwt>
<rscale>  0 0.15459369E+03</rscale>
<asrwt>0</asrwt>
<pdfrwt beam="2">  1        2 0.74727889E-01 0.16162954E+03</pdfrwt>
<pdfrwt beam="1">  1       -2 0.77993448E-02 0.16162954E+03</pdfrwt>
<totfact> 0.61374151E+03</totfact>
</mgrwt>
</event>
<event>
 7    1  0.5206756E-006  0.1897964E+03  0.7546771E-02  0.1163631E+00
         -2   -1    0    0    0  501 -0.00000000000E+00  0.00000000000E+00  0.11291801555E+03  0.11291801555E+03  0.00000000000E+00 0.  1.
          2   -1    0    0  501    0  0.00000000000E+00 -0.00000000000E+00 -0.29321883722E+03  0.29321883722E+03  0.00000000000E+00 0. -1.
         23    2    1    2    0    0  0.14278451760E+03 -0.31296091713E+01 -0.12899640626E+03  0.22948366710E+03  0.12500187085E+03 0.  0.
          5    1    3    3  502    0 -0.17819235711E+02  0.16898020580E+02 -0.48922603490E+01  0.25477293266E+02  0.47000000000E+01 0. -1.
         -5    1    3    3    0  502  0.16060375331E+03 -0.20027629752E+02 -0.12410414591E+03  0.20400637383E+03  0.47000000000E+01 0. -1.
        -11    1    1    2    0    0 -0.12244364236E+03 -0.46122697386E+00 -0.76265924888E+02  0.14425376801E+03  0.00000000000E+00 0. -1.
         11    1    1    2    0    0 -0.20340875242E+02  0.35908361452E+01  0.24961509472E+02  0.32399417664E+02  0.00000000000E+00 0.  1.
<mgrwt>
<rscale>  0 0.18437956E+03</rscale>
<asrwt>0</asrwt>
<pdfrwt beam="2">  1        2 0.45110590E-01 0.18979642E+03</pdfrwt>
<pdfrwt beam="1">  1       -2 0.17372002E-01 0.18979642E+03</pdfrwt>
<totfact> 0.29468369E+03</totfact>
</mgrwt>
</event>
<event>
 6    1  0.5206756E-006  0.1747477E+03  0.7546771E-02  0.1194051E+00
          2   -1    0    0  501    0  0.00000000000E+00  0.00000000000E+00  0.15210476680E+04  0.15210476680E+04  0.00000000000E+00 0. -1.
         -2   -1    0    0    0  501 -0.00000000000E+00 -0.00000000000E+00 -0.17491563895E+02  0.17491563895E+02  0.00000000000E+00 0.  1.
          5    1    1    2  502    0 -0.10627753114E+03 -0.31900834256E+02  0.95987455278E+03  0.96627833668E+03  0.47000000000E+01 0. -1.
         -5    1    1    2    0  502  0.46839870910E+02  0.34362652924E+02  0.29470466427E+03  0.30041254062E+03  0.47000000000E+01 0.  1.
        -11    1    1    2    0    0 -0.10153184631E+01  0.26097067043E+02  0.18858160272E+02  0.32213630480E+02  0.00000000000E+00 0.  1.
         11    1    1    2    0    0  0.60452978694E+02 -0.28558885711E+02  0.23011872682E+03  0.23963472415E+03  0.00000000000E+00 0. -1.
<mgrwt>
<rscale>  0 0.15534844E+03</rscale>
<asrwt>0</asrwt>
<pdfrwt beam="1">  1        2 0.23400723E+00 0.17474772E+03</pdfrwt>
<pdfrwt beam="2">  1       -2 0.26910110E-02 0.17474772E+03</pdfrwt>
<totfact> 0.65508983E+03</totfact>
</mgrwt>
</event>
<event>
 7    1  0.5206756E-006  0.1464657E+03  0.7546771E-02  0.1215725E+00
          2   -1    0    0  501    0  0.00000000000E+00  0.00000000000E+00  0.36128446552E+03  0.36128446552E+03  0.00000000000E+00 0. -1.
         -2   -1    0    0    0  501 -0.00000000000E+00 -0.00000000000E+00 -0.50761433651E+02  0.50761433651E+02  0.00000000000E+00 0.  1.
         23    2    1    2    0    0 -0.47922755983E+02  0.59411886368E+02  0.22198088108E+03  0.26594682180E+03  0.12500335066E+03 0.  0.
          5    1    3    3  502    0  0.23498740672E+02  0.26547695010E+02  0.16475473234E+03  0.16859176360E+03  0.47000000000E+01 0. -1.
         -5    1    3    3    0  502 -0.71421496656E+02  0.32864191358E+02  0.57226148739E+02  0.97355058203E+02  0.47000000000E+01 0. -1.
        -11    1    1    2    0    0  0.49084248319E+02 -0.80902934394E+02  0.73947524854E+02  0.12009489855E+03  0.00000000000E+00 0. -1.
         11    1    1    2    0    0 -0.11614923360E+01  0.21491048026E+02  0.14594625929E+02  0.26004178812E+02  0.00000000000E+00 0.  1.
<mgrwt>
<rscale>  0 0.13823394E+03</rscale>
<asrwt>0</asrwt>
<pdfrwt beam="1">  1        2 0.55582224E-01 0.14646570E+03</pdfrwt>
<pdfrwt beam="2">  1       -2 0.78094516E-02 0.14646570E+03</pdfrwt>
<totfact> 0.83815199E+03</totfact>
</mgrwt>
</event>
<event>
 7    1  0.5206756E-006  0.1314931E+03  0.7546771E-02  0.1229356E+00
          2   -1    0    0  501    0  0.00000000000E+00  0.00000000000E+00  0.62565603782E+03  0.62565603782E+03  0.00000000000E+00 0. -1.
         -2   -1    0    0    0  501 -0.00000000000E+00 -0.00000000000E+00 -0.25481894668E+02  0.25481894668E+02  0.00000000000E+00 0.  1.
         23    2    1    2    0    0  0.25693765502E+01 -0.40719263669E+02  0.32762615522E+03  0.35302881004E+03  0.12500313197E+03 0.  0.
          5    1    3    3  502    0 -0.45954318056E+02  0.21439935820E+02  0.10269467335E+03  0.11462877531E+03  0.47000000000E+01 0.  1.
         -5    1    3    3    0  502  0.48523694607E+02 -0.62159199489E+02  0.22493148187E+03  0.23840003473E+03  0.47000000000E+01 0.  1.
        -11    1    1    2    0    0 -0.46868873649E+02  0.56721115122E+02  0.16037718966E+03  0.17645061400E+03  0.00000000000E+00 0. -1.
         11    1    1    2    0    0  0.44299497099E+02 -0.16001851454E+02  0.11217079827E+03  0.12165850844E+03  0.00000000000E+00 0.  1.
<mgrwt>
<rscale>  0 0.12872761E+03</rscale>
<asrwt>0</asrwt>
<pdfrwt beam="1">  1        2 0.96254763E-01 0.13149313E+03</pdfrwt>
<pdfrwt beam="2">  1       -2 0.39202920E-02 0.13149313E+03</pdfrwt>
<totfact> 0.12916342E+04</totfact>
</mgrwt>
</event>
<event>
 7    1  0.5206756E-006  0.1375763E+03  0.7546771E-02  0.1231198E+00
         -1   -1    0    0    0  501 -0.00000000000E+00  0.00000000000E+00  0.93349159687E+02  0.93349159687E+02  0.00000000000E+00 0.  1.
          1   -1    0    0  501    0  0.00000000000E+00 -0.00000000000E+00 -0.18165646830E+03  0.18165646830E+03  0.00000000000E+00 0. -1.
         23    2    1    2    0    0  0.57597993727E+02 -0.99967159095E+00 -0.10375901538E+03  0.17231710674E+03  0.12493487814E+03 0.  0.
          5    1    3    3  502    0  0.11852179818E+01 -0.26467157929E+02  0.20226025115E+02  0.33661510400E+02  0.47000000000E+01 0. -1.
         -5    1    3    3    0  502  0.56412775745E+02  0.25467486338E+02 -0.12398504050E+03  0.13865559634E+03  0.47000000000E+01 0. -1.
        -11    1    1    2    0    0 -0.46083934341E+02  0.50603582526E+01  0.48718553993E+02  0.67252016573E+02  0.00000000000E+00 0.  1.
         11    1    1    2    0    0 -0.11514059386E+02 -0.40606866617E+01 -0.33266847226E+02  0.35436504682E+02  0.00000000000E+00 0. -1.
<mgrwt>
<rscale>  0 0.12751023E+03</rscale>
<asrwt>0</asrwt>
<pdfrwt beam="2">  1        1 0.27947149E-01 0.13757635E+03</pdfrwt>
<pdfrwt beam="1">  1       -1 0.14361409E-01 0.13757635E+03</pdfrwt>
<totfact> 0.54566075E+03</totfact>
</mgrwt>
</event>
<event>
 7    1  0.5206756E-006  0.1874432E+03  0.7546771E-02  0.1165808E+00
         -2   -1    0    0    0  501 -0.00000000000E+00  0.00000000000E+00  0.17467621828E+03  0.17467621828E+03  0.00000000000E+00 0. -1.
          2   -1    0    0  501    0  0.00000000000E+00 -0.00000000000E+00 -0.20100744557E+03  0.20100744557E+03  0.00000000000E+00 0.  1.
         23    2    1    2    0    0  0.17338085735E+02 -0.13859892021E+03 -0.74937463847E+02  0.20186769857E+03  0.12499869734E+03 0.  0.
          5    1    3    3  502    0 -0.38837992536E+02 -0.10737140997E+03 -0.17629094440E+02  0.11562821591E+03  0.47000000000E+01 0.  1.
         -5    1    3    3    0  502  0.56176078271E+02 -0.31227510240E+02 -0.57308369407E+02  0.86239482662E+02  0.47000000000E+01 0.  1.
        -11    1    1    2    0    0 -0.17657603722E+02  0.52070901954E+02 -0.24825849093E+02  0.60328207189E+02  0.00000000000E+00 0.  1.
         11    1    1    2    0    0  0.31951798721E+00  0.86528018257E+02  0.73432085647E+02  0.11348775810E+03  0.00000000000E+00 0. -1.
<mgrwt>
<rscale>  0 0.18207665E+03</rscale>
<asrwt>0</asrwt>
<pdfrwt beam="2">  1        2 0.30924223E-01 0.18744318E+03</pdfrwt>
<pdfrwt beam="1">  1       -2 0.26873264E-01 0.18744318E+03</pdfrwt>
<totfact> 0.20867135E+03</totfact>
</mgrwt>
</event>
<event>
 7    1  0.5206756E-006  0.3228579E+03  0.7546771E-02  0.1075653E+00
          1   -1    0    0  501    0  0.00000000000E+00  0.00000000000E+00  0.10542106772E+04  0.10542106772E+04  0.00000000000E+00 0. -1.
         -1   -1    0    0    0  501 -0.00000000000E+00 -0.00000000000E+00 -0.15054717078E+03  0.15054717078E+03  0.00000000000E+00 0.  1.
         23    2    1    2    0    0 -0.17032984145E+03 -0.24412817347E+03  0.82134487117E+03  0.88252173586E+03  0.12500558751E+03 0.  0.
          5    1    3    3  502    0 -0.17653213825E+03 -0.24945193125E+03  0.81669110353E+03  0.87200705870E+03  0.47000000000E+01 0. -1.
         -5    1    3    3    0  502  0.62022968060E+01  0.53237577835E+01  0.46537676428E+01  0.10514677165E+02  0.47000000000E+01 0. -1.
        -11    1    1    2    0    0  0.37469531325E+02  0.59283022327E+01  0.23547324292E+01  0.38008621520E+02  0.00000000000E+00 0. -1.
         11    1    1    2    0    0  0.13286031012E+03  0.23819987124E+03  0.79963902846E+02  0.28422749062E+03  0.00000000000E+00 0.  1.
<mgrwt>
<rscale>  0 0.31999151E+03</rscale>
<asrwt>0</asrwt>
<pdfrwt beam="1">  1        1 0.16218625E+00 0.32285789E+03</pdfrwt>
<pdfrwt beam="2">  1       -1 0.23161104E-01 0.32285789E+03</pdfrwt>
<totfact> 0.23075570E+02</totfact>
</mgrwt>
</event>
<event>
 7    1  0.5206756E-006  0.1397503E+03  0.7546771E-02  0.1223908E+00
         -1   -1    0    0    0  501 -0.00000000000E+00  0.00000000000E+00  0.42316089333E+02  0.42316089333E+02  0.00000000000E+00 0.  1.
          1   -1    0    0  501    0  0.00000000000E+00 -0.00000000000E+00 -0.39800901959E+03  0.39800901959E+03  0.00000000000E+00 0. -1.
         23    2    1    2    0    0 -0.53686600570E+02  0.31988927043E+02 -0.24692405399E+03  0.28372811248E+03  0.12499844333E+03 0.  0.
          5    1    3    3  502    0 -0.34934832513E+02  0.46970121679E+01 -0.24773400648E+03  0.25027331542E+03  0.47000000000E+01 0. -1.
         -5    1    3    3    0  502 -0.18751768057E+02  0.27291914875E+02  0.80995248774E+00  0.33454797052E+02  0.47000000000E+01 0. -1.
        -11    1    1    2    0    0 -0.22589095138E+02  0.20516297075E+01 -0.48670419679E+02  0.53696239676E+02  0.00000000000E+00 0.  1.
         11    1    1    2    0    0  0.76275695708E+02 -0.34040556750E+02 -0.60098456580E+02  0.10290075677E+03  0.00000000000E+00 0. -1.
<mgrwt>
<rscale>  0 0.13242064E+03</rscale>
<asrwt>0</asrwt>
<pdfrwt beam="2">  1        1 0.61232159E-01 0.13975033E+03</pdfrwt>
<pdfrwt beam="1">  1       -1 0.65101673E-02 0.13975033E+03</pdfrwt>
<totfact> 0.68906158E+03</totfact>
</mgrwt>
</event>
<event>
 7    1  0.5206756E-006  0.1416573E+03  0.7546771E-02  0.1218861E+00
         -1   -1    0    0    0  501 -0.00000000000E+00  0.00000000000E+00  0.27622834368E+03  0.27622834368E+03  0.00000000000E+00 0.  1.
          1   -1    0    0  501    0  0.00000000000E+00 -0.00000000000E+00 -0.10101182553E+03  0.10101182553E+03  0.00000000000E+00 0. -1.
         23    2    1    2    0    0 -0.49293553507E+02 -0.44839574493E+02 -0.24854841282E+02  0.14382122468E+03  0.12500535858E+03 0.  0.
          5    1    3    3  502    0 -0.54946596276E+02 -0.41076258382E+01 -0.65560536657E+02  0.85768729727E+02  0.47000000000E+01 0. -1.
         -5    1    3    3    0  502  0.56530427687E+01 -0.40731948655E+02  0.40705695375E+02  0.58052494949E+02  0.47000000000E+01 0. -1.
        -11    1    1    2    0    0 -0.72484841492E+00  0.48187043904E+02  0.16587969908E+03  0.17273850518E+03  0.00000000000E+00 0.  1.
         11    1    1    2    0    0  0.50018401922E+02 -0.33474694111E+01  0.34191660350E+02  0.60680439350E+02  0.00000000000E+00 0. -1.
<mgrwt>
<rscale>  0 0.13596735E+03</rscale>
<asrwt>0</asrwt>
<pdfrwt beam="2">  1        1 0.15540281E-01 0.14165727E+03</pdfrwt>
<pdfrwt beam="1">  1       -1 0.42496668E-01 0.14165727E+03</pdfrwt>
<totfact> 0.19214396E+03</totfact>
</mgrwt>
</event>
<event>
 6    1  0.5206756E-006  0.2004936E+03  0.7546771E-02  0.1207479E+00
         -2   -1    0    0    0  501 -0.00000000000E+00  0.00000000000E+00  0.43054257718E+02  0.43054257718E+02  0.00000000000E+00 0.  1.
          2   -1    0    0  501    0  0.00000000000E+00 -0.00000000000E+00 -0.39134404997E+03  0.39134404997E+03  0.00000000000E+00 0. -1.
          5    1    1    2  502    0 -0.68019322618E+01 -0.69306021241E+02 -0.28781151125E+03  0.29615392429E+03  0.47000000000E+01 0. -1.
         -5    1    1    2    0  502 -0.19669059926E+02  0.64075069069E+02 -0.18066860754E+02  0.69577207849E+02  0.47000000000E+01 0.  1.
        -11    1    1    2    0    0 -0.10785346710E+02 -0.88751890099E+01 -0.13671343412E+02  0.19544777162E+02  0.00000000000E+00 0. -1.
         11    1    1    2    0    0  0.37256338898E+02  0.14106141182E+02 -0.28740076838E+02  0.49122398392E+02  0.00000000000E+00 0.  1.
<mgrwt>
<rscale>  0 0.14443826E+03</rscale>
<asrwt>0</asrwt>
<pdfrwt beam="2">  1        2 0.60206778E-01 0.20049360E+03</pdfrwt>
<pdfrwt beam="1">  1       -2 0.66237318E-02 0.20049360E+03</pdfrwt>
<totfact> 0.10119722E+04</totfact>
</mgrwt>
</event>
<event>
 7    1  0.5206756E-006  0.2604904E+03  0.7546771E-02  0.1109082E+00
         -1   -1    0    0    0  501 -0.00000000000E+00  0.00000000000E+00  0.35618431772E+03  0.35618431772E+03  0.00000000000E+00 0.  1.
          1   -1    0    0  501    0  0.00000000000E+00 -0.00000000000E+00 -0.18085622727E+03  0.18085622727E+03  0.00000000000E+00 0. -1.
         23    2    1    2    0    0 -0.10060963407E+03  0.20520449455E+03  0.72586420340E+02  0.27041461226E+03  0.12499636416E+03 0.  0.
          5    1    3    3  502    0  0.26585366043E+02  0.51901058822E+02  0.45306795127E+00  0.58504673874E+02  0.47000000000E+01 0.  1.
         -5    1    3    3    0  502 -0.12719500011E+03  0.15330343573E+03  0.72133352389E+02  0.21190993839E+03  0.47000000000E+01 0.  1.
        -11    1    1    2    0    0  0.92912392713E+02 -0.17134437047E+03  0.11890968836E+03  0.22832240362E+03  0.00000000000E+00 0.  1.
         11    1    1    2    0    0  0.76972413534E+01 -0.33860124087E+02 -0.16168018245E+02  0.38303529101E+02  0.00000000000E+00 0. -1.
<mgrwt>
<rscale>  0 0.25679902E+03</rscale>
<asrwt>0</asrwt>
<pdfrwt beam="2">  1        1 0.27824035E-01 0.26049045E+03</pdfrwt>
<pdfrwt beam="1">  1       -1 0.54797587E-01 0.26049045E+03</pdfrwt>
<totfact> 0.57850236E+02</totfact>
</mgrwt>
</event>
<event>
 7    1  0.5206756E-006  0.1670223E+03  0.7546771E-02  0.1188613E+00
          2   -1    0    0  501    0  0.00000000000E+00  0.00000000000E+00  0.56838443729E+03  0.56838443729E+03  0.00000000000E+00 0. -1.
         -2   -1    0    0    0  501 -0.00000000000E+00 -0.00000000000E+00 -0.43822369180E+02  0.43822369180E+02  0.00000000000E+00 0.  1.
         23    2    1    2    0    0 -0.98965038370E+02 -0.49761248546E+02  0.21644328026E+03  0.27339375569E+03  0.12500476553E+03 0.  0.
          5    1    3    3  502    0 -0.65983406624E+02 -0.71698358405E+02  0.66072938216E+02  0.11782269608E+03  0.47000000000E+01 0. -1.
         -5    1    3    3    0  502 -0.32981631746E+02  0.21937109860E+02  0.15037034204E+03  0.15557105961E+03  0.47000000000E+01 0. -1.
        -11    1    1    2    0    0  0.40370318340E+02  0.57443976435E+02  0.23233067668E+03  0.24270788277E+03  0.00000000000E+00 0.  1.
         11    1    1    2    0    0  0.58594720031E+02 -0.76827278896E+01  0.75788111176E+02  0.96105168013E+02  0.00000000000E+00 0. -1.
<mgrwt>
<rscale>  0 0.16007383E+03</rscale>
<asrwt>0</asrwt>
<pdfrwt beam="1">  1        2 0.87443755E-01 0.16702231E+03</pdfrwt>
<pdfrwt beam="2">  1       -2 0.67419033E-02 0.16702231E+03</pdfrwt>
<totfact> 0.64580429E+03</totfact>
</mgrwt>
</event>
<event>
 7    1  0.5206756E-006  0.1694333E+03  0.7546771E-02  0.1184442E+00
         -3   -1    0    0    0  501 -0.00000000000E+00  0.00000000000E+00  0.38653209780E+03  0.38653209780E+03  0.00000000000E+00 0.  1.
          3   -1    0    0  501    0  0.00000000000E+00 -0.00000000000E+00 -0.78428147622E+02  0.78428147622E+02  0.00000000000E+00 0. -1.
         23    2    1    2    0    0  0.11422798978E+03 -0.57554375748E+01  0.67404503719E+02  0.18234856146E+03  0.12500588800E+03 0.  0.
          5    1    3    3  502    0  0.14085933030E+03 -0.39609304346E+01  0.47712509222E+02  0.14884761818E+03  0.47000000000E+01 0.  1.
         -5    1    3    3    0  502 -0.26631340517E+02 -0.17945071402E+01  0.19691994497E+02  0.33500943283E+02  0.47000000000E+01 0.  1.
        -11    1    1    2    0    0  0.25993308617E+01  0.28857423903E+02  0.49559712075E+02  0.57407948023E+02  0.00000000000E+00 0.  1.
         11    1    1    2    0    0 -0.11682732064E+03 -0.23101986328E+02  0.19113973439E+03  0.22520373594E+03  0.00000000000E+00 0. -1.
<mgrwt>
<rscale>  0 0.16382743E+03</rscale>
<asrwt>0</asrwt>
<pdfrwt beam="2">  1        3 0.12065869E-01 0.16943326E+03</pdfrwt>
<pdfrwt beam="1">  1       -3 0.59466476E-01 0.16943326E+03</pdfrwt>
<totfact> 0.36131911E+02</totfact>
</mgrwt>
</event>
<event>
 6    1  0.5206756E-006  0.1480079E+03  0.7546771E-02  0.1218911E+00
         -1   -1    0    0    0  501 -0.00000000000E+00  0.00000000000E+00  0.28003503922E+03  0.28003503922E+03  0.00000000000E+00 0.  1.
          1   -1    0    0  501    0  0.00000000000E+00 -0.00000000000E+00 -0.62646026396E+02  0.62646026396E+02  0.00000000000E+00 0. -1.
          5    1    1    2  502    0 -0.35759598406E+02  0.26846003251E+02  0.67355061888E+01  0.45463323815E+02  0.47000000000E+01 0. -1.
         -5    1    1    2    0  502  0.74545129358E+02 -0.65153772745E+02  0.69236556466E+02  0.12090401633E+03  0.47000000000E+01 0.  1.
        -11    1    1    2    0    0 -0.64205995956E+02  0.18045372910E+02  0.64374365360E+02  0.92693604502E+02  0.00000000000E+00 0. -1.
         11    1    1    2    0    0  0.25420465003E+02  0.20262396584E+02  0.77042584814E+02  0.83620120970E+02  0.00000000000E+00 0.  1.
<mgrwt>
<rscale>  0 0.13593122E+03</rscale>
<asrwt>0</asrwt>
<pdfrwt beam="2">  1        1 0.96378503E-02 0.14800790E+03</pdfrwt>
<pdfrwt beam="1">  1       -1 0.43082313E-01 0.14800790E+03</pdfrwt>
<totfact> 0.35183121E+03</totfact>
</mgrwt>
</event>
<event>
 7    1  0.5206756E-006  0.1479291E+03  0.7546771E-02  0.1212514E+00
         -1   -1    0    0    0  501 -0.00000000000E+00  0.00000000000E+00  0.31189546107E+02  0.31189546107E+02  0.00000000000E+00 0.  1.
          1   -1    0    0  501    0  0.00000000000E+00 -0.00000000000E+00 -0.79436773205E+03  0.79436773205E+03  0.00000000000E+00 0. -1.
         23    2    1    2    0    0 -0.84310951412E+01  0.78652759165E+02 -0.62402855502E+03  0.64132258810E+03  0.12500273852E+03 0.  0.
          5    1    3    3  502    0 -0.34501124488E+02 -0.13939406349E+02 -0.74388155159E+02  0.83308596605E+02  0.47000000000E+01 0. -1.
         -5    1    3    3    0  502  0.26070029347E+02  0.92592165514E+02 -0.54964039986E+03  0.55801399149E+03  0.47000000000E+01 0. -1.
        -11    1    1    2    0    0  0.24185373581E+02 -0.45765065569E+02 -0.13632717580E+02  0.53527791944E+02  0.00000000000E+00 0.  1.
         11    1    1    2    0    0 -0.15754278440E+02 -0.32887693596E+02 -0.12551691334E+03  0.13070689811E+03  0.00000000000E+00 0. -1.
<mgrwt>
<rscale>  0 0.14060773E+03</rscale>
<asrwt>0</asrwt>
<pdfrwt beam="2">  1        1 0.12221041E+00 0.14792912E+03</pdfrwt>
<pdfrwt beam="1">  1       -1 0.47983922E-02 0.14792912E+03</pdfrwt>
<totfact> 0.42647232E+03</totfact>
</mgrwt>
</event>
<event>
 7    1  0.5206756E-006  0.1526495E+03  0.7546771E-02  0.1205819E+00
          2   -1    0    0  501    0  0.00000000000E+00  0.00000000000E+00  0.16758171415E+04  0.16758171415E+04  0.00000000000E+00 0. -1.
         -2   -1    0    0    0  501 -0.00000000000E+00 -0.00000000000E+00 -0.22150508934E+02  0.22150508934E+02  0.00000000000E+00 0.  1.
         23    2    1    2    0    0 -0.31726369383E+01 -0.87581923975E+02  0.14502772818E+04  0.14582887443E+04  0.12498483310E+03 0.  0.
          5    1    3    3  502    0  0.18522063299E+02 -0.53549239638E+02  0.21646062399E+03  0.22380321631E+03  0.47000000000E+01 0. -1.
         -5    1    3    3    0  502 -0.21694700237E+02 -0.34032684336E+02  0.12338166578E+04  0.12344855280E+04  0.47000000000E+01 0. -1.
        -11    1    1    2    0    0  0.38593056131E+02  0.29267225754E+02  0.13346618646E+03  0.14198315891E+03  0.00000000000E+00 0. -1.
         11    1    1    2    0    0 -0.35420419193E+02  0.58314698221E+02  0.69923164255E+02  0.97695747215E+02  0.00000000000E+00 0.  1.
<mgrwt>
<rscale>  0 0.14573137E+03</rscale>
<asrwt>0</asrwt>
<pdfrwt beam="1">  1        2 0.25781792E+00 0.15264949E+03</pdfrwt>
<pdfrwt beam="2">  1       -2 0.34077719E-02 0.15264949E+03</pdfrwt>
<totfact> 0.38299451E+03</totfact>
</mgrwt>
</event>
<event>
 7    1  0.5206756E-006  0.1253170E+03  0.7546771E-02  0.1251076E+00
         -2   -1    0    0    0  501 -0.00000000000E+00  0.00000000000E+00  0.17573900339E+02  0.17573900339E+02  0.00000000000E+00 0. -1.
          2   -1    0    0  501    0  0.00000000000E+00 -0.00000000000E+00 -0.99306505254E+03  0.99306505254E+03  0.00000000000E+00 0.  1.
         23    2    1    2    0    0 -0.89277110779E+01  0.59343955070E+00 -0.83196911870E+03  0.84135424622E+03  0.12499718783E+03 0.  0.
          5    1    3    3  502    0 -0.14321095043E+02  0.40528766960E+02 -0.73459034698E+03  0.73586190456E+03  0.47000000000E+01 0. -1.
         -5    1    3    3    0  502  0.53933839653E+01 -0.39935327409E+02 -0.97378771721E+02  0.10549234165E+03  0.47000000000E+01 0. -1.
        -11    1    1    2    0    0 -0.35211220977E+02  0.19900639483E+02 -0.55037852347E+02  0.68301030194E+02  0.00000000000E+00 0.  1.
         11    1    1    2    0    0  0.44138932055E+02 -0.20494079034E+02 -0.88484181157E+02  0.10098367647E+03  0.00000000000E+00 0. -1.
<mgrwt>
<rscale>  0 0.11528980E+03</rscale>
<asrwt>0</asrwt>
<pdfrwt beam="2">  1        2 0.15277921E+00 0.12531701E+03</pdfrwt>
<pdfrwt beam="1">  1       -2 0.27036775E-02 0.12531701E+03</pdfrwt>
<totfact> 0.12535931E+04</totfact>
</mgrwt>
</event>
<event>
 7    1  0.5206756E-006  0.1260031E+03  0.7546771E-02  0.1251158E+00
          1   -1    0    0  501    0  0.00000000000E+00  0.00000000000E+00  0.31766244629E+03  0.31766244629E+03  0.00000000000E+00 0. -1.
         -1   -1    0    0    0  501 -0.00000000000E+00 -0.00000000000E+00 -0.39076344735E+02  0.39076344735E+02  0.00000000000E+00 0.  1.
         23    2    1    2    0    0 -0.46211315595E+01 -0.15197798539E+02  0.21054735074E+03  0.24537108721E+03  0.12499782238E+03 0.  0.
          5    1    3    3  502    0  0.55108113247E+02  0.21884392409E+01  0.14341875318E+03  0.15372937968E+03  0.47000000000E+01 0.  1.
         -5    1    3    3    0  502 -0.59729244807E+02 -0.17386237780E+02  0.67128597551E+02  0.91641707527E+02  0.47000000000E+01 0.  1.
        -11    1    1    2    0    0 -0.30177591860E+02 -0.21895322152E+02  0.27542181925E+02  0.46353683433E+02  0.00000000000E+00 0.  1.
         11    1    1    2    0    0  0.34798723420E+02  0.37093120692E+02  0.40496568898E+02  0.65014020387E+02  0.00000000000E+00 0. -1.
<mgrwt>
<rscale>  0 0.11524258E+03</rscale>
<asrwt>0</asrwt>
<pdfrwt beam="1">  1        1 0.48871144E-01 0.12600311E+03</pdfrwt>
<pdfrwt beam="2">  1       -1 0.60117456E-02 0.12600311E+03</pdfrwt>
<totfact> 0.10207722E+04</totfact>
</mgrwt>
</event>
<event>
 7    1  0.5206756E-006  0.1666259E+03  0.7546771E-02  0.1188222E+00
          2   -1    0    0  501    0  0.00000000000E+00  0.00000000000E+00  0.10618166684E+03  0.10618166684E+03  0.00000000000E+00 0. -1.
         -2   -1    0    0    0  501 -0.00000000000E+00 -0.00000000000E+00 -0.24082887757E+03  0.24082887757E+03  0.00000000000E+00 0.  1.
         23    2    1    2    0    0 -0.11001937491E+03 -0.59122710129E+01 -0.29095004707E+02  0.16914700642E+03  0.12499989071E+03 0.  0.
          5    1    3    3  502    0  0.41602371993E+01  0.38606296903E+02 -0.25033042059E+02  0.46438097817E+02  0.47000000000E+01 0. -1.
         -5    1    3    3    0  502 -0.11417961211E+03 -0.44518567916E+02 -0.40619626483E+01  0.12270890860E+03  0.47000000000E+01 0. -1.
        -11    1    1    2    0    0  0.64375425938E+02  0.46068650537E+02 -0.40844912799E+02  0.89077623051E+02  0.00000000000E+00 0. -1.
         11    1    1    2    0    0  0.45643948968E+02 -0.40156379524E+02 -0.64707293227E+02  0.88785914934E+02  0.00000000000E+00 0.  1.
<mgrwt>
<rscale>  0 0.16042080E+03</rscale>
<asrwt>0</asrwt>
<pdfrwt beam="1">  1        2 0.16335641E-01 0.16662590E+03</pdfrwt>
<pdfrwt beam="2">  1       -2 0.37050596E-01 0.16662590E+03</pdfrwt>
<totfact> 0.23709322E+03</totfact>
</mgrwt>
</event>
<event>
 7    1  0.5206756E-006  0.1312697E+03  0.7546771E-02  0.1238755E+00
          1   -1    0    0  501    0  0.00000000000E+00  0.00000000000E+00  0.42671331784E+03  0.42671331784E+03  0.00000000000E+00 0. -1.
         -1   -1    0    0    0  501 -0.00000000000E+00 -0.00000000000E+00 -0.31590196062E+02  0.31590196062E+02  0.00000000000E+00 0.  1.
         23    2    1    2    0    0  0.26133580401E+02 -0.30401156617E+02  0.24312884525E+03  0.27630305330E+03  0.12499819009E+03 0.  0.
          5    1    3    3  502    0  0.54956562163E+02 -0.55381493268E+02  0.21474454828E+03  0.22852711991E+03  0.47000000000E+01 0. -1.
         -5    1    3    3    0  502 -0.28822981762E+02  0.24980336651E+02  0.28384296972E+02  0.47775933392E+02  0.47000000000E+01 0. -1.
        -11    1    1    2    0    0 -0.31243980006E+02  0.24913677828E+00  0.47380999870E+01  0.31602182634E+02  0.00000000000E+00 0.  1.
         11    1    1    2    0    0  0.51103996054E+01  0.30152019839E+02  0.14725617655E+03  0.15039827797E+03  0.00000000000E+00 0. -1.
<mgrwt>
<rscale>  0 0.12267109E+03</rscale>
<asrwt>0</asrwt>
<pdfrwt beam="1">  1        1 0.65648199E-01 0.13126973E+03</pdfrwt>
<pdfrwt beam="2">  1       -1 0.48600305E-02 0.13126973E+03</pdfrwt>
<totfact> 0.97011315E+03</totfact>
</mgrwt>
</event>
<event>
 6    1  0.5206756E-006  0.5187976E+03  0.7546771E-02  0.1087380E+00
         -2   -1    0    0    0  501 -0.00000000000E+00  0.00000000000E+00  0.74424810041E+02  0.74424810041E+02  0.00000000000E+00 0.  1.
          2   -1    0    0  501    0  0.00000000000E+00 -0.00000000000E+00 -0.15065291300E+04  0.15065291300E+04  0.00000000000E+00 0. -1.
          5    1    1    2  502    0 -0.15216843370E+03 -0.32008955180E+02 -0.12365985895E+04  0.12463458457E+04  0.47000000000E+01 0. -1.
         -5    1    1    2    0  502  0.19692999880E+03  0.28394079933E+01 -0.19858148851E+03  0.27972519416E+03  0.47000000000E+01 0.  1.
        -11    1    1    2    0    0 -0.30781757602E+02  0.12980754036E+02  0.17894149315E+01  0.33454724363E+02  0.00000000000E+00 0.  1.
         11    1    1    2    0    0 -0.13979807507E+02  0.16188793150E+02  0.12863431380E+01  0.21428175850E+02  0.00000000000E+00 0. -1.
<mgrwt>
<rscale>  0 0.29575832E+03</rscale>
<asrwt>0</asrwt>
<pdfrwt beam="2">  1        2 0.23177369E+00 0.51879761E+03</pdfrwt>
<pdfrwt beam="1">  1       -2 0.11449972E-01 0.51879761E+03</pdfrwt>
<totfact> 0.70959964E+02</totfact>
</mgrwt>
</event>
<event>
 7    1  0.5206756E-006  0.1660095E+03  0.7546771E-02  0.1188930E+00
         -1   -1    0    0    0  501 -0.00000000000E+00  0.00000000000E+00  0.16654678381E+03  0.16654678381E+03  0.00000000000E+00 0.  1.
          1   -1    0    0  501    0  0.00000000000E+00 -0.00000000000E+00 -0.14623474467E+03  0.14623474467E+03  0.00000000000E+00 0. -1.
         23    2    1    2    0    0 -0.59271945610E+02  0.91772195100E+02 -0.12715548628E+02  0.16649575752E+03  0.12499541097E+03 0.  0.
          5    1    3    3  502    0 -0.36960232627E+01  0.10195207398E+03 -0.31326100937E+02  0.10682368921E+03  0.47000000000E+01 0. -1.
         -5    1    3    3    0  502 -0.55575922348E+02 -0.10179878879E+02  0.18610552309E+02  0.59672068307E+02  0.47000000000E+01 0. -1.
        -11    1    1    2    0    0  0.69896251183E+02 -0.25423264110E+02  0.89721774722E+01  0.74915474076E+02  0.00000000000E+00 0. -1.
         11    1    1    2    0    0 -0.10624305573E+02 -0.66348930990E+02  0.24055410296E+02  0.71370296881E+02  0.00000000000E+00 0.  1.
<mgrwt>
<rscale>  0 0.15979382E+03</rscale>
<asrwt>0</asrwt>
<pdfrwt beam="2">  1        1 0.22497653E-01 0.16600949E+03</pdfrwt>
<pdfrwt beam="1">  1       -1 0.25622582E-01 0.16600949E+03</pdfrwt>
<totfact> 0.28588964E+03</totfact>
</mgrwt>
</event>
<event>
 7    1  0.5206756E-006  0.1968089E+03  0.7546771E-02  0.1156861E+00
          2   -1    0    0  501    0  0.00000000000E+00  0.00000000000E+00  0.34000957510E+04  0.34000957510E+04  0.00000000000E+00 0. -1.
         -2   -1    0    0    0  501 -0.00000000000E+00 -0.00000000000E+00 -0.40012641410E+02  0.40012641410E+02  0.00000000000E+00 0.  1.
         23    2    1    2    0    0 -0.46642464161E+02 -0.14468463758E+03  0.31841024517E+04  0.31901790205E+04  0.12499838217E+03 0.  0.
          5    1    3    3  502    0  0.14070331910E+00 -0.13797606541E+03  0.27548340009E+04  0.27582911154E+04  0.47000000000E+01 0. -1.
         -5    1    3    3    0  502 -0.46783167480E+02 -0.67085721707E+01  0.42926845080E+03  0.43188790508E+03  0.47000000000E+01 0. -1.
        -11    1    1    2    0    0  0.56194891608E+02  0.10124665371E+03  0.16906525931E+03  0.20491903922E+03  0.00000000000E+00 0.  1.
         11    1    1    2    0    0 -0.95524274474E+01  0.43437983875E+02  0.69153985040E+01  0.45010332700E+02  0.00000000000E+00 0. -1.
<mgrwt>
<rscale>  0 0.19178502E+03</rscale>
<asrwt>0</asrwt>
<pdfrwt beam="1">  1        2 0.52309143E+00 0.19680894E+03</pdfrwt>
<pdfrwt beam="2">  1       -2 0.61557937E-02 0.19680894E+03</pdfrwt>
<totfact> 0.17305405E+02</totfact>
</mgrwt>
</event>
<event>
 7    1  0.5206756E-006  0.1462390E+03  0.7546771E-02  0.1214756E+00
          1   -1    0    0  501    0  0.00000000000E+00  0.00000000000E+00  0.91718444249E+03  0.91718444249E+03  0.00000000000E+00 0. -1.
         -1   -1    0    0    0  501 -0.00000000000E+00 -0.00000000000E+00 -0.20812309044E+02  0.20812309044E+02  0.00000000000E+00 0.  1.
         23    2    1    2    0    0  0.74645975491E+02  0.13751384063E+02  0.62022697507E+03  0.63723412934E+03  0.12499885108E+03 0.  0.
          5    1    3    3  502    0  0.23122660294E+02 -0.34090277221E+02  0.62047925093E+02  0.74624656974E+02  0.47000000000E+01 0. -1.
         -5    1    3    3    0  502  0.51523315198E+02  0.47841661284E+02  0.55817904998E+03  0.56260947237E+03  0.47000000000E+01 0. -1.
        -11    1    1    2    0    0  0.12017846037E+02 -0.25193913187E+02  0.10417669245E+03  0.10785149574E+03  0.00000000000E+00 0.  1.
         11    1    1    2    0    0 -0.86663821528E+02  0.11442529124E+02  0.17196846594E+03  0.19291112646E+03  0.00000000000E+00 0. -1.
<mgrwt>
<rscale>  0 0.13894440E+03</rscale>
<asrwt>0</asrwt>
<pdfrwt beam="1">  1        1 0.14110527E+00 0.14623897E+03</pdfrwt>
<pdfrwt beam="2">  1       -1 0.32018944E-02 0.14623897E+03</pdfrwt>
<totfact> 0.61772836E+03</totfact>
</mgrwt>
</event>
<event>
 7    1  0.5206756E-006  0.1288022E+03  0.7546771E-02  0.1242914E+00
         -1   -1    0    0    0  501 -0.00000000000E+00  0.00000000000E+00  0.20159793278E+03  0.20159793278E+03  0.00000000000E+00 0.  1.
          1   -1    0    0  501    0  0.00000000000E+00 -0.00000000000E+00 -0.63560339344E+02  0.63560339344E+02  0.00000000000E+00 0. -1.
         23    2    1    2    0    0  0.29998157247E+02 -0.80927663028E+01  0.83997322739E+02  0.15377112040E+03  0.12499849974E+03 0.  0.
          5    1    3    3  502    0 -0.31282616113E+02 -0.25040857450E+02  0.80352269838E+02  0.89912312175E+02  0.47000000000E+01 0.  1.
         -5    1    3    3    0  502  0.61280773360E+02  0.16948091147E+02  0.36450529018E+01  0.63858808224E+02  0.47000000000E+01 0.  1.
        -11    1    1    2    0    0 -0.59774371352E+02 -0.11843640534E+02  0.40046584581E+02  0.72917598893E+02  0.00000000000E+00 0.  1.
         11    1    1    2    0    0  0.29776214106E+02  0.19936406837E+02  0.13993686115E+02  0.38469552832E+02  0.00000000000E+00 0. -1.
<mgrwt>
<rscale>  0 0.12011082E+03</rscale>
<asrwt>0</asrwt>
<pdfrwt beam="2">  1        1 0.97785138E-02 0.12880220E+03</pdfrwt>
<pdfrwt beam="1">  1       -1 0.31015066E-01 0.12880220E+03</pdfrwt>
<totfact> 0.60393414E+03</totfact>
</mgrwt>
</event>
<event>
 7    1  0.5206756E-006  0.1506447E+03  0.7546771E-02  0.1208375E+00
          2   -1    0    0  501    0  0.00000000000E+00  0.00000000000E+00  0.26485312163E+03  0.26485312163E+03  0.00000000000E+00 0. -1.
         -2   -1    0    0    0  501 -0.00000000000E+00 -0.00000000000E+00 -0.84448651989E+02  0.84448651989E+02  0.00000000000E+00 0.  1.
         23    2    1    2    0    0 -0.78685721951E+02 -0.29532023943E+02  0.16506741242E+03  0.22347503402E+03  0.12502102587E+03 0.  0.
          5    1    3    3  502    0 -0.92340038950E+02  0.19800268064E+02  0.78945874530E+02  0.12317984622E+03  0.47000000000E+01 0.  1.
         -5    1    3    3    0  502  0.13654316999E+02 -0.49332292007E+02  0.86121537895E+02  0.10029518780E+03  0.47000000000E+01 0.  1.
        -11    1    1    2    0    0  0.33203977490E+02  0.58124925823E+02 -0.76826078665E+01  0.67379771346E+02  0.00000000000E+00 0.  1.
         11    1    1    2    0    0  0.45481744461E+02 -0.28592901880E+02  0.23019665079E+02  0.58446968249E+02  0.00000000000E+00 0. -1.
<mgrwt>
<rscale>  0 0.14374612E+03</rscale>
<asrwt>0</asrwt>
<pdfrwt beam="1">  1        2 0.40746634E-01 0.15064475E+03</pdfrwt>
<pdfrwt beam="2">  1       -2 0.12992100E-01 0.15064475E+03</pdfrwt>
<totfact> 0.52359384E+03</totfact>
</mgrwt>
</event>
<event>
 7    1  0.5206756E-006  0.1318141E+03  0.7546771E-02  0.1236803E+00
          2   -1    0    0  501    0  0.00000000000E+00  0.00000000000E+00  0.69567175858E+03  0.69567175858E+03  0.00000000000E+00 0.  1.
         -2   -1    0    0    0  501 -0.00000000000E+00 -0.00000000000E+00 -0.20402383621E+02  0.20402383621E+02  0.00000000000E+00 0. -1.
         23    2    1    2    0    0  0.10491106994E+02 -0.40480290125E+02  0.43930371394E+03  0.45865313587E+03  0.12500491487E+03 0.  0.
          5    1    3    3  502    0  0.35177852706E+02 -0.43263865247E+02  0.42678851593E+03  0.43044136730E+03  0.47000000000E+01 0. -1.
         -5    1    3    3    0  502 -0.24686745711E+02  0.27835751216E+01  0.12515198017E+02  0.28211768567E+02  0.47000000000E+01 0. -1.
        -11    1    1    2    0    0 -0.38686929023E+02  0.57688143202E+02  0.17014319030E+03  0.18377514943E+03  0.00000000000E+00 0. -1.
         11    1    1    2    0    0  0.28195822029E+02 -0.17207853077E+02  0.65822470713E+02  0.73645856897E+02  0.00000000000E+00 0.  1.
<mgrwt>
<rscale>  0 0.12389725E+03</rscale>
<asrwt>0</asrwt>
<pdfrwt beam="1">  1        2 0.10702641E+00 0.13181406E+03</pdfrwt>
<pdfrwt beam="2">  1       -2 0.31388288E-02 0.13181406E+03</pdfrwt>
<totfact> 0.15854306E+04</totfact>
</mgrwt>
</event>
<event>
 7    1  0.5206756E-006  0.2396510E+03  0.7546771E-02  0.1123058E+00
         -2   -1    0    0    0  501 -0.00000000000E+00  0.00000000000E+00  0.41214849973E+02  0.41214849973E+02  0.00000000000E+00 0.  1.
          2   -1    0    0  501    0  0.00000000000E+00 -0.00000000000E+00 -0.17027562103E+04  0.17027562103E+04  0.00000000000E+00 0. -1.
         23    2    1    2    0    0  0.14352294362E+03 -0.14563400112E+03 -0.12817132166E+04  0.13039253700E+04  0.12499801257E+03 0.  0.
          5    1    3    3  502    0  0.10837925428E+03 -0.46901636813E+02 -0.43614114019E+03  0.45187056826E+03  0.47000000000E+01 0. -1.
         -5    1    3    3    0  502  0.35143689332E+02 -0.98732364307E+02 -0.84557207646E+03  0.85205480173E+03  0.47000000000E+01 0. -1.
        -11    1    1    2    0    0 -0.44645939234E+02  0.85433430731E+02 -0.10897333587E+03  0.14548992717E+03  0.00000000000E+00 0.  1.
         11    1    1    2    0    0 -0.98877004383E+02  0.60200570388E+02 -0.27085480778E+03  0.29455576309E+03  0.00000000000E+00 0. -1.
<mgrwt>
<rscale>  0 0.23516257E+03</rscale>
<asrwt>0</asrwt>
<pdfrwt beam="2">  1        2 0.26196254E+00 0.23965100E+03</pdfrwt>
<pdfrwt beam="1">  1       -2 0.63407450E-02 0.23965100E+03</pdfrwt>
<totfact> 0.14505182E+03</totfact>
</mgrwt>
</event>
<event>
 7    1  0.5206756E-006  0.1407666E+03  0.7546771E-02  0.1222946E+00
          1   -1    0    0  501    0  0.00000000000E+00  0.00000000000E+00  0.11090939921E+03  0.11090939921E+03  0.00000000000E+00 0. -1.
         -1   -1    0    0    0  501 -0.00000000000E+00 -0.00000000000E+00 -0.15461834195E+03  0.15461834195E+03  0.00000000000E+00 0.  1.
         23    2    1    2    0    0  0.11209520865E+02 -0.63773110123E+02  0.95362929242E+01  0.14108924323E+03  0.12499028258E+03 0.  0.
          5    1    3    3  502    0  0.62350477803E+02 -0.47210705986E+02 -0.18174112133E+02  0.80428982300E+02  0.47000000000E+01 0. -1.
         -5    1    3    3    0  502 -0.51140956938E+02 -0.16562404137E+02  0.27710405057E+02  0.60660260927E+02  0.47000000000E+01 0. -1.
        -11    1    1    2    0    0 -0.42160164785E+02  0.58780447696E+02 -0.58014541831E+02  0.92727059643E+02  0.00000000000E+00 0.  1.
         11    1    1    2    0    0  0.30950643920E+02  0.49926624272E+01  0.47693061603E+01  0.31711438290E+02  0.00000000000E+00 0. -1.
<mgrwt>
<rscale>  0 0.13308696E+03</rscale>
<asrwt>0</asrwt>
<pdfrwt beam="1">  1        1 0.17062984E-01 0.14076659E+03</pdfrwt>
<pdfrwt beam="2">  1       -1 0.23787437E-01 0.14076659E+03</pdfrwt>
<totfact> 0.45599911E+03</totfact>
</mgrwt>
</event>
<event>
 7    1  0.5206756E-006  0.1837376E+03  0.7546771E-02  0.1169334E+00
          2   -1    0    0  501    0  0.00000000000E+00  0.00000000000E+00  0.13997774498E+04  0.13997774498E+04  0.00000000000E+00 0.  1.
         -2   -1    0    0    0  501 -0.00000000000E+00 -0.00000000000E+00 -0.22402879385E+02  0.22402879385E+02  0.00000000000E+00 0. -1.
         23    2    1    2    0    0 -0.13003270750E+03  0.34953989461E+02  0.86821430451E+03  0.88744328653E+03  0.12501688624E+03 0.  0.
          5    1    3    3  502    0  0.12661887850E+02  0.37744487066E+02  0.22791298008E+03  0.23141172442E+03  0.47000000000E+01 0.  1.
         -5    1    3    3    0  502 -0.14269459535E+03 -0.27904976050E+01  0.64030132443E+03  0.65603156211E+03  0.47000000000E+01 0.  1.
        -11    1    1    2    0    0  0.10878670360E+03 -0.64774814764E+02  0.38435686145E+03  0.40467335031E+03  0.00000000000E+00 0. -1.
         11    1    1    2    0    0  0.21246003902E+02  0.29820825302E+02  0.12480340445E+03  0.13006369234E+03  0.00000000000E+00 0.  1.
<mgrwt>
<rscale>  0 0.17842738E+03</rscale>
<asrwt>0</asrwt>
<pdfrwt beam="1">  1        2 0.21535031E+00 0.18373761E+03</pdfrwt>
<pdfrwt beam="2">  1       -2 0.34465979E-02 0.18373761E+03</pdfrwt>
<totfact> 0.52722081E+03</totfact>
</mgrwt>
</event>
<event>
 7    1  0.5206756E-006  0.1265453E+03  0.7546771E-02  0.1243276E+00
         -2   -1    0    0    0  501 -0.00000000000E+00  0.00000000000E+00  0.30158049993E+03  0.30158049993E+03  0.00000000000E+00 0.  1.
          2   -1    0    0  501    0  0.00000000000E+00 -0.00000000000E+00 -0.56911396732E+02  0.56911396732E+02  0.00000000000E+00 0. -1.
         23    2    1    2    0    0  0.54684771536E+01  0.18875051580E+02  0.45018263695E+02  0.13431437380E+03  0.12501014011E+03 0.  0.
          5    1    3    3  502    0  0.22993201213E+02 -0.46125012084E+00  0.83972660618E+02  0.87191730026E+02  0.47000000000E+01 0. -1.
         -5    1    3    3    0  502 -0.17524724059E+02  0.19336301701E+02 -0.38954396923E+02  0.47122643776E+02  0.47000000000E+01 0. -1.
        -11    1    1    2    0    0 -0.28243900512E+02 -0.20683821108E+02  0.19821783762E+03  0.20128549257E+03  0.00000000000E+00 0.  1.
         11    1    1    2    0    0  0.22775423359E+02  0.18087695278E+01  0.14330018909E+01  0.22892030290E+02  0.00000000000E+00 0. -1.
<mgrwt>
<rscale>  0 0.11989141E+03</rscale>
<asrwt>0</asrwt>
<pdfrwt beam="2">  1        2 0.87555997E-02 0.12654528E+03</pdfrwt>
<pdfrwt beam="1">  1       -2 0.46396999E-01 0.12654528E+03</pdfrwt>
<totfact> 0.32220651E+03</totfact>
</mgrwt>
</event>
<event>
 7    1  0.5206756E-006  0.1347119E+03  0.7546771E-02  0.1233186E+00
         -2   -1    0    0    0  501 -0.00000000000E+00  0.00000000000E+00  0.18952364431E+03  0.18952364431E+03  0.00000000000E+00 0.  1.
          2   -1    0    0  501    0  0.00000000000E+00 -0.00000000000E+00 -0.75067791197E+02  0.75067791197E+02  0.00000000000E+00 0. -1.
         23    2    1    2    0    0 -0.36954152195E+02  0.33908168426E+02  0.62115499353E+02  0.14834293660E+03  0.12502767026E+03 0.  0.
          5    1    3    3  502    0 -0.52090327980E+02  0.23274902360E+02 -0.22568439773E+02  0.61534931727E+02  0.47000000000E+01 0. -1.
         -5    1    3    3    0  502  0.15136175785E+02  0.10633266066E+02  0.84683939126E+02  0.86808004876E+02  0.47000000000E+01 0. -1.
        -11    1    1    2    0    0 -0.10800879016E+02  0.17200294030E+02 -0.99220677465E+01  0.22604347604E+02  0.00000000000E+00 0. -1.
         11    1    1    2    0    0  0.47755031211E+02 -0.51108462456E+02  0.62262421506E+02  0.93644151298E+02  0.00000000000E+00 0.  1.
<mgrwt>
<rscale>  0 0.12621256E+03</rscale>
<asrwt>0</asrwt>
<pdfrwt beam="2">  1        2 0.11548891E-01 0.13471188E+03</pdfrwt>
<pdfrwt beam="1">  1       -2 0.29157484E-01 0.13471188E+03</pdfrwt>
<totfact> 0.54786620E+03</totfact>
</mgrwt>
</event>
<event>
 7    1  0.5206756E-006  0.1464677E+03  0.7546771E-02  0.1214369E+00
          2   -1    0    0  501    0  0.00000000000E+00  0.00000000000E+00  0.10297864916E+04  0.10297864916E+04  0.00000000000E+00 0.  1.
         -2   -1    0    0    0  501 -0.00000000000E+00 -0.00000000000E+00 -0.17695262190E+02  0.17695262190E+02  0.00000000000E+00 0. -1.
         23    2    1    2    0    0  0.60634723670E+01  0.76101343414E+02  0.64417385107E+03  0.66061541927E+03  0.12499840640E+03 0.  0.
          5    1    3    3  502    0 -0.12313874110E+02  0.61387307155E+02  0.11604747429E+03  0.13194369733E+03  0.47000000000E+01 0.  1.
         -5    1    3    3    0  502  0.18377346477E+02  0.14714036258E+02  0.52812637678E+03  0.52867172194E+03  0.47000000000E+01 0.  1.
        -11    1    1    2    0    0  0.42657088772E+02 -0.30958223619E+02  0.17988643275E+03  0.18744910648E+03  0.00000000000E+00 0.  1.
         11    1    1    2    0    0 -0.48720561139E+02 -0.45143119794E+02  0.18803094562E+03  0.19941722808E+03  0.00000000000E+00 0. -1.
<mgrwt>
<rscale>  0 0.13922984E+03</rscale>
<asrwt>0</asrwt>
<pdfrwt beam="1">  1        2 0.15842864E+00 0.14646768E+03</pdfrwt>
<pdfrwt beam="2">  1       -2 0.27223488E-02 0.14646768E+03</pdfrwt>
<totfact> 0.11913134E+04</totfact>
</mgrwt>
</event>
<event>
 7    1  0.5581446E-006  0.1489701E+03  0.7546771E-02  0.1211040E+00
         -1   -1    0    0    0  501 -0.00000000000E+00  0.00000000000E+00  0.68386497978E+02  0.68386497978E+02  0.00000000000E+00 0.  1.
          1   -1    0    0  501    0  0.00000000000E+00 -0.00000000000E+00 -0.26934878606E+03  0.26934878606E+03  0.00000000000E+00 0. -1.
         23    2    1    2    0    0 -0.34845810914E+02 -0.73166871699E+02 -0.12030488252E+03  0.19148196866E+03  0.12499783163E+03 0.  0.
          5    1    3    3  502    0  0.51922717690E+01 -0.10003806769E+03 -0.86134095789E+02  0.13219586654E+03  0.47000000000E+01 0. -1.
         -5    1    3    3    0  502 -0.40038082683E+02  0.26871195990E+02 -0.34170786734E+02  0.59286102123E+02  0.47000000000E+01 0. -1.
        -11    1    1    2    0    0 -0.14611646026E+02  0.19383518529E+02  0.12944671385E+02  0.27509734775E+02  0.00000000000E+00 0.  1.
         11    1    1    2    0    0  0.49457456940E+02  0.53783353170E+02 -0.93602076939E+02  0.11874358059E+03  0.00000000000E+00 0. -1.
<mgrwt>
<rscale>  0 0.14171497E+03</rscale>
<asrwt>0</asrwt>
<pdfrwt beam="2">  1        1 0.41438275E-01 0.14897006E+03</pdfrwt>
<pdfrwt beam="1">  1       -1 0.10521000E-01 0.14897006E+03</pdfrwt>
<totfact> 0.54414590E+03</totfact>
</mgrwt>
</event>
<event>
 7    1  0.5206756E-006  0.1264739E+03  0.7546771E-02  0.1246175E+00
          1   -1    0    0  501    0  0.00000000000E+00  0.00000000000E+00  0.58415104881E+03  0.58415104881E+03  0.00000000000E+00 0. -1.
         -1   -1    0    0    0  501 -0.00000000000E+00 -0.00000000000E+00 -0.29015002210E+02  0.29015002210E+02  0.00000000000E+00 0.  1.
         23    2    1    2    0    0  0.94280590376E+01 -0.16788471335E+02  0.46263841838E+03  0.47961437951E+03  0.12499962320E+03 0.  0.
          5    1    3    3  502    0 -0.51929849744E+02 -0.33297831027E+02  0.19952192454E+03  0.20889361699E+03  0.47000000000E+01 0. -1.
         -5    1    3    3    0  502  0.61357908782E+02  0.16509359692E+02  0.26311649384E+03  0.27072076252E+03  0.47000000000E+01 0. -1.
        -11    1    1    2    0    0 -0.50628314863E+02  0.20838614961E+01  0.62728683040E+02  0.80637810118E+02  0.00000000000E+00 0. -1.
         11    1    1    2    0    0  0.41200255826E+02  0.14704609839E+02  0.29768945175E+02  0.52913861392E+02  0.00000000000E+00 0.  1.
<mgrwt>
<rscale>  0 0.11815322E+03</rscale>
<asrwt>0</asrwt>
<pdfrwt beam="1">  1        1 0.89869383E-01 0.12647390E+03</pdfrwt>
<pdfrwt beam="2">  1       -1 0.44638470E-02 0.12647390E+03</pdfrwt>
<totfact> 0.72835853E+03</totfact>
</mgrwt>
</event>
<event>
 7    1  0.5206756E-006  0.1259903E+03  0.7546771E-02  0.1249826E+00
         -3   -1    0    0    0  501 -0.00000000000E+00  0.00000000000E+00  0.18279923350E+03  0.18279923350E+03  0.00000000000E+00 0.  1.
          3   -1    0    0  501    0  0.00000000000E+00 -0.00000000000E+00 -0.64152271602E+02  0.64152271602E+02  0.00000000000E+00 0. -1.
         23    2    1    2    0    0  0.28366958154E+01 -0.15603010946E+02  0.70684248893E+02  0.14446388584E+03  0.12498820134E+03 0.  0.
          5    1    3    3  502    0 -0.86663119939E+01  0.52867436152E+02  0.16454178931E+02  0.56239672591E+02  0.47000000000E+01 0. -1.
         -5    1    3    3    0  502  0.11503007809E+02 -0.68470447098E+02  0.54230069962E+02  0.88224213244E+02  0.47000000000E+01 0. -1.
        -11    1    1    2    0    0 -0.24299198557E+02  0.34332792622E+02 -0.49924266171E+01  0.42357006779E+02  0.00000000000E+00 0. -1.
         11    1    1    2    0    0  0.21462502741E+02 -0.18729781677E+02  0.52955139619E+02  0.60130612484E+02  0.00000000000E+00 0.  1.
<mgrwt>
<rscale>  0 0.11601157E+03</rscale>
<asrwt>0</asrwt>
<pdfrwt beam="2">  1        3 0.98695804E-02 0.12599028E+03</pdfrwt>
<pdfrwt beam="1">  1       -3 0.28122959E-01 0.12599028E+03</pdfrwt>
<totfact> 0.20644176E+03</totfact>
</mgrwt>
</event>
<event>
 7    1  0.5206756E-006  0.1350984E+03  0.7546771E-02  0.1232172E+00
          2   -1    0    0  501    0  0.00000000000E+00  0.00000000000E+00  0.71061219714E+03  0.71061219714E+03  0.00000000000E+00 0. -1.
         -2   -1    0    0    0  501 -0.00000000000E+00 -0.00000000000E+00 -0.24630203127E+02  0.24630203127E+02  0.00000000000E+00 0.  1.
         23    2    1    2    0    0  0.13732330784E+02  0.49289160495E+02  0.53156219671E+03  0.54846144188E+03  0.12503433932E+03 0.  0.
          5    1    3    3  502    0  0.32240744559E+01  0.52269811456E+02  0.53378161399E+03  0.53636501496E+03  0.47000000000E+01 0. -1.
         -5    1    3    3    0  502  0.10508256328E+02 -0.29806509610E+01 -0.22194172754E+01  0.12096426921E+02  0.47000000000E+01 0. -1.
        -11    1    1    2    0    0 -0.25586185314E+02 -0.21844613362E+02  0.45388008740E+01  0.33947617372E+02  0.00000000000E+00 0.  1.
         11    1    1    2    0    0  0.11853854530E+02 -0.27444547133E+02  0.14988099643E+03  0.15283334101E+03  0.00000000000E+00 0. -1.
<mgrwt>
<rscale>  0 0.12687235E+03</rscale>
<asrwt>0</asrwt>
<pdfrwt beam="1">  1        2 0.10932494E+00 0.13509842E+03</pdfrwt>
<pdfrwt beam="2">  1       -2 0.37892626E-02 0.13509842E+03</pdfrwt>
<totfact> 0.11726658E+04</totfact>
</mgrwt>
</event>
<event>
 7    1  0.5206756E-006  0.1471607E+03  0.7546771E-02  0.1213473E+00
          1   -1    0    0  501    0  0.00000000000E+00  0.00000000000E+00  0.60659071650E+02  0.60659071650E+02  0.00000000000E+00 0. -1.
         -1   -1    0    0    0  501 -0.00000000000E+00 -0.00000000000E+00 -0.31848832549E+03  0.31848832549E+03  0.00000000000E+00 0.  1.
         23    2    1    2    0    0  0.71981576283E+02  0.29155727596E+02 -0.89220199894E+02  0.17209451219E+03  0.12499949312E+03 0.  0.
          5    1    3    3  502    0 -0.31619860930E+02 -0.13370023969E+02 -0.26739241396E+02  0.43768141114E+02  0.47000000000E+01 0. -1.
         -5    1    3    3    0  502  0.10360143721E+03  0.42525751565E+02 -0.62480958498E+02  0.12832637108E+03  0.47000000000E+01 0. -1.
        -11    1    1    2    0    0 -0.25460098533E+02 -0.57960328753E+02 -0.10967445785E+03  0.12663373576E+03  0.00000000000E+00 0.  1.
         11    1    1    2    0    0 -0.46521477751E+02  0.28804601158E+02 -0.58934596092E+02  0.80419149190E+02  0.00000000000E+00 0. -1.
<mgrwt>
<rscale>  0 0.13989330E+03</rscale>
<asrwt>0</asrwt>
<pdfrwt beam="1">  1        1 0.93321648E-02 0.14716072E+03</pdfrwt>
<pdfrwt beam="2">  1       -1 0.48998204E-01 0.14716072E+03</pdfrwt>
<totfact> 0.29124975E+03</totfact>
</mgrwt>
</event>
<event>
 7    1  0.5206756E-006  0.1522131E+03  0.7546771E-02  0.1207267E+00
         -2   -1    0    0    0  501 -0.00000000000E+00  0.00000000000E+00  0.10535191938E+02  0.10535191938E+02  0.00000000000E+00 0.  1.
          2   -1    0    0  501    0  0.00000000000E+00 -0.00000000000E+00 -0.25390201247E+04  0.25390201247E+04  0.00000000000E+00 0. -1.
         23    2    1    2    0    0  0.42562727411E+02  0.75704735961E+02 -0.20368294713E+04  0.20425090288E+04  0.12500418016E+03 0.  0.
          5    1    3    3  502    0 -0.34859485840E+02  0.44028338553E+02 -0.45732975454E+03  0.46078875066E+03  0.47000000000E+01 0.  1.
         -5    1    3    3    0  502  0.77422213251E+02  0.31676397408E+02 -0.15794997167E+04  0.15817202782E+04  0.47000000000E+01 0.  1.
        -11    1    1    2    0    0 -0.35907484445E+02  0.87591789951E+01 -0.10808159074E+03  0.11422653332E+03  0.00000000000E+00 0.  1.
         11    1    1    2    0    0 -0.66552429657E+01 -0.84463914956E+02 -0.38357387077E+03  0.39281975450E+03  0.00000000000E+00 0. -1.
<mgrwt>
<rscale>  0 0.14460267E+03</rscale>
<asrwt>0</asrwt>
<pdfrwt beam="2">  1        2 0.39061858E+00 0.15221313E+03</pdfrwt>
<pdfrwt beam="1">  1       -2 0.16207984E-02 0.15221313E+03</pdfrwt>
<totfact> 0.40385256E+03</totfact>
</mgrwt>
</event>
<event>
 6    1  0.5206756E-006  0.1961205E+03  0.7546771E-02  0.1181299E+00
         -2   -1    0    0    0  501 -0.00000000000E+00  0.00000000000E+00  0.15955451476E+03  0.15955451476E+03  0.00000000000E+00 0.  1.
          2   -1    0    0  501    0  0.00000000000E+00 -0.00000000000E+00 -0.14667104805E+03  0.14667104805E+03  0.00000000000E+00 0. -1.
          5    1    1    2  502    0  0.42385725842E+02  0.34078334843E+02 -0.10284005982E+03  0.11643045376E+03  0.47000000000E+01 0. -1.
         -5    1    1    2    0  502 -0.15866438612E+02  0.12084782825E+01  0.79373363275E+02  0.81088994886E+02  0.47000000000E+01 0.  1.
        -11    1    1    2    0    0 -0.57160935097E+02 -0.34074820881E+02  0.81476455240E+01  0.67043642852E+02  0.00000000000E+00 0.  1.
         11    1    1    2    0    0  0.30641647867E+02 -0.12119922449E+01  0.28202517730E+02  0.41662471309E+02  0.00000000000E+00 0. -1.
<mgrwt>
<rscale>  0 0.16673185E+03</rscale>
<asrwt>0</asrwt>
<pdfrwt beam="2">  1        2 0.22564776E-01 0.19612049E+03</pdfrwt>
<pdfrwt beam="1">  1       -2 0.24546849E-01 0.19612049E+03</pdfrwt>
<totfact> 0.34785686E+03</totfact>
</mgrwt>
</event>
<event>
 7    1  0.5206756E-006  0.2483672E+03  0.7546771E-02  0.1117549E+00
         -1   -1    0    0    0  501 -0.00000000000E+00  0.00000000000E+00  0.56307015283E+03  0.56307015283E+03  0.00000000000E+00 0.  1.
          1   -1    0    0  501    0  0.00000000000E+00 -0.00000000000E+00 -0.21697011897E+03  0.21697011897E+03  0.00000000000E+00 0. -1.
         23    2    1    2    0    0 -0.15197330035E+03  0.15154141415E+03 -0.10846103019E+03  0.27101670498E+03  0.12500230032E+03 0.  0.
          5    1    3    3  502    0 -0.71384818772E+02  0.90773183260E+02  0.91808181778E+01  0.11593938318E+03  0.47000000000E+01 0.  1.
         -5    1    3    3    0  502 -0.80588481580E+02  0.60768230889E+02 -0.11764184837E+03  0.15507732180E+03  0.47000000000E+01 0.  1.
        -11    1    1    2    0    0  0.23720936384E+02 -0.65669344752E+02  0.96482023390E+02  0.11909629088E+03  0.00000000000E+00 0.  1.
         11    1    1    2    0    0  0.12825236397E+03 -0.85872069396E+02  0.35807904066E+03  0.38992727594E+03  0.00000000000E+00 0. -1.
<mgrwt>
<rscale>  0 0.24339917E+03</rscale>
<asrwt>0</asrwt>
<pdfrwt beam="2">  1        1 0.33380018E-01 0.24836719E+03</pdfrwt>
<pdfrwt beam="1">  1       -1 0.86626177E-01 0.24836719E+03</pdfrwt>
<totfact> 0.18410991E+02</totfact>
</mgrwt>
</event>
<event>
 7    1  0.5206756E-006  0.2475629E+03  0.7546771E-02  0.1117399E+00
          1   -1    0    0  501    0  0.00000000000E+00  0.00000000000E+00  0.20390250621E+03  0.20390250621E+03  0.00000000000E+00 0. -1.
         -1   -1    0    0    0  501 -0.00000000000E+00 -0.00000000000E+00 -0.34720117744E+03  0.34720117744E+03  0.00000000000E+00 0.  1.
         23    2    1    2    0    0  0.20419587925E+03 -0.62982314096E+02  0.45656923410E+02  0.25173787276E+03  0.12499869172E+03 0.  0.
          5    1    3    3  502    0  0.86358702144E+02 -0.19639121979E+02 -0.42406763129E+02  0.98305361538E+02  0.47000000000E+01 0. -1.
         -5    1    3    3    0  502  0.11783717711E+03 -0.43343192117E+02  0.88063686538E+02  0.15343251122E+03  0.47000000000E+01 0. -1.
        -11    1    1    2    0    0 -0.15261386396E+03  0.57860480920E+01 -0.14547211021E+03  0.21091847874E+03  0.00000000000E+00 0.  1.
         11    1    1    2    0    0 -0.51582015288E+02  0.57196266004E+02 -0.43483484435E+02  0.88447332151E+02  0.00000000000E+00 0. -1.
<mgrwt>
<rscale>  0 0.24362878E+03</rscale>
<asrwt>0</asrwt>
<pdfrwt beam="1">  1        1 0.31369617E-01 0.24756293E+03</pdfrwt>
<pdfrwt beam="2">  1       -1 0.53415565E-01 0.24756293E+03</pdfrwt>
<totfact> 0.52150572E+02</totfact>
</mgrwt>
</event>
<event>
 7    1  0.5206756E-006  0.1313453E+03  0.7546771E-02  0.1238556E+00
         -2   -1    0    0    0  501 -0.00000000000E+00  0.00000000000E+00  0.13366650096E+02  0.13366650096E+02  0.00000000000E+00 0.  1.
          2   -1    0    0  501    0  0.00000000000E+00 -0.00000000000E+00 -0.12186380782E+04  0.12186380782E+04  0.00000000000E+00 0. -1.
         23    2    1    2    0    0  0.29579332390E+02  0.27554597488E+02 -0.92570771399E+03  0.93497933980E+03  0.12496960181E+03 0.  0.
          5    1    3    3  502    0 -0.10095112111E+01  0.69395557860E+02 -0.69510771217E+03  0.69857969058E+03  0.47000000000E+01 0. -1.
         -5    1    3    3    0  502  0.30588843601E+02 -0.41840960372E+02 -0.23060000182E+03  0.23639964923E+03  0.47000000000E+01 0. -1.
        -11    1    1    2    0    0  0.30257274376E+02  0.72555033910E+01 -0.86685908352E+02  0.92100986362E+02  0.00000000000E+00 0.  1.
         11    1    1    2    0    0 -0.59836606765E+02 -0.34810100879E+02 -0.19287780578E+03  0.20492440215E+03  0.00000000000E+00 0. -1.
<mgrwt>
<rscale>  0 0.12279481E+03</rscale>
<asrwt>0</asrwt>
<pdfrwt beam="2">  1        2 0.18748273E+00 0.13134532E+03</pdfrwt>
<pdfrwt beam="1">  1       -2 0.20564083E-02 0.13134532E+03</pdfrwt>
<totfact> 0.13922772E+04</totfact>
</mgrwt>
</event>
<event>
 7    1  0.5206756E-006  0.1412170E+03  0.7546771E-02  0.1222598E+00
          1   -1    0    0  501    0  0.00000000000E+00  0.00000000000E+00  0.43581133355E+03  0.43581133355E+03  0.00000000000E+00 0. -1.
         -1   -1    0    0    0  501 -0.00000000000E+00 -0.00000000000E+00 -0.36885165430E+02  0.36885165430E+02  0.00000000000E+00 0.  1.
         23    2    1    2    0    0  0.61030005372E+02 -0.24352253473E+02  0.23021519390E+03  0.27007642339E+03  0.12499818064E+03 0.  0.
          5    1    3    3  502    0  0.60839982163E+02  0.36133435037E+02  0.74004079789E+02  0.10249791404E+03  0.47000000000E+01 0. -1.
         -5    1    3    3    0  502  0.19002320905E+00 -0.60485688510E+02  0.15621111411E+03  0.16757850935E+03  0.47000000000E+01 0. -1.
        -11    1    1    2    0    0 -0.21854016518E+02  0.60998541121E+01 -0.53184152883E+01  0.23304330055E+02  0.00000000000E+00 0.  1.
         11    1    1    2    0    0 -0.39175988854E+02  0.18252399361E+02  0.17402938951E+03  0.17931574554E+03  0.00000000000E+00 0. -1.
<mgrwt>
<rscale>  0 0.13332909E+03</rscale>
<asrwt>0</asrwt>
<pdfrwt beam="1">  1        1 0.67047894E-01 0.14121699E+03</pdfrwt>
<pdfrwt beam="2">  1       -1 0.56746411E-02 0.14121699E+03</pdfrwt>
<totfact> 0.75430117E+03</totfact>
</mgrwt>
</event>
<event>
 7    1  0.5206756E-006  0.2159558E+03  0.7546771E-02  0.1140435E+00
          2   -1    0    0  501    0  0.00000000000E+00  0.00000000000E+00  0.86486084698E+03  0.86486084698E+03  0.00000000000E+00 0. -1.
         -2   -1    0    0    0  501 -0.00000000000E+00 -0.00000000000E+00 -0.49700201923E+02  0.49700201923E+02  0.00000000000E+00 0.  1.
         23    2    1    2    0    0 -0.14072538988E+03 -0.10586961050E+03  0.44103299704E+03  0.49106719756E+03  0.12499951304E+03 0.  0.
          5    1    3    3  502    0 -0.22196186282E+01 -0.49573749335E+02  0.21002143532E+03  0.21585545308E+03  0.47000000000E+01 0.  1.
         -5    1    3    3    0  502 -0.13850577125E+03 -0.56295861166E+02  0.23101156172E+03  0.27521174448E+03  0.47000000000E+01 0.  1.
        -11    1    1    2    0    0  0.62574921862E+02  0.11740900856E+02  0.20566091008E+03  0.21529022164E+03  0.00000000000E+00 0.  1.
         11    1    1    2    0    0  0.78150468013E+02  0.94128709645E+02  0.16846673795E+03  0.20820362971E+03  0.00000000000E+00 0. -1.
<mgrwt>
<rscale>  0 0.21143501E+03</rscale>
<asrwt>0</asrwt>
<pdfrwt beam="1">  1        2 0.13305550E+00 0.21595575E+03</pdfrwt>
<pdfrwt beam="2">  1       -2 0.76461856E-02 0.21595575E+03</pdfrwt>
<totfact> 0.32301471E+03</totfact>
</mgrwt>
</event>
<event>
 7    1  0.5206756E-006  0.1703328E+03  0.7546771E-02  0.1183970E+00
          1   -1    0    0  501    0  0.00000000000E+00  0.00000000000E+00  0.17670986274E+03  0.17670986274E+03  0.00000000000E+00 0. -1.
         -1   -1    0    0    0  501 -0.00000000000E+00 -0.00000000000E+00 -0.18334486174E+03  0.18334486174E+03  0.00000000000E+00 0.  1.
         23    2    1    2    0    0  0.51446985542E+02  0.10363715729E+03  0.81039973140E+02  0.18862861326E+03  0.12500329516E+03 0.  0.
          5    1    3    3  502    0  0.39934246273E+02 -0.14192602938E+02  0.50842699976E+02  0.66356944960E+02  0.47000000000E+01 0.  1.
         -5    1    3    3    0  502  0.11512739269E+02  0.11782976023E+03  0.30197273164E+02  0.12227166830E+03  0.47000000000E+01 0.  1.
        -11    1    1    2    0    0 -0.61708519014E+02 -0.31347960327E+02 -0.20435959119E+02  0.72168305791E+02  0.00000000000E+00 0.  1.
         11    1    1    2    0    0  0.10261533472E+02 -0.72289196968E+02 -0.67239013017E+02  0.99257805431E+02  0.00000000000E+00 0. -1.
<mgrwt>
<rscale>  0 0.16425980E+03</rscale>
<asrwt>0</asrwt>
<pdfrwt beam="1">  1        1 0.27186133E-01 0.17033284E+03</pdfrwt>
<pdfrwt beam="2">  1       -1 0.28206902E-01 0.17033284E+03</pdfrwt>
<totfact> 0.19195761E+03</totfact>
</mgrwt>
</event>
<event>
 7    1  0.5206756E-006  0.1269581E+03  0.7546771E-02  0.1246571E+00
         -2   -1    0    0    0  501 -0.00000000000E+00  0.00000000000E+00  0.27803985585E+02  0.27803985585E+02  0.00000000000E+00 0. -1.
          2   -1    0    0  501    0  0.00000000000E+00 -0.00000000000E+00 -0.44738126827E+03  0.44738126827E+03  0.00000000000E+00 0.  1.
         23    2    1    2    0    0  0.85715774563E+01  0.20416680569E+02 -0.26840509012E+03  0.29691692662E+03  0.12501222390E+03 0.  0.
          5    1    3    3  502    0 -0.28887029591E+02 -0.36700504899E+02 -0.52544407107E+02  0.70458443473E+02  0.47000000000E+01 0.  1.
         -5    1    3    3    0  502  0.37458607048E+02  0.57117185468E+02 -0.21586068302E+03  0.22645848315E+03  0.47000000000E+01 0.  1.
        -11    1    1    2    0    0  0.10347441601E+02 -0.38150534650E+02 -0.14672784441E+03  0.15195918257E+03  0.00000000000E+00 0.  1.
         11    1    1    2    0    0 -0.18919019058E+02  0.17733854081E+02 -0.44443481569E+01  0.26309144669E+02  0.00000000000E+00 0. -1.
<mgrwt>
<rscale>  0 0.11791823E+03</rscale>
<asrwt>0</asrwt>
<pdfrwt beam="2">  1        2 0.68827879E-01 0.12695814E+03</pdfrwt>
<pdfrwt beam="1">  1       -2 0.42775368E-02 0.12695814E+03</pdfrwt>
<totfact> 0.16411123E+04</totfact>
</mgrwt>
</event>
<event>
 7    1  0.5206756E-006  0.1295895E+03  0.7546771E-02  0.1240397E+00
         -2   -1    0    0    0  501 -0.00000000000E+00  0.00000000000E+00  0.11765574829E+02  0.11765574829E+02  0.00000000000E+00 0.  1.
          2   -1    0    0  501    0  0.00000000000E+00 -0.00000000000E+00 -0.15779224928E+04  0.15779224928E+04  0.00000000000E+00 0. -1.
         23    2    1    2    0    0 -0.56427324614E+01 -0.33553474680E+02 -0.12762113813E+04  0.12827739174E+04  0.12504302154E+03 0.  0.
          5    1    3    3  502    0 -0.62010738782E+02  0.22528534687E+01 -0.56365808241E+03  0.56708282546E+03  0.47000000000E+01 0.  1.
         -5    1    3    3    0  502  0.56368006321E+02 -0.35806328149E+02 -0.71255329889E+03  0.71569109190E+03  0.47000000000E+01 0.  1.
        -11    1    1    2    0    0 -0.28939190022E+02 -0.20646660140E+02 -0.85443153045E+02  0.92543469226E+02  0.00000000000E+00 0.  1.
         11    1    1    2    0    0  0.34581922483E+02  0.54200134821E+02 -0.20450238362E+03  0.21437068102E+03  0.00000000000E+00 0. -1.
<mgrwt>
<rscale>  0 0.12165141E+03</rscale>
<asrwt>0</asrwt>
<pdfrwt beam="2">  1        2 0.24275707E+00 0.12958948E+03</pdfrwt>
<pdfrwt beam="1">  1       -2 0.18100902E-02 0.12958948E+03</pdfrwt>
<totfact> 0.10803007E+04</totfact>
</mgrwt>
</event>
<event>
 7    1  0.5206756E-006  0.1378871E+03  0.7546771E-02  0.1227440E+00
         -1   -1    0    0    0  501 -0.00000000000E+00  0.00000000000E+00  0.12644068524E+03  0.12644068524E+03  0.00000000000E+00 0.  1.
          1   -1    0    0  501    0  0.00000000000E+00 -0.00000000000E+00 -0.12920599276E+03  0.12920599276E+03  0.00000000000E+00 0. -1.
         23    2    1    2    0    0  0.21598110908E+02  0.54060897497E+02 -0.34506720320E+02  0.14213922374E+03  0.12499514448E+03 0.  0.
          5    1    3    3  502    0  0.10560776575E+02 -0.36982835818E+02 -0.32035207827E+02  0.50275289035E+02  0.47000000000E+01 0.  1.
         -5    1    3    3    0  502  0.11037334333E+02  0.91043733315E+02 -0.24715124932E+01  0.91863934703E+02  0.47000000000E+01 0.  1.
        -11    1    1    2    0    0 -0.10407996387E+01  0.26135530776E+02  0.64243767124E+01  0.26933656435E+02  0.00000000000E+00 0.  1.
         11    1    1    2    0    0 -0.20557311269E+02 -0.80196428273E+02  0.25317036083E+02  0.86573797828E+02  0.00000000000E+00 0. -1.
<mgrwt>
<rscale>  0 0.13001049E+03</rscale>
<asrwt>0</asrwt>
<pdfrwt beam="2">  1        1 0.19877845E-01 0.13788707E+03</pdfrwt>
<pdfrwt beam="1">  1       -1 0.19452413E-01 0.13788707E+03</pdfrwt>
<totfact> 0.51881370E+03</totfact>
</mgrwt>
</event>
<event>
 7    1  0.5206756E-006  0.1322182E+03  0.7546771E-02  0.1238547E+00
          2   -1    0    0  501    0  0.00000000000E+00  0.00000000000E+00  0.11302285122E+04  0.11302285122E+04  0.00000000000E+00 0. -1.
         -2   -1    0    0    0  501 -0.00000000000E+00 -0.00000000000E+00 -0.11780869645E+02  0.11780869645E+02  0.00000000000E+00 0.  1.
         23    2    1    2    0    0 -0.31452487222E+02 -0.28123304874E+02  0.61896250444E+03  0.63292671263E+03  0.12530547645E+03 0.  0.
          5    1    3    3  502    0 -0.31287747518E+02  0.46245844505E+02  0.21715012706E+03  0.22426294602E+03  0.47000000000E+01 0. -1.
         -5    1    3    3    0  502 -0.16473970432E+00 -0.74369149378E+02  0.40181237738E+03  0.40866376660E+03  0.47000000000E+01 0. -1.
        -11    1    1    2    0    0  0.29349192154E+02  0.59736990627E+02  0.35104590640E+03  0.35729975025E+03  0.00000000000E+00 0.  1.
         11    1    1    2    0    0  0.21032950678E+01 -0.31613685753E+02  0.14843923172E+03  0.15178291897E+03  0.00000000000E+00 0. -1.
<mgrwt>
<rscale>  0 0.12280086E+03</rscale>
<asrwt>0</asrwt>
<pdfrwt beam="1">  1        2 0.17388122E+00 0.13221816E+03</pdfrwt>
<pdfrwt beam="2">  1       -2 0.18124424E-02 0.13221816E+03</pdfrwt>
<totfact> 0.18735301E+04</totfact>
</mgrwt>
</event>
<event>
 7    1  0.5206756E-006  0.1293604E+03  0.7546771E-02  0.1239431E+00
         -1   -1    0    0    0  501 -0.00000000000E+00  0.00000000000E+00  0.57449141548E+02  0.57449141548E+02  0.00000000000E+00 0.  1.
          1   -1    0    0  501    0  0.00000000000E+00 -0.00000000000E+00 -0.34684716407E+03  0.34684716407E+03  0.00000000000E+00 0. -1.
         23    2    1    2    0    0 -0.29047563585E+02 -0.16440040113E+02 -0.26989021818E+03  0.29929055965E+03  0.12498029187E+03 0.  0.
          5    1    3    3  502    0 -0.45705932851E+02  0.34006112491E+02 -0.21613857999E+03  0.22356972904E+03  0.47000000000E+01 0.  1.
         -5    1    3    3    0  502  0.16658369266E+02 -0.50446152605E+02 -0.53751638193E+02  0.75720830606E+02  0.47000000000E+01 0.  1.
        -11    1    1    2    0    0 -0.25168063748E+02 -0.56758157343E+01 -0.35892902378E+02  0.44203469979E+02  0.00000000000E+00 0. -1.
         11    1    1    2    0    0  0.54215627333E+02  0.22115855848E+02  0.16385098044E+02  0.60802275984E+02  0.00000000000E+00 0.  1.
<mgrwt>
<rscale>  0 0.12224962E+03</rscale>
<asrwt>0</asrwt>
<pdfrwt beam="2">  1        1 0.53361101E-01 0.12936039E+03</pdfrwt>
<pdfrwt beam="1">  1       -1 0.88383297E-02 0.12936039E+03</pdfrwt>
<totfact> 0.51441280E+03</totfact>
</mgrwt>
</event>
<event>
 7    1  0.5206756E-006  0.1430025E+03  0.7546771E-02  0.1219061E+00
         -1   -1    0    0    0  501 -0.00000000000E+00  0.00000000000E+00  0.37923570733E+03  0.37923570733E+03  0.00000000000E+00 0.  1.
          1   -1    0    0  501    0  0.00000000000E+00 -0.00000000000E+00 -0.45494950889E+02  0.45494950889E+02  0.00000000000E+00 0. -1.
         23    2    1    2    0    0  0.69323236393E+02 -0.43521625894E+01  0.15007300995E+03  0.20729600636E+03  0.12500029406E+03 0.  0.
          5    1    3    3  502    0  0.14162674663E+02  0.28928868446E+02 -0.10512438955E+02  0.34206171314E+02  0.47000000000E+01 0.  1.
         -5    1    3    3    0  502  0.55160561730E+02 -0.33281031036E+02  0.16058544890E+03  0.17308983505E+03  0.47000000000E+01 0.  1.
        -11    1    1    2    0    0 -0.38909080397E+02  0.40428689544E+02  0.48153423729E+02  0.73940162919E+02  0.00000000000E+00 0. -1.
         11    1    1    2    0    0 -0.30414155996E+02 -0.36076526955E+02  0.13551432276E+03  0.14349448894E+03  0.00000000000E+00 0.  1.
<mgrwt>
<rscale>  0 0.13582388E+03</rscale>
<asrwt>0</asrwt>
<pdfrwt beam="2">  1        1 0.69992234E-02 0.14300254E+03</pdfrwt>
<pdfrwt beam="1">  1       -1 0.58343953E-01 0.14300254E+03</pdfrwt>
<totfact> 0.30959617E+03</totfact>
</mgrwt>
</event>
<event>
 7    1  0.5206756E-006  0.1472178E+03  0.7546771E-02  0.1206950E+00
         -4   -1    0    0    0  501 -0.00000000000E+00  0.00000000000E+00  0.91450684766E+02  0.91450684766E+02  0.00000000000E+00 0.  1.
          4   -1    0    0  501    0  0.00000000000E+00 -0.00000000000E+00 -0.23308655437E+03  0.23308655437E+03  0.00000000000E+00 0. -1.
         23    2    1    2    0    0 -0.70897596886E+02  0.45471667220E+02 -0.10784903795E+03  0.18249521696E+03  0.12074331229E+03 0.  0.
          5    1    3    3  502    0 -0.80888464815E+02  0.32362736303E+02 -0.12871103253E+03  0.15549569234E+03  0.47000000000E+01 0. -1.
         -5    1    3    3    0  502  0.99908679288E+01  0.13108930917E+02  0.20861994581E+02  0.26999524619E+02  0.47000000000E+01 0.  1.
        -11    1    1    2    0    0  0.50815966200E+02  0.96376168011E+01  0.26341854887E+02  0.58043426823E+02  0.00000000000E+00 0.  1.
         11    1    1    2    0    0  0.20081630686E+02 -0.55109284021E+02 -0.60128686537E+02  0.83998595351E+02  0.00000000000E+00 0. -1.
<mgrwt>
<rscale>  0 0.14484805E+03</rscale>
<asrwt>0</asrwt>
<pdfrwt beam="2">  1        4 0.35859469E-01 0.14721783E+03</pdfrwt>
<pdfrwt beam="1">  1       -4 0.14069336E-01 0.14721783E+03</pdfrwt>
<totfact> 0.53555174E+02</totfact>
</mgrwt>
</event>
<event>
 7    1  0.5206756E-006  0.1577096E+03  0.7546771E-02  0.1199068E+00
         -1   -1    0    0    0  501 -0.00000000000E+00  0.00000000000E+00  0.39012101243E+03  0.39012101243E+03  0.00000000000E+00 0. -1.
          1   -1    0    0  501    0  0.00000000000E+00 -0.00000000000E+00 -0.55487037289E+02  0.55487037289E+02  0.00000000000E+00 0.  1.
         23    2    1    2    0    0 -0.59708518269E+02 -0.75386179559E+02  0.14708981325E+03  0.21565649818E+03  0.12499651525E+03 0.  0.
          5    1    3    3  502    0 -0.69209343715E+02 -0.38367439778E+01  0.11952908669E+03  0.13825319680E+03  0.47000000000E+01 0.  1.
         -5    1    3    3    0  502  0.95008254466E+01 -0.71549435581E+02  0.27560726561E+02  0.77403301382E+02  0.47000000000E+01 0.  1.
        -11    1    1    2    0    0 -0.22149654304E+02  0.27821339508E+02  0.31888182582E+02  0.47764948510E+02  0.00000000000E+00 0.  1.
         11    1    1    2    0    0  0.81858172573E+02  0.47564840051E+02  0.15565597931E+03  0.18218660302E+03  0.00000000000E+00 0. -1.
<mgrwt>
<rscale>  0 0.15114899E+03</rscale>
<asrwt>0</asrwt>
<pdfrwt beam="2">  1        1 0.85364675E-02 0.15770958E+03</pdfrwt>
<pdfrwt beam="1">  1       -1 0.60018616E-01 0.15770958E+03</pdfrwt>
<totfact> 0.22563508E+03</totfact>
</mgrwt>
</event>
<event>
 7    1  0.5206756E-006  0.1434180E+03  0.7546771E-02  0.1217323E+00
          2   -1    0    0  501    0  0.00000000000E+00  0.00000000000E+00  0.13766036006E+04  0.13766036006E+04  0.00000000000E+00 0. -1.
         -2   -1    0    0    0  501 -0.00000000000E+00 -0.00000000000E+00 -0.27574127762E+02  0.27574127762E+02  0.00000000000E+00 0.  1.
         23    2    1    2    0    0 -0.76542869945E+02  0.37284376465E+00  0.12192036860E+04  0.12276100163E+04  0.12128385806E+03 0.  0.
          5    1    3    3  502    0 -0.41271152561E+02 -0.27312712154E+02  0.10829589549E+04  0.10840993867E+04  0.47000000000E+01 0. -1.
         -5    1    3    3    0  502 -0.35271717384E+02  0.27685555919E+02  0.13624473116E+03  0.14351062965E+03  0.47000000000E+01 0.  1.
        -11    1    1    2    0    0  0.24186251744E+02 -0.38075248442E+02  0.90204796300E+02  0.10085437320E+03  0.00000000000E+00 0.  1.
         11    1    1    2    0    0  0.52356618201E+02  0.37702404677E+02  0.39620990510E+02  0.75713338831E+02  0.00000000000E+00 0. -1.
<mgrwt>
<rscale>  0 0.13707272E+03</rscale>
<asrwt>0</asrwt>
<pdfrwt beam="1">  1        2 0.21178512E+00 0.14341801E+03</pdfrwt>
<pdfrwt beam="2">  1       -2 0.42421746E-02 0.14341801E+03</pdfrwt>
<totfact> 0.39591159E+03</totfact>
</mgrwt>
</event>
<event>
 7    1  0.5206756E-006  0.1302822E+03  0.7546771E-02  0.1236479E+00
          2   -1    0    0  501    0  0.00000000000E+00  0.00000000000E+00  0.28040954106E+03  0.28040954106E+03  0.00000000000E+00 0. -1.
         -2   -1    0    0    0  501 -0.00000000000E+00 -0.00000000000E+00 -0.18334810098E+03  0.18334810098E+03  0.00000000000E+00 0.  1.
         23    2    1    2    0    0 -0.53094603456E+02  0.14609878339E+02  0.24708672339E+03  0.27933008383E+03  0.11807184844E+03 0.  0.
          5    1    3    3  502    0 -0.75219164449E+02  0.95460078585E+01  0.24447383965E+03  0.25600507268E+03  0.47000000000E+01 0. -1.
         -5    1    3    3    0  502  0.22124560992E+02  0.50638704800E+01  0.26128837378E+01  0.23325011142E+02  0.47000000000E+01 0.  1.
        -11    1    1    2    0    0  0.39185178476E+00  0.21181643947E+02  0.27065057815E+00  0.21186996952E+02  0.00000000000E+00 0. -1.
         11    1    1    2    0    0  0.52702751672E+02 -0.35791522286E+02 -0.15029593388E+03  0.16324056126E+03  0.00000000000E+00 0.  1.
<mgrwt>
<rscale>  0 0.12410207E+03</rscale>
<asrwt>0</asrwt>
<pdfrwt beam="1">  1        2 0.43139929E-01 0.13028218E+03</pdfrwt>
<pdfrwt beam="2">  1       -2 0.28207400E-01 0.13028218E+03</pdfrwt>
<totfact> 0.13237376E+03</totfact>
</mgrwt>
</event>
<event>
 7    1  0.5206756E-006  0.1413444E+03  0.7546771E-02  0.1223425E+00
          2   -1    0    0  501    0  0.00000000000E+00  0.00000000000E+00  0.66895742255E+03  0.66895742255E+03  0.00000000000E+00 0. -1.
         -2   -1    0    0    0  501 -0.00000000000E+00 -0.00000000000E+00 -0.23617100123E+02  0.23617100123E+02  0.00000000000E+00 0.  1.
         23    2    1    2    0    0 -0.63723617694E+02  0.17098882575E+02  0.35601143053E+03  0.38304357192E+03  0.12500067235E+03 0.  0.
          5    1    3    3  502    0 -0.81126318548E+02 -0.33006667235E+02  0.23498753150E+03  0.25082294474E+03  0.47000000000E+01 0. -1.
         -5    1    3    3    0  502  0.17402700854E+02  0.50105549810E+02  0.12102389902E+03  0.13222062719E+03  0.47000000000E+01 0. -1.
        -11    1    1    2    0    0 -0.17642456517E+02 -0.20823569099E+02  0.94476527247E+02  0.98339674103E+02  0.00000000000E+00 0. -1.
         11    1    1    2    0    0  0.81366074210E+02  0.37246865241E+01  0.19485236465E+03  0.21119127665E+03  0.00000000000E+00 0.  1.
<mgrwt>
<rscale>  0 0.13275444E+03</rscale>
<asrwt>0</asrwt>
<pdfrwt beam="1">  1        2 0.10291651E+00 0.14134440E+03</pdfrwt>
<pdfrwt beam="2">  1       -2 0.36334005E-02 0.14134440E+03</pdfrwt>
<totfact> 0.13445332E+04</totfact>
</mgrwt>
</event>
<event>
 7    1  0.5206756E-006  0.5032479E+03  0.7546771E-02  0.1013400E+00
         -2   -1    0    0    0  501 -0.00000000000E+00  0.00000000000E+00  0.11976414091E+03  0.11976414091E+03  0.00000000000E+00 0.  1.
          2   -1    0    0  501    0  0.00000000000E+00 -0.00000000000E+00 -0.21854057482E+04  0.21854057482E+04  0.00000000000E+00 0. -1.
         23    2    1    2    0    0  0.47677137965E+03  0.10158902270E+03 -0.79253784401E+03  0.93881557404E+03  0.12500867926E+03 0.  0.
          5    1    3    3  502    0  0.24227801675E+03  0.21598548587E+01 -0.45986567242E+03  0.51980941608E+03  0.47000000000E+01 0.  1.
         -5    1    3    3    0  502  0.23449336290E+03  0.99429167841E+02 -0.33267217159E+03  0.41900615797E+03  0.47000000000E+01 0.  1.
        -11    1    1    2    0    0 -0.36527819460E+03 -0.81123847033E+02 -0.85779125968E+03  0.93584992557E+03  0.00000000000E+00 0.  1.
         11    1    1    2    0    0 -0.11149318505E+03 -0.20465175667E+02 -0.41531250356E+03  0.43050438945E+03  0.00000000000E+00 0. -1.
<mgrwt>
<rscale>  0 0.50145533E+03</rscale>
<asrwt>0</asrwt>
<pdfrwt beam="2">  1        2 0.33621624E+00 0.50324790E+03</pdfrwt>
<pdfrwt beam="1">  1       -2 0.18425254E-01 0.50324790E+03</pdfrwt>
<totfact> 0.13757136E+02</totfact>
</mgrwt>
</event>
<event>
 6    1  0.5206756E-006  0.1602791E+03  0.7546771E-02  0.1215797E+00
         -1   -1    0    0    0  501 -0.00000000000E+00  0.00000000000E+00  0.40917926842E+03  0.40917926842E+03  0.00000000000E+00 0.  1.
          1   -1    0    0  501    0  0.00000000000E+00 -0.00000000000E+00 -0.38448087900E+02  0.38448087900E+02  0.00000000000E+00 0. -1.
          5    1    1    2  502    0  0.45066939564E+00  0.54661136546E+02  0.11418665496E+02  0.56040332557E+02  0.47000000000E+01 0. -1.
         -5    1    1    2    0  502  0.31624735732E+01 -0.61700553325E+02  0.19929322462E+03  0.20870275250E+03  0.47000000000E+01 0.  1.
        -11    1    1    2    0    0 -0.31210912339E+02 -0.26247106290E+02  0.10675435504E+03  0.11427827422E+03  0.00000000000E+00 0.  1.
         11    1    1    2    0    0  0.27597769370E+02  0.33286523069E+02  0.53264935364E+02  0.68605997053E+02  0.00000000000E+00 0. -1.
<mgrwt>
<rscale>  0 0.13818172E+03</rscale>
<asrwt>0</asrwt>
<pdfrwt beam="2">  1        1 0.59150907E-02 0.16027913E+03</pdfrwt>
<pdfrwt beam="1">  1       -1 0.62950654E-01 0.16027913E+03</pdfrwt>
<totfact> 0.33866458E+03</totfact>
</mgrwt>
</event>
<event>
 7    1  0.5206756E-006  0.1850305E+03  0.7546771E-02  0.1168336E+00
         -1   -1    0    0    0  501 -0.00000000000E+00  0.00000000000E+00  0.43722236136E+03  0.43722236136E+03  0.00000000000E+00 0.  1.
          1   -1    0    0  501    0  0.00000000000E+00 -0.00000000000E+00 -0.71439763069E+02  0.71439763069E+02  0.00000000000E+00 0. -1.
         23    2    1    2    0    0 -0.66007098300E+02  0.11941977655E+03  0.15234633867E+03  0.23967827529E+03  0.12497299181E+03 0.  0.
          5    1    3    3  502    0 -0.17477729814E+02  0.11235783375E+03  0.46520599573E+02  0.12294718390E+03  0.47000000000E+01 0.  1.
         -5    1    3    3    0  502 -0.48529368486E+02  0.70619428013E+01  0.10582573909E+03  0.11673109139E+03  0.47000000000E+01 0.  1.
        -11    1    1    2    0    0 -0.17414145044E+02 -0.25821623312E+02  0.15775754275E+02  0.34912506370E+02  0.00000000000E+00 0. -1.
         11    1    1    2    0    0  0.83421243344E+02 -0.93598153240E+02  0.19766050535E+03  0.23407134277E+03  0.00000000000E+00 0.  1.
<mgrwt>
<rscale>  0 0.17945011E+03</rscale>
<asrwt>0</asrwt>
<pdfrwt beam="2">  1        1 0.10990733E-01 0.18503045E+03</pdfrwt>
<pdfrwt beam="1">  1       -1 0.67264977E-01 0.18503045E+03</pdfrwt>
<totfact> 0.12978903E+03</totfact>
</mgrwt>
</event>
<event>
 7    1  0.5206756E-006  0.1549276E+03  0.7546771E-02  0.1202657E+00
          1   -1    0    0  501    0  0.00000000000E+00  0.00000000000E+00  0.18295260237E+03  0.18295260237E+03  0.00000000000E+00 0. -1.
         -1   -1    0    0    0  501 -0.00000000000E+00 -0.00000000000E+00 -0.12571167452E+03  0.12571167452E+03  0.00000000000E+00 0.  1.
         23    2    1    2    0    0 -0.22895744739E+02 -0.88625690338E+02  0.83786244754E+02  0.17613263541E+03  0.12499536924E+03 0.  0.
          5    1    3    3  502    0 -0.61169351658E+02 -0.73862668126E+01  0.16910145406E+02  0.64064729277E+02  0.47000000000E+01 0. -1.
         -5    1    3    3    0  502  0.38273606920E+02 -0.81239423525E+02  0.66876099348E+02  0.11206790613E+03  0.47000000000E+01 0. -1.
        -11    1    1    2    0    0 -0.15026030464E+02  0.40923726526E+02 -0.50801554992E+02  0.66942743998E+02  0.00000000000E+00 0.  1.
         11    1    1    2    0    0  0.37921775203E+02  0.47701963812E+02  0.24256238087E+02  0.65588897476E+02  0.00000000000E+00 0. -1.
<mgrwt>
<rscale>  0 0.14823604E+03</rscale>
<asrwt>0</asrwt>
<pdfrwt beam="1">  1        1 0.28146554E-01 0.15492763E+03</pdfrwt>
<pdfrwt beam="2">  1       -1 0.19340258E-01 0.15492763E+03</pdfrwt>
<totfact> 0.33982397E+03</totfact>
</mgrwt>
</event>
<event>
 7    1  0.5206756E-006  0.1642827E+03  0.7546771E-02  0.1191410E+00
          1   -1    0    0  501    0  0.00000000000E+00  0.00000000000E+00  0.65524561587E+02  0.65524561587E+02  0.00000000000E+00 0. -1.
         -1   -1    0    0    0  501 -0.00000000000E+00 -0.00000000000E+00 -0.38399155900E+03  0.38399155900E+03  0.00000000000E+00 0.  1.
         23    2    1    2    0    0 -0.46415119152E+02  0.95870672986E+02 -0.10602622401E+03  0.19552588754E+03  0.12507303184E+03 0.  0.
          5    1    3    3  502    0 -0.22498959851E+02  0.12084292002E+03 -0.57575515310E+02  0.13581695210E+03  0.47000000000E+01 0. -1.
         -5    1    3    3    0  502 -0.23916159301E+02 -0.24972247033E+02 -0.48450708704E+02  0.59708935442E+02  0.47000000000E+01 0. -1.
        -11    1    1    2    0    0 -0.90008697229E+01 -0.45482024521E+02 -0.14830434882E+03  0.15538278569E+03  0.00000000000E+00 0. -1.
         11    1    1    2    0    0  0.55415988875E+02 -0.50388648466E+02 -0.64136424586E+02  0.98607447365E+02  0.00000000000E+00 0.  1.
<mgrwt>
<rscale>  0 0.15762061E+03</rscale>
<asrwt>0</asrwt>
<pdfrwt beam="1">  1        1 0.10080702E-01 0.16428272E+03</pdfrwt>
<pdfrwt beam="2">  1       -1 0.59075625E-01 0.16428272E+03</pdfrwt>
<totfact> 0.18647833E+03</totfact>
</mgrwt>
</event>
<event>
 7    1  0.5206756E-006  0.1459718E+03  0.7546771E-02  0.1216210E+00
          1   -1    0    0  501    0  0.00000000000E+00  0.00000000000E+00  0.24293059439E+03  0.24293059439E+03  0.00000000000E+00 0. -1.
         -1   -1    0    0    0  501 -0.00000000000E+00 -0.00000000000E+00 -0.71160816176E+02  0.71160816176E+02  0.00000000000E+00 0.  1.
         23    2    1    2    0    0  0.67873742942E+02 -0.32809569756E+02  0.10767860789E+03  0.18139031124E+03  0.12499779825E+03 0.  0.
          5    1    3    3  502    0  0.72897344736E+01 -0.13811001997E+02  0.11603678218E+03  0.11717725387E+03  0.47000000000E+01 0. -1.
         -5    1    3    3    0  502  0.60584008468E+02 -0.18998567759E+02 -0.83581742994E+01  0.64213057368E+02  0.47000000000E+01 0. -1.
        -11    1    1    2    0    0 -0.45270482987E+02 -0.24813828530E+02  0.43376320327E+02  0.67428835681E+02  0.00000000000E+00 0.  1.
         11    1    1    2    0    0 -0.22603259954E+02  0.57623398286E+02  0.20714849999E+02  0.65272263643E+02  0.00000000000E+00 0. -1.
<mgrwt>
<rscale>  0 0.13787993E+03</rscale>
<asrwt>0</asrwt>
<pdfrwt beam="1">  1        1 0.37373937E-01 0.14597179E+03</pdfrwt>
<pdfrwt beam="2">  1       -1 0.10947818E-01 0.14597179E+03</pdfrwt>
<totfact> 0.58106562E+03</totfact>
</mgrwt>
</event>
<event>
 7    1  0.5206756E-006  0.1384474E+03  0.7546771E-02  0.1224059E+00
          4   -1    0    0  501    0  0.00000000000E+00  0.00000000000E+00  0.16684989780E+03  0.16684989780E+03  0.00000000000E+00 0. -1.
         -4   -1    0    0    0  501 -0.00000000000E+00 -0.00000000000E+00 -0.11295333847E+03  0.11295333847E+03  0.00000000000E+00 0.  1.
         23    2    1    2    0    0 -0.39599594823E+02  0.44446057305E+02  0.82028454046E+02  0.16092338881E+03  0.12499635944E+03 0.  0.
          5    1    3    3  502    0  0.64118754671E+01  0.79552859841E+02  0.53751776214E+02  0.96338533838E+02  0.47000000000E+01 0.  1.
         -5    1    3    3    0  502 -0.46011470290E+02 -0.35106802536E+02  0.28276677833E+02  0.64584854973E+02  0.47000000000E+01 0.  1.
        -11    1    1    2    0    0  0.11668053127E+02 -0.65010589727E+02  0.10591918197E+02  0.66893265517E+02  0.00000000000E+00 0. -1.
         11    1    1    2    0    0  0.27931541696E+02  0.20564532423E+02 -0.38723812912E+02  0.51986581939E+02  0.00000000000E+00 0.  1.
<mgrwt>
<rscale>  0 0.13231592E+03</rscale>
<asrwt>0</asrwt>
<pdfrwt beam="1">  1        4 0.25669215E-01 0.13844735E+03</pdfrwt>
<pdfrwt beam="2">  1       -4 0.17377437E-01 0.13844735E+03</pdfrwt>
<totfact> 0.68840264E+02</totfact>
</mgrwt>
</event>
<event>
 7    1  0.5206756E-006  0.1391937E+03  0.7546771E-02  0.1225161E+00
         -1   -1    0    0    0  501 -0.00000000000E+00  0.00000000000E+00  0.16428017929E+03  0.16428017929E+03  0.00000000000E+00 0.  1.
          1   -1    0    0  501    0  0.00000000000E+00 -0.00000000000E+00 -0.96615783890E+02  0.96615783890E+02  0.00000000000E+00 0. -1.
         23    2    1    2    0    0 -0.25241958017E+02 -0.55794042448E+02  0.22553880069E+02  0.14100904646E+03  0.12499896824E+03 0.  0.
          5    1    3    3  502    0 -0.68664218968E+02 -0.73265986362E+01  0.29816412425E+02  0.75362871920E+02  0.47000000000E+01 0.  1.
         -5    1    3    3    0  502  0.43422260951E+02 -0.48467443812E+02 -0.72625323560E+01  0.65646174542E+02  0.47000000000E+01 0.  1.
        -11    1    1    2    0    0 -0.10657930613E+02 -0.11279952331E+02  0.40841138838E+02  0.43690129677E+02  0.00000000000E+00 0.  1.
         11    1    1    2    0    0  0.35899888630E+02  0.67073994779E+02  0.42693764892E+01  0.76196787038E+02  0.00000000000E+00 0. -1.
<mgrwt>
<rscale>  0 0.13155877E+03</rscale>
<asrwt>0</asrwt>
<pdfrwt beam="2">  1        1 0.14863967E-01 0.13919366E+03</pdfrwt>
<pdfrwt beam="1">  1       -1 0.25273874E-01 0.13919366E+03</pdfrwt>
<totfact> 0.49297389E+03</totfact>
</mgrwt>
</event>
<event>
 7    1  0.5206756E-006  0.1402607E+03  0.7546771E-02  0.1224568E+00
          4   -1    0    0  501    0  0.00000000000E+00  0.00000000000E+00  0.48226360927E+03  0.48226360927E+03  0.00000000000E+00 0. -1.
         -4   -1    0    0    0  501 -0.00000000000E+00 -0.00000000000E+00 -0.33646154367E+02  0.33646154367E+02  0.00000000000E+00 0.  1.
         23    2    1    2    0    0  0.22057254024E+02 -0.59682539820E+02  0.29897176104E+03  0.33023805742E+03  0.12499813063E+03 0.  0.
          5    1    3    3  502    0  0.43067420141E+02 -0.81112221130E+02  0.13415765107E+03  0.16264796474E+03  0.47000000000E+01 0. -1.
         -5    1    3    3    0  502 -0.21010166118E+02  0.21429681311E+02  0.16481410996E+03  0.16759009268E+03  0.47000000000E+01 0. -1.
        -11    1    1    2    0    0 -0.53584624584E+02  0.48563926600E+02  0.76624194688E+02  0.10536144537E+03  0.00000000000E+00 0.  1.
         11    1    1    2    0    0  0.31527370560E+02  0.11118613220E+02  0.73021499179E+02  0.80310260843E+02  0.00000000000E+00 0. -1.
<mgrwt>
<rscale>  0 0.13196568E+03</rscale>
<asrwt>0</asrwt>
<pdfrwt beam="1">  1        4 0.74194397E-01 0.14026069E+03</pdfrwt>
<pdfrwt beam="2">  1       -4 0.51763318E-02 0.14026069E+03</pdfrwt>
<totfact> 0.63273520E+02</totfact>
</mgrwt>
</event>
<event>
 7    1  0.5206756E-006  0.1935098E+03  0.7546771E-02  0.1159817E+00
          2   -1    0    0  501    0  0.00000000000E+00  0.00000000000E+00  0.35157187894E+03  0.35157187894E+03  0.00000000000E+00 0. -1.
         -2   -1    0    0    0  501 -0.00000000000E+00 -0.00000000000E+00 -0.96464691992E+02  0.96464691992E+02  0.00000000000E+00 0.  1.
         23    2    1    2    0    0  0.14769707126E+03 -0.22648079791E+01  0.12195929673E+03  0.22873586287E+03  0.12500588261E+03 0.  0.
          5    1    3    3  502    0  0.34034172728E+02 -0.33540502239E+02  0.96870270273E+02  0.10811673999E+03  0.47000000000E+01 0.  1.
         -5    1    3    3    0  502  0.11366289853E+03  0.31275694260E+02  0.25089026462E+02  0.12061912287E+03  0.47000000000E+01 0.  1.
        -11    1    1    2    0    0 -0.50153631767E+02  0.27280230055E+02  0.96529056024E+02  0.11214925942E+03  0.00000000000E+00 0. -1.
         11    1    1    2    0    0 -0.97543439493E+02 -0.25015422076E+02  0.36618834190E+02  0.10715144865E+03  0.00000000000E+00 0.  1.
<mgrwt>
<rscale>  0 0.18850497E+03</rscale>
<asrwt>0</asrwt>
<pdfrwt beam="1">  1        2 0.54087981E-01 0.19350975E+03</pdfrwt>
<pdfrwt beam="2">  1       -2 0.14840722E-01 0.19350975E+03</pdfrwt>
<totfact> 0.31525891E+03</totfact>
</mgrwt>
</event>
<event>
 7    1  0.5206756E-006  0.1343863E+03  0.7546771E-02  0.1235193E+00
          1   -1    0    0  501    0  0.00000000000E+00  0.00000000000E+00  0.24048056414E+03  0.24048056414E+03  0.00000000000E+00 0. -1.
         -1   -1    0    0    0  501 -0.00000000000E+00 -0.00000000000E+00 -0.60561906978E+02  0.60561906978E+02  0.00000000000E+00 0.  1.
         23    2    1    2    0    0 -0.22849288512E+02  0.43737863831E+02  0.13700436763E+03  0.19191113629E+03  0.12499838705E+03 0.  0.
          5    1    3    3  502    0  0.29827280828E+02  0.50599914124E+02  0.12359383770E+03  0.13692167362E+03  0.47000000000E+01 0.  1.
         -5    1    3    3    0  502 -0.52676569340E+02 -0.68620502931E+01  0.13410529935E+02  0.54989462670E+02  0.47000000000E+01 0.  1.
        -11    1    1    2    0    0 -0.31702782092E+01 -0.66008886510E+02  0.28790719552E+02  0.72084181999E+02  0.00000000000E+00 0. -1.
         11    1    1    2    0    0  0.26019566721E+02  0.22271022679E+02  0.14123569976E+02  0.37047152824E+02  0.00000000000E+00 0.  1.
<mgrwt>
<rscale>  0 0.12492067E+03</rscale>
<asrwt>0</asrwt>
<pdfrwt beam="1">  1        1 0.36997009E-01 0.13438634E+03</pdfrwt>
<pdfrwt beam="2">  1       -1 0.93172166E-02 0.13438634E+03</pdfrwt>
<totfact> 0.74886511E+03</totfact>
</mgrwt>
</event>
<event>
 7    1  0.5206756E-006  0.1344301E+03  0.7546771E-02  0.1232282E+00
         -1   -1    0    0    0  501 -0.00000000000E+00  0.00000000000E+00  0.49785013599E+02  0.49785013599E+02  0.00000000000E+00 0.  1.
          1   -1    0    0  501    0  0.00000000000E+00 -0.00000000000E+00 -0.36570065829E+03  0.36570065829E+03  0.00000000000E+00 0. -1.
         23    2    1    2    0    0  0.25223505721E+02  0.42536021023E+02 -0.26580381735E+03  0.29786424943E+03  0.12500361374E+03 0.  0.
          5    1    3    3  502    0  0.74529316762E+01 -0.42847757740E+02 -0.59638722994E+02  0.73961772655E+02  0.47000000000E+01 0. -1.
         -5    1    3    3    0  502  0.17770574045E+02  0.85383778763E+02 -0.20616509435E+03  0.22390247678E+03  0.47000000000E+01 0. -1.
        -11    1    1    2    0    0 -0.57472684623E+02 -0.34314715825E+02 -0.13761917410E+02  0.68337395112E+02  0.00000000000E+00 0. -1.
         11    1    1    2    0    0  0.32249178902E+02 -0.82213051985E+01 -0.36349909935E+02  0.49284027345E+02  0.00000000000E+00 0.  1.
<mgrwt>
<rscale>  0 0.12680033E+03</rscale>
<asrwt>0</asrwt>
<pdfrwt beam="2">  1        1 0.56261637E-01 0.13443006E+03</pdfrwt>
<pdfrwt beam="1">  1       -1 0.76592332E-02 0.13443006E+03</pdfrwt>
<totfact> 0.59908507E+03</totfact>
</mgrwt>
</event>
<event>
 7    1  0.5206756E-006  0.2164943E+03  0.7546771E-02  0.1139713E+00
          1   -1    0    0  501    0  0.00000000000E+00  0.00000000000E+00  0.34296856402E+03  0.34296856402E+03  0.00000000000E+00 0. -1.
         -1   -1    0    0    0  501 -0.00000000000E+00 -0.00000000000E+00 -0.17031827844E+03  0.17031827844E+03  0.00000000000E+00 0.  1.
         23    2    1    2    0    0 -0.13314227454E+03 -0.11626730042E+03  0.21861043048E+03  0.30766916408E+03  0.12499937518E+03 0.  0.
          5    1    3    3  502    0  0.10485903399E+02  0.11486858050E+02  0.47763739001E+02  0.50451628728E+02  0.47000000000E+01 0. -1.
         -5    1    3    3    0  502 -0.14362817794E+03 -0.12775415847E+03  0.17084669148E+03  0.25721753535E+03  0.47000000000E+01 0. -1.
        -11    1    1    2    0    0  0.10688248555E+03  0.36083318435E+02 -0.44390416536E+02  0.12122862973E+03  0.00000000000E+00 0.  1.
         11    1    1    2    0    0  0.26259788996E+02  0.80183981986E+02 -0.15697283608E+01  0.84389048652E+02  0.00000000000E+00 0. -1.
<mgrwt>
<rscale>  0 0.21235750E+03</rscale>
<asrwt>0</asrwt>
<pdfrwt beam="1">  1        1 0.52764394E-01 0.21649433E+03</pdfrwt>
<pdfrwt beam="2">  1       -1 0.26202812E-01 0.21649433E+03</pdfrwt>
<totfact> 0.95052951E+02</totfact>
</mgrwt>
</event>
<event>
 7    1  0.5206756E-006  0.1410863E+03  0.7546771E-02  0.1221991E+00
          2   -1    0    0  501    0  0.00000000000E+00  0.00000000000E+00  0.19978438620E+03  0.19978438620E+03  0.00000000000E+00 0.  1.
         -2   -1    0    0    0  501 -0.00000000000E+00 -0.00000000000E+00 -0.82204563139E+02  0.82204563139E+02  0.00000000000E+00 0. -1.
         23    2    1    2    0    0 -0.49584085519E+02 -0.42682628593E+02  0.78860187166E+02  0.16163002508E+03  0.12499979027E+03 0.  0.
          5    1    3    3  502    0 -0.55225115178E+02 -0.68729897668E+02  0.11502728377E+02  0.89039401054E+02  0.47000000000E+01 0. -1.
         -5    1    3    3    0  502  0.56410296598E+01  0.26047269075E+02  0.67357458790E+02  0.72590624026E+02  0.47000000000E+01 0. -1.
        -11    1    1    2    0    0  0.74027759226E+02  0.27114592768E+02  0.44900465389E+02  0.90726854179E+02  0.00000000000E+00 0.  1.
         11    1    1    2    0    0 -0.24443673707E+02  0.15568035825E+02 -0.61808294982E+01  0.29632070077E+02  0.00000000000E+00 0. -1.
<mgrwt>
<rscale>  0 0.13375266E+03</rscale>
<asrwt>0</asrwt>
<pdfrwt beam="1">  1        2 0.30736059E-01 0.14108627E+03</pdfrwt>
<pdfrwt beam="2">  1       -2 0.12646856E-01 0.14108627E+03</pdfrwt>
<totfact> 0.73692179E+03</totfact>
</mgrwt>
</event>
<event>
 7    1  0.5206756E-006  0.1308742E+03  0.7546771E-02  0.1239346E+00
          1   -1    0    0  501    0  0.00000000000E+00  0.00000000000E+00  0.74517313646E+02  0.74517313646E+02  0.00000000000E+00 0. -1.
         -1   -1    0    0    0  501 -0.00000000000E+00 -0.00000000000E+00 -0.22208418810E+03  0.22208418810E+03  0.00000000000E+00 0.  1.
         23    2    1    2    0    0  0.34150248178E+02  0.18387820954E+02 -0.16580558240E+02  0.13192036249E+03  0.12499486277E+03 0.  0.
          5    1    3    3  502    0  0.63022718023E+02  0.52965383464E+01 -0.53542792666E+02  0.82999017777E+02  0.47000000000E+01 0. -1.
         -5    1    3    3    0  502 -0.28872469845E+02  0.13091282607E+02  0.36962234426E+02  0.48921344718E+02  0.47000000000E+01 0. -1.
        -11    1    1    2    0    0 -0.19554403347E+02 -0.25971084276E+02 -0.14148235611E+03  0.14516931149E+03  0.00000000000E+00 0.  1.
         11    1    1    2    0    0 -0.14595844831E+02  0.75832633223E+01  0.10496039896E+02  0.19511827758E+02  0.00000000000E+00 0. -1.
<mgrwt>
<rscale>  0 0.12230282E+03</rscale>
<asrwt>0</asrwt>
<pdfrwt beam="1">  1        1 0.11464202E-01 0.13087424E+03</pdfrwt>
<pdfrwt beam="2">  1       -1 0.34166798E-01 0.13087424E+03</pdfrwt>
<totfact> 0.41590439E+03</totfact>
</mgrwt>
</event>
<event>
 7    1  0.5206756E-006  0.2193377E+03  0.7546771E-02  0.1137906E+00
          1   -1    0    0  501    0  0.00000000000E+00  0.00000000000E+00  0.19415592990E+03  0.19415592990E+03  0.00000000000E+00 0. -1.
         -1   -1    0    0    0  501 -0.00000000000E+00 -0.00000000000E+00 -0.26810308034E+03  0.26810308034E+03  0.00000000000E+00 0.  1.
         23    2    1    2    0    0 -0.14777184487E+03 -0.10319780220E+03  0.51166967616E+02  0.22522677923E+03  0.12499095565E+03 0.  0.
          5    1    3    3  502    0 -0.15142168291E+03 -0.48396793458E+02  0.58838200839E+02  0.16957240209E+03  0.47000000000E+01 0.  1.
         -5    1    3    3    0  502  0.36498380387E+01 -0.54801008740E+02 -0.76712332228E+01  0.55654377149E+02  0.47000000000E+01 0.  1.
        -11    1    1    2    0    0  0.11179203685E+03  0.89224591125E+02 -0.13553874460E+03  0.19705135994E+03  0.00000000000E+00 0.  1.
         11    1    1    2    0    0  0.35979808013E+02  0.13973211073E+02  0.10424626546E+02  0.39980871063E+02  0.00000000000E+00 0. -1.
<mgrwt>
<rscale>  0 0.21468815E+03</rscale>
<asrwt>0</asrwt>
<pdfrwt beam="1">  1        1 0.29870143E-01 0.21933774E+03</pdfrwt>
<pdfrwt beam="2">  1       -1 0.41246628E-01 0.21933774E+03</pdfrwt>
<totfact> 0.88955425E+02</totfact>
</mgrwt>
</event>
<event>
 7    1  0.5206756E-006  0.1292159E+03  0.7546771E-02  0.1242998E+00
         -2   -1    0    0    0  501 -0.00000000000E+00  0.00000000000E+00  0.22376873478E+03  0.22376873478E+03  0.00000000000E+00 0.  1.
          2   -1    0    0  501    0  0.00000000000E+00 -0.00000000000E+00 -0.56950043598E+02  0.56950043598E+02  0.00000000000E+00 0. -1.
         23    2    1    2    0    0  0.12771122122E+02 -0.30120962205E+02  0.88944787441E+02  0.15686914771E+03  0.12500552134E+03 0.  0.
          5    1    3    3  502    0  0.22509223615E+02 -0.40731349824E+02  0.11643629556E+03  0.12547991445E+03  0.47000000000E+01 0.  1.
         -5    1    3    3    0  502 -0.97381014930E+01  0.10610387619E+02 -0.27491508119E+02  0.31389233262E+02  0.47000000000E+01 0.  1.
        -11    1    1    2    0    0 -0.25569015415E+02  0.36304605746E+02 -0.28802107767E+00  0.44405876906E+02  0.00000000000E+00 0. -1.
         11    1    1    2    0    0  0.12797893293E+02 -0.61836435411E+01  0.78161924815E+02  0.79443753757E+02  0.00000000000E+00 0.  1.
<mgrwt>
<rscale>  0 0.12005981E+03</rscale>
<asrwt>0</asrwt>
<pdfrwt beam="2">  1        2 0.87615453E-02 0.12921592E+03</pdfrwt>
<pdfrwt beam="1">  1       -2 0.34425959E-01 0.12921592E+03</pdfrwt>
<totfact> 0.56680432E+03</totfact>
</mgrwt>
</event>
<event>
 7    1  0.5206756E-006  0.1288459E+03  0.7546771E-02  0.1245075E+00
         -1   -1    0    0    0  501 -0.00000000000E+00  0.00000000000E+00  0.18657370003E+02  0.18657370003E+02  0.00000000000E+00 0.  1.
          1   -1    0    0  501    0  0.00000000000E+00 -0.00000000000E+00 -0.86977278803E+03  0.86977278803E+03  0.00000000000E+00 0. -1.
         23    2    1    2    0    0  0.30745695278E+02  0.56335295359E+01 -0.69332865592E+03  0.70519918092E+03  0.12499690083E+03 0.  0.
          5    1    3    3  502    0  0.37745816414E+02  0.52235801380E+02 -0.55987364444E+03  0.56359019983E+03  0.47000000000E+01 0.  1.
         -5    1    3    3    0  502 -0.70001211363E+01 -0.46602271844E+02 -0.13345501148E+03  0.14160898109E+03  0.47000000000E+01 0.  1.
        -11    1    1    2    0    0 -0.17120809650E+02 -0.46083718532E+02 -0.69055167436E+02  0.84767018270E+02  0.00000000000E+00 0.  1.
         11    1    1    2    0    0 -0.13624885628E+02  0.40450188996E+02 -0.88731594666E+02  0.98463958839E+02  0.00000000000E+00 0. -1.
<mgrwt>
<rscale>  0 0.11880881E+03</rscale>
<asrwt>0</asrwt>
<pdfrwt beam="2">  1        1 0.13381119E+00 0.12884588E+03</pdfrwt>
<pdfrwt beam="1">  1       -1 0.28703648E-02 0.12884588E+03</pdfrwt>
<totfact> 0.78303106E+03</totfact>
</mgrwt>
</event>
<event>
 7    1  0.5206756E-006  0.1340902E+03  0.7546771E-02  0.1234424E+00
          2   -1    0    0  501    0  0.00000000000E+00  0.00000000000E+00  0.14133696718E+04  0.14133696718E+04  0.00000000000E+00 0.  1.
         -2   -1    0    0    0  501 -0.00000000000E+00 -0.00000000000E+00 -0.13135826542E+02  0.13135826542E+02  0.00000000000E+00 0. -1.
         23    2    1    2    0    0  0.26235504107E+02  0.40840897154E+02  0.11214388018E+04  0.11294269161E+04  0.12499556809E+03 0.  0.
          5    1    3    3  502    0  0.63526914194E+02  0.63149559205E+02  0.69851984192E+03  0.70425534802E+03  0.47000000000E+01 0.  1.
         -5    1    3    3    0  502 -0.37291410087E+02 -0.22308662050E+02  0.42291895985E+03  0.42517156804E+03  0.47000000000E+01 0.  1.
        -11    1    1    2    0    0  0.25450965746E+02 -0.41421546921E+02  0.16661121893E+03  0.17355919590E+03  0.00000000000E+00 0.  1.
         11    1    1    2    0    0 -0.51686469854E+02  0.58064976621E+00  0.11218382451E+03  0.12351938634E+03  0.00000000000E+00 0. -1.
<mgrwt>
<rscale>  0 0.12541403E+03</rscale>
<asrwt>0</asrwt>
<pdfrwt beam="1">  1        2 0.21744137E+00 0.13409017E+03</pdfrwt>
<pdfrwt beam="2">  1       -2 0.20208975E-02 0.13409017E+03</pdfrwt>
<totfact> 0.11235078E+04</totfact>
</mgrwt>
</event>
<event>
 7    1  0.5206756E-006  0.1758941E+03  0.7546771E-02  0.1177726E+00
         -2   -1    0    0    0  501 -0.00000000000E+00  0.00000000000E+00  0.97003142103E+02  0.97003142103E+02  0.00000000000E+00 0.  1.
          2   -1    0    0  501    0  0.00000000000E+00 -0.00000000000E+00 -0.28220332134E+03  0.28220332134E+03  0.00000000000E+00 0. -1.
         23    2    1    2    0    0  0.73307489679E+02  0.99707412736E+02 -0.83234032453E+02  0.19459352761E+03  0.12499272232E+03 0.  0.
          5    1    3    3  502    0  0.56480705070E+02 -0.28126624959E+01  0.66518262746E+01  0.57134209615E+02  0.47000000000E+01 0. -1.
         -5    1    3    3    0  502  0.16826784610E+02  0.10252007523E+03 -0.89885858728E+02  0.13745931800E+03  0.47000000000E+01 0. -1.
        -11    1    1    2    0    0 -0.79902389383E+02 -0.52316644516E+02 -0.97619244126E+02  0.13656844418E+03  0.00000000000E+00 0. -1.
         11    1    1    2    0    0  0.65948997033E+01 -0.47390768220E+02 -0.43469026546E+01  0.48044491643E+02  0.00000000000E+00 0.  1.
<mgrwt>
<rscale>  0 0.17011683E+03</rscale>
<asrwt>0</asrwt>
<pdfrwt beam="2">  1        2 0.43415895E-01 0.17589411E+03</pdfrwt>
<pdfrwt beam="1">  1       -2 0.14923560E-01 0.17589411E+03</pdfrwt>
<totfact> 0.39365151E+03</totfact>
</mgrwt>
</event>
<event>
 7    1  0.5206756E-006  0.1462857E+03  0.7546771E-02  0.1214639E+00
         -2   -1    0    0    0  501 -0.00000000000E+00  0.00000000000E+00  0.19741321708E+02  0.19741321708E+02  0.00000000000E+00 0.  1.
          2   -1    0    0  501    0  0.00000000000E+00 -0.00000000000E+00 -0.91752832524E+03  0.91752832524E+03  0.00000000000E+00 0. -1.
         23    2    1    2    0    0 -0.73411421327E+02  0.19594119884E+02 -0.56850582378E+03  0.58702503287E+03  0.12500540479E+03 0.  0.
          5    1    3    3  502    0 -0.88685060586E+02 -0.29813258662E+02 -0.33795246278E+03  0.35069620395E+03  0.47000000000E+01 0.  1.
         -5    1    3    3    0  502  0.15273639259E+02  0.49407378546E+02 -0.23055336100E+03  0.23632882892E+03  0.47000000000E+01 0.  1.
        -11    1    1    2    0    0  0.29154718696E+01 -0.42108452314E+02 -0.16039945959E+03  0.16586020732E+03  0.00000000000E+00 0. -1.
         11    1    1    2    0    0  0.70495949458E+02  0.22514332431E+02 -0.16888172015E+03  0.18438440676E+03  0.00000000000E+00 0.  1.
<mgrwt>
<rscale>  0 0.13903049E+03</rscale>
<asrwt>0</asrwt>
<pdfrwt beam="2">  1        2 0.14115823E+00 0.14628574E+03</pdfrwt>
<pdfrwt beam="1">  1       -2 0.30371258E-02 0.14628574E+03</pdfrwt>
<totfact> 0.11866875E+04</totfact>
</mgrwt>
</event>
<event>
 7    1  0.5206756E-006  0.1431337E+03  0.7546771E-02  0.1219270E+00
         -1   -1    0    0    0  501 -0.00000000000E+00  0.00000000000E+00  0.10194490637E+03  0.10194490637E+03  0.00000000000E+00 0.  1.
          1   -1    0    0  501    0  0.00000000000E+00 -0.00000000000E+00 -0.16990429966E+03  0.16990429966E+03  0.00000000000E+00 0. -1.
         23    2    1    2    0    0 -0.39338035455E+01  0.69648062429E+02 -0.62455672766E+02  0.15616642677E+03  0.12498365645E+03 0.  0.
          5    1    3    3  502    0 -0.27718006413E+02 -0.29629333000E+02 -0.20412274097E+02  0.45661101468E+02  0.47000000000E+01 0. -1.
         -5    1    3    3    0  502  0.23784202867E+02  0.99277395429E+02 -0.42043398669E+02  0.11050532531E+03  0.47000000000E+01 0. -1.
        -11    1    1    2    0    0 -0.35347118243E+02 -0.21956710271E+02  0.23104405034E+02  0.47595476948E+02  0.00000000000E+00 0.  1.
         11    1    1    2    0    0  0.39280921788E+02 -0.47691352158E+02 -0.28608125558E+02  0.68087302305E+02  0.00000000000E+00 0. -1.
<mgrwt>
<rscale>  0 0.13567520E+03</rscale>
<asrwt>0</asrwt>
<pdfrwt beam="2">  1        1 0.26139123E-01 0.14313365E+03</pdfrwt>
<pdfrwt beam="1">  1       -1 0.15683832E-01 0.14313365E+03</pdfrwt>
<totfact> 0.51797912E+03</totfact>
</mgrwt>
</event>
<event>
 7    1  0.5637582E-006  0.2158529E+03  0.7546771E-02  0.1140644E+00
         -2   -1    0    0    0  501 -0.00000000000E+00  0.00000000000E+00  0.10955620199E+03  0.10955620199E+03  0.00000000000E+00 0. -1.
          2   -1    0    0  501    0  0.00000000000E+00 -0.00000000000E+00 -0.39182156520E+03  0.39182156520E+03  0.00000000000E+00 0.  1.
         23    2    1    2    0    0 -0.28721279689E+02  0.17361593306E+03 -0.13169987514E+03  0.25285833086E+03  0.12500029702E+03 0.  0.
          5    1    3    3  502    0 -0.91749573173E+01 -0.71753214090E+01 -0.53329833496E+02  0.54788924244E+02  0.47000000000E+01 0. -1.
         -5    1    3    3    0  502 -0.19546322371E+02  0.18079125447E+03 -0.78370041645E+02  0.19806940662E+03  0.47000000000E+01 0. -1.
        -11    1    1    2    0    0 -0.31925763112E+02 -0.67095706712E+02 -0.45899490391E+02  0.87337571684E+02  0.00000000000E+00 0.  1.
         11    1    1    2    0    0  0.60647042801E+02 -0.10652022635E+03 -0.10466599768E+03  0.16118186465E+03  0.00000000000E+00 0. -1.
<mgrwt>
<rscale>  0 0.21116860E+03</rscale>
<asrwt>0</asrwt>
<pdfrwt beam="2">  1        2 0.60280241E-01 0.21585291E+03</pdfrwt>
<pdfrwt beam="1">  1       -2 0.16854800E-01 0.21585291E+03</pdfrwt>
<totfact> 0.22788274E+03</totfact>
</mgrwt>
</event>
<event>
 7    1  0.5206756E-006  0.2523061E+03  0.7546771E-02  0.1114339E+00
         -1   -1    0    0    0  501 -0.00000000000E+00  0.00000000000E+00  0.80148272222E+02  0.80148272222E+02  0.00000000000E+00 0.  1.
          1   -1    0    0  501    0  0.00000000000E+00 -0.00000000000E+00 -0.10552228243E+04  0.10552228243E+04  0.00000000000E+00 0. -1.
         23    2    1    2    0    0  0.11096747579E+03 -0.18899921774E+03 -0.80528698400E+03  0.84388713095E+03  0.12499551272E+03 0.  0.
          5    1    3    3  502    0  0.22061842899E+02 -0.50416633185E+02 -0.64079791176E+02  0.84598294611E+02  0.47000000000E+01 0.  1.
         -5    1    3    3    0  502  0.88905632895E+02 -0.13858258456E+03 -0.74120719282E+03  0.75928883634E+03  0.47000000000E+01 0.  1.
        -11    1    1    2    0    0 -0.22437130566E+02  0.89430468330E+02 -0.26744038034E+02  0.96002484677E+02  0.00000000000E+00 0.  1.
         11    1    1    2    0    0 -0.88530345228E+02  0.99568749411E+02 -0.14304353006E+03  0.19548148090E+03  0.00000000000E+00 0. -1.
<mgrwt>
<rscale>  0 0.24837055E+03</rscale>
<asrwt>0</asrwt>
<pdfrwt beam="2">  1        1 0.16234196E+00 0.25230609E+03</pdfrwt>
<pdfrwt beam="1">  1       -1 0.12330504E-01 0.25230609E+03</pdfrwt>
<totfact> 0.64145119E+02</totfact>
</mgrwt>
</event>
<event>
 7    1  0.5206756E-006  0.1727208E+03  0.7546771E-02  0.1181042E+00
          2   -1    0    0  501    0  0.00000000000E+00  0.00000000000E+00  0.60361489766E+02  0.60361489766E+02  0.00000000000E+00 0. -1.
         -2   -1    0    0    0  501 -0.00000000000E+00 -0.00000000000E+00 -0.46396787623E+03  0.46396787623E+03  0.00000000000E+00 0.  1.
         23    2    1    2    0    0 -0.11448280789E+03  0.33194084009E+02 -0.14766244389E+03  0.22723706714E+03  0.12499730730E+03 0.  0.
          5    1    3    3  502    0 -0.75531637336E+02 -0.38823229965E+02 -0.10392055859E+03  0.13429014826E+03  0.47000000000E+01 0.  1.
         -5    1    3    3    0  502 -0.38951170555E+02  0.72017313974E+02 -0.43741885303E+02  0.92946918881E+02  0.47000000000E+01 0.  1.
        -11    1    1    2    0    0  0.44056591596E+02 -0.22941544850E+02 -0.25351937084E+02  0.55767539457E+02  0.00000000000E+00 0. -1.
         11    1    1    2    0    0  0.70426216295E+02 -0.10252539159E+02 -0.23059200549E+03  0.24132475940E+03  0.00000000000E+00 0.  1.
<mgrwt>
<rscale>  0 0.16697322E+03</rscale>
<asrwt>0</asrwt>
<pdfrwt beam="1">  1        2 0.92863834E-02 0.17272084E+03</pdfrwt>
<pdfrwt beam="2">  1       -2 0.71379670E-01 0.17272084E+03</pdfrwt>
<totfact> 0.12635392E+03</totfact>
</mgrwt>
</event>
<event>
 7    1  0.5206756E-006  0.1333263E+03  0.7546771E-02  0.1234796E+00
         -1   -1    0    0    0  501 -0.00000000000E+00  0.00000000000E+00  0.28431752122E+03  0.28431752122E+03  0.00000000000E+00 0.  1.
          1   -1    0    0  501    0  0.00000000000E+00 -0.00000000000E+00 -0.50456325233E+02  0.50456325233E+02  0.00000000000E+00 0. -1.
         23    2    1    2    0    0 -0.15664177647E+02  0.43605337574E+02  0.10674463333E+03  0.17079317441E+03  0.12501639794E+03 0.  0.
          5    1    3    3  502    0 -0.39342221129E+02  0.11439758165E+02 -0.13980539654E+02  0.43545653276E+02  0.47000000000E+01 0.  1.
         -5    1    3    3    0  502  0.23678043482E+02  0.32165579409E+02  0.12072517298E+03  0.12724752113E+03  0.47000000000E+01 0.  1.
        -11    1    1    2    0    0  0.52512789700E+02 -0.22642046890E+02  0.49921784981E+02  0.75910736955E+02  0.00000000000E+00 0. -1.
         11    1    1    2    0    0 -0.36848612053E+02 -0.20963290685E+02  0.77194777671E+02  0.88069935087E+02  0.00000000000E+00 0.  1.
<mgrwt>
<rscale>  0 0.12517483E+03</rscale>
<asrwt>0</asrwt>
<pdfrwt beam="2">  1        1 0.77625117E-02 0.13332626E+03</pdfrwt>
<pdfrwt beam="1">  1       -1 0.43741156E-01 0.13332626E+03</pdfrwt>
<totfact> 0.45454319E+03</totfact>
</mgrwt>
</event>
<event>
 7    1  0.5206756E-006  0.1308010E+03  0.7546771E-02  0.1239704E+00
         -2   -1    0    0    0  501 -0.00000000000E+00  0.00000000000E+00  0.20325218967E+02  0.20325218967E+02  0.00000000000E+00 0. -1.
          2   -1    0    0  501    0  0.00000000000E+00 -0.00000000000E+00 -0.87463681204E+03  0.87463681204E+03  0.00000000000E+00 0.  1.
         23    2    1    2    0    0 -0.37510445755E+02 -0.88577097092E+01 -0.69544036732E+03  0.70763423440E+03  0.12499365037E+03 0.  0.
          5    1    3    3  502    0 -0.17146376188E+02  0.85190574630E+01 -0.10847038383E+02  0.22501573236E+02  0.47000000000E+01 0. -1.
         -5    1    3    3    0  502 -0.20364069567E+02 -0.17376767172E+02 -0.68459332894E+03  0.68513266116E+03  0.47000000000E+01 0. -1.
        -11    1    1    2    0    0  0.30892625590E+02  0.46102237894E+02 -0.61345154777E+02  0.82722419387E+02  0.00000000000E+00 0. -1.
         11    1    1    2    0    0  0.66178201645E+01 -0.37244528185E+02 -0.97526070976E+02  0.10460537722E+03  0.00000000000E+00 0.  1.
<mgrwt>
<rscale>  0 0.12208066E+03</rscale>
<asrwt>0</asrwt>
<pdfrwt beam="2">  1        2 0.13455948E+00 0.13080101E+03</pdfrwt>
<pdfrwt beam="1">  1       -2 0.31269574E-02 0.13080101E+03</pdfrwt>
<totfact> 0.12018266E+04</totfact>
</mgrwt>
</event>
<event>
 7    1  0.5206756E-006  0.1576405E+03  0.7546771E-02  0.1199408E+00
          1   -1    0    0  501    0  0.00000000000E+00  0.00000000000E+00  0.33409826154E+02  0.33409826154E+02  0.00000000000E+00 0. -1.
         -1   -1    0    0    0  501 -0.00000000000E+00 -0.00000000000E+00 -0.63403871041E+03  0.63403871041E+03  0.00000000000E+00 0.  1.
         23    2    1    2    0    0  0.95666012487E+02  0.84872915399E+01 -0.35648851817E+03  0.38978788397E+03  0.12500604321E+03 0.  0.
          5    1    3    3  502    0 -0.16506940438E+02  0.16006948947E+02 -0.10043683366E+02  0.25527770619E+02  0.47000000000E+01 0.  1.
         -5    1    3    3    0  502  0.11217295293E+03 -0.75196574074E+01 -0.34644483481E+03  0.36426011335E+03  0.47000000000E+01 0.  1.
        -11    1    1    2    0    0 -0.84397012583E+02  0.22029741551E+02 -0.11414530731E+03  0.14365694006E+03  0.00000000000E+00 0. -1.
         11    1    1    2    0    0 -0.11268999904E+02 -0.30517033091E+02 -0.12999505877E+03  0.13400371253E+03  0.00000000000E+00 0.  1.
<mgrwt>
<rscale>  0 0.15086985E+03</rscale>
<asrwt>0</asrwt>
<pdfrwt beam="1">  1        1 0.51399740E-02 0.15764051E+03</pdfrwt>
<pdfrwt beam="2">  1       -1 0.97544402E-01 0.15764051E+03</pdfrwt>
<totfact> 0.16728508E+03</totfact>
</mgrwt>
</event>
<event>
 7    1  0.5206756E-006  0.1275391E+03  0.7546771E-02  0.1244943E+00
          1   -1    0    0  501    0  0.00000000000E+00  0.00000000000E+00  0.52614613621E+02  0.52614613621E+02  0.00000000000E+00 0. -1.
         -1   -1    0    0    0  501 -0.00000000000E+00 -0.00000000000E+00 -0.38415522382E+03  0.38415522382E+03  0.00000000000E+00 0.  1.
         23    2    1    2    0    0 -0.25327474689E+02 -0.13532369850E+00 -0.46251547054E+02  0.13566664139E+03  0.12499893077E+03 0.  0.
          5    1    3    3  502    0 -0.75442103867E+02  0.20933986886E+01 -0.37940879109E+02  0.84601971971E+02  0.47000000000E+01 0.  1.
         -5    1    3    3    0  502  0.50114629178E+02 -0.22287223871E+01 -0.83106679447E+01  0.51064669418E+02  0.47000000000E+01 0.  1.
        -11    1    1    2    0    0 -0.22514671716E+02  0.31702391976E+02 -0.12196514295E+03  0.12801346880E+03  0.00000000000E+00 0.  1.
         11    1    1    2    0    0  0.47842146405E+02 -0.31567068277E+02 -0.16332392020E+03  0.17308972725E+03  0.00000000000E+00 0. -1.
<mgrwt>
<rscale>  0 0.11888767E+03</rscale>
<asrwt>0</asrwt>
<pdfrwt beam="1">  1        1 0.80945560E-02 0.12753914E+03</pdfrwt>
<pdfrwt beam="2">  1       -1 0.59100803E-01 0.12753914E+03</pdfrwt>
<totfact> 0.24701350E+03</totfact>
</mgrwt>
</event>
<event>
 7    1  0.5206756E-006  0.2227759E+03  0.7546771E-02  0.1134347E+00
          1   -1    0    0  501    0  0.00000000000E+00  0.00000000000E+00  0.40516894301E+03  0.40516894301E+03  0.00000000000E+00 0. -1.
         -1   -1    0    0    0  501 -0.00000000000E+00 -0.00000000000E+00 -0.12985600071E+03  0.12985600071E+03  0.00000000000E+00 0.  1.
         23    2    1    2    0    0  0.17621868816E+03  0.55460031053E+02  0.23094959387E+03  0.32088445896E+03  0.12450012047E+03 0.  0.
          5    1    3    3  502    0  0.10373265589E+03  0.27383151719E+02  0.39881229178E+02  0.11455524142E+03  0.47000000000E+01 0. -1.
         -5    1    3    3    0  502  0.72486032271E+02  0.28076879334E+02  0.19106836469E+03  0.20632921755E+03  0.47000000000E+01 0. -1.
        -11    1    1    2    0    0 -0.13174930970E+03  0.45154676507E+01  0.45531398020E+02  0.13946819803E+03  0.00000000000E+00 0. -1.
         11    1    1    2    0    0 -0.44469378456E+02 -0.59975498703E+02 -0.11680495973E+01  0.74672286726E+02  0.00000000000E+00 0.  1.
<mgrwt>
<rscale>  0 0.21937872E+03</rscale>
<asrwt>0</asrwt>
<pdfrwt beam="1">  1        1 0.62333683E-01 0.22277594E+03</pdfrwt>
<pdfrwt beam="2">  1       -1 0.19977846E-01 0.22277594E+03</pdfrwt>
<totfact> 0.12020982E+03</totfact>
</mgrwt>
</event>
<event>
 6    1  0.5206756E-006  0.1368805E+03  0.7546771E-02  0.1232900E+00
         -4   -1    0    0    0  501 -0.00000000000E+00  0.00000000000E+00  0.80796315635E+02  0.80796315635E+02  0.00000000000E+00 0.  1.
          4   -1    0    0  501    0  0.00000000000E+00 -0.00000000000E+00 -0.33173398033E+03  0.33173398033E+03  0.00000000000E+00 0. -1.
          5    1    1    2  502    0 -0.44061795350E+02  0.68954954622E+01 -0.27865219411E+03  0.28223771001E+03  0.47000000000E+01 0. -1.
         -5    1    1    2    0  502  0.26083228196E+02  0.62870270780E+01  0.10690132439E+01  0.27259755903E+02  0.47000000000E+01 0.  1.
        -11    1    1    2    0    0 -0.97250097566E+01 -0.40953061065E+02 -0.16054976048E+02  0.45049875486E+02  0.00000000000E+00 0.  1.
         11    1    1    2    0    0  0.27703576911E+02  0.27770538525E+02  0.42700492226E+02  0.57982954563E+02  0.00000000000E+00 0. -1.
<mgrwt>
<rscale>  0 0.12639857E+03</rscale>
<asrwt>0</asrwt>
<pdfrwt beam="2">  1        4 0.51035996E-01 0.13688046E+03</pdfrwt>
<pdfrwt beam="1">  1       -4 0.12430203E-01 0.13688046E+03</pdfrwt>
<totfact> 0.32415392E+02</totfact>
</mgrwt>
</event>
<event>
 7    1  0.5206756E-006  0.2944894E+03  0.7546771E-02  0.1089736E+00
         -2   -1    0    0    0  501 -0.00000000000E+00  0.00000000000E+00  0.59716646589E+02  0.59716646589E+02  0.00000000000E+00 0.  1.
          2   -1    0    0  501    0  0.00000000000E+00 -0.00000000000E+00 -0.15832283058E+04  0.15832283058E+04  0.00000000000E+00 0. -1.
         23    2    1    2    0    0  0.26600693704E+03  0.18395644410E+02 -0.10647249242E+04  0.11047004779E+04  0.12500356534E+03 0.  0.
          5    1    3    3  502    0  0.11545819532E+02  0.23468760903E+02 -0.24304400435E+03  0.24449246765E+03  0.47000000000E+01 0.  1.
         -5    1    3    3    0  502  0.25446111750E+03 -0.50731164928E+01 -0.82168091988E+03  0.86020801027E+03  0.47000000000E+01 0.  1.
        -11    1    1    2    0    0 -0.23927684336E+03  0.80291778545E+01 -0.35799001945E+03  0.43066777160E+03  0.00000000000E+00 0.  1.
         11    1    1    2    0    0 -0.26730093673E+02 -0.26424822265E+02 -0.10079671551E+03  0.10757670286E+03  0.00000000000E+00 0. -1.
<mgrwt>
<rscale>  0 0.29117751E+03</rscale>
<asrwt>0</asrwt>
<pdfrwt beam="2">  1        2 0.24357357E+00 0.29448936E+03</pdfrwt>
<pdfrwt beam="1">  1       -2 0.91871769E-02 0.29448936E+03</pdfrwt>
<totfact> 0.93524157E+02</totfact>
</mgrwt>
</event>
<event>
 7    1  0.5206756E-006  0.1377316E+03  0.7546771E-02  0.1227853E+00
         -1   -1    0    0    0  501 -0.00000000000E+00  0.00000000000E+00  0.13184610374E+03  0.13184610374E+03  0.00000000000E+00 0.  1.
          1   -1    0    0  501    0  0.00000000000E+00 -0.00000000000E+00 -0.11883865283E+03  0.11883865283E+03  0.00000000000E+00 0. -1.
         23    2    1    2    0    0  0.39401836241E+02 -0.42316322908E+02 -0.15450935105E+02  0.13859550960E+03  0.12500723180E+03 0.  0.
          5    1    3    3  502    0  0.21655926795E+02 -0.27483156145E+02  0.54407420573E+02  0.64858002208E+02  0.47000000000E+01 0. -1.
         -5    1    3    3    0  502  0.17745909447E+02 -0.14833166762E+02 -0.69858355678E+02  0.73737507392E+02  0.47000000000E+01 0. -1.
        -11    1    1    2    0    0  0.18475438348E+02  0.12086079150E+02  0.40087793407E+02  0.45765121125E+02  0.00000000000E+00 0.  1.
         11    1    1    2    0    0 -0.57877274589E+02  0.30230243758E+02 -0.11629407391E+02  0.66324125835E+02  0.00000000000E+00 0. -1.
<mgrwt>
<rscale>  0 0.12973253E+03</rscale>
<asrwt>0</asrwt>
<pdfrwt beam="2">  1        1 0.18282870E-01 0.13773156E+03</pdfrwt>
<pdfrwt beam="1">  1       -1 0.20284016E-01 0.13773156E+03</pdfrwt>
<totfact> 0.53966860E+03</totfact>
</mgrwt>
</event>
<event>
 6    1  0.5206756E-006  0.2315488E+03  0.7546771E-02  0.1162193E+00
          2   -1    0    0  501    0  0.00000000000E+00  0.00000000000E+00  0.14112060169E+04  0.14112060169E+04  0.00000000000E+00 0. -1.
         -2   -1    0    0    0  501 -0.00000000000E+00 -0.00000000000E+00 -0.30708172657E+02  0.30708172657E+02  0.00000000000E+00 0.  1.
          5    1    1    2  502    0  0.39923545804E+02 -0.27176620590E+02  0.11560949030E+04  0.11571127745E+04  0.47000000000E+01 0. -1.
         -5    1    1    2    0  502 -0.73291150445E+02 -0.11994718508E+02  0.13114198568E+03  0.15078387319E+03  0.47000000000E+01 0.  1.
        -11    1    1    2    0    0  0.17243694834E+02  0.63098293424E+02  0.76488108059E+02  0.10064377934E+03  0.00000000000E+00 0.  1.
         11    1    1    2    0    0  0.16123909806E+02 -0.23926954326E+02  0.16772847504E+02  0.33373762511E+02  0.00000000000E+00 0. -1.
<mgrwt>
<rscale>  0 0.18592012E+03</rscale>
<asrwt>0</asrwt>
<pdfrwt beam="1">  1        2 0.21710857E+00 0.23154877E+03</pdfrwt>
<pdfrwt beam="2">  1       -2 0.47243354E-02 0.23154877E+03</pdfrwt>
<totfact> 0.32486526E+03</totfact>
</mgrwt>
</event>
<event>
 7    1  0.5206756E-006  0.1353853E+03  0.7546771E-02  0.1230702E+00
         -1   -1    0    0    0  501 -0.00000000000E+00  0.00000000000E+00  0.20738051168E+02  0.20738051168E+02  0.00000000000E+00 0.  1.
          1   -1    0    0  501    0  0.00000000000E+00 -0.00000000000E+00 -0.77373921449E+03  0.77373921449E+03  0.00000000000E+00 0. -1.
         23    2    1    2    0    0  0.60907033049E+02  0.27393227172E+02 -0.52770939339E+03  0.54479940495E+03  0.11776727980E+03 0.  0.
          5    1    3    3  502    0 -0.10922120401E+02  0.54769358863E+02 -0.17400887156E+03  0.18281179602E+03  0.47000000000E+01 0. -1.
         -5    1    3    3    0  502  0.71829153450E+02 -0.27376131691E+02 -0.35370052183E+03  0.36198760892E+03  0.47000000000E+01 0.  1.
        -11    1    1    2    0    0 -0.21709011529E+01  0.23189878143E+02 -0.21718504762E+02  0.31846141198E+02  0.00000000000E+00 0.  1.
         11    1    1    2    0    0 -0.58736131896E+02 -0.50583105315E+02 -0.20357326518E+03  0.21783171952E+03  0.00000000000E+00 0. -1.
<mgrwt>
<rscale>  0 0.12783645E+03</rscale>
<asrwt>0</asrwt>
<pdfrwt beam="2">  1        1 0.11903677E+00 0.13538533E+03</pdfrwt>
<pdfrwt beam="1">  1       -1 0.31904702E-02 0.13538533E+03</pdfrwt>
<totfact> 0.80450542E+03</totfact>
</mgrwt>
</event>
<event>
 7    1  0.5206756E-006  0.2964034E+03  0.7546771E-02  0.1088634E+00
          1   -1    0    0  501    0  0.00000000000E+00  0.00000000000E+00  0.18980750336E+04  0.18980750336E+04  0.00000000000E+00 0. -1.
         -1   -1    0    0    0  501 -0.00000000000E+00 -0.00000000000E+00 -0.10444266231E+03  0.10444266231E+03  0.00000000000E+00 0.  1.
         23    2    1    2    0    0 -0.87912510397E+02  0.25397100372E+03  0.16638931685E+04  0.16900874099E+04  0.12500038725E+03 0.  0.
          5    1    3    3  502    0 -0.64082265389E+02  0.26281374792E+03  0.15183895965E+04  0.15423056311E+04  0.47000000000E+01 0. -1.
         -5    1    3    3    0  502 -0.23830245007E+02 -0.88427442017E+01  0.14550357200E+03  0.14778177887E+03  0.47000000000E+01 0. -1.
        -11    1    1    2    0    0  0.31567739519E+00 -0.98714037464E+02  0.13539846312E+02  0.99638789047E+02  0.00000000000E+00 0.  1.
         11    1    1    2    0    0  0.87596833001E+02 -0.15525696626E+03  0.11619935648E+03  0.21279149694E+03  0.00000000000E+00 0. -1.
<mgrwt>
<rscale>  0 0.29330918E+03</rscale>
<asrwt>0</asrwt>
<pdfrwt beam="1">  1        1 0.29201152E+00 0.29640340E+03</pdfrwt>
<pdfrwt beam="2">  1       -1 0.16068103E-01 0.29640340E+03</pdfrwt>
<totfact> 0.11299223E+02</totfact>
</mgrwt>
</event>
<event>
 7    1  0.5206756E-006  0.1268933E+03  0.7546771E-02  0.1246745E+00
          1   -1    0    0  501    0  0.00000000000E+00  0.00000000000E+00  0.13767722538E+03  0.13767722538E+03  0.00000000000E+00 0. -1.
         -1   -1    0    0    0  501 -0.00000000000E+00 -0.00000000000E+00 -0.11469592958E+03  0.11469592958E+03  0.00000000000E+00 0.  1.
         23    2    1    2    0    0 -0.82556553265E+01 -0.20245570564E+02  0.72209884496E+02  0.14600058951E+03  0.12499546290E+03 0.  0.
          5    1    3    3  502    0 -0.51285737456E+02 -0.51372085299E+02  0.49861974613E+02  0.88190841512E+02  0.47000000000E+01 0. -1.
         -5    1    3    3    0  502  0.43030082130E+02  0.31126514735E+02  0.22347909883E+02  0.57809747999E+02  0.47000000000E+01 0. -1.
        -11    1    1    2    0    0 -0.10087013328E+02  0.38132598989E+02 -0.65184719132E+02  0.76189832339E+02  0.00000000000E+00 0.  1.
         11    1    1    2    0    0  0.18342668654E+02 -0.17887028425E+02  0.15956130439E+02  0.30182733108E+02  0.00000000000E+00 0. -1.
<mgrwt>
<rscale>  0 0.11781535E+03</rscale>
<asrwt>0</asrwt>
<pdfrwt beam="1">  1        1 0.21181111E-01 0.12689328E+03</pdfrwt>
<pdfrwt beam="2">  1       -1 0.17645528E-01 0.12689328E+03</pdfrwt>
<totfact> 0.55609751E+03</totfact>
</mgrwt>
</event>
<event>
 7    1  0.5206756E-006  0.1351683E+03  0.7546771E-02  0.1231690E+00
          2   -1    0    0  501    0  0.00000000000E+00  0.00000000000E+00  0.40621510938E+02  0.40621510938E+02  0.00000000000E+00 0. -1.
         -2   -1    0    0    0  501 -0.00000000000E+00 -0.00000000000E+00 -0.38731427048E+03  0.38731427048E+03  0.00000000000E+00 0.  1.
         23    2    1    2    0    0 -0.25745498034E+02 -0.44516122009E+02 -0.13411889783E+03  0.19041622482E+03  0.12500377646E+03 0.  0.
          5    1    3    3  502    0 -0.64595048819E+02 -0.46585768419E+02 -0.41674538777E+02  0.90008951407E+02  0.47000000000E+01 0. -1.
         -5    1    3    3    0  502  0.38849550785E+02  0.20696464098E+01 -0.92444359056E+02  0.10040727341E+03  0.47000000000E+01 0. -1.
        -11    1    1    2    0    0 -0.92333735122E+01  0.42485576529E+02 -0.19205723837E+03  0.19691689163E+03  0.00000000000E+00 0.  1.
         11    1    1    2    0    0  0.34978871546E+02  0.20305454806E+01 -0.20516623342E+02  0.40602664973E+02  0.00000000000E+00 0. -1.
<mgrwt>
<rscale>  0 0.12718718E+03</rscale>
<asrwt>0</asrwt>
<pdfrwt beam="1">  1        2 0.62494631E-02 0.13516827E+03</pdfrwt>
<pdfrwt beam="2">  1       -2 0.59586812E-01 0.13516827E+03</pdfrwt>
<totfact> 0.30057477E+03</totfact>
</mgrwt>
</event>
<event>
 6    1  0.5206756E-006  0.1409611E+03  0.7546771E-02  0.1231318E+00
         -1   -1    0    0    0  501 -0.00000000000E+00  0.00000000000E+00  0.23702039423E+03  0.23702039423E+03  0.00000000000E+00 0.  1.
          1   -1    0    0  501    0  0.00000000000E+00 -0.00000000000E+00 -0.67353812598E+02  0.67353812598E+02  0.00000000000E+00 0. -1.
          5    1    1    2  502    0 -0.18948193522E+02 -0.36870560348E+02 -0.37042735492E+02  0.55791814014E+02  0.47000000000E+01 0. -1.
         -5    1    1    2    0  502 -0.49957583392E+01  0.41933188782E+02  0.81674858834E+02  0.92066402603E+02  0.47000000000E+01 0.  1.
        -11    1    1    2    0    0  0.57129660015E+02  0.35923869519E+01  0.95075195939E+02  0.11097745798E+03  0.00000000000E+00 0.  1.
         11    1    1    2    0    0 -0.33185708154E+02 -0.86550153851E+01  0.29959262355E+02  0.45538532232E+02  0.00000000000E+00 0. -1.
<mgrwt>
<rscale>  0 0.12743124E+03</rscale>
<asrwt>0</asrwt>
<pdfrwt beam="2">  1        1 0.10362125E-01 0.14096108E+03</pdfrwt>
<pdfrwt beam="1">  1       -1 0.36464676E-01 0.14096108E+03</pdfrwt>
<totfact> 0.42686021E+03</totfact>
</mgrwt>
</event>
<event>
 7    1  0.5206756E-006  0.1307386E+03  0.7546771E-02  0.1241350E+00
         -2   -1    0    0    0  501 -0.00000000000E+00  0.00000000000E+00  0.24707482721E+03  0.24707482721E+03  0.00000000000E+00 0.  1.
          2   -1    0    0  501    0  0.00000000000E+00 -0.00000000000E+00 -0.83814658063E+02  0.83814658063E+02  0.00000000000E+00 0. -1.
         23    2    1    2    0    0 -0.37600915535E+02 -0.73358840555E+01 -0.11697712205E+02  0.13126086185E+03  0.12499973335E+03 0.  0.
          5    1    3    3  502    0  0.30783527303E+02  0.37552489606E+02 -0.32998495952E+01  0.48895746606E+02  0.47000000000E+01 0.  1.
         -5    1    3    3    0  502 -0.68384442838E+02 -0.44888373662E+02 -0.83978626097E+01  0.82365115241E+02  0.47000000000E+01 0.  1.
        -11    1    1    2    0    0  0.32185734405E+02  0.45798210491E+02  0.86678864480E+02  0.10318247492E+03  0.00000000000E+00 0. -1.
         11    1    1    2    0    0  0.54151811304E+01 -0.38462326436E+02  0.88279016869E+02  0.96446148502E+02  0.00000000000E+00 0.  1.
<mgrwt>
<rscale>  0 0.12106528E+03</rscale>
<asrwt>0</asrwt>
<pdfrwt beam="2">  1        2 0.12894563E-01 0.13073858E+03</pdfrwt>
<pdfrwt beam="1">  1       -2 0.38011511E-01 0.13073858E+03</pdfrwt>
<totfact> 0.29491783E+03</totfact>
</mgrwt>
</event>
<event>
 7    1  0.5206756E-006  0.1306330E+03  0.7546771E-02  0.1240108E+00
          4   -1    0    0  501    0  0.00000000000E+00  0.00000000000E+00  0.61193390192E+02  0.61193390192E+02  0.00000000000E+00 0. -1.
         -4   -1    0    0    0  501 -0.00000000000E+00 -0.00000000000E+00 -0.22164432667E+03  0.22164432667E+03  0.00000000000E+00 0.  1.
         23    2    1    2    0    0 -0.14959374938E+02 -0.34863327114E+02 -0.66942290013E+02  0.14678640522E+03  0.12500297632E+03 0.  0.
          5    1    3    3  502    0  0.21881607993E+02 -0.13554191059E+02  0.30599092850E+02  0.40260592977E+02  0.47000000000E+01 0.  1.
         -5    1    3    3    0  502 -0.36840982931E+02 -0.21309136056E+02 -0.97541382863E+02  0.10652581224E+03  0.47000000000E+01 0.  1.
        -11    1    1    2    0    0 -0.18355418458E+02  0.18118077613E+02  0.87276424456E+01  0.27227887649E+02  0.00000000000E+00 0. -1.
         11    1    1    2    0    0  0.33314793395E+02  0.16745249501E+02 -0.10223628891E+03  0.10882342400E+03  0.00000000000E+00 0.  1.
<mgrwt>
<rscale>  0 0.12183014E+03</rscale>
<asrwt>0</asrwt>
<pdfrwt beam="1">  1        4 0.94143676E-02 0.13063299E+03</pdfrwt>
<pdfrwt beam="2">  1       -4 0.34099128E-01 0.13063299E+03</pdfrwt>
<totfact> 0.11433894E+03</totfact>
</mgrwt>
</event>
<event>
 7    1  0.5206756E-006  0.1582706E+03  0.7546771E-02  0.1198079E+00
          1   -1    0    0  501    0  0.00000000000E+00  0.00000000000E+00  0.21555632651E+03  0.21555632651E+03  0.00000000000E+00 0. -1.
         -1   -1    0    0    0  501 -0.00000000000E+00 -0.00000000000E+00 -0.24104607192E+03  0.24104607192E+03  0.00000000000E+00 0.  1.
         23    2    1    2    0    0  0.49167275239E+02 -0.83686733405E+02  0.16158609738E+03  0.22618500577E+03  0.12501479779E+03 0.  0.
          5    1    3    3  502    0  0.56475189292E+02 -0.10970407171E+03  0.10044195860E+03  0.15917005812E+03  0.47000000000E+01 0. -1.
         -5    1    3    3    0  502 -0.73079140531E+01  0.26017338309E+02  0.61144138789E+02  0.67014947651E+02  0.47000000000E+01 0. -1.
        -11    1    1    2    0    0 -0.28240583484E+02  0.81361014161E+02 -0.19052062536E+03  0.20908193099E+03  0.00000000000E+00 0.  1.
         11    1    1    2    0    0 -0.20926691755E+02  0.23257192442E+01  0.34447825662E+01  0.21335461671E+02  0.00000000000E+00 0. -1.
<mgrwt>
<rscale>  0 0.15196531E+03</rscale>
<asrwt>0</asrwt>
<pdfrwt beam="1">  1        1 0.33162512E-01 0.15827062E+03</pdfrwt>
<pdfrwt beam="2">  1       -1 0.37084011E-01 0.15827062E+03</pdfrwt>
<totfact> 0.93720279E+02</totfact>
</mgrwt>
</event>
<event>
 7    1  0.5206756E-006  0.1327639E+03  0.7546771E-02  0.1238890E+00
          2   -1    0    0  501    0  0.00000000000E+00  0.00000000000E+00  0.10984188340E+04  0.10984188340E+04  0.00000000000E+00 0. -1.
         -2   -1    0    0    0  501 -0.00000000000E+00 -0.00000000000E+00 -0.13596469175E+02  0.13596469175E+02  0.00000000000E+00 0.  1.
         23    2    1    2    0    0 -0.22723976048E+02  0.38583193219E+02  0.80847027612E+03  0.81929875509E+03  0.12498488243E+03 0.  0.
          5    1    3    3  502    0 -0.29438558119E+02 -0.18648309893E+02  0.67806774099E+02  0.76382175799E+02  0.47000000000E+01 0.  1.
         -5    1    3    3    0  502  0.67145820714E+01  0.57231503112E+02  0.74066350202E+03  0.74291657929E+03  0.47000000000E+01 0.  1.
        -11    1    1    2    0    0  0.53771500468E+02 -0.15197750244E+02  0.13474449454E+03  0.14587126065E+03  0.00000000000E+00 0.  1.
         11    1    1    2    0    0 -0.31047524420E+02 -0.23385442976E+02  0.14160759413E+03  0.14684528740E+03  0.00000000000E+00 0. -1.
<mgrwt>
<rscale>  0 0.12258671E+03</rscale>
<asrwt>0</asrwt>
<pdfrwt beam="1">  1        2 0.16898744E+00 0.13276394E+03</pdfrwt>
<pdfrwt beam="2">  1       -2 0.20917654E-02 0.13276394E+03</pdfrwt>
<totfact> 0.15871479E+04</totfact>
</mgrwt>
</event>
<event>
 6    1  0.5206756E-006  0.2369581E+03  0.7546771E-02  0.1143169E+00
         -2   -1    0    0    0  501 -0.00000000000E+00  0.00000000000E+00  0.77546106433E+02  0.77546106433E+02  0.00000000000E+00 0.  1.
          2   -1    0    0  501    0  0.00000000000E+00 -0.00000000000E+00 -0.48430139204E+03  0.48430139204E+03  0.00000000000E+00 0. -1.
          5    1    1    2  502    0 -0.78970977989E+02 -0.48826602636E+01 -0.31834264133E+03  0.32806155371E+03  0.47000000000E+01 0. -1.
         -5    1    1    2    0  502  0.14491525869E+02 -0.63326127603E+02  0.43860435182E+01  0.65280396268E+02  0.47000000000E+01 0.  1.
        -11    1    1    2    0    0  0.35861978308E+02 -0.15179663496E+02 -0.65520388564E+02  0.76219584029E+02  0.00000000000E+00 0.  1.
         11    1    1    2    0    0  0.28617473812E+02  0.83388451362E+02 -0.27278299234E+02  0.92285964464E+02  0.00000000000E+00 0. -1.
<mgrwt>
<rscale>  0 0.20798829E+03</rscale>
<asrwt>0</asrwt>
<pdfrwt beam="2">  1        2 0.74507905E-01 0.23695811E+03</pdfrwt>
<pdfrwt beam="1">  1       -2 0.11930170E-01 0.23695811E+03</pdfrwt>
<totfact> 0.31955776E+03</totfact>
</mgrwt>
</event>
<event>
 7    1  0.5206756E-006  0.2029829E+03  0.7546771E-02  0.1152463E+00
          2   -1    0    0  501    0  0.00000000000E+00  0.00000000000E+00  0.57770993917E+03  0.57770993917E+03  0.00000000000E+00 0. -1.
         -2   -1    0    0    0  501 -0.00000000000E+00 -0.00000000000E+00 -0.68635290009E+02  0.68635290009E+02  0.00000000000E+00 0.  1.
         23    2    1    2    0    0 -0.23942069879E+01 -0.15991701033E+03  0.35924809767E+03  0.41262725295E+03  0.12499148683E+03 0.  0.
          5    1    3    3  502    0 -0.26236484776E+02 -0.15405840403E+03  0.21280031558E+03  0.26406137411E+03  0.47000000000E+01 0. -1.
         -5    1    3    3    0  502  0.23842277788E+02 -0.58586063017E+01  0.14644778209E+03  0.14856587884E+03  0.47000000000E+01 0. -1.
        -11    1    1    2    0    0 -0.11048236802E+02  0.76028863332E+02  0.21433513719E+02  0.79761187970E+02  0.00000000000E+00 0.  1.
         11    1    1    2    0    0  0.13442443790E+02  0.83888146998E+02  0.12839303778E+03  0.15395678826E+03  0.00000000000E+00 0. -1.
<mgrwt>
<rscale>  0 0.19680505E+03</rscale>
<asrwt>0</asrwt>
<pdfrwt beam="1">  1        2 0.88878449E-01 0.20298289E+03</pdfrwt>
<pdfrwt beam="2">  1       -2 0.10559276E-01 0.20298289E+03</pdfrwt>
<totfact> 0.31700030E+03</totfact>
</mgrwt>
</event>
<event>
 7    1  0.5206756E-006  0.2203740E+03  0.7546771E-02  0.1137038E+00
         -1   -1    0    0    0  501 -0.00000000000E+00  0.00000000000E+00  0.26520090597E+02  0.26520090597E+02  0.00000000000E+00 0.  1.
          1   -1    0    0  501    0  0.00000000000E+00 -0.00000000000E+00 -0.20431808910E+04  0.20431808910E+04  0.00000000000E+00 0. -1.
         23    2    1    2    0    0  0.13527778776E+03 -0.12099778485E+03 -0.14745609631E+04  0.14909375381E+04  0.12499665927E+03 0.  0.
          5    1    3    3  502    0  0.50655426204E+02 -0.12547910699E+03 -0.92845070292E+03  0.93827169639E+03  0.47000000000E+01 0.  1.
         -5    1    3    3    0  502  0.84622361557E+02  0.44813221361E+01 -0.54611026013E+03  0.55266584167E+03  0.47000000000E+01 0.  1.
        -11    1    1    2    0    0 -0.18489910609E+02 -0.10260445304E+02 -0.25627336984E+02  0.33225200271E+02  0.00000000000E+00 0. -1.
         11    1    1    2    0    0 -0.11678787715E+03  0.13125823015E+03 -0.51647250034E+03  0.54553824324E+03  0.00000000000E+00 0.  1.
<mgrwt>
<rscale>  0 0.21582104E+03</rscale>
<asrwt>0</asrwt>
<pdfrwt beam="2">  1        1 0.31433549E+00 0.22037402E+03</pdfrwt>
<pdfrwt beam="1">  1       -1 0.40800143E-02 0.22037402E+03</pdfrwt>
<totfact> 0.75962520E+02</totfact>
</mgrwt>
</event>
<event>
 7    1  0.5206756E-006  0.1273643E+03  0.7546771E-02  0.1244282E+00
          1   -1    0    0  501    0  0.00000000000E+00  0.00000000000E+00  0.34662609779E+02  0.34662609779E+02  0.00000000000E+00 0. -1.
         -1   -1    0    0    0  501 -0.00000000000E+00 -0.00000000000E+00 -0.37934137627E+03  0.37934137627E+03  0.00000000000E+00 0.  1.
         23    2    1    2    0    0  0.26372692048E+02 -0.23188527378E+02 -0.15594610246E+03  0.20134760135E+03  0.12242729683E+03 0.  0.
          5    1    3    3  502    0 -0.16466452674E+02 -0.21692813362E+02  0.10380216356E+02  0.29522213786E+02  0.47000000000E+01 0. -1.
         -5    1    3    3    0  502  0.42839144722E+02 -0.14957140156E+01 -0.16632631882E+03  0.17182538757E+03  0.47000000000E+01 0.  1.
        -11    1    1    2    0    0 -0.41726541621E+02 -0.34873247655E+00 -0.29844751568E+02  0.51302388698E+02  0.00000000000E+00 0. -1.
         11    1    1    2    0    0  0.15353849573E+02  0.23537259855E+02 -0.15888791246E+03  0.16135399600E+03  0.00000000000E+00 0.  1.
<mgrwt>
<rscale>  0 0.11928480E+03</rscale>
<asrwt>0</asrwt>
<pdfrwt beam="1">  1        1 0.53327092E-02 0.12736432E+03</pdfrwt>
<pdfrwt beam="2">  1       -1 0.58360212E-01 0.12736432E+03</pdfrwt>
<totfact> 0.44435042E+03</totfact>
</mgrwt>
</event>
<event>
 7    1  0.5206756E-006  0.1744381E+03  0.7546771E-02  0.1182041E+00
         -2   -1    0    0    0  501 -0.00000000000E+00  0.00000000000E+00  0.69024063792E+02  0.69024063792E+02  0.00000000000E+00 0.  1.
          2   -1    0    0  501    0  0.00000000000E+00 -0.00000000000E+00 -0.39055868468E+03  0.39055868468E+03  0.00000000000E+00 0. -1.
         23    2    1    2    0    0  0.60519100115E+02 -0.10555155276E+03 -0.23359381386E+03  0.29153852467E+03  0.12499979888E+03 0.  0.
          5    1    3    3  502    0  0.60206746010E+02 -0.32579416189E+02 -0.29407943814E+02  0.74653786131E+02  0.47000000000E+01 0. -1.
         -5    1    3    3    0  502  0.31235410472E+00 -0.72972136575E+02 -0.20418587005E+03  0.21688473853E+03  0.47000000000E+01 0. -1.
        -11    1    1    2    0    0 -0.43953820052E+02  0.61175860945E+02 -0.88398535852E+01  0.75845680634E+02  0.00000000000E+00 0.  1.
         11    1    1    2    0    0 -0.16565280063E+02  0.44375691819E+02 -0.79100953435E+02  0.92198543168E+02  0.00000000000E+00 0. -1.
<mgrwt>
<rscale>  0 0.16604055E+03</rscale>
<asrwt>0</asrwt>
<pdfrwt beam="2">  1        2 0.60085952E-01 0.17443807E+03</pdfrwt>
<pdfrwt beam="1">  1       -2 0.10619087E-01 0.17443807E+03</pdfrwt>
<totfact> 0.48133526E+03</totfact>
</mgrwt>
</event>
<event>
 7    1  0.5206756E-006  0.1277406E+03  0.7546771E-02  0.1260376E+00
          2   -1    0    0  501    0  0.00000000000E+00  0.00000000000E+00  0.21425945948E+03  0.21425945948E+03  0.00000000000E+00 0. -1.
         -2   -1    0    0    0  501 -0.00000000000E+00 -0.00000000000E+00 -0.95670402211E+02  0.95670402211E+02  0.00000000000E+00 0.  1.
         23    2    1    2    0    0  0.26788988264E+01  0.26147837688E+02  0.17706162548E+03  0.21833112481E+03  0.12500709952E+03 0.  0.
          5    1    3    3  502    0 -0.44255088404E+02  0.42002728028E+02  0.14928686745E+03  0.16134249534E+03  0.47000000000E+01 0.  1.
         -5    1    3    3    0  502  0.46933987230E+02 -0.15854890340E+02  0.27774758035E+02  0.56988629470E+02  0.47000000000E+01 0.  1.
        -11    1    1    2    0    0 -0.76527699887E+01  0.13809866982E+02 -0.47220437752E+02  0.49790029685E+02  0.00000000000E+00 0.  1.
         11    1    1    2    0    0  0.49738711623E+01 -0.39957704670E+02 -0.11252130465E+02  0.41808707190E+02  0.00000000000E+00 0. -1.
<mgrwt>
<rscale>  0 0.11010456E+03</rscale>
<asrwt>0</asrwt>
<pdfrwt beam="1">  1        2 0.32962994E-01 0.12774060E+03</pdfrwt>
<pdfrwt beam="2">  1       -2 0.14718523E-01 0.12774060E+03</pdfrwt>
<totfact> 0.53123784E+03</totfact>
</mgrwt>
</event>
<event>
 7    1  0.5206756E-006  0.1399553E+03  0.7546771E-02  0.1224804E+00
          2   -1    0    0  501    0  0.00000000000E+00  0.00000000000E+00  0.10085199138E+04  0.10085199138E+04  0.00000000000E+00 0. -1.
         -2   -1    0    0    0  501 -0.00000000000E+00 -0.00000000000E+00 -0.16629008110E+02  0.16629008110E+02  0.00000000000E+00 0.  1.
         23    2    1    2    0    0 -0.25073725216E+02  0.57736394861E+02  0.68392202090E+03  0.69809513269E+03  0.12500120253E+03 0.  0.
          5    1    3    3  502    0 -0.62917532469E+02  0.37887957298E+02  0.21581718811E+03  0.22802031025E+03  0.47000000000E+01 0.  1.
         -5    1    3    3    0  502  0.37843807253E+02  0.19848437563E+02  0.46810483278E+03  0.47007482244E+03  0.47000000000E+01 0.  1.
        -11    1    1    2    0    0 -0.32937319008E+02 -0.10967638486E+02  0.79762350685E+02  0.86989589401E+02  0.00000000000E+00 0.  1.
         11    1    1    2    0    0  0.58011044224E+02 -0.46768756375E+02  0.22820653415E+03  0.24006419985E+03  0.00000000000E+00 0. -1.
<mgrwt>
<rscale>  0 0.13180349E+03</rscale>
<asrwt>0</asrwt>
<pdfrwt beam="1">  1        2 0.15515686E+00 0.13995529E+03</pdfrwt>
<pdfrwt beam="2">  1       -2 0.25583097E-02 0.13995529E+03</pdfrwt>
<totfact> 0.13397675E+04</totfact>
</mgrwt>
</event>
<event>
 7    1  0.5206756E-006  0.2600418E+03  0.7546771E-02  0.1109311E+00
          3   -1    0    0  501    0  0.00000000000E+00  0.00000000000E+00  0.13818001591E+04  0.13818001591E+04  0.00000000000E+00 0. -1.
         -3   -1    0    0    0  501 -0.00000000000E+00 -0.00000000000E+00 -0.60174217690E+02  0.60174217690E+02  0.00000000000E+00 0.  1.
         23    2    1    2    0    0 -0.19902913105E+03 -0.11127892108E+03  0.10210698256E+04  0.10536628126E+04  0.12500456220E+03 0.  0.
          5    1    3    3  502    0 -0.86013274928E+02 -0.11681287258E+03  0.51388913002E+03  0.53399218966E+03  0.47000000000E+01 0. -1.
         -5    1    3    3    0  502 -0.11301585613E+03  0.55339514940E+01  0.50718069560E+03  0.51967062294E+03  0.47000000000E+01 0. -1.
        -11    1    1    2    0    0  0.24773076936E+02  0.44245393986E+02  0.27958092266E+02  0.57905225611E+02  0.00000000000E+00 0.  1.
         11    1    1    2    0    0  0.17425605412E+03  0.67033527096E+02  0.27259802356E+03  0.33040633862E+03  0.00000000000E+00 0. -1.
<mgrwt>
<rscale>  0 0.25642396E+03</rscale>
<asrwt>0</asrwt>
<pdfrwt beam="1">  1        3 0.21258462E+00 0.26004179E+03</pdfrwt>
<pdfrwt beam="2">  1       -3 0.92575730E-02 0.26004179E+03</pdfrwt>
<totfact> 0.28124828E+01</totfact>
</mgrwt>
</event>
<event>
 7    1  0.5206756E-006  0.1163910E+03  0.7546771E-02  0.1323648E+00
          2   -1    0    0  501    0  0.00000000000E+00  0.00000000000E+00  0.64930113916E+03  0.64930113916E+03  0.00000000000E+00 0. -1.
         -2   -1    0    0    0  501 -0.00000000000E+00 -0.00000000000E+00 -0.12875849143E+02  0.12875849143E+02  0.00000000000E+00 0.  1.
         23    2    1    2    0    0 -0.97378766875E+01 -0.25945609322E+02  0.61636082688E+03  0.62725396936E+03  0.11304367420E+03 0.  0.
          5    1    3    3  502    0 -0.61393432604E+02 -0.14400940524E+02  0.32939503726E+03  0.33540978105E+03  0.47000000000E+01 0. -1.
         -5    1    3    3    0  502  0.51655555916E+02 -0.11544668799E+02  0.28696578962E+03  0.29184418830E+03  0.47000000000E+01 0.  1.
        -11    1    1    2    0    0  0.18646444889E+01  0.13649846934E+02  0.11840612426E+02  0.18165773395E+02  0.00000000000E+00 0. -1.
         11    1    1    2    0    0  0.78732321986E+01  0.12295762388E+02  0.82238507127E+01  0.16757245552E+02  0.00000000000E+00 0.  1.
<mgrwt>
<rscale>  0 0.81935046E+02</rscale>
<asrwt>0</asrwt>
<pdfrwt beam="1">  1        2 0.99892458E-01 0.11639104E+03</pdfrwt>
<pdfrwt beam="2">  1       -2 0.19809004E-02 0.11639104E+03</pdfrwt>
<totfact> 0.33249238E+04</totfact>
</mgrwt>
</event>
<event>
 7    1  0.5206756E-006  0.1325468E+03  0.7546771E-02  0.1236173E+00
          2   -1    0    0  501    0  0.00000000000E+00  0.00000000000E+00  0.79576898439E+03  0.79576898439E+03  0.00000000000E+00 0. -1.
         -2   -1    0    0    0  501 -0.00000000000E+00 -0.00000000000E+00 -0.20692821506E+02  0.20692821506E+02  0.00000000000E+00 0.  1.
         23    2    1    2    0    0  0.80913666153E+01  0.43336427196E+02  0.59187616029E+03  0.60653609878E+03  0.12500053546E+03 0.  0.
          5    1    3    3  502    0 -0.30373266286E+02  0.54816885235E+02  0.14755711136E+03  0.16038272140E+03  0.47000000000E+01 0.  1.
         -5    1    3    3    0  502  0.38464632901E+02 -0.11480458038E+02  0.44431904893E+03  0.44615337737E+03  0.47000000000E+01 0.  1.
        -11    1    1    2    0    0 -0.33215290879E+02 -0.51664241363E+02  0.67606000806E+02  0.91340137556E+02  0.00000000000E+00 0. -1.
         11    1    1    2    0    0  0.25123924264E+02  0.83278141664E+01  0.11559400179E+03  0.11858556956E+03  0.00000000000E+00 0.  1.
<mgrwt>
<rscale>  0 0.12429666E+03</rscale>
<asrwt>0</asrwt>
<pdfrwt beam="1">  1        2 0.12242597E+00 0.13254678E+03</pdfrwt>
<pdfrwt beam="2">  1       -2 0.31835116E-02 0.13254678E+03</pdfrwt>
<totfact> 0.13201463E+04</totfact>
</mgrwt>
</event>
<event>
 7    1  0.5206756E-006  0.1265772E+03  0.7546771E-02  0.1249835E+00
          2   -1    0    0  501    0  0.00000000000E+00  0.00000000000E+00  0.15788136905E+04  0.15788136905E+04  0.00000000000E+00 0.  1.
         -2   -1    0    0    0  501 -0.00000000000E+00 -0.00000000000E+00 -0.11071169954E+02  0.11071169954E+02  0.00000000000E+00 0. -1.
         23    2    1    2    0    0 -0.15526636799E+02 -0.12482558240E+02  0.13285477873E+04  0.13345639817E+04  0.12499963034E+03 0.  0.
          5    1    3    3  502    0 -0.30321902385E+02  0.27878399114E+02  0.11538198265E+04  0.11545643789E+04  0.47000000000E+01 0.  1.
         -5    1    3    3    0  502  0.14795265586E+02 -0.40360957354E+02  0.17472796073E+03  0.17999960284E+03  0.47000000000E+01 0.  1.
        -11    1    1    2    0    0 -0.28118238442E+02  0.17430125815E+02  0.17123818276E+03  0.17440458667E+03  0.00000000000E+00 0.  1.
         11    1    1    2    0    0  0.43644875241E+02 -0.49475675746E+01  0.67956550538E+02  0.80916292060E+02  0.00000000000E+00 0. -1.
<mgrwt>
<rscale>  0 0.11600602E+03</rscale>
<asrwt>0</asrwt>
<pdfrwt beam="1">  1        2 0.24289424E+00 0.12657724E+03</pdfrwt>
<pdfrwt beam="2">  1       -2 0.17032582E-02 0.12657724E+03</pdfrwt>
<totfact> 0.11770620E+04</totfact>
</mgrwt>
</event>
<event>
 7    1  0.5206756E-006  0.1586733E+03  0.7546771E-02  0.1198262E+00
         -2   -1    0    0    0  501 -0.00000000000E+00  0.00000000000E+00  0.28010583662E+03  0.28010583662E+03  0.00000000000E+00 0.  1.
          2   -1    0    0  501    0  0.00000000000E+00 -0.00000000000E+00 -0.81311929789E+02  0.81311929789E+02  0.00000000000E+00 0. -1.
         23    2    1    2    0    0 -0.60158681949E+02  0.77027423364E+02  0.61172034294E+02  0.17005654963E+03  0.12499968531E+03 0.  0.
          5    1    3    3  502    0 -0.45955491109E+02  0.90326215269E+02 -0.43483606643E+01  0.10154669157E+03  0.47000000000E+01 0. -1.
         -5    1    3    3    0  502 -0.14203190840E+02 -0.13298791905E+02  0.65520394958E+02  0.68509858062E+02  0.47000000000E+01 0. -1.
        -11    1    1    2    0    0  0.46109083629E+02 -0.96998108526E+02  0.10158919203E+03  0.14783451758E+03  0.00000000000E+00 0. -1.
         11    1    1    2    0    0  0.14049598319E+02  0.19970685161E+02  0.36032680510E+02  0.43526699203E+02  0.00000000000E+00 0.  1.
<mgrwt>
<rscale>  0 0.15181375E+03</rscale>
<asrwt>0</asrwt>
<pdfrwt beam="2">  1        2 0.12509528E-01 0.15867329E+03</pdfrwt>
<pdfrwt beam="1">  1       -2 0.43093205E-01 0.15867329E+03</pdfrwt>
<totfact> 0.24349309E+03</totfact>
</mgrwt>
</event>
<event>
 7    1  0.5206756E-006  0.1342766E+03  0.7546771E-02  0.1232572E+00
         -1   -1    0    0    0  501 -0.00000000000E+00  0.00000000000E+00  0.27516795681E+02  0.27516795681E+02  0.00000000000E+00 0.  1.
          1   -1    0    0  501    0  0.00000000000E+00 -0.00000000000E+00 -0.61635382750E+03  0.61635382750E+03  0.00000000000E+00 0. -1.
         23    2    1    2    0    0 -0.42789932310E+02 -0.23959279817E+02 -0.44688675567E+03  0.46662402494E+03  0.12500073142E+03 0.  0.
          5    1    3    3  502    0 -0.86382267489E+02 -0.17810813238E+02 -0.26109337614E+03  0.27562830455E+03  0.47000000000E+01 0. -1.
         -5    1    3    3    0  502  0.43592335179E+02 -0.61484665793E+01 -0.18579337953E+03  0.19099572039E+03  0.47000000000E+01 0. -1.
        -11    1    1    2    0    0  0.28176031617E+02 -0.28313052308E+02 -0.22032451300E+02  0.45617393601E+02  0.00000000000E+00 0.  1.
         11    1    1    2    0    0  0.14613900693E+02  0.52272332125E+02 -0.11991782485E+03  0.13162920464E+03  0.00000000000E+00 0. -1.
<mgrwt>
<rscale>  0 0.12661169E+03</rscale>
<asrwt>0</asrwt>
<pdfrwt beam="2">  1        1 0.94823665E-01 0.13427661E+03</pdfrwt>
<pdfrwt beam="1">  1       -1 0.42333532E-02 0.13427661E+03</pdfrwt>
<totfact> 0.73470062E+03</totfact>
</mgrwt>
</event>
<event>
 7    1  0.5206756E-006  0.1257000E+03  0.7546771E-02  0.1250677E+00
          2   -1    0    0  501    0  0.00000000000E+00  0.00000000000E+00  0.40797928797E+03  0.40797928797E+03  0.00000000000E+00 0. -1.
         -2   -1    0    0    0  501 -0.00000000000E+00 -0.00000000000E+00 -0.28881808753E+02  0.28881808753E+02  0.00000000000E+00 0.  1.
         23    2    1    2    0    0  0.12983470680E+02 -0.27849579804E+01  0.24795054130E+03  0.27799275750E+03  0.12499670313E+03 0.  0.
          5    1    3    3  502    0 -0.48163329679E+02  0.18604540907E+02  0.60861758404E+02  0.79950477824E+02  0.47000000000E+01 0. -1.
         -5    1    3    3    0  502  0.61146800359E+02 -0.21389498887E+02  0.18708878289E+03  0.19804227968E+03  0.47000000000E+01 0. -1.
        -11    1    1    2    0    0 -0.32236994399E+02  0.15497183623E+02  0.13100092221E+03  0.13579627436E+03  0.00000000000E+00 0. -1.
         11    1    1    2    0    0  0.19253523719E+02 -0.12712225642E+02  0.14601570585E+00  0.23072064862E+02  0.00000000000E+00 0.  1.
<mgrwt>
<rscale>  0 0.11551971E+03</rscale>
<asrwt>0</asrwt>
<pdfrwt beam="1">  1        2 0.62766040E-01 0.12570005E+03</pdfrwt>
<pdfrwt beam="2">  1       -2 0.44433555E-02 0.12570005E+03</pdfrwt>
<totfact> 0.17104702E+04</totfact>
</mgrwt>
</event>
<event>
 7    1  0.5299373E-006  0.2096407E+03  0.7546771E-02  0.1145802E+00
          2   -1    0    0  501    0  0.00000000000E+00  0.00000000000E+00  0.78565575065E+03  0.78565575065E+03  0.00000000000E+00 0. -1.
         -2   -1    0    0    0  501 -0.00000000000E+00 -0.00000000000E+00 -0.51484909269E+02  0.51484909269E+02  0.00000000000E+00 0.  1.
         23    2    1    2    0    0 -0.11707637515E+03  0.12090435499E+03  0.42477663111E+03  0.47369233464E+03  0.12499800354E+03 0.  0.
          5    1    3    3  502    0  0.10251990330E+02  0.22503944852E+02  0.72363121010E+01  0.26191316356E+02  0.47000000000E+01 0. -1.
         -5    1    3    3    0  502 -0.12732836548E+03  0.98400410134E+02  0.41754031901E+03  0.44750101829E+03  0.47000000000E+01 0. -1.
        -11    1    1    2    0    0  0.42098370245E+02 -0.48075487185E+02  0.20887555358E+03  0.21843196224E+03  0.00000000000E+00 0. -1.
         11    1    1    2    0    0  0.74978004903E+02 -0.72828867801E+02  0.10051865669E+03  0.14501636303E+03  0.00000000000E+00 0.  1.
<mgrwt>
<rscale>  0 0.20473851E+03</rscale>
<asrwt>0</asrwt>
<pdfrwt beam="1">  1        2 0.12087011E+00 0.20964074E+03</pdfrwt>
<pdfrwt beam="2">  1       -2 0.79207558E-02 0.20964074E+03</pdfrwt>
<totfact> 0.34556851E+03</totfact>
</mgrwt>
</event>
<event>
 7    1  0.5206756E-006  0.1572932E+03  0.7546771E-02  0.1199829E+00
         -1   -1    0    0    0  501 -0.00000000000E+00  0.00000000000E+00  0.40252407275E+02  0.40252407275E+02  0.00000000000E+00 0.  1.
          1   -1    0    0  501    0  0.00000000000E+00 -0.00000000000E+00 -0.58505907418E+03  0.58505907418E+03  0.00000000000E+00 0. -1.
         23    2    1    2    0    0  0.11984131194E+02  0.94755459214E+02 -0.39793219174E+03  0.42789154507E+03  0.12497571229E+03 0.  0.
          5    1    3    3  502    0  0.21787683737E+02  0.89716272203E+02 -0.40401279722E+03  0.41445403000E+03  0.47000000000E+01 0. -1.
         -5    1    3    3    0  502 -0.98035525426E+01  0.50391870108E+01  0.60806054819E+01  0.13437515068E+02  0.47000000000E+01 0. -1.
        -11    1    1    2    0    0 -0.44058653259E+02 -0.56729343668E+02 -0.46992653526E+02  0.85835265744E+02  0.00000000000E+00 0.  1.
         11    1    1    2    0    0  0.32074522065E+02 -0.38026115547E+02 -0.99881821636E+02  0.11158467064E+03  0.00000000000E+00 0. -1.
<mgrwt>
<rscale>  0 0.15052511E+03</rscale>
<asrwt>0</asrwt>
<pdfrwt beam="2">  1        1 0.90009092E-01 0.15729318E+03</pdfrwt>
<pdfrwt beam="1">  1       -1 0.61926778E-02 0.15729318E+03</pdfrwt>
<totfact> 0.45237390E+03</totfact>
</mgrwt>
</event>
<event>
 6    1  0.5206756E-006  0.1501040E+03  0.7546771E-02  0.1211942E+00
          2   -1    0    0  501    0  0.00000000000E+00  0.00000000000E+00  0.87545700074E+03  0.87545700074E+03  0.00000000000E+00 0. -1.
         -2   -1    0    0    0  501 -0.00000000000E+00 -0.00000000000E+00 -0.20575895532E+02  0.20575895532E+02  0.00000000000E+00 0.  1.
          5    1    1    2  502    0  0.67856345474E+00  0.40473966623E+02  0.42137033076E+03  0.42333632973E+03  0.47000000000E+01 0. -1.
         -5    1    1    2    0  502 -0.64817580174E+02 -0.84045055238E+01  0.10285496456E+03  0.12195568108E+03  0.47000000000E+01 0.  1.
        -11    1    1    2    0    0 -0.14734658598E+01 -0.29174918119E+02  0.26065652897E+02  0.39150545460E+02  0.00000000000E+00 0. -1.
         11    1    1    2    0    0  0.65612482579E+02 -0.28945429800E+01  0.30459015699E+03  0.31159034000E+03  0.00000000000E+00 0.  1.
<mgrwt>
<rscale>  0 0.14103550E+03</rscale>
<asrwt>0</asrwt>
<pdfrwt beam="1">  1        2 0.13468566E+00 0.15010402E+03</pdfrwt>
<pdfrwt beam="2">  1       -2 0.31655231E-02 0.15010402E+03</pdfrwt>
<totfact> 0.11889923E+04</totfact>
</mgrwt>
</event>
<event>
 7    1  0.5206756E-006  0.1438888E+03  0.7546771E-02  0.1216173E+00
          4   -1    0    0  501    0  0.00000000000E+00  0.00000000000E+00  0.33375981659E+02  0.33375981659E+02  0.00000000000E+00 0. -1.
         -4   -1    0    0    0  501 -0.00000000000E+00 -0.00000000000E+00 -0.52721570893E+03  0.52721570893E+03  0.00000000000E+00 0.  1.
         23    2    1    2    0    0  0.70717738622E+02  0.92417211219E+01 -0.26762345855E+03  0.30385244435E+03  0.12497033409E+03 0.  0.
          5    1    3    3  502    0  0.75565405222E+02  0.48065622439E+02 -0.23864131048E+03  0.25493567737E+03  0.47000000000E+01 0. -1.
         -5    1    3    3    0  502 -0.48476665996E+01 -0.38823901317E+02 -0.28982148069E+02  0.48916766979E+02  0.47000000000E+01 0. -1.
        -11    1    1    2    0    0 -0.46705354499E+02  0.38925314567E+02 -0.16151356855E+03  0.17257810719E+03  0.00000000000E+00 0.  1.
         11    1    1    2    0    0 -0.24012384124E+02 -0.48167035689E+02 -0.64702700164E+02  0.84161139054E+02  0.00000000000E+00 0. -1.
<mgrwt>
<rscale>  0 0.13790723E+03</rscale>
<asrwt>0</asrwt>
<pdfrwt beam="1">  1        4 0.51347662E-02 0.14388882E+03</pdfrwt>
<pdfrwt beam="2">  1       -4 0.81110112E-01 0.14388882E+03</pdfrwt>
<totfact> 0.52945104E+02</totfact>
</mgrwt>
</event>
<event>
 7    1  0.5206756E-006  0.1507872E+03  0.7546771E-02  0.1209608E+00
          2   -1    0    0  501    0  0.00000000000E+00  0.00000000000E+00  0.69327216215E+03  0.69327216215E+03  0.00000000000E+00 0. -1.
         -2   -1    0    0    0  501 -0.00000000000E+00 -0.00000000000E+00 -0.27548102022E+02  0.27548102022E+02  0.00000000000E+00 0.  1.
         23    2    1    2    0    0 -0.54047636878E+02  0.63146191348E+02  0.43087678375E+03  0.45649926257E+03  0.12581011655E+03 0.  0.
          5    1    3    3  502    0 -0.14119002679E+02 -0.37851363325E+02  0.14693696285E+03  0.15246190670E+03  0.47000000000E+01 0. -1.
         -5    1    3    3    0  502 -0.39928634199E+02  0.10099755467E+03  0.28393982089E+03  0.30403735588E+03  0.47000000000E+01 0.  1.
        -11    1    1    2    0    0  0.69722403443E+02 -0.18381111543E+02  0.16292592889E+03  0.17816828311E+03  0.00000000000E+00 0.  1.
         11    1    1    2    0    0 -0.15674766565E+02 -0.44765079805E+02  0.71921347495E+02  0.86152718484E+02  0.00000000000E+00 0. -1.
<mgrwt>
<rscale>  0 0.14280176E+03</rscale>
<asrwt>0</asrwt>
<pdfrwt beam="1">  1        2 0.10665724E+00 0.15078718E+03</pdfrwt>
<pdfrwt beam="2">  1       -2 0.42381701E-02 0.15078718E+03</pdfrwt>
<totfact> 0.10295650E+04</totfact>
</mgrwt>
</event>
<event>
 7    1  0.5206756E-006  0.2053763E+03  0.7546771E-02  0.1149166E+00
          2   -1    0    0  501    0  0.00000000000E+00  0.00000000000E+00  0.60616166181E+03  0.60616166181E+03  0.00000000000E+00 0. -1.
         -2   -1    0    0    0  501 -0.00000000000E+00 -0.00000000000E+00 -0.64352546539E+02  0.64352546539E+02  0.00000000000E+00 0.  1.
         23    2    1    2    0    0 -0.21779185563E+02 -0.16149367228E+03  0.32016350486E+03  0.38037360063E+03  0.12499946841E+03 0.  0.
          5    1    3    3  502    0 -0.54661112531E+02 -0.18648812267E+02  0.10608047251E+03  0.12087502666E+03  0.47000000000E+01 0. -1.
         -5    1    3    3    0  502  0.32881926968E+02 -0.14284486001E+03  0.21408303236E+03  0.25949857398E+03  0.47000000000E+01 0. -1.
        -11    1    1    2    0    0  0.40909370349E+02  0.16273318108E+03  0.19400292876E+03  0.25650107441E+03  0.00000000000E+00 0. -1.
         11    1    1    2    0    0 -0.19130184786E+02 -0.12395088042E+01  0.27642681651E+02  0.33639533303E+02  0.00000000000E+00 0.  1.
<mgrwt>
<rscale>  0 0.20068093E+03</rscale>
<asrwt>0</asrwt>
<pdfrwt beam="1">  1        2 0.93255636E-01 0.20537626E+03</pdfrwt>
<pdfrwt beam="2">  1       -2 0.99003922E-02 0.20537626E+03</pdfrwt>
<totfact> 0.33237694E+03</totfact>
</mgrwt>
</event>
<event>
 7    1  0.5206756E-006  0.1439174E+03  0.7546771E-02  0.1213109E+00
          2   -1    0    0  501    0  0.00000000000E+00  0.00000000000E+00  0.34049332741E+03  0.34049332741E+03  0.00000000000E+00 0. -1.
         -2   -1    0    0    0  501 -0.00000000000E+00 -0.00000000000E+00 -0.55038724389E+02  0.55038724389E+02  0.00000000000E+00 0.  1.
         23    2    1    2    0    0 -0.58701310444E+02  0.40503719591E+02  0.13966277612E+03  0.20054401637E+03  0.12500326524E+03 0.  0.
          5    1    3    3  502    0 -0.62732251362E+02  0.80553078105E+02  0.87909902648E+02  0.13481236863E+03  0.47000000000E+01 0. -1.
         -5    1    3    3    0  502  0.40309409181E+01 -0.40049358514E+02  0.51752873468E+02  0.65731647738E+02  0.47000000000E+01 0. -1.
        -11    1    1    2    0    0  0.61728423242E+02  0.12335493628E+02  0.12131901423E+03  0.13667796404E+03  0.00000000000E+00 0. -1.
         11    1    1    2    0    0 -0.30271127976E+01 -0.52839213220E+02  0.24472812673E+02  0.58310071391E+02  0.00000000000E+00 0.  1.
<mgrwt>
<rscale>  0 0.14016372E+03</rscale>
<asrwt>0</asrwt>
<pdfrwt beam="1">  1        2 0.52383588E-01 0.14391738E+03</pdfrwt>
<pdfrwt beam="2">  1       -2 0.84674962E-02 0.14391738E+03</pdfrwt>
<totfact> 0.78672565E+03</totfact>
</mgrwt>
</event>
<event>
 7    1  0.5206756E-006  0.1439021E+03  0.7546771E-02  0.1216415E+00
         -2   -1    0    0    0  501 -0.00000000000E+00  0.00000000000E+00  0.55094726279E+02  0.55094726279E+02  0.00000000000E+00 0.  1.
          2   -1    0    0  501    0  0.00000000000E+00 -0.00000000000E+00 -0.36850728258E+03  0.36850728258E+03  0.00000000000E+00 0. -1.
         23    2    1    2    0    0  0.98238714081E+01  0.70615617162E+02 -0.24679502791E+03  0.28568446499E+03  0.12499901560E+03 0.  0.
          5    1    3    3  502    0 -0.28662057442E+02  0.36379173431E+02 -0.16092401056E+02  0.49254575098E+02  0.47000000000E+01 0. -1.
         -5    1    3    3    0  502  0.38485928850E+02  0.34236443731E+02 -0.23070262685E+03  0.23642988989E+03  0.47000000000E+01 0. -1.
        -11    1    1    2    0    0  0.30094486266E+02 -0.12240029007E+02  0.96667248740E+01  0.33896046724E+02  0.00000000000E+00 0.  1.
         11    1    1    2    0    0 -0.39918357674E+02 -0.58375588155E+02 -0.76284253272E+02  0.10402149715E+03  0.00000000000E+00 0. -1.
<mgrwt>
<rscale>  0 0.13773129E+03</rscale>
<asrwt>0</asrwt>
<pdfrwt beam="2">  1        2 0.56693429E-01 0.14390215E+03</pdfrwt>
<pdfrwt beam="1">  1       -2 0.84761115E-02 0.14390215E+03</pdfrwt>
<totfact> 0.72203556E+03</totfact>
</mgrwt>
</event>
<event>
 7    1  0.5206756E-006  0.1277889E+03  0.7546771E-02  0.1248610E+00
         -1   -1    0    0    0  501 -0.00000000000E+00  0.00000000000E+00  0.25150965195E+03  0.25150965195E+03  0.00000000000E+00 0.  1.
          1   -1    0    0  501    0  0.00000000000E+00 -0.00000000000E+00 -0.53118073554E+02  0.53118073554E+02  0.00000000000E+00 0. -1.
         23    2    1    2    0    0  0.10831728084E+01  0.26530971810E+02  0.62586963037E+02  0.14229237523E+03  0.12499970551E+03 0.  0.
          5    1    3    3  502    0  0.42429476909E+02  0.60499182372E+02  0.34784506299E+02  0.81807478001E+02  0.47000000000E+01 0. -1.
         -5    1    3    3    0  502 -0.41346304101E+02 -0.33968210562E+02  0.27802456738E+02  0.60484897224E+02  0.47000000000E+01 0. -1.
        -11    1    1    2    0    0  0.36295153147E+02 -0.33427684826E+02  0.61270053939E+02  0.78668721640E+02  0.00000000000E+00 0. -1.
         11    1    1    2    0    0 -0.37378325955E+02  0.68967130166E+01  0.74534561423E+02  0.83666628641E+02  0.00000000000E+00 0.  1.
<mgrwt>
<rscale>  0 0.11671883E+03</rscale>
<asrwt>0</asrwt>
<pdfrwt beam="2">  1        1 0.81720115E-02 0.12778886E+03</pdfrwt>
<pdfrwt beam="1">  1       -1 0.38693792E-01 0.12778886E+03</pdfrwt>
<totfact> 0.52493419E+03</totfact>
</mgrwt>
</event>
<event>
 7    1  0.5206756E-006  0.1360159E+03  0.7546771E-02  0.1231126E+00
         -1   -1    0    0    0  501 -0.00000000000E+00  0.00000000000E+00  0.38284189914E+02  0.38284189914E+02  0.00000000000E+00 0.  1.
          1   -1    0    0  501    0  0.00000000000E+00 -0.00000000000E+00 -0.38838366851E+03  0.38838366851E+03  0.00000000000E+00 0. -1.
         23    2    1    2    0    0  0.33412603921E+02 -0.41983254215E+02 -0.22804835973E+03  0.26553037665E+03  0.12498532240E+03 0.  0.
          5    1    3    3  502    0  0.14727277181E+02  0.44200886537E+02 -0.65127488137E+02  0.80214031034E+02  0.47000000000E+01 0. -1.
         -5    1    3    3    0  502  0.18685326740E+02 -0.86184140752E+02 -0.16292087159E+03  0.18531634562E+03  0.47000000000E+01 0. -1.
        -11    1    1    2    0    0 -0.23294405281E+02  0.63038133149E+02 -0.45644013921E+02  0.81239224240E+02  0.00000000000E+00 0.  1.
         11    1    1    2    0    0 -0.10118198640E+02 -0.21054878934E+02 -0.76407104946E+02  0.79898257533E+02  0.00000000000E+00 0. -1.
<mgrwt>
<rscale>  0 0.12755718E+03</rscale>
<asrwt>0</asrwt>
<pdfrwt beam="2">  1        1 0.59751338E-01 0.13601591E+03</pdfrwt>
<pdfrwt beam="1">  1       -1 0.58898750E-02 0.13601591E+03</pdfrwt>
<totfact> 0.82371124E+03</totfact>
</mgrwt>
</event>
<event>
 7    1  0.5206756E-006  0.1604459E+03  0.7546771E-02  0.1195849E+00
          3   -1    0    0  501    0  0.00000000000E+00  0.00000000000E+00  0.21427401799E+03  0.21427401799E+03  0.00000000000E+00 0. -1.
         -3   -1    0    0    0  501 -0.00000000000E+00 -0.00000000000E+00 -0.10267386655E+03  0.10267386655E+03  0.00000000000E+00 0.  1.
         23    2    1    2    0    0  0.64116706198E+02 -0.77583687473E+02  0.50069800808E+02  0.16807702196E+03  0.12495086947E+03 0.  0.
          5    1    3    3  502    0 -0.20802971254E+02 -0.47689763098E+02 -0.17847613652E+02  0.55206018063E+02  0.47000000000E+01 0.  1.
         -5    1    3    3    0  502  0.84919677452E+02 -0.29893924376E+02  0.67917414459E+02  0.11287100389E+03  0.47000000000E+01 0.  1.
        -11    1    1    2    0    0 -0.37792200713E+02  0.54470040858E+02  0.84182285410E+02  0.10715359519E+03  0.00000000000E+00 0. -1.
         11    1    1    2    0    0 -0.26324505485E+02  0.23113646615E+02 -0.22651934788E+02  0.41717267390E+02  0.00000000000E+00 0.  1.
<mgrwt>
<rscale>  0 0.15382593E+03</rscale>
<asrwt>0</asrwt>
<pdfrwt beam="1">  1        3 0.32965234E-01 0.16044594E+03</pdfrwt>
<pdfrwt beam="2">  1       -3 0.15795979E-01 0.16044594E+03</pdfrwt>
<totfact> 0.72375002E+02</totfact>
</mgrwt>
</event>
<event>
 7    1  0.5206756E-006  0.1375962E+03  0.7546771E-02  0.1228426E+00
          1   -1    0    0  501    0  0.00000000000E+00  0.00000000000E+00  0.46121315639E+02  0.46121315639E+02  0.00000000000E+00 0. -1.
         -1   -1    0    0    0  501 -0.00000000000E+00 -0.00000000000E+00 -0.32712399871E+03  0.32712399871E+03  0.00000000000E+00 0.  1.
         23    2    1    2    0    0 -0.27934706854E+02  0.50273466670E+02 -0.17075125416E+03  0.21929136780E+03  0.12499977558E+03 0.  0.
          5    1    3    3  502    0  0.25753709186E+02  0.71070265445E+02 -0.12250399751E+03  0.14402623224E+03  0.47000000000E+01 0. -1.
         -5    1    3    3    0  502 -0.53688416040E+02 -0.20796798776E+02 -0.48247256646E+02  0.75265135555E+02  0.47000000000E+01 0. -1.
        -11    1    1    2    0    0  0.32435061435E+02 -0.68346356915E+02 -0.49489638466E+02  0.90401781118E+02  0.00000000000E+00 0.  1.
         11    1    1    2    0    0 -0.45003545816E+01  0.18072890245E+02 -0.60761790444E+02  0.63552165432E+02  0.00000000000E+00 0. -1.
<mgrwt>
<rscale>  0 0.12934833E+03</rscale>
<asrwt>0</asrwt>
<pdfrwt beam="1">  1        1 0.70955870E-02 0.13759620E+03</pdfrwt>
<pdfrwt beam="2">  1       -1 0.50326769E-01 0.13759620E+03</pdfrwt>
<totfact> 0.39909975E+03</totfact>
</mgrwt>
</event>
<event>
 6    1  0.5206756E-006  0.1990927E+03  0.7546771E-02  0.1172674E+00
          1   -1    0    0  501    0  0.00000000000E+00  0.00000000000E+00  0.16972229042E+03  0.16972229042E+03  0.00000000000E+00 0. -1.
         -1   -1    0    0    0  501 -0.00000000000E+00 -0.00000000000E+00 -0.14952465428E+03  0.14952465428E+03  0.00000000000E+00 0.  1.
          5    1    1    2  502    0  0.28845323487E+02  0.86931709024E+02  0.52411955637E+02  0.10563274973E+03  0.47000000000E+01 0. -1.
         -5    1    1    2    0  502 -0.74313805547E+02 -0.29017906100E+02 -0.48530100563E+02  0.93497814039E+02  0.47000000000E+01 0.  1.
        -11    1    1    2    0    0  0.27938770640E+02  0.22375193662E+02  0.12261450898E+02  0.37836059181E+02  0.00000000000E+00 0.  1.
         11    1    1    2    0    0  0.17529711421E+02 -0.80288996586E+02  0.40543301688E+01  0.82280321757E+02  0.00000000000E+00 0. -1.
<mgrwt>
<rscale>  0 0.17505766E+03</rscale>
<asrwt>0</asrwt>
<pdfrwt beam="1">  1        1 0.26111122E-01 0.19909272E+03</pdfrwt>
<pdfrwt beam="2">  1       -1 0.23003793E-01 0.19909272E+03</pdfrwt>
<totfact> 0.28489211E+03</totfact>
</mgrwt>
</event>
<event>
 7    1  0.5206756E-006  0.1282417E+03  0.7546771E-02  0.1244414E+00
          2   -1    0    0  501    0  0.00000000000E+00  0.00000000000E+00  0.14531930437E+03  0.14531930437E+03  0.00000000000E+00 0. -1.
         -2   -1    0    0    0  501 -0.00000000000E+00 -0.00000000000E+00 -0.12188277040E+03  0.12188277040E+03  0.00000000000E+00 0.  1.
         23    2    1    2    0    0  0.75917742674E+01  0.27607789700E+02  0.84562470751E+02  0.15361230181E+03  0.12500441080E+03 0.  0.
          5    1    3    3  502    0  0.65239254787E+02  0.34101809406E+01  0.41102607414E+02  0.77325959648E+02  0.47000000000E+01 0.  1.
         -5    1    3    3    0  502 -0.57647480519E+02  0.24197608760E+02  0.43459863336E+02  0.76286342166E+02  0.47000000000E+01 0.  1.
        -11    1    1    2    0    0 -0.24064044666E+02 -0.27539342314E+02 -0.80345335066E+02  0.88277213865E+02  0.00000000000E+00 0.  1.
         11    1    1    2    0    0  0.16472270398E+02 -0.68447386367E-01  0.19219398290E+02  0.25312559091E+02  0.00000000000E+00 0. -1.
<mgrwt>
<rscale>  0 0.11920539E+03</rscale>
<asrwt>0</asrwt>
<pdfrwt beam="1">  1        2 0.22356816E-01 0.12824168E+03</pdfrwt>
<pdfrwt beam="2">  1       -2 0.18751195E-01 0.12824168E+03</pdfrwt>
<totfact> 0.54445715E+03</totfact>
</mgrwt>
</event>
<event>
 7    1  0.5206756E-006  0.1907536E+03  0.7546771E-02  0.1162624E+00
         -1   -1    0    0    0  501 -0.00000000000E+00  0.00000000000E+00  0.26112483204E+02  0.26112483204E+02  0.00000000000E+00 0.  1.
          1   -1    0    0  501    0  0.00000000000E+00 -0.00000000000E+00 -0.17680622229E+04  0.17680622229E+04  0.00000000000E+00 0. -1.
         23    2    1    2    0    0  0.13125857889E+03  0.59450176115E+02 -0.13911313651E+04  0.14041486423E+04  0.12499518716E+03 0.  0.
          5    1    3    3  502    0  0.58049683809E+02  0.26193554753E+02 -0.11064717238E+04  0.11083129674E+04  0.47000000000E+01 0.  1.
         -5    1    3    3    0  502  0.73208895083E+02  0.33256621363E+02 -0.28465964125E+03  0.29583567489E+03  0.47000000000E+01 0.  1.
        -11    1    1    2    0    0 -0.74491300506E+02 -0.74473427614E+02 -0.27241427354E+03  0.29206982333E+03  0.00000000000E+00 0.  1.
         11    1    1    2    0    0 -0.56767278386E+02  0.15023251498E+02 -0.78404101082E+02  0.97956240472E+02  0.00000000000E+00 0. -1.
<mgrwt>
<rscale>  0 0.18545640E+03</rscale>
<asrwt>0</asrwt>
<pdfrwt beam="2">  1        1 0.27200958E+00 0.19075360E+03</pdfrwt>
<pdfrwt beam="1">  1       -1 0.40173051E-02 0.19075360E+03</pdfrwt>
<totfact> 0.11729698E+03</totfact>
</mgrwt>
</event>
<event>
 7    1  0.5206756E-006  0.1783497E+03  0.7546771E-02  0.1175024E+00
         -3   -1    0    0    0  501 -0.00000000000E+00  0.00000000000E+00  0.50576246034E+02  0.50576246034E+02  0.00000000000E+00 0.  1.
          3   -1    0    0  501    0  0.00000000000E+00 -0.00000000000E+00 -0.57639744653E+03  0.57639744653E+03  0.00000000000E+00 0. -1.
         23    2    1    2    0    0 -0.91520092574E+02  0.88344136961E+02 -0.33843198980E+03  0.38255040181E+03  0.12501193671E+03 0.  0.
          5    1    3    3  502    0 -0.55137443215E+02 -0.14021894608E+02 -0.56257454426E+02  0.80148252328E+02  0.47000000000E+01 0.  1.
         -5    1    3    3    0  502 -0.36382649359E+02  0.10236603157E+03 -0.28217453538E+03  0.30240214948E+03  0.47000000000E+01 0.  1.
        -11    1    1    2    0    0  0.68541365308E+02 -0.47058255809E+02 -0.45293828419E+02  0.94678028555E+02  0.00000000000E+00 0.  1.
         11    1    1    2    0    0  0.22978727266E+02 -0.41285881151E+02 -0.14209538227E+03  0.14974526221E+03  0.00000000000E+00 0. -1.
<mgrwt>
<rscale>  0 0.17273602E+03</rscale>
<asrwt>0</asrwt>
<pdfrwt beam="2">  1        3 0.88676534E-01 0.17834965E+03</pdfrwt>
<pdfrwt beam="1">  1       -3 0.77809606E-02 0.17834965E+03</pdfrwt>
<totfact> 0.32002061E+02</totfact>
</mgrwt>
</event>
<event>
 7    1  0.5356395E-006  0.2414654E+03  0.7546771E-02  0.1121442E+00
         -2   -1    0    0    0  501 -0.00000000000E+00  0.00000000000E+00  0.51951257759E+02  0.51951257759E+02  0.00000000000E+00 0.  1.
          2   -1    0    0  501    0  0.00000000000E+00 -0.00000000000E+00 -0.11104997941E+04  0.11104997941E+04  0.00000000000E+00 0. -1.
         23    2    1    2    0    0 -0.43004426196E+02  0.20206586717E+03 -0.67878300091E+03  0.72045256090E+03  0.12500213928E+03 0.  0.
          5    1    3    3  502    0 -0.39203766360E+02  0.86070836304E+02 -0.13819118356E+03  0.16752318458E+03  0.47000000000E+01 0. -1.
         -5    1    3    3    0  502 -0.38006598357E+01  0.11599503087E+03 -0.54059181735E+03  0.55292937631E+03  0.47000000000E+01 0. -1.
        -11    1    1    2    0    0  0.17541761699E+02 -0.17987332572E+03 -0.25372084462E+03  0.31150665114E+03  0.00000000000E+00 0.  1.
         11    1    1    2    0    0  0.25462664497E+02 -0.22192541449E+02 -0.12604469081E+03  0.13049183983E+03  0.00000000000E+00 0. -1.
<mgrwt>
<rscale>  0 0.23754019E+03</rscale>
<asrwt>0</asrwt>
<pdfrwt beam="2">  1        2 0.17084612E+00 0.24146538E+03</pdfrwt>
<pdfrwt beam="1">  1       -2 0.79925011E-02 0.24146538E+03</pdfrwt>
<totfact> 0.21302122E+03</totfact>
</mgrwt>
</event>
<event>
 6    1  0.5206756E-006  0.2453219E+03  0.7546771E-02  0.1146974E+00
          1   -1    0    0  501    0  0.00000000000E+00  0.00000000000E+00  0.29512062350E+03  0.29512062350E+03  0.00000000000E+00 0. -1.
         -1   -1    0    0    0  501 -0.00000000000E+00 -0.00000000000E+00 -0.15253261172E+03  0.15253261172E+03  0.00000000000E+00 0.  1.
          5    1    1    2  502    0 -0.31489043799E+02 -0.12403850093E+03  0.60622725903E+02  0.14168385402E+03  0.47000000000E+01 0. -1.
         -5    1    1    2    0  502 -0.36576956838E+02  0.98365434884E+02  0.14117506380E+03  0.17597193296E+03  0.47000000000E+01 0.  1.
        -11    1    1    2    0    0  0.15752616865E+02 -0.93461865820E+01  0.21108881558E+02  0.27947826791E+02  0.00000000000E+00 0. -1.
         11    1    1    2    0    0  0.52313383771E+02  0.35019252631E+02 -0.80318659482E+02  0.10204962145E+03  0.00000000000E+00 0.  1.
<mgrwt>
<rscale>  0 0.20331256E+03</rscale>
<asrwt>0</asrwt>
<pdfrwt beam="1">  1        1 0.45403173E-01 0.24532193E+03</pdfrwt>
<pdfrwt beam="2">  1       -1 0.23466556E-01 0.24532193E+03</pdfrwt>
<totfact> 0.13821316E+03</totfact>
</mgrwt>
</event>
<event>
 7    1  0.5206756E-006  0.1303729E+03  0.7546771E-02  0.1243622E+00
         -2   -1    0    0    0  501 -0.00000000000E+00  0.00000000000E+00  0.39222891339E+02  0.39222891339E+02  0.00000000000E+00 0.  1.
          2   -1    0    0  501    0  0.00000000000E+00 -0.00000000000E+00 -0.31852376743E+03  0.31852376743E+03  0.00000000000E+00 0. -1.
         23    2    1    2    0    0 -0.33510626670E+02  0.15772119698E+02 -0.15043752648E+03  0.19906920931E+03  0.12500151544E+03 0.  0.
          5    1    3    3  502    0 -0.10810302873E+02  0.46637619516E+02 -0.15299882329E+03  0.16038285485E+03  0.47000000000E+01 0. -1.
         -5    1    3    3    0  502 -0.22700323797E+02 -0.30865499819E+02  0.25612968138E+01  0.38686354454E+02  0.47000000000E+01 0. -1.
        -11    1    1    2    0    0  0.48964781334E+01  0.29068015716E+02 -0.15160600128E+02  0.33147682152E+02  0.00000000000E+00 0.  1.
         11    1    1    2    0    0  0.28614148537E+02 -0.44840135414E+02 -0.11370274948E+03  0.12552976731E+03  0.00000000000E+00 0. -1.
<mgrwt>
<rscale>  0 0.11968252E+03</rscale>
<asrwt>0</asrwt>
<pdfrwt beam="2">  1        2 0.49003654E-01 0.13037293E+03</pdfrwt>
<pdfrwt beam="1">  1       -2 0.60342913E-02 0.13037293E+03</pdfrwt>
<totfact> 0.14091543E+04</totfact>
</mgrwt>
</event>
<event>
 7    1  0.5206756E-006  0.1568209E+03  0.7546771E-02  0.1199349E+00
          1   -1    0    0  501    0  0.00000000000E+00  0.00000000000E+00  0.15518963861E+03  0.15518963861E+03  0.00000000000E+00 0. -1.
         -1   -1    0    0    0  501 -0.00000000000E+00 -0.00000000000E+00 -0.14090310288E+03  0.14090310288E+03  0.00000000000E+00 0.  1.
         23    2    1    2    0    0 -0.89546888765E+02  0.30780680366E+02  0.33089723417E+02  0.16027387570E+03  0.12500675927E+03 0.  0.
          5    1    3    3  502    0 -0.52132804066E+02  0.15937213732E+02 -0.45949650036E+02  0.71451272765E+02  0.47000000000E+01 0. -1.
         -5    1    3    3    0  502 -0.37414084699E+02  0.14843466634E+02  0.79039373452E+02  0.88822602930E+02  0.47000000000E+01 0. -1.
        -11    1    1    2    0    0  0.27920824827E+02 -0.53798410283E+02 -0.32274372899E+02  0.68669327608E+02  0.00000000000E+00 0. -1.
         11    1    1    2    0    0  0.61626063938E+02  0.23017729917E+02  0.13471185218E+02  0.67149538183E+02  0.00000000000E+00 0.  1.
<mgrwt>
<rscale>  0 0.15091845E+03</rscale>
<asrwt>0</asrwt>
<pdfrwt beam="1">  1        1 0.23875329E-01 0.15682087E+03</pdfrwt>
<pdfrwt beam="2">  1       -1 0.21677401E-01 0.15682087E+03</pdfrwt>
<totfact> 0.34786668E+03</totfact>
</mgrwt>
</event>
<event>
 7    1  0.5206756E-006  0.1375574E+03  0.7546771E-02  0.1228684E+00
         -2   -1    0    0    0  501 -0.00000000000E+00  0.00000000000E+00  0.33503528409E+02  0.33503528409E+02  0.00000000000E+00 0.  1.
          2   -1    0    0  501    0  0.00000000000E+00 -0.00000000000E+00 -0.45465497652E+03  0.45465497652E+03  0.00000000000E+00 0. -1.
         23    2    1    2    0    0 -0.46219427242E+02 -0.34068367408E+02 -0.20336024831E+03  0.24551461072E+03  0.12500057749E+03 0.  0.
          5    1    3    3  502    0 -0.20753007793E+02 -0.72818019363E+02 -0.66316907997E+02  0.10076295729E+03  0.47000000000E+01 0.  1.
         -5    1    3    3    0  502 -0.25466419450E+02  0.38749651955E+02 -0.13704334031E+03  0.14475165343E+03  0.47000000000E+01 0.  1.
        -11    1    1    2    0    0 -0.20852212121E+02  0.30868855965E+02 -0.53801398794E+02  0.65439220129E+02  0.00000000000E+00 0.  1.
         11    1    1    2    0    0  0.67071639363E+02  0.31995114431E+01 -0.16398980101E+03  0.17720467408E+03  0.00000000000E+00 0. -1.
<mgrwt>
<rscale>  0 0.12917565E+03</rscale>
<asrwt>0</asrwt>
<pdfrwt beam="2">  1        2 0.69946916E-01 0.13755738E+03</pdfrwt>
<pdfrwt beam="1">  1       -2 0.51543892E-02 0.13755738E+03</pdfrwt>
<totfact> 0.12280074E+04</totfact>
</mgrwt>
</event>
<event>
 7    1  0.5206756E-006  0.1367079E+03  0.7546771E-02  0.1229081E+00
          2   -1    0    0  501    0  0.00000000000E+00  0.00000000000E+00  0.10632730206E+04  0.10632730206E+04  0.00000000000E+00 0.  1.
         -2   -1    0    0    0  501 -0.00000000000E+00 -0.00000000000E+00 -0.23513472364E+02  0.23513472364E+02  0.00000000000E+00 0. -1.
         23    2    1    2    0    0 -0.15123151864E+02  0.53247069599E+02  0.89890051181E+03  0.90923658638E+03  0.12500031894E+03 0.  0.
          5    1    3    3  502    0  0.24200722601E+02  0.54420030589E+02  0.18870141739E+03  0.19793314434E+03  0.47000000000E+01 0. -1.
         -5    1    3    3    0  502 -0.39323874465E+02 -0.11729609899E+01  0.71019909442E+03  0.71130344204E+03  0.47000000000E+01 0. -1.
        -11    1    1    2    0    0 -0.35582029199E+02 -0.29869659933E+02  0.36078151258E+02  0.58821002921E+02  0.00000000000E+00 0. -1.
         11    1    1    2    0    0  0.50705181063E+02 -0.23377409666E+02  0.10478088520E+03  0.11872890369E+03  0.00000000000E+00 0.  1.
<mgrwt>
<rscale>  0 0.12891042E+03</rscale>
<asrwt>0</asrwt>
<pdfrwt beam="1">  1        2 0.16358043E+00 0.13670786E+03</pdfrwt>
<pdfrwt beam="2">  1       -2 0.36174581E-02 0.13670786E+03</pdfrwt>
<totfact> 0.74631817E+03</totfact>
</mgrwt>
</event>
<event>
 6    1  0.5206756E-006  0.1444578E+03  0.7546771E-02  0.1223602E+00
          4   -1    0    0  501    0  0.00000000000E+00  0.00000000000E+00  0.18795903771E+03  0.18795903771E+03  0.00000000000E+00 0. -1.
         -4   -1    0    0    0  501 -0.00000000000E+00 -0.00000000000E+00 -0.94306776105E+02  0.94306776105E+02  0.00000000000E+00 0.  1.
          5    1    1    2  502    0 -0.33182959695E+02 -0.66123063842E+02  0.48137249603E+02  0.88389214191E+02  0.47000000000E+01 0. -1.
         -5    1    1    2    0  502 -0.12002148529E+02  0.68785923657E+02  0.57435862355E+02  0.90534651637E+02  0.47000000000E+01 0.  1.
        -11    1    1    2    0    0  0.30527020984E+02 -0.44734992106E+02  0.76214661042E+01  0.54691912331E+02  0.00000000000E+00 0. -1.
         11    1    1    2    0    0  0.14658087240E+02  0.42072132291E+02 -0.19542316454E+02  0.48650035657E+02  0.00000000000E+00 0.  1.
<mgrwt>
<rscale>  0 0.13263184E+03</rscale>
<asrwt>0</asrwt>
<pdfrwt beam="1">  1        4 0.28916775E-01 0.14445784E+03</pdfrwt>
<pdfrwt beam="2">  1       -4 0.14508735E-01 0.14445784E+03</pdfrwt>
<totfact> 0.76304721E+02</totfact>
</mgrwt>
</event>
<event>
 7    1  0.5206756E-006  0.1306209E+03  0.7546771E-02  0.1240065E+00
          1   -1    0    0  501    0  0.00000000000E+00  0.00000000000E+00  0.16440373118E+03  0.16440373118E+03  0.00000000000E+00 0. -1.
         -1   -1    0    0    0  501 -0.00000000000E+00 -0.00000000000E+00 -0.87181251256E+02  0.87181251256E+02  0.00000000000E+00 0.  1.
         23    2    1    2    0    0 -0.21742856325E+02 -0.31074716182E+02  0.78962503964E+02  0.15263321051E+03  0.12499372037E+03 0.  0.
          5    1    3    3  502    0  0.37916518787E+02 -0.45104049616E+00  0.76327365217E+02  0.85357029678E+02  0.47000000000E+01 0. -1.
         -5    1    3    3    0  502 -0.59659375111E+02 -0.30623675686E+02  0.26351387471E+01  0.67276180833E+02  0.47000000000E+01 0. -1.
        -11    1    1    2    0    0 -0.21957894066E+02  0.65026636741E+01 -0.32778865885E+02  0.39986095025E+02  0.00000000000E+00 0.  1.
         11    1    1    2    0    0  0.43700750390E+02  0.24572052508E+02  0.31038841841E+02  0.58965676897E+02  0.00000000000E+00 0. -1.
<mgrwt>
<rscale>  0 0.12185648E+03</rscale>
<asrwt>0</asrwt>
<pdfrwt beam="1">  1        1 0.25292882E-01 0.13062090E+03</pdfrwt>
<pdfrwt beam="2">  1       -1 0.13412500E-01 0.13062090E+03</pdfrwt>
<totfact> 0.68530145E+03</totfact>
</mgrwt>
</event>
<event>
 7    1  0.5206756E-006  0.1307598E+03  0.7546771E-02  0.1240279E+00
         -2   -1    0    0    0  501 -0.00000000000E+00  0.00000000000E+00  0.38072774480E+03  0.38072774480E+03  0.00000000000E+00 0.  1.
          2   -1    0    0  501    0  0.00000000000E+00 -0.00000000000E+00 -0.34425059324E+02  0.34425059324E+02  0.00000000000E+00 0. -1.
         23    2    1    2    0    0  0.35612269478E+02  0.14245630260E+02  0.19554307739E+03  0.23523437386E+03  0.12500777500E+03 0.  0.
          5    1    3    3  502    0  0.56907205706E+02 -0.35059713929E+02  0.15136609638E+03  0.16553367856E+03  0.47000000000E+01 0.  1.
         -5    1    3    3    0  502 -0.21294936227E+02  0.49305344189E+02  0.44176981003E+02  0.69700695299E+02  0.47000000000E+01 0.  1.
        -11    1    1    2    0    0 -0.42194175812E+02  0.11596821088E+02  0.23058136140E+02  0.49462231794E+02  0.00000000000E+00 0. -1.
         11    1    1    2    0    0  0.65819063341E+01 -0.25842451348E+02  0.12770147195E+03  0.13045619848E+03  0.00000000000E+00 0.  1.
<mgrwt>
<rscale>  0 0.12172436E+03</rscale>
<asrwt>0</asrwt>
<pdfrwt beam="2">  1        2 0.52961632E-02 0.13075976E+03</pdfrwt>
<pdfrwt beam="1">  1       -2 0.58573496E-01 0.13075976E+03</pdfrwt>
<totfact> 0.38458646E+03</totfact>
</mgrwt>
</event>
<event>
 7    1  0.5206756E-006  0.1377977E+03  0.7546771E-02  0.1232819E+00
         -3   -1    0    0    0  501 -0.00000000000E+00  0.00000000000E+00  0.39614928131E+03  0.39614928131E+03  0.00000000000E+00 0.  1.
          3   -1    0    0  501    0  0.00000000000E+00 -0.00000000000E+00 -0.36630738721E+02  0.36630738721E+02  0.00000000000E+00 0. -1.
         23    2    1    2    0    0 -0.57038855307E+02  0.10566456872E+02  0.16401719185E+03  0.21421917324E+03  0.12499253552E+03 0.  0.
          5    1    3    3  502    0 -0.73729887249E+02 -0.78394849106E+01  0.17227932800E+03  0.18761612579E+03  0.47000000000E+01 0.  1.
         -5    1    3    3    0  502  0.16691031942E+02  0.18405941782E+02 -0.82621361522E+01  0.26603047456E+02  0.47000000000E+01 0.  1.
        -11    1    1    2    0    0  0.23010428896E+02  0.31993086723E+02  0.53377576139E+02  0.66349099997E+02  0.00000000000E+00 0. -1.
         11    1    1    2    0    0  0.34028426412E+02 -0.42559543594E+02  0.14212377460E+03  0.15221174679E+03  0.00000000000E+00 0.  1.
<mgrwt>
<rscale>  0 0.12645062E+03</rscale>
<asrwt>0</asrwt>
<pdfrwt beam="2">  1        3 0.56354986E-02 0.13779773E+03</pdfrwt>
<pdfrwt beam="1">  1       -3 0.60946040E-01 0.13779773E+03</pdfrwt>
<totfact> 0.11585773E+03</totfact>
</mgrwt>
</event>
<event>
 7    1  0.5206756E-006  0.1295954E+03  0.7546771E-02  0.1241571E+00
         -2   -1    0    0    0  501 -0.00000000000E+00  0.00000000000E+00  0.22268184324E+03  0.22268184324E+03  0.00000000000E+00 0.  1.
          2   -1    0    0  501    0  0.00000000000E+00 -0.00000000000E+00 -0.58314410483E+02  0.58314410483E+02  0.00000000000E+00 0. -1.
         23    2    1    2    0    0  0.29629141275E+01  0.34093367235E+02  0.96587081373E+02  0.16162933928E+03  0.12499536983E+03 0.  0.
          5    1    3    3  502    0  0.13403293531E+02 -0.38822592729E+02  0.16449289425E+01  0.41371944297E+02  0.47000000000E+01 0.  1.
         -5    1    3    3    0  502 -0.10440379404E+02  0.72915959964E+02  0.94942152430E+02  0.12025739498E+03  0.47000000000E+01 0.  1.
        -11    1    1    2    0    0  0.13345104618E+02 -0.55757964576E+02  0.71877644467E+02  0.91942581022E+02  0.00000000000E+00 0.  1.
         11    1    1    2    0    0 -0.16308018746E+02  0.21664597341E+02 -0.40972930777E+01  0.27424333427E+02  0.00000000000E+00 0. -1.
<mgrwt>
<rscale>  0 0.12092951E+03</rscale>
<asrwt>0</asrwt>
<pdfrwt beam="2">  1        2 0.89714479E-02 0.12959544E+03</pdfrwt>
<pdfrwt beam="1">  1       -2 0.34258745E-01 0.12959544E+03</pdfrwt>
<totfact> 0.55547104E+03</totfact>
</mgrwt>
</event>
<event>
 7    1  0.5206756E-006  0.1630423E+03  0.7546771E-02  0.1192989E+00
          2   -1    0    0  501    0  0.00000000000E+00  0.00000000000E+00  0.24861900189E+04  0.24861900189E+04  0.00000000000E+00 0.  1.
         -2   -1    0    0    0  501 -0.00000000000E+00 -0.00000000000E+00 -0.12519947955E+02  0.12519947955E+02  0.00000000000E+00 0. -1.
         23    2    1    2    0    0  0.56967874892E+02  0.87818435928E+02  0.19655958479E+04  0.19723462735E+04  0.12500147584E+03 0.  0.
          5    1    3    3  502    0 -0.51338276450E+01  0.42139113505E+02  0.17686890403E+03  0.18195263198E+03  0.47000000000E+01 0.  1.
         -5    1    3    3    0  502  0.62101702537E+02  0.45679322423E+02  0.17887269439E+04  0.17903936416E+04  0.47000000000E+01 0.  1.
        -11    1    1    2    0    0 -0.65781114945E+02 -0.41509070866E+02  0.41280857340E+03  0.42007270361E+03  0.00000000000E+00 0.  1.
         11    1    1    2    0    0  0.88132400537E+01 -0.46309365062E+02  0.95265649677E+02  0.10629098975E+03  0.00000000000E+00 0. -1.
<mgrwt>
<rscale>  0 0.15625660E+03</rscale>
<asrwt>0</asrwt>
<pdfrwt beam="1">  1        2 0.38249038E+00 0.16304228E+03</pdfrwt>
<pdfrwt beam="2">  1       -2 0.19261478E-02 0.16304228E+03</pdfrwt>
<totfact> 0.33538575E+03</totfact>
</mgrwt>
</event>
<event>
 7    1  0.5206756E-006  0.1250301E+03  0.7546771E-02  0.1249693E+00
         -1   -1    0    0    0  501 -0.00000000000E+00  0.00000000000E+00  0.78512555682E+01  0.78512555682E+01  0.00000000000E+00 0.  1.
          1   -1    0    0  501    0  0.00000000000E+00 -0.00000000000E+00 -0.18942124453E+04  0.18942124453E+04  0.00000000000E+00 0. -1.
         23    2    1    2    0    0 -0.15905709414E+01  0.21117960463E+01 -0.14773107150E+04  0.14825921481E+04  0.12500215646E+03 0.  0.
          5    1    3    3  502    0 -0.32250266594E+02 -0.34137802642E+02 -0.25376884617E+03  0.25812048843E+03  0.47000000000E+01 0.  1.
         -5    1    3    3    0  502  0.30659695653E+02  0.36249598688E+02 -0.12235418689E+04  0.12244716596E+04  0.47000000000E+01 0.  1.
        -11    1    1    2    0    0 -0.30620165658E+02  0.33091110843E+02 -0.20937963032E+03  0.21417853710E+03  0.00000000000E+00 0.  1.
         11    1    1    2    0    0  0.32210736599E+02 -0.35202906889E+02 -0.19967084436E+03  0.20529301569E+03  0.00000000000E+00 0. -1.
<mgrwt>
<rscale>  0 0.11608819E+03</rscale>
<asrwt>0</asrwt>
<pdfrwt beam="2">  1        1 0.29141733E+00 0.12503011E+03</pdfrwt>
<pdfrwt beam="1">  1       -1 0.12078853E-02 0.12503011E+03</pdfrwt>
<totfact> 0.55605457E+03</totfact>
</mgrwt>
</event>
<event>
 6    1  0.5206756E-006  0.2591715E+03  0.7546771E-02  0.1131407E+00
         -1   -1    0    0    0  501 -0.00000000000E+00  0.00000000000E+00  0.96612311705E+02  0.96612311705E+02  0.00000000000E+00 0.  1.
          1   -1    0    0  501    0  0.00000000000E+00 -0.00000000000E+00 -0.58091953133E+03  0.58091953133E+03  0.00000000000E+00 0. -1.
          5    1    1    2  502    0 -0.12060187324E+02 -0.17680849546E+03 -0.39642880597E+03  0.43426326161E+03  0.47000000000E+01 0. -1.
         -5    1    1    2    0  502 -0.13281290260E+02  0.69010873820E+02 -0.69816039492E+02  0.99172893205E+02  0.47000000000E+01 0.  1.
        -11    1    1    2    0    0  0.17368979458E+02  0.11851277731E+03 -0.32818011071E+02  0.12419332383E+03  0.00000000000E+00 0.  1.
         11    1    1    2    0    0  0.79724981258E+01 -0.10715155674E+02  0.14755636911E+02  0.19902364385E+02  0.00000000000E+00 0. -1.
<mgrwt>
<rscale>  0 0.22335385E+03</rscale>
<asrwt>0</asrwt>
<pdfrwt beam="2">  1        1 0.89372237E-01 0.25917152E+03</pdfrwt>
<pdfrwt beam="1">  1       -1 0.14863432E-01 0.25917152E+03</pdfrwt>
<totfact> 0.12007572E+03</totfact>
</mgrwt>
</event>
<event>
 7    1  0.5206756E-006  0.1409827E+03  0.7546771E-02  0.1223774E+00
          1   -1    0    0  501    0  0.00000000000E+00  0.00000000000E+00  0.57033642148E+02  0.57033642148E+02  0.00000000000E+00 0. -1.
         -1   -1    0    0    0  501 -0.00000000000E+00 -0.00000000000E+00 -0.33002387481E+03  0.33002387481E+03  0.00000000000E+00 0.  1.
         23    2    1    2    0    0  0.54539876547E+02 -0.35666921689E+02 -0.72920041528E+02  0.15872448517E+03  0.12501760796E+03 0.  0.
          5    1    3    3  502    0  0.93357866985E+02 -0.10571107903E+02 -0.54688388200E+02  0.10881336983E+03  0.47000000000E+01 0.  1.
         -5    1    3    3    0  502 -0.38817990438E+02 -0.25095813786E+02 -0.18231653328E+02  0.49911115339E+02  0.47000000000E+01 0.  1.
        -11    1    1    2    0    0 -0.24590291141E+02  0.31975977953E+02 -0.19322451255E+03  0.19739011585E+03  0.00000000000E+00 0.  1.
         11    1    1    2    0    0 -0.29949585406E+02  0.36909437358E+01 -0.68456785864E+01  0.30942915941E+02  0.00000000000E+00 0. -1.
<mgrwt>
<rscale>  0 0.13251285E+03</rscale>
<asrwt>0</asrwt>
<pdfrwt beam="1">  1        1 0.87744064E-02 0.14098273E+03</pdfrwt>
<pdfrwt beam="2">  1       -1 0.50772904E-01 0.14098273E+03</pdfrwt>
<totfact> 0.29567220E+03</totfact>
</mgrwt>
</event>
<event>
 7    1  0.5206756E-006  0.1777966E+03  0.7546771E-02  0.1173754E+00
          2   -1    0    0  501    0  0.00000000000E+00  0.00000000000E+00  0.31704104999E+03  0.31704104999E+03  0.00000000000E+00 0. -1.
         -2   -1    0    0    0  501 -0.00000000000E+00 -0.00000000000E+00 -0.12456911425E+03  0.12456911425E+03  0.00000000000E+00 0.  1.
         23    2    1    2    0    0  0.11845148020E+03 -0.66664822558E+02  0.21281078404E+03  0.27730862437E+03  0.11461540741E+03 0.  0.
          5    1    3    3  502    0  0.53722296794E+02 -0.30046960577E+02  0.11694523904E+02  0.62831177787E+02  0.47000000000E+01 0. -1.
         -5    1    3    3    0  502  0.64729183401E+02 -0.36617861981E+02  0.20111626014E+03  0.21447744658E+03  0.47000000000E+01 0.  1.
        -11    1    1    2    0    0 -0.88540684100E+02  0.27831275134E+01 -0.29055036358E+02  0.93227644384E+02  0.00000000000E+00 0.  1.
         11    1    1    2    0    0 -0.29910796095E+02  0.63881695045E+02  0.87161880568E+01  0.71073895483E+02  0.00000000000E+00 0. -1.
<mgrwt>
<rscale>  0 0.17398617E+03</rscale>
<asrwt>0</asrwt>
<pdfrwt beam="1">  1        2 0.48775546E-01 0.17779663E+03</pdfrwt>
<pdfrwt beam="2">  1       -2 0.19164479E-01 0.17779663E+03</pdfrwt>
<totfact> 0.22920629E+03</totfact>
</mgrwt>
</event>
<event>
 7    1  0.5206756E-006  0.1799232E+03  0.7546771E-02  0.1173443E+00
         -1   -1    0    0    0  501 -0.00000000000E+00  0.00000000000E+00  0.39109372361E+02  0.39109372361E+02  0.00000000000E+00 0.  1.
          1   -1    0    0  501    0  0.00000000000E+00 -0.00000000000E+00 -0.74473272537E+03  0.74473272537E+03  0.00000000000E+00 0. -1.
         23    2    1    2    0    0 -0.60732157930E+02 -0.11427218471E+03 -0.42625589046E+03  0.46267315086E+03  0.12500333264E+03 0.  0.
          5    1    3    3  502    0 -0.18554674918E+02  0.26381009436E+02 -0.65910562014E+02  0.73529081357E+02  0.47000000000E+01 0.  1.
         -5    1    3    3    0  502 -0.42177483012E+02 -0.14065319415E+03 -0.36034532845E+03  0.38914406951E+03  0.47000000000E+01 0.  1.
        -11    1    1    2    0    0  0.65342245912E+02  0.29615785262E+02 -0.10349967385E+03  0.12593207028E+03  0.00000000000E+00 0.  1.
         11    1    1    2    0    0 -0.46100879815E+01  0.84656399452E+02 -0.17586778870E+03  0.19523687659E+03  0.00000000000E+00 0. -1.
<mgrwt>
<rscale>  0 0.17429373E+03</rscale>
<asrwt>0</asrwt>
<pdfrwt beam="2">  1        1 0.11457427E+00 0.17992321E+03</pdfrwt>
<pdfrwt beam="1">  1       -1 0.60168263E-02 0.17992321E+03</pdfrwt>
<totfact> 0.33743388E+03</totfact>
</mgrwt>
</event>
<event>
 7    1  0.5206756E-006  0.1296965E+03  0.7546771E-02  0.1238642E+00
          1   -1    0    0  501    0  0.00000000000E+00  0.00000000000E+00  0.44162730498E+02  0.44162730498E+02  0.00000000000E+00 0.  1.
         -1   -1    0    0    0  501 -0.00000000000E+00 -0.00000000000E+00 -0.34880067421E+03  0.34880067421E+03  0.00000000000E+00 0. -1.
         23    2    1    2    0    0 -0.10993972979E+02  0.32783021263E+02 -0.10134273098E+03  0.16459509017E+03  0.12500240262E+03 0.  0.
          5    1    3    3  502    0 -0.38203667117E+02  0.18260001974E+00  0.14494336598E+02  0.41130637211E+02  0.47000000000E+01 0.  1.
         -5    1    3    3    0  502  0.27209694138E+02  0.32600421244E+02 -0.11583706758E+03  0.12346445296E+03  0.47000000000E+01 0.  1.
        -11    1    1    2    0    0  0.43710814597E+02 -0.49739229974E+02 -0.11516486298E+03  0.13284416425E+03  0.00000000000E+00 0.  1.
         11    1    1    2    0    0 -0.32716841618E+02  0.16956208711E+02 -0.88130349752E+02  0.95524150280E+02  0.00000000000E+00 0. -1.
<mgrwt>
<rscale>  0 0.12274124E+03</rscale>
<asrwt>0</asrwt>
<pdfrwt beam="1">  1        1 0.67942661E-02 0.12969655E+03</pdfrwt>
<pdfrwt beam="2">  1       -1 0.53661643E-01 0.12969655E+03</pdfrwt>
<totfact> 0.37471126E+03</totfact>
</mgrwt>
</event>
<event>
 7    1  0.5206756E-006  0.1267790E+03  0.7546771E-02  0.1245819E+00
          3   -1    0    0  501    0  0.00000000000E+00  0.00000000000E+00  0.10575568416E+03  0.10575568416E+03  0.00000000000E+00 0.  1.
         -3   -1    0    0    0  501 -0.00000000000E+00 -0.00000000000E+00 -0.11885743645E+03  0.11885743645E+03  0.00000000000E+00 0. -1.
         23    2    1    2    0    0  0.11838730270E+02 -0.17535021038E+02  0.36923120412E+01  0.12683271774E+03  0.12500109049E+03 0.  0.
          5    1    3    3  502    0  0.35930472339E+01  0.53818371774E+02  0.79594454458E+01  0.54724490867E+02  0.47000000000E+01 0. -1.
         -5    1    3    3    0  502  0.82456830365E+01 -0.71353392813E+02 -0.42671334046E+01  0.72108226869E+02  0.47000000000E+01 0. -1.
        -11    1    1    2    0    0 -0.22491182226E+02  0.53912813711E+02 -0.96575727050E+01  0.59209065782E+02  0.00000000000E+00 0. -1.
         11    1    1    2    0    0  0.10652451956E+02 -0.36377792672E+02 -0.71364916327E+01  0.38571337094E+02  0.00000000000E+00 0.  1.
<mgrwt>
<rscale>  0 0.11836488E+03</rscale>
<asrwt>0</asrwt>
<pdfrwt beam="1">  1        3 0.16270105E-01 0.12677896E+03</pdfrwt>
<pdfrwt beam="2">  1       -3 0.18285759E-01 0.12677896E+03</pdfrwt>
<totfact> 0.19209184E+03</totfact>
</mgrwt>
</event>
<event>
 7    1  0.5206756E-006  0.1419599E+03  0.7546771E-02  0.1222854E+00
          2   -1    0    0  501    0  0.00000000000E+00  0.00000000000E+00  0.65054807201E+03  0.65054807201E+03  0.00000000000E+00 0. -1.
         -2   -1    0    0    0  501 -0.00000000000E+00 -0.00000000000E+00 -0.24475899093E+02  0.24475899093E+02  0.00000000000E+00 0.  1.
         23    2    1    2    0    0  0.54654471343E+02  0.39240248075E+02  0.37467982805E+03  0.40067143601E+03  0.12500287108E+03 0.  0.
          5    1    3    3  502    0 -0.28162027558E+02  0.19385723290E+02  0.23114451535E+03  0.23370661745E+03  0.47000000000E+01 0. -1.
         -5    1    3    3    0  502  0.82816498900E+02  0.19854524785E+02  0.14353531270E+03  0.16696481856E+03  0.47000000000E+01 0. -1.
        -11    1    1    2    0    0 -0.62637469252E+02  0.60190615837E+01  0.12682642310E+03  0.14157903536E+03  0.00000000000E+00 0.  1.
         11    1    1    2    0    0  0.79829979093E+01 -0.45259309658E+02  0.12456592176E+03  0.13277349973E+03  0.00000000000E+00 0. -1.
<mgrwt>
<rscale>  0 0.13315062E+03</rscale>
<asrwt>0</asrwt>
<pdfrwt beam="1">  1        2 0.10008431E+00 0.14195995E+03</pdfrwt>
<pdfrwt beam="2">  1       -2 0.37655234E-02 0.14195995E+03</pdfrwt>
<totfact> 0.13178431E+04</totfact>
</mgrwt>
</event>
<event>
 7    1  0.5206756E-006  0.1955517E+03  0.7546771E-02  0.1158011E+00
          1   -1    0    0  501    0  0.00000000000E+00  0.00000000000E+00  0.39207341098E+03  0.39207341098E+03  0.00000000000E+00 0. -1.
         -1   -1    0    0    0  501 -0.00000000000E+00 -0.00000000000E+00 -0.11644264847E+03  0.11644264847E+03  0.00000000000E+00 0.  1.
         23    2    1    2    0    0  0.25303008428E+02  0.14824172422E+03  0.26861925864E+03  0.33226009044E+03  0.12499844220E+03 0.  0.
          5    1    3    3  502    0  0.51742999753E+02  0.71368051270E+02  0.55899190171E+02  0.10448706249E+03  0.47000000000E+01 0. -1.
         -5    1    3    3    0  502 -0.26439991325E+02  0.76873672952E+02  0.21272006847E+03  0.22777302796E+03  0.47000000000E+01 0. -1.
        -11    1    1    2    0    0 -0.23286616329E+02 -0.75051899703E+02  0.48261152355E+02  0.92218181373E+02  0.00000000000E+00 0. -1.
         11    1    1    2    0    0 -0.20163920993E+01 -0.73189824518E+02 -0.41249648481E+02  0.84037787631E+02  0.00000000000E+00 0.  1.
<mgrwt>
<rscale>  0 0.19050052E+03</rscale>
<asrwt>0</asrwt>
<pdfrwt beam="1">  1        1 0.60318986E-01 0.19555169E+03</pdfrwt>
<pdfrwt beam="2">  1       -1 0.17914254E-01 0.19555169E+03</pdfrwt>
<totfact> 0.14920974E+03</totfact>
</mgrwt>
</event>
<event>
 7    1  0.5206756E-006  0.1391071E+03  0.7546771E-02  0.1229378E+00
          2   -1    0    0  501    0  0.00000000000E+00  0.00000000000E+00  0.75286294359E+03  0.75286294359E+03  0.00000000000E+00 0. -1.
         -2   -1    0    0    0  501 -0.00000000000E+00 -0.00000000000E+00 -0.25072171844E+02  0.25072171844E+02  0.00000000000E+00 0.  1.
         23    2    1    2    0    0 -0.59538052953E+02  0.87363416873E+01  0.59200352893E+03  0.60812742833E+03  0.12541805054E+03 0.  0.
          5    1    3    3  502    0  0.15297088433E+02  0.19249639032E+02  0.41314369194E+03  0.41390137679E+03  0.47000000000E+01 0. -1.
         -5    1    3    3    0  502 -0.74835141387E+02 -0.10513297344E+02  0.17885983699E+03  0.19422605154E+03  0.47000000000E+01 0. -1.
        -11    1    1    2    0    0 -0.41620566110E+01 -0.18709053657E+02 -0.35476137796E+00  0.19169696388E+02  0.00000000000E+00 0.  1.
         11    1    1    2    0    0  0.63700109564E+02  0.99727119692E+01  0.13614200419E+03  0.15063799071E+03  0.00000000000E+00 0. -1.
<mgrwt>
<rscale>  0 0.12871311E+03</rscale>
<asrwt>0</asrwt>
<pdfrwt beam="1">  1        2 0.11582505E+00 0.13910712E+03</pdfrwt>
<pdfrwt beam="2">  1       -2 0.38572578E-02 0.13910712E+03</pdfrwt>
<totfact> 0.10673625E+04</totfact>
</mgrwt>
</event>
<event>
 7    1  0.5206756E-006  0.2645960E+03  0.7546771E-02  0.1106649E+00
         -1   -1    0    0    0  501 -0.00000000000E+00  0.00000000000E+00  0.24735803697E+03  0.24735803697E+03  0.00000000000E+00 0.  1.
          1   -1    0    0  501    0  0.00000000000E+00 -0.00000000000E+00 -0.26918718704E+03  0.26918718704E+03  0.00000000000E+00 0. -1.
         23    2    1    2    0    0  0.17040116804E+03  0.15920273852E+03 -0.31903278443E+02  0.26651240000E+03  0.12501587961E+03 0.  0.
          5    1    3    3  502    0 -0.46596845299E+01 -0.14098828628E+02 -0.11364600128E+02  0.19280398457E+02  0.47000000000E+01 0.  1.
         -5    1    3    3    0  502  0.17506085257E+03  0.17330156715E+03 -0.20538678315E+02  0.24723200154E+03  0.47000000000E+01 0.  1.
        -11    1    1    2    0    0 -0.12969582688E+02 -0.35995306410E+02  0.30706864839E+02  0.49058981918E+02  0.00000000000E+00 0.  1.
         11    1    1    2    0    0 -0.15743158535E+03 -0.12320743211E+03 -0.20632736457E+02  0.20097384210E+03  0.00000000000E+00 0. -1.
<mgrwt>
<rscale>  0 0.26082457E+03</rscale>
<asrwt>0</asrwt>
<pdfrwt beam="2">  1        1 0.41413413E-01 0.26459599E+03</pdfrwt>
<pdfrwt beam="1">  1       -1 0.38055083E-01 0.26459599E+03</pdfrwt>
<totfact> 0.68055008E+02</totfact>
</mgrwt>
</event>
<event>
 7    1  0.5206756E-006  0.2088027E+03  0.7546771E-02  0.1146516E+00
          2   -1    0    0  501    0  0.00000000000E+00  0.00000000000E+00  0.74589573952E+03  0.74589573952E+03  0.00000000000E+00 0. -1.
         -2   -1    0    0    0  501 -0.00000000000E+00 -0.00000000000E+00 -0.74482763554E+02  0.74482763554E+02  0.00000000000E+00 0.  1.
         23    2    1    2    0    0  0.16600072600E+03  0.20486592805E+02  0.56605176594E+03  0.60333502503E+03  0.12499043637E+03 0.  0.
          5    1    3    3  502    0  0.27956538066E+02  0.56422675218E+02  0.13006953099E+03  0.14458651109E+03  0.47000000000E+01 0. -1.
         -5    1    3    3    0  502  0.13804418794E+03 -0.35936082413E+02  0.43598223496E+03  0.45874851394E+03  0.47000000000E+01 0. -1.
        -11    1    1    2    0    0 -0.84217482435E+02  0.34372248194E+02  0.56839813283E+02  0.10726043151E+03  0.00000000000E+00 0.  1.
         11    1    1    2    0    0 -0.81783243570E+02 -0.54858840998E+02  0.48521396740E+02  0.10978304653E+03  0.00000000000E+00 0. -1.
<mgrwt>
<rscale>  0 0.20386854E+03</rscale>
<asrwt>0</asrwt>
<pdfrwt beam="1">  1        2 0.11475319E+00 0.20880266E+03</pdfrwt>
<pdfrwt beam="2">  1       -2 0.11458887E-01 0.20880266E+03</pdfrwt>
<totfact> 0.20556324E+03</totfact>
</mgrwt>
</event>
<event>
 7    1  0.5206756E-006  0.2370217E+03  0.7546771E-02  0.1124667E+00
          1   -1    0    0  501    0  0.00000000000E+00  0.00000000000E+00  0.11034491564E+04  0.11034491564E+04  0.00000000000E+00 0. -1.
         -1   -1    0    0    0  501 -0.00000000000E+00 -0.00000000000E+00 -0.48237717037E+02  0.48237717037E+02  0.00000000000E+00 0.  1.
         23    2    1    2    0    0  0.20114638945E+03  0.91365260849E+01  0.61915651449E+03  0.66297365865E+03  0.12504373850E+03 0.  0.
          5    1    3    3  502    0  0.59616860261E+02 -0.51936441707E+02  0.26768525383E+03  0.27915774953E+03  0.47000000000E+01 0. -1.
         -5    1    3    3    0  502  0.14152952919E+03  0.61072967792E+02  0.35147126066E+03  0.38381590912E+03  0.47000000000E+01 0. -1.
        -11    1    1    2    0    0 -0.75469379613E+02 -0.18374303006E+02  0.82218523015E+02  0.11310670978E+03  0.00000000000E+00 0.  1.
         11    1    1    2    0    0 -0.12567700984E+03  0.92377769216E+01  0.35383640190E+03  0.37560650505E+03  0.00000000000E+00 0. -1.
<mgrwt>
<rscale>  0 0.23282442E+03</rscale>
<asrwt>0</asrwt>
<pdfrwt beam="1">  1        1 0.16976139E+00 0.23702169E+03</pdfrwt>
<pdfrwt beam="2">  1       -1 0.74211881E-02 0.23702169E+03</pdfrwt>
<totfact> 0.12977851E+03</totfact>
</mgrwt>
</event>
<event>
 7    1  0.5206756E-006  0.1601430E+03  0.7546771E-02  0.1195849E+00
          1   -1    0    0  501    0  0.00000000000E+00  0.00000000000E+00  0.98413035213E+03  0.98413035213E+03  0.00000000000E+00 0. -1.
         -1   -1    0    0    0  501 -0.00000000000E+00 -0.00000000000E+00 -0.22732612938E+02  0.22732612938E+02  0.00000000000E+00 0.  1.
         23    2    1    2    0    0  0.40533123469E+02 -0.91536607766E+02  0.58554437987E+03  0.60704860134E+03  0.12499559565E+03 0.  0.
          5    1    3    3  502    0  0.79836045793E+02 -0.31757539095E+02  0.26650180126E+03  0.28004934489E+03  0.47000000000E+01 0. -1.
         -5    1    3    3    0  502 -0.39302922325E+02 -0.59779068671E+02  0.31904257861E+03  0.32699925645E+03  0.47000000000E+01 0. -1.
        -11    1    1    2    0    0 -0.52618396453E+02  0.17756740859E+02  0.22081431862E+03  0.22769049343E+03  0.00000000000E+00 0.  1.
         11    1    1    2    0    0  0.12085272984E+02  0.73779866908E+02  0.15503904070E+03  0.17212387030E+03  0.00000000000E+00 0. -1.
<mgrwt>
<rscale>  0 0.15382559E+03</rscale>
<asrwt>0</asrwt>
<pdfrwt beam="1">  1        1 0.15140464E+00 0.16014301E+03</pdfrwt>
<pdfrwt beam="2">  1       -1 0.34973258E-02 0.16014301E+03</pdfrwt>
<totfact> 0.48517669E+03</totfact>
</mgrwt>
</event>
<event>
 7    1  0.5206756E-006  0.2208911E+03  0.7546771E-02  0.1137344E+00
          1   -1    0    0  501    0  0.00000000000E+00  0.00000000000E+00  0.10405361723E+03  0.10405361723E+03  0.00000000000E+00 0. -1.
         -1   -1    0    0    0  501 -0.00000000000E+00 -0.00000000000E+00 -0.47207495766E+03  0.47207495766E+03  0.00000000000E+00 0.  1.
         23    2    1    2    0    0 -0.45949883486E+01 -0.18206986327E+03 -0.10167647308E+03  0.24316862353E+03  0.12498930060E+03 0.  0.
          5    1    3    3  502    0 -0.10266131781E+02 -0.21233688505E+02 -0.76520378639E+02  0.80210481461E+02  0.47000000000E+01 0.  1.
         -5    1    3    3    0  502  0.56711434323E+01 -0.16083617476E+03 -0.25156094445E+02  0.16295814207E+03  0.47000000000E+01 0.  1.
        -11    1    1    2    0    0  0.29368943719E+02  0.11212069753E+03 -0.20971981708E+03  0.23961633364E+03  0.00000000000E+00 0.  1.
         11    1    1    2    0    0 -0.24773955370E+02  0.69949165738E+02 -0.56625050269E+02  0.93343617725E+02  0.00000000000E+00 0. -1.
<mgrwt>
<rscale>  0 0.21542009E+03</rscale>
<asrwt>0</asrwt>
<pdfrwt beam="1">  1        1 0.16008249E-01 0.22089109E+03</pdfrwt>
<pdfrwt beam="2">  1       -1 0.72626916E-01 0.22089109E+03</pdfrwt>
<totfact> 0.68047030E+02</totfact>
</mgrwt>
</event>
<event>
 7    1  0.5206756E-006  0.1499785E+03  0.7546771E-02  0.1209284E+00
         -1   -1    0    0    0  501 -0.00000000000E+00  0.00000000000E+00  0.43861866474E+03  0.43861866474E+03  0.00000000000E+00 0.  1.
          1   -1    0    0  501    0  0.00000000000E+00 -0.00000000000E+00 -0.42913096611E+02  0.42913096611E+02  0.00000000000E+00 0. -1.
         23    2    1    2    0    0  0.73397922087E+02  0.38550806814E+02  0.22746846409E+03  0.27246182974E+03  0.12498050581E+03 0.  0.
          5    1    3    3  502    0  0.94152134209E+02  0.13493177856E+01  0.97577811909E+02  0.13568332400E+03  0.47000000000E+01 0. -1.
         -5    1    3    3    0  502 -0.20754212122E+02  0.37201489029E+02  0.12989065218E+03  0.13677850574E+03  0.47000000000E+01 0. -1.
        -11    1    1    2    0    0 -0.88792424190E+02 -0.33482509475E+02  0.16789706655E+03  0.19285901065E+03  0.00000000000E+00 0.  1.
         11    1    1    2    0    0  0.15394502103E+02 -0.50682973394E+01  0.34003748761E+00  0.16210920961E+02  0.00000000000E+00 0. -1.
<mgrwt>
<rscale>  0 0.14304898E+03</rscale>
<asrwt>0</asrwt>
<pdfrwt beam="2">  1        1 0.66020152E-02 0.14997849E+03</pdfrwt>
<pdfrwt beam="1">  1       -1 0.67479792E-01 0.14997849E+03</pdfrwt>
<totfact> 0.25390385E+03</totfact>
</mgrwt>
</event>
<event>
 7    1  0.5206756E-006  0.1616886E+03  0.7546771E-02  0.1194342E+00
          1   -1    0    0  501    0  0.00000000000E+00  0.00000000000E+00  0.33607530610E+03  0.33607530610E+03  0.00000000000E+00 0. -1.
         -1   -1    0    0    0  501 -0.00000000000E+00 -0.00000000000E+00 -0.67954975215E+02  0.67954975215E+02  0.00000000000E+00 0.  1.
         23    2    1    2    0    0 -0.98736028137E+02 -0.27799870212E+02  0.11371357509E+03  0.19767142165E+03  0.12498631022E+03 0.  0.
          5    1    3    3  502    0 -0.72072675832E+02  0.26428014199E+02  0.11344783575E+03  0.13705988462E+03  0.47000000000E+01 0.  1.
         -5    1    3    3    0  502 -0.26663352304E+02 -0.54227884411E+02  0.26573933978E+00  0.60611537030E+02  0.47000000000E+01 0.  1.
        -11    1    1    2    0    0  0.19167534111E+02 -0.11438787859E+02 -0.59462497385E+01  0.23099742802E+02  0.00000000000E+00 0.  1.
         11    1    1    2    0    0  0.79568494026E+02  0.39238658072E+02  0.16035300553E+03  0.18325911686E+03  0.00000000000E+00 0. -1.
<mgrwt>
<rscale>  0 0.15510048E+03</rscale>
<asrwt>0</asrwt>
<pdfrwt beam="1">  1        1 0.51703892E-01 0.16168863E+03</pdfrwt>
<pdfrwt beam="2">  1       -1 0.10454612E-01 0.16168863E+03</pdfrwt>
<totfact> 0.41907564E+03</totfact>
</mgrwt>
</event>
<event>
 7    1  0.5206756E-006  0.1633001E+03  0.7546771E-02  0.1191913E+00
          1   -1    0    0  501    0  0.00000000000E+00  0.00000000000E+00  0.12449433003E+04  0.12449433003E+04  0.00000000000E+00 0. -1.
         -1   -1    0    0    0  501 -0.00000000000E+00 -0.00000000000E+00 -0.30254717473E+02  0.30254717473E+02  0.00000000000E+00 0.  1.
         23    2    1    2    0    0  0.88535987629E+02 -0.56601320738E+02  0.10324453857E+04  0.10452800625E+04  0.12499841600E+03 0.  0.
          5    1    3    3  502    0  0.10667076672E+02 -0.77598832097E+02  0.62465146076E+03  0.62956088085E+03  0.47000000000E+01 0.  1.
         -5    1    3    3    0  502  0.77868910957E+02  0.20997511360E+02  0.40779392490E+03  0.41571918161E+03  0.47000000000E+01 0.  1.
        -11    1    1    2    0    0 -0.10115145201E+03  0.44547412191E+02  0.11128226298E+03  0.15684333021E+03  0.00000000000E+00 0.  1.
         11    1    1    2    0    0  0.12615464382E+02  0.12053908546E+02  0.70960934235E+02  0.73074625147E+02  0.00000000000E+00 0. -1.
<mgrwt>
<rscale>  0 0.15718437E+03</rscale>
<asrwt>0</asrwt>
<pdfrwt beam="1">  1        1 0.19152970E+00 0.16330014E+03</pdfrwt>
<pdfrwt beam="2">  1       -1 0.46545729E-02 0.16330014E+03</pdfrwt>
<totfact> 0.20813575E+03</totfact>
</mgrwt>
</event>
<event>
 7    1  0.5206756E-006  0.1394058E+03  0.7546771E-02  0.1225481E+00
         -2   -1    0    0    0  501 -0.00000000000E+00  0.00000000000E+00  0.47801195681E+03  0.47801195681E+03  0.00000000000E+00 0. -1.
          2   -1    0    0  501    0  0.00000000000E+00 -0.00000000000E+00 -0.33234355460E+02  0.33234355460E+02  0.00000000000E+00 0.  1.
         23    2    1    2    0    0 -0.43964673747E+02 -0.43226033782E+02  0.28618735838E+03  0.31833503372E+03  0.12503042455E+03 0.  0.
          5    1    3    3  502    0  0.21315851902E+02 -0.39605886342E+02  0.22211730227E+03  0.22667416646E+03  0.47000000000E+01 0.  1.
         -5    1    3    3    0  502 -0.65280525648E+02 -0.36201474395E+01  0.64070056118E+02  0.91660867263E+02  0.47000000000E+01 0.  1.
        -11    1    1    2    0    0  0.68208122617E+02  0.33433843155E+02  0.81053803785E+02  0.11108505285E+03  0.00000000000E+00 0.  1.
         11    1    1    2    0    0 -0.24243448871E+02  0.97921906271E+01  0.77536439182E+02  0.81826225695E+02  0.00000000000E+00 0. -1.
<mgrwt>
<rscale>  0 0.13133990E+03</rscale>
<asrwt>0</asrwt>
<pdfrwt beam="2">  1        2 0.51129781E-02 0.13940584E+03</pdfrwt>
<pdfrwt beam="1">  1       -2 0.73540296E-01 0.13940584E+03</pdfrwt>
<totfact> 0.25109553E+03</totfact>
</mgrwt>
</event>
<event>
 7    1  0.5206756E-006  0.1273974E+03  0.7546771E-02  0.1246470E+00
         -1   -1    0    0    0  501 -0.00000000000E+00  0.00000000000E+00  0.39337540577E+03  0.39337540577E+03  0.00000000000E+00 0.  1.
          1   -1    0    0  501    0  0.00000000000E+00 -0.00000000000E+00 -0.66611210563E+02  0.66611210563E+02  0.00000000000E+00 0. -1.
         23    2    1    2    0    0 -0.30564512114E+02  0.16022392254E-01  0.79008691525E+01  0.12764216242E+03  0.12367662769E+03 0.  0.
          5    1    3    3  502    0 -0.62817150536E+02  0.27805958141E+02  0.34711102294E+02  0.77111064913E+02  0.47000000000E+01 0. -1.
         -5    1    3    3    0  502  0.32252638422E+02 -0.27789935749E+02 -0.26810233142E+02  0.50531097506E+02  0.47000000000E+01 0.  1.
        -11    1    1    2    0    0  0.36346374138E+02 -0.38681717840E+02  0.21233607301E+03  0.21886969208E+03  0.00000000000E+00 0.  1.
         11    1    1    2    0    0 -0.57818620236E+01  0.38665695448E+02  0.10652725304E+03  0.11347476184E+03  0.00000000000E+00 0. -1.
<mgrwt>
<rscale>  0 0.11797803E+03</rscale>
<asrwt>0</asrwt>
<pdfrwt beam="2">  1        1 0.10247879E-01 0.12739740E+03</pdfrwt>
<pdfrwt beam="1">  1       -1 0.60519292E-01 0.12739740E+03</pdfrwt>
<totfact> 0.17256215E+03</totfact>
</mgrwt>
</event>
<event>
 7    1  0.5206756E-006  0.2455191E+03  0.7546771E-02  0.1118807E+00
          2   -1    0    0  501    0  0.00000000000E+00  0.00000000000E+00  0.10981973513E+03  0.10981973513E+03  0.00000000000E+00 0. -1.
         -2   -1    0    0    0  501 -0.00000000000E+00 -0.00000000000E+00 -0.82891297141E+03  0.82891297141E+03  0.00000000000E+00 0.  1.
         23    2    1    2    0    0  0.19447708201E+03 -0.82663383589E+02 -0.77853166013E+02  0.25756693098E+03  0.12500015224E+03 0.  0.
          5    1    3    3  502    0  0.19093264134E+03 -0.33582751652E+02 -0.47832265432E+02  0.19973254706E+03  0.47000000000E+01 0.  1.
         -5    1    3    3    0  502  0.35444406682E+01 -0.49080631938E+02 -0.30020900582E+02  0.57834383915E+02  0.47000000000E+01 0.  1.
        -11    1    1    2    0    0 -0.17107527417E+03  0.97901679331E+02 -0.50522188088E+03  0.54231046197E+03  0.00000000000E+00 0.  1.
         11    1    1    2    0    0 -0.23401807845E+02 -0.15238295741E+02 -0.13601818939E+03  0.13885531359E+03  0.00000000000E+00 0. -1.
<mgrwt>
<rscale>  0 0.24148551E+03</rscale>
<asrwt>0</asrwt>
<pdfrwt beam="1">  1        2 0.16895343E-01 0.24551906E+03</pdfrwt>
<pdfrwt beam="2">  1       -2 0.12752508E+00 0.24551906E+03</pdfrwt>
<totfact> 0.16243530E+02</totfact>
</mgrwt>
</event>
<event>
 7    1  0.5206756E-006  0.2339494E+03  0.7546771E-02  0.1126785E+00
         -1   -1    0    0    0  501 -0.00000000000E+00  0.00000000000E+00  0.73658728954E+02  0.73658728954E+02  0.00000000000E+00 0.  1.
          1   -1    0    0  501    0  0.00000000000E+00 -0.00000000000E+00 -0.70533590263E+03  0.70533590263E+03  0.00000000000E+00 0. -1.
         23    2    1    2    0    0  0.87624058793E+02  0.17728957605E+03 -0.27451446279E+03  0.36068065361E+03  0.12499109629E+03 0.  0.
          5    1    3    3  502    0  0.88738268410E+02  0.17578675293E+03 -0.18248203264E+03  0.26850930155E+03  0.47000000000E+01 0.  1.
         -5    1    3    3    0  502 -0.11142096167E+01  0.15028231253E+01 -0.92032430152E+02  0.92171352057E+02  0.47000000000E+01 0.  1.
        -11    1    1    2    0    0 -0.19378631780E+01 -0.97989498049E+02 -0.12892247152E+03  0.16194659831E+03  0.00000000000E+00 0. -1.
         11    1    1    2    0    0 -0.85686195615E+02 -0.79300078002E+02 -0.22824023937E+03  0.25636737967E+03  0.00000000000E+00 0.  1.
<mgrwt>
<rscale>  0 0.22979379E+03</rscale>
<asrwt>0</asrwt>
<pdfrwt beam="2">  1        1 0.10851321E+00 0.23394945E+03</pdfrwt>
<pdfrwt beam="1">  1       -1 0.11332112E-01 0.23394945E+03</pdfrwt>
<totfact> 0.13965276E+03</totfact>
</mgrwt>
</event>
<event>
 7    1  0.5206756E-006  0.1303052E+03  0.7546771E-02  0.1240984E+00
         -1   -1    0    0    0  501 -0.00000000000E+00  0.00000000000E+00  0.18492913199E+02  0.18492913199E+02  0.00000000000E+00 0.  1.
          1   -1    0    0  501    0  0.00000000000E+00 -0.00000000000E+00 -0.73594163274E+03  0.73594163274E+03  0.00000000000E+00 0. -1.
         23    2    1    2    0    0 -0.26473064258E+02  0.24929449947E+02 -0.48598530073E+03  0.50315123114E+03  0.12512852699E+03 0.  0.
          5    1    3    3  502    0  0.82495003473E+01  0.68037098128E+02 -0.19094239642E+03  0.20292409845E+03  0.47000000000E+01 0.  1.
         -5    1    3    3    0  502 -0.34722564606E+02 -0.43107648181E+02 -0.29504290431E+03  0.30022713270E+03  0.47000000000E+01 0.  1.
        -11    1    1    2    0    0  0.50117734074E+02  0.14179009438E+02 -0.12014285436E+03  0.13094707721E+03  0.00000000000E+00 0. -1.
         11    1    1    2    0    0 -0.23644669816E+02 -0.39108459385E+02 -0.11132056446E+03  0.12033623759E+03  0.00000000000E+00 0.  1.
<mgrwt>
<rscale>  0 0.12128970E+03</rscale>
<asrwt>0</asrwt>
<pdfrwt beam="2">  1        1 0.11322180E+00 0.13030521E+03</pdfrwt>
<pdfrwt beam="1">  1       -1 0.28450634E-02 0.13030521E+03</pdfrwt>
<totfact> 0.10206770E+04</totfact>
</mgrwt>
</event>
<event>
 7    1  0.5206756E-006  0.1435061E+03  0.7546771E-02  0.1218556E+00
         -2   -1    0    0    0  501 -0.00000000000E+00  0.00000000000E+00  0.80287000690E+02  0.80287000690E+02  0.00000000000E+00 0.  1.
          2   -1    0    0  501    0  0.00000000000E+00 -0.00000000000E+00 -0.21127226839E+03  0.21127226839E+03  0.00000000000E+00 0. -1.
         23    2    1    2    0    0 -0.69827255944E+02  0.96110680216E+01 -0.82015625034E+02  0.16528934921E+03  0.12500315161E+03 0.  0.
          5    1    3    3  502    0 -0.17234030201E+02  0.64411053694E+02 -0.31067483914E+02  0.73709390119E+02  0.47000000000E+01 0.  1.
         -5    1    3    3    0  502 -0.52593225743E+02 -0.54799985672E+02 -0.50948141120E+02  0.91579959092E+02  0.47000000000E+01 0.  1.
        -11    1    1    2    0    0  0.84993296633E+02 -0.21059576183E+02 -0.17178399517E+02  0.89232637703E+02  0.00000000000E+00 0.  1.
         11    1    1    2    0    0 -0.15166040689E+02  0.11448508162E+02 -0.31791243151E+02  0.37037282168E+02  0.00000000000E+00 0. -1.
<mgrwt>
<rscale>  0 0.13618506E+03</rscale>
<asrwt>0</asrwt>
<pdfrwt beam="2">  1        2 0.32503426E-01 0.14350612E+03</pdfrwt>
<pdfrwt beam="1">  1       -2 0.12351846E-01 0.14350612E+03</pdfrwt>
<totfact> 0.72135125E+03</totfact>
</mgrwt>
</event>
<event>
 7    1  0.5206756E-006  0.1254300E+03  0.7546771E-02  0.1246972E+00
         -1   -1    0    0    0  501 -0.00000000000E+00  0.00000000000E+00  0.53188835205E+02  0.53188835205E+02  0.00000000000E+00 0.  1.
          1   -1    0    0  501    0  0.00000000000E+00 -0.00000000000E+00 -0.23617249738E+03  0.23617249738E+03  0.00000000000E+00 0. -1.
         23    2    1    2    0    0  0.32376093410E+01  0.98489699942E+01 -0.11971526138E+03  0.17339095097E+03  0.12500077498E+03 0.  0.
          5    1    3    3  502    0 -0.34128448849E+02  0.43292863284E+02 -0.15207291941E+02  0.57379218889E+02  0.47000000000E+01 0.  1.
         -5    1    3    3    0  502  0.37366058190E+02 -0.33443893290E+02 -0.10450796944E+03  0.11601173208E+03  0.47000000000E+01 0.  1.
        -11    1    1    2    0    0 -0.37275689699E+02  0.24651865275E+02 -0.13931861417E+02  0.46811198090E+02  0.00000000000E+00 0.  1.
         11    1    1    2    0    0  0.34038080358E+02 -0.34500835269E+02 -0.49336539377E+02  0.69159183529E+02  0.00000000000E+00 0. -1.
<mgrwt>
<rscale>  0 0.11768154E+03</rscale>
<asrwt>0</asrwt>
<pdfrwt beam="2">  1        1 0.36334229E-01 0.12542997E+03</pdfrwt>
<pdfrwt beam="1">  1       -1 0.81828979E-02 0.12542997E+03</pdfrwt>
<totfact> 0.92726615E+03</totfact>
</mgrwt>
</event>
<event>
 7    1  0.5206756E-006  0.3990189E+03  0.7546771E-02  0.1045436E+00
          1   -1    0    0  501    0  0.00000000000E+00  0.00000000000E+00  0.28752508777E+03  0.28752508777E+03  0.00000000000E+00 0. -1.
         -1   -1    0    0    0  501 -0.00000000000E+00 -0.00000000000E+00 -0.60211580225E+03  0.60211580225E+03  0.00000000000E+00 0.  1.
         23    2    1    2    0    0 -0.22919962105E+03 -0.28182762666E+03 -0.43257119337E+01  0.38419013989E+03  0.12499629739E+03 0.  0.
          5    1    3    3  502    0 -0.18334218109E+03 -0.28307353160E+03  0.40663416861E+01  0.33731825446E+03  0.47000000000E+01 0.  1.
         -5    1    3    3    0  502 -0.45857439964E+02  0.12459049381E+01 -0.83920536197E+01  0.46871885423E+02  0.47000000000E+01 0.  1.
        -11    1    1    2    0    0  0.16990580095E+03  0.88564726330E+02 -0.19197712129E+03  0.27123220134E+03  0.00000000000E+00 0.  1.
         11    1    1    2    0    0  0.59293820102E+02  0.19326290033E+03 -0.11828788126E+03  0.23421854879E+03  0.00000000000E+00 0. -1.
<mgrwt>
<rscale>  0 0.39525264E+03</rscale>
<asrwt>0</asrwt>
<pdfrwt beam="1">  1        1 0.44234630E-01 0.39901891E+03</pdfrwt>
<pdfrwt beam="2">  1       -1 0.92633199E-01 0.39901891E+03</pdfrwt>
<totfact> 0.10965305E+02</totfact>
</mgrwt>
</event>
<event>
 7    1  0.5206756E-006  0.1312798E+03  0.7546771E-02  0.1239830E+00
         -1   -1    0    0    0  501 -0.00000000000E+00  0.00000000000E+00  0.47374300852E+02  0.47374300852E+02  0.00000000000E+00 0.  1.
          1   -1    0    0  501    0  0.00000000000E+00 -0.00000000000E+00 -0.28424631610E+03  0.28424631610E+03  0.00000000000E+00 0. -1.
         23    2    1    2    0    0 -0.24319779744E+02 -0.28396828566E+02 -0.16103471790E+03  0.20776562670E+03  0.12584333002E+03 0.  0.
          5    1    3    3  502    0 -0.75212161890E+02 -0.78658591670E+01 -0.84840558413E+02  0.11374863247E+03  0.47000000000E+01 0. -1.
         -5    1    3    3    0  502  0.50892382146E+02 -0.20530969399E+02 -0.76194159483E+02  0.94016994232E+02  0.47000000000E+01 0. -1.
        -11    1    1    2    0    0  0.50347295948E+02 -0.94919255777E+01 -0.47432019589E+02  0.69819362234E+02  0.00000000000E+00 0.  1.
         11    1    1    2    0    0 -0.26027516204E+02  0.37888754144E+02 -0.28405277758E+02  0.54035628013E+02  0.00000000000E+00 0. -1.
<mgrwt>
<rscale>  0 0.12200248E+03</rscale>
<asrwt>0</asrwt>
<pdfrwt beam="2">  1        1 0.43730202E-01 0.13127976E+03</pdfrwt>
<pdfrwt beam="1">  1       -1 0.72883541E-02 0.13127976E+03</pdfrwt>
<totfact> 0.88112549E+03</totfact>
</mgrwt>
</event>
<event>
 7    1  0.5206756E-006  0.1604096E+03  0.7546771E-02  0.1196341E+00
         -2   -1    0    0    0  501 -0.00000000000E+00  0.00000000000E+00  0.16620723996E+03  0.16620723996E+03  0.00000000000E+00 0. -1.
          2   -1    0    0  501    0  0.00000000000E+00 -0.00000000000E+00 -0.14739823848E+03  0.14739823848E+03  0.00000000000E+00 0.  1.
         23    2    1    2    0    0 -0.84964991516E+02 -0.53610939309E+02 -0.42676069288E+02  0.16598943053E+03  0.12505223533E+03 0.  0.
          5    1    3    3  502    0  0.28728019870E+02 -0.23790698837E+00 -0.26317813289E+02  0.39243764113E+02  0.47000000000E+01 0. -1.
         -5    1    3    3    0  502 -0.11369301139E+03 -0.53373032320E+02 -0.16358255999E+02  0.12674566642E+03  0.47000000000E+01 0. -1.
        -11    1    1    2    0    0  0.53991322275E+02  0.21010805796E+02 -0.14135827086E+02  0.59635043797E+02  0.00000000000E+00 0.  1.
         11    1    1    2    0    0  0.30973669241E+02  0.32600133513E+02  0.75620897860E+02  0.87981004111E+02  0.00000000000E+00 0. -1.
<mgrwt>
<rscale>  0 0.15341303E+03</rscale>
<asrwt>0</asrwt>
<pdfrwt beam="2">  1        2 0.22676652E-01 0.16040961E+03</pdfrwt>
<pdfrwt beam="1">  1       -2 0.25570345E-01 0.16040961E+03</pdfrwt>
<totfact> 0.31885123E+03</totfact>
</mgrwt>
</event>
<event>
 7    1  0.5206756E-006  0.2224578E+03  0.7546771E-02  0.1135461E+00
          2   -1    0    0  501    0  0.00000000000E+00  0.00000000000E+00  0.98251218649E+03  0.98251218649E+03  0.00000000000E+00 0. -1.
         -2   -1    0    0    0  501 -0.00000000000E+00 -0.00000000000E+00 -0.54753503940E+02  0.54753503940E+02  0.00000000000E+00 0.  1.
         23    2    1    2    0    0  0.16395345850E+03 -0.83570370192E+02  0.68208892709E+03  0.71744880937E+03  0.12499098480E+03 0.  0.
          5    1    3    3  502    0  0.12012012171E+03 -0.50396447599E+02  0.25085099440E+03  0.28269587362E+03  0.47000000000E+01 0.  1.
         -5    1    3    3    0  502  0.43833336791E+02 -0.33173922593E+02  0.43123793269E+03  0.43475293575E+03  0.47000000000E+01 0.  1.
        -11    1    1    2    0    0  0.26964979663E+00 -0.13769809365E+02  0.18999368813E+02  0.23466068615E+02  0.00000000000E+00 0. -1.
         11    1    1    2    0    0 -0.16422310829E+03  0.97340179557E+02  0.22667038665E+03  0.29635081244E+03  0.00000000000E+00 0.  1.
<mgrwt>
<rscale>  0 0.21789656E+03</rscale>
<asrwt>0</asrwt>
<pdfrwt beam="1">  1        2 0.15115571E+00 0.22245784E+03</pdfrwt>
<pdfrwt beam="2">  1       -2 0.84236167E-02 0.22245784E+03</pdfrwt>
<totfact> 0.23389867E+03</totfact>
</mgrwt>
</event>
<event>
 7    1  0.5206756E-006  0.1713492E+03  0.7546771E-02  0.1183299E+00
         -3   -1    0    0    0  501 -0.00000000000E+00  0.00000000000E+00  0.88196589771E+02  0.88196589771E+02  0.00000000000E+00 0.  1.
          3   -1    0    0  501    0  0.00000000000E+00 -0.00000000000E+00 -0.36859072565E+03  0.36859072565E+03  0.00000000000E+00 0. -1.
         23    2    1    2    0    0 -0.64088501987E+02 -0.98110309357E+02 -0.25575410019E+03  0.30784850986E+03  0.12501030505E+03 0.  0.
          5    1    3    3  502    0 -0.51662708482E+02 -0.11605808577E+03 -0.13652611931E+03  0.18654754346E+03  0.47000000000E+01 0. -1.
         -5    1    3    3    0  502 -0.12425793506E+02  0.17947776410E+02 -0.11922798088E+03  0.12130096639E+03  0.47000000000E+01 0. -1.
        -11    1    1    2    0    0  0.31673157149E+02  0.48565092159E+02  0.32658566302E+02  0.66545766305E+02  0.00000000000E+00 0.  1.
         11    1    1    2    0    0  0.32415344838E+02  0.49545217198E+02 -0.57298601993E+02  0.82393039260E+02  0.00000000000E+00 0. -1.
<mgrwt>
<rscale>  0 0.16487583E+03</rscale>
<asrwt>0</asrwt>
<pdfrwt beam="2">  1        3 0.56706266E-01 0.17134919E+03</pdfrwt>
<pdfrwt beam="1">  1       -3 0.13568706E-01 0.17134919E+03</pdfrwt>
<totfact> 0.32725199E+02</totfact>
</mgrwt>
</event>
<event>
 7    1  0.5206756E-006  0.1452153E+03  0.7546771E-02  0.1216401E+00
         -1   -1    0    0    0  501 -0.00000000000E+00  0.00000000000E+00  0.39325102405E+03  0.39325102405E+03  0.00000000000E+00 0.  1.
          1   -1    0    0  501    0  0.00000000000E+00 -0.00000000000E+00 -0.45996998604E+02  0.45996998604E+02  0.00000000000E+00 0. -1.
         23    2    1    2    0    0 -0.72757052588E+02  0.12977862598E+02  0.14435687558E+03  0.20475933152E+03  0.12500185078E+03 0.  0.
          5    1    3    3  502    0 -0.89607881450E+02 -0.21341924347E+02  0.54839957266E+02  0.10730592279E+03  0.47000000000E+01 0. -1.
         -5    1    3    3    0  502  0.16850828862E+02  0.34319786945E+02  0.89516918312E+02  0.97453408731E+02  0.47000000000E+01 0. -1.
        -11    1    1    2    0    0  0.51812951506E+02  0.21462673968E+02  0.46113768343E+02  0.72606528277E+02  0.00000000000E+00 0. -1.
         11    1    1    2    0    0  0.20944101082E+02 -0.34440536566E+02  0.15678338153E+03  0.16188216286E+03  0.00000000000E+00 0.  1.
<mgrwt>
<rscale>  0 0.13774114E+03</rscale>
<asrwt>0</asrwt>
<pdfrwt beam="2">  1        1 0.70764616E-02 0.14521528E+03</pdfrwt>
<pdfrwt beam="1">  1       -1 0.60500155E-01 0.14521528E+03</pdfrwt>
<totfact> 0.28496353E+03</totfact>
</mgrwt>
</event>
<event>
 7    1  0.5206756E-006  0.1306249E+03  0.7546771E-02  0.1239471E+00
          1   -1    0    0  501    0  0.00000000000E+00  0.00000000000E+00  0.39744918045E+03  0.39744918045E+03  0.00000000000E+00 0. -1.
         -1   -1    0    0    0  501 -0.00000000000E+00 -0.00000000000E+00 -0.34517928724E+02  0.34517928724E+02  0.00000000000E+00 0.  1.
         23    2    1    2    0    0  0.30513395160E+02 -0.22491795268E+02  0.16783794146E+03  0.21267922046E+03  0.12500371228E+03 0.  0.
          5    1    3    3  502    0  0.28395058440E+02 -0.73714739936E+02  0.10290009039E+03  0.12981009525E+03  0.47000000000E+01 0. -1.
         -5    1    3    3    0  502  0.21183367198E+01  0.51222944667E+02  0.64937851076E+02  0.82869125211E+02  0.47000000000E+01 0. -1.
        -11    1    1    2    0    0  0.57180582806E+00  0.50430208705E+02  0.14782600355E+03  0.15619238213E+03  0.00000000000E+00 0. -1.
         11    1    1    2    0    0 -0.31085200988E+02 -0.27938413437E+02  0.47267306713E+02  0.63095506574E+02  0.00000000000E+00 0.  1.
<mgrwt>
<rscale>  0 0.12222480E+03</rscale>
<asrwt>0</asrwt>
<pdfrwt beam="1">  1        1 0.61146024E-01 0.13062494E+03</pdfrwt>
<pdfrwt beam="2">  1       -1 0.53104509E-02 0.13062494E+03</pdfrwt>
<totfact> 0.93052381E+03</totfact>
</mgrwt>
</event>
<event>
 7    1  0.5206756E-006  0.1615430E+03  0.7546771E-02  0.1193635E+00
          1   -1    0    0  501    0  0.00000000000E+00  0.00000000000E+00  0.26337247277E+03  0.26337247277E+03  0.00000000000E+00 0. -1.
         -1   -1    0    0    0  501 -0.00000000000E+00 -0.00000000000E+00 -0.15631502264E+03  0.15631502264E+03  0.00000000000E+00 0.  1.
         23    2    1    2    0    0 -0.98186666758E+02  0.28900446077E+02  0.19624379006E+03  0.25418058753E+03  0.12498115310E+03 0.  0.
          5    1    3    3  502    0 -0.12296462542E+03  0.34855823504E+02  0.12696905427E+03  0.18021780788E+03  0.47000000000E+01 0. -1.
         -5    1    3    3    0  502  0.24777958657E+02 -0.59553774264E+01  0.69274735783E+02  0.73962779648E+02  0.47000000000E+01 0. -1.
        -11    1    1    2    0    0  0.20126253186E+02 -0.23484933201E+02 -0.81153580270E+02  0.86847635232E+02  0.00000000000E+00 0.  1.
         11    1    1    2    0    0  0.78060413572E+02 -0.54155128762E+01 -0.80327596570E+01  0.78659272654E+02  0.00000000000E+00 0. -1.
<mgrwt>
<rscale>  0 0.15570355E+03</rscale>
<asrwt>0</asrwt>
<pdfrwt beam="1">  1        1 0.40518842E-01 0.16154302E+03</pdfrwt>
<pdfrwt beam="2">  1       -1 0.24048465E-01 0.16154302E+03</pdfrwt>
<totfact> 0.15175595E+03</totfact>
</mgrwt>
</event>
<event>
 7    1  0.5206756E-006  0.1490084E+03  0.7546771E-02  0.1214370E+00
         -1   -1    0    0    0  501 -0.00000000000E+00  0.00000000000E+00  0.26974170215E+03  0.26974170215E+03  0.00000000000E+00 0.  1.
          1   -1    0    0  501    0  0.00000000000E+00 -0.00000000000E+00 -0.82548084295E+02  0.82548084295E+02  0.00000000000E+00 0. -1.
         23    2    1    2    0    0  0.80425432782E+02  0.68098697966E+01  0.20255464678E+02  0.15037884651E+03  0.12525529555E+03 0.  0.
          5    1    3    3  502    0 -0.31977438954E+02  0.29669416922E+01 -0.97352683611E+01  0.33885465839E+02  0.47000000000E+01 0. -1.
         -5    1    3    3    0  502  0.11240287174E+03  0.38429281044E+01  0.29990733039E+02  0.11649338067E+03  0.47000000000E+01 0.  1.
        -11    1    1    2    0    0 -0.64837491826E+02  0.10960594389E+02  0.16566487776E+03  0.17823828629E+03  0.00000000000E+00 0.  1.
         11    1    1    2    0    0 -0.15587940956E+02 -0.17770464186E+02  0.12732754173E+01  0.23672653652E+02  0.00000000000E+00 0. -1.
<mgrwt>
<rscale>  0 0.13922926E+03</rscale>
<asrwt>0</asrwt>
<pdfrwt beam="2">  1        1 0.12699705E-01 0.14900843E+03</pdfrwt>
<pdfrwt beam="1">  1       -1 0.41498723E-01 0.14900843E+03</pdfrwt>
<totfact> 0.26120433E+03</totfact>
</mgrwt>
</event>
<event>
 7    1  0.5206756E-006  0.1255545E+03  0.7546771E-02  0.1248444E+00
          2   -1    0    0  501    0  0.00000000000E+00  0.00000000000E+00  0.15252260304E+04  0.15252260304E+04  0.00000000000E+00 0. -1.
         -2   -1    0    0    0  501 -0.00000000000E+00 -0.00000000000E+00 -0.97041196132E+01  0.97041196132E+01  0.00000000000E+00 0.  1.
         23    2    1    2    0    0  0.91164319103E+01 -0.75053097159E+01  0.11737119676E+04  0.11804082814E+04  0.12499795603E+03 0.  0.
          5    1    3    3  502    0  0.13721432320E+01  0.29130481270E+02  0.69064345230E+02  0.75116186659E+02  0.47000000000E+01 0.  1.
         -5    1    3    3    0  502  0.77442886783E+01 -0.36635790986E+02  0.11046476224E+04  0.11052920948E+04  0.47000000000E+01 0.  1.
        -11    1    1    2    0    0 -0.46671110614E+02  0.16932703636E+02  0.12911843049E+03  0.13833465983E+03  0.00000000000E+00 0.  1.
         11    1    1    2    0    0  0.37554678704E+02 -0.94273939196E+01  0.21269151270E+03  0.21618720874E+03  0.00000000000E+00 0. -1.
<mgrwt>
<rscale>  0 0.11681608E+03</rscale>
<asrwt>0</asrwt>
<pdfrwt beam="1">  1        2 0.23464997E+00 0.12555448E+03</pdfrwt>
<pdfrwt beam="2">  1       -2 0.14929427E-02 0.12555448E+03</pdfrwt>
<totfact> 0.15162230E+04</totfact>
</mgrwt>
</event>
<event>
 7    1  0.5206756E-006  0.1354161E+03  0.7546771E-02  0.1231622E+00
         -1   -1    0    0    0  501 -0.00000000000E+00  0.00000000000E+00  0.20878002703E+02  0.20878002703E+02  0.00000000000E+00 0.  1.
          1   -1    0    0  501    0  0.00000000000E+00 -0.00000000000E+00 -0.73738686798E+03  0.73738686798E+03  0.00000000000E+00 0. -1.
         23    2    1    2    0    0  0.49289112864E+02 -0.16937114659E+02 -0.49021822538E+03  0.50857784990E+03  0.12498495275E+03 0.  0.
          5    1    3    3  502    0  0.14044327538E+02  0.30743565022E+02 -0.39389578283E+03  0.39537120236E+03  0.47000000000E+01 0.  1.
         -5    1    3    3    0  502  0.35244785326E+02 -0.47680679681E+02 -0.96322442546E+02  0.11320664753E+03  0.47000000000E+01 0.  1.
        -11    1    1    2    0    0  0.11946858082E+02 -0.15453276493E+01  0.23449082070E+01  0.12272491600E+02  0.00000000000E+00 0.  1.
         11    1    1    2    0    0 -0.61235970946E+02  0.18482442309E+02 -0.22863554811E+03  0.23741452919E+03  0.00000000000E+00 0. -1.
<mgrwt>
<rscale>  0 0.12723150E+03</rscale>
<asrwt>0</asrwt>
<pdfrwt beam="2">  1        1 0.11344414E+00 0.13541610E+03</pdfrwt>
<pdfrwt beam="1">  1       -1 0.32120001E-02 0.13541610E+03</pdfrwt>
<totfact> 0.85507445E+03</totfact>
</mgrwt>
</event>
<event>
 7    1  0.5206756E-006  0.1272470E+03  0.7546771E-02  0.1244511E+00
          2   -1    0    0  501    0  0.00000000000E+00  0.00000000000E+00  0.56061298527E+03  0.56061298527E+03  0.00000000000E+00 0. -1.
         -2   -1    0    0    0  501 -0.00000000000E+00 -0.00000000000E+00 -0.23859568824E+02  0.23859568824E+02  0.00000000000E+00 0.  1.
         23    2    1    2    0    0 -0.72808585068E+01 -0.33775251781E+02  0.36854136943E+03  0.38989040678E+03  0.12246636187E+03 0.  0.
          5    1    3    3  502    0  0.34850883711E+02  0.18738513533E+01  0.29861456234E+03  0.30068395743E+03  0.47000000000E+01 0. -1.
         -5    1    3    3    0  502 -0.42131742218E+02 -0.35649103134E+02  0.69926807083E+02  0.89206449348E+02  0.47000000000E+01 0.  1.
        -11    1    1    2    0    0 -0.28586082617E+02  0.50651937239E+02  0.10138484697E+03  0.11688314704E+03  0.00000000000E+00 0. -1.
         11    1    1    2    0    0  0.35866941123E+02 -0.16876685459E+02  0.66827200042E+02  0.77699000271E+02  0.00000000000E+00 0.  1.
<mgrwt>
<rscale>  0 0.11914671E+03</rscale>
<asrwt>0</asrwt>
<pdfrwt beam="1">  1        2 0.86248141E-01 0.12724696E+03</pdfrwt>
<pdfrwt beam="2">  1       -2 0.36707033E-02 0.12724696E+03</pdfrwt>
<totfact> 0.16081394E+04</totfact>
</mgrwt>
</event>
<event>
 7    1  0.5206756E-006  0.1879918E+03  0.7546771E-02  0.1165416E+00
         -1   -1    0    0    0  501 -0.00000000000E+00  0.00000000000E+00  0.37830322985E+02  0.37830322985E+02  0.00000000000E+00 0.  1.
          1   -1    0    0  501    0  0.00000000000E+00 -0.00000000000E+00 -0.11489923025E+04  0.11489923025E+04  0.00000000000E+00 0. -1.
         23    2    1    2    0    0 -0.18092611273E+01  0.14043840112E+03 -0.89053684121E+03  0.91016304610E+03  0.12495874121E+03 0.  0.
          5    1    3    3  502    0 -0.42946787523E+01  0.15238116946E+03 -0.59167518376E+03  0.61101561204E+03  0.47000000000E+01 0.  1.
         -5    1    3    3    0  502  0.24854176250E+01 -0.11942768341E+02 -0.29886165745E+03  0.29914743406E+03  0.47000000000E+01 0.  1.
        -11    1    1    2    0    0  0.45944465312E+02 -0.75577047102E+02 -0.11947104461E+03  0.14864761835E+03  0.00000000000E+00 0. -1.
         11    1    1    2    0    0 -0.44135204185E+02 -0.64861354018E+02 -0.10115409366E+03  0.12801196100E+03  0.00000000000E+00 0.  1.
<mgrwt>
<rscale>  0 0.18248898E+03</rscale>
<asrwt>0</asrwt>
<pdfrwt beam="2">  1        1 0.17676804E+00 0.18799177E+03</pdfrwt>
<pdfrwt beam="1">  1       -1 0.58200499E-02 0.18799177E+03</pdfrwt>
<totfact> 0.17393761E+03</totfact>
</mgrwt>
</event>
<event>
 7    1  0.5206756E-006  0.1524410E+03  0.7546771E-02  0.1207345E+00
          3   -1    0    0  501    0  0.00000000000E+00  0.00000000000E+00  0.64544765371E+02  0.64544765371E+02  0.00000000000E+00 0. -1.
         -3   -1    0    0    0  501 -0.00000000000E+00 -0.00000000000E+00 -0.33126880015E+03  0.33126880015E+03  0.00000000000E+00 0.  1.
         23    2    1    2    0    0 -0.84445341734E+02 -0.22078988869E+02 -0.80157303732E+02  0.17223085288E+03  0.12497910167E+03 0.  0.
          5    1    3    3  502    0 -0.72410942051E+02  0.11688178972E+02 -0.10514131932E+03  0.12828384577E+03  0.47000000000E+01 0. -1.
         -5    1    3    3    0  502 -0.12034399684E+02 -0.33767167841E+02  0.24984015586E+02  0.43947007117E+02  0.47000000000E+01 0. -1.
        -11    1    1    2    0    0  0.35276200406E+01  0.35608202205E+02 -0.90111249642E+02  0.96955791366E+02  0.00000000000E+00 0.  1.
         11    1    1    2    0    0  0.80917721694E+02 -0.13529213336E+02 -0.96455481400E+02  0.12662692127E+03  0.00000000000E+00 0. -1.
<mgrwt>
<rscale>  0 0.14454160E+03</rscale>
<asrwt>0</asrwt>
<pdfrwt beam="1">  1        3 0.99299640E-02 0.15244105E+03</pdfrwt>
<pdfrwt beam="2">  1       -3 0.50964430E-01 0.15244105E+03</pdfrwt>
<totfact> 0.67535937E+02</totfact>
</mgrwt>
</event>
<event>
 6    1  0.5206756E-006  0.1694361E+03  0.7546771E-02  0.1189752E+00
          2   -1    0    0  501    0  0.00000000000E+00  0.00000000000E+00  0.18256083120E+03  0.18256083120E+03  0.00000000000E+00 0. -1.
         -2   -1    0    0    0  501 -0.00000000000E+00 -0.00000000000E+00 -0.12884281351E+03  0.12884281351E+03  0.00000000000E+00 0.  1.
          5    1    1    2  502    0  0.29948537415E+02 -0.14460240980E+02  0.82716108654E+02  0.89275181844E+02  0.47000000000E+01 0. -1.
         -5    1    1    2    0  502 -0.38052252102E+02 -0.78532188517E+02 -0.23013997663E+02  0.90371525448E+02  0.47000000000E+01 0.  1.
        -11    1    1    2    0    0 -0.89155512667E+01 -0.86015159608E+01 -0.24164700476E+02  0.27155218289E+02  0.00000000000E+00 0. -1.
         11    1    1    2    0    0  0.17019265953E+02  0.10159394546E+03  0.18180607177E+02  0.10460171913E+03  0.00000000000E+00 0.  1.
<mgrwt>
<rscale>  0 0.15906908E+03</rscale>
<asrwt>0</asrwt>
<pdfrwt beam="1">  1        2 0.28086282E-01 0.16943612E+03</pdfrwt>
<pdfrwt beam="2">  1       -2 0.19821971E-01 0.16943612E+03</pdfrwt>
<totfact> 0.39159893E+03</totfact>
</mgrwt>
</event>
<event>
 7    1  0.5206756E-006  0.1472785E+03  0.7546771E-02  0.1215491E+00
          2   -1    0    0  501    0  0.00000000000E+00  0.00000000000E+00  0.16229910315E+04  0.16229910315E+04  0.00000000000E+00 0. -1.
         -2   -1    0    0    0  501 -0.00000000000E+00 -0.00000000000E+00 -0.11934093604E+03  0.11934093604E+03  0.00000000000E+00 0.  1.
         23    2    1    2    0    0 -0.32715458630E+02  0.66280434629E+02  0.15911395150E+04  0.15979411438E+04  0.12738738429E+03 0.  0.
          5    1    3    3  502    0  0.22700670435E+01  0.87392094688E+02  0.13834851232E+04  0.13862523967E+04  0.47000000000E+01 0. -1.
         -5    1    3    3    0  502 -0.34985525673E+02 -0.21111660059E+02  0.20765439182E+03  0.21168874708E+03  0.47000000000E+01 0.  1.
        -11    1    1    2    0    0  0.19161862014E+02 -0.68199274732E+02 -0.10216493164E+03  0.12432212710E+03  0.00000000000E+00 0.  1.
         11    1    1    2    0    0  0.13553596616E+02  0.19188401029E+01  0.14675512096E+02  0.20068696615E+02  0.00000000000E+00 0. -1.
<mgrwt>
<rscale>  0 0.13840531E+03</rscale>
<asrwt>0</asrwt>
<pdfrwt beam="1">  1        2 0.24969091E+00 0.14727845E+03</pdfrwt>
<pdfrwt beam="2">  1       -2 0.18360145E-01 0.14727845E+03</pdfrwt>
<totfact> 0.29625352E+02</totfact>
</mgrwt>
</event>
<event>
 7    1  0.8314295E-006  0.1941411E+03  0.7546771E-02  0.1159505E+00
          1   -1    0    0  501    0  0.00000000000E+00  0.00000000000E+00  0.23393987535E+03  0.23393987535E+03  0.00000000000E+00 0.  1.
         -1   -1    0    0    0  501 -0.00000000000E+00 -0.00000000000E+00 -0.14710877880E+03  0.14710877880E+03  0.00000000000E+00 0. -1.
         23    2    1    2    0    0 -0.49256463039E+02  0.14014182691E+03  0.70183667860E+02  0.20643769668E+03  0.12499937830E+03 0.  0.
          5    1    3    3  502    0 -0.68242062596E+02  0.13870731207E+03  0.89685915794E+02  0.17878017514E+03  0.47000000000E+01 0. -1.
         -5    1    3    3    0  502  0.18985599557E+02  0.14345148377E+01 -0.19502247935E+02  0.27657521542E+02  0.47000000000E+01 0. -1.
        -11    1    1    2    0    0  0.21421279130E+02 -0.64509367550E+02 -0.37391439018E+02  0.77578665966E+02  0.00000000000E+00 0. -1.
         11    1    1    2    0    0  0.27835183909E+02 -0.75632459361E+02  0.54038867707E+02  0.97032291508E+02  0.00000000000E+00 0.  1.
<mgrwt>
<rscale>  0 0.18884710E+03</rscale>
<asrwt>0</asrwt>
<pdfrwt beam="1">  1        1 0.35990750E-01 0.19414112E+03</pdfrwt>
<pdfrwt beam="2">  1       -1 0.22632120E-01 0.19414112E+03</pdfrwt>
<totfact> 0.19531549E+03</totfact>
</mgrwt>
</event>
<event>
 7    1  0.5206756E-006  0.1520262E+03  0.7546771E-02  0.1206880E+00
          1   -1    0    0  501    0  0.00000000000E+00  0.00000000000E+00  0.27208903447E+03  0.27208903447E+03  0.00000000000E+00 0. -1.
         -1   -1    0    0    0  501 -0.00000000000E+00 -0.00000000000E+00 -0.12037681021E+03  0.12037681021E+03  0.00000000000E+00 0.  1.
         23    2    1    2    0    0 -0.19475475854E+02 -0.84306035054E+02  0.20577367739E+03  0.25584129632E+03  0.12500064356E+03 0.  0.
          5    1    3    3  502    0  0.40251388665E+02 -0.38726012492E+02  0.27730355032E+02  0.62537516126E+02  0.47000000000E+01 0.  1.
         -5    1    3    3    0  502 -0.59726864519E+02 -0.45580022562E+02  0.17804332236E+03  0.19330378020E+03  0.47000000000E+01 0.  1.
        -11    1    1    2    0    0  0.53368679998E+02  0.48068979027E+02 -0.48566807502E+02  0.86703964963E+02  0.00000000000E+00 0.  1.
         11    1    1    2    0    0 -0.33893204144E+02  0.36237056026E+02 -0.54946456262E+01  0.49920583402E+02  0.00000000000E+00 0. -1.
<mgrwt>
<rscale>  0 0.14490284E+03</rscale>
<asrwt>0</asrwt>
<pdfrwt beam="1">  1        1 0.41859851E-01 0.15202619E+03</pdfrwt>
<pdfrwt beam="2">  1       -1 0.18519509E-01 0.15202619E+03</pdfrwt>
<totfact> 0.22212761E+03</totfact>
</mgrwt>
</event>
<event>
 7    1  0.5206756E-006  0.1540916E+03  0.7546771E-02  0.1204427E+00
         -2   -1    0    0    0  501 -0.00000000000E+00  0.00000000000E+00  0.92351775609E+02  0.92351775609E+02  0.00000000000E+00 0. -1.
          2   -1    0    0  501    0  0.00000000000E+00 -0.00000000000E+00 -0.39317327077E+03  0.39317327077E+03  0.00000000000E+00 0.  1.
         23    2    1    2    0    0 -0.12110358347E+02  0.89290338673E+02 -0.32178979614E+03  0.35678127971E+03  0.12499913315E+03 0.  0.
          5    1    3    3  502    0  0.10196270978E+01 -0.37610707057E+00  0.10909564719E+02  0.11928524565E+02  0.47000000000E+01 0.  1.
         -5    1    3    3    0  502 -0.13129985444E+02  0.89666445744E+02 -0.33269936086E+03  0.34485275514E+03  0.47000000000E+01 0.  1.
        -11    1    1    2    0    0 -0.15593821033E+02 -0.67049442060E+01  0.36507102030E+02  0.40260303400E+02  0.00000000000E+00 0. -1.
         11    1    1    2    0    0  0.27704179379E+02 -0.82585394467E+02 -0.15538801047E+02  0.88483463271E+02  0.00000000000E+00 0.  1.
<mgrwt>
<rscale>  0 0.14682710E+03</rscale>
<asrwt>0</asrwt>
<pdfrwt beam="2">  1        2 0.60488195E-01 0.15409156E+03</pdfrwt>
<pdfrwt beam="1">  1       -2 0.14207966E-01 0.15409156E+03</pdfrwt>
<totfact> 0.29760953E+03</totfact>
</mgrwt>
</event>
<event>
 7    1  0.5206756E-006  0.2063758E+03  0.7546771E-02  0.1147603E+00
          2   -1    0    0  501    0  0.00000000000E+00  0.00000000000E+00  0.14206336103E+04  0.14206336103E+04  0.00000000000E+00 0.  1.
         -2   -1    0    0    0  501 -0.00000000000E+00 -0.00000000000E+00 -0.31680217072E+02  0.31680217072E+02  0.00000000000E+00 0. -1.
         23    2    1    2    0    0 -0.16224125274E+03 -0.25525010761E+02  0.96935191492E+03  0.99107725018E+03  0.12496891847E+03 0.  0.
          5    1    3    3  502    0 -0.45665799902E+01  0.35702324463E+02  0.13913790472E+03  0.14379484050E+03  0.47000000000E+01 0. -1.
         -5    1    3    3    0  502 -0.15767467275E+03 -0.61227335224E+02  0.83021401020E+03  0.84728240968E+03  0.47000000000E+01 0. -1.
        -11    1    1    2    0    0  0.13699537970E+03  0.30539601390E+02  0.41066764048E+03  0.43399114305E+03  0.00000000000E+00 0.  1.
         11    1    1    2    0    0  0.25245873042E+02 -0.50145906289E+01  0.89338378665E+01  0.27245434184E+02  0.00000000000E+00 0. -1.
<mgrwt>
<rscale>  0 0.20255295E+03</rscale>
<asrwt>0</asrwt>
<pdfrwt beam="1">  1        2 0.21855897E+00 0.20637582E+03</pdfrwt>
<pdfrwt beam="2">  1       -2 0.48738806E-02 0.20637582E+03</pdfrwt>
<totfact> 0.30599211E+03</totfact>
</mgrwt>
</event>
<event>
 7    1  0.5206756E-006  0.1764346E+03  0.7546771E-02  0.1177412E+00
          1   -1    0    0  501    0  0.00000000000E+00  0.00000000000E+00  0.24551789563E+02  0.24551789563E+02  0.00000000000E+00 0. -1.
         -1   -1    0    0    0  501 -0.00000000000E+00 -0.00000000000E+00 -0.11107807863E+04  0.11107807863E+04  0.00000000000E+00 0.  1.
         23    2    1    2    0    0  0.12312308029E+03  0.18510578717E+02 -0.55760992780E+03  0.58485725246E+03  0.12500895867E+03 0.  0.
          5    1    3    3  502    0  0.87179713527E+02  0.71061702958E+02 -0.35123845829E+03  0.36883683745E+03  0.47000000000E+01 0. -1.
         -5    1    3    3    0  502  0.35943366764E+02 -0.52551124241E+02 -0.20637146951E+03  0.21602041501E+03  0.47000000000E+01 0. -1.
        -11    1    1    2    0    0 -0.45061947511E+02  0.29938534341E+02 -0.11963570301E+03  0.13129964351E+03  0.00000000000E+00 0. -1.
         11    1    1    2    0    0 -0.78061132780E+02 -0.48449113058E+02 -0.40898336594E+03  0.41917567990E+03  0.00000000000E+00 0.  1.
<mgrwt>
<rscale>  0 0.17041870E+03</rscale>
<asrwt>0</asrwt>
<pdfrwt beam="1">  1        1 0.37771981E-02 0.17643462E+03</pdfrwt>
<pdfrwt beam="2">  1       -1 0.17088936E+00 0.17643462E+03</pdfrwt>
<totfact> 0.64978277E+02</totfact>
</mgrwt>
</event>
<event>
 7    1  0.5206756E-006  0.1604538E+03  0.7546771E-02  0.1195345E+00
          1   -1    0    0  501    0  0.00000000000E+00  0.00000000000E+00  0.90294594752E+03  0.90294594752E+03  0.00000000000E+00 0. -1.
         -1   -1    0    0    0  501 -0.00000000000E+00 -0.00000000000E+00 -0.24504769521E+02  0.24504769521E+02  0.00000000000E+00 0.  1.
         23    2    1    2    0    0  0.40254450201E+02  0.93908901932E+02  0.47215554259E+03  0.49867451667E+03  0.12371788293E+03 0.  0.
          5    1    3    3  502    0 -0.23407659970E+01  0.14480788801E+02  0.32954859384E+03  0.32990837839E+03  0.47000000000E+01 0. -1.
         -5    1    3    3    0  502  0.42595216198E+02  0.79428113130E+02  0.14260694874E+03  0.16876613828E+03  0.47000000000E+01 0.  1.
        -11    1    1    2    0    0  0.11624731750E+02  0.95817258958E+01  0.17350714403E+02  0.22978058005E+02  0.00000000000E+00 0.  1.
         11    1    1    2    0    0 -0.51879181951E+02 -0.10349062783E+03  0.38893492101E+03  0.40579814237E+03  0.00000000000E+00 0. -1.
<mgrwt>
<rscale>  0 0.15425077E+03</rscale>
<asrwt>0</asrwt>
<pdfrwt beam="1">  1        1 0.13891474E+00 0.16045379E+03</pdfrwt>
<pdfrwt beam="2">  1       -1 0.37699652E-02 0.16045379E+03</pdfrwt>
<totfact> 0.50050011E+03</totfact>
</mgrwt>
</event>
<event>
 7    1  0.5206756E-006  0.1491707E+03  0.7546771E-02  0.1211032E+00
          1   -1    0    0  501    0  0.00000000000E+00  0.00000000000E+00  0.11846865175E+03  0.11846865175E+03  0.00000000000E+00 0. -1.
         -1   -1    0    0    0  501 -0.00000000000E+00 -0.00000000000E+00 -0.23200276457E+03  0.23200276457E+03  0.00000000000E+00 0.  1.
         23    2    1    2    0    0 -0.52129461266E+02 -0.62505114278E+02  0.40209215482E+02  0.15449493536E+03  0.12501013559E+03 0.  0.
          5    1    3    3  502    0 -0.66661420903E+02 -0.13239246898E+02  0.67702939302E+02  0.96045825965E+02  0.47000000000E+01 0. -1.
         -5    1    3    3    0  502  0.14531959636E+02 -0.49265867379E+02 -0.27493723821E+02  0.58449109395E+02  0.47000000000E+01 0. -1.
        -11    1    1    2    0    0 -0.56579031234E+01  0.31779811102E+02 -0.39636495222E+01  0.32521973787E+02  0.00000000000E+00 0. -1.
         11    1    1    2    0    0  0.57787364390E+02  0.30725303175E+02 -0.14977967878E+03  0.16345450717E+03  0.00000000000E+00 0.  1.
<mgrwt>
<rscale>  0 0.14172107E+03</rscale>
<asrwt>0</asrwt>
<pdfrwt beam="1">  1        1 0.18225947E-01 0.14917072E+03</pdfrwt>
<pdfrwt beam="2">  1       -1 0.35692733E-01 0.14917072E+03</pdfrwt>
<totfact> 0.21272896E+03</totfact>
</mgrwt>
</event>
<event>
 7    1  0.5206756E-006  0.1394258E+03  0.7546771E-02  0.1225301E+00
         -1   -1    0    0    0  501 -0.00000000000E+00  0.00000000000E+00  0.14999166077E+03  0.14999166077E+03  0.00000000000E+00 0.  1.
          1   -1    0    0  501    0  0.00000000000E+00 -0.00000000000E+00 -0.10550360559E+03  0.10550360559E+03  0.00000000000E+00 0. -1.
         23    2    1    2    0    0 -0.26953110847E+02  0.55584890847E+02  0.89771152800E+01  0.13971451856E+03  0.12499363113E+03 0.  0.
          5    1    3    3  502    0 -0.54698016768E+02 -0.21281398196E+01  0.40433066867E+02  0.68215283579E+02  0.47000000000E+01 0. -1.
         -5    1    3    3    0  502  0.27744905920E+02  0.57713030667E+02 -0.31455951587E+02  0.71499234986E+02  0.47000000000E+01 0. -1.
        -11    1    1    2    0    0  0.59620680185E+02 -0.33992731378E+02  0.34005901086E+02  0.76593293446E+02  0.00000000000E+00 0. -1.
         11    1    1    2    0    0 -0.32667569337E+02 -0.21592159469E+02  0.15050388188E+01  0.39187454355E+02  0.00000000000E+00 0.  1.
<mgrwt>
<rscale>  0 0.13146293E+03</rscale>
<asrwt>0</asrwt>
<pdfrwt beam="2">  1        1 0.16231324E-01 0.13942582E+03</pdfrwt>
<pdfrwt beam="1">  1       -1 0.23075640E-01 0.13942582E+03</pdfrwt>
<totfact> 0.51071958E+03</totfact>
</mgrwt>
</event>
<event>
 7    1  0.5206756E-006  0.1254734E+03  0.7546771E-02  0.1250648E+00
         -2   -1    0    0    0  501 -0.00000000000E+00  0.00000000000E+00  0.56085765394E+02  0.56085765394E+02  0.00000000000E+00 0.  1.
          2   -1    0    0  501    0  0.00000000000E+00 -0.00000000000E+00 -0.25638749243E+03  0.25638749243E+03  0.00000000000E+00 0. -1.
         23    2    1    2    0    0 -0.60943614180E+01 -0.91260338433E+01 -0.18098650371E+03  0.22022643490E+03  0.12499256926E+03 0.  0.
          5    1    3    3  502    0  0.47527982672E+02 -0.13967463405E+02 -0.26117243002E+02  0.56197860750E+02  0.47000000000E+01 0. -1.
         -5    1    3    3    0  502 -0.53622344090E+02  0.48414295613E+01 -0.15486926071E+03  0.16402857415E+03  0.47000000000E+01 0. -1.
        -11    1    1    2    0    0 -0.25971943481E+02 -0.24894042011E+02 -0.26852972113E+02  0.44892508140E+02  0.00000000000E+00 0.  1.
         11    1    1    2    0    0  0.32066304899E+02  0.34020075855E+02  0.75377487921E+01  0.47354314776E+02  0.00000000000E+00 0. -1.
<mgrwt>
<rscale>  0 0.11553610E+03</rscale>
<asrwt>0</asrwt>
<pdfrwt beam="2">  1        2 0.39444229E-01 0.12547338E+03</pdfrwt>
<pdfrwt beam="1">  1       -2 0.86285795E-02 0.12547338E+03</pdfrwt>
<totfact> 0.10219454E+04</totfact>
</mgrwt>
</event>
<event>
 7    1  0.5206756E-006  0.1381949E+03  0.7546771E-02  0.1226776E+00
         -1   -1    0    0    0  501 -0.00000000000E+00  0.00000000000E+00  0.45378057706E+02  0.45378057706E+02  0.00000000000E+00 0.  1.
          1   -1    0    0  501    0  0.00000000000E+00 -0.00000000000E+00 -0.34018036830E+03  0.34018036830E+03  0.00000000000E+00 0. -1.
         23    2    1    2    0    0  0.33383597742E+02 -0.48561974500E+02 -0.17684767350E+03  0.22443916820E+03  0.12500044254E+03 0.  0.
          5    1    3    3  502    0 -0.88103623566E+01 -0.47277309478E+02 -0.63562893609E+01  0.48736627815E+02  0.47000000000E+01 0. -1.
         -5    1    3    3    0  502  0.42193960099E+02 -0.12846650221E+01 -0.17049138414E+03  0.17570254039E+03  0.47000000000E+01 0. -1.
        -11    1    1    2    0    0 -0.22144529694E+02 -0.19591337690E+02 -0.72854452077E+02  0.78625516821E+02  0.00000000000E+00 0. -1.
         11    1    1    2    0    0 -0.11239068048E+02  0.68153312190E+02 -0.45100185020E+02  0.82493740986E+02  0.00000000000E+00 0.  1.
<mgrwt>
<rscale>  0 0.13045928E+03</rscale>
<asrwt>0</asrwt>
<pdfrwt beam="2">  1        1 0.52335441E-01 0.13819494E+03</pdfrwt>
<pdfrwt beam="1">  1       -1 0.69812397E-02 0.13819494E+03</pdfrwt>
<totfact> 0.75497152E+03</totfact>
</mgrwt>
</event>
<event>
 7    1  0.5206756E-006  0.1873045E+03  0.7546771E-02  0.1165855E+00
          4   -1    0    0  501    0  0.00000000000E+00  0.00000000000E+00  0.24107956009E+03  0.24107956009E+03  0.00000000000E+00 0. -1.
         -4   -1    0    0    0  501 -0.00000000000E+00 -0.00000000000E+00 -0.21082150601E+03  0.21082150601E+03  0.00000000000E+00 0.  1.
         23    2    1    2    0    0 -0.12878248892E+03 -0.53594806684E+02  0.15522399144E+03  0.24326420453E+03  0.12500261171E+03 0.  0.
          5    1    3    3  502    0 -0.27901715304E+02 -0.65228748738E+02  0.19568443854E+02  0.73744893882E+02  0.47000000000E+01 0.  1.
         -5    1    3    3    0  502 -0.10088077361E+03  0.11633942054E+02  0.13565554759E+03  0.16951931065E+03  0.47000000000E+01 0.  1.
        -11    1    1    2    0    0  0.29628114698E+02 -0.13482493055E+02 -0.69405705586E+02  0.76659994570E+02  0.00000000000E+00 0.  1.
         11    1    1    2    0    0  0.99154374221E+02  0.67077299739E+02 -0.55560231774E+02  0.13197686700E+03  0.00000000000E+00 0. -1.
<mgrwt>
<rscale>  0 0.18202739E+03</rscale>
<asrwt>0</asrwt>
<pdfrwt beam="1">  1        4 0.37089163E-01 0.18730453E+03</pdfrwt>
<pdfrwt beam="2">  1       -4 0.32434078E-01 0.18730453E+03</pdfrwt>
<totfact> 0.11383321E+02</totfact>
</mgrwt>
</event>
<event>
 7    1  0.5206756E-006  0.1275282E+03  0.7546771E-02  0.1246050E+00
         -3   -1    0    0    0  501 -0.00000000000E+00  0.00000000000E+00  0.42270598402E+02  0.42270598402E+02  0.00000000000E+00 0.  1.
          3   -1    0    0  501    0  0.00000000000E+00 -0.00000000000E+00 -0.43452118203E+03  0.43452118203E+03  0.00000000000E+00 0. -1.
         23    2    1    2    0    0 -0.67254103946E+01  0.24357132109E+02 -0.35193119908E+03  0.37432474737E+03  0.12499978632E+03 0.  0.
          5    1    3    3  502    0  0.44778911008E+02  0.16228346830E+01 -0.27615806409E+03  0.27980913285E+03  0.47000000000E+01 0. -1.
         -5    1    3    3    0  502 -0.51504321403E+02  0.22734297426E+02 -0.75773134991E+02  0.94515614525E+02  0.47000000000E+01 0. -1.
        -11    1    1    2    0    0  0.43425861611E+01 -0.58897151373E+02 -0.20158616458E+02  0.62402742823E+02  0.00000000000E+00 0. -1.
         11    1    1    2    0    0  0.23828242335E+01  0.34540019264E+02 -0.20160768088E+02  0.40064290234E+02  0.00000000000E+00 0.  1.
<mgrwt>
<rscale>  0 0.11822755E+03</rscale>
<asrwt>0</asrwt>
<pdfrwt beam="2">  1        3 0.66849417E-01 0.12752822E+03</pdfrwt>
<pdfrwt beam="1">  1       -3 0.65031686E-02 0.12752822E+03</pdfrwt>
<totfact> 0.75178691E+02</totfact>
</mgrwt>
</event>
<event>
 7    1  0.5206756E-006  0.1304278E+03  0.7546771E-02  0.1241519E+00
          3   -1    0    0  501    0  0.00000000000E+00  0.00000000000E+00  0.99276784040E+02  0.99276784040E+02  0.00000000000E+00 0. -1.
         -3   -1    0    0    0  501 -0.00000000000E+00 -0.00000000000E+00 -0.12967710113E+03  0.12967710113E+03  0.00000000000E+00 0.  1.
         23    2    1    2    0    0 -0.55008664289E+01 -0.36814514270E+02 -0.18485333765E+02  0.13173122524E+03  0.12500336054E+03 0.  0.
          5    1    3    3  502    0  0.52836198063E+02  0.82494412131E+01 -0.21443512311E+02  0.57806844978E+02  0.47000000000E+01 0.  1.
         -5    1    3    3    0  502 -0.58337064491E+02 -0.45063955483E+02  0.29581785464E+01  0.73924380265E+02  0.47000000000E+01 0.  1.
        -11    1    1    2    0    0 -0.29687241182E+02 -0.13820811526E+02  0.53705115134E+01  0.33184175659E+02  0.00000000000E+00 0. -1.
         11    1    1    2    0    0  0.35188107611E+02  0.50635325796E+02 -0.17285494841E+02  0.64038484270E+02  0.00000000000E+00 0.  1.
<mgrwt>
<rscale>  0 0.12096171E+03</rscale>
<asrwt>0</asrwt>
<pdfrwt beam="1">  1        3 0.15273351E-01 0.13042779E+03</pdfrwt>
<pdfrwt beam="2">  1       -3 0.19950323E-01 0.13042779E+03</pdfrwt>
<totfact> 0.18476032E+03</totfact>
</mgrwt>
</event>
<event>
 7    1  0.5206756E-006  0.1412103E+03  0.7546771E-02  0.1222830E+00
          2   -1    0    0  501    0  0.00000000000E+00  0.00000000000E+00  0.19004272853E+03  0.19004272853E+03  0.00000000000E+00 0. -1.
         -2   -1    0    0    0  501 -0.00000000000E+00 -0.00000000000E+00 -0.84351588157E+02  0.84351588157E+02  0.00000000000E+00 0.  1.
         23    2    1    2    0    0  0.63660351025E+02  0.16207813335E+02  0.52078181515E+02  0.15050745952E+03  0.12500009950E+03 0.  0.
          5    1    3    3  502    0  0.10109487587E+02 -0.24672392119E+02 -0.32483494503E+02  0.42287067612E+02  0.47000000000E+01 0.  1.
         -5    1    3    3    0  502  0.53550863438E+02  0.40880205454E+02  0.84561676018E+02  0.10822039190E+03  0.47000000000E+01 0.  1.
        -11    1    1    2    0    0 -0.16746020523E+02 -0.50590685954E+02  0.29611403205E+02  0.60964595532E+02  0.00000000000E+00 0.  1.
         11    1    1    2    0    0 -0.46914330502E+02  0.34382872619E+02  0.24001555654E+02  0.62922261639E+02  0.00000000000E+00 0. -1.
<mgrwt>
<rscale>  0 0.13316769E+03</rscale>
<asrwt>0</asrwt>
<pdfrwt beam="1">  1        2 0.29237343E-01 0.14121033E+03</pdfrwt>
<pdfrwt beam="2">  1       -2 0.12977167E-01 0.14121033E+03</pdfrwt>
<totfact> 0.74641706E+03</totfact>
</mgrwt>
</event>
<event>
 7    1  0.5206756E-006  0.1264123E+03  0.7546771E-02  0.1259996E+00
         -1   -1    0    0    0  501 -0.00000000000E+00  0.00000000000E+00  0.43898900562E+03  0.43898900562E+03  0.00000000000E+00 0.  1.
          1   -1    0    0  501    0  0.00000000000E+00 -0.00000000000E+00 -0.23229829524E+02  0.23229829524E+02  0.00000000000E+00 0. -1.
         23    2    1    2    0    0  0.12131826056E+02  0.14397991330E+02  0.22871019791E+03  0.26132053354E+03  0.12500233303E+03 0.  0.
          5    1    3    3  502    0  0.25690743239E+02 -0.39276006520E+02  0.18416431386E+03  0.19010839928E+03  0.47000000000E+01 0. -1.
         -5    1    3    3    0  502 -0.13558917183E+02  0.53673997850E+02  0.44545884051E+02  0.71212134263E+02  0.47000000000E+01 0. -1.
        -11    1    1    2    0    0  0.98601942357E+01  0.25610267621E+02  0.63127293194E+02  0.68834325624E+02  0.00000000000E+00 0.  1.
         11    1    1    2    0    0 -0.21992020291E+02 -0.40008258952E+02  0.12392168498E+03  0.13206397597E+03  0.00000000000E+00 0. -1.
<mgrwt>
<rscale>  0 0.11031057E+03</rscale>
<asrwt>0</asrwt>
<pdfrwt beam="2">  1        1 0.35738202E-02 0.12641229E+03</pdfrwt>
<pdfrwt beam="1">  1       -1 0.67536764E-01 0.12641229E+03</pdfrwt>
<totfact> 0.58072540E+03</totfact>
</mgrwt>
</event>
<event>
 7    1  0.5206756E-006  0.1641732E+03  0.7546771E-02  0.1195404E+00
          2   -1    0    0  501    0  0.00000000000E+00  0.00000000000E+00  0.28206168393E+03  0.28206168393E+03  0.00000000000E+00 0. -1.
         -2   -1    0    0    0  501 -0.00000000000E+00 -0.00000000000E+00 -0.92462155647E+02  0.92462155647E+02  0.00000000000E+00 0.  1.
         23    2    1    2    0    0 -0.44704180162E+02  0.96596827888E+02  0.18404596711E+03  0.24662880410E+03  0.12499375232E+03 0.  0.
          5    1    3    3  502    0  0.67254910930E+01  0.97975163674E+02  0.16400103750E+03  0.19121400374E+03  0.47000000000E+01 0.  1.
         -5    1    3    3    0  502 -0.51429671255E+02 -0.13783357858E+01  0.20044929611E+02  0.55414800352E+02  0.47000000000E+01 0.  1.
        -11    1    1    2    0    0 -0.16132371940E+02 -0.18411027771E+02  0.14457495794E+02  0.28429536624E+02  0.00000000000E+00 0.  1.
         11    1    1    2    0    0  0.60836552103E+02 -0.78185800117E+02 -0.89039346185E+01  0.99465498860E+02  0.00000000000E+00 0. -1.
<mgrwt>
<rscale>  0 0.15420119E+03</rscale>
<asrwt>0</asrwt>
<pdfrwt beam="1">  1        2 0.43394105E-01 0.16417323E+03</pdfrwt>
<pdfrwt beam="2">  1       -2 0.14224947E-01 0.16417323E+03</pdfrwt>
<totfact> 0.42461699E+03</totfact>
</mgrwt>
</event>
<event>
 7    1  0.5206756E-006  0.1706167E+03  0.7546771E-02  0.1183026E+00
         -2   -1    0    0    0  501 -0.00000000000E+00  0.00000000000E+00  0.11381934895E+04  0.11381934895E+04  0.00000000000E+00 0.  1.
          2   -1    0    0  501    0  0.00000000000E+00 -0.00000000000E+00 -0.23060814707E+02  0.23060814707E+02  0.00000000000E+00 0. -1.
         23    2    1    2    0    0 -0.11285086402E+03 -0.27360837772E+02  0.68053405804E+03  0.70159578971E+03  0.12500446005E+03 0.  0.
          5    1    3    3  502    0 -0.43246529448E+01 -0.52174826892E+02  0.13656564941E+03  0.14633243585E+03  0.47000000000E+01 0.  1.
         -5    1    3    3    0  502 -0.10852621108E+03  0.24813989120E+02  0.54396840864E+03  0.55526335386E+03  0.47000000000E+01 0.  1.
        -11    1    1    2    0    0  0.11316630046E+03  0.51991444413E+02  0.37618291298E+03  0.39626166339E+03  0.00000000000E+00 0. -1.
         11    1    1    2    0    0 -0.31543643961E+00 -0.24630606641E+02  0.58415703803E+02  0.63396851140E+02  0.00000000000E+00 0.  1.
<mgrwt>
<rscale>  0 0.16512822E+03</rscale>
<asrwt>0</asrwt>
<pdfrwt beam="2">  1        2 0.35478185E-02 0.17061667E+03</pdfrwt>
<pdfrwt beam="1">  1       -2 0.17510665E+00 0.17061667E+03</pdfrwt>
<totfact> 0.51631760E+02</totfact>
</mgrwt>
</event>
<event>
 7    1  0.5206756E-006  0.1252918E+03  0.7546771E-02  0.1244809E+00
          2   -1    0    0  501    0  0.00000000000E+00  0.00000000000E+00  0.53448373231E+03  0.53448373231E+03  0.00000000000E+00 0. -1.
         -2   -1    0    0    0  501 -0.00000000000E+00 -0.00000000000E+00 -0.42292755377E+02  0.42292755377E+02  0.00000000000E+00 0.  1.
         23    2    1    2    0    0  0.84957258989E+01  0.12206643112E+00  0.44899107900E+03  0.46614484455E+03  0.12500333922E+03 0.  0.
          5    1    3    3  502    0  0.43916893241E+02  0.15792667297E+02  0.40348444355E+03  0.40620178241E+03  0.47000000000E+01 0.  1.
         -5    1    3    3    0  502 -0.35421167342E+02 -0.15670600866E+02  0.45506635455E+02  0.59943062132E+02  0.47000000000E+01 0.  1.
        -11    1    1    2    0    0 -0.49449093449E+02  0.92234102641E+01  0.46492062556E+02  0.68496686201E+02  0.00000000000E+00 0. -1.
         11    1    1    2    0    0  0.40953367550E+02 -0.93454766952E+01 -0.32921646249E+01  0.42134956939E+02  0.00000000000E+00 0.  1.
<mgrwt>
<rscale>  0 0.11896813E+03</rscale>
<asrwt>0</asrwt>
<pdfrwt beam="1">  1        2 0.82228262E-01 0.12529177E+03</pdfrwt>
<pdfrwt beam="2">  1       -2 0.65065781E-02 0.12529177E+03</pdfrwt>
<totfact> 0.71869095E+03</totfact>
</mgrwt>
</event>
<event>
 7    1  0.5206756E-006  0.1653573E+03  0.7546771E-02  0.1189879E+00
          1   -1    0    0  501    0  0.00000000000E+00  0.00000000000E+00  0.35748786603E+02  0.35748786603E+02  0.00000000000E+00 0. -1.
         -1   -1    0    0    0  501 -0.00000000000E+00 -0.00000000000E+00 -0.67812778297E+03  0.67812778297E+03  0.00000000000E+00 0.  1.
         23    2    1    2    0    0 -0.22479610451E+01 -0.10823835042E+03 -0.28324711930E+03  0.32798167398E+03  0.12498981577E+03 0.  0.
          5    1    3    3  502    0 -0.56348693492E+01 -0.80246402029E+01  0.11966279898E+02  0.16168749413E+02  0.47000000000E+01 0.  1.
         -5    1    3    3    0  502  0.33869083041E+01 -0.10021371021E+03 -0.29521339919E+03  0.31181292457E+03  0.47000000000E+01 0.  1.
        -11    1    1    2    0    0 -0.42383406567E+02  0.43039297200E+02 -0.18655731696E+03  0.19609275042E+03  0.00000000000E+00 0.  1.
         11    1    1    2    0    0  0.44631367612E+02  0.65199053218E+02 -0.17257456011E+03  0.18980214518E+03  0.00000000000E+00 0. -1.
<mgrwt>
<rscale>  0 0.15895748E+03</rscale>
<asrwt>0</asrwt>
<pdfrwt beam="1">  1        1 0.54998133E-02 0.16535733E+03</pdfrwt>
<pdfrwt beam="2">  1       -1 0.10432735E+00 0.16535733E+03</pdfrwt>
<totfact> 0.13158710E+03</totfact>
</mgrwt>
</event>
<event>
 7    1  0.5206756E-006  0.1459184E+03  0.7546771E-02  0.1215535E+00
          2   -1    0    0  501    0  0.00000000000E+00  0.00000000000E+00  0.20417871403E+04  0.20417871403E+04  0.00000000000E+00 0. -1.
         -2   -1    0    0    0  501 -0.00000000000E+00 -0.00000000000E+00 -0.15637903852E+02  0.15637903852E+02  0.00000000000E+00 0.  1.
         23    2    1    2    0    0 -0.51270469265E+02 -0.55121755702E+02  0.17630344482E+04  0.17690626443E+04  0.12500041879E+03 0.  0.
          5    1    3    3  502    0 -0.83896000401E+02 -0.63620010496E+02  0.10660060729E+04  0.10712035670E+04  0.47000000000E+01 0.  1.
         -5    1    3    3    0  502  0.32625531136E+02  0.84982547942E+01  0.69702837536E+03  0.69785907723E+03  0.47000000000E+01 0.  1.
        -11    1    1    2    0    0  0.65185508424E+02  0.13222195825E+02  0.20407533129E+03  0.21464090433E+03  0.00000000000E+00 0. -1.
         11    1    1    2    0    0 -0.13915039159E+02  0.41899559877E+02  0.59039456894E+02  0.73721495529E+02  0.00000000000E+00 0.  1.
<mgrwt>
<rscale>  0 0.13837288E+03</rscale>
<asrwt>0</asrwt>
<pdfrwt beam="1">  1        2 0.31412089E+00 0.14591838E+03</pdfrwt>
<pdfrwt beam="2">  1       -2 0.24058330E-02 0.14591838E+03</pdfrwt>
<totfact> 0.41452695E+03</totfact>
</mgrwt>
</event>
<event>
 7    1  0.5206756E-006  0.1424954E+03  0.7546771E-02  0.1220741E+00
         -2   -1    0    0    0  501 -0.00000000000E+00  0.00000000000E+00  0.28897870217E+02  0.28897870217E+02  0.00000000000E+00 0.  1.
          2   -1    0    0  501    0  0.00000000000E+00 -0.00000000000E+00 -0.68397404177E+03  0.68397404177E+03  0.00000000000E+00 0. -1.
         23    2    1    2    0    0  0.67673269254E+02 -0.99997007475E+01 -0.50476266193E+03  0.52449048871E+03  0.12500104993E+03 0.  0.
          5    1    3    3  502    0  0.48786397130E+01 -0.17518076178E+02 -0.33443768909E+01  0.19077708857E+02  0.47000000000E+01 0.  1.
         -5    1    3    3    0  502  0.62794629541E+02  0.75183754309E+01 -0.50141828504E+03  0.50541277986E+03  0.47000000000E+01 0.  1.
        -11    1    1    2    0    0 -0.44624110044E+02  0.44733378774E+02 -0.52838059880E+02  0.82366540206E+02  0.00000000000E+00 0.  1.
         11    1    1    2    0    0 -0.23049159210E+02 -0.34733678026E+02 -0.97475449740E+02  0.10601488307E+03  0.00000000000E+00 0. -1.
<mgrwt>
<rscale>  0 0.13463145E+03</rscale>
<asrwt>0</asrwt>
<pdfrwt beam="2">  1        2 0.10522678E+00 0.14249536E+03</pdfrwt>
<pdfrwt beam="1">  1       -2 0.44458261E-02 0.14249536E+03</pdfrwt>
<totfact> 0.97060141E+03</totfact>
</mgrwt>
</event>
<event>
 6    1  0.5206756E-006  0.3278248E+03  0.7546771E-02  0.1117672E+00
         -2   -1    0    0    0  501 -0.00000000000E+00  0.00000000000E+00  0.10455457918E+03  0.10455457918E+03  0.00000000000E+00 0.  1.
          2   -1    0    0  501    0  0.00000000000E+00 -0.00000000000E+00 -0.45766550625E+03  0.45766550625E+03  0.00000000000E+00 0. -1.
          5    1    1    2  502    0  0.68188774746E+02 -0.11937491132E+03 -0.32865613734E+03  0.35628222670E+03  0.47000000000E+01 0. -1.
         -5    1    1    2    0  502 -0.57247683886E+02  0.82140238291E+02  0.10207514533E+02  0.10075018318E+03  0.47000000000E+01 0.  1.
        -11    1    1    2    0    0 -0.51214151546E+02  0.17937320314E+02 -0.23637563258E+02  0.59189282606E+02  0.00000000000E+00 0.  1.
         11    1    1    2    0    0  0.40273060686E+02  0.19297352716E+02 -0.11024741015E+02  0.45998392943E+02  0.00000000000E+00 0. -1.
<mgrwt>
<rscale>  0 0.24321050E+03</rscale>
<asrwt>0</asrwt>
<pdfrwt beam="2">  1        2 0.70410077E-01 0.32782480E+03</pdfrwt>
<pdfrwt beam="1">  1       -2 0.16085320E-01 0.32782480E+03</pdfrwt>
<totfact> 0.20975732E+03</totfact>
</mgrwt>
</event>
<event>
 6    1  0.5206756E-006  0.1834764E+03  0.7546771E-02  0.1173005E+00
         -2   -1    0    0    0  501 -0.00000000000E+00  0.00000000000E+00  0.18672032189E+02  0.18672032189E+02  0.00000000000E+00 0.  1.
          2   -1    0    0  501    0  0.00000000000E+00 -0.00000000000E+00 -0.22700433331E+04  0.22700433331E+04  0.00000000000E+00 0. -1.
          5    1    1    2  502    0 -0.83090814055E+02  0.54071628856E+02 -0.11766597863E+04  0.11808379089E+04  0.47000000000E+01 0. -1.
         -5    1    1    2    0  502 -0.36532475471E+02 -0.72838213509E+02 -0.68701418536E+03  0.69184579785E+03  0.47000000000E+01 0.  1.
        -11    1    1    2    0    0  0.43178772299E+02  0.22020915823E+02 -0.27855766807E+03  0.28274317243E+03  0.00000000000E+00 0. -1.
         11    1    1    2    0    0  0.76444517226E+02 -0.32543311704E+01 -0.10913966116E+03  0.13328848609E+03  0.00000000000E+00 0.  1.
<mgrwt>
<rscale>  0 0.17472820E+03</rscale>
<asrwt>0</asrwt>
<pdfrwt beam="2">  1        2 0.34923748E+00 0.18347641E+03</pdfrwt>
<pdfrwt beam="1">  1       -2 0.28726200E-02 0.18347641E+03</pdfrwt>
<totfact> 0.24276687E+03</totfact>
</mgrwt>
</event>
<event>
 7    1  0.5206756E-006  0.1391725E+03  0.7546771E-02  0.1227281E+00
          2   -1    0    0  501    0  0.00000000000E+00  0.00000000000E+00  0.64373757849E+03  0.64373757849E+03  0.00000000000E+00 0.  1.
         -2   -1    0    0    0  501 -0.00000000000E+00 -0.00000000000E+00 -0.41071621324E+02  0.41071621324E+02  0.00000000000E+00 0. -1.
         23    2    1    2    0    0  0.61063274840E+02 -0.40818932911E+01  0.54769866147E+03  0.56510423574E+03  0.12499435226E+03 0.  0.
          5    1    3    3  502    0 -0.26865601014E+02 -0.30686899388E+01  0.32976409159E+02  0.42903507279E+02  0.47000000000E+01 0. -1.
         -5    1    3    3    0  502  0.87928875853E+02 -0.10132033524E+01  0.51472225231E+03  0.52220072846E+03  0.47000000000E+01 0. -1.
        -11    1    1    2    0    0 -0.74161915694E+02  0.87397621778E+01  0.13391414616E+02  0.75866350695E+02  0.00000000000E+00 0. -1.
         11    1    1    2    0    0  0.13098640855E+02 -0.46578688867E+01  0.41575881080E+02  0.43838613372E+02  0.00000000000E+00 0.  1.
<mgrwt>
<rscale>  0 0.13011807E+03</rscale>
<asrwt>0</asrwt>
<pdfrwt beam="1">  1        2 0.99036544E-01 0.13917246E+03</pdfrwt>
<pdfrwt beam="2">  1       -2 0.63187114E-02 0.13917246E+03</pdfrwt>
<totfact> 0.61248330E+03</totfact>
</mgrwt>
</event>
<event>
 7    1  0.5206756E-006  0.1323654E+03  0.7546771E-02  0.1238191E+00
          2   -1    0    0  501    0  0.00000000000E+00  0.00000000000E+00  0.18912929357E+02  0.18912929357E+02  0.00000000000E+00 0. -1.
         -2   -1    0    0    0  501 -0.00000000000E+00 -0.00000000000E+00 -0.70909837680E+03  0.70909837680E+03  0.00000000000E+00 0.  1.
         23    2    1    2    0    0  0.29810511151E+02 -0.31737844293E+02 -0.41815598924E+03  0.43860576619E+03  0.12499851786E+03 0.  0.
          5    1    3    3  502    0  0.19056738329E+02 -0.12676887810E+02 -0.38322636905E+01  0.23677816734E+02  0.47000000000E+01 0.  1.
         -5    1    3    3    0  502  0.10753772823E+02 -0.19060956482E+02 -0.41432372555E+03  0.41492794946E+03  0.47000000000E+01 0.  1.
        -11    1    1    2    0    0 -0.19402172924E+02  0.61781297658E+02 -0.20913419985E+03  0.21893032362E+03  0.00000000000E+00 0.  1.
         11    1    1    2    0    0 -0.10408338227E+02 -0.30043453366E+02 -0.62895258357E+02  0.70475216343E+02  0.00000000000E+00 0. -1.
<mgrwt>
<rscale>  0 0.12302324E+03</rscale>
<asrwt>0</asrwt>
<pdfrwt beam="1">  1        2 0.29096815E-02 0.13236535E+03</pdfrwt>
<pdfrwt beam="2">  1       -2 0.10909206E+00 0.13236535E+03</pdfrwt>
<totfact> 0.21799859E+03</totfact>
</mgrwt>
</event>
<event>
 6    1  0.5206756E-006  0.1306527E+03  0.7546771E-02  0.1306368E+00
          2   -1    0    0  501    0  0.00000000000E+00  0.00000000000E+00  0.22074763085E+03  0.22074763085E+03  0.00000000000E+00 0. -1.
         -2   -1    0    0    0  501 -0.00000000000E+00 -0.00000000000E+00 -0.40700020822E+02  0.40700020822E+02  0.00000000000E+00 0.  1.
          5    1    1    2  502    0 -0.55845702975E+02 -0.26239022121E+01  0.15551117593E+03  0.16532224062E+03  0.47000000000E+01 0. -1.
         -5    1    1    2    0  502  0.50347167122E+02 -0.23721146837E+02  0.35786601317E+02  0.66334763724E+02  0.47000000000E+01 0.  1.
        -11    1    1    2    0    0  0.10824027554E+01  0.17306589819E+02 -0.87595841000E+01  0.19427299362E+02  0.00000000000E+00 0. -1.
         11    1    1    2    0    0  0.44161330976E+01  0.90384592295E+01 -0.24905831225E+01  0.10363347966E+02  0.00000000000E+00 0.  1.
<mgrwt>
<rscale>  0 0.88563732E+02</rscale>
<asrwt>0</asrwt>
<pdfrwt beam="1">  1        2 0.33961173E-01 0.13065270E+03</pdfrwt>
<pdfrwt beam="2">  1       -2 0.62615418E-02 0.13065270E+03</pdfrwt>
<totfact> 0.19672337E+04</totfact>
</mgrwt>
</event>
<event>
 7    1  0.5206756E-006  0.1341578E+03  0.7546771E-02  0.1232624E+00
         -1   -1    0    0    0  501 -0.00000000000E+00  0.00000000000E+00  0.95272912580E+02  0.95272912580E+02  0.00000000000E+00 0.  1.
          1   -1    0    0  501    0  0.00000000000E+00 -0.00000000000E+00 -0.16211036284E+03  0.16211036284E+03  0.00000000000E+00 0. -1.
         23    2    1    2    0    0 -0.10461274322E+02  0.47563213151E+02 -0.69390913531E+02  0.15104112117E+03  0.12500649542E+03 0.  0.
          5    1    3    3  502    0 -0.68368716427E+00  0.89969944654E+02 -0.51308801182E+02  0.10368095991E+03  0.47000000000E+01 0.  1.
         -5    1    3    3    0  502 -0.97775871578E+01 -0.42406731503E+02 -0.18082112349E+02  0.47360161258E+02  0.47000000000E+01 0.  1.
        -11    1    1    2    0    0 -0.19660671498E+02  0.17223459679E+02  0.19862616157E+02  0.32828540748E+02  0.00000000000E+00 0.  1.
         11    1    1    2    0    0  0.30121945820E+02 -0.64786672830E+02 -0.17309152882E+02  0.73513613500E+02  0.00000000000E+00 0. -1.
<mgrwt>
<rscale>  0 0.12657766E+03</rscale>
<asrwt>0</asrwt>
<pdfrwt beam="2">  1        1 0.24940056E-01 0.13415782E+03</pdfrwt>
<pdfrwt beam="1">  1       -1 0.14657371E-01 0.13415782E+03</pdfrwt>
<totfact> 0.60849974E+03</totfact>
</mgrwt>
</event>
<event>
 7    1  0.5206756E-006  0.1530532E+03  0.7546771E-02  0.1205298E+00
          1   -1    0    0  501    0  0.00000000000E+00  0.00000000000E+00  0.88489333201E+03  0.88489333201E+03  0.00000000000E+00 0. -1.
         -1   -1    0    0    0  501 -0.00000000000E+00 -0.00000000000E+00 -0.22200581081E+02  0.22200581081E+02  0.00000000000E+00 0.  1.
         23    2    1    2    0    0 -0.35924851066E+02  0.80624660575E+02  0.47973958903E+03  0.50356267177E+03  0.12503743559E+03 0.  0.
          5    1    3    3  502    0 -0.68622153509E+02  0.46209854271E+02  0.15901941548E+03  0.17931429136E+03  0.47000000000E+01 0. -1.
         -5    1    3    3    0  502  0.32697302443E+02  0.34414806304E+02  0.32072017355E+03  0.32424838041E+03  0.47000000000E+01 0. -1.
        -11    1    1    2    0    0  0.47454114083E+02 -0.70194641518E+01  0.99644311561E+02  0.11059002960E+03  0.00000000000E+00 0. -1.
         11    1    1    2    0    0 -0.11529263017E+02 -0.73605196423E+02  0.28330885034E+03  0.29294121173E+03  0.00000000000E+00 0.  1.
<mgrwt>
<rscale>  0 0.14613988E+03</rscale>
<asrwt>0</asrwt>
<pdfrwt beam="1">  1        1 0.13613741E+00 0.15305323E+03</pdfrwt>
<pdfrwt beam="2">  1       -1 0.34154747E-02 0.15305323E+03</pdfrwt>
<totfact> 0.59639621E+03</totfact>
</mgrwt>
</event>
<event>
 7    1  0.5206756E-006  0.1436746E+03  0.7546771E-02  0.1218031E+00
          2   -1    0    0  501    0  0.00000000000E+00  0.00000000000E+00  0.23117634304E+03  0.23117634304E+03  0.00000000000E+00 0. -1.
         -2   -1    0    0    0  501 -0.00000000000E+00 -0.00000000000E+00 -0.74135966212E+02  0.74135966212E+02  0.00000000000E+00 0.  1.
         23    2    1    2    0    0 -0.36818645385E+02  0.60505183049E+02  0.98885707503E+02  0.17441551350E+03  0.12500359346E+03 0.  0.
          5    1    3    3  502    0 -0.61092609812E+02  0.56630064407E+02  0.12362644462E+02  0.84345694297E+02  0.47000000000E+01 0.  1.
         -5    1    3    3    0  502  0.24273964427E+02  0.38751186421E+01  0.86523063041E+02  0.90069819205E+02  0.47000000000E+01 0.  1.
        -11    1    1    2    0    0  0.62428279474E+02 -0.63506029901E+02  0.55603664839E+02  0.10498606315E+03  0.00000000000E+00 0. -1.
         11    1    1    2    0    0 -0.25609634089E+02  0.30008468524E+01  0.25510044850E+01  0.25910732600E+02  0.00000000000E+00 0.  1.
<mgrwt>
<rscale>  0 0.13656227E+03</rscale>
<asrwt>0</asrwt>
<pdfrwt beam="1">  1        2 0.35565591E-01 0.14367459E+03</pdfrwt>
<pdfrwt beam="2">  1       -2 0.11405533E-01 0.14367459E+03</pdfrwt>
<totfact> 0.74376760E+03</totfact>
</mgrwt>
</event>
<event>
 7    1  0.5206756E-006  0.1407895E+03  0.7546771E-02  0.1222411E+00
         -2   -1    0    0    0  501 -0.00000000000E+00  0.00000000000E+00  0.18131277804E+02  0.18131277804E+02  0.00000000000E+00 0.  1.
          2   -1    0    0  501    0  0.00000000000E+00 -0.00000000000E+00 -0.11322505257E+04  0.11322505257E+04  0.00000000000E+00 0. -1.
         23    2    1    2    0    0 -0.15875969296E+02  0.62812397019E+02 -0.86714462434E+03  0.87849955998E+03  0.12499693493E+03 0.  0.
          5    1    3    3  502    0 -0.19972842367E+02  0.87448726017E+02 -0.82032091799E+03  0.82522402571E+03  0.47000000000E+01 0.  1.
         -5    1    3    3    0  502  0.40968730711E+01 -0.24636328998E+02 -0.46823706349E+02  0.53275534270E+02  0.47000000000E+01 0.  1.
        -11    1    1    2    0    0 -0.26515022592E+02 -0.49797358680E+02 -0.19770022856E+03  0.20559232409E+03  0.00000000000E+00 0. -1.
         11    1    1    2    0    0  0.42390991888E+02 -0.13015038339E+02 -0.49274395011E+02  0.66289919445E+02  0.00000000000E+00 0.  1.
<mgrwt>
<rscale>  0 0.13345969E+03</rscale>
<asrwt>0</asrwt>
<pdfrwt beam="2">  1        2 0.17419238E+00 0.14078948E+03</pdfrwt>
<pdfrwt beam="1">  1       -2 0.27894274E-02 0.14078948E+03</pdfrwt>
<totfact> 0.10007671E+04</totfact>
</mgrwt>
</event>
<event>
 7    1  0.7713481E-006  0.1687034E+03  0.7546771E-02  0.1185664E+00
         -1   -1    0    0    0  501 -0.00000000000E+00  0.00000000000E+00  0.46257596252E+03  0.46257596252E+03  0.00000000000E+00 0.  1.
          1   -1    0    0  501    0  0.00000000000E+00 -0.00000000000E+00 -0.58752966861E+02  0.58752966861E+02  0.00000000000E+00 0. -1.
         23    2    1    2    0    0  0.11323451816E+03 -0.36613695096E+01  0.13761334724E+03  0.21771146507E+03  0.12500154782E+03 0.  0.
          5    1    3    3  502    0  0.11530454686E+03  0.17294360037E+02  0.15211374415E+03  0.19171571291E+03  0.47000000000E+01 0. -1.
         -5    1    3    3    0  502 -0.20700287038E+01 -0.20955729546E+02 -0.14500396917E+02  0.25995752161E+02  0.47000000000E+01 0. -1.
        -11    1    1    2    0    0 -0.30504431094E+02 -0.34740548281E+02  0.45781144407E+02  0.65064116027E+02  0.00000000000E+00 0. -1.
         11    1    1    2    0    0 -0.82730087062E+02  0.38401917790E+02  0.22042850402E+03  0.23855334828E+03  0.00000000000E+00 0.  1.
<mgrwt>
<rscale>  0 0.16271632E+03</rscale>
<asrwt>0</asrwt>
<pdfrwt beam="2">  1        1 0.90389183E-02 0.16870343E+03</pdfrwt>
<pdfrwt beam="1">  1       -1 0.71165530E-01 0.16870343E+03</pdfrwt>
<totfact> 0.15032575E+03</totfact>
</mgrwt>
</event>
<event>
 7    1  0.5206756E-006  0.1284376E+03  0.7546771E-02  0.1240107E+00
         -2   -1    0    0    0  501 -0.00000000000E+00  0.00000000000E+00  0.18666246541E+03  0.18666246541E+03  0.00000000000E+00 0.  1.
          2   -1    0    0  501    0  0.00000000000E+00 -0.00000000000E+00 -0.77282646989E+02  0.77282646989E+02  0.00000000000E+00 0. -1.
         23    2    1    2    0    0 -0.16187378009E+02  0.24674569851E+02  0.26901398060E+02  0.13122467265E+03  0.12500145555E+03 0.  0.
          5    1    3    3  502    0 -0.66282071699E+01  0.36170323491E+01 -0.49999501566E+02  0.50784409125E+02  0.47000000000E+01 0.  1.
         -5    1    3    3    0  502 -0.95591708387E+01  0.21057537502E+02  0.76900899626E+02  0.80440263526E+02  0.47000000000E+01 0.  1.
        -11    1    1    2    0    0  0.52491835404E+02 -0.37279872545E+01  0.72585992595E+02  0.89654988674E+02  0.00000000000E+00 0.  1.
         11    1    1    2    0    0 -0.36304457396E+02 -0.20946582597E+02  0.98924277674E+01  0.43065451076E+02  0.00000000000E+00 0. -1.
<mgrwt>
<rscale>  0 0.12183095E+03</rscale>
<asrwt>0</asrwt>
<pdfrwt beam="2">  1        2 0.11889638E-01 0.12843765E+03</pdfrwt>
<pdfrwt beam="1">  1       -2 0.28717302E-01 0.12843765E+03</pdfrwt>
<totfact> 0.54172325E+03</totfact>
</mgrwt>
</event>
<event>
 7    1  0.5206756E-006  0.1258175E+03  0.7546771E-02  0.1290416E+00
         -1   -1    0    0    0  501 -0.00000000000E+00  0.00000000000E+00  0.15872197892E+03  0.15872197892E+03  0.00000000000E+00 0.  1.
          1   -1    0    0  501    0  0.00000000000E+00 -0.00000000000E+00 -0.53499745500E+02  0.53499745500E+02  0.00000000000E+00 0. -1.
         23    2    1    2    0    0 -0.14285874815E+02 -0.95066046648E+00  0.34885539508E+02  0.13056432589E+03  0.12500020941E+03 0.  0.
          5    1    3    3  502    0 -0.16554373523E+02 -0.25393959099E+00  0.81680556818E+02  0.83474038660E+02  0.47000000000E+01 0. -1.
         -5    1    3    3    0  502  0.22684987087E+01 -0.69672087549E+00 -0.46795017310E+02  0.47090287230E+02  0.47000000000E+01 0. -1.
        -11    1    1    2    0    0 -0.54176558364E+01 -0.96532572244E+01  0.50676987906E+02  0.51871894828E+02  0.00000000000E+00 0.  1.
         11    1    1    2    0    0  0.19703530651E+02  0.10603917691E+02  0.19659706004E+02  0.29785503700E+02  0.00000000000E+00 0. -1.
<mgrwt>
<rscale>  0 0.95338497E+02</rscale>
<asrwt>0</asrwt>
<pdfrwt beam="2">  1        1 0.82307301E-02 0.12581750E+03</pdfrwt>
<pdfrwt beam="1">  1       -1 0.24418766E-01 0.12581750E+03</pdfrwt>
<totfact> 0.11273298E+04</totfact>
</mgrwt>
</event>
<event>
 7    1  0.5206756E-006  0.1492337E+03  0.7546771E-02  0.1211686E+00
         -2   -1    0    0    0  501 -0.00000000000E+00  0.00000000000E+00  0.20408592384E+03  0.20408592384E+03  0.00000000000E+00 0. -1.
          2   -1    0    0  501    0  0.00000000000E+00 -0.00000000000E+00 -0.88975119656E+02  0.88975119656E+02  0.00000000000E+00 0.  1.
         23    2    1    2    0    0  0.42689413499E+02 -0.69036759671E+02  0.73371969041E+02  0.16629534366E+03  0.12522873181E+03 0.  0.
          5    1    3    3  502    0  0.33416072884E+02  0.32208691866E+02  0.31231144812E+02  0.56138294995E+02  0.47000000000E+01 0.  1.
         -5    1    3    3    0  502  0.92733406150E+01 -0.10124545154E+03  0.42140824229E+02  0.11015704866E+03  0.47000000000E+01 0.  1.
        -11    1    1    2    0    0 -0.51340040614E+02  0.13935922807E+01  0.14858952372E+02  0.53465225477E+02  0.00000000000E+00 0.  1.
         11    1    1    2    0    0  0.86506271150E+01  0.67643167390E+02  0.26879882769E+02  0.73300474362E+02  0.00000000000E+00 0. -1.
<mgrwt>
<rscale>  0 0.14122811E+03</rscale>
<asrwt>0</asrwt>
<pdfrwt beam="2">  1        2 0.13688480E-01 0.14923369E+03</pdfrwt>
<pdfrwt beam="1">  1       -2 0.31397834E-01 0.14923369E+03</pdfrwt>
<totfact> 0.39378011E+03</totfact>
</mgrwt>
</event>
<event>
 7    1  0.5206756E-006  0.1280380E+03  0.7546771E-02  0.1244577E+00
          2   -1    0    0  501    0  0.00000000000E+00  0.00000000000E+00  0.57054773808E+03  0.57054773808E+03  0.00000000000E+00 0. -1.
         -2   -1    0    0    0  501 -0.00000000000E+00 -0.00000000000E+00 -0.22052697837E+02  0.22052697837E+02  0.00000000000E+00 0.  1.
         23    2    1    2    0    0 -0.25726194776E+02 -0.10348102135E+02  0.33143272414E+03  0.35530461206E+03  0.12499918561E+03 0.  0.
          5    1    3    3  502    0 -0.49543165002E+01  0.34796502758E+02  0.28478672501E+03  0.28698590662E+03  0.47000000000E+01 0. -1.
         -5    1    3    3    0  502 -0.20771878276E+02 -0.45144604893E+02  0.46645999130E+02  0.68318705440E+02  0.47000000000E+01 0. -1.
        -11    1    1    2    0    0 -0.19127057486E+01 -0.32162777487E+02  0.31991188014E+02  0.45404171719E+02  0.00000000000E+00 0.  1.
         11    1    1    2    0    0  0.27638900525E+02  0.42510879622E+02  0.18507112809E+03  0.19189165214E+03  0.00000000000E+00 0. -1.
<mgrwt>
<rscale>  0 0.11910712E+03</rscale>
<asrwt>0</asrwt>
<pdfrwt beam="1">  1        2 0.87776564E-01 0.12803795E+03</pdfrwt>
<pdfrwt beam="2">  1       -2 0.33927232E-02 0.12803795E+03</pdfrwt>
<totfact> 0.17721038E+04</totfact>
</mgrwt>
</event>
<event>
 7    1  0.5206756E-006  0.2035648E+03  0.7546771E-02  0.1150964E+00
         -2   -1    0    0    0  501 -0.00000000000E+00  0.00000000000E+00  0.20513369514E+02  0.20513369514E+02  0.00000000000E+00 0.  1.
          2   -1    0    0  501    0  0.00000000000E+00 -0.00000000000E+00 -0.20215776050E+04  0.20215776050E+04  0.00000000000E+00 0. -1.
         23    2    1    2    0    0  0.16034286377E+03  0.10135883105E+02 -0.13572184430E+04  0.13723995573E+04  0.12500429099E+03 0.  0.
          5    1    3    3  502    0  0.34900603823E+02  0.37947467674E+02 -0.15703037813E+03  0.16534416260E+03  0.47000000000E+01 0.  1.
         -5    1    3    3    0  502  0.12544225995E+03 -0.27811584569E+02 -0.12001880648E+04  0.12070553947E+04  0.47000000000E+01 0.  1.
        -11    1    1    2    0    0 -0.64893133549E+02  0.40205622518E+02 -0.26852861626E+03  0.27916881741E+03  0.00000000000E+00 0. -1.
         11    1    1    2    0    0 -0.95449730226E+02 -0.50341505624E+02 -0.37531717629E+03  0.39052259987E+03  0.00000000000E+00 0.  1.
<mgrwt>
<rscale>  0 0.19855496E+03</rscale>
<asrwt>0</asrwt>
<pdfrwt beam="2">  1        2 0.31101203E+00 0.20356484E+03</pdfrwt>
<pdfrwt beam="1">  1       -2 0.31559021E-02 0.20356484E+03</pdfrwt>
<totfact> 0.28461605E+03</totfact>
</mgrwt>
</event>
<event>
 7    1  0.5206756E-006  0.1338519E+03  0.7546771E-02  0.1234361E+00
          1   -1    0    0  501    0  0.00000000000E+00  0.00000000000E+00  0.17496058784E+03  0.17496058784E+03  0.00000000000E+00 0. -1.
         -1   -1    0    0    0  501 -0.00000000000E+00 -0.00000000000E+00 -0.80357542838E+02  0.80357542838E+02  0.00000000000E+00 0.  1.
         23    2    1    2    0    0 -0.71130019423E+01 -0.47336081270E+02  0.53355362720E+02  0.14409417592E+03  0.12500014967E+03 0.  0.
          5    1    3    3  502    0 -0.23022830692E+02 -0.11401637180E+02  0.87814564716E+02  0.91616242226E+02  0.47000000000E+01 0.  1.
         -5    1    3    3    0  502  0.15909828749E+02 -0.35934444090E+02 -0.34459201996E+02  0.52477933697E+02  0.47000000000E+01 0.  1.
        -11    1    1    2    0    0  0.44766247263E+02  0.36778675373E+01  0.11579560944E+02  0.46385664114E+02  0.00000000000E+00 0. -1.
         11    1    1    2    0    0 -0.37653245321E+02  0.43658213733E+02  0.29668121342E+02  0.64838290643E+02  0.00000000000E+00 0.  1.
<mgrwt>
<rscale>  0 0.12545441E+03</rscale>
<asrwt>0</asrwt>
<pdfrwt beam="1">  1        1 0.26917013E-01 0.13385192E+03</pdfrwt>
<pdfrwt beam="2">  1       -1 0.12362699E-01 0.13385192E+03</pdfrwt>
<totfact> 0.72050775E+03</totfact>
</mgrwt>
</event>
<event>
 7    1  0.5206756E-006  0.1514310E+03  0.7546771E-02  0.1207515E+00
          2   -1    0    0  501    0  0.00000000000E+00  0.00000000000E+00  0.49765808965E+03  0.49765808965E+03  0.00000000000E+00 0.  1.
         -2   -1    0    0    0  501 -0.00000000000E+00 -0.00000000000E+00 -0.40007299514E+02  0.40007299514E+02  0.00000000000E+00 0. -1.
         23    2    1    2    0    0  0.48378824722E+02 -0.70475632442E+02  0.30239638211E+03  0.33819361525E+03  0.12499609606E+03 0.  0.
          5    1    3    3  502    0 -0.39879474612E+02 -0.25013751422E+02  0.61439921075E+02  0.77543627445E+02  0.47000000000E+01 0.  1.
         -5    1    3    3    0  502  0.88258299334E+02 -0.45461881020E+02  0.24095646103E+03  0.26064998780E+03  0.47000000000E+01 0.  1.
        -11    1    1    2    0    0  0.16176848386E+02  0.48297958306E+02  0.37087932375E+02  0.63007126010E+02  0.00000000000E+00 0.  1.
         11    1    1    2    0    0 -0.64555673107E+02  0.22177674136E+02  0.11816647566E+03  0.13646464791E+03  0.00000000000E+00 0. -1.
<mgrwt>
<rscale>  0 0.14440987E+03</rscale>
<asrwt>0</asrwt>
<pdfrwt beam="1">  1        2 0.76562779E-01 0.15143101E+03</pdfrwt>
<pdfrwt beam="2">  1       -2 0.61549695E-02 0.15143101E+03</pdfrwt>
<totfact> 0.85623503E+03</totfact>
</mgrwt>
</event>
<event>
 7    1  0.5206756E-006  0.1751411E+03  0.7546771E-02  0.1178626E+00
          2   -1    0    0  501    0  0.00000000000E+00  0.00000000000E+00  0.41838784551E+03  0.41838784551E+03  0.00000000000E+00 0. -1.
         -2   -1    0    0    0  501 -0.00000000000E+00 -0.00000000000E+00 -0.64362840327E+02  0.64362840327E+02  0.00000000000E+00 0.  1.
         23    2    1    2    0    0  0.60296884719E+02  0.10682748083E+03  0.19933412201E+03  0.26534601724E+03  0.12500636664E+03 0.  0.
          5    1    3    3  502    0  0.72847987464E+02  0.19887774485E+02  0.14031875238E+03  0.15941704777E+03  0.47000000000E+01 0. -1.
         -5    1    3    3    0  502 -0.12551102745E+02  0.86939706341E+02  0.59015369628E+02  0.10592896946E+03  0.47000000000E+01 0. -1.
        -11    1    1    2    0    0  0.60651091900E+01 -0.56809444171E+02  0.10775779859E+03  0.12196655957E+03  0.00000000000E+00 0.  1.
         11    1    1    2    0    0 -0.66361993909E+02 -0.50018036656E+02  0.46933084582E+02  0.95438109028E+02  0.00000000000E+00 0. -1.
<mgrwt>
<rscale>  0 0.16925570E+03</rscale>
<asrwt>0</asrwt>
<pdfrwt beam="1">  1        2 0.64367359E-01 0.17514113E+03</pdfrwt>
<pdfrwt beam="2">  1       -2 0.99019757E-02 0.17514113E+03</pdfrwt>
<totfact> 0.49930993E+03</totfact>
</mgrwt>
</event>
<event>
 7    1  0.5206756E-006  0.1705721E+03  0.7546771E-02  0.1183634E+00
          2   -1    0    0  501    0  0.00000000000E+00  0.00000000000E+00  0.82228855997E+03  0.82228855997E+03  0.00000000000E+00 0. -1.
         -2   -1    0    0    0  501 -0.00000000000E+00 -0.00000000000E+00 -0.36487959098E+02  0.36487959098E+02  0.00000000000E+00 0.  1.
         23    2    1    2    0    0  0.76989817862E+02  0.86840959171E+02  0.58557193541E+03  0.60990927649E+03  0.12500419900E+03 0.  0.
          5    1    3    3  502    0  0.60832078959E+02  0.90420274121E+02  0.58226015077E+03  0.59238951795E+03  0.47000000000E+01 0. -1.
         -5    1    3    3    0  502  0.16157738904E+02 -0.35793149494E+01  0.33117846437E+01  0.17519758546E+02  0.47000000000E+01 0. -1.
        -11    1    1    2    0    0 -0.63257595189E+02 -0.10430811004E+03  0.18615751035E+03  0.22256757137E+03  0.00000000000E+00 0.  1.
         11    1    1    2    0    0 -0.13732222673E+02  0.17467150868E+02  0.14071155116E+02  0.26299671201E+02  0.00000000000E+00 0. -1.
<mgrwt>
<rscale>  0 0.16456821E+03</rscale>
<asrwt>0</asrwt>
<pdfrwt beam="1">  1        2 0.12650592E+00 0.17057208E+03</pdfrwt>
<pdfrwt beam="2">  1       -2 0.56135328E-02 0.17057208E+03</pdfrwt>
<totfact> 0.55030821E+03</totfact>
</mgrwt>
</event>
<event>
 7    1  0.5206756E-006  0.1406745E+03  0.7546771E-02  0.1223399E+00
          2   -1    0    0  501    0  0.00000000000E+00  0.00000000000E+00  0.15761280764E+03  0.15761280764E+03  0.00000000000E+00 0. -1.
         -2   -1    0    0    0  501 -0.00000000000E+00 -0.00000000000E+00 -0.15512226198E+03  0.15512226198E+03  0.00000000000E+00 0.  1.
         23    2    1    2    0    0  0.54493360195E+02  0.34589694244E+02  0.93325041264E+02  0.16881607814E+03  0.12499332645E+03 0.  0.
          5    1    3    3  502    0 -0.34777652921E+02 -0.11596648266E+02  0.10312378746E+02  0.38371897909E+02  0.47000000000E+01 0.  1.
         -5    1    3    3    0  502  0.89271013117E+02  0.46186342510E+02  0.83012662518E+02  0.13044418023E+03  0.47000000000E+01 0.  1.
        -11    1    1    2    0    0 -0.74009715753E+02 -0.36768247539E+02 -0.45096931385E+02  0.94143907255E+02  0.00000000000E+00 0. -1.
         11    1    1    2    0    0  0.19516355558E+02  0.21785532950E+01 -0.45737564226E+02  0.49775084229E+02  0.00000000000E+00 0.  1.
<mgrwt>
<rscale>  0 0.13277274E+03</rscale>
<asrwt>0</asrwt>
<pdfrwt beam="1">  1        2 0.24248124E-01 0.14067446E+03</pdfrwt>
<pdfrwt beam="2">  1       -2 0.23864963E-01 0.14067446E+03</pdfrwt>
<totfact> 0.33158625E+03</totfact>
</mgrwt>
</event>
<event>
 7    1  0.5206756E-006  0.1906554E+03  0.7546771E-02  0.1163023E+00
         -2   -1    0    0    0  501 -0.00000000000E+00  0.00000000000E+00  0.23971399514E+02  0.23971399514E+02  0.00000000000E+00 0.  1.
          2   -1    0    0  501    0  0.00000000000E+00 -0.00000000000E+00 -0.13649265034E+04  0.13649265034E+04  0.00000000000E+00 0. -1.
         23    2    1    2    0    0 -0.12087692295E+03 -0.78189397656E+02 -0.78270543815E+03  0.80559126138E+03  0.12499866033E+03 0.  0.
          5    1    3    3  502    0 -0.36871520564E+02 -0.81322399360E+02 -0.23469364266E+03  0.25114943275E+03  0.47000000000E+01 0. -1.
         -5    1    3    3    0  502 -0.84005402388E+02  0.31330017047E+01 -0.54801179550E+03  0.55444182863E+03  0.47000000000E+01 0. -1.
        -11    1    1    2    0    0  0.11932844663E+02 -0.33578219610E+01 -0.46713315582E+01  0.13247229469E+02  0.00000000000E+00 0.  1.
         11    1    1    2    0    0  0.10894407829E+03  0.81547219617E+02 -0.55357833422E+03  0.57005941211E+03  0.00000000000E+00 0. -1.
<mgrwt>
<rscale>  0 0.18502911E+03</rscale>
<asrwt>0</asrwt>
<pdfrwt beam="2">  1        2 0.20998872E+00 0.19065539E+03</pdfrwt>
<pdfrwt beam="1">  1       -2 0.36879071E-02 0.19065539E+03</pdfrwt>
<totfact> 0.49806216E+03</totfact>
</mgrwt>
</event>
<event>
 7    1  0.5206756E-006  0.2050085E+03  0.7546771E-02  0.1149541E+00
          2   -1    0    0  501    0  0.00000000000E+00  0.00000000000E+00  0.37349253175E+03  0.37349253175E+03  0.00000000000E+00 0. -1.
         -2   -1    0    0    0  501 -0.00000000000E+00 -0.00000000000E+00 -0.11006426098E+03  0.11006426098E+03  0.00000000000E+00 0.  1.
         23    2    1    2    0    0  0.10035021984E+03  0.12783131937E+03  0.74744444275E+02  0.21820908590E+03  0.12496983790E+03 0.  0.
          5    1    3    3  502    0  0.60788312963E+02  0.12736194637E+03  0.91971884696E+01  0.14150251819E+03  0.47000000000E+01 0.  1.
         -5    1    3    3    0  502  0.39561906878E+02  0.46937299711E+00  0.65547255806E+02  0.76706567714E+02  0.47000000000E+01 0.  1.
        -11    1    1    2    0    0 -0.59319279543E+02 -0.10777590014E+03  0.78137862535E+02  0.14573931226E+03  0.00000000000E+00 0.  1.
         11    1    1    2    0    0 -0.41030940298E+02 -0.20055419232E+02  0.11054596397E+03  0.11960839457E+03  0.00000000000E+00 0. -1.
<mgrwt>
<rscale>  0 0.20023429E+03</rscale>
<asrwt>0</asrwt>
<pdfrwt beam="1">  1        2 0.57460389E-01 0.20500847E+03</pdfrwt>
<pdfrwt beam="2">  1       -2 0.16932963E-01 0.20500847E+03</pdfrwt>
<totfact> 0.23779332E+03</totfact>
</mgrwt>
</event>
<event>
 7    1  0.5206756E-006  0.1401399E+03  0.7546771E-02  0.1223942E+00
          2   -1    0    0  501    0  0.00000000000E+00  0.00000000000E+00  0.64847661248E+03  0.64847661248E+03  0.00000000000E+00 0.  1.
         -2   -1    0    0    0  501 -0.00000000000E+00 -0.00000000000E+00 -0.28974150320E+02  0.28974150320E+02  0.00000000000E+00 0. -1.
         23    2    1    2    0    0  0.58960065962E+02  0.23210312622E+02  0.47260280006E+03  0.49294280124E+03  0.12499676267E+03 0.  0.
          5    1    3    3  502    0  0.58064661577E+02 -0.42871383266E+02  0.20984115412E+03  0.22195688858E+03  0.47000000000E+01 0.  1.
         -5    1    3    3    0  502  0.89540438510E+00  0.66081695888E+02  0.26276164594E+03  0.27098591266E+03  0.47000000000E+01 0.  1.
        -11    1    1    2    0    0 -0.42865179634E+02 -0.76596109354E+01  0.15477419552E+03  0.16078291223E+03  0.00000000000E+00 0.  1.
         11    1    1    2    0    0 -0.16094886328E+02 -0.15550701686E+02 -0.78745334292E+01  0.23725049327E+02  0.00000000000E+00 0. -1.
<mgrwt>
<rscale>  0 0.13239671E+03</rscale>
<asrwt>0</asrwt>
<pdfrwt beam="1">  1        2 0.99765621E-01 0.14013993E+03</pdfrwt>
<pdfrwt beam="2">  1       -2 0.44575621E-02 0.14013993E+03</pdfrwt>
<totfact> 0.10280002E+04</totfact>
</mgrwt>
</event>
<event>
 7    1  0.5206756E-006  0.1331862E+03  0.7546771E-02  0.1236314E+00
         -1   -1    0    0    0  501 -0.00000000000E+00  0.00000000000E+00  0.35518175068E+02  0.35518175068E+02  0.00000000000E+00 0.  1.
          1   -1    0    0  501    0  0.00000000000E+00 -0.00000000000E+00 -0.39401918573E+03  0.39401918573E+03  0.00000000000E+00 0. -1.
         23    2    1    2    0    0  0.47915984577E+01 -0.45731925327E+02 -0.17166965571E+03  0.21727642049E+03  0.12499681516E+03 0.  0.
          5    1    3    3  502    0 -0.52931281619E+02 -0.95594560637E+01 -0.34563372765E+02  0.64107881816E+02  0.47000000000E+01 0.  1.
         -5    1    3    3    0  502  0.57722880077E+02 -0.36172469263E+02 -0.13710628295E+03  0.15316853868E+03  0.47000000000E+01 0.  1.
        -11    1    1    2    0    0 -0.24578878983E+02  0.49795830156E+02 -0.18358695618E+03  0.19180176347E+03  0.00000000000E+00 0. -1.
         11    1    1    2    0    0  0.19787280526E+02 -0.40639048288E+01 -0.32443987680E+01  0.20459176827E+02  0.00000000000E+00 0.  1.
<mgrwt>
<rscale>  0 0.12420700E+03</rscale>
<asrwt>0</asrwt>
<pdfrwt beam="2">  1        1 0.60618335E-01 0.13318623E+03</pdfrwt>
<pdfrwt beam="1">  1       -1 0.54643347E-02 0.13318623E+03</pdfrwt>
<totfact> 0.90298824E+03</totfact>
</mgrwt>
</event>
<event>
 7    1  0.5206756E-006  0.1210752E+03  0.7546771E-02  0.1249143E+00
          1   -1    0    0  501    0  0.00000000000E+00  0.00000000000E+00  0.16702169859E+03  0.16702169859E+03  0.00000000000E+00 0. -1.
         -1   -1    0    0    0  501 -0.00000000000E+00 -0.00000000000E+00 -0.11452459025E+03  0.11452459025E+03  0.00000000000E+00 0.  1.
         23    2    1    2    0    0  0.49657529580E+02 -0.17486857980E+01  0.10965385091E+03  0.16334981916E+03  0.11040954784E+03 0.  0.
          5    1    3    3  502    0  0.73827648573E+02  0.30489270816E+02  0.79597796539E+02  0.11286282179E+03  0.47000000000E+01 0. -1.
         -5    1    3    3    0  502 -0.24170118993E+02 -0.32237956614E+02  0.30056054372E+02  0.50486997368E+02  0.47000000000E+01 0.  1.
        -11    1    1    2    0    0 -0.32855162764E+02 -0.35592305495E+02 -0.68687050033E+00  0.48443221629E+02  0.00000000000E+00 0. -1.
         11    1    1    2    0    0 -0.16802366816E+02  0.37340991293E+02 -0.56469872077E+02  0.69753248051E+02  0.00000000000E+00 0.  1.
<mgrwt>
<rscale>  0 0.11640780E+03</rscale>
<asrwt>0</asrwt>
<pdfrwt beam="1">  1        1 0.25695646E-01 0.12107517E+03</pdfrwt>
<pdfrwt beam="2">  1       -1 0.17619168E-01 0.12107517E+03</pdfrwt>
<totfact> 0.43595741E+03</totfact>
</mgrwt>
</event>
<event>
 7    1  0.5206756E-006  0.1584179E+03  0.7546771E-02  0.1198920E+00
          2   -1    0    0  501    0  0.00000000000E+00  0.00000000000E+00  0.92950606994E+03  0.92950606994E+03  0.00000000000E+00 0. -1.
         -2   -1    0    0    0  501 -0.00000000000E+00 -0.00000000000E+00 -0.29743917733E+02  0.29743917733E+02  0.00000000000E+00 0.  1.
         23    2    1    2    0    0  0.33907080114E+02 -0.91213767243E+02  0.71506153210E+03  0.73239964227E+03  0.12500639937E+03 0.  0.
          5    1    3    3  502    0 -0.13256154637E+02  0.21883429748E+01  0.40258005945E+03  0.40283161340E+03  0.47000000000E+01 0. -1.
         -5    1    3    3    0  502  0.47163234751E+02 -0.93402110218E+02  0.31248147265E+03  0.32956802887E+03  0.47000000000E+01 0. -1.
        -11    1    1    2    0    0 -0.29214011842E+02  0.23559328452E+02  0.91118795538E+01  0.38620289927E+02  0.00000000000E+00 0.  1.
         11    1    1    2    0    0 -0.46930682721E+01  0.67654438791E+02  0.17558874055E+03  0.18823005548E+03  0.00000000000E+00 0. -1.
<mgrwt>
<rscale>  0 0.15127096E+03</rscale>
<asrwt>0</asrwt>
<pdfrwt beam="1">  1        2 0.14300091E+00 0.15841793E+03</pdfrwt>
<pdfrwt beam="2">  1       -2 0.45759881E-02 0.15841793E+03</pdfrwt>
<totfact> 0.63684349E+03</totfact>
</mgrwt>
</event>
<event>
 7    1  0.5206756E-006  0.1306815E+03  0.7546771E-02  0.1240197E+00
         -1   -1    0    0    0  501 -0.00000000000E+00  0.00000000000E+00  0.16241237768E+02  0.16241237768E+02  0.00000000000E+00 0.  1.
          1   -1    0    0  501    0  0.00000000000E+00 -0.00000000000E+00 -0.81005204148E+03  0.81005204148E+03  0.00000000000E+00 0. -1.
         23    2    1    2    0    0 -0.62674449259E+01 -0.37592302320E+02 -0.46887441732E+03  0.48674519303E+03  0.12500080662E+03 0.  0.
          5    1    3    3  502    0  0.46579848659E+02 -0.12188649912E+02 -0.80323663508E+02  0.93766872653E+02  0.47000000000E+01 0.  1.
         -5    1    3    3    0  502 -0.52847293585E+02 -0.25403652408E+02 -0.38855075382E+03  0.39297832038E+03  0.47000000000E+01 0.  1.
        -11    1    1    2    0    0  0.14342276927E+02  0.65715730331E+02 -0.25534993439E+03  0.26406030961E+03  0.00000000000E+00 0.  1.
         11    1    1    2    0    0 -0.80748320011E+01 -0.28123428012E+02 -0.69586451997E+02  0.75487776604E+02  0.00000000000E+00 0. -1.
<mgrwt>
<rscale>  0 0.12177520E+03</rscale>
<asrwt>0</asrwt>
<pdfrwt beam="2">  1        1 0.12462340E+00 0.13068154E+03</pdfrwt>
<pdfrwt beam="1">  1       -1 0.24986518E-02 0.13068154E+03</pdfrwt>
<totfact> 0.10690093E+04</totfact>
</mgrwt>
</event>
<event>
 7    1  0.5206756E-006  0.1395986E+03  0.7546771E-02  0.1224819E+00
         -1   -1    0    0    0  501 -0.00000000000E+00  0.00000000000E+00  0.14322982431E+03  0.14322982431E+03  0.00000000000E+00 0.  1.
          1   -1    0    0  501    0  0.00000000000E+00 -0.00000000000E+00 -0.11042762308E+03  0.11042762308E+03  0.00000000000E+00 0. -1.
         23    2    1    2    0    0 -0.61972265316E+02  0.47546762028E+01  0.68798305808E+01  0.13976807108E+03  0.12499845203E+03 0.  0.
          5    1    3    3  502    0  0.26760652703E+02 -0.33242504538E+02  0.90762771984E+00  0.42943106887E+02  0.47000000000E+01 0. -1.
         -5    1    3    3    0  502 -0.88732918018E+02  0.37997180741E+02  0.59722028610E+01  0.96824964195E+02  0.47000000000E+01 0. -1.
        -11    1    1    2    0    0  0.29797756949E+02 -0.32982169464E+02  0.48258922562E+02  0.65609857709E+02  0.00000000000E+00 0.  1.
         11    1    1    2    0    0  0.32174508366E+02  0.28227493261E+02 -0.22336551913E+02  0.48279518595E+02  0.00000000000E+00 0. -1.
<mgrwt>
<rscale>  0 0.13179345E+03</rscale>
<asrwt>0</asrwt>
<pdfrwt beam="2">  1        1 0.16988865E-01 0.13959864E+03</pdfrwt>
<pdfrwt beam="1">  1       -1 0.22035358E-01 0.13959864E+03</pdfrwt>
<totfact> 0.51914134E+03</totfact>
</mgrwt>
</event>
<event>
 7    1  0.5206756E-006  0.2240499E+03  0.7546771E-02  0.1134208E+00
          1   -1    0    0  501    0  0.00000000000E+00  0.00000000000E+00  0.52171649510E+03  0.52171649510E+03  0.00000000000E+00 0. -1.
         -1   -1    0    0    0  501 -0.00000000000E+00 -0.00000000000E+00 -0.16159185301E+03  0.16159185301E+03  0.00000000000E+00 0.  1.
         23    2    1    2    0    0 -0.10315141820E+03 -0.15470113524E+03  0.41313574983E+03  0.46997819095E+03  0.12500278340E+03 0.  0.
          5    1    3    3  502    0 -0.40089529282E+02 -0.13830771987E+02  0.19062927288E+02  0.46732705984E+02  0.47000000000E+01 0. -1.
         -5    1    3    3    0  502 -0.63061888920E+02 -0.14087036325E+03  0.39407282254E+03  0.42324548497E+03  0.47000000000E+01 0. -1.
        -11    1    1    2    0    0  0.10749918833E+03  0.95366361065E+02 -0.54829239444E+02  0.15380852971E+03  0.00000000000E+00 0.  1.
         11    1    1    2    0    0 -0.43477701279E+01  0.59334774174E+02  0.18181316975E+01  0.59521627449E+02  0.00000000000E+00 0. -1.
<mgrwt>
<rscale>  0 0.21956418E+03</rscale>
<asrwt>0</asrwt>
<pdfrwt beam="1">  1        1 0.80264076E-01 0.22404989E+03</pdfrwt>
<pdfrwt beam="2">  1       -1 0.24860285E-01 0.22404989E+03</pdfrwt>
<totfact> 0.60304035E+02</totfact>
</mgrwt>
</event>
<event>
 7    1  0.5206756E-006  0.1512335E+03  0.7546771E-02  0.1206926E+00
          2   -1    0    0  501    0  0.00000000000E+00  0.00000000000E+00  0.78366734716E+03  0.78366734716E+03  0.00000000000E+00 0. -1.
         -2   -1    0    0    0  501 -0.00000000000E+00 -0.00000000000E+00 -0.32283378234E+02  0.32283378234E+02  0.00000000000E+00 0.  1.
         23    2    1    2    0    0 -0.23882535495E+02  0.81717959447E+02  0.59686488437E+03  0.61572660891E+03  0.12499346516E+03 0.  0.
          5    1    3    3  502    0 -0.52092389950E+02  0.79984662524E+02  0.56437047062E+03  0.57240482304E+03  0.47000000000E+01 0. -1.
         -5    1    3    3    0  502  0.28209854455E+02  0.17332969231E+01  0.32494413752E+02  0.43321785878E+02  0.47000000000E+01 0. -1.
        -11    1    1    2    0    0 -0.11061814167E+02  0.14375853371E+02  0.45275848060E+01  0.18695665727E+02  0.00000000000E+00 0. -1.
         11    1    1    2    0    0  0.34944349662E+02 -0.96093812817E+02  0.14999149975E+03  0.18152845075E+03  0.00000000000E+00 0.  1.
<mgrwt>
<rscale>  0 0.14486742E+03</rscale>
<asrwt>0</asrwt>
<pdfrwt beam="1">  1        2 0.12056419E+00 0.15123348E+03</pdfrwt>
<pdfrwt beam="2">  1       -2 0.49666742E-02 0.15123348E+03</pdfrwt>
<totfact> 0.69962572E+03</totfact>
</mgrwt>
</event>
<event>
 7    1  0.5206756E-006  0.2758691E+03  0.7546771E-02  0.1099869E+00
          1   -1    0    0  501    0  0.00000000000E+00  0.00000000000E+00  0.20626228722E+03  0.20626228722E+03  0.00000000000E+00 0. -1.
         -1   -1    0    0    0  501 -0.00000000000E+00 -0.00000000000E+00 -0.35529496282E+03  0.35529496282E+03  0.00000000000E+00 0.  1.
         23    2    1    2    0    0  0.23664284655E+03 -0.66933087778E+02 -0.46850981833E+02  0.27981922917E+03  0.12499564574E+03 0.  0.
          5    1    3    3  502    0  0.15495715400E+03 -0.10318401189E+03 -0.27319151660E+02  0.18822084351E+03  0.47000000000E+01 0. -1.
         -5    1    3    3    0  502  0.81685692546E+02  0.36250924109E+02 -0.19531830172E+02  0.91598385659E+02  0.47000000000E+01 0. -1.
        -11    1    1    2    0    0 -0.22273087551E+03  0.33519125678E+02 -0.78692907209E+02  0.23858991667E+03  0.00000000000E+00 0. -1.
         11    1    1    2    0    0 -0.13911971032E+02  0.33413962101E+02 -0.23488786561E+02  0.43148104192E+02  0.00000000000E+00 0.  1.
<mgrwt>
<rscale>  0 0.27247866E+03</rscale>
<asrwt>0</asrwt>
<pdfrwt beam="1">  1        1 0.31732660E-01 0.27586915E+03</pdfrwt>
<pdfrwt beam="2">  1       -1 0.54660763E-01 0.27586915E+03</pdfrwt>
<totfact> 0.49187380E+02</totfact>
</mgrwt>
</event>
<event>
 7    1  0.5206756E-006  0.1276070E+03  0.7546771E-02  0.1245748E+00
         -1   -1    0    0    0  501 -0.00000000000E+00  0.00000000000E+00  0.64960545734E+02  0.64960545734E+02  0.00000000000E+00 0.  1.
          1   -1    0    0  501    0  0.00000000000E+00 -0.00000000000E+00 -0.21736438503E+03  0.21736438503E+03  0.00000000000E+00 0. -1.
         23    2    1    2    0    0  0.24673811859E+02  0.70587865779E+01 -0.13567805839E+03  0.18625810397E+03  0.12499968922E+03 0.  0.
          5    1    3    3  502    0  0.74842736428E+01  0.12708662122E+02  0.22317506556E+02  0.27160367150E+02  0.47000000000E+01 0. -1.
         -5    1    3    3    0  502  0.17189538216E+02 -0.56498755436E+01 -0.15799556495E+03  0.15909773682E+03  0.47000000000E+01 0. -1.
        -11    1    1    2    0    0  0.26676336327E+00  0.40708447456E+02 -0.67659587611E+01  0.41267748363E+02  0.00000000000E+00 0.  1.
         11    1    1    2    0    0 -0.24940575223E+02 -0.47767234034E+02 -0.99598221424E+01  0.54799078431E+02  0.00000000000E+00 0. -1.
<mgrwt>
<rscale>  0 0.11840722E+03</rscale>
<asrwt>0</asrwt>
<pdfrwt beam="2">  1        1 0.33440674E-01 0.12760700E+03</pdfrwt>
<pdfrwt beam="1">  1       -1 0.99939303E-02 0.12760700E+03</pdfrwt>
<totfact> 0.75988015E+03</totfact>
</mgrwt>
</event>
<event>
 7    1  0.5206756E-006  0.1292130E+03  0.7546771E-02  0.1243219E+00
         -1   -1    0    0    0  501 -0.00000000000E+00  0.00000000000E+00  0.45051621216E+02  0.45051621216E+02  0.00000000000E+00 0.  1.
          1   -1    0    0  501    0  0.00000000000E+00 -0.00000000000E+00 -0.34518269131E+03  0.34518269131E+03  0.00000000000E+00 0. -1.
         23    2    1    2    0    0  0.11083283836E+01 -0.32713520312E+02 -0.25143859007E+03  0.28269659146E+03  0.12499838176E+03 0.  0.
          5    1    3    3  502    0 -0.59149696585E+01 -0.80412720478E+02 -0.15607570773E+03  0.17573533800E+03  0.47000000000E+01 0. -1.
         -5    1    3    3    0  502  0.70232980421E+01  0.47699200166E+02 -0.95362882346E+02  0.10696125346E+03  0.47000000000E+01 0. -1.
        -11    1    1    2    0    0  0.34200597632E+02  0.45843664544E+02 -0.21609825385E+02  0.61141696169E+02  0.00000000000E+00 0. -1.
         11    1    1    2    0    0 -0.35308926015E+02 -0.13130144233E+02 -0.27082654632E+02  0.46396024893E+02  0.00000000000E+00 0.  1.
<mgrwt>
<rscale>  0 0.11992623E+03</rscale>
<asrwt>0</asrwt>
<pdfrwt beam="2">  1        1 0.53105028E-01 0.12921300E+03</pdfrwt>
<pdfrwt beam="1">  1       -1 0.69310188E-02 0.12921300E+03</pdfrwt>
<totfact> 0.74607626E+03</totfact>
</mgrwt>
</event>
<event>
 7    1  0.5206756E-006  0.3488093E+03  0.7546771E-02  0.1064216E+00
         -3   -1    0    0    0  501 -0.00000000000E+00  0.00000000000E+00  0.29599925060E+03  0.29599925060E+03  0.00000000000E+00 0.  1.
          3   -1    0    0  501    0  0.00000000000E+00 -0.00000000000E+00 -0.42031794421E+03  0.42031794421E+03  0.00000000000E+00 0. -1.
         23    2    1    2    0    0 -0.30398889903E+03 -0.11675863243E+03  0.18256497217E+02  0.34928669551E+03  0.12500426789E+03 0.  0.
          5    1    3    3  502    0 -0.12172620872E+03 -0.36313886917E+02  0.67621872448E+02  0.14398185964E+03  0.47000000000E+01 0.  1.
         -5    1    3    3    0  502 -0.18226269031E+03 -0.80444745512E+02 -0.49365375232E+02  0.20530483587E+03  0.47000000000E+01 0.  1.
        -11    1    1    2    0    0  0.16618775770E+03  0.94793877964E+02 -0.11955131713E+03  0.22560311951E+03  0.00000000000E+00 0. -1.
         11    1    1    2    0    0  0.13780114133E+03  0.21964754464E+02 -0.23023873697E+02  0.14142737978E+03  0.00000000000E+00 0.  1.
<mgrwt>
<rscale>  0 0.34612783E+03</rscale>
<asrwt>0</asrwt>
<pdfrwt beam="2">  1        3 0.64664299E-01 0.34880925E+03</pdfrwt>
<pdfrwt beam="1">  1       -3 0.45538346E-01 0.34880925E+03</pdfrwt>
<totfact> 0.28551948E+01</totfact>
</mgrwt>
</event>
<event>
 7    1  0.5206756E-006  0.1727513E+03  0.7546771E-02  0.1181034E+00
          2   -1    0    0  501    0  0.00000000000E+00  0.00000000000E+00  0.15053197355E+04  0.15053197355E+04  0.00000000000E+00 0. -1.
         -2   -1    0    0    0  501 -0.00000000000E+00 -0.00000000000E+00 -0.49060207262E+02  0.49060207262E+02  0.00000000000E+00 0.  1.
         23    2    1    2    0    0  0.40741041610E+02 -0.11206641697E+03  0.13696047329E+04  0.13804564968E+04  0.12499720311E+03 0.  0.
          5    1    3    3  502    0  0.29863343633E+02 -0.81762202234E+02  0.36278623753E+03  0.37311234387E+03  0.47000000000E+01 0. -1.
         -5    1    3    3    0  502  0.10877697978E+02 -0.30304214733E+02  0.10068184954E+04  0.10073441529E+04  0.47000000000E+01 0. -1.
        -11    1    1    2    0    0 -0.35021473882E+02  0.12785688170E+03  0.83950698723E+02  0.15691273259E+03  0.00000000000E+00 0. -1.
         11    1    1    2    0    0 -0.57195677279E+01 -0.15790464734E+02  0.27040965830E+01  0.17010713384E+02  0.00000000000E+00 0.  1.
<mgrwt>
<rscale>  0 0.16698043E+03</rscale>
<asrwt>0</asrwt>
<pdfrwt beam="1">  1        2 0.23158762E+00 0.17275131E+03</pdfrwt>
<pdfrwt beam="2">  1       -2 0.75477253E-02 0.17275131E+03</pdfrwt>
<totfact> 0.14131776E+03</totfact>
</mgrwt>
</event>
<event>
 7    1  0.5206756E-006  0.1432210E+03  0.7546771E-02  0.1219058E+00
          1   -1    0    0  501    0  0.00000000000E+00  0.00000000000E+00  0.10394868195E+04  0.10394868195E+04  0.00000000000E+00 0. -1.
         -1   -1    0    0    0  501 -0.00000000000E+00 -0.00000000000E+00 -0.17832751172E+02  0.17832751172E+02  0.00000000000E+00 0.  1.
         23    2    1    2    0    0 -0.64738242772E+02 -0.26385815034E+02  0.72160143072E+03  0.73567716658E+03  0.12500006921E+03 0.  0.
          5    1    3    3  502    0 -0.37105229875E+02  0.13531605617E+02  0.58244979128E+02  0.70529922928E+02  0.47000000000E+01 0. -1.
         -5    1    3    3    0  502 -0.27633012897E+02 -0.39917420651E+02  0.66335645159E+03  0.66514724365E+03  0.47000000000E+01 0. -1.
        -11    1    1    2    0    0 -0.39270265434E+01 -0.27503538696E+02  0.89531057578E+02  0.93742607438E+02  0.00000000000E+00 0.  1.
         11    1    1    2    0    0  0.68665269316E+02  0.53889353731E+02  0.21052158005E+03  0.22789979667E+03  0.00000000000E+00 0. -1.
<mgrwt>
<rscale>  0 0.13582612E+03</rscale>
<asrwt>0</asrwt>
<pdfrwt beam="1">  1        1 0.15992100E+00 0.14322105E+03</pdfrwt>
<pdfrwt beam="2">  1       -1 0.27435010E-02 0.14322105E+03</pdfrwt>
<totfact> 0.62743736E+03</totfact>
</mgrwt>
</event>
<event>
 7    1  0.5206756E-006  0.1440066E+03  0.7546771E-02  0.1219285E+00
          2   -1    0    0  501    0  0.00000000000E+00  0.00000000000E+00  0.42929986714E+03  0.42929986714E+03  0.00000000000E+00 0. -1.
         -2   -1    0    0    0  501 -0.00000000000E+00 -0.00000000000E+00 -0.39611760361E+02  0.39611760361E+02  0.00000000000E+00 0.  1.
         23    2    1    2    0    0 -0.70374249490E+02 -0.12662935328E+02  0.25473175171E+03  0.29261948391E+03  0.12500004844E+03 0.  0.
          5    1    3    3  502    0 -0.36679029582E+02  0.46459201987E+02  0.52733242383E+02  0.79414693305E+02  0.47000000000E+01 0.  1.
         -5    1    3    3    0  502 -0.33695219908E+02 -0.59122137315E+02  0.20199850933E+03  0.21320479061E+03  0.47000000000E+01 0.  1.
        -11    1    1    2    0    0 -0.87401252045E+01 -0.21535519829E+02  0.12057545868E+02  0.26183063519E+02  0.00000000000E+00 0.  1.
         11    1    1    2    0    0  0.79114374695E+02  0.34198455156E+02  0.12289880920E+03  0.15010908008E+03  0.00000000000E+00 0. -1.
<mgrwt>
<rscale>  0 0.13566442E+03</rscale>
<asrwt>0</asrwt>
<pdfrwt beam="1">  1        2 0.66046130E-01 0.14400659E+03</pdfrwt>
<pdfrwt beam="2">  1       -2 0.60941173E-02 0.14400659E+03</pdfrwt>
<totfact> 0.10176646E+04</totfact>
</mgrwt>
</event>
<event>
 7    1  0.5206756E-006  0.1173439E+03  0.7546771E-02  0.1255783E+00
          2   -1    0    0  501    0  0.00000000000E+00  0.00000000000E+00  0.13266075825E+04  0.13266075825E+04  0.00000000000E+00 0. -1.
         -2   -1    0    0    0  501 -0.00000000000E+00 -0.00000000000E+00 -0.13064485750E+02  0.13064485750E+02  0.00000000000E+00 0.  1.
         23    2    1    2    0    0  0.99426550762E+01  0.21588866103E+02  0.10720596475E+04  0.10784625580E+04  0.11491155559E+03 0.  0.
          5    1    3    3  502    0 -0.12890775274E+02 -0.30670763501E+02  0.78695338699E+03  0.78767035688E+03  0.47000000000E+01 0. -1.
         -5    1    3    3    0  502  0.22833430351E+02  0.52259629603E+02  0.28510626054E+03  0.29079220112E+03  0.47000000000E+01 0.  1.
        -11    1    1    2    0    0  0.20475061568E+02 -0.49865571470E+02  0.17211565846E+03  0.18035964973E+03  0.00000000000E+00 0. -1.
         11    1    1    2    0    0 -0.30417716645E+02  0.28276705367E+02  0.69367790796E+02  0.80849860558E+02  0.00000000000E+00 0.  1.
<mgrwt>
<rscale>  0 0.11262593E+03</rscale>
<asrwt>0</asrwt>
<pdfrwt beam="1">  1        2 0.20409337E+00 0.11734394E+03</pdfrwt>
<pdfrwt beam="2">  1       -2 0.20099219E-02 0.11734394E+03</pdfrwt>
<totfact> 0.12500632E+04</totfact>
</mgrwt>
</event>
<event>
 6    1  0.5206756E-006  0.1294526E+03  0.7546771E-02  0.1243748E+00
          2   -1    0    0  501    0  0.00000000000E+00  0.00000000000E+00  0.99531343733E+03  0.99531343733E+03  0.00000000000E+00 0. -1.
         -2   -1    0    0    0  501 -0.00000000000E+00 -0.00000000000E+00 -0.51937619141E+02  0.51937619141E+02  0.00000000000E+00 0.  1.
          5    1    1    2  502    0  0.16648319165E+02  0.21132375202E+02  0.89503638602E+03  0.89545293908E+03  0.47000000000E+01 0. -1.
         -5    1    1    2    0  502 -0.62245366547E+01 -0.28907161013E+02  0.49041420635E+02  0.57458852689E+02  0.47000000000E+01 0.  1.
        -11    1    1    2    0    0 -0.29350457369E+02  0.41864139243E+02 -0.14224835827E+02  0.53069779127E+02  0.00000000000E+00 0.  1.
         11    1    1    2    0    0  0.18926674858E+02 -0.34089353432E+02  0.13522847361E+02  0.41269485571E+02  0.00000000000E+00 0. -1.
<mgrwt>
<rscale>  0 0.11960607E+03</rscale>
<asrwt>0</asrwt>
<pdfrwt beam="1">  1        2 0.15312513E+00 0.12945261E+03</pdfrwt>
<pdfrwt beam="2">  1       -2 0.79904037E-02 0.12945261E+03</pdfrwt>
<totfact> 0.24726685E+03</totfact>
</mgrwt>
</event>
<event>
 7    1  0.5206756E-006  0.1527640E+03  0.7546771E-02  0.1206935E+00
          1   -1    0    0  501    0  0.00000000000E+00  0.00000000000E+00  0.63046194172E+03  0.63046194172E+03  0.00000000000E+00 0. -1.
         -1   -1    0    0    0  501 -0.00000000000E+00 -0.00000000000E+00 -0.63853288442E+02  0.63853288442E+02  0.00000000000E+00 0.  1.
         23    2    1    2    0    0  0.79252939818E+02  0.37840070663E+02  0.54862298296E+03  0.56949451785E+03  0.12499571597E+03 0.  0.
          5    1    3    3  502    0 -0.30669729556E+02  0.26611065500E+02  0.18307625906E+03  0.18758408181E+03  0.47000000000E+01 0.  1.
         -5    1    3    3    0  502  0.10992266937E+03  0.11229005163E+02  0.36554672390E+03  0.38191043604E+03  0.47000000000E+01 0.  1.
        -11    1    1    2    0    0 -0.89277856213E+02 -0.29434521622E+02  0.37598383065E+02  0.10124507436E+03  0.00000000000E+00 0. -1.
         11    1    1    2    0    0  0.10024916395E+02 -0.84055490401E+01 -0.19612712750E+02  0.23575637951E+02  0.00000000000E+00 0.  1.
<mgrwt>
<rscale>  0 0.14485996E+03</rscale>
<asrwt>0</asrwt>
<pdfrwt beam="1">  1        1 0.96994140E-01 0.15276396E+03</pdfrwt>
<pdfrwt beam="2">  1       -1 0.98235833E-02 0.15276396E+03</pdfrwt>
<totfact> 0.20297960E+03</totfact>
</mgrwt>
</event>
<event>
 7    1  0.5206756E-006  0.1509855E+03  0.7546771E-02  0.1208460E+00
         -2   -1    0    0    0  501 -0.00000000000E+00  0.00000000000E+00  0.46702246205E+02  0.46702246205E+02  0.00000000000E+00 0.  1.
          2   -1    0    0  501    0  0.00000000000E+00 -0.00000000000E+00 -0.41087491485E+03  0.41087491485E+03  0.00000000000E+00 0. -1.
         23    2    1    2    0    0 -0.41217439571E+02  0.73978646337E+02 -0.22869469595E+03  0.27403995603E+03  0.12499966442E+03 0.  0.
          5    1    3    3  502    0 -0.46210651582E+02  0.50588730254E+00 -0.17935425502E+03  0.18527201363E+03  0.47000000000E+01 0.  1.
         -5    1    3    3    0  502  0.49932120105E+01  0.73472759034E+02 -0.49340440933E+02  0.88767942399E+02  0.47000000000E+01 0.  1.
        -11    1    1    2    0    0  0.16988539388E+02  0.17027494469E+02 -0.53581336716E+02  0.58732492563E+02  0.00000000000E+00 0. -1.
         11    1    1    2    0    0  0.24228900184E+02 -0.91006140806E+02 -0.81896635977E+02  0.12480471246E+03  0.00000000000E+00 0.  1.
<mgrwt>
<rscale>  0 0.14368123E+03</rscale>
<asrwt>0</asrwt>
<pdfrwt beam="2">  1        2 0.63211523E-01 0.15098554E+03</pdfrwt>
<pdfrwt beam="1">  1       -2 0.71849612E-02 0.15098554E+03</pdfrwt>
<totfact> 0.83213655E+03</totfact>
</mgrwt>
</event>
<event>
 7    1  0.5206756E-006  0.1223344E+03  0.7546771E-02  0.1253309E+00
          2   -1    0    0  501    0  0.00000000000E+00  0.00000000000E+00  0.32329725617E+03  0.32329725617E+03  0.00000000000E+00 0. -1.
         -2   -1    0    0    0  501 -0.00000000000E+00 -0.00000000000E+00 -0.40081019257E+02  0.40081019257E+02  0.00000000000E+00 0.  1.
         23    2    1    2    0    0 -0.16498338105E+02 -0.17405162940E+02  0.21927625600E+03  0.25109319517E+03  0.11996074925E+03 0.  0.
          5    1    3    3  502    0 -0.54960817737E+02 -0.46954527871E+02  0.11372956399E+03  0.13484036080E+03  0.47000000000E+01 0. -1.
         -5    1    3    3    0  502  0.38462479632E+02  0.29549364931E+02  0.10554669201E+03  0.11625283438E+03  0.47000000000E+01 0.  1.
        -11    1    1    2    0    0  0.11949753618E+02  0.28698651059E+02  0.83581854002E+02  0.89175868386E+02  0.00000000000E+00 0. -1.
         11    1    1    2    0    0  0.45485844875E+01 -0.11293488119E+02 -0.19641873087E+02  0.23109211867E+02  0.00000000000E+00 0.  1.
<mgrwt>
<rscale>  0 0.11401555E+03</rscale>
<asrwt>0</asrwt>
<pdfrwt beam="1">  1        2 0.49738038E-01 0.12233444E+03</pdfrwt>
<pdfrwt beam="2">  1       -2 0.61663109E-02 0.12233444E+03</pdfrwt>
<totfact> 0.13352001E+04</totfact>
</mgrwt>
</event>
<event>
 7    1  0.5206756E-006  0.1293365E+03  0.7546771E-02  0.1242666E+00
         -1   -1    0    0    0  501 -0.00000000000E+00  0.00000000000E+00  0.20715742042E+02  0.20715742042E+02  0.00000000000E+00 0.  1.
          1   -1    0    0  501    0  0.00000000000E+00 -0.00000000000E+00 -0.63126705431E+03  0.63126705431E+03  0.00000000000E+00 0. -1.
         23    2    1    2    0    0  0.32797097133E+02  0.52169959820E+01 -0.39770126278E+03  0.41820357970E+03  0.12500029210E+03 0.  0.
          5    1    3    3  502    0 -0.17665171565E+02 -0.48028063715E+02 -0.21951773294E+03  0.22545260758E+03  0.47000000000E+01 0.  1.
         -5    1    3    3    0  502  0.50462268698E+02  0.53245059697E+02 -0.17818352985E+03  0.19275097212E+03  0.47000000000E+01 0.  1.
        -11    1    1    2    0    0  0.30523228575E+02 -0.12323302474E+02 -0.69046509684E+02  0.76491514340E+02  0.00000000000E+00 0.  1.
         11    1    1    2    0    0 -0.63320325709E+02  0.71063064917E+01 -0.14380353980E+03  0.15728770231E+03  0.00000000000E+00 0. -1.
<mgrwt>
<rscale>  0 0.12026197E+03</rscale>
<asrwt>0</asrwt>
<pdfrwt beam="2">  1        1 0.97118013E-01 0.12933654E+03</pdfrwt>
<pdfrwt beam="1">  1       -1 0.31870371E-02 0.12933654E+03</pdfrwt>
<totfact> 0.10745070E+04</totfact>
</mgrwt>
</event>
<event>
 7    1  0.5206756E-006  0.1351775E+03  0.7546771E-02  0.1232565E+00
          2   -1    0    0  501    0  0.00000000000E+00  0.00000000000E+00  0.17773057313E+03  0.17773057313E+03  0.00000000000E+00 0. -1.
         -2   -1    0    0    0  501 -0.00000000000E+00 -0.00000000000E+00 -0.93824894860E+02  0.93824894860E+02  0.00000000000E+00 0.  1.
         23    2    1    2    0    0 -0.32912848116E+01 -0.51361303913E+02  0.97429377315E+02  0.16662961880E+03  0.12499652076E+03 0.  0.
          5    1    3    3  502    0 -0.43454502913E+02 -0.54090935116E+02  0.99936819116E+01  0.70257289752E+02  0.47000000000E+01 0. -1.
         -5    1    3    3    0  502  0.40163218101E+02  0.27296312032E+01  0.87435695404E+02  0.96372329045E+02  0.47000000000E+01 0. -1.
        -11    1    1    2    0    0 -0.20246994672E+02  0.16383275717E+02 -0.45216787480E+02  0.52181513838E+02  0.00000000000E+00 0.  1.
         11    1    1    2    0    0  0.23538279483E+02  0.34978028196E+02  0.31693088433E+02  0.52744335354E+02  0.00000000000E+00 0. -1.
<mgrwt>
<rscale>  0 0.12661625E+03</rscale>
<asrwt>0</asrwt>
<pdfrwt beam="1">  1        2 0.27343165E-01 0.13517746E+03</pdfrwt>
<pdfrwt beam="2">  1       -2 0.14434599E-01 0.13517746E+03</pdfrwt>
<totfact> 0.67381370E+03</totfact>
</mgrwt>
</event>
<event>
 7    1  0.5206756E-006  0.1283104E+03  0.7546771E-02  0.1243299E+00
          1   -1    0    0  501    0  0.00000000000E+00  0.00000000000E+00  0.99144189878E+03  0.99144189878E+03  0.00000000000E+00 0. -1.
         -1   -1    0    0    0  501 -0.00000000000E+00 -0.00000000000E+00 -0.14625964922E+02  0.14625964922E+02  0.00000000000E+00 0.  1.
         23    2    1    2    0    0 -0.27173052901E+02  0.98106942754E+01  0.71859193447E+03  0.72995747969E+03  0.12501571639E+03 0.  0.
          5    1    3    3  502    0 -0.48000097606E+02  0.39910520736E+02  0.18934212536E+03  0.19942264032E+03  0.47000000000E+01 0. -1.
         -5    1    3    3    0  502  0.20827044706E+02 -0.30099826461E+02  0.52924980911E+03  0.53053483937E+03  0.47000000000E+01 0. -1.
        -11    1    1    2    0    0  0.54425351514E+02 -0.14069845791E+02  0.93537543142E+02  0.10912997492E+03  0.00000000000E+00 0.  1.
         11    1    1    2    0    0 -0.27252298613E+02  0.42591515158E+01  0.16468645624E+03  0.16698040909E+03  0.00000000000E+00 0. -1.
<mgrwt>
<rscale>  0 0.11987767E+03</rscale>
<asrwt>0</asrwt>
<pdfrwt beam="1">  1        1 0.15252947E+00 0.12831038E+03</pdfrwt>
<pdfrwt beam="2">  1       -1 0.22501492E-02 0.12831038E+03</pdfrwt>
<totfact> 0.90136211E+03</totfact>
</mgrwt>
</event>
<event>
 6    1  0.5206756E-006  0.1696171E+03  0.7546771E-02  0.1236361E+00
         -1   -1    0    0    0  501 -0.00000000000E+00  0.00000000000E+00  0.65142932632E+02  0.65142932632E+02  0.00000000000E+00 0.  1.
          1   -1    0    0  501    0  0.00000000000E+00 -0.00000000000E+00 -0.18583156368E+03  0.18583156368E+03  0.00000000000E+00 0. -1.
          5    1    1    2  502    0 -0.65350998564E+02 -0.60306752053E+02 -0.34888509216E+02  0.95639716812E+02  0.47000000000E+01 0. -1.
         -5    1    1    2    0  502  0.72456733132E+02  0.23589752142E+02 -0.71389002378E+02  0.10452241024E+03  0.47000000000E+01 0.  1.
        -11    1    1    2    0    0  0.95872318406E+01  0.27117977746E+02 -0.12820500733E+02  0.31490712447E+02  0.00000000000E+00 0.  1.
         11    1    1    2    0    0 -0.16692966409E+02  0.95990221647E+01 -0.15906187222E+01  0.19321656812E+02  0.00000000000E+00 0. -1.
<mgrwt>
<rscale>  0 0.12417733E+03</rscale>
<asrwt>0</asrwt>
<pdfrwt beam="2">  1        1 0.28589471E-01 0.16961712E+03</pdfrwt>
<pdfrwt beam="1">  1       -1 0.10021990E-01 0.16961712E+03</pdfrwt>
<totfact> 0.93865635E+03</totfact>
</mgrwt>
</event>
<event>
 7    1  0.5206756E-006  0.1169112E+03  0.7546771E-02  0.1257296E+00
         -2   -1    0    0    0  501 -0.00000000000E+00  0.00000000000E+00  0.15240539744E+02  0.15240539744E+02  0.00000000000E+00 0.  1.
          2   -1    0    0  501    0  0.00000000000E+00 -0.00000000000E+00 -0.76406853880E+03  0.76406853880E+03  0.00000000000E+00 0. -1.
         23    2    1    2    0    0  0.35716723344E+02  0.12896914009E+02 -0.36684705017E+03  0.38502594458E+03  0.11057217129E+03 0.  0.
          5    1    3    3  502    0  0.66751347190E+02  0.28117867427E+02 -0.30954087102E+03  0.31793709701E+03  0.47000000000E+01 0. -1.
         -5    1    3    3    0  502 -0.31034623845E+02 -0.15220953418E+02 -0.57306179148E+02  0.67088847574E+02  0.47000000000E+01 0.  1.
        -11    1    1    2    0    0 -0.56824707144E+02  0.17688769558E+02 -0.26221704036E+03  0.26888606540E+03  0.00000000000E+00 0.  1.
         11    1    1    2    0    0  0.21107983800E+02 -0.30585683566E+02 -0.11976390853E+03  0.12539706857E+03  0.00000000000E+00 0. -1.
<mgrwt>
<rscale>  0 0.11178691E+03</rscale>
<asrwt>0</asrwt>
<pdfrwt beam="2">  1        2 0.11754901E+00 0.11691116E+03</pdfrwt>
<pdfrwt beam="1">  1       -2 0.23446983E-02 0.11691116E+03</pdfrwt>
<totfact> 0.21490920E+04</totfact>
</mgrwt>
</event>
<event>
 7    1  0.5206756E-006  0.1555934E+03  0.7546771E-02  0.1202115E+00
          3   -1    0    0  501    0  0.00000000000E+00  0.00000000000E+00  0.35126684771E+02  0.35126684771E+02  0.00000000000E+00 0. -1.
         -3   -1    0    0    0  501 -0.00000000000E+00 -0.00000000000E+00 -0.57987438159E+03  0.57987438159E+03  0.00000000000E+00 0.  1.
         23    2    1    2    0    0 -0.76712814427E+02  0.51953215968E+02 -0.28722904241E+03  0.32666472125E+03  0.12500129903E+03 0.  0.
          5    1    3    3  502    0 -0.72489592217E+02  0.88193035820E+02 -0.17902979767E+03  0.21238293482E+03  0.47000000000E+01 0. -1.
         -5    1    3    3    0  502 -0.42232222099E+01 -0.36239819852E+02 -0.10819924473E+03  0.11428178643E+03  0.47000000000E+01 0. -1.
        -11    1    1    2    0    0  0.91513351068E+02 -0.62676840190E+02 -0.22925285823E+03  0.25467617228E+03  0.00000000000E+00 0.  1.
         11    1    1    2    0    0 -0.14800536641E+02  0.10723624222E+02 -0.28265796174E+02  0.33660172826E+02  0.00000000000E+00 0. -1.
<mgrwt>
<rscale>  0 0.14867164E+03</rscale>
<asrwt>0</asrwt>
<pdfrwt beam="1">  1        3 0.54041056E-02 0.15559344E+03</pdfrwt>
<pdfrwt beam="2">  1       -3 0.89211438E-01 0.15559344E+03</pdfrwt>
<totfact> 0.55762317E+02</totfact>
</mgrwt>
</event>
<event>
 7    1  0.5206756E-006  0.1367518E+03  0.7546771E-02  0.1229165E+00
          2   -1    0    0  501    0  0.00000000000E+00  0.00000000000E+00  0.35453464768E+03  0.35453464768E+03  0.00000000000E+00 0. -1.
         -2   -1    0    0    0  501 -0.00000000000E+00 -0.00000000000E+00 -0.45911677769E+02  0.45911677769E+02  0.00000000000E+00 0.  1.
         23    2    1    2    0    0 -0.28755958807E+02  0.47426174004E+02  0.22788008650E+03  0.26576378038E+03  0.12499962396E+03 0.  0.
          5    1    3    3  502    0  0.47861533425E+02  0.54514076561E+01  0.95866607892E+02  0.10739153009E+03  0.47000000000E+01 0.  1.
         -5    1    3    3    0  502 -0.76617492232E+02  0.41974766348E+02  0.13201347861E+03  0.15837225028E+03  0.47000000000E+01 0.  1.
        -11    1    1    2    0    0 -0.64579081034E+01 -0.64800028612E+02  0.33438693053E+02  0.73204470343E+02  0.00000000000E+00 0.  1.
         11    1    1    2    0    0  0.35213866911E+02  0.17373854607E+02  0.47304190359E+02  0.61478074728E+02  0.00000000000E+00 0. -1.
<mgrwt>
<rscale>  0 0.12885475E+03</rscale>
<asrwt>0</asrwt>
<pdfrwt beam="1">  1        2 0.54543790E-01 0.13675179E+03</pdfrwt>
<pdfrwt beam="2">  1       -2 0.70633353E-02 0.13675179E+03</pdfrwt>
<totfact> 0.99326759E+03</totfact>
</mgrwt>
</event>
<event>
 7    1  0.5206756E-006  0.1628987E+03  0.7546771E-02  0.1187484E+00
         -3   -1    0    0    0  501 -0.00000000000E+00  0.00000000000E+00  0.11936536425E+03  0.11936536425E+03  0.00000000000E+00 0.  1.
          3   -1    0    0  501    0  0.00000000000E+00 -0.00000000000E+00 -0.23778120985E+03  0.23778120985E+03  0.00000000000E+00 0. -1.
         23    2    1    2    0    0 -0.91712694404E+02  0.50001136718E+02 -0.23514029379E+01  0.16291567956E+03  0.12499863024E+03 0.  0.
          5    1    3    3  502    0 -0.78344195664E+02  0.44220495540E+02  0.53656751842E+02  0.10485419514E+03  0.47000000000E+01 0. -1.
         -5    1    3    3    0  502 -0.13368498739E+02  0.57806411773E+01 -0.56008154780E+02  0.58061484418E+02  0.47000000000E+01 0. -1.
        -11    1    1    2    0    0  0.94355712925E+01 -0.22866826788E+02  0.20753460919E+02  0.32289749350E+02  0.00000000000E+00 0.  1.
         11    1    1    2    0    0  0.82277123111E+02 -0.27134309929E+02 -0.13681790358E+03  0.16194114518E+03  0.00000000000E+00 0. -1.
<mgrwt>
<rscale>  0 0.16107854E+03</rscale>
<asrwt>0</asrwt>
<pdfrwt beam="2">  1        3 0.36581724E-01 0.16289871E+03</pdfrwt>
<pdfrwt beam="1">  1       -3 0.18363902E-01 0.16289871E+03</pdfrwt>
<totfact> 0.45831953E+02</totfact>
</mgrwt>
</event>
<event>
 7    1  0.5206756E-006  0.1650755E+03  0.7546771E-02  0.1191061E+00
         -2   -1    0    0    0  501 -0.00000000000E+00  0.00000000000E+00  0.19866012549E+02  0.19866012549E+02  0.00000000000E+00 0.  1.
          2   -1    0    0  501    0  0.00000000000E+00 -0.00000000000E+00 -0.11589940003E+04  0.11589940003E+04  0.00000000000E+00 0. -1.
         23    2    1    2    0    0  0.52641611347E+02 -0.94092610391E+02 -0.60284566261E+03  0.62503825800E+03  0.12500148983E+03 0.  0.
          5    1    3    3  502    0  0.89471244747E+02 -0.61433764631E+02 -0.32089705408E+03  0.33878639346E+03  0.47000000000E+01 0. -1.
         -5    1    3    3    0  502 -0.36829633400E+02 -0.32658845761E+02 -0.28194860853E+03  0.28625186454E+03  0.47000000000E+01 0. -1.
        -11    1    1    2    0    0 -0.54948131834E+02  0.12424112176E+02 -0.23500449032E+03  0.24166250480E+03  0.00000000000E+00 0.  1.
         11    1    1    2    0    0  0.23065204874E+01  0.81668498215E+02 -0.30127783481E+03  0.31215925004E+03  0.00000000000E+00 0. -1.
<mgrwt>
<rscale>  0 0.15792375E+03</rscale>
<asrwt>0</asrwt>
<pdfrwt beam="2">  1        2 0.17830680E+00 0.16507553E+03</pdfrwt>
<pdfrwt beam="1">  1       -2 0.30563092E-02 0.16507553E+03</pdfrwt>
<totfact> 0.85112144E+03</totfact>
</mgrwt>
</event>
<event>
 7    1  0.5206756E-006  0.1258748E+03  0.7546771E-02  0.1248520E+00
         -1   -1    0    0    0  501 -0.00000000000E+00  0.00000000000E+00  0.53546786439E+02  0.53546786439E+02  0.00000000000E+00 0.  1.
          1   -1    0    0  501    0  0.00000000000E+00 -0.00000000000E+00 -0.23757775314E+03  0.23757775314E+03  0.00000000000E+00 0. -1.
         23    2    1    2    0    0 -0.30414593261E+01  0.14190422368E+02 -0.13922182696E+03  0.18768908324E+03  0.12503542020E+03 0.  0.
          5    1    3    3  502    0  0.38656896592E+02  0.53151493609E+02 -0.93650709065E+02  0.11450756410E+03  0.47000000000E+01 0.  1.
         -5    1    3    3    0  502 -0.41698355918E+02 -0.38961071241E+02 -0.45571117896E+02  0.73181519148E+02  0.47000000000E+01 0.  1.
        -11    1    1    2    0    0 -0.74612300616E+01  0.18029045826E+02 -0.62311126579E+02  0.65294662439E+02  0.00000000000E+00 0. -1.
         11    1    1    2    0    0  0.10502689388E+02 -0.32219468194E+02  0.17501986844E+02  0.38140793890E+02  0.00000000000E+00 0.  1.
<mgrwt>
<rscale>  0 0.11677184E+03</rscale>
<asrwt>0</asrwt>
<pdfrwt beam="2">  1        1 0.36550424E-01 0.12587484E+03</pdfrwt>
<pdfrwt beam="1">  1       -1 0.82379671E-02 0.12587484E+03</pdfrwt>
<totfact> 0.91149128E+03</totfact>
</mgrwt>
</event>
<event>
 7    1  0.5206756E-006  0.1371419E+03  0.7546771E-02  0.1229874E+00
         -1   -1    0    0    0  501 -0.00000000000E+00  0.00000000000E+00  0.47026087042E+02  0.47026087042E+02  0.00000000000E+00 0.  1.
          1   -1    0    0  501    0  0.00000000000E+00 -0.00000000000E+00 -0.54376783054E+03  0.54376783054E+03  0.00000000000E+00 0. -1.
         23    2    1    2    0    0  0.37399710092E+01  0.56298669897E+02 -0.45877609825E+03  0.47883546456E+03  0.12499746469E+03 0.  0.
          5    1    3    3  502    0  0.17207326440E+02  0.78748116603E+02 -0.16336541255E+03  0.18222981636E+03  0.47000000000E+01 0.  1.
         -5    1    3    3    0  502 -0.13467355431E+02 -0.22449446706E+02 -0.29541068570E+03  0.29660564820E+03  0.47000000000E+01 0.  1.
        -11    1    1    2    0    0  0.18978178909E+02 -0.64941135350E+02 -0.50673882209E+02  0.84530258922E+02  0.00000000000E+00 0. -1.
         11    1    1    2    0    0 -0.22718149918E+02  0.86424654533E+01  0.12708236964E+02  0.27428194099E+02  0.00000000000E+00 0.  1.
<mgrwt>
<rscale>  0 0.12838379E+03</rscale>
<asrwt>0</asrwt>
<pdfrwt beam="2">  1        1 0.83656588E-01 0.13714187E+03</pdfrwt>
<pdfrwt beam="1">  1       -1 0.72347827E-02 0.13714187E+03</pdfrwt>
<totfact> 0.39289158E+03</totfact>
</mgrwt>
</event>
<event>
 7    1  0.5206756E-006  0.1793904E+03  0.7546771E-02  0.1173289E+00
         -3   -1    0    0    0  501 -0.00000000000E+00  0.00000000000E+00  0.41545635383E+03  0.41545635383E+03  0.00000000000E+00 0.  1.
          3   -1    0    0  501    0  0.00000000000E+00 -0.00000000000E+00 -0.76214181216E+02  0.76214181216E+02  0.00000000000E+00 0. -1.
         23    2    1    2    0    0  0.25843618557E+02  0.12604887010E+03  0.10530243120E+03  0.20801327144E+03  0.12499883522E+03 0.  0.
          5    1    3    3  502    0  0.49346700345E+02  0.41419141968E+02  0.10107459231E+03  0.11995334663E+03  0.47000000000E+01 0.  1.
         -5    1    3    3    0  502 -0.23503081789E+02  0.84629728128E+02  0.42278388870E+01  0.88059924814E+02  0.47000000000E+01 0.  1.
        -11    1    1    2    0    0 -0.51114566945E+02 -0.76902222447E+02  0.87803988812E+02  0.12742131385E+03  0.00000000000E+00 0.  1.
         11    1    1    2    0    0  0.25270948388E+02 -0.49146647649E+02  0.14613575261E+03  0.15623594976E+03  0.00000000000E+00 0. -1.
<mgrwt>
<rscale>  0 0.17444642E+03</rscale>
<asrwt>0</asrwt>
<pdfrwt beam="2">  1        3 0.11725259E-01 0.17939041E+03</pdfrwt>
<pdfrwt beam="1">  1       -3 0.63916360E-01 0.17939041E+03</pdfrwt>
<totfact> 0.32858886E+02</totfact>
</mgrwt>
</event>
<event>
 7    1  0.5206756E-006  0.1364372E+03  0.7546771E-02  0.1230539E+00
          1   -1    0    0  501    0  0.00000000000E+00  0.00000000000E+00  0.15233534348E+03  0.15233534348E+03  0.00000000000E+00 0. -1.
         -1   -1    0    0    0  501 -0.00000000000E+00 -0.00000000000E+00 -0.12989480788E+03  0.12989480788E+03  0.00000000000E+00 0.  1.
         23    2    1    2    0    0  0.29697539431E+02  0.45914990834E+02  0.83859060376E+02  0.16014821681E+03  0.12499991644E+03 0.  0.
          5    1    3    3  502    0  0.57513616333E+02  0.75831508050E+02  0.57115793261E+02  0.11109697348E+03  0.47000000000E+01 0. -1.
         -5    1    3    3    0  502 -0.27816076901E+02 -0.29916517217E+02  0.26743267115E+02  0.49051243333E+02  0.47000000000E+01 0. -1.
        -11    1    1    2    0    0 -0.58023917444E+02 -0.28966720115E+02 -0.61054848712E+02  0.89070423941E+02  0.00000000000E+00 0.  1.
         11    1    1    2    0    0  0.28326378013E+02 -0.16948270719E+02 -0.36367606159E+00  0.33011510598E+02  0.00000000000E+00 0. -1.
<mgrwt>
<rscale>  0 0.12794405E+03</rscale>
<asrwt>0</asrwt>
<pdfrwt beam="1">  1        1 0.23436207E-01 0.13643720E+03</pdfrwt>
<pdfrwt beam="2">  1       -1 0.19983817E-01 0.13643720E+03</pdfrwt>
<totfact> 0.40313152E+03</totfact>
</mgrwt>
</event>
<event>
 7    1  0.5206756E-006  0.1283519E+03  0.7546771E-02  0.1239535E+00
         -2   -1    0    0    0  501 -0.00000000000E+00  0.00000000000E+00  0.56311797325E+02  0.56311797325E+02  0.00000000000E+00 0.  1.
          2   -1    0    0  501    0  0.00000000000E+00 -0.00000000000E+00 -0.43581000012E+03  0.43581000012E+03  0.00000000000E+00 0. -1.
         23    2    1    2    0    0 -0.68857234677E+01  0.28315545132E+02 -0.36351582804E+03  0.38551001803E+03  0.12500013394E+03 0.  0.
          5    1    3    3  502    0  0.28593232948E+02 -0.38989897925E+02 -0.99754859159E+02  0.11095452689E+03  0.47000000000E+01 0. -1.
         -5    1    3    3    0  502 -0.35478956416E+02  0.67305443057E+02 -0.26376096888E+03  0.27455549114E+03  0.47000000000E+01 0. -1.
        -11    1    1    2    0    0 -0.26537685998E+02 -0.43795004249E+01  0.33059203892E+02  0.42618537798E+02  0.00000000000E+00 0.  1.
         11    1    1    2    0    0  0.33423409465E+02 -0.23936044707E+02 -0.49041578652E+02  0.63993241621E+02  0.00000000000E+00 0. -1.
<mgrwt>
<rscale>  0 0.12218535E+03</rscale>
<asrwt>0</asrwt>
<pdfrwt beam="2">  1        2 0.67047690E-01 0.12835193E+03</pdfrwt>
<pdfrwt beam="1">  1       -2 0.86633538E-02 0.12835193E+03</pdfrwt>
<totfact> 0.57931439E+03</totfact>
</mgrwt>
</event>
<event>
 7    1  0.5206756E-006  0.1341443E+03  0.7546771E-02  0.1233745E+00
         -1   -1    0    0    0  501 -0.00000000000E+00  0.00000000000E+00  0.12768554490E+02  0.12768554490E+02  0.00000000000E+00 0.  1.
          1   -1    0    0  501    0  0.00000000000E+00 -0.00000000000E+00 -0.14538322484E+04  0.14538322484E+04  0.00000000000E+00 0. -1.
         23    2    1    2    0    0 -0.13794284752E+02 -0.46694966734E+02 -0.11449238234E+04  0.11527555031E+04  0.12499594513E+03 0.  0.
          5    1    3    3  502    0 -0.19615665389E+02  0.11279918402E+02 -0.92216312474E+03  0.92245267061E+03  0.47000000000E+01 0. -1.
         -5    1    3    3    0  502  0.58213806368E+01 -0.57974885136E+02 -0.22276069867E+03  0.23030283249E+03  0.47000000000E+01 0. -1.
        -11    1    1    2    0    0  0.49804387848E+02  0.77370986781E+01 -0.15921730821E+03  0.16700446395E+03  0.00000000000E+00 0.  1.
         11    1    1    2    0    0 -0.36010103096E+02  0.38957868056E+02 -0.13692256234E+03  0.14684083589E+03  0.00000000000E+00 0. -1.
<mgrwt>
<rscale>  0 0.12585119E+03</rscale>
<asrwt>0</asrwt>
<pdfrwt beam="2">  1        1 0.22366634E+00 0.13414428E+03</pdfrwt>
<pdfrwt beam="1">  1       -1 0.19643944E-02 0.13414428E+03</pdfrwt>
<totfact> 0.53069090E+03</totfact>
</mgrwt>
</event>
<event>
 7    1  0.5206756E-006  0.1463730E+03  0.7546771E-02  0.1215066E+00
          2   -1    0    0  501    0  0.00000000000E+00  0.00000000000E+00  0.10482152327E+03  0.10482152327E+03  0.00000000000E+00 0. -1.
         -2   -1    0    0    0  501 -0.00000000000E+00 -0.00000000000E+00 -0.17277814146E+03  0.17277814146E+03  0.00000000000E+00 0.  1.
         23    2    1    2    0    0  0.61820303729E+02  0.44477645568E+02 -0.11777305090E+02  0.14684607127E+03  0.12500021129E+03 0.  0.
          5    1    3    3  502    0  0.93310337291E+02  0.48947618041E+02  0.12976991202E+02  0.10626937780E+03  0.47000000000E+01 0.  1.
         -5    1    3    3    0  502 -0.31490033562E+02 -0.44699724734E+01 -0.24754296292E+02  0.40576693465E+02  0.47000000000E+01 0.  1.
        -11    1    1    2    0    0 -0.37529197008E+02 -0.42008063531E+01  0.18845040956E+02  0.42204537324E+02  0.00000000000E+00 0. -1.
         11    1    1    2    0    0 -0.24291106721E+02 -0.40276839215E+02 -0.75024354051E+02  0.88549056142E+02  0.00000000000E+00 0.  1.
<mgrwt>
<rscale>  0 0.13871715E+03</rscale>
<asrwt>0</asrwt>
<pdfrwt beam="1">  1        2 0.16126388E-01 0.14637303E+03</pdfrwt>
<pdfrwt beam="2">  1       -2 0.26581252E-01 0.14637303E+03</pdfrwt>
<totfact> 0.43712432E+03</totfact>
</mgrwt>
</event>
<event>
 6    1  0.5206756E-006  0.3131695E+03  0.7546771E-02  0.1117585E+00
         -2   -1    0    0    0  501 -0.00000000000E+00  0.00000000000E+00  0.84839222254E+02  0.84839222254E+02  0.00000000000E+00 0.  1.
          2   -1    0    0  501    0  0.00000000000E+00 -0.00000000000E+00 -0.54182123797E+03  0.54182123797E+03  0.00000000000E+00 0. -1.
          5    1    1    2  502    0 -0.43100893669E+02  0.71255644591E+02 -0.32179684931E+03  0.33243097952E+03  0.47000000000E+01 0. -1.
         -5    1    1    2    0  502 -0.53712781137E+01 -0.10835799539E+03  0.10545065550E+02  0.10910359390E+03  0.47000000000E+01 0.  1.
        -11    1    1    2    0    0  0.34088308678E+02  0.63815893708E+02 -0.13459330814E+03  0.15280654330E+03  0.00000000000E+00 0. -1.
         11    1    1    2    0    0  0.14383863105E+02 -0.26713542906E+02 -0.11136923815E+02  0.32319343503E+02  0.00000000000E+00 0.  1.
<mgrwt>
<rscale>  0 0.24334391E+03</rscale>
<asrwt>0</asrwt>
<pdfrwt beam="2">  1        2 0.83357114E-01 0.31316945E+03</pdfrwt>
<pdfrwt beam="1">  1       -2 0.13052188E-01 0.31316945E+03</pdfrwt>
<totfact> 0.24486968E+03</totfact>
</mgrwt>
</event>
<event>
 7    1  0.5206756E-006  0.1281249E+03  0.7546771E-02  0.1244431E+00
         -1   -1    0    0    0  501 -0.00000000000E+00  0.00000000000E+00  0.29822068530E+02  0.29822068530E+02  0.00000000000E+00 0.  1.
          1   -1    0    0  501    0  0.00000000000E+00 -0.00000000000E+00 -0.45270158830E+03  0.45270158830E+03  0.00000000000E+00 0. -1.
         23    2    1    2    0    0  0.13964067511E+01  0.27984437105E+02 -0.30290231696E+03  0.32888570503E+03  0.12502365649E+03 0.  0.
          5    1    3    3  502    0  0.16226532444E+02  0.16650183244E+02 -0.30804947292E+03  0.30896131914E+03  0.47000000000E+01 0.  1.
         -5    1    3    3    0  502 -0.14830125693E+02  0.11334253861E+02  0.51471559610E+01  0.19924385892E+02  0.47000000000E+01 0.  1.
        -11    1    1    2    0    0 -0.36777784669E+02  0.15337376567E+02 -0.54683652095E+02  0.67661971384E+02  0.00000000000E+00 0.  1.
         11    1    1    2    0    0  0.35381377918E+02 -0.43321813672E+02 -0.65293550712E+02  0.85975980412E+02  0.00000000000E+00 0. -1.
<mgrwt>
<rscale>  0 0.11919504E+03</rscale>
<asrwt>0</asrwt>
<pdfrwt beam="2">  1        1 0.69646397E-01 0.12812491E+03</pdfrwt>
<pdfrwt beam="1">  1       -1 0.45880106E-02 0.12812491E+03</pdfrwt>
<totfact> 0.97775266E+03</totfact>
</mgrwt>
</event>
<event>
 7    1  0.5206756E-006  0.1219980E+03  0.7546771E-02  0.1261054E+00
          1   -1    0    0  501    0  0.00000000000E+00  0.00000000000E+00  0.59066062383E+03  0.59066062383E+03  0.00000000000E+00 0. -1.
         -1   -1    0    0    0  501 -0.00000000000E+00 -0.00000000000E+00 -0.21280882176E+03  0.21280882176E+03  0.00000000000E+00 0.  1.
         23    2    1    2    0    0  0.64257251380E+01 -0.77515667278E+01  0.57655187670E+03  0.58931790235E+03  0.12158185217E+03 0.  0.
          5    1    3    3  502    0 -0.12464628314E+02 -0.59883666943E+02  0.38461447442E+03  0.38947632080E+03  0.47000000000E+01 0. -1.
         -5    1    3    3    0  502  0.18890353452E+02  0.52132100215E+02  0.19193740227E+03  0.19984158155E+03  0.47000000000E+01 0.  1.
        -11    1    1    2    0    0 -0.20688439758E+02 -0.21742589112E+02 -0.16282576957E+03  0.16556866538E+03  0.00000000000E+00 0.  1.
         11    1    1    2    0    0  0.14262714620E+02  0.29494155840E+02 -0.35874305068E+02  0.48582877860E+02  0.00000000000E+00 0. -1.
<mgrwt>
<rscale>  0 0.10973878E+03</rscale>
<asrwt>0</asrwt>
<pdfrwt beam="1">  1        1 0.90870864E-01 0.12199805E+03</pdfrwt>
<pdfrwt beam="2">  1       -1 0.32739819E-01 0.12199805E+03</pdfrwt>
<totfact> 0.32426429E+02</totfact>
</mgrwt>
</event>
<event>
 7    1  0.5206756E-006  0.1749784E+03  0.7546771E-02  0.1178634E+00
         -1   -1    0    0    0  501 -0.00000000000E+00  0.00000000000E+00  0.18284789956E+02  0.18284789956E+02  0.00000000000E+00 0.  1.
          1   -1    0    0  501    0  0.00000000000E+00 -0.00000000000E+00 -0.14847746831E+04  0.14847746831E+04  0.00000000000E+00 0. -1.
         23    2    1    2    0    0 -0.77548724265E+02 -0.94769236813E+02 -0.85067700274E+03  0.86848650439E+03  0.12498972930E+03 0.  0.
          5    1    3    3  502    0 -0.44179918420E+02 -0.11989350925E+03 -0.71846495965E+03  0.72975359335E+03  0.47000000000E+01 0. -1.
         -5    1    3    3    0  502 -0.33368805844E+02  0.25124272435E+02 -0.13221204309E+03  0.13873291104E+03  0.47000000000E+01 0. -1.
        -11    1    1    2    0    0  0.14761945861E+02  0.11200828896E+02 -0.12689322274E+02  0.22458684586E+02  0.00000000000E+00 0.  1.
         11    1    1    2    0    0  0.62786778404E+02  0.83568407917E+02 -0.60312356815E+03  0.61211428411E+03  0.00000000000E+00 0. -1.
<mgrwt>
<rscale>  0 0.16924786E+03</rscale>
<asrwt>0</asrwt>
<pdfrwt beam="2">  1        1 0.22842694E+00 0.17497841E+03</pdfrwt>
<pdfrwt beam="1">  1       -1 0.28130438E-02 0.17497841E+03</pdfrwt>
<totfact> 0.30254892E+03</totfact>
</mgrwt>
</event>
<event>
 6    1  0.5206756E-006  0.2540283E+03  0.7546771E-02  0.1145330E+00
         -1   -1    0    0    0  501 -0.00000000000E+00  0.00000000000E+00  0.18786907184E+02  0.18786907184E+02  0.00000000000E+00 0.  1.
          1   -1    0    0  501    0  0.00000000000E+00 -0.00000000000E+00 -0.17944128318E+04  0.17944128318E+04  0.00000000000E+00 0. -1.
          5    1    1    2  502    0 -0.71589172413E+02  0.77945070708E+02 -0.42111685737E+03  0.43423719465E+03  0.47000000000E+01 0. -1.
         -5    1    1    2    0  502  0.12670905015E+03 -0.58777125456E+02 -0.94805780839E+03  0.95830351764E+03  0.47000000000E+01 0.  1.
        -11    1    1    2    0    0 -0.33755756085E+02 -0.53683309099E+02 -0.18630501477E+03  0.19680169530E+03  0.00000000000E+00 0. -1.
         11    1    1    2    0    0 -0.21364121652E+02  0.34515363848E+02 -0.22014624413E+03  0.22385733144E+03  0.00000000000E+00 0.  1.
<mgrwt>
<rscale>  0 0.20531596E+03</rscale>
<asrwt>0</asrwt>
<pdfrwt beam="2">  1        1 0.27606347E+00 0.25402829E+03</pdfrwt>
<pdfrwt beam="1">  1       -1 0.28902938E-02 0.25402829E+03</pdfrwt>
<totfact> 0.18292220E+03</totfact>
</mgrwt>
</event>
<event>
 7    1  0.5206756E-006  0.1429681E+03  0.7546771E-02  0.1219156E+00
         -2   -1    0    0    0  501 -0.00000000000E+00  0.00000000000E+00  0.18666839353E+02  0.18666839353E+02  0.00000000000E+00 0.  1.
          2   -1    0    0  501    0  0.00000000000E+00 -0.00000000000E+00 -0.17512374246E+04  0.17512374246E+04  0.00000000000E+00 0. -1.
         23    2    1    2    0    0 -0.56241863238E+02 -0.40591963670E+02 -0.15275752862E+04  0.15342510034E+04  0.12501612641E+03 0.  0.
          5    1    3    3  502    0 -0.37341683864E+02 -0.29752277190E+02 -0.14884439669E+04  0.14892169526E+04  0.47000000000E+01 0.  1.
         -5    1    3    3    0  502 -0.18900179374E+02 -0.10839686480E+02 -0.39131319250E+02  0.45034050779E+02  0.47000000000E+01 0.  1.
        -11    1    1    2    0    0  0.65900164254E+02 -0.82736861116E+01 -0.11771224068E+03  0.13515715718E+03  0.00000000000E+00 0. -1.
         11    1    1    2    0    0 -0.96583010158E+01  0.48865649781E+02 -0.87283058381E+02  0.10049610334E+03  0.00000000000E+00 0.  1.
<mgrwt>
<rscale>  0 0.13575595E+03</rscale>
<asrwt>0</asrwt>
<pdfrwt beam="2">  1        2 0.26942110E+00 0.14296813E+03</pdfrwt>
<pdfrwt beam="1">  1       -2 0.28718219E-02 0.14296813E+03</pdfrwt>
<totfact> 0.45046593E+03</totfact>
</mgrwt>
</event>
<event>
 7    1  0.5206756E-006  0.1779855E+03  0.7546771E-02  0.1175449E+00
         -2   -1    0    0    0  501 -0.00000000000E+00  0.00000000000E+00  0.36642978098E+02  0.36642978098E+02  0.00000000000E+00 0. -1.
          2   -1    0    0  501    0  0.00000000000E+00 -0.00000000000E+00 -0.76732544426E+03  0.76732544426E+03  0.00000000000E+00 0.  1.
         23    2    1    2    0    0 -0.17839140462E+02 -0.12544085812E+03 -0.41964003948E+03  0.45582519241E+03  0.12500079795E+03 0.  0.
          5    1    3    3  502    0  0.30557689364E+02 -0.52577421943E+02 -0.30768668644E+03  0.31367394647E+03  0.47000000000E+01 0.  1.
         -5    1    3    3    0  502 -0.48396829826E+02 -0.72863436178E+02 -0.11195335303E+03  0.14215124595E+03  0.47000000000E+01 0.  1.
        -11    1    1    2    0    0 -0.21381286417E+02  0.96499981826E+02 -0.25708080558E+03  0.27542684418E+03  0.00000000000E+00 0.  1.
         11    1    1    2    0    0  0.39220426879E+02  0.28940876295E+02 -0.53961621105E+02  0.72716385757E+02  0.00000000000E+00 0. -1.
<mgrwt>
<rscale>  0 0.17232067E+03</rscale>
<asrwt>0</asrwt>
<pdfrwt beam="2">  1        2 0.11805005E+00 0.17798551E+03</pdfrwt>
<pdfrwt beam="1">  1       -2 0.56373819E-02 0.17798551E+03</pdfrwt>
<totfact> 0.59735652E+03</totfact>
</mgrwt>
</event>
<event>
 7    1  0.5206756E-006  0.1563509E+03  0.7546771E-02  0.1200984E+00
         -1   -1    0    0    0  501 -0.00000000000E+00  0.00000000000E+00  0.31587682643E+02  0.31587682643E+02  0.00000000000E+00 0.  1.
          1   -1    0    0  501    0  0.00000000000E+00 -0.00000000000E+00 -0.71578296614E+03  0.71578296614E+03  0.00000000000E+00 0. -1.
         23    2    1    2    0    0 -0.39433744382E+02 -0.85239230645E+02 -0.47951306822E+03  0.50435939055E+03  0.12499946241E+03 0.  0.
          5    1    3    3  502    0 -0.24485673402E+02  0.79563218419E+01 -0.14660484983E+02  0.29997851242E+02  0.47000000000E+01 0.  1.
         -5    1    3    3    0  502 -0.14948070980E+02 -0.93195552487E+02 -0.46485258324E+03  0.47436153931E+03  0.47000000000E+01 0.  1.
        -11    1    1    2    0    0  0.70163782769E+01  0.96348634058E+02 -0.14636583126E+03  0.17537173492E+03  0.00000000000E+00 0.  1.
         11    1    1    2    0    0  0.32417366105E+02 -0.11109403412E+02 -0.58316384015E+02  0.67639523312E+02  0.00000000000E+00 0. -1.
<mgrwt>
<rscale>  0 0.14958531E+03</rscale>
<asrwt>0</asrwt>
<pdfrwt beam="2">  1        1 0.11012046E+00 0.15635093E+03</pdfrwt>
<pdfrwt beam="1">  1       -1 0.48596434E-02 0.15635093E+03</pdfrwt>
<totfact> 0.48923584E+03</totfact>
</mgrwt>
</event>
<event>
 7    1  0.5206756E-006  0.1448522E+03  0.7546771E-02  0.1217287E+00
          2   -1    0    0  501    0  0.00000000000E+00  0.00000000000E+00  0.24822834271E+04  0.24822834271E+04  0.00000000000E+00 0. -1.
         -2   -1    0    0    0  501 -0.00000000000E+00 -0.00000000000E+00 -0.85952994856E+01  0.85952994856E+01  0.00000000000E+00 0.  1.
         23    2    1    2    0    0 -0.62725336134E+02  0.37715960449E+02  0.19011204784E+04  0.19066308606E+04  0.12500081448E+03 0.  0.
          5    1    3    3  502    0 -0.57961256006E+02 -0.10553080439E+02  0.16361196149E+04  0.16371867208E+04  0.47000000000E+01 0.  1.
         -5    1    3    3    0  502 -0.47640801278E+01  0.48269040888E+02  0.26500086353E+03  0.26944413974E+03  0.47000000000E+01 0.  1.
        -11    1    1    2    0    0  0.75541597731E+02  0.37248535824E+00  0.39904432366E+03  0.40613180616E+03  0.00000000000E+00 0.  1.
         11    1    1    2    0    0 -0.12816261597E+02 -0.38088445807E+02  0.17352332553E+03  0.17811605983E+03  0.00000000000E+00 0. -1.
<mgrwt>
<rscale>  0 0.13709867E+03</rscale>
<asrwt>0</asrwt>
<pdfrwt beam="1">  1        2 0.38188919E+00 0.14485222E+03</pdfrwt>
<pdfrwt beam="2">  1       -2 0.13223557E-02 0.14485222E+03</pdfrwt>
<totfact> 0.58117529E+03</totfact>
</mgrwt>
</event>
<event>
 6    1  0.5206756E-006  0.2251226E+03  0.7546771E-02  0.1154609E+00
          1   -1    0    0  501    0  0.00000000000E+00  0.00000000000E+00  0.13436957345E+04  0.13436957345E+04  0.00000000000E+00 0. -1.
         -1   -1    0    0    0  501 -0.00000000000E+00 -0.00000000000E+00 -0.23637581269E+02  0.23637581269E+02  0.00000000000E+00 0.  1.
          5    1    1    2  502    0 -0.50501492222E+02  0.60001702275E+02  0.57159322493E+03  0.57696751189E+03  0.47000000000E+01 0. -1.
         -5    1    1    2    0  502  0.12702011935E+03 -0.20602593371E+02  0.39341183273E+03  0.41394871386E+03  0.47000000000E+01 0.  1.
        -11    1    1    2    0    0 -0.66222459621E+02  0.46298924397E+01  0.28793690259E+03  0.29549028738E+03  0.00000000000E+00 0. -1.
         11    1    1    2    0    0 -0.10296167511E+02 -0.44029001343E+02  0.67116192972E+02  0.80926802629E+02  0.00000000000E+00 0.  1.
<mgrwt>
<rscale>  0 0.19433422E+03</rscale>
<asrwt>0</asrwt>
<pdfrwt beam="1">  1        1 0.20672236E+00 0.22512264E+03</pdfrwt>
<pdfrwt beam="2">  1       -1 0.36365520E-02 0.22512264E+03</pdfrwt>
<totfact> 0.25792666E+03</totfact>
</mgrwt>
</event>
<event>
 7    1  0.5206756E-006  0.1437656E+03  0.7546771E-02  0.1219115E+00
         -1   -1    0    0    0  501 -0.00000000000E+00  0.00000000000E+00  0.41974188735E+02  0.41974188735E+02  0.00000000000E+00 0.  1.
          1   -1    0    0  501    0  0.00000000000E+00 -0.00000000000E+00 -0.42665930228E+03  0.42665930228E+03  0.00000000000E+00 0. -1.
         23    2    1    2    0    0  0.45900013373E+02  0.54188729927E+02 -0.27411126654E+03  0.30952467441E+03  0.12500123180E+03 0.  0.
          5    1    3    3  502    0  0.27312670281E+02  0.82437740737E+02 -0.10193197120E+03  0.13399320806E+03  0.47000000000E+01 0.  1.
         -5    1    3    3    0  502  0.18587343092E+02 -0.28249010810E+02 -0.17217929534E+03  0.17553146635E+03  0.47000000000E+01 0.  1.
        -11    1    1    2    0    0 -0.22987253988E+02 -0.27321827009E+02  0.69667173229E+01  0.36378994314E+02  0.00000000000E+00 0.  1.
         11    1    1    2    0    0 -0.22912759385E+02 -0.26866902918E+02 -0.11754056433E+03  0.12272982229E+03  0.00000000000E+00 0. -1.
<mgrwt>
<rscale>  0 0.13578589E+03</rscale>
<asrwt>0</asrwt>
<pdfrwt beam="2">  1        1 0.65639892E-01 0.14376556E+03</pdfrwt>
<pdfrwt beam="1">  1       -1 0.64575676E-02 0.14376556E+03</pdfrwt>
<totfact> 0.63976540E+03</totfact>
</mgrwt>
</event>
<event>
 6    1  0.5206756E-006  0.2567986E+03  0.7546771E-02  0.1109082E+00
         -1   -1    0    0    0  501 -0.00000000000E+00  0.00000000000E+00  0.15885981769E+02  0.15885981769E+02  0.00000000000E+00 0.  1.
          1   -1    0    0  501    0  0.00000000000E+00 -0.00000000000E+00 -0.10377942390E+04  0.10377942390E+04  0.00000000000E+00 0. -1.
          5    1    1    2  502    0  0.48733744448E+02 -0.28358471887E+02 -0.64663161616E+03  0.64910223986E+03  0.47000000000E+01 0. -1.
         -5    1    1    2    0  502  0.62158128512E+01 -0.34307127858E+01  0.42395741025E+01  0.95115775868E+01  0.47000000000E+01 0.  1.
        -11    1    1    2    0    0 -0.33553701057E+02 -0.29443709229E+02 -0.14189547762E+03  0.14875183843E+03  0.00000000000E+00 0.  1.
         11    1    1    2    0    0 -0.21395856242E+02  0.61232893902E+02 -0.23762073752E+03  0.24631456485E+03  0.00000000000E+00 0. -1.
<mgrwt>
<rscale>  0 0.25679860E+03</rscale>
<asrwt>0</asrwt>
<pdfrwt beam="2">  1        1 0.15966070E+00 0.25679860E+03</pdfrwt>
<pdfrwt beam="1">  1       -1 0.24439965E-02 0.25679860E+03</pdfrwt>
<totfact> 0.76281565E+03</totfact>
</mgrwt>
</event>
<event>
 7    1  0.5206756E-006  0.1494177E+03  0.7546771E-02  0.1210104E+00
          2   -1    0    0  501    0  0.00000000000E+00  0.00000000000E+00  0.83165951400E+03  0.83165951400E+03  0.00000000000E+00 0. -1.
         -2   -1    0    0    0  501 -0.00000000000E+00 -0.00000000000E+00 -0.37464315119E+02  0.37464315119E+02  0.00000000000E+00 0.  1.
         23    2    1    2    0    0  0.26777244849E+01  0.86013138541E+02  0.69488365695E+03  0.71076645719E+03  0.12214839240E+03 0.  0.
          5    1    3    3  502    0  0.50509906274E+02  0.49109874879E+02  0.53755091665E+03  0.54216797068E+03  0.47000000000E+01 0. -1.
         -5    1    3    3    0  502 -0.47832181789E+02  0.36903263662E+02  0.15733274030E+03  0.16859848651E+03  0.47000000000E+01 0. -1.
        -11    1    1    2    0    0  0.24907385462E+02  0.36409686836E+01  0.56453466345E+01  0.25797372776E+02  0.00000000000E+00 0.  1.
         11    1    1    2    0    0 -0.27585109947E+02 -0.89654107225E+02  0.93666195295E+02  0.13255999915E+03  0.00000000000E+00 0. -1.
<mgrwt>
<rscale>  0 0.14242395E+03</rscale>
<asrwt>0</asrwt>
<pdfrwt beam="1">  1        2 0.12794760E+00 0.14941774E+03</pdfrwt>
<pdfrwt beam="2">  1       -2 0.57637414E-02 0.14941774E+03</pdfrwt>
<totfact> 0.51835104E+03</totfact>
</mgrwt>
</event>
<event>
 7    1  0.5206756E-006  0.1537991E+03  0.7546771E-02  0.1205122E+00
         -2   -1    0    0    0  501 -0.00000000000E+00  0.00000000000E+00  0.20323054782E+03  0.20323054782E+03  0.00000000000E+00 0.  1.
          2   -1    0    0  501    0  0.00000000000E+00 -0.00000000000E+00 -0.13624405856E+03  0.13624405856E+03  0.00000000000E+00 0. -1.
         23    2    1    2    0    0 -0.13494265303E+02 -0.88603066555E+02 -0.55837331762E+02  0.16362141637E+03  0.12498624595E+03 0.  0.
          5    1    3    3  502    0  0.17128300329E+02 -0.99003270695E+02 -0.75243760150E+02  0.12561345359E+03  0.47000000000E+01 0.  1.
         -5    1    3    3    0  502 -0.30622565633E+02  0.10400204139E+02  0.19406428388E+02  0.38007962782E+02  0.47000000000E+01 0.  1.
        -11    1    1    2    0    0  0.31450012666E+02  0.18249302272E+02  0.88220875931E+02  0.95420455250E+02  0.00000000000E+00 0. -1.
         11    1    1    2    0    0 -0.17955747363E+02  0.70353764284E+02  0.34602945095E+02  0.80432734763E+02  0.00000000000E+00 0.  1.
<mgrwt>
<rscale>  0 0.14627837E+03</rscale>
<asrwt>0</asrwt>
<pdfrwt beam="2">  1        2 0.20960624E-01 0.15379909E+03</pdfrwt>
<pdfrwt beam="1">  1       -2 0.31266238E-01 0.15379909E+03</pdfrwt>
<totfact> 0.24271128E+03</totfact>
</mgrwt>
</event>
<event>
 7    1  0.5206756E-006  0.1250440E+03  0.7546771E-02  0.1250465E+00
         -1   -1    0    0    0  501 -0.00000000000E+00  0.00000000000E+00  0.13713312513E+03  0.13713312513E+03  0.00000000000E+00 0.  1.
          1   -1    0    0  501    0  0.00000000000E+00 -0.00000000000E+00 -0.90141465624E+02  0.90141465624E+02  0.00000000000E+00 0. -1.
         23    2    1    2    0    0 -0.11787284507E+01 -0.30986745881E+01  0.13488556664E+01  0.12505130822E+03  0.12500007636E+03 0.  0.
          5    1    3    3  502    0 -0.39302328102E+02  0.47006557438E+02  0.60041471597E+01  0.61744872010E+02  0.47000000000E+01 0. -1.
         -5    1    3    3    0  502  0.38123599651E+02 -0.50105232026E+02 -0.46552914933E+01  0.63306436210E+02  0.47000000000E+01 0. -1.
        -11    1    1    2    0    0 -0.30351278886E+02 -0.92137377277E+01 -0.13186801540E+02  0.34350907234E+02  0.00000000000E+00 0. -1.
         11    1    1    2    0    0  0.31530007337E+02  0.12312412316E+02  0.58829605379E+02  0.67872375299E+02  0.00000000000E+00 0.  1.
<mgrwt>
<rscale>  0 0.11564161E+03</rscale>
<asrwt>0</asrwt>
<pdfrwt beam="2">  1        1 0.13867918E-01 0.12504403E+03</pdfrwt>
<pdfrwt beam="1">  1       -1 0.21097404E-01 0.12504403E+03</pdfrwt>
<totfact> 0.71834220E+03</totfact>
</mgrwt>
</event>
<event>
 7    1  0.5206756E-006  0.2716030E+03  0.7546771E-02  0.1102300E+00
         -2   -1    0    0    0  501 -0.00000000000E+00  0.00000000000E+00  0.80176594457E+03  0.80176594457E+03  0.00000000000E+00 0.  1.
          2   -1    0    0  501    0  0.00000000000E+00 -0.00000000000E+00 -0.87626843785E+02  0.87626843785E+02  0.00000000000E+00 0. -1.
         23    2    1    2    0    0  0.12333014791E+03  0.20720192829E+03  0.37732058577E+03  0.46490753998E+03  0.12500092726E+03 0.  0.
          5    1    3    3  502    0  0.84215209581E+02  0.34362544067E+02  0.95488427847E+02  0.13195876558E+03  0.47000000000E+01 0.  1.
         -5    1    3    3    0  502  0.39114938330E+02  0.17283938422E+03  0.28183215792E+03  0.33294877440E+03  0.47000000000E+01 0.  1.
        -11    1    1    2    0    0 -0.63146710972E+02 -0.42998582334E+02  0.60398520723E+02  0.97387712237E+02  0.00000000000E+00 0.  1.
         11    1    1    2    0    0 -0.60183436939E+02 -0.16420334595E+03  0.27641999429E+03  0.32709753614E+03  0.00000000000E+00 0. -1.
<mgrwt>
<rscale>  0 0.26822548E+03</rscale>
<asrwt>0</asrwt>
<pdfrwt beam="2">  1        2 0.13481053E-01 0.27160301E+03</pdfrwt>
<pdfrwt beam="1">  1       -2 0.12334860E+00 0.27160301E+03</pdfrwt>
<totfact> 0.23057062E+02</totfact>
</mgrwt>
</event>
<event>
 7    1  0.5206756E-006  0.1479803E+03  0.7546771E-02  0.1212193E+00
         -2   -1    0    0    0  501 -0.00000000000E+00  0.00000000000E+00  0.20832616314E+02  0.20832616314E+02  0.00000000000E+00 0.  1.
          2   -1    0    0  501    0  0.00000000000E+00 -0.00000000000E+00 -0.88231043998E+03  0.88231043998E+03  0.00000000000E+00 0. -1.
         23    2    1    2    0    0 -0.63976361372E+02  0.46707919850E+02 -0.52323708292E+03  0.54376026733E+03  0.12499431504E+03 0.  0.
          5    1    3    3  502    0  0.27611713883E+02  0.39622335889E+02 -0.27022813417E+03  0.27454994216E+03  0.47000000000E+01 0.  1.
         -5    1    3    3    0  502 -0.91588075255E+02  0.70855839611E+01 -0.25300894875E+03  0.26921032517E+03  0.47000000000E+01 0.  1.
        -11    1    1    2    0    0  0.80246820558E+02 -0.18973749387E+02 -0.18114804856E+03  0.19903308989E+03  0.00000000000E+00 0.  1.
         11    1    1    2    0    0 -0.16270459186E+02 -0.27734170463E+02 -0.15709269219E+03  0.16034969907E+03  0.00000000000E+00 0. -1.
<mgrwt>
<rscale>  0 0.14084747E+03</rscale>
<asrwt>0</asrwt>
<pdfrwt beam="2">  1        2 0.13574005E+00 0.14798035E+03</pdfrwt>
<pdfrwt beam="1">  1       -2 0.32050184E-02 0.14798035E+03</pdfrwt>
<totfact> 0.11546736E+04</totfact>
</mgrwt>
</event>
<event>
 7    1  0.5206756E-006  0.1256065E+03  0.7546771E-02  0.1248856E+00
         -1   -1    0    0    0  501 -0.00000000000E+00  0.00000000000E+00  0.10739037446E+02  0.10739037446E+02  0.00000000000E+00 0.  1.
          1   -1    0    0  501    0  0.00000000000E+00 -0.00000000000E+00 -0.12432018033E+04  0.12432018033E+04  0.00000000000E+00 0. -1.
         23    2    1    2    0    0  0.68098911792E+01 -0.10438310645E+02 -0.89781478439E+03  0.90655853059E+03  0.12498659680E+03 0.  0.
          5    1    3    3  502    0  0.55990527467E+02 -0.38260163316E+02 -0.43409071760E+03  0.43938095131E+03  0.47000000000E+01 0.  1.
         -5    1    3    3    0  502 -0.49180636288E+02  0.27821852671E+02 -0.46372406678E+03  0.46717757928E+03  0.47000000000E+01 0.  1.
        -11    1    1    2    0    0 -0.39317506901E+02 -0.22069423386E+02 -0.12881970636E+03  0.13648238914E+03  0.00000000000E+00 0.  1.
         11    1    1    2    0    0  0.32507615721E+02  0.32507734031E+02 -0.20582827511E+03  0.21089992102E+03  0.00000000000E+00 0. -1.
<mgrwt>
<rscale>  0 0.11657527E+03</rscale>
<asrwt>0</asrwt>
<pdfrwt beam="2">  1        1 0.19126191E+00 0.12560646E+03</pdfrwt>
<pdfrwt beam="1">  1       -1 0.16521588E-02 0.12560646E+03</pdfrwt>
<totfact> 0.93563792E+03</totfact>
</mgrwt>
</event>
<event>
 7    1  0.5206756E-006  0.1483878E+03  0.7546771E-02  0.1207389E+00
          1   -1    0    0  501    0  0.00000000000E+00  0.00000000000E+00  0.71047847605E+03  0.71047847605E+03  0.00000000000E+00 0. -1.
         -1   -1    0    0    0  501 -0.00000000000E+00 -0.00000000000E+00 -0.32939420457E+02  0.32939420457E+02  0.00000000000E+00 0.  1.
         23    2    1    2    0    0  0.98490787971E+02 -0.10456665869E+01  0.49843043087E+03  0.52004984074E+03  0.11098384431E+03 0.  0.
          5    1    3    3  502    0  0.11852251094E+03 -0.15392814828E+02  0.35957570550E+03  0.37894762479E+03  0.47000000000E+01 0. -1.
         -5    1    3    3    0  502 -0.20031722967E+02  0.14347148241E+02  0.13885472537E+03  0.14110221594E+03  0.47000000000E+01 0.  1.
        -11    1    1    2    0    0 -0.41714786154E+02  0.33443212515E+02  0.31802480220E+02  0.62209079686E+02  0.00000000000E+00 0.  1.
         11    1    1    2    0    0 -0.56776001817E+02 -0.32397545928E+02  0.14730614450E+03  0.16115897608E+03  0.00000000000E+00 0. -1.
<mgrwt>
<rscale>  0 0.14450803E+03</rscale>
<asrwt>0</asrwt>
<pdfrwt beam="1">  1        1 0.10930437E+00 0.14838781E+03</pdfrwt>
<pdfrwt beam="2">  1       -1 0.50676037E-02 0.14838781E+03</pdfrwt>
<totfact> 0.46367172E+03</totfact>
</mgrwt>
</event>
<event>
 7    1  0.5206756E-006  0.1338834E+03  0.7546771E-02  0.1233910E+00
          1   -1    0    0  501    0  0.00000000000E+00  0.00000000000E+00  0.15191162989E+04  0.15191162989E+04  0.00000000000E+00 0. -1.
         -1   -1    0    0    0  501 -0.00000000000E+00 -0.00000000000E+00 -0.11367401621E+02  0.11367401621E+02  0.00000000000E+00 0.  1.
         23    2    1    2    0    0  0.16832447159E+02 -0.44913809346E+02  0.11532034241E+04  0.11609491412E+04  0.12499675759E+03 0.  0.
          5    1    3    3  502    0  0.43922960263E+02  0.29685482021E+02  0.53904452432E+03  0.54166552731E+03  0.47000000000E+01 0. -1.
         -5    1    3    3    0  502 -0.27090513104E+02 -0.74599291367E+02  0.61415889983E+03  0.61928361387E+03  0.47000000000E+01 0. -1.
        -11    1    1    2    0    0 -0.31233660420E+02 -0.20303922182E+02  0.13617336979E+03  0.14117711373E+03  0.00000000000E+00 0.  1.
         11    1    1    2    0    0  0.14401213262E+02  0.65217731529E+02  0.21837210338E+03  0.22835744565E+03  0.00000000000E+00 0. -1.
<mgrwt>
<rscale>  0 0.12574488E+03</rscale>
<asrwt>0</asrwt>
<pdfrwt beam="1">  1        1 0.23371004E+00 0.13388342E+03</pdfrwt>
<pdfrwt beam="2">  1       -1 0.17488322E-02 0.13388342E+03</pdfrwt>
<totfact> 0.56902020E+03</totfact>
</mgrwt>
</event>
<event>
 6    1  0.5206756E-006  0.1755217E+03  0.7546771E-02  0.1188783E+00
         -2   -1    0    0    0  501 -0.00000000000E+00  0.00000000000E+00  0.18093483739E+03  0.18093483739E+03  0.00000000000E+00 0.  1.
          2   -1    0    0  501    0  0.00000000000E+00 -0.00000000000E+00 -0.12841574869E+03  0.12841574869E+03  0.00000000000E+00 0. -1.
          5    1    1    2  502    0 -0.80584076758E+01  0.66651018683E+02 -0.20297977538E+01  0.67331317414E+02  0.47000000000E+01 0. -1.
         -5    1    1    2    0  502 -0.70085642333E+02 -0.82325554281E+02 -0.25597389862E+01  0.10825034140E+03  0.47000000000E+01 0.  1.
        -11    1    1    2    0    0  0.13783913173E+01  0.37441120984E+02  0.34761440981E+01  0.37627398009E+02  0.00000000000E+00 0. -1.
         11    1    1    2    0    0  0.76765658692E+02 -0.21766585386E+02  0.53632481342E+02  0.96141529261E+02  0.00000000000E+00 0.  1.
<mgrwt>
<rscale>  0 0.15992403E+03</rscale>
<asrwt>0</asrwt>
<pdfrwt beam="2">  1        2 0.19756269E-01 0.17552167E+03</pdfrwt>
<pdfrwt beam="1">  1       -2 0.27836129E-01 0.17552167E+03</pdfrwt>
<totfact> 0.32197096E+03</totfact>
</mgrwt>
</event>
<event>
 7    1  0.5206756E-006  0.2008156E+03  0.7546771E-02  0.1153126E+00
          1   -1    0    0  501    0  0.00000000000E+00  0.00000000000E+00  0.15953247191E+03  0.15953247191E+03  0.00000000000E+00 0. -1.
         -1   -1    0    0    0  501 -0.00000000000E+00 -0.00000000000E+00 -0.23015758030E+03  0.23015758030E+03  0.00000000000E+00 0.  1.
         23    2    1    2    0    0  0.13517019455E+03  0.80183168243E+02 -0.40057626729E+02  0.20477184092E+03  0.12500628549E+03 0.  0.
          5    1    3    3  502    0  0.78203014059E+02  0.96685567203E+02  0.12915921771E+02  0.12511083625E+03  0.47000000000E+01 0. -1.
         -5    1    3    3    0  502  0.56967180489E+02 -0.16502398960E+02 -0.52973548500E+02  0.79661004669E+02  0.47000000000E+01 0. -1.
        -11    1    1    2    0    0  0.12869124602E+02  0.20377474488E+01 -0.18265182781E+01  0.13156859493E+02  0.00000000000E+00 0. -1.
         11    1    1    2    0    0 -0.14803931915E+03 -0.82220915692E+02 -0.28740963388E+02  0.17176135179E+03  0.00000000000E+00 0.  1.
<mgrwt>
<rscale>  0 0.19603740E+03</rscale>
<asrwt>0</asrwt>
<pdfrwt beam="1">  1        1 0.24543457E-01 0.20081557E+03</pdfrwt>
<pdfrwt beam="2">  1       -1 0.35408859E-01 0.20081557E+03</pdfrwt>
<totfact> 0.14894223E+03</totfact>
</mgrwt>
</event>
<event>
 7    1  0.5206756E-006  0.2423175E+03  0.7546771E-02  0.1120851E+00
          3   -1    0    0  501    0  0.00000000000E+00  0.00000000000E+00  0.69269678556E+03  0.69269678556E+03  0.00000000000E+00 0. -1.
         -3   -1    0    0    0  501 -0.00000000000E+00 -0.00000000000E+00 -0.89028745925E+02  0.89028745925E+02  0.00000000000E+00 0.  1.
         23    2    1    2    0    0  0.19266055770E+03  0.77297028472E+02  0.43822695776E+03  0.50076004953E+03  0.12499935839E+03 0.  0.
          5    1    3    3  502    0  0.38935206293E+02  0.41141757495E+02  0.32769456509E+02  0.65608854424E+02  0.47000000000E+01 0. -1.
         -5    1    3    3    0  502  0.15372535140E+03  0.36155270977E+02  0.40545750125E+03  0.43515119511E+03  0.47000000000E+01 0. -1.
        -11    1    1    2    0    0 -0.95203079082E+02  0.50721167618E+01  0.44717373781E+02  0.10530430263E+03  0.00000000000E+00 0.  1.
         11    1    1    2    0    0 -0.97457478614E+02 -0.82369145234E+02  0.12072370809E+03  0.17566117932E+03  0.00000000000E+00 0. -1.
<mgrwt>
<rscale>  0 0.23841803E+03</rscale>
<asrwt>0</asrwt>
<pdfrwt beam="1">  1        3 0.10656873E+00 0.24231748E+03</pdfrwt>
<pdfrwt beam="2">  1       -3 0.13696731E-01 0.24231748E+03</pdfrwt>
<totfact> 0.84285711E+01</totfact>
</mgrwt>
</event>
<event>
 7    1  0.5206756E-006  0.1266792E+03  0.7546771E-02  0.1247572E+00
          1   -1    0    0  501    0  0.00000000000E+00  0.00000000000E+00  0.77974565346E+02  0.77974565346E+02  0.00000000000E+00 0. -1.
         -1   -1    0    0    0  501 -0.00000000000E+00 -0.00000000000E+00 -0.15510704726E+03  0.15510704726E+03  0.00000000000E+00 0.  1.
         23    2    1    2    0    0  0.61289061715E+01 -0.19526970844E+02 -0.41833190129E+02  0.13340781767E+03  0.12501505485E+03 0.  0.
          5    1    3    3  502    0  0.20021071812E+02 -0.70502837199E+02 -0.27927391842E+02  0.78571767097E+02  0.47000000000E+01 0.  1.
         -5    1    3    3    0  502 -0.13892165641E+02  0.50975866355E+02 -0.13905798287E+02  0.54836050576E+02  0.47000000000E+01 0.  1.
        -11    1    1    2    0    0 -0.21430783244E+02  0.31050538122E+02 -0.58485249978E+02  0.69598411283E+02  0.00000000000E+00 0.  1.
         11    1    1    2    0    0  0.15301877073E+02 -0.11523567277E+02  0.23185958190E+02  0.30075383654E+02  0.00000000000E+00 0. -1.
<mgrwt>
<rscale>  0 0.11732734E+03</rscale>
<asrwt>0</asrwt>
<pdfrwt beam="1">  1        1 0.11996087E-01 0.12667924E+03</pdfrwt>
<pdfrwt beam="2">  1       -1 0.23862622E-01 0.12667924E+03</pdfrwt>
<totfact> 0.71147353E+03</totfact>
</mgrwt>
</event>
<event>
 7    1  0.5206756E-006  0.1287876E+03  0.7546771E-02  0.1244367E+00
          4   -1    0    0  501    0  0.00000000000E+00  0.00000000000E+00  0.29265084934E+03  0.29265084934E+03  0.00000000000E+00 0.  1.
         -4   -1    0    0    0  501 -0.00000000000E+00 -0.00000000000E+00 -0.42660051853E+02  0.42660051853E+02  0.00000000000E+00 0. -1.
         23    2    1    2    0    0  0.30965176380E+02  0.14111710980E+01  0.14802374834E+03  0.19620722063E+03  0.12500163920E+03 0.  0.
          5    1    3    3  502    0  0.47616409967E+02 -0.52990498536E+02  0.75512701018E+02  0.10392099619E+03  0.47000000000E+01 0. -1.
         -5    1    3    3    0  502 -0.16651233587E+02  0.54401669634E+02  0.72511047319E+02  0.92286224444E+02  0.47000000000E+01 0. -1.
        -11    1    1    2    0    0 -0.25946453010E+02  0.41523068568E+02  0.69622483885E+02  0.85115650203E+02  0.00000000000E+00 0. -1.
         11    1    1    2    0    0 -0.50187233696E+01 -0.42934239666E+02  0.32344565263E+02  0.53988030359E+02  0.00000000000E+00 0.  1.
<mgrwt>
<rscale>  0 0.11923366E+03</rscale>
<asrwt>0</asrwt>
<pdfrwt beam="1">  1        4 0.45023206E-01 0.12878759E+03</pdfrwt>
<pdfrwt beam="2">  1       -4 0.65630851E-02 0.12878759E+03</pdfrwt>
<totfact> 0.12003085E+03</totfact>
</mgrwt>
</event>
<event>
 7    1  0.5206756E-006  0.1452056E+03  0.7546771E-02  0.1209412E+00
          2   -1    0    0  501    0  0.00000000000E+00  0.00000000000E+00  0.66966250606E+03  0.66966250606E+03  0.00000000000E+00 0.  1.
         -2   -1    0    0    0  501 -0.00000000000E+00 -0.00000000000E+00 -0.31100855670E+02  0.31100855670E+02  0.00000000000E+00 0. -1.
         23    2    1    2    0    0 -0.48471759347E+01  0.73720400066E+02  0.40561919071E+03  0.43082664108E+03  0.12500589706E+03 0.  0.
          5    1    3    3  502    0 -0.24782763213E+02 -0.14438856636E+02  0.24287902080E+03  0.24461188581E+03  0.47000000000E+01 0. -1.
         -5    1    3    3    0  502  0.19935587279E+02  0.88159256702E+02  0.16274016990E+03  0.18621475528E+03  0.47000000000E+01 0. -1.
        -11    1    1    2    0    0 -0.31519612546E+01  0.27233685848E+02  0.94576789676E+02  0.98470186605E+02  0.00000000000E+00 0.  1.
         11    1    1    2    0    0  0.79991371893E+01 -0.10095408591E+03  0.13836567000E+03  0.17146653404E+03  0.00000000000E+00 0. -1.
<mgrwt>
<rscale>  0 0.14295103E+03</rscale>
<asrwt>0</asrwt>
<pdfrwt beam="1">  1        2 0.10302499E+00 0.14520560E+03</pdfrwt>
<pdfrwt beam="2">  1       -2 0.47847475E-02 0.14520560E+03</pdfrwt>
<totfact> 0.89240407E+03</totfact>
</mgrwt>
</event>
<event>
 7    1  0.5206756E-006  0.1838597E+03  0.7546771E-02  0.1169951E+00
         -1   -1    0    0    0  501 -0.00000000000E+00  0.00000000000E+00  0.13450552582E+03  0.13450552582E+03  0.00000000000E+00 0.  1.
          1   -1    0    0  501    0  0.00000000000E+00 -0.00000000000E+00 -0.22485304198E+03  0.22485304198E+03  0.00000000000E+00 0. -1.
         23    2    1    2    0    0 -0.12885280588E+03  0.39670166211E+02 -0.72286720585E+02  0.19755950991E+03  0.12501048881E+03 0.  0.
          5    1    3    3  502    0 -0.14223943319E+02  0.56435028560E+02 -0.55222346130E+02  0.80366849660E+02  0.47000000000E+01 0.  1.
         -5    1    3    3    0  502 -0.11462886256E+03 -0.16764862349E+02 -0.17064374455E+02  0.11719266025E+03  0.47000000000E+01 0.  1.
        -11    1    1    2    0    0  0.76013107163E+02  0.20834634096E+02  0.25833769154E+01  0.78859040539E+02  0.00000000000E+00 0.  1.
         11    1    1    2    0    0  0.52839698717E+02 -0.60504800306E+02 -0.20644172487E+02  0.82940017352E+02  0.00000000000E+00 0. -1.
<mgrwt>
<rscale>  0 0.17779856E+03</rscale>
<asrwt>0</asrwt>
<pdfrwt beam="2">  1        1 0.34592775E-01 0.18385970E+03</pdfrwt>
<pdfrwt beam="1">  1       -1 0.20693158E-01 0.18385970E+03</pdfrwt>
<totfact> 0.23709944E+03</totfact>
</mgrwt>
</event>
<event>
 7    1  0.5206756E-006  0.2737379E+03  0.7546771E-02  0.1101069E+00
         -2   -1    0    0    0  501 -0.00000000000E+00  0.00000000000E+00  0.10669643278E+03  0.10669643278E+03  0.00000000000E+00 0.  1.
          2   -1    0    0  501    0  0.00000000000E+00 -0.00000000000E+00 -0.67101918334E+03  0.67101918334E+03  0.00000000000E+00 0. -1.
         23    2    1    2    0    0 -0.10370476193E+03  0.22035601965E+03 -0.26657609205E+03  0.38209325234E+03  0.12498394929E+03 0.  0.
          5    1    3    3  502    0 -0.19919117887E+02  0.22713428931E+02 -0.11568492723E+03  0.11965685730E+03  0.47000000000E+01 0. -1.
         -5    1    3    3    0  502 -0.83785644045E+02  0.19764259072E+03 -0.15089116482E+03  0.26243639503E+03  0.47000000000E+01 0. -1.
        -11    1    1    2    0    0  0.94414344602E+02 -0.13136975122E+03 -0.13851060913E+03  0.21297246030E+03  0.00000000000E+00 0.  1.
         11    1    1    2    0    0  0.92904173294E+01 -0.88986268430E+02 -0.15923604938E+03  0.18264990349E+03  0.00000000000E+00 0. -1.
<mgrwt>
<rscale>  0 0.27036852E+03</rscale>
<asrwt>0</asrwt>
<pdfrwt beam="2">  1        2 0.10323372E+00 0.27373790E+03</pdfrwt>
<pdfrwt beam="1">  1       -2 0.16414836E-01 0.27373790E+03</pdfrwt>
<totfact> 0.13007098E+03</totfact>
</mgrwt>
</event>
<event>
 7    1  0.5206756E-006  0.2101220E+03  0.7546771E-02  0.1145010E+00
         -2   -1    0    0    0  501 -0.00000000000E+00  0.00000000000E+00  0.30924197832E+02  0.30924197832E+02  0.00000000000E+00 0.  1.
          2   -1    0    0  501    0  0.00000000000E+00 -0.00000000000E+00 -0.13296539909E+04  0.13296539909E+04  0.00000000000E+00 0. -1.
         23    2    1    2    0    0  0.15176685869E+03  0.74116982048E+02 -0.60254831176E+03  0.63813457213E+03  0.12499903085E+03 0.  0.
          5    1    3    3  502    0  0.12281271220E+03  0.69634139031E+02 -0.27419014124E+03  0.30843832309E+03  0.47000000000E+01 0.  1.
         -5    1    3    3    0  502  0.28954146482E+02  0.44828430165E+01 -0.32835817053E+03  0.32969624904E+03  0.47000000000E+01 0.  1.
        -11    1    1    2    0    0 -0.71191445406E+02  0.13054767334E+02 -0.21587430424E+03  0.22768479106E+03  0.00000000000E+00 0.  1.
         11    1    1    2    0    0 -0.80575413280E+02 -0.87171749382E+02 -0.48030717711E+03  0.49475882559E+03  0.00000000000E+00 0. -1.
<mgrwt>
<rscale>  0 0.20570904E+03</rscale>
<asrwt>0</asrwt>
<pdfrwt beam="2">  1        2 0.20456211E+00 0.21012202E+03</pdfrwt>
<pdfrwt beam="1">  1       -2 0.47575698E-02 0.21012202E+03</pdfrwt>
<totfact> 0.35554666E+03</totfact>
</mgrwt>
</event>
<event>
 6    1  0.5206756E-006  0.1560610E+03  0.7546771E-02  0.1254062E+00
          2   -1    0    0  501    0  0.00000000000E+00  0.00000000000E+00  0.92352511147E+03  0.92352511147E+03  0.00000000000E+00 0. -1.
         -2   -1    0    0    0  501 -0.00000000000E+00 -0.00000000000E+00 -0.21287079041E+02  0.21287079041E+02  0.00000000000E+00 0.  1.
          5    1    1    2  502    0 -0.35387469901E+02  0.90100044322E+02  0.63394869217E+03  0.64131374951E+03  0.47000000000E+01 0. -1.
         -5    1    1    2    0  502  0.15937854524E+02 -0.53983339752E+02  0.24954215308E+03  0.25585463126E+03  0.47000000000E+01 0.  1.
        -11    1    1    2    0    0  0.63987374089E+01 -0.11511076524E+02 -0.14348481631E+01  0.13247924835E+02  0.00000000000E+00 0. -1.
         11    1    1    2    0    0  0.13050877968E+02 -0.24605628046E+02  0.20182035352E+02  0.34395884903E+02  0.00000000000E+00 0.  1.
<mgrwt>
<rscale>  0 0.11359005E+03</rscale>
<asrwt>0</asrwt>
<pdfrwt beam="1">  1        2 0.14208076E+00 0.15606098E+03</pdfrwt>
<pdfrwt beam="2">  1       -2 0.32749360E-02 0.15606098E+03</pdfrwt>
<totfact> 0.10565106E+04</totfact>
</mgrwt>
</event>
<event>
 7    1  0.5206756E-006  0.1326531E+03  0.7546771E-02  0.1236609E+00
         -2   -1    0    0    0  501 -0.00000000000E+00  0.00000000000E+00  0.56146178096E+03  0.56146178096E+03  0.00000000000E+00 0.  1.
          2   -1    0    0  501    0  0.00000000000E+00 -0.00000000000E+00 -0.24384204540E+02  0.24384204540E+02  0.00000000000E+00 0. -1.
         23    2    1    2    0    0  0.33455274428E+02  0.29192418571E+02  0.30125551838E+03  0.32916823442E+03  0.12500154603E+03 0.  0.
          5    1    3    3  502    0  0.30842416419E+02  0.76890311373E+02  0.16470044218E+03  0.18442261327E+03  0.47000000000E+01 0. -1.
         -5    1    3    3    0  502  0.26128580092E+01 -0.47697892802E+02  0.13655507620E+03  0.14474562115E+03  0.47000000000E+01 0. -1.
        -11    1    1    2    0    0  0.22812488578E+02 -0.14834783483E+02  0.21652756082E+02  0.34775311387E+02  0.00000000000E+00 0. -1.
         11    1    1    2    0    0 -0.56267763006E+02 -0.14357635088E+02  0.21416930195E+03  0.22190243969E+03  0.00000000000E+00 0.  1.
<mgrwt>
<rscale>  0 0.12402003E+03</rscale>
<asrwt>0</asrwt>
<pdfrwt beam="2">  1        2 0.37514165E-02 0.13265308E+03</pdfrwt>
<pdfrwt beam="1">  1       -2 0.86378726E-01 0.13265308E+03</pdfrwt>
<totfact> 0.26468579E+03</totfact>
</mgrwt>
</event>
<event>
 7    1  0.5206756E-006  0.1684784E+03  0.7546771E-02  0.1186196E+00
         -1   -1    0    0    0  501 -0.00000000000E+00  0.00000000000E+00  0.75779633760E+02  0.75779633760E+02  0.00000000000E+00 0.  1.
          1   -1    0    0  501    0  0.00000000000E+00 -0.00000000000E+00 -0.40082645029E+03  0.40082645029E+03  0.00000000000E+00 0. -1.
         23    2    1    2    0    0 -0.10988102833E+03  0.26197692082E+02 -0.27657545884E+03  0.32385019723E+03  0.12499922543E+03 0.  0.
          5    1    3    3  502    0 -0.12848724926E+03  0.24388661652E+02 -0.27495112253E+03  0.30450614086E+03  0.47000000000E+01 0. -1.
         -5    1    3    3    0  502  0.18606220932E+02  0.18090304298E+01 -0.16243363052E+01  0.19344056371E+02  0.47000000000E+01 0. -1.
        -11    1    1    2    0    0  0.13599224019E+02 -0.12819435059E+02  0.24781306619E+02  0.31038523916E+02  0.00000000000E+00 0.  1.
         11    1    1    2    0    0  0.96281804314E+02 -0.13378257023E+02 -0.73252664312E+02  0.12171736290E+03  0.00000000000E+00 0. -1.
<mgrwt>
<rscale>  0 0.16223572E+03</rscale>
<asrwt>0</asrwt>
<pdfrwt beam="2">  1        1 0.61665609E-01 0.16847838E+03</pdfrwt>
<pdfrwt beam="1">  1       -1 0.11658405E-01 0.16847838E+03</pdfrwt>
<totfact> 0.28419310E+03</totfact>
</mgrwt>
</event>
<event>
 7    1  0.5206756E-006  0.2348871E+03  0.7546771E-02  0.1126099E+00
          1   -1    0    0  501    0  0.00000000000E+00  0.00000000000E+00  0.94818985491E+03  0.94818985491E+03  0.00000000000E+00 0. -1.
         -1   -1    0    0    0  501 -0.00000000000E+00 -0.00000000000E+00 -0.55283539600E+02  0.55283539600E+02  0.00000000000E+00 0.  1.
         23    2    1    2    0    0 -0.11893295625E+03 -0.15937783975E+03  0.52947448285E+03  0.57923673319E+03  0.12500248477E+03 0.  0.
          5    1    3    3  502    0 -0.11513869335E+03 -0.10402821481E+03  0.25007851626E+03  0.29434697634E+03  0.47000000000E+01 0.  1.
         -5    1    3    3    0  502 -0.37942628986E+01 -0.55349624940E+02  0.27939596659E+03  0.28488975685E+03  0.47000000000E+01 0.  1.
        -11    1    1    2    0    0  0.68652154683E+02  0.14751738882E+03  0.23525739030E+03  0.28604289545E+03  0.00000000000E+00 0.  1.
         11    1    1    2    0    0  0.50280801568E+02  0.11860450928E+02  0.12817444216E+03  0.13819376587E+03  0.00000000000E+00 0. -1.
<mgrwt>
<rscale>  0 0.23077014E+03</rscale>
<asrwt>0</asrwt>
<pdfrwt beam="1">  1        1 0.14587535E+00 0.23488713E+03</pdfrwt>
<pdfrwt beam="2">  1       -1 0.85051606E-02 0.23488713E+03</pdfrwt>
<totfact> 0.13727536E+03</totfact>
</mgrwt>
</event>
<event>
 7    1  0.5206756E-006  0.1276861E+03  0.7546771E-02  0.1246470E+00
          2   -1    0    0  501    0  0.00000000000E+00  0.00000000000E+00  0.12917600694E+04  0.12917600694E+04  0.00000000000E+00 0. -1.
         -2   -1    0    0    0  501 -0.00000000000E+00 -0.00000000000E+00 -0.99288637062E+01  0.99288637062E+01  0.00000000000E+00 0.  1.
         23    2    1    2    0    0  0.14485241936E+02 -0.21687653917E+02  0.88042422668E+03  0.88963506856E+03  0.12499423879E+03 0.  0.
          5    1    3    3  502    0 -0.49650300429E+01  0.51403640176E+02  0.36985438489E+03  0.37347200935E+03  0.47000000000E+01 0.  1.
         -5    1    3    3    0  502  0.19450271979E+02 -0.73091294093E+02  0.51056984179E+03  0.51616305921E+03  0.47000000000E+01 0.  1.
        -11    1    1    2    0    0 -0.48430760304E+02  0.23355324166E+02  0.30795559003E+03  0.31261422735E+03  0.00000000000E+00 0.  1.
         11    1    1    2    0    0  0.33945518368E+02 -0.16676702486E+01  0.93451388963E+02  0.99439637170E+02  0.00000000000E+00 0. -1.
<mgrwt>
<rscale>  0 0.11797842E+03</rscale>
<asrwt>0</asrwt>
<pdfrwt beam="1">  1        2 0.19873219E+00 0.12768608E+03</pdfrwt>
<pdfrwt beam="2">  1       -2 0.15275185E-02 0.12768608E+03</pdfrwt>
<totfact> 0.19492035E+04</totfact>
</mgrwt>
</event>
<event>
 6    1  0.5206756E-006  0.1323026E+03  0.7546771E-02  0.1241804E+00
          4   -1    0    0  501    0  0.00000000000E+00  0.00000000000E+00  0.32595403507E+03  0.32595403507E+03  0.00000000000E+00 0. -1.
         -4   -1    0    0    0  501 -0.00000000000E+00 -0.00000000000E+00 -0.46675234785E+02  0.46675234785E+02  0.00000000000E+00 0.  1.
          5    1    1    2  502    0 -0.55955820042E+02 -0.15903564162E+02  0.86023287016E+02  0.10395226337E+03  0.47000000000E+01 0. -1.
         -5    1    1    2    0  502  0.62542236451E+02  0.36328988950E+02  0.15104348527E+03  0.16753373159E+03  0.47000000000E+01 0.  1.
        -11    1    1    2    0    0 -0.43097065702E+02 -0.22865746800E+02  0.51458456986E+01  0.49057916555E+02  0.00000000000E+00 0. -1.
         11    1    1    2    0    0  0.36510649293E+02  0.24403220121E+01  0.37066182296E+02  0.52085358339E+02  0.00000000000E+00 0.  1.
<mgrwt>
<rscale>  0 0.12078732E+03</rscale>
<asrwt>0</asrwt>
<pdfrwt beam="1">  1        4 0.50146773E-01 0.13230265E+03</pdfrwt>
<pdfrwt beam="2">  1       -4 0.71808056E-02 0.13230265E+03</pdfrwt>
<totfact> 0.83818696E+02</totfact>
</mgrwt>
</event>
<event>
 6    1  0.5206756E-006  0.1292422E+03  0.7546771E-02  0.1242171E+00
          4   -1    0    0  501    0  0.00000000000E+00  0.00000000000E+00  0.85469470708E+02  0.85469470708E+02  0.00000000000E+00 0. -1.
         -4   -1    0    0    0  501 -0.00000000000E+00 -0.00000000000E+00 -0.21294991007E+03  0.21294991007E+03  0.00000000000E+00 0.  1.
          5    1    1    2  502    0  0.22872214826E+02 -0.74837434455E+01  0.65508620592E+02  0.69947222953E+02  0.47000000000E+01 0. -1.
         -5    1    1    2    0  502 -0.21464716367E+02 -0.15108094205E+01 -0.55471501268E+02  0.59684118883E+02  0.47000000000E+01 0.  1.
        -11    1    1    2    0    0 -0.25179539349E+02  0.31965473065E+02 -0.12811175776E+03  0.13441883479E+03  0.00000000000E+00 0.  1.
         11    1    1    2    0    0  0.23772040890E+02 -0.22970920199E+02 -0.94058009230E+01  0.34369204150E+02  0.00000000000E+00 0. -1.
<mgrwt>
<rscale>  0 0.12056310E+03</rscale>
<asrwt>0</asrwt>
<pdfrwt beam="1">  1        4 0.13149149E-01 0.12924218E+03</pdfrwt>
<pdfrwt beam="2">  1       -4 0.32761525E-01 0.12924218E+03</pdfrwt>
<totfact> 0.69831029E+02</totfact>
</mgrwt>
</event>
<event>
 7    1  0.5206756E-006  0.1768639E+03  0.7546771E-02  0.1175215E+00
          2   -1    0    0  501    0  0.00000000000E+00  0.00000000000E+00  0.19082399248E+04  0.19082399248E+04  0.00000000000E+00 0. -1.
         -2   -1    0    0    0  501 -0.00000000000E+00 -0.00000000000E+00 -0.22351753777E+02  0.22351753777E+02  0.00000000000E+00 0.  1.
         23    2    1    2    0    0  0.10608722736E+03 -0.77496091598E+02  0.15313389691E+04  0.15415186952E+04  0.11840905894E+03 0.  0.
          5    1    3    3  502    0  0.13344828847E+02  0.10002305020E+02  0.29075915116E+02  0.33847147627E+02  0.47000000000E+01 0. -1.
         -5    1    3    3    0  502  0.92742398517E+02 -0.87498396617E+02  0.15022630540E+04  0.15076715475E+04  0.47000000000E+01 0.  1.
        -11    1    1    2    0    0  0.15176222333E+02  0.39046259058E+01  0.18077380880E+02  0.23923953002E+02  0.00000000000E+00 0.  1.
         11    1    1    2    0    0 -0.12126344970E+03  0.73591465692E+02  0.33647182107E+03  0.36514903044E+03  0.00000000000E+00 0. -1.
<mgrwt>
<rscale>  0 0.17254933E+03</rscale>
<asrwt>0</asrwt>
<pdfrwt beam="1">  1        2 0.29357525E+00 0.17686393E+03</pdfrwt>
<pdfrwt beam="2">  1       -2 0.34387328E-02 0.17686393E+03</pdfrwt>
<totfact> 0.28700343E+03</totfact>
</mgrwt>
</event>
<event>
 7    1  0.5206756E-006  0.1609169E+03  0.7546771E-02  0.1194643E+00
          1   -1    0    0  501    0  0.00000000000E+00  0.00000000000E+00  0.65480450903E+02  0.65480450903E+02  0.00000000000E+00 0. -1.
         -1   -1    0    0    0  501 -0.00000000000E+00 -0.00000000000E+00 -0.34855325016E+03  0.34855325016E+03  0.00000000000E+00 0.  1.
         23    2    1    2    0    0  0.85991328546E+02  0.53593774886E+02 -0.12191422184E+03  0.20188443597E+03  0.12500978645E+03 0.  0.
          5    1    3    3  502    0  0.11256694252E+03  0.25254072104E+02 -0.64070739429E+02  0.13204633413E+03  0.47000000000E+01 0. -1.
         -5    1    3    3    0  502 -0.26575613970E+02  0.28339702782E+02 -0.57843482411E+02  0.69838101843E+02  0.47000000000E+01 0. -1.
        -11    1    1    2    0    0  0.37795814658E+01 -0.47544314423E+02 -0.62587551143E+02  0.78688935868E+02  0.00000000000E+00 0.  1.
         11    1    1    2    0    0 -0.89770910012E+02 -0.60494604632E+01 -0.98571026278E+02  0.13346032923E+03  0.00000000000E+00 0. -1.
<mgrwt>
<rscale>  0 0.15484457E+03</rscale>
<asrwt>0</asrwt>
<pdfrwt beam="1">  1        1 0.10073916E-01 0.16091690E+03</pdfrwt>
<pdfrwt beam="2">  1       -1 0.53623576E-01 0.16091690E+03</pdfrwt>
<totfact> 0.22373151E+03</totfact>
</mgrwt>
</event>
<event>
 7    1  0.5206756E-006  0.1272553E+03  0.7546771E-02  0.1246233E+00
          2   -1    0    0  501    0  0.00000000000E+00  0.00000000000E+00  0.65064747348E+02  0.65064747348E+02  0.00000000000E+00 0. -1.
         -2   -1    0    0    0  501 -0.00000000000E+00 -0.00000000000E+00 -0.19712237951E+03  0.19712237951E+03  0.00000000000E+00 0.  1.
         23    2    1    2    0    0  0.19406696616E+02  0.13812512807E+02 -0.48861917847E+02  0.13631363236E+03  0.12500605573E+03 0.  0.
          5    1    3    3  502    0 -0.52049439340E+02 -0.68590052400E+01 -0.21144378745E+02  0.56792295613E+02  0.47000000000E+01 0.  1.
         -5    1    3    3    0  502  0.71456135956E+02  0.20671518047E+02 -0.27717539102E+02  0.79521336747E+02  0.47000000000E+01 0.  1.
        -11    1    1    2    0    0  0.10200329609E+02 -0.43609571410E+02 -0.67551371791E+02  0.81049548262E+02  0.00000000000E+00 0.  1.
         11    1    1    2    0    0 -0.29607026225E+02  0.29797058603E+02 -0.15644342527E+02  0.44823946238E+02  0.00000000000E+00 0. -1.
<mgrwt>
<rscale>  0 0.11811865E+03</rscale>
<asrwt>0</asrwt>
<pdfrwt beam="1">  1        2 0.10009961E-01 0.12725533E+03</pdfrwt>
<pdfrwt beam="2">  1       -2 0.30326520E-01 0.12725533E+03</pdfrwt>
<totfact> 0.60495048E+03</totfact>
</mgrwt>
</event>
<event>
 7    1  0.5206756E-006  0.1396583E+03  0.7546771E-02  0.1221471E+00
          2   -1    0    0  501    0  0.00000000000E+00  0.00000000000E+00  0.31127422489E+03  0.31127422489E+03  0.00000000000E+00 0. -1.
         -2   -1    0    0    0  501 -0.00000000000E+00 -0.00000000000E+00 -0.56041557270E+02  0.56041557270E+02  0.00000000000E+00 0.  1.
         23    2    1    2    0    0 -0.62196443825E+02  0.31893060506E+01  0.17536204021E+03  0.22417914885E+03  0.12500350530E+03 0.  0.
          5    1    3    3  502    0 -0.85946241613E+02  0.38989524650E+02  0.10207669428E+03  0.13909953628E+03  0.47000000000E+01 0. -1.
         -5    1    3    3    0  502  0.23749797788E+02 -0.35800218600E+02  0.73285345931E+02  0.85079612569E+02  0.47000000000E+01 0. -1.
        -11    1    1    2    0    0  0.57518837601E+02 -0.43109054059E+02  0.72837025580E+02  0.10233298352E+03  0.00000000000E+00 0. -1.
         11    1    1    2    0    0  0.46776062242E+01  0.39919748009E+02  0.70336018310E+01  0.40803649785E+02  0.00000000000E+00 0.  1.
<mgrwt>
<rscale>  0 0.13411776E+03</rscale>
<asrwt>0</asrwt>
<pdfrwt beam="1">  1        2 0.47888341E-01 0.13965832E+03</pdfrwt>
<pdfrwt beam="2">  1       -2 0.86217782E-02 0.13965832E+03</pdfrwt>
<totfact> 0.83973531E+03</totfact>
</mgrwt>
</event>
<event>
 6    1  0.5206756E-006  0.1825653E+03  0.7546771E-02  0.1183869E+00
         -1   -1    0    0    0  501 -0.00000000000E+00  0.00000000000E+00  0.86421698984E+02  0.86421698984E+02  0.00000000000E+00 0.  1.
          1   -1    0    0  501    0  0.00000000000E+00 -0.00000000000E+00 -0.63738486421E+03  0.63738486421E+03  0.00000000000E+00 0. -1.
          5    1    1    2  502    0 -0.36143525204E+02  0.93932678233E+02 -0.56798566478E+03  0.57685310769E+03  0.47000000000E+01 0. -1.
         -5    1    1    2    0  502  0.12194262857E+02 -0.20546443500E+02 -0.54635184296E+01  0.24955889500E+02  0.47000000000E+01 0.  1.
        -11    1    1    2    0    0  0.71623637529E+00 -0.66945768448E+02 -0.22773732465E+02  0.70716983802E+02  0.00000000000E+00 0.  1.
         11    1    1    2    0    0  0.23233025972E+02 -0.64404662855E+01  0.45259750442E+02  0.51280582210E+02  0.00000000000E+00 0. -1.
<mgrwt>
<rscale>  0 0.16435210E+03</rscale>
<asrwt>0</asrwt>
<pdfrwt beam="2">  1        1 0.98059210E-01 0.18256534E+03</pdfrwt>
<pdfrwt beam="1">  1       -1 0.13295646E-01 0.18256534E+03</pdfrwt>
<totfact> 0.12554738E+03</totfact>
</mgrwt>
</event>
<event>
 7    1  0.5206756E-006  0.1434523E+03  0.7546771E-02  0.1218948E+00
         -2   -1    0    0    0  501 -0.00000000000E+00  0.00000000000E+00  0.30614924800E+02  0.30614924800E+02  0.00000000000E+00 0.  1.
          2   -1    0    0  501    0  0.00000000000E+00 -0.00000000000E+00 -0.54882761798E+03  0.54882761798E+03  0.00000000000E+00 0. -1.
         23    2    1    2    0    0 -0.24568027186E+02  0.65895872648E+02 -0.29917013224E+03  0.33178505887E+03  0.12503080930E+03 0.  0.
          5    1    3    3  502    0  0.50895187893E+02  0.33912179182E+02 -0.13051147930E+03  0.14420711590E+03  0.47000000000E+01 0.  1.
         -5    1    3    3    0  502 -0.75463215079E+02  0.31983693467E+02 -0.16865865294E+03  0.18757794297E+03  0.47000000000E+01 0.  1.
        -11    1    1    2    0    0 -0.24743443288E+02  0.86022490439E+01 -0.47484821583E+02  0.54231401929E+02  0.00000000000E+00 0.  1.
         11    1    1    2    0    0  0.49311470475E+02 -0.74498121692E+02 -0.17155773936E+03  0.19342608198E+03  0.00000000000E+00 0. -1.
<mgrwt>
<rscale>  0 0.13590468E+03</rscale>
<asrwt>0</asrwt>
<pdfrwt beam="2">  1        2 0.84435011E-01 0.14345228E+03</pdfrwt>
<pdfrwt beam="1">  1       -2 0.47099888E-02 0.14345228E+03</pdfrwt>
<totfact> 0.11465364E+04</totfact>
</mgrwt>
</event>
<event>
 7    1  0.5206756E-006  0.1981501E+03  0.7546771E-02  0.1155755E+00
          1   -1    0    0  501    0  0.00000000000E+00  0.00000000000E+00  0.13752492288E+03  0.13752492288E+03  0.00000000000E+00 0. -1.
         -1   -1    0    0    0  501 -0.00000000000E+00 -0.00000000000E+00 -0.25864417093E+03  0.25864417093E+03  0.00000000000E+00 0.  1.
         23    2    1    2    0    0 -0.14550288464E+03  0.49676344459E+02 -0.74801820240E+02  0.21179888771E+03  0.12499851153E+03 0.  0.
          5    1    3    3  502    0 -0.15944987919E+03  0.60873459775E+02 -0.44738946791E+02  0.17650355645E+03  0.47000000000E+01 0.  1.
         -5    1    3    3    0  502  0.13946994554E+02 -0.11197115317E+02 -0.30062873449E+02  0.35295331257E+02  0.47000000000E+01 0.  1.
        -11    1    1    2    0    0  0.11074010224E+02 -0.34788626587E+02  0.10014445488E+02  0.37857249777E+02  0.00000000000E+00 0.  1.
         11    1    1    2    0    0  0.13442887441E+03 -0.14887717872E+02 -0.56331873299E+02  0.14651295632E+03  0.00000000000E+00 0. -1.
<mgrwt>
<rscale>  0 0.19303203E+03</rscale>
<asrwt>0</asrwt>
<pdfrwt beam="1">  1        1 0.21157680E-01 0.19815009E+03</pdfrwt>
<pdfrwt beam="2">  1       -1 0.39791411E-01 0.19815009E+03</pdfrwt>
<totfact> 0.14668019E+03</totfact>
</mgrwt>
</event>
<event>
 6    1  0.5206756E-006  0.1664447E+03  0.7546771E-02  0.1205236E+00
          3   -1    0    0  501    0  0.00000000000E+00  0.00000000000E+00  0.61667609435E+03  0.61667609435E+03  0.00000000000E+00 0. -1.
         -3   -1    0    0    0  501 -0.00000000000E+00 -0.00000000000E+00 -0.36651342597E+02  0.36651342597E+02  0.00000000000E+00 0.  1.
          5    1    1    2  502    0  0.14541413379E+02 -0.24692185247E+02  0.48461899879E+03  0.48548822921E+03  0.47000000000E+01 0. -1.
         -5    1    1    2    0  502 -0.35866615325E+02 -0.49206086046E+01  0.12232187046E+02  0.38501206265E+02  0.47000000000E+01 0.  1.
        -11    1    1    2    0    0  0.65662245584E+01  0.53137162146E+02  0.14814170752E+02  0.55552974366E+02  0.00000000000E+00 0.  1.
         11    1    1    2    0    0  0.14758977388E+02 -0.23524368294E+02  0.68359395162E+02  0.73785027100E+02  0.00000000000E+00 0. -1.
<mgrwt>
<rscale>  0 0.14618866E+03</rscale>
<asrwt>0</asrwt>
<pdfrwt beam="1">  1        3 0.94873238E-01 0.16644467E+03</pdfrwt>
<pdfrwt beam="2">  1       -3 0.56386685E-02 0.16644467E+03</pdfrwt>
<totfact> 0.45899141E+02</totfact>
</mgrwt>
</event>
<event>
 7    1  0.1020768E-005  0.2153156E+03  0.7546771E-02  0.1141044E+00
         -4   -1    0    0    0  501 -0.00000000000E+00  0.00000000000E+00  0.17674971062E+03  0.17674971062E+03  0.00000000000E+00 0.  1.
          4   -1    0    0  501    0  0.00000000000E+00 -0.00000000000E+00 -0.26331614482E+03  0.26331614482E+03  0.00000000000E+00 0. -1.
         23    2    1    2    0    0  0.13039081171E+03  0.11718885741E+03 -0.10930242859E+03  0.24147018333E+03  0.12500334581E+03 0.  0.
          5    1    3    3  502    0  0.11592514778E+03  0.11190851365E+03 -0.34359854832E+02  0.16481761113E+03  0.47000000000E+01 0.  1.
         -5    1    3    3    0  502  0.14465663934E+02  0.52803437558E+01 -0.74942573759E+02  0.76652572200E+02  0.47000000000E+01 0.  1.
        -11    1    1    2    0    0 -0.18276572972E+02 -0.65575678419E+02 -0.14650037373E+02  0.69633514307E+02  0.00000000000E+00 0. -1.
         11    1    1    2    0    0 -0.11211423874E+03 -0.51613178990E+02  0.37386031762E+02  0.12896215780E+03  0.00000000000E+00 0.  1.
<mgrwt>
<rscale>  0 0.21066041E+03</rscale>
<asrwt>0</asrwt>
<pdfrwt beam="2">  1        4 0.40510176E-01 0.21531565E+03</pdfrwt>
<pdfrwt beam="1">  1       -4 0.27192263E-01 0.21531565E+03</pdfrwt>
<totfact> 0.13635469E+02</totfact>
</mgrwt>
</event>
<event>
 6    1  0.5206756E-006  0.1427101E+03  0.7546771E-02  0.1228027E+00
          2   -1    0    0  501    0  0.00000000000E+00  0.00000000000E+00  0.30878106270E+03  0.30878106270E+03  0.00000000000E+00 0. -1.
         -2   -1    0    0    0  501 -0.00000000000E+00 -0.00000000000E+00 -0.46768249080E+02  0.46768249080E+02  0.00000000000E+00 0.  1.
          5    1    1    2  502    0  0.18027681388E+02  0.10876641549E+02  0.16692967020E+03  0.16831786423E+03  0.47000000000E+01 0. -1.
         -5    1    1    2    0  502 -0.20750322265E+02 -0.46986853794E+02  0.37007363389E+00  0.51580686871E+02  0.47000000000E+01 0.  1.
        -11    1    1    2    0    0  0.43603628101E+02  0.47902491295E+01  0.56463735590E+02  0.71500883261E+02  0.00000000000E+00 0. -1.
         11    1    1    2    0    0 -0.40880987224E+02  0.31319963116E+02  0.38249334202E+02  0.64149877419E+02  0.00000000000E+00 0.  1.
<mgrwt>
<rscale>  0 0.12961588E+03</rscale>
<asrwt>0</asrwt>
<pdfrwt beam="1">  1        2 0.47504778E-01 0.14271009E+03</pdfrwt>
<pdfrwt beam="2">  1       -2 0.71951154E-02 0.14271009E+03</pdfrwt>
<totfact> 0.11215865E+04</totfact>
</mgrwt>
</event>
<event>
 7    1  0.1591821E-005  0.3607699E+03  0.7546771E-02  0.1059308E+00
         -2   -1    0    0    0  501 -0.00000000000E+00  0.00000000000E+00  0.15689226388E+03  0.15689226388E+03  0.00000000000E+00 0.  1.
          2   -1    0    0  501    0  0.00000000000E+00 -0.00000000000E+00 -0.84282055058E+03  0.84282055058E+03  0.00000000000E+00 0. -1.
         23    2    1    2    0    0 -0.10499006476E+03  0.32172530994E+03 -0.24343761738E+03  0.43522042216E+03  0.12499941423E+03 0.  0.
          5    1    3    3  502    0 -0.10289719631E+03  0.27695261800E+03 -0.14977241009E+03  0.33127699958E+03  0.47000000000E+01 0.  1.
         -5    1    3    3    0  502 -0.20928684470E+01  0.44772691942E+02 -0.93665207292E+02  0.10394342259E+03  0.47000000000E+01 0.  1.
        -11    1    1    2    0    0  0.38606737006E+02 -0.11350390038E+03 -0.90659962754E+02  0.15030916270E+03  0.00000000000E+00 0.  1.
         11    1    1    2    0    0  0.66383327753E+02 -0.20822140956E+03 -0.35183070657E+03  0.41418322960E+03  0.00000000000E+00 0. -1.
<mgrwt>
<rscale>  0 0.35817582E+03</rscale>
<asrwt>0</asrwt>
<pdfrwt beam="2">  1        2 0.12966470E+00 0.36076993E+03</pdfrwt>
<pdfrwt beam="1">  1       -2 0.24137272E-01 0.36076993E+03</pdfrwt>
<totfact> 0.50140355E+02</totfact>
</mgrwt>
</event>
<event>
 7    1  0.5206756E-006  0.1298401E+03  0.7546771E-02  0.1242811E+00
         -1   -1    0    0    0  501 -0.00000000000E+00  0.00000000000E+00  0.28817782881E+02  0.28817782881E+02  0.00000000000E+00 0.  1.
          1   -1    0    0  501    0  0.00000000000E+00 -0.00000000000E+00 -0.44633275515E+03  0.44633275515E+03  0.00000000000E+00 0. -1.
         23    2    1    2    0    0 -0.16045046968E+02  0.31222445436E+02 -0.26904524888E+03  0.29873701004E+03  0.12500468228E+03 0.  0.
          5    1    3    3  502    0  0.11139779857E+02  0.74883655509E+02 -0.18688368438E+03  0.20169099644E+03  0.47000000000E+01 0.  1.
         -5    1    3    3    0  502 -0.27184826825E+02 -0.43661210073E+02 -0.82161564495E+02  0.97046013596E+02  0.47000000000E+01 0.  1.
        -11    1    1    2    0    0 -0.77909191320E+01 -0.24719394920E+02 -0.16245210996E-01  0.25918085771E+02  0.00000000000E+00 0.  1.
         11    1    1    2    0    0  0.23835966100E+02 -0.65030505163E+01 -0.14845347818E+03  0.15049544222E+03  0.00000000000E+00 0. -1.
<mgrwt>
<rscale>  0 0.12017338E+03</rscale>
<asrwt>0</asrwt>
<pdfrwt beam="2">  1        1 0.68666574E-01 0.12984011E+03</pdfrwt>
<pdfrwt beam="1">  1       -1 0.44335053E-02 0.12984011E+03</pdfrwt>
<totfact> 0.10481439E+04</totfact>
</mgrwt>
</event>
<event>
 7    1  0.5206756E-006  0.1316080E+03  0.7546771E-02  0.1238455E+00
         -2   -1    0    0    0  501 -0.00000000000E+00  0.00000000000E+00  0.91622486027E+02  0.91622486027E+02  0.00000000000E+00 0.  1.
          2   -1    0    0  501    0  0.00000000000E+00 -0.00000000000E+00 -0.15525877317E+03  0.15525877317E+03  0.00000000000E+00 0. -1.
         23    2    1    2    0    0  0.33502286415E+02 -0.23849590083E+02 -0.65271873305E+01  0.13176978373E+03  0.12501786108E+03 0.  0.
          5    1    3    3  502    0  0.67052931846E+02  0.21783395475E+02 -0.19851607867E+02  0.73394743153E+02  0.47000000000E+01 0. -1.
         -5    1    3    3    0  502 -0.33550645432E+02 -0.45632985558E+02  0.13324420536E+02  0.58375040578E+02  0.47000000000E+01 0. -1.
        -11    1    1    2    0    0 -0.81316151059E+01  0.53396674096E+02 -0.53461067096E+02  0.75996142427E+02  0.00000000000E+00 0.  1.
         11    1    1    2    0    0 -0.25370671309E+02 -0.29547084013E+02 -0.36480327214E+01  0.39115333043E+02  0.00000000000E+00 0. -1.
<mgrwt>
<rscale>  0 0.12285791E+03</rscale>
<asrwt>0</asrwt>
<pdfrwt beam="2">  1        2 0.23885965E-01 0.13160802E+03</pdfrwt>
<pdfrwt beam="1">  1       -2 0.14095767E-01 0.13160802E+03</pdfrwt>
<totfact> 0.81105797E+03</totfact>
</mgrwt>
</event>
<event>
 7    1  0.5206756E-006  0.1906512E+03  0.7546771E-02  0.1162956E+00
         -1   -1    0    0    0  501 -0.00000000000E+00  0.00000000000E+00  0.30573641403E+02  0.30573641403E+02  0.00000000000E+00 0.  1.
          1   -1    0    0  501    0  0.00000000000E+00 -0.00000000000E+00 -0.14945502933E+04  0.14945502933E+04  0.00000000000E+00 0. -1.
         23    2    1    2    0    0  0.13432404345E+03 -0.51785139620E+02 -0.11733018627E+04  0.11886905168E+04  0.12499293671E+03 0.  0.
          5    1    3    3  502    0  0.63023166106E+02  0.63732023878E+01 -0.17544331341E+03  0.18658773645E+03  0.47000000000E+01 0. -1.
         -5    1    3    3    0  502  0.71300877348E+02 -0.58158342008E+02 -0.99785854934E+03  0.10021027803E+04  0.47000000000E+01 0. -1.
        -11    1    1    2    0    0 -0.98104968858E+02 -0.14844444883E+00 -0.12385556200E+03  0.15800255438E+03  0.00000000000E+00 0. -1.
         11    1    1    2    0    0 -0.36219074596E+02  0.51933584069E+02 -0.16681922712E+03  0.17843086352E+03  0.00000000000E+00 0.  1.
<mgrwt>
<rscale>  0 0.18510008E+03</rscale>
<asrwt>0</asrwt>
<pdfrwt beam="2">  1        1 0.22993086E+00 0.19065121E+03</pdfrwt>
<pdfrwt beam="1">  1       -1 0.47036362E-02 0.19065121E+03</pdfrwt>
<totfact> 0.13967446E+03</totfact>
</mgrwt>
</event>
<event>
 7    1  0.5206756E-006  0.1451395E+03  0.7546771E-02  0.1216828E+00
          1   -1    0    0  501    0  0.00000000000E+00  0.00000000000E+00  0.25977737751E+03  0.25977737751E+03  0.00000000000E+00 0. -1.
         -1   -1    0    0    0  501 -0.00000000000E+00 -0.00000000000E+00 -0.73656747669E+02  0.73656747669E+02  0.00000000000E+00 0.  1.
         23    2    1    2    0    0 -0.31817520883E+02 -0.66370874769E+02  0.15570062250E+03  0.21285711137E+03  0.12509203956E+03 0.  0.
          5    1    3    3  502    0 -0.21886585252E+02  0.33370479462E+02  0.70826749249E+02  0.81431750090E+02  0.47000000000E+01 0.  1.
         -5    1    3    3    0  502 -0.99309356308E+01 -0.99741354231E+02  0.84873873253E+02  0.13142536128E+03  0.47000000000E+01 0.  1.
        -11    1    1    2    0    0  0.37881822514E+02  0.21069242449E+02  0.53920497638E+02  0.69183563943E+02  0.00000000000E+00 0. -1.
         11    1    1    2    0    0 -0.60643016308E+01  0.45301632320E+02 -0.23500490298E+02  0.51393449868E+02  0.00000000000E+00 0.  1.
<mgrwt>
<rscale>  0 0.13743114E+03</rscale>
<asrwt>0</asrwt>
<pdfrwt beam="1">  1        1 0.39965750E-01 0.14513947E+03</pdfrwt>
<pdfrwt beam="2">  1       -1 0.11331807E-01 0.14513947E+03</pdfrwt>
<totfact> 0.50694280E+03</totfact>
</mgrwt>
</event>
<event>
 7    1  0.5206756E-006  0.1437411E+03  0.7546771E-02  0.1219013E+00
          2   -1    0    0  501    0  0.00000000000E+00  0.00000000000E+00  0.40605073844E+02  0.40605073844E+02  0.00000000000E+00 0. -1.
         -2   -1    0    0    0  501 -0.00000000000E+00 -0.00000000000E+00 -0.41963135156E+03  0.41963135156E+03  0.00000000000E+00 0.  1.
         23    2    1    2    0    0 -0.47299225788E+02  0.52913642808E+02 -0.17808007778E+03  0.22885371408E+03  0.12499775194E+03 0.  0.
          5    1    3    3  502    0 -0.11967910290E+02  0.32307419523E+02 -0.18400271074E+03  0.18725941310E+03  0.47000000000E+01 0.  1.
         -5    1    3    3    0  502 -0.35331315498E+02  0.20606223285E+02  0.59226329618E+01  0.41594300981E+02  0.47000000000E+01 0.  1.
        -11    1    1    2    0    0  0.70899310395E+02 -0.32860534484E+02 -0.17231609100E+03  0.18920719373E+03  0.00000000000E+00 0.  1.
         11    1    1    2    0    0 -0.23600084607E+02 -0.20053108325E+02 -0.28630108935E+02  0.42175517597E+02  0.00000000000E+00 0. -1.
<mgrwt>
<rscale>  0 0.13585853E+03</rscale>
<asrwt>0</asrwt>
<pdfrwt beam="1">  1        2 0.62469348E-02 0.14374112E+03</pdfrwt>
<pdfrwt beam="2">  1       -2 0.64558665E-01 0.14374112E+03</pdfrwt>
<totfact> 0.25576017E+03</totfact>
</mgrwt>
</event>
<event>
 7    1  0.5206756E-006  0.1294728E+03  0.7546771E-02  0.1245181E+00
          2   -1    0    0  501    0  0.00000000000E+00  0.00000000000E+00  0.23560213282E+03  0.23560213282E+03  0.00000000000E+00 0. -1.
         -2   -1    0    0    0  501 -0.00000000000E+00 -0.00000000000E+00 -0.57305442422E+02  0.57305442422E+02  0.00000000000E+00 0.  1.
         23    2    1    2    0    0 -0.20191501551E+02 -0.26871053451E+02  0.14749615100E+03  0.19626085977E+03  0.12503383649E+03 0.  0.
          5    1    3    3  502    0 -0.21870860855E+02 -0.74340029580E+02  0.11410352196E+03  0.13800897897E+03  0.47000000000E+01 0. -1.
         -5    1    3    3    0  502  0.16793593047E+01  0.47468976129E+02  0.33392629046E+02  0.58251880803E+02  0.47000000000E+01 0. -1.
        -11    1    1    2    0    0 -0.58229315874E+01  0.18087789081E+02 -0.26790555884E+02  0.32845220819E+02  0.00000000000E+00 0.  1.
         11    1    1    2    0    0  0.26014433138E+02  0.87832643696E+01  0.57591095278E+02  0.63801494652E+02  0.00000000000E+00 0. -1.
<mgrwt>
<rscale>  0 0.11874534E+03</rscale>
<asrwt>0</asrwt>
<pdfrwt beam="1">  1        2 0.36246481E-01 0.12947282E+03</pdfrwt>
<pdfrwt beam="2">  1       -2 0.88162220E-02 0.12947282E+03</pdfrwt>
<totfact> 0.10842156E+04</totfact>
</mgrwt>
</event>
<event>
 7    1  0.1311133E-005  0.2035719E+03  0.7546771E-02  0.1150914E+00
          2   -1    0    0  501    0  0.00000000000E+00  0.00000000000E+00  0.14099957589E+04  0.14099957589E+04  0.00000000000E+00 0.  1.
         -2   -1    0    0    0  501 -0.00000000000E+00 -0.00000000000E+00 -0.27248198773E+02  0.27248198773E+02  0.00000000000E+00 0. -1.
         23    2    1    2    0    0  0.15461844487E+03 -0.43702122705E+02  0.82694887392E+03  0.85163721315E+03  0.12499905486E+03 0.  0.
          5    1    3    3  502    0  0.16530239118E+03 -0.59118470233E+02  0.63891633200E+03  0.66261304194E+03  0.47000000000E+01 0. -1.
         -5    1    3    3    0  502 -0.10683946308E+02  0.15416347528E+02  0.18803254192E+03  0.18902417121E+03  0.47000000000E+01 0. -1.
        -11    1    1    2    0    0 -0.72434893700E+02  0.30441555100E+02  0.41221246884E+03  0.41963391375E+03  0.00000000000E+00 0.  1.
         11    1    1    2    0    0 -0.82183551169E+02  0.13260567605E+02  0.14358621732E+03  0.16597283073E+03  0.00000000000E+00 0. -1.
<mgrwt>
<rscale>  0 0.19861407E+03</rscale>
<asrwt>0</asrwt>
<pdfrwt beam="1">  1        2 0.21692237E+00 0.20357186E+03</pdfrwt>
<pdfrwt beam="2">  1       -2 0.41920317E-02 0.20357186E+03</pdfrwt>
<totfact> 0.38917360E+03</totfact>
</mgrwt>
</event>
<event>
 7    1  0.5206756E-006  0.1475730E+03  0.7546771E-02  0.1212044E+00
         -1   -1    0    0    0  501 -0.00000000000E+00  0.00000000000E+00  0.80026265780E+02  0.80026265780E+02  0.00000000000E+00 0.  1.
          1   -1    0    0  501    0  0.00000000000E+00 -0.00000000000E+00 -0.24091809659E+03  0.24091809659E+03  0.00000000000E+00 0. -1.
         23    2    1    2    0    0  0.36477569401E+02  0.69452171271E+02 -0.12379381499E+03  0.19262064253E+03  0.12499434441E+03 0.  0.
          5    1    3    3  502    0  0.20350884420E+02  0.93526667848E+02 -0.13108006450E+03  0.16237447276E+03  0.47000000000E+01 0. -1.
         -5    1    3    3    0  502  0.16126684981E+02 -0.24074496577E+02  0.72862495060E+01  0.30246169770E+02  0.47000000000E+01 0. -1.
        -11    1    1    2    0    0 -0.21303258105E+02  0.17189365452E+02  0.92570780324E+01  0.28896307450E+02  0.00000000000E+00 0.  1.
         11    1    1    2    0    0 -0.15174311295E+02 -0.86641536723E+02 -0.46355093856E+02  0.99427412394E+02  0.00000000000E+00 0. -1.
<mgrwt>
<rscale>  0 0.14095939E+03</rscale>
<asrwt>0</asrwt>
<pdfrwt beam="2">  1        1 0.37064322E-01 0.14757304E+03</pdfrwt>
<pdfrwt beam="1">  1       -1 0.12311733E-01 0.14757304E+03</pdfrwt>
<totfact> 0.49013823E+03</totfact>
</mgrwt>
</event>
<event>
 7    1  0.5206756E-006  0.1785715E+03  0.7546771E-02  0.1174637E+00
         -2   -1    0    0    0  501 -0.00000000000E+00  0.00000000000E+00  0.11066166561E+03  0.11066166561E+03  0.00000000000E+00 0.  1.
          2   -1    0    0  501    0  0.00000000000E+00 -0.00000000000E+00 -0.25551539232E+03  0.25551539232E+03  0.00000000000E+00 0. -1.
         23    2    1    2    0    0 -0.10772937758E+03  0.68214732267E+02 -0.75603593841E+02  0.19391672174E+03  0.12501569131E+03 0.  0.
          5    1    3    3  502    0 -0.80677942588E+02  0.38578741410E+02  0.18558643671E+02  0.91453610994E+02  0.47000000000E+01 0. -1.
         -5    1    3    3    0  502 -0.27051434995E+02  0.29635990858E+02 -0.94162237513E+02  0.10246311074E+03  0.47000000000E+01 0. -1.
        -11    1    1    2    0    0  0.72091991555E+02 -0.25296024152E+02 -0.85004189355E+02  0.11429285320E+03  0.00000000000E+00 0. -1.
         11    1    1    2    0    0  0.35637386029E+02 -0.42918708116E+02  0.15754056486E+02  0.57967482997E+02  0.00000000000E+00 0.  1.
<mgrwt>
<rscale>  0 0.17311559E+03</rscale>
<asrwt>0</asrwt>
<pdfrwt beam="2">  1        2 0.39310060E-01 0.17857153E+03</pdfrwt>
<pdfrwt beam="1">  1       -2 0.17024872E-01 0.17857153E+03</pdfrwt>
<totfact> 0.35228835E+03</totfact>
</mgrwt>
</event>
<event>
 7    1  0.5206756E-006  0.1645098E+03  0.7546771E-02  0.1193982E+00
         -2   -1    0    0    0  501 -0.00000000000E+00  0.00000000000E+00  0.22556992575E+02  0.22556992575E+02  0.00000000000E+00 0.  1.
          2   -1    0    0  501    0  0.00000000000E+00 -0.00000000000E+00 -0.99121934773E+03  0.99121934773E+03  0.00000000000E+00 0. -1.
         23    2    1    2    0    0  0.96330764693E+02  0.46446100864E+02 -0.61517204492E+03  0.63678890414E+03  0.12500642809E+03 0.  0.
          5    1    3    3  502    0  0.11128733655E+03  0.62987621775E+02 -0.58579292974E+03  0.59960633611E+03  0.47000000000E+01 0.  1.
         -5    1    3    3    0  502 -0.14956571859E+02 -0.16541520911E+02 -0.29379115180E+02  0.37182568020E+02  0.47000000000E+01 0.  1.
        -11    1    1    2    0    0 -0.10512307278E+03 -0.32576761073E+02 -0.33308047827E+03  0.35079154892E+03  0.00000000000E+00 0.  1.
         11    1    1    2    0    0  0.87923080900E+01 -0.13869339790E+02 -0.20409831964E+02  0.26195887245E+02  0.00000000000E+00 0. -1.
<mgrwt>
<rscale>  0 0.15540732E+03</rscale>
<asrwt>0</asrwt>
<pdfrwt beam="2">  1        2 0.15249526E+00 0.16450977E+03</pdfrwt>
<pdfrwt beam="1">  1       -2 0.34703072E-02 0.16450977E+03</pdfrwt>
<totfact> 0.88334193E+03</totfact>
</mgrwt>
</event>
<event>
 7    1  0.5206756E-006  0.1731212E+03  0.7546771E-02  0.1181166E+00
          2   -1    0    0  501    0  0.00000000000E+00  0.00000000000E+00  0.48349982000E+03  0.48349982000E+03  0.00000000000E+00 0. -1.
         -2   -1    0    0    0  501 -0.00000000000E+00 -0.00000000000E+00 -0.76714810691E+02  0.76714810691E+02  0.00000000000E+00 0.  1.
         23    2    1    2    0    0  0.57272550553E+02  0.10516570737E+03  0.36674039329E+03  0.40554833464E+03  0.12502385615E+03 0.  0.
          5    1    3    3  502    0 -0.38099042328E+02  0.43876660138E+02  0.10137383537E+03  0.11694204902E+03  0.47000000000E+01 0.  1.
         -5    1    3    3    0  502  0.95371592881E+02  0.61289047229E+02  0.26536655791E+03  0.28860628562E+03  0.47000000000E+01 0.  1.
        -11    1    1    2    0    0 -0.29050556530E+02  0.84914175324E-01  0.35131527282E+02  0.45586908803E+02  0.00000000000E+00 0.  1.
         11    1    1    2    0    0 -0.28221994024E+02 -0.10525062154E+03  0.49130887423E+01  0.10907938725E+03  0.00000000000E+00 0. -1.
<mgrwt>
<rscale>  0 0.16685712E+03</rscale>
<asrwt>0</asrwt>
<pdfrwt beam="1">  1        2 0.74384586E-01 0.17312116E+03</pdfrwt>
<pdfrwt beam="2">  1       -2 0.11802279E-01 0.17312116E+03</pdfrwt>
<totfact> 0.32229661E+03</totfact>
</mgrwt>
</event>
<event>
 7    1  0.5206756E-006  0.1347863E+03  0.7546771E-02  0.1231226E+00
          2   -1    0    0  501    0  0.00000000000E+00  0.00000000000E+00  0.11938616595E+03  0.11938616595E+03  0.00000000000E+00 0. -1.
         -2   -1    0    0    0  501 -0.00000000000E+00 -0.00000000000E+00 -0.14519349713E+03  0.14519349713E+03  0.00000000000E+00 0.  1.
         23    2    1    2    0    0  0.37248808203E+02 -0.33977446457E+02  0.36954411497E+02  0.13976044179E+03  0.12500164791E+03 0.  0.
          5    1    3    3  502    0 -0.44809311111E+02 -0.24242627825E+02  0.65281289876E+01  0.51577958802E+02  0.47000000000E+01 0.  1.
         -5    1    3    3    0  502  0.82058119314E+02 -0.97348186320E+01  0.30426282509E+02  0.88182482991E+02  0.47000000000E+01 0.  1.
        -11    1    1    2    0    0 -0.49531434908E+02  0.35307265132E+02  0.26218346176E-01  0.60827351599E+02  0.00000000000E+00 0. -1.
         11    1    1    2    0    0  0.12282626705E+02 -0.13298186753E+01 -0.62787961021E+02  0.63991869684E+02  0.00000000000E+00 0.  1.
<mgrwt>
<rscale>  0 0.12749179E+03</rscale>
<asrwt>0</asrwt>
<pdfrwt beam="1">  1        2 0.18367103E-01 0.13478632E+03</pdfrwt>
<pdfrwt beam="2">  1       -2 0.22337461E-01 0.13478632E+03</pdfrwt>
<totfact> 0.50670702E+03</totfact>
</mgrwt>
</event>
<event>
 7    1  0.5206756E-006  0.2440647E+03  0.7546771E-02  0.1119766E+00
         -2   -1    0    0    0  501 -0.00000000000E+00  0.00000000000E+00  0.11079586933E+03  0.11079586933E+03  0.00000000000E+00 0.  1.
          2   -1    0    0  501    0  0.00000000000E+00 -0.00000000000E+00 -0.51560719253E+03  0.51560719253E+03  0.00000000000E+00 0. -1.
         23    2    1    2    0    0  0.19045664842E+03  0.87570541550E+02 -0.25674387064E+03  0.35423863969E+03  0.12500105627E+03 0.  0.
          5    1    3    3  502    0  0.16933602257E+03  0.11804774611E+03 -0.21190667505E+03  0.29586565842E+03  0.47000000000E+01 0.  1.
         -5    1    3    3    0  502  0.21120625846E+02 -0.30477204565E+02 -0.44837195589E+02  0.58372981272E+02  0.47000000000E+01 0.  1.
        -11    1    1    2    0    0 -0.95680288510E+02 -0.91963950572E+02 -0.75217435486E+02  0.15254425068E+03  0.00000000000E+00 0.  1.
         11    1    1    2    0    0 -0.94776359906E+02  0.43934090219E+01 -0.72850017069E+02  0.11962017149E+03  0.00000000000E+00 0. -1.
<mgrwt>
<rscale>  0 0.24004079E+03</rscale>
<asrwt>0</asrwt>
<pdfrwt beam="2">  1        2 0.79324185E-01 0.24406474E+03</pdfrwt>
<pdfrwt beam="1">  1       -2 0.17045518E-01 0.24406474E+03</pdfrwt>
<totfact> 0.16564305E+03</totfact>
</mgrwt>
</event>
<event>
 7    1  0.5206756E-006  0.2008297E+03  0.7546771E-02  0.1153004E+00
         -1   -1    0    0    0  501 -0.00000000000E+00  0.00000000000E+00  0.10522362904E+03  0.10522362904E+03  0.00000000000E+00 0.  1.
          1   -1    0    0  501    0  0.00000000000E+00 -0.00000000000E+00 -0.35071307543E+03  0.35071307543E+03  0.00000000000E+00 0. -1.
         23    2    1    2    0    0 -0.95014332398E+02 -0.12521104304E+03 -0.11671094782E+03  0.23227999319E+03  0.12500808469E+03 0.  0.
          5    1    3    3  502    0 -0.44374827764E+02 -0.16245061010E+02  0.18830519836E+02  0.51085279911E+02  0.47000000000E+01 0. -1.
         -5    1    3    3    0  502 -0.50639504634E+02 -0.10896598203E+03 -0.13554146765E+03  0.18119471328E+03  0.47000000000E+01 0. -1.
        -11    1    1    2    0    0  0.11313744260E+03  0.10214125906E+03 -0.98406817489E+02  0.18142992986E+03  0.00000000000E+00 0.  1.
         11    1    1    2    0    0 -0.18123110203E+02  0.23069783981E+02 -0.30371681087E+02  0.42226781412E+02  0.00000000000E+00 0. -1.
<mgrwt>
<rscale>  0 0.19617859E+03</rscale>
<asrwt>0</asrwt>
<pdfrwt beam="2">  1        1 0.53955858E-01 0.20082965E+03</pdfrwt>
<pdfrwt beam="1">  1       -1 0.16188251E-01 0.20082965E+03</pdfrwt>
<totfact> 0.20217409E+03</totfact>
</mgrwt>
</event>
<event>
 7    1  0.5206756E-006  0.1549882E+03  0.7546771E-02  0.1202798E+00
          2   -1    0    0  501    0  0.00000000000E+00  0.00000000000E+00  0.19096933644E+04  0.19096933644E+04  0.00000000000E+00 0. -1.
         -2   -1    0    0    0  501 -0.00000000000E+00 -0.00000000000E+00 -0.12200839595E+02  0.12200839595E+02  0.00000000000E+00 0.  1.
         23    2    1    2    0    0  0.90909825941E+02 -0.11416547681E+02  0.13720656501E+04  0.13807916180E+04  0.12500564054E+03 0.  0.
          5    1    3    3  502    0  0.86786114478E+02  0.41016085452E+02  0.10540144506E+04  0.10583868390E+04  0.47000000000E+01 0.  1.
         -5    1    3    3    0  502  0.41237114633E+01 -0.52432633133E+02  0.31805119951E+03  0.32240477900E+03  0.47000000000E+01 0.  1.
        -11    1    1    2    0    0 -0.45631871809E+02  0.51016848493E+02  0.25139174250E+03  0.26054326848E+03  0.00000000000E+00 0.  1.
         11    1    1    2    0    0 -0.45277954132E+02 -0.39600300812E+02  0.27403513224E+03  0.28055931753E+03  0.00000000000E+00 0. -1.
<mgrwt>
<rscale>  0 0.14812351E+03</rscale>
<asrwt>0</asrwt>
<pdfrwt beam="1">  1        2 0.29379874E+00 0.15498821E+03</pdfrwt>
<pdfrwt beam="2">  1       -2 0.18770538E-02 0.15498821E+03</pdfrwt>
<totfact> 0.69655093E+03</totfact>
</mgrwt>
</event>
<event>
 7    1  0.5206756E-006  0.1332039E+03  0.7546771E-02  0.1235584E+00
         -2   -1    0    0    0  501 -0.00000000000E+00  0.00000000000E+00  0.15214404825E+02  0.15214404825E+02  0.00000000000E+00 0.  1.
          2   -1    0    0  501    0  0.00000000000E+00 -0.00000000000E+00 -0.10117302182E+04  0.10117302182E+04  0.00000000000E+00 0. -1.
         23    2    1    2    0    0  0.31850814105E+02 -0.33185578265E+02 -0.71829155339E+03  0.73053817489E+03  0.12501004895E+03 0.  0.
          5    1    3    3  502    0  0.33994019838E+02 -0.77235559592E+02 -0.37578044379E+03  0.38516744019E+03  0.47000000000E+01 0. -1.
         -5    1    3    3    0  502 -0.21432057328E+01  0.44049981327E+02 -0.34251110960E+03  0.34537073470E+03  0.47000000000E+01 0. -1.
        -11    1    1    2    0    0  0.10952147152E+02 -0.26554373471E+02 -0.77922544097E+02  0.83048221873E+02  0.00000000000E+00 0.  1.
         11    1    1    2    0    0 -0.42802961257E+02  0.59739951735E+02 -0.20030171589E+03  0.21335822626E+03  0.00000000000E+00 0. -1.
<mgrwt>
<rscale>  0 0.12467144E+03</rscale>
<asrwt>0</asrwt>
<pdfrwt beam="2">  1        2 0.15565084E+00 0.13320386E+03</pdfrwt>
<pdfrwt beam="1">  1       -2 0.23406771E-02 0.13320386E+03</pdfrwt>
<totfact> 0.15140739E+04</totfact>
</mgrwt>
</event>
<event>
 7    1  0.5206756E-006  0.1753854E+03  0.7546771E-02  0.1178255E+00
          2   -1    0    0  501    0  0.00000000000E+00  0.00000000000E+00  0.27013528230E+04  0.27013528230E+04  0.00000000000E+00 0. -1.
         -2   -1    0    0    0  501 -0.00000000000E+00 -0.00000000000E+00 -0.13714270981E+02  0.13714270981E+02  0.00000000000E+00 0.  1.
         23    2    1    2    0    0 -0.25924630525E+02  0.12046372975E+03  0.21143031904E+04  0.21215649893E+04  0.12480555350E+03 0.  0.
          5    1    3    3  502    0  0.37568112609E+02  0.43480844842E+02  0.37609780572E+03  0.38049125669E+03  0.47000000000E+01 0.  1.
         -5    1    3    3    0  502 -0.63492743134E+02  0.76982884907E+02  0.17382053847E+04  0.17410737326E+04  0.47000000000E+01 0.  1.
        -11    1    1    2    0    0  0.34922307201E+02 -0.23066281331E+02  0.77180552930E+02  0.87797828135E+02  0.00000000000E+00 0.  1.
         11    1    1    2    0    0 -0.89976766760E+01 -0.97397448418E+02  0.49615480869E+03  0.50570427656E+03  0.00000000000E+00 0. -1.
<mgrwt>
<rscale>  0 0.16960973E+03</rscale>
<asrwt>0</asrwt>
<pdfrwt beam="1">  1        2 0.41559232E+00 0.17538536E+03</pdfrwt>
<pdfrwt beam="2">  1       -2 0.21098900E-02 0.17538536E+03</pdfrwt>
<totfact> 0.22383677E+03</totfact>
</mgrwt>
</event>
<event>
 7    1  0.5206756E-006  0.2711646E+03  0.7546771E-02  0.1102612E+00
          1   -1    0    0  501    0  0.00000000000E+00  0.00000000000E+00  0.11444367414E+03  0.11444367414E+03  0.00000000000E+00 0. -1.
         -1   -1    0    0    0  501 -0.00000000000E+00 -0.00000000000E+00 -0.64044524490E+03  0.64044524490E+03  0.00000000000E+00 0.  1.
         23    2    1    2    0    0 -0.22442198946E+03  0.86835870610E+02 -0.18795824572E+03  0.32993717074E+03  0.12499814688E+03 0.  0.
          5    1    3    3  502    0 -0.51074334858E+01 -0.17825510780E+02  0.48048916277E+01  0.19723379399E+02  0.47000000000E+01 0. -1.
         -5    1    3    3    0  502 -0.21931455597E+03  0.10466138139E+03 -0.19276313735E+03  0.31021379134E+03  0.47000000000E+01 0. -1.
        -11    1    1    2    0    0  0.19692416284E+03 -0.80167958379E+02 -0.33461402846E+03  0.39644996595E+03  0.00000000000E+00 0.  1.
         11    1    1    2    0    0  0.27497826624E+02 -0.66679122303E+01 -0.34292965750E+01  0.28501782357E+02  0.00000000000E+00 0. -1.
<mgrwt>
<rscale>  0 0.26768417E+03</rscale>
<asrwt>0</asrwt>
<pdfrwt beam="1">  1        1 0.17606719E-01 0.27116459E+03</pdfrwt>
<pdfrwt beam="2">  1       -1 0.98530040E-01 0.27116459E+03</pdfrwt>
<totfact> 0.31530334E+02</totfact>
</mgrwt>
</event>
<event>
 7    1  0.5206756E-006  0.1316425E+03  0.7546771E-02  0.1242592E+00
          1   -1    0    0  501    0  0.00000000000E+00  0.00000000000E+00  0.27109006925E+02  0.27109006925E+02  0.00000000000E+00 0. -1.
         -1   -1    0    0    0  501 -0.00000000000E+00 -0.00000000000E+00 -0.47495702068E+03  0.47495702068E+03  0.00000000000E+00 0.  1.
         23    2    1    2    0    0 -0.15410037396E+02  0.37972700945E+02 -0.21954640019E+03  0.25598901732E+03  0.12510139841E+03 0.  0.
          5    1    3    3  502    0  0.23443009589E+02  0.52218608159E+02 -0.36012735703E+02  0.67789120583E+02  0.47000000000E+01 0. -1.
         -5    1    3    3    0  502 -0.38853046985E+02 -0.14245907214E+02 -0.18353366448E+03  0.18819989674E+03  0.47000000000E+01 0.  1.
        -11    1    1    2    0    0 -0.28611166872E+02 -0.31455157236E+02 -0.15108957667E+03  0.15695886711E+03  0.00000000000E+00 0.  1.
         11    1    1    2    0    0  0.44021204268E+02 -0.65175437095E+01 -0.77212036897E+02  0.89118143175E+02  0.00000000000E+00 0. -1.
<mgrwt>
<rscale>  0 0.12030681E+03</rscale>
<asrwt>0</asrwt>
<pdfrwt beam="1">  1        1 0.41706165E-02 0.13164253E+03</pdfrwt>
<pdfrwt beam="2">  1       -1 0.73070310E-01 0.13164253E+03</pdfrwt>
<totfact> 0.40322464E+03</totfact>
</mgrwt>
</event>
<event>
 7    1  0.5206756E-006  0.1279279E+03  0.7546771E-02  0.1245789E+00
         -2   -1    0    0    0  501 -0.00000000000E+00  0.00000000000E+00  0.25360505861E+02  0.25360505861E+02  0.00000000000E+00 0.  1.
          2   -1    0    0  501    0  0.00000000000E+00 -0.00000000000E+00 -0.63717817574E+03  0.63717817574E+03  0.00000000000E+00 0. -1.
         23    2    1    2    0    0  0.23708137001E+02  0.13368148120E+02 -0.50230127139E+03  0.51833591169E+03  0.12499906783E+03 0.  0.
          5    1    3    3  502    0  0.65819997003E+02  0.40202811378E+02 -0.32659602326E+03  0.33561226208E+03  0.47000000000E+01 0. -1.
         -5    1    3    3    0  502 -0.42111860001E+02 -0.26834663258E+02 -0.17570524813E+03  0.18272364961E+03  0.47000000000E+01 0. -1.
        -11    1    1    2    0    0 -0.52632635698E+02 -0.26630003048E+02 -0.87436104223E+02  0.10547238371E+03  0.00000000000E+00 0. -1.
         11    1    1    2    0    0  0.28924498697E+02  0.13261854928E+02 -0.22080294263E+02  0.38730386207E+02  0.00000000000E+00 0.  1.
<mgrwt>
<rscale>  0 0.11838263E+03</rscale>
<asrwt>0</asrwt>
<pdfrwt beam="2">  1        2 0.98027413E-01 0.12792791E+03</pdfrwt>
<pdfrwt beam="1">  1       -2 0.39016162E-02 0.12792791E+03</pdfrwt>
<totfact> 0.12712086E+04</totfact>
</mgrwt>
</event>
<event>
 7    1  0.5206756E-006  0.1341334E+03  0.7546771E-02  0.1265655E+00
          2   -1    0    0  501    0  0.00000000000E+00  0.00000000000E+00  0.43368544419E+02  0.43368544419E+02  0.00000000000E+00 0. -1.
         -2   -1    0    0    0  501 -0.00000000000E+00 -0.00000000000E+00 -0.22679150708E+03  0.22679150708E+03  0.00000000000E+00 0.  1.
         23    2    1    2    0    0 -0.28535616970E+02 -0.39403510700E+02 -0.89161650385E+02  0.16106383265E+03  0.12499936079E+03 0.  0.
          5    1    3    3  502    0  0.25323426469E+02 -0.21127799590E+02 -0.97824349103E+02  0.10334095568E+03  0.47000000000E+01 0. -1.
         -5    1    3    3    0  502 -0.53859043438E+02 -0.18275711111E+02  0.86626987178E+01  0.57722876971E+02  0.47000000000E+01 0. -1.
        -11    1    1    2    0    0  0.11481023520E+02  0.86256071317E+01 -0.52791656017E+02  0.54709907187E+02  0.00000000000E+00 0.  1.
         11    1    1    2    0    0  0.17054593449E+02  0.30777903569E+02 -0.41469656262E+02  0.54386311663E+02  0.00000000000E+00 0. -1.
<mgrwt>
<rscale>  0 0.10729902E+03</rscale>
<asrwt>0</asrwt>
<pdfrwt beam="1">  1        2 0.66720839E-02 0.13413336E+03</pdfrwt>
<pdfrwt beam="2">  1       -2 0.34891000E-01 0.13413336E+03</pdfrwt>
<totfact> 0.78164934E+03</totfact>
</mgrwt>
</event>
<event>
 6    1  0.5206756E-006  0.2106787E+03  0.7546771E-02  0.1165544E+00
         -1   -1    0    0    0  501 -0.00000000000E+00  0.00000000000E+00  0.64651516473E+02  0.64651516473E+02  0.00000000000E+00 0.  1.
          1   -1    0    0  501    0  0.00000000000E+00 -0.00000000000E+00 -0.43662130308E+03  0.43662130308E+03  0.00000000000E+00 0. -1.
          5    1    1    2  502    0  0.11830423368E+03  0.52082368561E+02 -0.26059987817E+03  0.29093444506E+03  0.47000000000E+01 0. -1.
         -5    1    1    2    0  502 -0.44463620249E+02 -0.38112975418E+02 -0.24723323737E+02  0.63741235927E+02  0.47000000000E+01 0.  1.
        -11    1    1    2    0    0 -0.28515339290E+02 -0.51037558441E+02 -0.32729078452E+02  0.67001115832E+02  0.00000000000E+00 0. -1.
         11    1    1    2    0    0 -0.45325274142E+02  0.37068165298E+02 -0.53917506244E+02  0.79596022728E+02  0.00000000000E+00 0.  1.
<mgrwt>
<rscale>  0 0.18235423E+03</rscale>
<asrwt>0</asrwt>
<pdfrwt beam="2">  1        1 0.67172509E-01 0.21067869E+03</pdfrwt>
<pdfrwt beam="1">  1       -1 0.99463870E-02 0.21067869E+03</pdfrwt>
<totfact> 0.32810804E+03</totfact>
</mgrwt>
</event>
<event>
 7    1  0.5206756E-006  0.1869743E+03  0.7546771E-02  0.1166611E+00
         -2   -1    0    0    0  501 -0.00000000000E+00  0.00000000000E+00  0.89610375581E+02  0.89610375581E+02  0.00000000000E+00 0.  1.
          2   -1    0    0  501    0  0.00000000000E+00 -0.00000000000E+00 -0.37804890293E+03  0.37804890293E+03  0.00000000000E+00 0. -1.
         23    2    1    2    0    0 -0.99128227068E+02 -0.97505384496E+02 -0.22066191820E+03  0.28922492906E+03  0.12500268811E+03 0.  0.
          5    1    3    3  502    0 -0.14466698209E+02 -0.94957275771E+02 -0.15301039772E+03  0.18072200029E+03  0.47000000000E+01 0. -1.
         -5    1    3    3    0  502 -0.84661528859E+02 -0.25481087244E+01 -0.67651520485E+02  0.10850292877E+03  0.47000000000E+01 0. -1.
        -11    1    1    2    0    0  0.20002809955E+02 -0.16528287907E+02 -0.67343635429E+01  0.26807617566E+02  0.00000000000E+00 0.  1.
         11    1    1    2    0    0  0.79125417113E+02  0.11403367240E+03 -0.61042245601E+02  0.15162673189E+03  0.00000000000E+00 0. -1.
<mgrwt>
<rscale>  0 0.18123728E+03</rscale>
<asrwt>0</asrwt>
<pdfrwt beam="2">  1        2 0.58161369E-01 0.18697427E+03</pdfrwt>
<pdfrwt beam="1">  1       -2 0.13786212E-01 0.18697427E+03</pdfrwt>
<totfact> 0.32853618E+03</totfact>
</mgrwt>
</event>
<event>
 7    1  0.5206756E-006  0.1844898E+03  0.7546771E-02  0.1168840E+00
         -1   -1    0    0    0  501 -0.00000000000E+00  0.00000000000E+00  0.14673608362E+03  0.14673608362E+03  0.00000000000E+00 0.  1.
          1   -1    0    0  501    0  0.00000000000E+00 -0.00000000000E+00 -0.48539896387E+03  0.48539896387E+03  0.00000000000E+00 0. -1.
         23    2    1    2    0    0 -0.13473299646E+03 -0.16085714201E+02 -0.41332164876E+03  0.45262706306E+03  0.12499896936E+03 0.  0.
          5    1    3    3  502    0 -0.72440854525E+02  0.36521498475E+02 -0.10009652915E+03  0.12892983519E+03  0.47000000000E+01 0. -1.
         -5    1    3    3    0  502 -0.62292141936E+02 -0.52607212676E+02 -0.31322511961E+03  0.32369722786E+03  0.47000000000E+01 0. -1.
        -11    1    1    2    0    0  0.58866222175E+02 -0.36716729746E+02  0.43857018415E+02  0.82077941133E+02  0.00000000000E+00 0.  1.
         11    1    1    2    0    0  0.75866774287E+02  0.52802443947E+02  0.30801750103E+02  0.97430043297E+02  0.00000000000E+00 0. -1.
<mgrwt>
<rscale>  0 0.17893269E+03</rscale>
<asrwt>0</asrwt>
<pdfrwt beam="2">  1        1 0.74676763E-01 0.18448976E+03</pdfrwt>
<pdfrwt beam="1">  1       -1 0.22574782E-01 0.18448976E+03</pdfrwt>
<totfact> 0.77841774E+02</totfact>
</mgrwt>
</event>
<event>
 6    1  0.5206756E-006  0.4911234E+03  0.7546771E-02  0.1070728E+00
          1   -1    0    0  501    0  0.00000000000E+00  0.00000000000E+00  0.13109971989E+04  0.13109971989E+04  0.00000000000E+00 0. -1.
         -1   -1    0    0    0  501 -0.00000000000E+00 -0.00000000000E+00 -0.10198603302E+03  0.10198603302E+03  0.00000000000E+00 0.  1.
          5    1    1    2  502    0  0.21159141339E+03 -0.35268320320E+02  0.94107539624E+03  0.96522524421E+03  0.47000000000E+01 0. -1.
         -5    1    1    2    0  502 -0.21031245171E+03 -0.54510602697E+01  0.27499408816E+03  0.34627284029E+03  0.47000000000E+01 0.  1.
        -11    1    1    2    0    0 -0.34525215265E+02  0.34828407144E+02  0.24895304549E+02  0.54998041982E+02  0.00000000000E+00 0.  1.
         11    1    1    2    0    0  0.33246253578E+02  0.58909734461E+01 -0.31953623073E+02  0.46487105444E+02  0.00000000000E+00 0. -1.
<mgrwt>
<rscale>  0 0.33092561E+03</rscale>
<asrwt>0</asrwt>
<pdfrwt beam="1">  1        1 0.20169186E+00 0.49112344E+03</pdfrwt>
<pdfrwt beam="2">  1       -1 0.15690160E-01 0.49112344E+03</pdfrwt>
<totfact> 0.28096540E+02</totfact>
</mgrwt>
</event>
<event>
 7    1  0.5206756E-006  0.1332312E+03  0.7546771E-02  0.1232855E+00
          1   -1    0    0  501    0  0.00000000000E+00  0.00000000000E+00  0.73274704317E+03  0.73274704317E+03  0.00000000000E+00 0. -1.
         -1   -1    0    0    0  501 -0.00000000000E+00 -0.00000000000E+00 -0.38963199762E+02  0.38963199762E+02  0.00000000000E+00 0.  1.
         23    2    1    2    0    0 -0.41371516310E+02 -0.20370189124E+02  0.63479085483E+03  0.64862159586E+03  0.12499599301E+03 0.  0.
          5    1    3    3  502    0  0.39853785730E+02  0.69339903102E+01  0.11989599215E+03  0.12662362889E+03  0.47000000000E+01 0.  1.
         -5    1    3    3    0  502 -0.81225302041E+02 -0.27304179434E+02  0.51489486268E+03  0.52199796697E+03  0.47000000000E+01 0.  1.
        -11    1    1    2    0    0 -0.24114645731E+02  0.21661402574E+02 -0.34452143111E+01  0.32597576625E+02  0.00000000000E+00 0.  1.
         11    1    1    2    0    0  0.65486162041E+02 -0.12912134495E+01  0.62438202881E+02  0.90491070444E+02  0.00000000000E+00 0. -1.
<mgrwt>
<rscale>  0 0.12642741E+03</rscale>
<asrwt>0</asrwt>
<pdfrwt beam="1">  1        1 0.11273030E+00 0.13323117E+03</pdfrwt>
<pdfrwt beam="2">  1       -1 0.59943390E-02 0.13323117E+03</pdfrwt>
<totfact> 0.34402809E+03</totfact>
</mgrwt>
</event>
<event>
 6    1  0.5206756E-006  0.2990056E+03  0.7546771E-02  0.1100449E+00
          2   -1    0    0  501    0  0.00000000000E+00  0.00000000000E+00  0.40991082983E+03  0.40991082983E+03  0.00000000000E+00 0. -1.
         -2   -1    0    0    0  501 -0.00000000000E+00 -0.00000000000E+00 -0.21074907954E+03  0.21074907954E+03  0.00000000000E+00 0.  1.
          5    1    1    2  502    0  0.10120920575E+03  0.17756261174E+02  0.72587937332E+02  0.12589553918E+03  0.47000000000E+01 0. -1.
         -5    1    1    2    0  502 -0.42180029328E+02 -0.18941625812E+03  0.20006151435E+03  0.27875504164E+03  0.47000000000E+01 0.  1.
        -11    1    1    2    0    0 -0.42332669065E+02  0.39952480838E+02 -0.58296113771E+02  0.82381384281E+02  0.00000000000E+00 0.  1.
         11    1    1    2    0    0 -0.16696507356E+02  0.13170751610E+03 -0.15191587618E+02  0.13362794427E+03  0.00000000000E+00 0. -1.
<mgrwt>
<rscale>  0 0.27145643E+03</rscale>
<asrwt>0</asrwt>
<pdfrwt beam="1">  1        2 0.63063204E-01 0.29900563E+03</pdfrwt>
<pdfrwt beam="2">  1       -2 0.32422935E-01 0.29900563E+03</pdfrwt>
<totfact> 0.69096328E+02</totfact>
</mgrwt>
</event>
<event>
 7    1  0.5206756E-006  0.1458594E+03  0.7546771E-02  0.1226850E+00
          2   -1    0    0  501    0  0.00000000000E+00  0.00000000000E+00  0.99354128496E+03  0.99354128496E+03  0.00000000000E+00 0. -1.
         -2   -1    0    0    0  501 -0.00000000000E+00 -0.00000000000E+00 -0.14466067769E+02  0.14466067769E+02  0.00000000000E+00 0.  1.
         23    2    1    2    0    0  0.58538884389E+02 -0.47147614871E+02  0.63454474810E+03  0.65109293206E+03  0.12500108102E+03 0.  0.
          5    1    3    3  502    0  0.58030221867E+02 -0.66456416424E+02  0.23509414366E+03  0.25114798092E+03  0.47000000000E+01 0.  1.
         -5    1    3    3    0  502  0.50866252199E+00  0.19308801554E+02  0.39945060444E+03  0.39994495114E+03  0.47000000000E+01 0.  1.
        -11    1    1    2    0    0 -0.11003191006E+02  0.43352080469E+02  0.14368574560E+03  0.15048610096E+03  0.00000000000E+00 0.  1.
         11    1    1    2    0    0 -0.47535693382E+02  0.37955344015E+01  0.20084472349E+03  0.20642831971E+03  0.00000000000E+00 0. -1.
<mgrwt>
<rscale>  0 0.13040897E+03</rscale>
<asrwt>0</asrwt>
<pdfrwt beam="1">  1        2 0.15285245E+00 0.14585941E+03</pdfrwt>
<pdfrwt beam="2">  1       -2 0.22255497E-02 0.14585941E+03</pdfrwt>
<totfact> 0.16809289E+04</totfact>
</mgrwt>
</event>
<event>
 7    1  0.5206756E-006  0.1342045E+03  0.7546771E-02  0.1234856E+00
         -2   -1    0    0    0  501 -0.00000000000E+00  0.00000000000E+00  0.61305801437E+02  0.61305801437E+02  0.00000000000E+00 0.  1.
          2   -1    0    0  501    0  0.00000000000E+00 -0.00000000000E+00 -0.26359778235E+03  0.26359778235E+03  0.00000000000E+00 0. -1.
         23    2    1    2    0    0  0.12876203389E+02  0.47140398739E+02 -0.17370070049E+03  0.21950577180E+03  0.12499134649E+03 0.  0.
          5    1    3    3  502    0 -0.12367866541E+02  0.54503533964E+02 -0.18285871451E+03  0.19126682621E+03  0.47000000000E+01 0. -1.
         -5    1    3    3    0  502  0.25244069930E+02 -0.73631352242E+01  0.91580140222E+01  0.28238945586E+02  0.47000000000E+01 0. -1.
        -11    1    1    2    0    0  0.38824890689E+01 -0.16469964565E+02  0.31571262627E+02  0.35820079258E+02  0.00000000000E+00 0.  1.
         11    1    1    2    0    0 -0.16758692458E+02 -0.30670434174E+02 -0.60162543048E+02  0.69577732726E+02  0.00000000000E+00 0. -1.
<mgrwt>
<rscale>  0 0.12513644E+03</rscale>
<asrwt>0</asrwt>
<pdfrwt beam="2">  1        2 0.40553504E-01 0.13420451E+03</pdfrwt>
<pdfrwt beam="1">  1       -2 0.94316620E-02 0.13420451E+03</pdfrwt>
<totfact> 0.86840495E+03</totfact>
</mgrwt>
</event>
<event>
 7    1  0.5206756E-006  0.2005500E+03  0.7546771E-02  0.1153476E+00
         -1   -1    0    0    0  501 -0.00000000000E+00  0.00000000000E+00  0.67815120936E+03  0.67815120936E+03  0.00000000000E+00 0.  1.
          1   -1    0    0  501    0  0.00000000000E+00 -0.00000000000E+00 -0.55908227242E+02  0.55908227242E+02  0.00000000000E+00 0. -1.
         23    2    1    2    0    0 -0.23245658453E+02 -0.15510235139E+03  0.39655116035E+03  0.44437949130E+03  0.12499283768E+03 0.  0.
          5    1    3    3  502    0 -0.48233303066E+02 -0.14393143506E+03  0.38577093979E+03  0.41458897418E+03  0.47000000000E+01 0.  1.
         -5    1    3    3    0  502  0.24987644613E+02 -0.11170916337E+02  0.10780220553E+02  0.29790517120E+02  0.47000000000E+01 0.  1.
        -11    1    1    2    0    0 -0.28409404070E+02  0.94562256399E+02  0.15177566159E+03  0.18106619239E+03  0.00000000000E+00 0.  1.
         11    1    1    2    0    0  0.51655062523E+02  0.60540094996E+02  0.73916160184E+02  0.10861375292E+03  0.00000000000E+00 0. -1.
<mgrwt>
<rscale>  0 0.19563409E+03</rscale>
<asrwt>0</asrwt>
<pdfrwt beam="2">  1        1 0.86012662E-02 0.20055002E+03</pdfrwt>
<pdfrwt beam="1">  1       -1 0.10433095E+00 0.20055002E+03</pdfrwt>
<totfact> 0.71896430E+02</totfact>
</mgrwt>
</event>
<event>
 7    1  0.5206756E-006  0.1279347E+03  0.7546771E-02  0.1245130E+00
         -2   -1    0    0    0  501 -0.00000000000E+00  0.00000000000E+00  0.21998303114E+03  0.21998303114E+03  0.00000000000E+00 0.  1.
          2   -1    0    0  501    0  0.00000000000E+00 -0.00000000000E+00 -0.57449985789E+02  0.57449985789E+02  0.00000000000E+00 0. -1.
         23    2    1    2    0    0  0.21359408706E+02 -0.16986026331E+02  0.75471618968E+02  0.14853702296E+03  0.12499012957E+03 0.  0.
          5    1    3    3  502    0 -0.12140744923E+02  0.46491597120E+02  0.62016014118E+01  0.48676648920E+02  0.47000000000E+01 0.  1.
         -5    1    3    3    0  502  0.33500153629E+02 -0.63477623450E+02  0.69270017556E+02  0.99860374044E+02  0.47000000000E+01 0.  1.
        -11    1    1    2    0    0 -0.37351505047E+02  0.27688419987E+02  0.75682567321E+01  0.47106921367E+02  0.00000000000E+00 0. -1.
         11    1    1    2    0    0  0.15992096341E+02 -0.10702393657E+02  0.79493169648E+02  0.81789072595E+02  0.00000000000E+00 0.  1.
<mgrwt>
<rscale>  0 0.11877612E+03</rscale>
<asrwt>0</asrwt>
<pdfrwt beam="2">  1        2 0.88384595E-02 0.12793468E+03</pdfrwt>
<pdfrwt beam="1">  1       -2 0.33843543E-01 0.12793468E+03</pdfrwt>
<totfact> 0.57808592E+03</totfact>
</mgrwt>
</event>
<event>
 7    1  0.5206756E-006  0.1791806E+03  0.7546771E-02  0.1170987E+00
         -1   -1    0    0    0  501 -0.00000000000E+00  0.00000000000E+00  0.12010621763E+03  0.12010621763E+03  0.00000000000E+00 0.  1.
          1   -1    0    0  501    0  0.00000000000E+00 -0.00000000000E+00 -0.25594742096E+03  0.25594742096E+03  0.00000000000E+00 0. -1.
         23    2    1    2    0    0  0.10717778855E+03  0.70671218031E+02 -0.50568992348E+02  0.18617979823E+03  0.12499677942E+03 0.  0.
          5    1    3    3  502    0  0.35629747088E+02 -0.28507484368E+02 -0.44090066179E+02  0.63625305329E+02  0.47000000000E+01 0. -1.
         -5    1    3    3    0  502  0.71548041458E+02  0.99178702399E+02 -0.64789261689E+01  0.12255449290E+03  0.47000000000E+01 0. -1.
        -11    1    1    2    0    0 -0.25203220207E+02 -0.77901112954E+02 -0.66468313484E+02  0.10546005123E+03  0.00000000000E+00 0. -1.
         11    1    1    2    0    0 -0.81974568339E+02  0.72298949231E+01 -0.18803897498E+02  0.84413789135E+02  0.00000000000E+00 0.  1.
<mgrwt>
<rscale>  0 0.17674860E+03</rscale>
<asrwt>0</asrwt>
<pdfrwt beam="2">  1        1 0.39376526E-01 0.17918062E+03</pdfrwt>
<pdfrwt beam="1">  1       -1 0.18477880E-01 0.17918062E+03</pdfrwt>
<totfact> 0.24192269E+03</totfact>
</mgrwt>
</event>
<event>
 7    1  0.5206756E-006  0.1446062E+03  0.7546771E-02  0.1217335E+00
         -1   -1    0    0    0  501 -0.00000000000E+00  0.00000000000E+00  0.29311950654E+02  0.29311950654E+02  0.00000000000E+00 0.  1.
          1   -1    0    0  501    0  0.00000000000E+00 -0.00000000000E+00 -0.61097171598E+03  0.61097171598E+03  0.00000000000E+00 0. -1.
         23    2    1    2    0    0 -0.72587136562E+02 -0.37300183491E+01 -0.38922452251E+03  0.41521883989E+03  0.12501260195E+03 0.  0.
          5    1    3    3  502    0 -0.33428397271E+02 -0.53511129030E+01 -0.36952653115E+03  0.37110381213E+03  0.47000000000E+01 0.  1.
         -5    1    3    3    0  502 -0.39158739292E+02  0.16210945539E+01 -0.19697991353E+02  0.44115027755E+02  0.47000000000E+01 0.  1.
        -11    1    1    2    0    0  0.86033632594E+02  0.22958446234E+02 -0.12355669782E+03  0.15229948709E+03  0.00000000000E+00 0.  1.
         11    1    1    2    0    0 -0.13446496032E+02 -0.19228427885E+02 -0.68878544996E+02  0.72765339656E+02  0.00000000000E+00 0. -1.
<mgrwt>
<rscale>  0 0.13706410E+03</rscale>
<asrwt>0</asrwt>
<pdfrwt beam="2">  1        1 0.93995653E-01 0.14460621E+03</pdfrwt>
<pdfrwt beam="1">  1       -1 0.45095307E-02 0.14460621E+03</pdfrwt>
<totfact> 0.68032762E+03</totfact>
</mgrwt>
</event>
<event>
 7    1  0.5206756E-006  0.2799571E+03  0.7546771E-02  0.1097556E+00
         -1   -1    0    0    0  501 -0.00000000000E+00  0.00000000000E+00  0.17168313432E+03  0.17168313432E+03  0.00000000000E+00 0.  1.
          1   -1    0    0  501    0  0.00000000000E+00 -0.00000000000E+00 -0.60542097584E+03  0.60542097584E+03  0.00000000000E+00 0. -1.
         23    2    1    2    0    0  0.14654563382E+03 -0.20316166632E+03 -0.42653540228E+03  0.51020431154E+03  0.12500281862E+03 0.  0.
          5    1    3    3  502    0  0.74378062837E+02 -0.18941970571E+03 -0.34308408452E+03  0.39892442917E+03  0.47000000000E+01 0. -1.
         -5    1    3    3    0  502  0.72167570985E+02 -0.13741960608E+02 -0.83451317760E+02  0.11127988236E+03  0.47000000000E+01 0. -1.
        -11    1    1    2    0    0 -0.56816187922E+02  0.71059392630E+02  0.41422043204E+02  0.99966505161E+02  0.00000000000E+00 0.  1.
         11    1    1    2    0    0 -0.89729445899E+02  0.13210227369E+03 -0.48624482449E+02  0.16693329347E+03  0.00000000000E+00 0. -1.
<mgrwt>
<rscale>  0 0.27660890E+03</rscale>
<asrwt>0</asrwt>
<pdfrwt beam="2">  1        1 0.93141690E-01 0.27995712E+03</pdfrwt>
<pdfrwt beam="1">  1       -1 0.26412790E-01 0.27995712E+03</pdfrwt>
<totfact> 0.44328691E+02</totfact>
</mgrwt>
</event>
<event>
 7    1  0.5206756E-006  0.1480025E+03  0.7546771E-02  0.1212275E+00
          1   -1    0    0  501    0  0.00000000000E+00  0.00000000000E+00  0.15308914179E+03  0.15308914179E+03  0.00000000000E+00 0. -1.
         -1   -1    0    0    0  501 -0.00000000000E+00 -0.00000000000E+00 -0.14933996519E+03  0.14933996519E+03  0.00000000000E+00 0.  1.
         23    2    1    2    0    0 -0.59525926589E+02  0.52317498106E+02  0.70658943763E+02  0.16400435006E+03  0.12499713581E+03 0.  0.
          5    1    3    3  502    0 -0.53584872503E+02 -0.30303743344E+02  0.47404812227E+02  0.77839332244E+02  0.47000000000E+01 0.  1.
         -5    1    3    3    0  502 -0.59410540858E+01  0.82621241450E+02  0.23254131536E+02  0.86165017820E+02  0.47000000000E+01 0.  1.
        -11    1    1    2    0    0  0.47846553454E+02  0.15644941248E+02 -0.40399160037E+02  0.64545712451E+02  0.00000000000E+00 0. -1.
         11    1    1    2    0    0  0.11679373135E+02 -0.67962439354E+02 -0.26510607126E+02  0.73879044458E+02  0.00000000000E+00 0.  1.
<mgrwt>
<rscale>  0 0.14078590E+03</rscale>
<asrwt>0</asrwt>
<pdfrwt beam="1">  1        1 0.23552176E-01 0.14800250E+03</pdfrwt>
<pdfrwt beam="2">  1       -1 0.22975379E-01 0.14800250E+03</pdfrwt>
<totfact> 0.32101905E+03</totfact>
</mgrwt>
</event>
<event>
 6    1  0.5206756E-006  0.2549136E+03  0.7546771E-02  0.1110238E+00
         -1   -1    0    0    0  501 -0.00000000000E+00  0.00000000000E+00  0.33839377842E+02  0.33839377842E+02  0.00000000000E+00 0.  1.
          1   -1    0    0  501    0  0.00000000000E+00 -0.00000000000E+00 -0.48006912797E+03  0.48006912797E+03  0.00000000000E+00 0. -1.
          5    1    1    2  502    0 -0.13585208900E+01 -0.50799988525E+02 -0.26569460638E+03  0.27055165546E+03  0.47000000000E+01 0. -1.
         -5    1    1    2    0  502 -0.69912443744E+01  0.11709008729E+02  0.15381787680E+02  0.21087147165E+02  0.47000000000E+01 0.  1.
        -11    1    1    2    0    0  0.51034967905E+02  0.16410818927E+02 -0.12922312936E+03  0.13990175156E+03  0.00000000000E+00 0.  1.
         11    1    1    2    0    0 -0.42685202641E+02  0.22680160869E+02 -0.66693802068E+02  0.82367951631E+02  0.00000000000E+00 0. -1.
<mgrwt>
<rscale>  0 0.25491364E+03</rscale>
<asrwt>0</asrwt>
<pdfrwt beam="2">  1        1 0.73856785E-01 0.25491364E+03</pdfrwt>
<pdfrwt beam="1">  1       -1 0.52060584E-02 0.25491364E+03</pdfrwt>
<totfact> 0.78255277E+03</totfact>
</mgrwt>
</event>
<event>
 7    1  0.5206756E-006  0.2632465E+03  0.7546771E-02  0.1107470E+00
         -2   -1    0    0    0  501 -0.00000000000E+00  0.00000000000E+00  0.57433826609E+03  0.57433826609E+03  0.00000000000E+00 0.  1.
          2   -1    0    0  501    0  0.00000000000E+00 -0.00000000000E+00 -0.12715624451E+03  0.12715624451E+03  0.00000000000E+00 0. -1.
         23    2    1    2    0    0 -0.23157344677E+03  0.68777241236E+01  0.11642807036E+03  0.28784406395E+03  0.12500058098E+03 0.  0.
          5    1    3    3  502    0 -0.14999538949E+03 -0.49486217860E+02  0.41224104172E+02  0.16330651975E+03  0.47000000000E+01 0.  1.
         -5    1    3    3    0  502 -0.81578057275E+02  0.56363941983E+02  0.75203966191E+02  0.12453754420E+03  0.47000000000E+01 0.  1.
        -11    1    1    2    0    0  0.90336978620E+02 -0.66196317135E+01  0.20667247300E+03  0.22565039403E+03  0.00000000000E+00 0.  1.
         11    1    1    2    0    0  0.14123646815E+03 -0.25809241016E+00  0.12408147822E+03  0.18800005262E+03  0.00000000000E+00 0. -1.
<mgrwt>
<rscale>  0 0.25945681E+03</rscale>
<asrwt>0</asrwt>
<pdfrwt beam="2">  1        2 0.19562500E-01 0.26324648E+03</pdfrwt>
<pdfrwt beam="1">  1       -2 0.88359732E-01 0.26324648E+03</pdfrwt>
<totfact> 0.32571697E+02</totfact>
</mgrwt>
</event>
<event>
 7    1  0.5206756E-006  0.1647084E+03  0.7546771E-02  0.1189816E+00
          1   -1    0    0  501    0  0.00000000000E+00  0.00000000000E+00  0.44586642868E+03  0.44586642868E+03  0.00000000000E+00 0. -1.
         -1   -1    0    0    0  501 -0.00000000000E+00 -0.00000000000E+00 -0.53303161578E+02  0.53303161578E+02  0.00000000000E+00 0.  1.
         23    2    1    2    0    0  0.97932615954E+02  0.43726015014E+02  0.22472222745E+03  0.27861971909E+03  0.12500442673E+03 0.  0.
          5    1    3    3  502    0  0.11727198928E+03  0.90477600555E+00  0.15540134432E+03  0.19474394960E+03  0.47000000000E+01 0. -1.
         -5    1    3    3    0  502 -0.19339373324E+02  0.42821239009E+02  0.69320883125E+02  0.83875769493E+02  0.47000000000E+01 0. -1.
        -11    1    1    2    0    0 -0.11129023963E+03 -0.37966427867E+02  0.16908188410E+03  0.20595060237E+03  0.00000000000E+00 0. -1.
         11    1    1    2    0    0  0.13357623681E+02 -0.57595871475E+01 -0.12408444502E+01  0.14599268799E+02  0.00000000000E+00 0.  1.
<mgrwt>
<rscale>  0 0.15901238E+03</rscale>
<asrwt>0</asrwt>
<pdfrwt beam="1">  1        1 0.68594833E-01 0.16470843E+03</pdfrwt>
<pdfrwt beam="2">  1       -1 0.82004867E-02 0.16470843E+03</pdfrwt>
<totfact> 0.42488059E+03</totfact>
</mgrwt>
</event>
<event>
 6    1  0.5206756E-006  0.1617245E+03  0.7546771E-02  0.1209573E+00
          2   -1    0    0  501    0  0.00000000000E+00  0.00000000000E+00  0.15867102616E+03  0.15867102616E+03  0.00000000000E+00 0. -1.
         -2   -1    0    0    0  501 -0.00000000000E+00 -0.00000000000E+00 -0.11800467673E+03  0.11800467673E+03  0.00000000000E+00 0.  1.
          5    1    1    2  502    0 -0.77969276169E+02  0.63216447492E+00  0.69518836422E+02  0.10456847649E+03  0.47000000000E+01 0. -1.
         -5    1    1    2    0  502  0.62281862849E+02 -0.32244381234E+02 -0.28739042614E+01  0.70349697134E+02  0.47000000000E+01 0.  1.
        -11    1    1    2    0    0 -0.14388940326E+02 -0.27932762793E+02 -0.49270167959E+01  0.31804973440E+02  0.00000000000E+00 0. -1.
         11    1    1    2    0    0  0.30076353646E+02  0.59544979552E+02 -0.21051565931E+02  0.69952555827E+02  0.00000000000E+00 0.  1.
<mgrwt>
<rscale>  0 0.14282844E+03</rscale>
<asrwt>0</asrwt>
<pdfrwt beam="1">  1        2 0.24410927E-01 0.16172452E+03</pdfrwt>
<pdfrwt beam="2">  1       -2 0.18154566E-01 0.16172452E+03</pdfrwt>
<totfact> 0.52894632E+03</totfact>
</mgrwt>
</event>
<event>
 7    1  0.5206756E-006  0.1370677E+03  0.7546771E-02  0.1228288E+00
         -1   -1    0    0    0  501 -0.00000000000E+00  0.00000000000E+00  0.41208244350E+02  0.41208244350E+02  0.00000000000E+00 0.  1.
          1   -1    0    0  501    0  0.00000000000E+00 -0.00000000000E+00 -0.38126400613E+03  0.38126400613E+03  0.00000000000E+00 0. -1.
         23    2    1    2    0    0 -0.37338528907E+02  0.42045847001E+02 -0.22877003924E+03  0.26668948581E+03  0.12500212798E+03 0.  0.
          5    1    3    3  502    0 -0.53355921338E+02 -0.19246333865E+02 -0.45954933598E+02  0.73152044613E+02  0.47000000000E+01 0. -1.
         -5    1    3    3    0  502  0.16017392431E+02  0.61292180866E+02 -0.18281510564E+03  0.19353744120E+03  0.47000000000E+01 0. -1.
        -11    1    1    2    0    0  0.39008110080E+02 -0.26814181454E+01 -0.14863869478E+01  0.39128404023E+02  0.00000000000E+00 0.  1.
         11    1    1    2    0    0 -0.16695811728E+01 -0.39364428855E+02 -0.10979933559E+03  0.11665436064E+03  0.00000000000E+00 0. -1.
<mgrwt>
<rscale>  0 0.12944061E+03</rscale>
<asrwt>0</asrwt>
<pdfrwt beam="2">  1        1 0.58656003E-01 0.13706769E+03</pdfrwt>
<pdfrwt beam="1">  1       -1 0.63397297E-02 0.13706769E+03</pdfrwt>
<totfact> 0.75584100E+03</totfact>
</mgrwt>
</event>
<event>
 7    1  0.5206756E-006  0.1300465E+03  0.7546771E-02  0.1242400E+00
          2   -1    0    0  501    0  0.00000000000E+00  0.00000000000E+00  0.76055570820E+03  0.76055570820E+03  0.00000000000E+00 0. -1.
         -2   -1    0    0    0  501 -0.00000000000E+00 -0.00000000000E+00 -0.18794280271E+02  0.18794280271E+02  0.00000000000E+00 0.  1.
         23    2    1    2    0    0  0.32545019421E+02 -0.15142689801E+02  0.54877226217E+03  0.56397081575E+03  0.12499442371E+03 0.  0.
          5    1    3    3  502    0 -0.31484090406E+02 -0.39620099189E+02  0.34971579776E+03  0.35338962833E+03  0.47000000000E+01 0.  1.
         -5    1    3    3    0  502  0.64029109827E+02  0.24477409388E+02  0.19905646440E+03  0.21058118742E+03  0.47000000000E+01 0.  1.
        -11    1    1    2    0    0 -0.82549707598E+01  0.51204353739E+02  0.11308005365E+03  0.12440710959E+03  0.00000000000E+00 0.  1.
         11    1    1    2    0    0 -0.24290048661E+02 -0.36061663938E+02  0.79909112119E+02  0.90972063127E+02  0.00000000000E+00 0. -1.
<mgrwt>
<rscale>  0 0.12042377E+03</rscale>
<asrwt>0</asrwt>
<pdfrwt beam="1">  1        2 0.11700855E+00 0.13004647E+03</pdfrwt>
<pdfrwt beam="2">  1       -2 0.28914283E-02 0.13004647E+03</pdfrwt>
<totfact> 0.16053824E+04</totfact>
</mgrwt>
</event>
<event>
 7    1  0.5206756E-006  0.1312956E+03  0.7546771E-02  0.1238862E+00
          2   -1    0    0  501    0  0.00000000000E+00  0.00000000000E+00  0.37287745113E+02  0.37287745113E+02  0.00000000000E+00 0. -1.
         -2   -1    0    0    0  501 -0.00000000000E+00 -0.00000000000E+00 -0.44438433407E+03  0.44438433407E+03  0.00000000000E+00 0.  1.
         23    2    1    2    0    0 -0.39496004068E+02  0.73451562467E+01 -0.12059086834E+03  0.17827137661E+03  0.12499856213E+03 0.  0.
          5    1    3    3  502    0 -0.40394509961E+02  0.51083421763E+02 -0.19696170936E+02  0.68200158090E+02  0.47000000000E+01 0. -1.
         -5    1    3    3    0  502  0.89850589224E+00 -0.43738265517E+02 -0.10089469740E+03  0.11007121852E+03  0.47000000000E+01 0. -1.
        -11    1    1    2    0    0 -0.26589242554E+02  0.71446346157E+01 -0.46480835987E+02  0.54023159270E+02  0.00000000000E+00 0. -1.
         11    1    1    2    0    0  0.66085246622E+02 -0.14489790862E+02 -0.24002488464E+03  0.24937754330E+03  0.00000000000E+00 0.  1.
<mgrwt>
<rscale>  0 0.12260415E+03</rscale>
<asrwt>0</asrwt>
<pdfrwt beam="1">  1        2 0.57365763E-02 0.13129557E+03</pdfrwt>
<pdfrwt beam="2">  1       -2 0.68366820E-01 0.13129557E+03</pdfrwt>
<totfact> 0.25164854E+03</totfact>
</mgrwt>
</event>
<event>
 7    1  0.5206756E-006  0.4469298E+03  0.7546771E-02  0.1029338E+00
         -1   -1    0    0    0  501 -0.00000000000E+00  0.00000000000E+00  0.10546036273E+03  0.10546036273E+03  0.00000000000E+00 0.  1.
          1   -1    0    0  501    0  0.00000000000E+00 -0.00000000000E+00 -0.20819147152E+04  0.20819147152E+04  0.00000000000E+00 0. -1.
         23    2    1    2    0    0  0.35832147552E+03 -0.23605853180E+03 -0.13580356422E+04  0.14296877472E+04  0.12501335432E+03 0.  0.
          5    1    3    3  502    0  0.23767179067E+03 -0.87390424717E+02 -0.84150996775E+03  0.87879808957E+03  0.47000000000E+01 0. -1.
         -5    1    3    3    0  502  0.12064968485E+03 -0.14866810708E+03 -0.51652567449E+03  0.55088965766E+03  0.47000000000E+01 0. -1.
        -11    1    1    2    0    0 -0.20709827293E+03  0.18494508244E+03 -0.40974059228E+03  0.49495629215E+03  0.00000000000E+00 0. -1.
         11    1    1    2    0    0 -0.15122320259E+03  0.51113449362E+02 -0.20867811798E+03  0.26273103857E+03  0.00000000000E+00 0.  1.
<mgrwt>
<rscale>  0 0.44462373E+03</rscale>
<asrwt>0</asrwt>
<pdfrwt beam="2">  1        1 0.32029455E+00 0.44692980E+03</pdfrwt>
<pdfrwt beam="1">  1       -1 0.16224672E-01 0.44692980E+03</pdfrwt>
<totfact> 0.81658510E+01</totfact>
</mgrwt>
</event>
<event>
 7    1  0.5206756E-006  0.1341771E+03  0.7546771E-02  0.1233171E+00
         -2   -1    0    0    0  501 -0.00000000000E+00  0.00000000000E+00  0.24634541810E+02  0.24634541810E+02  0.00000000000E+00 0.  1.
          2   -1    0    0  501    0  0.00000000000E+00 -0.00000000000E+00 -0.69477796698E+03  0.69477796698E+03  0.00000000000E+00 0. -1.
         23    2    1    2    0    0 -0.46026962507E+02 -0.16108388734E+02 -0.51385346167E+03  0.53108273468E+03  0.12500211811E+03 0.  0.
          5    1    3    3  502    0  0.43853614862E+01  0.28200560955E+02 -0.38164094234E+03  0.38273542024E+03  0.47000000000E+01 0. -1.
         -5    1    3    3    0  502 -0.50412323993E+02 -0.44308949689E+02 -0.13221251933E+03  0.14834731444E+03  0.47000000000E+01 0. -1.
        -11    1    1    2    0    0 -0.10262659848E+02  0.22780418747E+02 -0.33320041651E+01  0.25206584798E+02  0.00000000000E+00 0.  1.
         11    1    1    2    0    0  0.56289622354E+02 -0.66720300128E+01 -0.15295795933E+03  0.16312318931E+03  0.00000000000E+00 0. -1.
<mgrwt>
<rscale>  0 0.12622272E+03</rscale>
<asrwt>0</asrwt>
<pdfrwt beam="2">  1        2 0.10688890E+00 0.13417709E+03</pdfrwt>
<pdfrwt beam="1">  1       -2 0.37899302E-02 0.13417709E+03</pdfrwt>
<totfact> 0.12036246E+04</totfact>
</mgrwt>
</event>
<event>
 7    1  0.5206756E-006  0.1916870E+03  0.7546771E-02  0.1160938E+00
         -2   -1    0    0    0  501 -0.00000000000E+00  0.00000000000E+00  0.25132267069E+02  0.25132267069E+02  0.00000000000E+00 0. -1.
          2   -1    0    0  501    0  0.00000000000E+00 -0.00000000000E+00 -0.13419707927E+04  0.13419707927E+04  0.00000000000E+00 0.  1.
         23    2    1    2    0    0  0.13557287052E+03 -0.52334130195E+02 -0.73801094518E+03  0.76249856913E+03  0.12500019327E+03 0.  0.
          5    1    3    3  502    0  0.99522429922E+01 -0.23664922733E+01 -0.37392090767E+03  0.37409034018E+03  0.47000000000E+01 0. -1.
         -5    1    3    3    0  502  0.12562062753E+03 -0.49967637922E+02 -0.36409003751E+03  0.38840822894E+03  0.47000000000E+01 0. -1.
        -11    1    1    2    0    0 -0.10552524219E+03 -0.40765979618E+01 -0.28577285295E+03  0.30466099007E+03  0.00000000000E+00 0.  1.
         11    1    1    2    0    0 -0.30047628327E+02  0.56410728157E+02 -0.29305472749E+03  0.29994350055E+03  0.00000000000E+00 0. -1.
<mgrwt>
<rscale>  0 0.18727996E+03</rscale>
<asrwt>0</asrwt>
<pdfrwt beam="2">  1        2 0.20645703E+00 0.19168702E+03</pdfrwt>
<pdfrwt beam="1">  1       -2 0.38665028E-02 0.19168702E+03</pdfrwt>
<totfact> 0.47758960E+03</totfact>
</mgrwt>
</event>
<event>
 7    1  0.5206756E-006  0.1545853E+03  0.7546771E-02  0.1203480E+00
         -2   -1    0    0    0  501 -0.00000000000E+00  0.00000000000E+00  0.28930979919E+02  0.28930979919E+02  0.00000000000E+00 0.  1.
          2   -1    0    0  501    0  0.00000000000E+00 -0.00000000000E+00 -0.84231904281E+03  0.84231904281E+03  0.00000000000E+00 0. -1.
         23    2    1    2    0    0 -0.37117162738E+02 -0.83041417478E+02 -0.62096180147E+03  0.63991418264E+03  0.12499216565E+03 0.  0.
          5    1    3    3  502    0 -0.59384785671E+02 -0.42126369151E+02 -0.15181603806E+03  0.16843806921E+03  0.47000000000E+01 0.  1.
         -5    1    3    3    0  502  0.22267622933E+02 -0.40915048327E+02 -0.46914576340E+03  0.47147611343E+03  0.47000000000E+01 0.  1.
        -11    1    1    2    0    0  0.23939846909E+02  0.51295945231E+01 -0.12525474214E+03  0.12762515206E+03  0.00000000000E+00 0. -1.
         11    1    1    2    0    0  0.13177315829E+02  0.77911822955E+02 -0.67171519283E+02  0.10371068803E+03  0.00000000000E+00 0.  1.
<mgrwt>
<rscale>  0 0.14757860E+03</rscale>
<asrwt>0</asrwt>
<pdfrwt beam="2">  1        2 0.12958753E+00 0.15458526E+03</pdfrwt>
<pdfrwt beam="1">  1       -2 0.44509205E-02 0.15458526E+03</pdfrwt>
<totfact> 0.75407067E+03</totfact>
</mgrwt>
</event>
<event>
 7    1  0.5206756E-006  0.2323154E+03  0.7546771E-02  0.1126416E+00
         -2   -1    0    0    0  501 -0.00000000000E+00  0.00000000000E+00  0.34677138895E+02  0.34677138895E+02  0.00000000000E+00 0. -1.
          2   -1    0    0  501    0  0.00000000000E+00 -0.00000000000E+00 -0.18783535559E+04  0.18783535559E+04  0.00000000000E+00 0.  1.
         23    2    1    2    0    0  0.18515912801E+03 -0.63732040579E+02 -0.13615597350E+04  0.13812368935E+04  0.12499907335E+03 0.  0.
          5    1    3    3  502    0  0.71120262935E+02 -0.20538314640E+02 -0.92416304558E+03  0.92713501659E+03  0.47000000000E+01 0.  1.
         -5    1    3    3    0  502  0.11403886507E+03 -0.43193725939E+02 -0.43739668938E+03  0.45410187688E+03  0.47000000000E+01 0.  1.
        -11    1    1    2    0    0 -0.54987155049E+02  0.46327369080E+01 -0.42897567349E+02  0.69894568860E+02  0.00000000000E+00 0. -1.
         11    1    1    2    0    0 -0.13017197296E+03  0.59099303671E+02 -0.43921911471E+03  0.46189923248E+03  0.00000000000E+00 0.  1.
<mgrwt>
<rscale>  0 0.23031806E+03</rscale>
<asrwt>0</asrwt>
<pdfrwt beam="2">  1        2 0.28897738E+00 0.23231540E+03</pdfrwt>
<pdfrwt beam="1">  1       -2 0.53349462E-02 0.23231540E+03</pdfrwt>
<totfact> 0.15309301E+03</totfact>
</mgrwt>
</event>
<event>
 7    1  0.5206756E-006  0.1347636E+03  0.7546771E-02  0.1233112E+00
          2   -1    0    0  501    0  0.00000000000E+00  0.00000000000E+00  0.78378049078E+03  0.78378049078E+03  0.00000000000E+00 0. -1.
         -2   -1    0    0    0  501 -0.00000000000E+00 -0.00000000000E+00 -0.22298766713E+02  0.22298766713E+02  0.00000000000E+00 0.  1.
         23    2    1    2    0    0  0.17414414696E+02 -0.47252294635E+02  0.59339381563E+03  0.60850428199E+03  0.12500079834E+03 0.  0.
          5    1    3    3  502    0 -0.40297288077E+02 -0.53904490082E+02  0.42471100322E+03  0.43003615166E+03  0.47000000000E+01 0. -1.
         -5    1    3    3    0  502  0.57711702774E+02  0.66521954471E+01  0.16868281241E+03  0.17846813033E+03  0.47000000000E+01 0. -1.
        -11    1    1    2    0    0  0.23984580680E+02  0.54051216275E+02  0.11985686391E+03  0.13365052157E+03  0.00000000000E+00 0. -1.
         11    1    1    2    0    0 -0.41398995377E+02 -0.67989216403E+01  0.48231044529E+02  0.63924453929E+02  0.00000000000E+00 0.  1.
<mgrwt>
<rscale>  0 0.12626083E+03</rscale>
<asrwt>0</asrwt>
<pdfrwt beam="1">  1        2 0.12058159E+00 0.13476365E+03</pdfrwt>
<pdfrwt beam="2">  1       -2 0.34305801E-02 0.13476365E+03</pdfrwt>
<totfact> 0.12061331E+04</totfact>
</mgrwt>
</event>
<event>
 7    1  0.5206756E-006  0.1764115E+03  0.7546771E-02  0.1177673E+00
         -1   -1    0    0    0  501 -0.00000000000E+00  0.00000000000E+00  0.19240186558E+02  0.19240186558E+02  0.00000000000E+00 0.  1.
          1   -1    0    0  501    0  0.00000000000E+00 -0.00000000000E+00 -0.15587438320E+04  0.15587438320E+04  0.00000000000E+00 0. -1.
         23    2    1    2    0    0 -0.83028627276E+02 -0.92753013646E+02 -0.10648206642E+04  0.10793350058E+04  0.12499653389E+03 0.  0.
          5    1    3    3  502    0 -0.19563621618E+02  0.31171909989E+02 -0.22359793825E+03  0.22665513728E+03  0.47000000000E+01 0. -1.
         -5    1    3    3    0  502 -0.63465005658E+02 -0.12392492363E+03 -0.84122272591E+03  0.85267986855E+03  0.47000000000E+01 0. -1.
        -11    1    1    2    0    0 -0.36069094646E+01  0.43935069306E+02 -0.23595151684E+03  0.24003420259E+03  0.00000000000E+00 0. -1.
         11    1    1    2    0    0  0.86635536741E+02  0.48817944340E+02 -0.23873146446E+03  0.25861481017E+03  0.00000000000E+00 0.  1.
<mgrwt>
<rscale>  0 0.17016775E+03</rscale>
<asrwt>0</asrwt>
<pdfrwt beam="2">  1        1 0.23980671E+00 0.17641147E+03</pdfrwt>
<pdfrwt beam="1">  1       -1 0.29600291E-02 0.17641147E+03</pdfrwt>
<totfact> 0.25128111E+03</totfact>
</mgrwt>
</event>
<event>
 7    1  0.5206756E-006  0.1316117E+03  0.7546771E-02  0.1242386E+00
          2   -1    0    0  501    0  0.00000000000E+00  0.00000000000E+00  0.69048020333E+03  0.69048020333E+03  0.00000000000E+00 0. -1.
         -2   -1    0    0    0  501 -0.00000000000E+00 -0.00000000000E+00 -0.20057522663E+02  0.20057522663E+02  0.00000000000E+00 0.  1.
         23    2    1    2    0    0 -0.40337684692E+01 -0.40987946280E+02  0.49655340181E+03  0.51369925497E+03  0.12500144270E+03 0.  0.
          5    1    3    3  502    0  0.51469408104E+02 -0.23190026088E+02  0.36972263006E+03  0.37403715118E+03  0.47000000000E+01 0. -1.
         -5    1    3    3    0  502 -0.55503176574E+02 -0.17797920192E+02  0.12683077175E+03  0.13966210379E+03  0.47000000000E+01 0. -1.
        -11    1    1    2    0    0  0.28181694240E+02  0.20837149143E+01  0.13133880021E+03  0.13434444610E+03  0.00000000000E+00 0. -1.
         11    1    1    2    0    0 -0.24147925771E+02  0.38904231366E+02  0.42530478648E+02  0.62494024924E+02  0.00000000000E+00 0.  1.
<mgrwt>
<rscale>  0 0.12043233E+03</rscale>
<asrwt>0</asrwt>
<pdfrwt beam="1">  1        2 0.10622771E+00 0.13161172E+03</pdfrwt>
<pdfrwt beam="2">  1       -2 0.30857732E-02 0.13161172E+03</pdfrwt>
<totfact> 0.16399409E+04</totfact>
</mgrwt>
</event>
<event>
 7    1  0.5206756E-006  0.1297793E+03  0.7546771E-02  0.1245415E+00
         -1   -1    0    0    0  501 -0.00000000000E+00  0.00000000000E+00  0.31902083437E+02  0.31902083437E+02  0.00000000000E+00 0.  1.
          1   -1    0    0  501    0  0.00000000000E+00 -0.00000000000E+00 -0.38040043460E+03  0.38040043460E+03  0.00000000000E+00 0. -1.
         23    2    1    2    0    0  0.24010789932E+02 -0.25325426633E+02 -0.20327190718E+03  0.24116827684E+03  0.12499909695E+03 0.  0.
          5    1    3    3  502    0  0.20370802537E+02  0.45992823517E+02 -0.12648882183E+03  0.13620507134E+03  0.47000000000E+01 0.  1.
         -5    1    3    3    0  502  0.36399873946E+01 -0.71318250150E+02 -0.76783085353E+02  0.10496320550E+03  0.47000000000E+01 0.  1.
        -11    1    1    2    0    0 -0.22073581669E+02 -0.28399136705E+02 -0.69631735918E+02  0.78373035032E+02  0.00000000000E+00 0. -1.
         11    1    1    2    0    0 -0.19372082630E+01  0.53724563338E+02 -0.75594708068E+02  0.92761206167E+02  0.00000000000E+00 0.  1.
<mgrwt>
<rscale>  0 0.11860574E+03</rscale>
<asrwt>0</asrwt>
<pdfrwt beam="2">  1        1 0.58523142E-01 0.12977931E+03</pdfrwt>
<pdfrwt beam="1">  1       -1 0.49080130E-02 0.12977931E+03</pdfrwt>
<totfact> 0.11041474E+04</totfact>
</mgrwt>
</event>
<event>
 7    1  0.5206756E-006  0.1487577E+03  0.7546771E-02  0.1211208E+00
         -1   -1    0    0    0  501 -0.00000000000E+00  0.00000000000E+00  0.59069315657E+02  0.59069315657E+02  0.00000000000E+00 0.  1.
          1   -1    0    0  501    0  0.00000000000E+00 -0.00000000000E+00 -0.32489489457E+03  0.32489489457E+03  0.00000000000E+00 0. -1.
         23    2    1    2    0    0 -0.40754384540E+02 -0.69585999432E+02 -0.18568539144E+03  0.23792420784E+03  0.12500293160E+03 0.  0.
          5    1    3    3  502    0 -0.27188896970E+02 -0.96812013381E+02 -0.82217950230E+02  0.12997570309E+03  0.47000000000E+01 0. -1.
         -5    1    3    3    0  502 -0.13565487570E+02  0.27226013949E+02 -0.10346744121E+03  0.10794850475E+03  0.47000000000E+01 0. -1.
        -11    1    1    2    0    0  0.11778365052E+02  0.87217474074E+02 -0.54459143802E+02  0.10349597099E+03  0.00000000000E+00 0. -1.
         11    1    1    2    0    0  0.28976019488E+02 -0.17631474642E+02 -0.25681043678E+02  0.42544031400E+02  0.00000000000E+00 0.  1.
<mgrwt>
<rscale>  0 0.14158819E+03</rscale>
<asrwt>0</asrwt>
<pdfrwt beam="2">  1        1 0.49983830E-01 0.14875774E+03</pdfrwt>
<pdfrwt beam="1">  1       -1 0.90875870E-02 0.14875774E+03</pdfrwt>
<totfact> 0.53924688E+03</totfact>
</mgrwt>
</event>
<event>
 7    1  0.5206756E-006  0.1777142E+03  0.7546771E-02  0.1175970E+00
         -1   -1    0    0    0  501 -0.00000000000E+00  0.00000000000E+00  0.64191066977E+02  0.64191066977E+02  0.00000000000E+00 0.  1.
          1   -1    0    0  501    0  0.00000000000E+00 -0.00000000000E+00 -0.78955737499E+03  0.78955737499E+03  0.00000000000E+00 0. -1.
         23    2    1    2    0    0  0.12464689071E+03  0.20523410797E+02 -0.66304244185E+03  0.68644562725E+03  0.12499704683E+03 0.  0.
          5    1    3    3  502    0  0.10067284196E+03  0.41405612122E+02 -0.25712150161E+03  0.27925436866E+03  0.47000000000E+01 0. -1.
         -5    1    3    3    0  502  0.23974048747E+02 -0.20882201326E+02 -0.40592094024E+03  0.40719125859E+03  0.47000000000E+01 0. -1.
        -11    1    1    2    0    0 -0.37084509831E+02 -0.97390106567E+01  0.22882000037E+02  0.44650813247E+02  0.00000000000E+00 0.  1.
         11    1    1    2    0    0 -0.87562380876E+02 -0.10784400140E+02 -0.85205866201E+02  0.12265200148E+03  0.00000000000E+00 0. -1.
<mgrwt>
<rscale>  0 0.17181342E+03</rscale>
<asrwt>0</asrwt>
<pdfrwt beam="2">  1        1 0.12147037E+00 0.17771415E+03</pdfrwt>
<pdfrwt beam="1">  1       -1 0.98755486E-02 0.17771415E+03</pdfrwt>
<totfact> 0.14578308E+03</totfact>
</mgrwt>
</event>
<event>
 7    1  0.5206756E-006  0.1898550E+03  0.7546771E-02  0.1163274E+00
         -1   -1    0    0    0  501 -0.00000000000E+00  0.00000000000E+00  0.26704516674E+03  0.26704516674E+03  0.00000000000E+00 0.  1.
          1   -1    0    0  501    0  0.00000000000E+00 -0.00000000000E+00 -0.27567575741E+03  0.27567575741E+03  0.00000000000E+00 0. -1.
         23    2    1    2    0    0  0.80154577373E+02 -0.11830021222E+03 -0.20727416652E+03  0.28108271992E+03  0.12500087539E+03 0.  0.
          5    1    3    3  502    0  0.64013516037E+02 -0.12010215526E+03 -0.91459074582E+02  0.16403996543E+03  0.47000000000E+01 0. -1.
         -5    1    3    3    0  502  0.16141061336E+02  0.18019430400E+01 -0.11581509193E+03  0.11704275449E+03  0.47000000000E+01 0. -1.
        -11    1    1    2    0    0 -0.34106754518E+02  0.11939684490E+03  0.14215877520E+03  0.18875379372E+03  0.00000000000E+00 0.  1.
         11    1    1    2    0    0 -0.46047822854E+02 -0.10966326757E+01  0.56484800640E+02  0.72884410515E+02  0.00000000000E+00 0. -1.
<mgrwt>
<rscale>  0 0.18475977E+03</rscale>
<asrwt>0</asrwt>
<pdfrwt beam="2">  1        1 0.42411655E-01 0.18985499E+03</pdfrwt>
<pdfrwt beam="1">  1       -1 0.41083872E-01 0.18985499E+03</pdfrwt>
<totfact> 0.57689416E+02</totfact>
</mgrwt>
</event>
<event>
 7    1  0.5206756E-006  0.1335253E+03  0.7546771E-02  0.1234652E+00
          1   -1    0    0  501    0  0.00000000000E+00  0.00000000000E+00  0.23180626815E+03  0.23180626815E+03  0.00000000000E+00 0. -1.
         -1   -1    0    0    0  501 -0.00000000000E+00 -0.00000000000E+00 -0.60906497079E+02  0.60906497079E+02  0.00000000000E+00 0.  1.
         23    2    1    2    0    0 -0.92081033385E-01 -0.46936860641E+02  0.85237276079E+02  0.15841210851E+03  0.12500370203E+03 0.  0.
          5    1    3    3  502    0 -0.59173899196E+02 -0.36847237476E+02  0.27584255781E+02  0.75114914781E+02  0.47000000000E+01 0. -1.
         -5    1    3    3    0  502  0.59081818163E+02 -0.10089623165E+02  0.57653020298E+02  0.83297193725E+02  0.47000000000E+01 0. -1.
        -11    1    1    2    0    0 -0.32259315009E+02  0.87784349472E+01  0.76439317117E+02  0.83430770860E+02  0.00000000000E+00 0. -1.
         11    1    1    2    0    0  0.32351396042E+02  0.38158425694E+02  0.92231778735E+01  0.50869885860E+02  0.00000000000E+00 0.  1.
<mgrwt>
<rscale>  0 0.12526754E+03</rscale>
<asrwt>0</asrwt>
<pdfrwt beam="1">  1        1 0.35662502E-01 0.13352529E+03</pdfrwt>
<pdfrwt beam="2">  1       -1 0.93702305E-02 0.13352529E+03</pdfrwt>
<totfact> 0.77661149E+03</totfact>
</mgrwt>
</event>
<event>
 7    1  0.5206756E-006  0.1334023E+03  0.7546771E-02  0.1235025E+00
          1   -1    0    0  501    0  0.00000000000E+00  0.00000000000E+00  0.85484876852E+02  0.85484876852E+02  0.00000000000E+00 0. -1.
         -1   -1    0    0    0  501 -0.00000000000E+00 -0.00000000000E+00 -0.16396334920E+03  0.16396334920E+03  0.00000000000E+00 0.  1.
         23    2    1    2    0    0 -0.37673539843E+02  0.27487699182E+02 -0.36672790557E+02  0.13835128974E+03  0.12498526551E+03 0.  0.
          5    1    3    3  502    0  0.34839199091E+02  0.10155649532E+02  0.22583261139E+02  0.43000008074E+02  0.47000000000E+01 0. -1.
         -5    1    3    3    0  502 -0.72512738933E+02  0.17332049650E+02 -0.59256051696E+02  0.95351281666E+02  0.47000000000E+01 0. -1.
        -11    1    1    2    0    0 -0.25061396743E+02  0.31994900252E+01 -0.31692096121E+02  0.40530226988E+02  0.00000000000E+00 0.  1.
         11    1    1    2    0    0  0.62734936586E+02 -0.30687189207E+02 -0.10113585669E+02  0.70566709325E+02  0.00000000000E+00 0. -1.
<mgrwt>
<rscale>  0 0.12502857E+03</rscale>
<asrwt>0</asrwt>
<pdfrwt beam="1">  1        1 0.13151520E-01 0.13340235E+03</pdfrwt>
<pdfrwt beam="2">  1       -1 0.25225130E-01 0.13340235E+03</pdfrwt>
<totfact> 0.57826306E+03</totfact>
</mgrwt>
</event>
<event>
 7    1  0.5206756E-006  0.1313305E+03  0.7546771E-02  0.1238110E+00
          2   -1    0    0  501    0  0.00000000000E+00  0.00000000000E+00  0.61893616817E+03  0.61893616817E+03  0.00000000000E+00 0. -1.
         -2   -1    0    0    0  501 -0.00000000000E+00 -0.00000000000E+00 -0.43061258357E+02  0.43061258357E+02  0.00000000000E+00 0.  1.
         23    2    1    2    0    0 -0.39230759686E+02  0.10898338120E+02  0.53809471879E+03  0.55388955493E+03  0.12485946655E+03 0.  0.
          5    1    3    3  502    0 -0.68662575458E+02 -0.22207899435E+02  0.44317701184E+03  0.44903863295E+03  0.47000000000E+01 0. -1.
         -5    1    3    3    0  502  0.29431815773E+02  0.33106237555E+02  0.94917706958E+02  0.10485092197E+03  0.47000000000E+01 0.  1.
        -11    1    1    2    0    0  0.80462565787E+01  0.12975212404E+02 -0.27771536800E+02  0.31691586235E+02  0.00000000000E+00 0.  1.
         11    1    1    2    0    0  0.31184503107E+02 -0.23873550525E+02  0.65551727819E+02  0.76416285363E+02  0.00000000000E+00 0. -1.
<mgrwt>
<rscale>  0 0.12307436E+03</rscale>
<asrwt>0</asrwt>
<pdfrwt beam="1">  1        2 0.95220942E-01 0.13133055E+03</pdfrwt>
<pdfrwt beam="2">  1       -2 0.66248094E-02 0.13133055E+03</pdfrwt>
<totfact> 0.59451404E+03</totfact>
</mgrwt>
</event>
<event>
 7    1  0.5206756E-006  0.1575086E+03  0.7546771E-02  0.1199860E+00
          4   -1    0    0  501    0  0.00000000000E+00  0.00000000000E+00  0.12077436536E+03  0.12077436536E+03  0.00000000000E+00 0. -1.
         -4   -1    0    0    0  501 -0.00000000000E+00 -0.00000000000E+00 -0.17424015454E+03  0.17424015454E+03  0.00000000000E+00 0.  1.
         23    2    1    2    0    0 -0.78394087005E+02  0.55127405589E+02 -0.43196442578E+02  0.16332448445E+03  0.12499716334E+03 0.  0.
          5    1    3    3  502    0 -0.62302303904E+02  0.66002346707E+02 -0.80238635913E+02  0.12123619730E+03  0.47000000000E+01 0. -1.
         -5    1    3    3    0  502 -0.16091783101E+02 -0.10874941119E+02  0.37042193335E+02  0.42088287145E+02  0.47000000000E+01 0. -1.
        -11    1    1    2    0    0  0.51598672241E+02  0.21252195273E+01  0.27034714686E+02  0.58290782576E+02  0.00000000000E+00 0.  1.
         11    1    1    2    0    0  0.26795414763E+02 -0.57252625116E+02 -0.37304061286E+02  0.73399252881E+02  0.00000000000E+00 0. -1.
<mgrwt>
<rscale>  0 0.15049957E+03</rscale>
<asrwt>0</asrwt>
<pdfrwt beam="1">  1        4 0.18580672E-01 0.15750859E+03</pdfrwt>
<pdfrwt beam="2">  1       -4 0.26806178E-01 0.15750859E+03</pdfrwt>
<totfact> 0.57795770E+02</totfact>
</mgrwt>
</event>
<event>
 7    1  0.5206756E-006  0.1762403E+03  0.7546771E-02  0.1176925E+00
         -1   -1    0    0    0  501 -0.00000000000E+00  0.00000000000E+00  0.42490520626E+02  0.42490520626E+02  0.00000000000E+00 0.  1.
          1   -1    0    0  501    0  0.00000000000E+00 -0.00000000000E+00 -0.72093483638E+03  0.72093483638E+03  0.00000000000E+00 0. -1.
         23    2    1    2    0    0  0.44592943259E+02  0.11596140593E+03 -0.47870715919E+03  0.51011881143E+03  0.12500031703E+03 0.  0.
          5    1    3    3  502    0 -0.17885041620E+02  0.11168216243E+03 -0.32038610047E+03  0.33979717993E+03  0.47000000000E+01 0.  1.
         -5    1    3    3    0  502  0.62477984879E+02  0.42792435017E+01 -0.15832105873E+03  0.17032163150E+03  0.47000000000E+01 0.  1.
        -11    1    1    2    0    0 -0.25666885838E+02 -0.95185306973E+02 -0.70881483337E+02  0.12142164705E+03  0.00000000000E+00 0.  1.
         11    1    1    2    0    0 -0.18926057421E+02 -0.20776098957E+02 -0.12885567323E+03  0.13188489853E+03  0.00000000000E+00 0. -1.
<mgrwt>
<rscale>  0 0.17088781E+03</rscale>
<asrwt>0</asrwt>
<pdfrwt beam="2">  1        1 0.11091305E+00 0.17624034E+03</pdfrwt>
<pdfrwt beam="1">  1       -1 0.65370033E-02 0.17624034E+03</pdfrwt>
<totfact> 0.31225992E+03</totfact>
</mgrwt>
</event>
<event>
 7    1  0.5206756E-006  0.1419408E+03  0.7546771E-02  0.1220972E+00
          2   -1    0    0  501    0  0.00000000000E+00  0.00000000000E+00  0.16884484264E+03  0.16884484264E+03  0.00000000000E+00 0. -1.
         -2   -1    0    0    0  501 -0.00000000000E+00 -0.00000000000E+00 -0.10077952074E+03  0.10077952074E+03  0.00000000000E+00 0.  1.
         23    2    1    2    0    0 -0.60258244613E+02 -0.29864297608E+02  0.62689912235E+02  0.15516837680E+03  0.12499707096E+03 0.  0.
          5    1    3    3  502    0 -0.21039281918E+02  0.34321505981E+02  0.68485392078E+02  0.79579872358E+02  0.47000000000E+01 0.  1.
         -5    1    3    3    0  502 -0.39218962696E+02 -0.64185803590E+02 -0.57954798436E+01  0.75588504443E+02  0.47000000000E+01 0.  1.
        -11    1    1    2    0    0 -0.90506062368E+01  0.23986643543E+02  0.31090172624E+02  0.40297287446E+02  0.00000000000E+00 0.  1.
         11    1    1    2    0    0  0.69308850850E+02  0.58776540653E+01 -0.25714762955E+02  0.74158699135E+02  0.00000000000E+00 0. -1.
<mgrwt>
<rscale>  0 0.13446841E+03</rscale>
<asrwt>0</asrwt>
<pdfrwt beam="1">  1        2 0.25976130E-01 0.14194083E+03</pdfrwt>
<pdfrwt beam="2">  1       -2 0.15504542E-01 0.14194083E+03</pdfrwt>
<totfact> 0.63626156E+03</totfact>
</mgrwt>
</event>
<event>
 7    1  0.5206756E-006  0.1759266E+03  0.7546771E-02  0.1177879E+00
          2   -1    0    0  501    0  0.00000000000E+00  0.00000000000E+00  0.60558803120E+03  0.60558803120E+03  0.00000000000E+00 0. -1.
         -2   -1    0    0    0  501 -0.00000000000E+00 -0.00000000000E+00 -0.63527388413E+02  0.63527388413E+02  0.00000000000E+00 0.  1.
         23    2    1    2    0    0 -0.52487035713E+02 -0.11211541067E+03  0.46578458213E+03  0.49790105054E+03  0.12500169981E+03 0.  0.
          5    1    3    3  502    0  0.39068420558E+02 -0.32678973933E+02  0.18699164754E+03  0.19386135013E+03  0.47000000000E+01 0. -1.
         -5    1    3    3    0  502 -0.91555456271E+02 -0.79436436741E+02  0.27879293459E+03  0.30403970042E+03  0.47000000000E+01 0. -1.
        -11    1    1    2    0    0 -0.74587861907E+01  0.55720198000E+02 -0.38498467757E+01  0.56348871122E+02  0.00000000000E+00 0.  1.
         11    1    1    2    0    0  0.59945821903E+02  0.56395212673E+02  0.80125907429E+02  0.11486549794E+03  0.00000000000E+00 0. -1.
<mgrwt>
<rscale>  0 0.16997055E+03</rscale>
<asrwt>0</asrwt>
<pdfrwt beam="1">  1        2 0.93167385E-01 0.17592663E+03</pdfrwt>
<pdfrwt beam="2">  1       -2 0.97734448E-02 0.17592663E+03</pdfrwt>
<totfact> 0.33790223E+03</totfact>
</mgrwt>
</event>
<event>
 7    1  0.5206756E-006  0.1826455E+03  0.7546771E-02  0.1170575E+00
          1   -1    0    0  501    0  0.00000000000E+00  0.00000000000E+00  0.53134098700E+03  0.53134098700E+03  0.00000000000E+00 0. -1.
         -1   -1    0    0    0  501 -0.00000000000E+00 -0.00000000000E+00 -0.57400665955E+02  0.57400665955E+02  0.00000000000E+00 0.  1.
         23    2    1    2    0    0 -0.44058181215E+02 -0.12567127347E+03  0.30025848021E+03  0.35144632521E+03  0.12499988902E+03 0.  0.
          5    1    3    3  502    0 -0.21641518287E+02  0.16393866233E+02  0.13667392501E+02  0.30757141961E+02  0.47000000000E+01 0.  1.
         -5    1    3    3    0  502 -0.22416662928E+02 -0.14206513970E+03  0.28659108771E+03  0.32068918325E+03  0.47000000000E+01 0.  1.
        -11    1    1    2    0    0  0.31332835553E+02  0.52439736393E+02  0.16270025890E+02  0.63216977777E+02  0.00000000000E+00 0.  1.
         11    1    1    2    0    0  0.12725345662E+02  0.73231537078E+02  0.15741181494E+03  0.17407834997E+03  0.00000000000E+00 0. -1.
<mgrwt>
<rscale>  0 0.17716484E+03</rscale>
<asrwt>0</asrwt>
<pdfrwt beam="1">  1        1 0.81744764E-01 0.18264546E+03</pdfrwt>
<pdfrwt beam="2">  1       -1 0.88308720E-02 0.18264546E+03</pdfrwt>
<totfact> 0.30291199E+03</totfact>
</mgrwt>
</event>
<event>
 7    1  0.5206756E-006  0.1385922E+03  0.7546771E-02  0.1226630E+00
          2   -1    0    0  501    0  0.00000000000E+00  0.00000000000E+00  0.30468404148E+02  0.30468404148E+02  0.00000000000E+00 0. -1.
         -2   -1    0    0    0  501 -0.00000000000E+00 -0.00000000000E+00 -0.50679308164E+03  0.50679308164E+03  0.00000000000E+00 0.  1.
         23    2    1    2    0    0  0.56913348842E+02 -0.18492500576E+02 -0.28753165037E+03  0.31918997841E+03  0.12500676181E+03 0.  0.
          5    1    3    3  502    0  0.65772062235E+02  0.39384790504E+02 -0.12910213914E+03  0.15022176348E+03  0.47000000000E+01 0.  1.
         -5    1    3    3    0  502 -0.88587133932E+01 -0.57877291080E+02 -0.15842951123E+03  0.16896821492E+03  0.47000000000E+01 0.  1.
        -11    1    1    2    0    0 -0.59942093287E+02  0.29514406715E+02 -0.19423955761E+03  0.20540973807E+03  0.00000000000E+00 0.  1.
         11    1    1    2    0    0  0.30287444450E+01 -0.11021906139E+02  0.54465304874E+01  0.12661769316E+02  0.00000000000E+00 0. -1.
<mgrwt>
<rscale>  0 0.13055811E+03</rscale>
<asrwt>0</asrwt>
<pdfrwt beam="1">  1        2 0.46874469E-02 0.13859218E+03</pdfrwt>
<pdfrwt beam="2">  1       -2 0.77968165E-01 0.13859218E+03</pdfrwt>
<totfact> 0.24782098E+03</totfact>
</mgrwt>
</event>
<event>
 7    1  0.5206756E-006  0.1680140E+03  0.7546771E-02  0.1186735E+00
          1   -1    0    0  501    0  0.00000000000E+00  0.00000000000E+00  0.53344751859E+03  0.53344751859E+03  0.00000000000E+00 0. -1.
         -1   -1    0    0    0  501 -0.00000000000E+00 -0.00000000000E+00 -0.46828987636E+02  0.46828987636E+02  0.00000000000E+00 0.  1.
         23    2    1    2    0    0  0.11057067130E+03  0.19415300693E+02  0.30585581288E+03  0.34896488930E+03  0.12500355370E+03 0.  0.
          5    1    3    3  502    0  0.11965835394E+03  0.47541410526E+02  0.28414116842E+03  0.31198814236E+03  0.47000000000E+01 0. -1.
         -5    1    3    3    0  502 -0.90876826364E+01 -0.28126109833E+02  0.21714644455E+02  0.36976746934E+02  0.47000000000E+01 0. -1.
        -11    1    1    2    0    0 -0.57006457323E+02 -0.20522161951E+02  0.16452945023E+03  0.17533064564E+03  0.00000000000E+00 0. -1.
         11    1    1    2    0    0 -0.53564213980E+02  0.11068612580E+01  0.16233267841E+02  0.55980971284E+02  0.00000000000E+00 0.  1.
<mgrwt>
<rscale>  0 0.16175029E+03</rscale>
<asrwt>0</asrwt>
<pdfrwt beam="1">  1        1 0.82068845E-01 0.16801403E+03</pdfrwt>
<pdfrwt beam="2">  1       -1 0.72044600E-02 0.16801403E+03</pdfrwt>
<totfact> 0.40914459E+03</totfact>
</mgrwt>
</event>
<event>
 7    1  0.5206756E-006  0.1497641E+03  0.7546771E-02  0.1209966E+00
          1   -1    0    0  501    0  0.00000000000E+00  0.00000000000E+00  0.49256925392E+02  0.49256925392E+02  0.00000000000E+00 0. -1.
         -1   -1    0    0    0  501 -0.00000000000E+00 -0.00000000000E+00 -0.37785952901E+03  0.37785952901E+03  0.00000000000E+00 0.  1.
         23    2    1    2    0    0 -0.56041349868E+02  0.60525195101E+02 -0.17168091014E+03  0.22782365375E+03  0.12500140065E+03 0.  0.
          5    1    3    3  502    0 -0.46386550377E+02  0.79353337060E+02 -0.51021387584E+02  0.10523277127E+03  0.47000000000E+01 0.  1.
         -5    1    3    3    0  502 -0.96547994908E+01 -0.18828141960E+02 -0.12065952256E+03  0.12259088248E+03  0.47000000000E+01 0.  1.
        -11    1    1    2    0    0  0.23328795418E+02 -0.49541155858E+02 -0.20332423046E+02  0.58412038539E+02  0.00000000000E+00 0. -1.
         11    1    1    2    0    0  0.32712554450E+02 -0.10984039243E+02 -0.13658927043E+03  0.14088076211E+03  0.00000000000E+00 0.  1.
<mgrwt>
<rscale>  0 0.14252907E+03</rscale>
<asrwt>0</asrwt>
<pdfrwt beam="1">  1        1 0.75779883E-02 0.14976409E+03</pdfrwt>
<pdfrwt beam="2">  1       -1 0.58132237E-01 0.14976409E+03</pdfrwt>
<totfact> 0.28071029E+03</totfact>
</mgrwt>
</event>
<event>
 7    1  0.5206756E-006  0.1561418E+03  0.7546771E-02  0.1201028E+00
          1   -1    0    0  501    0  0.00000000000E+00  0.00000000000E+00  0.29448240475E+03  0.29448240475E+03  0.00000000000E+00 0. -1.
         -1   -1    0    0    0  501 -0.00000000000E+00 -0.00000000000E+00 -0.72209007684E+02  0.72209007684E+02  0.00000000000E+00 0.  1.
         23    2    1    2    0    0  0.88596232032E+02 -0.30074432188E+02  0.15098455254E+03  0.21720171160E+03  0.12500593831E+03 0.  0.
          5    1    3    3  502    0 -0.19601509391E+01 -0.22430398410E-01  0.11501217985E+03  0.11512486356E+03  0.47000000000E+01 0.  1.
         -5    1    3    3    0  502  0.90556382971E+02 -0.30052001789E+02  0.35972372691E+02  0.10207684804E+03  0.47000000000E+01 0.  1.
        -11    1    1    2    0    0 -0.70130963585E+02 -0.53657779168E+00  0.44209321905E+00  0.70134409639E+02  0.00000000000E+00 0. -1.
         11    1    1    2    0    0 -0.18465268447E+02  0.30611009979E+02  0.70846751300E+02  0.79355291195E+02  0.00000000000E+00 0.  1.
<mgrwt>
<rscale>  0 0.14954963E+03</rscale>
<asrwt>0</asrwt>
<pdfrwt beam="1">  1        1 0.45304985E-01 0.15614176E+03</pdfrwt>
<pdfrwt beam="2">  1       -1 0.11109078E-01 0.15614176E+03</pdfrwt>
<totfact> 0.44922988E+03</totfact>
</mgrwt>
</event>
<event>
 7    1  0.5206756E-006  0.1441946E+03  0.7546771E-02  0.1217835E+00
          1   -1    0    0  501    0  0.00000000000E+00  0.00000000000E+00  0.23437185780E+03  0.23437185780E+03  0.00000000000E+00 0. -1.
         -1   -1    0    0    0  501 -0.00000000000E+00 -0.00000000000E+00 -0.78929987498E+02  0.78929987498E+02  0.00000000000E+00 0.  1.
         23    2    1    2    0    0  0.59846731887E+02 -0.39895450045E+02  0.12983689536E+03  0.19403527781E+03  0.12497516308E+03 0.  0.
          5    1    3    3  502    0  0.68090565544E+01 -0.24326536974E+02 -0.21086277710E+02  0.33239506012E+02  0.47000000000E+01 0.  1.
         -5    1    3    3    0  502  0.53037675333E+02 -0.15568913072E+02  0.15092317307E+03  0.16079577180E+03  0.47000000000E+01 0.  1.
        -11    1    1    2    0    0  0.85293861704E+00  0.42772863264E+02 -0.15940216961E+02  0.45654527189E+02  0.00000000000E+00 0.  1.
         11    1    1    2    0    0 -0.60699670504E+02 -0.28774132183E+01  0.41545191895E+02  0.73612040291E+02  0.00000000000E+00 0. -1.
<mgrwt>
<rscale>  0 0.13670353E+03</rscale>
<asrwt>0</asrwt>
<pdfrwt beam="1">  1        1 0.36057209E-01 0.14419455E+03</pdfrwt>
<pdfrwt beam="2">  1       -1 0.12143075E-01 0.14419455E+03</pdfrwt>
<totfact> 0.51742407E+03</totfact>
</mgrwt>
</event>
<event>
 7    1  0.5206756E-006  0.1830808E+03  0.7546771E-02  0.1171375E+00
         -2   -1    0    0    0  501 -0.00000000000E+00  0.00000000000E+00  0.16963255819E+02  0.16963255819E+02  0.00000000000E+00 0.  1.
          2   -1    0    0  501    0  0.00000000000E+00 -0.00000000000E+00 -0.19469719544E+04  0.19469719544E+04  0.00000000000E+00 0. -1.
         23    2    1    2    0    0 -0.11772396238E+03  0.63517412710E+02 -0.13694673733E+04  0.13816509895E+04  0.12500070961E+03 0.  0.
          5    1    3    3  502    0 -0.26735781165E+02 -0.91944526463E+01 -0.54949444412E+02  0.61974764180E+02  0.47000000000E+01 0.  1.
         -5    1    3    3    0  502 -0.90988181217E+02  0.72711865356E+02 -0.13145179288E+04  0.13196762253E+04  0.47000000000E+01 0.  1.
        -11    1    1    2    0    0  0.57854289150E+02 -0.60516933492E+02 -0.43724198001E+03  0.44518531770E+03  0.00000000000E+00 0.  1.
         11    1    1    2    0    0  0.59869673232E+02 -0.30004792180E+01 -0.12329934534E+03  0.13709890302E+03  0.00000000000E+00 0. -1.
<mgrwt>
<rscale>  0 0.17635762E+03</rscale>
<asrwt>0</asrwt>
<pdfrwt beam="2">  1        2 0.29953395E+00 0.18308078E+03</pdfrwt>
<pdfrwt beam="1">  1       -2 0.26097334E-02 0.18308078E+03</pdfrwt>
<totfact> 0.41228506E+03</totfact>
</mgrwt>
</event>
<event>
 7    1  0.5206756E-006  0.1417797E+03  0.7546771E-02  0.1221663E+00
         -2   -1    0    0    0  501 -0.00000000000E+00  0.00000000000E+00  0.45724789922E+03  0.45724789922E+03  0.00000000000E+00 0.  1.
          2   -1    0    0  501    0  0.00000000000E+00 -0.00000000000E+00 -0.35631248930E+02  0.35631248930E+02  0.00000000000E+00 0. -1.
         23    2    1    2    0    0  0.34617861609E+02  0.57241212446E+02  0.22023968478E+03  0.26192939613E+03  0.12500614809E+03 0.  0.
          5    1    3    3  502    0 -0.23605203465E+02  0.49514342744E+02  0.18557098772E+03  0.19356538237E+03  0.47000000000E+01 0.  1.
         -5    1    3    3    0  502  0.58223065073E+02  0.77268697019E+01  0.34668697061E+02  0.68364013763E+02  0.47000000000E+01 0.  1.
        -11    1    1    2    0    0 -0.17953110624E+02 -0.82044782637E+01 -0.31309591804E+01  0.19985758680E+02  0.00000000000E+00 0. -1.
         11    1    1    2    0    0 -0.16664750985E+02 -0.49036734182E+02  0.20450792469E+03  0.21096399334E+03  0.00000000000E+00 0.  1.
<mgrwt>
<rscale>  0 0.13398267E+03</rscale>
<asrwt>0</asrwt>
<pdfrwt beam="2">  1        2 0.54817309E-02 0.14177972E+03</pdfrwt>
<pdfrwt beam="1">  1       -2 0.70345827E-01 0.14177972E+03</pdfrwt>
<totfact> 0.25245484E+03</totfact>
</mgrwt>
</event>
<event>
 7    1  0.5206756E-006  0.1349940E+03  0.7546771E-02  0.1232323E+00
          1   -1    0    0  501    0  0.00000000000E+00  0.00000000000E+00  0.22419795937E+03  0.22419795937E+03  0.00000000000E+00 0. -1.
         -1   -1    0    0    0  501 -0.00000000000E+00 -0.00000000000E+00 -0.79767831685E+02  0.79767831685E+02  0.00000000000E+00 0.  1.
         23    2    1    2    0    0  0.33438051514E+02 -0.38473725993E+02  0.14614917731E+03  0.19895468911E+03  0.12500022165E+03 0.  0.
          5    1    3    3  502    0 -0.17221126250E+02  0.27406773112E+02  0.23379649556E+01  0.32791073203E+02  0.47000000000E+01 0.  1.
         -5    1    3    3    0  502  0.50659177764E+02 -0.65880499105E+02  0.14381121235E+03  0.16616361591E+03  0.47000000000E+01 0.  1.
        -11    1    1    2    0    0  0.27009153966E+02  0.31611787145E+02 -0.12083514189E+02  0.43299085436E+02  0.00000000000E+00 0.  1.
         11    1    1    2    0    0 -0.60447205480E+02  0.68619388480E+01  0.10364464562E+02  0.61712016502E+02  0.00000000000E+00 0. -1.
<mgrwt>
<rscale>  0 0.12677399E+03</rscale>
<asrwt>0</asrwt>
<pdfrwt beam="1">  1        1 0.34491994E-01 0.13499402E+03</pdfrwt>
<pdfrwt beam="2">  1       -1 0.12271974E-01 0.13499402E+03</pdfrwt>
<totfact> 0.53573200E+03</totfact>
</mgrwt>
</event>
<event>
 7    1  0.5206756E-006  0.1834052E+03  0.7546771E-02  0.1169833E+00
          2   -1    0    0  501    0  0.00000000000E+00  0.00000000000E+00  0.64565813444E+02  0.64565813444E+02  0.00000000000E+00 0. -1.
         -2   -1    0    0    0  501 -0.00000000000E+00 -0.00000000000E+00 -0.52614382412E+03  0.52614382412E+03  0.00000000000E+00 0.  1.
         23    2    1    2    0    0  0.13131930971E+03 -0.27701102295E+02 -0.14102917167E+03  0.23135838594E+03  0.12500145324E+03 0.  0.
          5    1    3    3  502    0  0.52752419892E+02  0.20488939261E+02  0.66909220724E+01  0.57179304601E+02  0.47000000000E+01 0. -1.
         -5    1    3    3    0  502  0.78566889818E+02 -0.48190041556E+02 -0.14772009374E+03  0.17417908134E+03  0.47000000000E+01 0. -1.
        -11    1    1    2    0    0 -0.98983008351E+02 -0.20450977478E+02 -0.23689694983E+03  0.25755784449E+03  0.00000000000E+00 0.  1.
         11    1    1    2    0    0 -0.32336301360E+02  0.48152079773E+02 -0.83651889181E+02  0.10179340713E+03  0.00000000000E+00 0. -1.
<mgrwt>
<rscale>  0 0.17791876E+03</rscale>
<asrwt>0</asrwt>
<pdfrwt beam="1">  1        2 0.99332022E-02 0.18340522E+03</pdfrwt>
<pdfrwt beam="2">  1       -2 0.80945202E-01 0.18340522E+03</pdfrwt>
<totfact> 0.88613178E+02</totfact>
</mgrwt>
</event>
<event>
 6    1  0.5206756E-006  0.2154494E+03  0.7546771E-02  0.1171902E+00
         -2   -1    0    0    0  501 -0.00000000000E+00  0.00000000000E+00  0.47572497567E+02  0.47572497567E+02  0.00000000000E+00 0.  1.
          2   -1    0    0  501    0  0.00000000000E+00 -0.00000000000E+00 -0.29591561918E+04  0.29591561918E+04  0.00000000000E+00 0. -1.
          5    1    1    2  502    0  0.46219816554E+02  0.90207034127E+02 -0.81225601458E+03  0.81856918075E+03  0.47000000000E+01 0. -1.
         -5    1    1    2    0  502 -0.19159694528E+02 -0.81251389307E+02 -0.20905103906E+04  0.20921817955E+04  0.47000000000E+01 0.  1.
        -11    1    1    2    0    0 -0.19246865751E+02 -0.30569414237E+02 -0.42136130675E+02  0.55501211125E+02  0.00000000000E+00 0. -1.
         11    1    1    2    0    0 -0.78132562746E+01  0.21613769416E+02  0.33318841661E+02  0.40476501969E+02  0.00000000000E+00 0.  1.
<mgrwt>
<rscale>  0 0.17582938E+03</rscale>
<asrwt>0</asrwt>
<pdfrwt beam="2">  1        2 0.45525496E+00 0.21544940E+03</pdfrwt>
<pdfrwt beam="1">  1       -2 0.73188432E-02 0.21544940E+03</pdfrwt>
<totfact> 0.24420145E+02</totfact>
</mgrwt>
</event>
<event>
 7    1  0.5206756E-006  0.1450666E+03  0.7546771E-02  0.1216593E+00
          1   -1    0    0  501    0  0.00000000000E+00  0.00000000000E+00  0.16712900900E+03  0.16712900900E+03  0.00000000000E+00 0. -1.
         -1   -1    0    0    0  501 -0.00000000000E+00 -0.00000000000E+00 -0.10751537972E+03  0.10751537972E+03  0.00000000000E+00 0.  1.
         23    2    1    2    0    0  0.70911623384E+02 -0.19809239817E+02  0.60580237322E+02  0.15720776055E+03  0.12499380189E+03 0.  0.
          5    1    3    3  502    0  0.37241981157E+02 -0.71510631849E+02  0.19975818368E+02  0.83197709989E+02  0.47000000000E+01 0. -1.
         -5    1    3    3    0  502  0.33669642227E+02  0.51701392032E+02  0.40604418954E+02  0.74010050563E+02  0.47000000000E+01 0. -1.
        -11    1    1    2    0    0 -0.28273364668E+02 -0.14060062624E+02  0.38787957763E+02  0.50015739303E+02  0.00000000000E+00 0. -1.
         11    1    1    2    0    0 -0.42638258716E+02  0.33869302441E+02 -0.39754565803E+02  0.67420888873E+02  0.00000000000E+00 0.  1.
<mgrwt>
<rscale>  0 0.13760137E+03</rscale>
<asrwt>0</asrwt>
<pdfrwt beam="1">  1        1 0.25712155E-01 0.14506659E+03</pdfrwt>
<pdfrwt beam="2">  1       -1 0.16540828E-01 0.14506659E+03</pdfrwt>
<totfact> 0.48660499E+03</totfact>
</mgrwt>
</event>
<event>
 7    1  0.5206756E-006  0.1944537E+03  0.7546771E-02  0.1159417E+00
          1   -1    0    0  501    0  0.00000000000E+00  0.00000000000E+00  0.30353339351E+03  0.30353339351E+03  0.00000000000E+00 0. -1.
         -1   -1    0    0    0  501 -0.00000000000E+00 -0.00000000000E+00 -0.11141233733E+03  0.11141233733E+03  0.00000000000E+00 0.  1.
         23    2    1    2    0    0  0.12416938776E+03  0.82269201492E+02  0.10131048226E+03  0.21926249060E+03  0.12500387033E+03 0.  0.
          5    1    3    3  502    0  0.81290881350E+02 -0.88114081992E+01  0.86457035065E+01  0.82357067057E+02  0.47000000000E+01 0. -1.
         -5    1    3    3    0  502  0.42878506406E+02  0.91080609691E+02  0.92664778753E+02  0.13690542354E+03  0.47000000000E+01 0. -1.
        -11    1    1    2    0    0 -0.13293596552E+03 -0.57318808765E+02  0.87177508515E+02  0.16898915574E+03  0.00000000000E+00 0.  1.
         11    1    1    2    0    0  0.87665777616E+01 -0.24950392727E+02  0.36330654056E+01  0.26694084497E+02  0.00000000000E+00 0. -1.
<mgrwt>
<rscale>  0 0.18894451E+03</rscale>
<asrwt>0</asrwt>
<pdfrwt beam="1">  1        1 0.46697445E-01 0.19445366E+03</pdfrwt>
<pdfrwt beam="2">  1       -1 0.17140360E-01 0.19445366E+03</pdfrwt>
<totfact> 0.22113381E+03</totfact>
</mgrwt>
</event>
<event>
 7    1  0.5206756E-006  0.1708098E+03  0.7546771E-02  0.1183517E+00
          1   -1    0    0  501    0  0.00000000000E+00  0.00000000000E+00  0.12849559918E+03  0.12849559918E+03  0.00000000000E+00 0. -1.
         -1   -1    0    0    0  501 -0.00000000000E+00 -0.00000000000E+00 -0.19729416257E+03  0.19729416257E+03  0.00000000000E+00 0.  1.
         23    2    1    2    0    0 -0.89414682817E+02 -0.74542953719E+02 -0.33479222708E+02  0.17405986497E+03  0.12499736312E+03 0.  0.
          5    1    3    3  502    0 -0.85878040555E+01  0.68318869975E+01  0.37325857185E+02  0.39188450761E+02  0.47000000000E+01 0.  1.
         -5    1    3    3    0  502 -0.80826878761E+02 -0.81374840717E+02 -0.70805079893E+02  0.13487141421E+03  0.47000000000E+01 0.  1.
        -11    1    1    2    0    0  0.61015693863E+02 -0.36451801350E+00  0.64986729352E+01  0.61361881661E+02  0.00000000000E+00 0. -1.
         11    1    1    2    0    0  0.28398988953E+02  0.74907471733E+02 -0.41818013618E+02  0.90368015127E+02  0.00000000000E+00 0.  1.
<mgrwt>
<rscale>  0 0.16467515E+03</rscale>
<asrwt>0</asrwt>
<pdfrwt beam="1">  1        1 0.19768554E-01 0.17080977E+03</pdfrwt>
<pdfrwt beam="2">  1       -1 0.30352948E-01 0.17080977E+03</pdfrwt>
<totfact> 0.25420757E+03</totfact>
</mgrwt>
</event>
<event>
 7    1  0.5206756E-006  0.1733504E+03  0.7546771E-02  0.1180335E+00
          2   -1    0    0  501    0  0.00000000000E+00  0.00000000000E+00  0.18402239027E+04  0.18402239027E+04  0.00000000000E+00 0. -1.
         -2   -1    0    0    0  501 -0.00000000000E+00 -0.00000000000E+00 -0.24831887727E+02  0.24831887727E+02  0.00000000000E+00 0.  1.
         23    2    1    2    0    0 -0.10365322749E+03  0.60674959499E+02  0.15480116196E+04  0.15576874991E+04  0.12499971282E+03 0.  0.
          5    1    3    3  502    0  0.20548136554E+02  0.11605901427E+02  0.57970934647E+03  0.58020853083E+03  0.47000000000E+01 0.  1.
         -5    1    3    3    0  502 -0.12420136404E+03  0.49069058072E+02  0.96830227311E+03  0.97747896826E+03  0.47000000000E+01 0.  1.
        -11    1    1    2    0    0  0.65703453541E+02 -0.71775420334E+02  0.11853021191E+03  0.15335601034E+03  0.00000000000E+00 0.  1.
         11    1    1    2    0    0  0.37949773949E+02  0.11100460835E+02  0.14885018349E+03  0.15401228100E+03  0.00000000000E+00 0. -1.
<mgrwt>
<rscale>  0 0.16763685E+03</rscale>
<asrwt>0</asrwt>
<pdfrwt beam="1">  1        2 0.28311126E+00 0.17335043E+03</pdfrwt>
<pdfrwt beam="2">  1       -2 0.38202919E-02 0.17335043E+03</pdfrwt>
<totfact> 0.26604216E+03</totfact>
</mgrwt>
</event>
<event>
 7    1  0.5206756E-006  0.1296962E+03  0.7546771E-02  0.1241848E+00
         -1   -1    0    0    0  501 -0.00000000000E+00  0.00000000000E+00  0.10616985128E+03  0.10616985128E+03  0.00000000000E+00 0.  1.
          1   -1    0    0  501    0  0.00000000000E+00 -0.00000000000E+00 -0.17906479680E+03  0.17906479680E+03  0.00000000000E+00 0. -1.
         23    2    1    2    0    0  0.21065234329E+00  0.34590505103E+02 -0.12024668634E+03  0.17686259129E+03  0.12499825280E+03 0.  0.
          5    1    3    3  502    0 -0.42067492892E+02 -0.22093378484E+02 -0.15132176760E+02  0.50088562612E+02  0.47000000000E+01 0.  1.
         -5    1    3    3    0  502  0.42278145235E+02  0.56683883586E+02 -0.10511450958E+03  0.12677402868E+03  0.47000000000E+01 0.  1.
        -11    1    1    2    0    0  0.76524006450E+00  0.31200691932E+02  0.10339987016E+02  0.32878322659E+02  0.00000000000E+00 0.  1.
         11    1    1    2    0    0 -0.97589240780E+00 -0.65791197035E+02  0.37011753808E+02  0.75493734132E+02  0.00000000000E+00 0. -1.
<mgrwt>
<rscale>  0 0.12076030E+03</rscale>
<asrwt>0</asrwt>
<pdfrwt beam="2">  1        1 0.27548430E-01 0.12969622E+03</pdfrwt>
<pdfrwt beam="1">  1       -1 0.16333823E-01 0.12969622E+03</pdfrwt>
<totfact> 0.45233739E+03</totfact>
</mgrwt>
</event>
<event>
 7    1  0.5206756E-006  0.1396537E+03  0.7546771E-02  0.1226093E+00
         -1   -1    0    0    0  501 -0.00000000000E+00  0.00000000000E+00  0.72070207052E+02  0.72070207052E+02  0.00000000000E+00 0.  1.
          1   -1    0    0  501    0  0.00000000000E+00 -0.00000000000E+00 -0.22167703031E+03  0.22167703031E+03  0.00000000000E+00 0. -1.
         23    2    1    2    0    0  0.37913999073E+02  0.49399042609E+02 -0.11361166596E+03  0.18002992207E+03  0.12500170183E+03 0.  0.
          5    1    3    3  502    0  0.13417864773E+02  0.84184877692E+02 -0.10672890830E+03  0.13667583032E+03  0.47000000000E+01 0. -1.
         -5    1    3    3    0  502  0.24496134300E+02 -0.34785835083E+02 -0.68827576662E+01  0.43354091747E+02  0.47000000000E+01 0. -1.
        -11    1    1    2    0    0 -0.33804495964E+02  0.11716926134E+02  0.99634859925E+01  0.37138946653E+02  0.00000000000E+00 0.  1.
         11    1    1    2    0    0 -0.41095031091E+01 -0.61115968743E+02 -0.45958643285E+02  0.76578368641E+02  0.00000000000E+00 0. -1.
<mgrwt>
<rscale>  0 0.13092264E+03</rscale>
<asrwt>0</asrwt>
<pdfrwt beam="2">  1        1 0.34104158E-01 0.13965372E+03</pdfrwt>
<pdfrwt beam="1">  1       -1 0.11087724E-01 0.13965372E+03</pdfrwt>
<totfact> 0.63656816E+03</totfact>
</mgrwt>
</event>
<event>
 6    1  0.5206756E-006  0.1686894E+03  0.7546771E-02  0.1204401E+00
         -2   -1    0    0    0  501 -0.00000000000E+00  0.00000000000E+00  0.11646394416E+03  0.11646394416E+03  0.00000000000E+00 0.  1.
          2   -1    0    0  501    0  0.00000000000E+00 -0.00000000000E+00 -0.22585336132E+03  0.22585336132E+03  0.00000000000E+00 0. -1.
          5    1    1    2  502    0 -0.56622243628E+02  0.13720500157E+02 -0.14468964056E+03  0.15604971221E+03  0.47000000000E+01 0. -1.
         -5    1    1    2    0  502  0.61454507747E+02 -0.42953730176E+02 -0.15761316422E+02  0.76760592453E+02  0.47000000000E+01 0.  1.
        -11    1    1    2    0    0  0.74258111825E+01  0.56585433544E+02  0.88749838572E+01  0.57756552005E+02  0.00000000000E+00 0. -1.
         11    1    1    2    0    0 -0.12258075302E+02 -0.27352203526E+02  0.42186555962E+02  0.51750448808E+02  0.00000000000E+00 0.  1.
<mgrwt>
<rscale>  0 0.14684776E+03</rscale>
<asrwt>0</asrwt>
<pdfrwt beam="2">  1        2 0.34746671E-01 0.16868944E+03</pdfrwt>
<pdfrwt beam="1">  1       -2 0.17917530E-01 0.16868944E+03</pdfrwt>
<totfact> 0.36839067E+03</totfact>
</mgrwt>
</event>
<event>
 7    1  0.5206756E-006  0.1410962E+03  0.7546771E-02  0.1221478E+00
         -1   -1    0    0    0  501 -0.00000000000E+00  0.00000000000E+00  0.64851581382E+02  0.64851581382E+02  0.00000000000E+00 0.  1.
          1   -1    0    0  501    0  0.00000000000E+00 -0.00000000000E+00 -0.36097801438E+03  0.36097801438E+03  0.00000000000E+00 0. -1.
         23    2    1    2    0    0 -0.64309086875E+02 -0.12101929094E+02 -0.27451262844E+03  0.30865080611E+03  0.12500408632E+03 0.  0.
          5    1    3    3  502    0 -0.52808455078E+02  0.68221074522E+01 -0.26600434461E+02  0.59707178725E+02  0.47000000000E+01 0.  1.
         -5    1    3    3    0  502 -0.11500631796E+02 -0.18924036546E+02 -0.24791219398E+03  0.24894362738E+03  0.47000000000E+01 0.  1.
        -11    1    1    2    0    0  0.18557366925E+02 -0.12003234856E+02  0.34435301662E+02  0.40917520877E+02  0.00000000000E+00 0.  1.
         11    1    1    2    0    0  0.45751719950E+02  0.24105163950E+02 -0.56049106221E+02  0.76261268778E+02  0.00000000000E+00 0. -1.
<mgrwt>
<rscale>  0 0.13411261E+03</rscale>
<asrwt>0</asrwt>
<pdfrwt beam="2">  1        1 0.55535079E-01 0.14109620E+03</pdfrwt>
<pdfrwt beam="1">  1       -1 0.99771663E-02 0.14109620E+03</pdfrwt>
<totfact> 0.40891231E+03</totfact>
</mgrwt>
</event>
<event>
 7    1  0.5206756E-006  0.1421817E+03  0.7546771E-02  0.1216934E+00
         -2   -1    0    0    0  501 -0.00000000000E+00  0.00000000000E+00  0.50985199370E+02  0.50985199370E+02  0.00000000000E+00 0.  1.
          2   -1    0    0  501    0  0.00000000000E+00 -0.00000000000E+00 -0.44300439802E+03  0.44300439802E+03  0.00000000000E+00 0. -1.
         23    2    1    2    0    0 -0.58398199957E+02  0.34352822427E+02 -0.32137588753E+03  0.35142294959E+03  0.12500064899E+03 0.  0.
          5    1    3    3  502    0 -0.75818403739E+02 -0.25045344667E+02 -0.18799075349E+03  0.20429956689E+03  0.47000000000E+01 0.  1.
         -5    1    3    3    0  502  0.17420203782E+02  0.59398167094E+02 -0.13338513404E+03  0.14712338270E+03  0.47000000000E+01 0.  1.
        -11    1    1    2    0    0  0.49559547749E+02  0.21289380447E+02 -0.22904190066E+01  0.53987336590E+02  0.00000000000E+00 0.  1.
         11    1    1    2    0    0  0.88386522080E+01 -0.55642202874E+02 -0.68352892111E+02  0.88579311205E+02  0.00000000000E+00 0. -1.
<mgrwt>
<rscale>  0 0.13735434E+03</rscale>
<asrwt>0</asrwt>
<pdfrwt beam="2">  1        2 0.68154522E-01 0.14218167E+03</pdfrwt>
<pdfrwt beam="1">  1       -2 0.78438769E-02 0.14218167E+03</pdfrwt>
<totfact> 0.66776437E+03</totfact>
</mgrwt>
</event>
<event>
 7    1  0.5206756E-006  0.1606112E+03  0.7546771E-02  0.1195437E+00
          1   -1    0    0  501    0  0.00000000000E+00  0.00000000000E+00  0.16414301010E+04  0.16414301010E+04  0.00000000000E+00 0. -1.
         -1   -1    0    0    0  501 -0.00000000000E+00 -0.00000000000E+00 -0.14475571782E+02  0.14475571782E+02  0.00000000000E+00 0.  1.
         23    2    1    2    0    0 -0.74532198900E+02 -0.67942657891E+02  0.10966436563E+04  0.11083425707E+04  0.12499876670E+03 0.  0.
          5    1    3    3  502    0  0.32064135710E+02  0.27751253534E+01  0.20858104064E+03  0.21110175422E+03  0.47000000000E+01 0.  1.
         -5    1    3    3    0  502 -0.10659633461E+03 -0.70717783245E+02  0.88806261571E+03  0.89724081652E+03  0.47000000000E+01 0.  1.
        -11    1    1    2    0    0  0.89872727277E+02  0.29867608784E+02  0.34521697190E+03  0.35797198054E+03  0.00000000000E+00 0. -1.
         11    1    1    2    0    0 -0.15340528377E+02  0.38075049107E+02  0.18509390093E+03  0.18959112146E+03  0.00000000000E+00 0.  1.
<mgrwt>
<rscale>  0 0.15417304E+03</rscale>
<asrwt>0</asrwt>
<pdfrwt beam="1">  1        1 0.25252756E+00 0.16061116E+03</pdfrwt>
<pdfrwt beam="2">  1       -1 0.22270123E-02 0.16061116E+03</pdfrwt>
<totfact> 0.33605727E+03</totfact>
</mgrwt>
</event>
<event>
 7    1  0.5206756E-006  0.2750793E+03  0.7546771E-02  0.1100366E+00
          1   -1    0    0  501    0  0.00000000000E+00  0.00000000000E+00  0.40200982563E+03  0.40200982563E+03  0.00000000000E+00 0. -1.
         -1   -1    0    0    0  501 -0.00000000000E+00 -0.00000000000E+00 -0.28572670217E+03  0.28572670217E+03  0.00000000000E+00 0.  1.
         23    2    1    2    0    0  0.14814495760E+03 -0.19518419927E+03  0.26918241596E+03  0.38487374308E+03  0.12499929978E+03 0.  0.
          5    1    3    3  502    0  0.98653847403E+02 -0.19835905226E+03  0.19301977209E+03  0.29386666643E+03  0.47000000000E+01 0.  1.
         -5    1    3    3    0  502  0.49491110201E+02  0.31748529873E+01  0.76162643866E+02  0.91007076654E+02  0.47000000000E+01 0.  1.
        -11    1    1    2    0    0 -0.13344198147E+03  0.18351163079E+03 -0.16498034200E+03  0.28053840076E+03  0.00000000000E+00 0.  1.
         11    1    1    2    0    0 -0.14702976130E+02  0.11672568480E+02  0.12081049497E+02  0.22324383955E+02  0.00000000000E+00 0. -1.
<mgrwt>
<rscale>  0 0.27160259E+03</rscale>
<asrwt>0</asrwt>
<pdfrwt beam="1">  1        1 0.61847665E-01 0.27507931E+03</pdfrwt>
<pdfrwt beam="2">  1       -1 0.43957954E-01 0.27507931E+03</pdfrwt>
<totfact> 0.31569254E+02</totfact>
</mgrwt>
</event>
<event>
 7    1  0.5206756E-006  0.1245672E+03  0.7546771E-02  0.1288806E+00
          1   -1    0    0  501    0  0.00000000000E+00  0.00000000000E+00  0.77182767568E+02  0.77182767568E+02  0.00000000000E+00 0. -1.
         -1   -1    0    0    0  501 -0.00000000000E+00 -0.00000000000E+00 -0.92741703875E+02  0.92741703875E+02  0.00000000000E+00 0.  1.
         23    2    1    2    0    0  0.32592488907E+02  0.14226992518E+02 -0.52235139876E+01  0.12467667560E+03  0.11938304189E+03 0.  0.
          5    1    3    3  502    0  0.32414918850E+02  0.63932750217E+02  0.98883281223E+01  0.72512016572E+02  0.47000000000E+01 0.  1.
         -5    1    3    3    0  502  0.17757005714E+00 -0.49705757699E+02 -0.15111842110E+02  0.52164659028E+02  0.47000000000E+01 0. -1.
        -11    1    1    2    0    0 -0.11511287580E+02  0.21071909559E+01 -0.14089977152E+02  0.18316043558E+02  0.00000000000E+00 0. -1.
         11    1    1    2    0    0 -0.21081201327E+02 -0.16334183474E+02  0.37545548329E+01  0.26931752285E+02  0.00000000000E+00 0.  1.
<mgrwt>
<rscale>  0 0.96060130E+02</rscale>
<asrwt>0</asrwt>
<pdfrwt beam="1">  1        1 0.11874272E-01 0.12456720E+03</pdfrwt>
<pdfrwt beam="2">  1       -1 0.14267954E-01 0.12456720E+03</pdfrwt>
<totfact> 0.16326071E+04</totfact>
</mgrwt>
</event>
<event>
 7    1  0.5206756E-006  0.1471316E+03  0.7546771E-02  0.1211706E+00
         -2   -1    0    0    0  501 -0.00000000000E+00  0.00000000000E+00  0.33963954480E+02  0.33963954480E+02  0.00000000000E+00 0.  1.
          2   -1    0    0  501    0  0.00000000000E+00 -0.00000000000E+00 -0.61850571330E+03  0.61850571330E+03  0.00000000000E+00 0. -1.
         23    2    1    2    0    0  0.67956923049E+01 -0.77271537368E+02 -0.42587342403E+03  0.45057283629E+03  0.12502254032E+03 0.  0.
          5    1    3    3  502    0 -0.45642937331E+01 -0.10824140845E+03 -0.36954681420E+03  0.38512851513E+03  0.47000000000E+01 0.  1.
         -5    1    3    3    0  502  0.11359986038E+02  0.30969871080E+02 -0.56326609831E+02  0.65444321164E+02  0.47000000000E+01 0.  1.
        -11    1    1    2    0    0  0.12344000693E+02  0.71589945108E+02 -0.42791386927E+02  0.84312498414E+02  0.00000000000E+00 0.  1.
         11    1    1    2    0    0 -0.19139692998E+02  0.56815922603E+01 -0.11587694786E+03  0.11758433307E+03  0.00000000000E+00 0. -1.
<mgrwt>
<rscale>  0 0.14121268E+03</rscale>
<asrwt>0</asrwt>
<pdfrwt beam="2">  1        2 0.95154717E-01 0.14713160E+03</pdfrwt>
<pdfrwt beam="1">  1       -2 0.52252242E-02 0.14713160E+03</pdfrwt>
<totfact> 0.85798069E+03</totfact>
</mgrwt>
</event>
<event>
 7    1  0.5206756E-006  0.1539130E+03  0.7546771E-02  0.1203672E+00
         -2   -1    0    0    0  501 -0.00000000000E+00  0.00000000000E+00  0.33093674506E+03  0.33093674506E+03  0.00000000000E+00 0.  1.
          2   -1    0    0  501    0  0.00000000000E+00 -0.00000000000E+00 -0.81416942895E+02  0.81416942895E+02  0.00000000000E+00 0. -1.
         23    2    1    2    0    0 -0.42698911184E+02 -0.78986370967E+02  0.29045149539E+02  0.15662956403E+03  0.12500862290E+03 0.  0.
          5    1    3    3  502    0  0.25220039097E+02 -0.11493920529E+02  0.51042904279E+02  0.58272022948E+02  0.47000000000E+01 0. -1.
         -5    1    3    3    0  502 -0.67918950281E+02 -0.67492450438E+02 -0.21997754740E+02  0.98357541078E+02  0.47000000000E+01 0. -1.
        -11    1    1    2    0    0  0.41249589139E+02  0.42543265770E+01  0.13946332852E+03  0.14549793091E+03  0.00000000000E+00 0.  1.
         11    1    1    2    0    0  0.14493220446E+01  0.74732044390E+02  0.81011324112E+02  0.11022619302E+03  0.00000000000E+00 0. -1.
<mgrwt>
<rscale>  0 0.14742597E+03</rscale>
<asrwt>0</asrwt>
<pdfrwt beam="2">  1        2 0.12525684E-01 0.15391296E+03</pdfrwt>
<pdfrwt beam="1">  1       -2 0.50913345E-01 0.15391296E+03</pdfrwt>
<totfact> 0.17516032E+03</totfact>
</mgrwt>
</event>
<event>
 7    1  0.5206756E-006  0.1328245E+03  0.7546771E-02  0.1236562E+00
          2   -1    0    0  501    0  0.00000000000E+00  0.00000000000E+00  0.56806611262E+03  0.56806611262E+03  0.00000000000E+00 0. -1.
         -2   -1    0    0    0  501 -0.00000000000E+00 -0.00000000000E+00 -0.24143207139E+02  0.24143207139E+02  0.00000000000E+00 0.  1.
         23    2    1    2    0    0  0.40390489925E+02 -0.19637014568E+02  0.32468320570E+03  0.35080125321E+03  0.12500132468E+03 0.  0.
          5    1    3    3  502    0 -0.21850698406E+02 -0.56169300804E+02  0.15255357837E+03  0.16409487392E+03  0.47000000000E+01 0.  1.
         -5    1    3    3    0  502  0.62241188331E+02  0.36532286236E+02  0.17212962733E+03  0.18670637929E+03  0.47000000000E+01 0.  1.
        -11    1    1    2    0    0  0.26762107442E+02  0.13597251699E+02  0.10020327656E+03  0.10460302233E+03  0.00000000000E+00 0. -1.
         11    1    1    2    0    0 -0.67152597367E+02  0.60397628688E+01  0.11903642322E+03  0.13680504421E+03  0.00000000000E+00 0.  1.
<mgrwt>
<rscale>  0 0.12404988E+03</rscale>
<asrwt>0</asrwt>
<pdfrwt beam="1">  1        2 0.87394776E-01 0.13282445E+03</pdfrwt>
<pdfrwt beam="2">  1       -2 0.37143400E-02 0.13282445E+03</pdfrwt>
<totfact> 0.15624782E+04</totfact>
</mgrwt>
</event>
<event>
 6    1  0.5206756E-006  0.1877088E+03  0.7546771E-02  0.1189044E+00
          1   -1    0    0  501    0  0.00000000000E+00  0.00000000000E+00  0.81918369470E+03  0.81918369470E+03  0.00000000000E+00 0. -1.
         -1   -1    0    0    0  501 -0.00000000000E+00 -0.00000000000E+00 -0.36651347194E+02  0.36651347194E+02  0.00000000000E+00 0.  1.
          5    1    1    2  502    0  0.43560479370E+02  0.99395961275E+02  0.57796811785E+03  0.58808698993E+03  0.47000000000E+01 0. -1.
         -5    1    1    2    0  502 -0.15963552267E+02 -0.60480792250E+02  0.13000000058E+03  0.14434282588E+03  0.47000000000E+01 0.  1.
        -11    1    1    2    0    0 -0.47977265070E+02 -0.23209063990E+02  0.10436796452E+02  0.54308427845E+02  0.00000000000E+00 0.  1.
         11    1    1    2    0    0  0.20380337967E+02 -0.15706105036E+02  0.64127432631E+02  0.69096798239E+02  0.00000000000E+00 0. -1.
<mgrwt>
<rscale>  0 0.15969313E+03</rscale>
<asrwt>0</asrwt>
<pdfrwt beam="1">  1        1 0.12602825E+00 0.18770876E+03</pdfrwt>
<pdfrwt beam="2">  1       -1 0.56386694E-02 0.18770876E+03</pdfrwt>
<totfact> 0.32251218E+03</totfact>
</mgrwt>
</event>
<event>
 7    1  0.5206756E-006  0.2260332E+03  0.7546771E-02  0.1132516E+00
          3   -1    0    0  501    0  0.00000000000E+00  0.00000000000E+00  0.26245344627E+03  0.26245344627E+03  0.00000000000E+00 0. -1.
         -3   -1    0    0    0  501 -0.00000000000E+00 -0.00000000000E+00 -0.18472601764E+03  0.18472601764E+03  0.00000000000E+00 0.  1.
         23    2    1    2    0    0 -0.18745131964E+03 -0.18114064601E+02  0.72521004240E+02  0.23738216067E+03  0.12499951031E+03 0.  0.
          5    1    3    3  502    0 -0.28585320111E+02 -0.55637580292E+02  0.20374304646E+02  0.65953492374E+02  0.47000000000E+01 0. -1.
         -5    1    3    3    0  502 -0.15886599953E+03  0.37523515691E+02  0.52146699594E+02  0.17142866830E+03  0.47000000000E+01 0. -1.
        -11    1    1    2    0    0  0.14218599590E+03  0.14611357595E+02  0.44554883630E+02  0.14971802448E+03  0.00000000000E+00 0. -1.
         11    1    1    2    0    0  0.45265323744E+02  0.35027070058E+01 -0.39348459240E+02  0.60079278745E+02  0.00000000000E+00 0.  1.
<mgrwt>
<rscale>  0 0.22184297E+03</rscale>
<asrwt>0</asrwt>
<pdfrwt beam="1">  1        3 0.40377453E-01 0.22603317E+03</pdfrwt>
<pdfrwt beam="2">  1       -3 0.28419387E-01 0.22603317E+03</pdfrwt>
<totfact> 0.17898113E+02</totfact>
</mgrwt>
</event>
<event>
 6    1  0.5206756E-006  0.1501799E+03  0.7546771E-02  0.1214200E+00
          2   -1    0    0  501    0  0.00000000000E+00  0.00000000000E+00  0.92790824266E+02  0.92790824266E+02  0.00000000000E+00 0. -1.
         -2   -1    0    0    0  501 -0.00000000000E+00 -0.00000000000E+00 -0.27252386299E+03  0.27252386299E+03  0.00000000000E+00 0.  1.
          5    1    1    2  502    0  0.43830597781E+02  0.36619190172E+02  0.40821359509E+02  0.70360214489E+02  0.47000000000E+01 0. -1.
         -5    1    1    2    0  502  0.90070457893E+01 -0.70301369779E+02 -0.36543268091E+02  0.79880597828E+02  0.47000000000E+01 0.  1.
        -11    1    1    2    0    0 -0.44232628827E+02  0.14210291297E+02 -0.18779080596E+03  0.19345243507E+03  0.00000000000E+00 0.  1.
         11    1    1    2    0    0 -0.86050147435E+01  0.19471888309E+02  0.37796758096E+01  0.21621439876E+02  0.00000000000E+00 0. -1.
<mgrwt>
<rscale>  0 0.13935482E+03</rscale>
<asrwt>0</asrwt>
<pdfrwt beam="1">  1        2 0.14275511E-01 0.15017989E+03</pdfrwt>
<pdfrwt beam="2">  1       -2 0.41926748E-01 0.15017989E+03</pdfrwt>
<totfact> 0.21870299E+03</totfact>
</mgrwt>
</event>
<event>
 7    1  0.5206756E-006  0.1549224E+03  0.7546771E-02  0.1202764E+00
         -1   -1    0    0    0  501 -0.00000000000E+00  0.00000000000E+00  0.13383748139E+03  0.13383748139E+03  0.00000000000E+00 0.  1.
          1   -1    0    0  501    0  0.00000000000E+00 -0.00000000000E+00 -0.15677776189E+03  0.15677776189E+03  0.00000000000E+00 0. -1.
         23    2    1    2    0    0 -0.63383098853E+02 -0.66021116008E+02 -0.39825043808E+02  0.15995936096E+03  0.12499903226E+03 0.  0.
          5    1    3    3  502    0 -0.10075780999E+03 -0.38862682604E+02 -0.33012850109E+02  0.11302381451E+03  0.47000000000E+01 0. -1.
         -5    1    3    3    0  502  0.37374711140E+02 -0.27158433404E+02 -0.68121936985E+01  0.46935546452E+02  0.47000000000E+01 0. -1.
        -11    1    1    2    0    0  0.13608510115E+02  0.20765637111E+02 -0.36935113383E+02  0.44503997942E+02  0.00000000000E+00 0. -1.
         11    1    1    2    0    0  0.49774588738E+02  0.45255478897E+02  0.53819876687E+02  0.86151884372E+02  0.00000000000E+00 0.  1.
<mgrwt>
<rscale>  0 0.14815070E+03</rscale>
<asrwt>0</asrwt>
<pdfrwt beam="2">  1        1 0.24119656E-01 0.15492244E+03</pdfrwt>
<pdfrwt beam="1">  1       -1 0.20590382E-01 0.15492244E+03</pdfrwt>
<totfact> 0.37303126E+03</totfact>
</mgrwt>
</event>
<event>
 7    1  0.5206756E-006  0.1287933E+03  0.7546771E-02  0.1243616E+00
         -2   -1    0    0    0  501 -0.00000000000E+00  0.00000000000E+00  0.27557541581E+02  0.27557541581E+02  0.00000000000E+00 0. -1.
          2   -1    0    0  501    0  0.00000000000E+00 -0.00000000000E+00 -0.71132981923E+03  0.71132981923E+03  0.00000000000E+00 0.  1.
         23    2    1    2    0    0 -0.21672915951E+02 -0.22200681041E+02 -0.59267626063E+03  0.60650874125E+03  0.12500047108E+03 0.  0.
          5    1    3    3  502    0 -0.46445288128E+02 -0.83606550136E+01 -0.79816375818E+02  0.92842927519E+02  0.47000000000E+01 0.  1.
         -5    1    3    3    0  502  0.24772372177E+02 -0.13840026028E+02 -0.51285988481E+03  0.51366581373E+03  0.47000000000E+01 0.  1.
        -11    1    1    2    0    0 -0.25817252174E+02 -0.17771041115E+02 -0.16787569301E+02  0.35555068487E+02  0.00000000000E+00 0. -1.
         11    1    1    2    0    0  0.47490168125E+02  0.39971722156E+02 -0.74308447713E+02  0.96823551072E+02  0.00000000000E+00 0.  1.
<mgrwt>
<rscale>  0 0.11968625E+03</rscale>
<asrwt>0</asrwt>
<pdfrwt beam="2">  1        2 0.10943535E+00 0.12879326E+03</pdfrwt>
<pdfrwt beam="1">  1       -2 0.42396222E-02 0.12879326E+03</pdfrwt>
<totfact> 0.98823361E+03</totfact>
</mgrwt>
</event>
<event>
 7    1  0.5206756E-006  0.1312839E+03  0.7546771E-02  0.1237567E+00
          1   -1    0    0  501    0  0.00000000000E+00  0.00000000000E+00  0.13678716305E+03  0.13678716305E+03  0.00000000000E+00 0. -1.
         -1   -1    0    0    0  501 -0.00000000000E+00 -0.00000000000E+00 -0.10922181765E+03  0.10922181765E+03  0.00000000000E+00 0.  1.
         23    2    1    2    0    0  0.29051582873E+02 -0.28037710030E+02  0.50992686817E+02  0.14083929442E+03  0.12492135564E+03 0.  0.
          5    1    3    3  502    0  0.66089965237E+02 -0.54265275063E+02  0.32283773873E+02  0.91525600999E+02  0.47000000000E+01 0.  1.
         -5    1    3    3    0  502 -0.37038382364E+02  0.26227565033E+02  0.18708912943E+02  0.49313693425E+02  0.47000000000E+01 0.  1.
        -11    1    1    2    0    0  0.17398883483E+02  0.44831524594E+01 -0.45261105637E+02  0.48696894007E+02  0.00000000000E+00 0.  1.
         11    1    1    2    0    0 -0.46450466356E+02  0.23554557571E+02  0.21833764225E+02  0.56472792275E+02  0.00000000000E+00 0. -1.
<mgrwt>
<rscale>  0 0.12341509E+03</rscale>
<asrwt>0</asrwt>
<pdfrwt beam="1">  1        1 0.21044179E-01 0.13128386E+03</pdfrwt>
<pdfrwt beam="2">  1       -1 0.16803357E-01 0.13128386E+03</pdfrwt>
<totfact> 0.60720161E+03</totfact>
</mgrwt>
</event>
<event>
 7    1  0.5206756E-006  0.1572039E+03  0.7546771E-02  0.1199737E+00
          1   -1    0    0  501    0  0.00000000000E+00  0.00000000000E+00  0.85357531929E+03  0.85357531929E+03  0.00000000000E+00 0. -1.
         -1   -1    0    0    0  501 -0.00000000000E+00 -0.00000000000E+00 -0.24718357107E+02  0.24718357107E+02  0.00000000000E+00 0.  1.
         23    2    1    2    0    0 -0.95134567546E+02 -0.66314407073E+01  0.48404105583E+03  0.50892908572E+03  0.12497403179E+03 0.  0.
          5    1    3    3  502    0 -0.10979725605E+03 -0.42121343029E+02  0.38551701389E+03  0.40308200527E+03  0.47000000000E+01 0. -1.
         -5    1    3    3    0  502  0.14662688505E+02  0.35489902321E+02  0.98524041936E+02  0.10584708045E+03  0.47000000000E+01 0. -1.
        -11    1    1    2    0    0  0.43043230171E+02  0.43785669440E+02  0.22856918721E+03  0.23667230056E+03  0.00000000000E+00 0. -1.
         11    1    1    2    0    0  0.52091337375E+02 -0.37154228732E+02  0.11624671915E+03  0.13269229011E+03  0.00000000000E+00 0.  1.
<mgrwt>
<rscale>  0 0.15060072E+03</rscale>
<asrwt>0</asrwt>
<pdfrwt beam="1">  1        1 0.13131926E+00 0.15720391E+03</pdfrwt>
<pdfrwt beam="2">  1       -1 0.38028248E-02 0.15720391E+03</pdfrwt>
<totfact> 0.53968211E+03</totfact>
</mgrwt>
</event>
<event>
 7    1  0.5206756E-006  0.1398105E+03  0.7546771E-02  0.1228906E+00
         -1   -1    0    0    0  501 -0.00000000000E+00  0.00000000000E+00  0.17832471684E+03  0.17832471684E+03  0.00000000000E+00 0.  1.
          1   -1    0    0  501    0  0.00000000000E+00 -0.00000000000E+00 -0.17023840334E+03  0.17023840334E+03  0.00000000000E+00 0. -1.
         23    2    1    2    0    0 -0.28201307064E+02  0.55899277064E+02 -0.12065456517E+03  0.18467402834E+03  0.12500771877E+03 0.  0.
          5    1    3    3  502    0 -0.50512934531E+02  0.19519174517E+02  0.23338881478E+01  0.54406725344E+02  0.47000000000E+01 0.  1.
         -5    1    3    3    0  502  0.22311627467E+02  0.36380102548E+02 -0.12298845331E+03  0.13026730300E+03  0.47000000000E+01 0.  1.
        -11    1    1    2    0    0  0.41788507821E+02 -0.63267549054E+02  0.70158145507E+02  0.10330163372E+03  0.00000000000E+00 0.  1.
         11    1    1    2    0    0 -0.13587200757E+02  0.73682719894E+01  0.58582733163E+02  0.60587458119E+02  0.00000000000E+00 0. -1.
<mgrwt>
<rscale>  0 0.12902759E+03</rscale>
<asrwt>0</asrwt>
<pdfrwt beam="2">  1        1 0.26190524E-01 0.13981049E+03</pdfrwt>
<pdfrwt beam="1">  1       -1 0.27434572E-01 0.13981049E+03</pdfrwt>
<totfact> 0.20924501E+03</totfact>
</mgrwt>
</event>
<event>
 7    1  0.5206756E-006  0.1294024E+03  0.7546771E-02  0.1242189E+00
          1   -1    0    0  501    0  0.00000000000E+00  0.00000000000E+00  0.21891602607E+03  0.21891602607E+03  0.00000000000E+00 0.  1.
         -1   -1    0    0    0  501 -0.00000000000E+00 -0.00000000000E+00 -0.79986741464E+02  0.79986741464E+02  0.00000000000E+00 0. -1.
         23    2    1    2    0    0 -0.33980905636E+01 -0.33291528811E+02  0.15304106979E+03  0.20041591356E+03  0.12500038583E+03 0.  0.
          5    1    3    3  502    0 -0.15930281070E+02  0.45982327706E+02  0.62029251179E+02  0.78980164080E+02  0.47000000000E+01 0.  1.
         -5    1    3    3    0  502  0.12532190507E+02 -0.79273856517E+02  0.91011818606E+02  0.12143574948E+03  0.47000000000E+01 0.  1.
        -11    1    1    2    0    0 -0.23092439132E+02  0.16887940860E+02 -0.45828996969E+02  0.54025551869E+02  0.00000000000E+00 0. -1.
         11    1    1    2    0    0  0.26490529696E+02  0.16403587950E+02  0.31717211794E+02  0.44461302109E+02  0.00000000000E+00 0.  1.
<mgrwt>
<rscale>  0 0.12055217E+03</rscale>
<asrwt>0</asrwt>
<pdfrwt beam="1">  1        1 0.33679388E-01 0.12940235E+03</pdfrwt>
<pdfrwt beam="2">  1       -1 0.12305653E-01 0.12940235E+03</pdfrwt>
<totfact> 0.54799832E+03</totfact>
</mgrwt>
</event>
<event>
 7    1  0.5206756E-006  0.1267486E+03  0.7546771E-02  0.1249197E+00
         -1   -1    0    0    0  501 -0.00000000000E+00  0.00000000000E+00  0.12844787501E+02  0.12844787501E+02  0.00000000000E+00 0.  1.
          1   -1    0    0  501    0  0.00000000000E+00 -0.00000000000E+00 -0.13227905144E+04  0.13227905144E+04  0.00000000000E+00 0. -1.
         23    2    1    2    0    0 -0.18775536207E+02 -0.92379454176E+01 -0.10986703228E+04  0.11059573603E+04  0.12500937653E+03 0.  0.
          5    1    3    3  502    0 -0.23827015931E+02 -0.47863646606E+02 -0.22150557359E+03  0.22791547663E+03  0.47000000000E+01 0. -1.
         -5    1    3    3    0  502  0.50514797243E+01  0.38625701189E+02 -0.87716474924E+03  0.87804188371E+03  0.47000000000E+01 0. -1.
        -11    1    1    2    0    0  0.51365628820E+02 -0.64121843970E+01 -0.98863028932E+02  0.11159499282E+03  0.00000000000E+00 0. -1.
         11    1    1    2    0    0 -0.32590092613E+02  0.15650129815E+02 -0.11241237508E+03  0.11808294869E+03  0.00000000000E+00 0.  1.
<mgrwt>
<rscale>  0 0.11637673E+03</rscale>
<asrwt>0</asrwt>
<pdfrwt beam="2">  1        1 0.20350627E+00 0.12674859E+03</pdfrwt>
<pdfrwt beam="1">  1       -1 0.19761208E-02 0.12674859E+03</pdfrwt>
<totfact> 0.64021483E+03</totfact>
</mgrwt>
</event>
<event>
 7    1  0.5206756E-006  0.1367761E+03  0.7546771E-02  0.1229473E+00
          2   -1    0    0  501    0  0.00000000000E+00  0.00000000000E+00  0.15944855578E+03  0.15944855578E+03  0.00000000000E+00 0. -1.
         -2   -1    0    0    0  501 -0.00000000000E+00 -0.00000000000E+00 -0.99252941574E+02  0.99252941574E+02  0.00000000000E+00 0.  1.
         23    2    1    2    0    0 -0.92282127918E+01 -0.54747589013E+02  0.65217251923E+02  0.15152888871E+03  0.12500102300E+03 0.  0.
          5    1    3    3  502    0 -0.33865607585E+02 -0.87563411353E+02  0.55263696320E+02  0.10904309476E+03  0.47000000000E+01 0.  1.
         -5    1    3    3    0  502  0.24637394793E+02  0.32815822340E+02  0.99535556025E+01  0.42485793945E+02  0.47000000000E+01 0.  1.
        -11    1    1    2    0    0 -0.90050521485E+01  0.22031571906E+02 -0.45916364733E+02  0.51718407508E+02  0.00000000000E+00 0.  1.
         11    1    1    2    0    0  0.18233264940E+02  0.32716017106E+02  0.40894727013E+02  0.55454201131E+02  0.00000000000E+00 0. -1.
<mgrwt>
<rscale>  0 0.12864989E+03</rscale>
<asrwt>0</asrwt>
<pdfrwt beam="1">  1        2 0.24530547E-01 0.13677615E+03</pdfrwt>
<pdfrwt beam="2">  1       -2 0.15269683E-01 0.13677615E+03</pdfrwt>
<totfact> 0.69317389E+03</totfact>
</mgrwt>
</event>
<event>
 7    1  0.5206756E-006  0.1490021E+03  0.7546771E-02  0.1210583E+00
         -1   -1    0    0    0  501 -0.00000000000E+00  0.00000000000E+00  0.17011059416E+02  0.17011059416E+02  0.00000000000E+00 0.  1.
          1   -1    0    0  501    0  0.00000000000E+00 -0.00000000000E+00 -0.11781878150E+04  0.11781878150E+04  0.00000000000E+00 0. -1.
         23    2    1    2    0    0  0.34608633226E+02  0.73335969002E+02 -0.79603923234E+03  0.80986423925E+03  0.12500281897E+03 0.  0.
          5    1    3    3  502    0  0.51448443210E+02  0.63739266618E+02 -0.24323201003E+03  0.25669736485E+03  0.47000000000E+01 0. -1.
         -5    1    3    3    0  502 -0.16839809984E+02  0.95967023831E+01 -0.55280722231E+03  0.55316687440E+03  0.47000000000E+01 0. -1.
        -11    1    1    2    0    0  0.10924285122E+02 -0.47292027008E+02 -0.67668200941E+02  0.83275814271E+02  0.00000000000E+00 0.  1.
         11    1    1    2    0    0 -0.45532918348E+02 -0.26043941994E+02 -0.29746932231E+03  0.30205882090E+03  0.00000000000E+00 0. -1.
<mgrwt>
<rscale>  0 0.14206015E+03</rscale>
<asrwt>0</asrwt>
<pdfrwt beam="2">  1        1 0.18125970E+00 0.14900210E+03</pdfrwt>
<pdfrwt beam="1">  1       -1 0.26170855E-02 0.14900210E+03</pdfrwt>
<totfact> 0.53736437E+03</totfact>
</mgrwt>
</event>
<event>
 7    1  0.5206756E-006  0.1761728E+03  0.7546771E-02  0.1178236E+00
          2   -1    0    0  501    0  0.00000000000E+00  0.00000000000E+00  0.79405682582E+03  0.79405682582E+03  0.00000000000E+00 0. -1.
         -2   -1    0    0    0  501 -0.00000000000E+00 -0.00000000000E+00 -0.34169811391E+02  0.34169811391E+02  0.00000000000E+00 0.  1.
         23    2    1    2    0    0  0.12318529051E+03 -0.15628691455E+02  0.45205505492E+03  0.48517072601E+03  0.12497195248E+03 0.  0.
          5    1    3    3  502    0  0.91012668224E+01 -0.75857598700E+01 -0.52300014760E+01  0.13777507976E+02  0.47000000000E+01 0.  1.
         -5    1    3    3    0  502  0.11408402369E+03 -0.80429315849E+01  0.45728505639E+03  0.47139321803E+03  0.47000000000E+01 0.  1.
        -11    1    1    2    0    0  0.10107997003E+02  0.14786571468E+02  0.30955943736E+02  0.35764294370E+02  0.00000000000E+00 0. -1.
         11    1    1    2    0    0 -0.13329328751E+03  0.84211998745E+00  0.27687601577E+03  0.30729161683E+03  0.00000000000E+00 0.  1.
<mgrwt>
<rscale>  0 0.16962787E+03</rscale>
<asrwt>0</asrwt>
<pdfrwt beam="1">  1        2 0.12216257E+00 0.17617281E+03</pdfrwt>
<pdfrwt beam="2">  1       -2 0.52568947E-02 0.17617281E+03</pdfrwt>
<totfact> 0.63617533E+03</totfact>
</mgrwt>
</event>
<event>
 7    1  0.5206756E-006  0.1325177E+03  0.7546771E-02  0.1235578E+00
          2   -1    0    0  501    0  0.00000000000E+00  0.00000000000E+00  0.19845839449E+04  0.19845839449E+04  0.00000000000E+00 0. -1.
         -2   -1    0    0    0  501 -0.00000000000E+00 -0.00000000000E+00 -0.44953055003E+02  0.44953055003E+02  0.00000000000E+00 0.  1.
         23    2    1    2    0    0  0.26715191320E+02 -0.39596388830E+02  0.19191406209E+04  0.19237103916E+04  0.12360975910E+03 0.  0.
          5    1    3    3  502    0  0.45455156730E+02 -0.10411111016E+02  0.17659631393E+04  0.17665849716E+04  0.47000000000E+01 0. -1.
         -5    1    3    3    0  502 -0.18739965409E+02 -0.29185277814E+02  0.15317748156E+03  0.15712541997E+03  0.47000000000E+01 0.  1.
        -11    1    1    2    0    0 -0.27736343579E+02 -0.13028468749E+02 -0.22376854916E+02  0.37944293233E+02  0.00000000000E+00 0.  1.
         11    1    1    2    0    0  0.10211522584E+01  0.52624857579E+02  0.42867123948E+02  0.67882315096E+02  0.00000000000E+00 0. -1.
<mgrwt>
<rscale>  0 0.12467515E+03</rscale>
<asrwt>0</asrwt>
<pdfrwt beam="1">  1        2 0.30532054E+00 0.13251773E+03</pdfrwt>
<pdfrwt beam="2">  1       -2 0.69158562E-02 0.13251773E+03</pdfrwt>
<totfact> 0.92001510E+02</totfact>
</mgrwt>
</event>
<event>
 7    1  0.5206756E-006  0.1365709E+03  0.7546771E-02  0.1242393E+00
          1   -1    0    0  501    0  0.00000000000E+00  0.00000000000E+00  0.83657310279E+02  0.83657310279E+02  0.00000000000E+00 0. -1.
         -1   -1    0    0    0  501 -0.00000000000E+00 -0.00000000000E+00 -0.14845695818E+03  0.14845695818E+03  0.00000000000E+00 0.  1.
         23    2    1    2    0    0 -0.34471481427E+02 -0.42878424322E+02 -0.19570984046E+02  0.13796609823E+03  0.12499911416E+03 0.  0.
          5    1    3    3  502    0  0.23651823806E+02  0.29027912059E+01 -0.51734750017E+02  0.57152509354E+02  0.47000000000E+01 0.  1.
         -5    1    3    3    0  502 -0.58123305232E+02 -0.45781215528E+02  0.32163765971E+02  0.80813588880E+02  0.47000000000E+01 0.  1.
        -11    1    1    2    0    0  0.44755877417E+02  0.14877484257E+02 -0.43671401952E+02  0.64277674582E+02  0.00000000000E+00 0.  1.
         11    1    1    2    0    0 -0.10284395991E+02  0.28000940065E+02 -0.15572619040E+01  0.29870495644E+02  0.00000000000E+00 0. -1.
<mgrwt>
<rscale>  0 0.12042809E+03</rscale>
<asrwt>0</asrwt>
<pdfrwt beam="1">  1        1 0.12870355E-01 0.13657094E+03</pdfrwt>
<pdfrwt beam="2">  1       -1 0.22839532E-01 0.13657094E+03</pdfrwt>
<totfact> 0.70086542E+03</totfact>
</mgrwt>
</event>
<event>
 7    1  0.5206756E-006  0.1709761E+03  0.7546771E-02  0.1183316E+00
         -1   -1    0    0    0  501 -0.00000000000E+00  0.00000000000E+00  0.12645496283E+03  0.12645496283E+03  0.00000000000E+00 0.  1.
          1   -1    0    0  501    0  0.00000000000E+00 -0.00000000000E+00 -0.24449280772E+03  0.24449280772E+03  0.00000000000E+00 0. -1.
         23    2    1    2    0    0 -0.10744751669E+03 -0.45456583358E+02 -0.14069820565E+03  0.22142451662E+03  0.12498624594E+03 0.  0.
          5    1    3    3  502    0 -0.99553359849E+01  0.39385231960E+02 -0.25223001831E+02  0.48047841080E+02  0.47000000000E+01 0. -1.
         -5    1    3    3    0  502 -0.97492180705E+02 -0.84841815318E+02 -0.11547520382E+03  0.17337667554E+03  0.47000000000E+01 0. -1.
        -11    1    1    2    0    0  0.10107274786E+03  0.24258992291E+02  0.49170642251E+02  0.11498674326E+03  0.00000000000E+00 0.  1.
         11    1    1    2    0    0  0.63747688306E+01  0.21197591067E+02 -0.26510281487E+02  0.34536510669E+02  0.00000000000E+00 0. -1.
<mgrwt>
<rscale>  0 0.16486079E+03</rscale>
<asrwt>0</asrwt>
<pdfrwt beam="2">  1        1 0.37614278E-01 0.17097611E+03</pdfrwt>
<pdfrwt beam="1">  1       -1 0.19454610E-01 0.17097611E+03</pdfrwt>
<totfact> 0.23538574E+03</totfact>
</mgrwt>
</event>
<event>
 7    1  0.5206756E-006  0.1251512E+03  0.7546771E-02  0.1249700E+00
         -1   -1    0    0    0  501 -0.00000000000E+00  0.00000000000E+00  0.58105217754E+02  0.58105217754E+02  0.00000000000E+00 0.  1.
          1   -1    0    0  501    0  0.00000000000E+00 -0.00000000000E+00 -0.26116259355E+03  0.26116259355E+03  0.00000000000E+00 0. -1.
         23    2    1    2    0    0  0.36886465117E+01 -0.49082702428E+01 -0.18735282832E+03  0.22530845159E+03  0.12500047541E+03 0.  0.
          5    1    3    3  502    0 -0.34507573098E+02 -0.29466253042E+02 -0.17073679052E+03  0.17672626943E+03  0.47000000000E+01 0.  1.
         -5    1    3    3    0  502  0.38196219610E+02  0.24557982799E+02 -0.16616037792E+02  0.48582182161E+02  0.47000000000E+01 0.  1.
        -11    1    1    2    0    0  0.23389700176E+02  0.15385763659E+02 -0.44817160050E+02  0.52842952536E+02  0.00000000000E+00 0. -1.
         11    1    1    2    0    0 -0.27078346688E+02 -0.10477493417E+02  0.29112612574E+02  0.41116407169E+02  0.00000000000E+00 0.  1.
<mgrwt>
<rscale>  0 0.11608418E+03</rscale>
<asrwt>0</asrwt>
<pdfrwt beam="2">  1        1 0.40178860E-01 0.12515117E+03</pdfrwt>
<pdfrwt beam="1">  1       -1 0.89392644E-02 0.12515117E+03</pdfrwt>
<totfact> 0.71657270E+03</totfact>
</mgrwt>
</event>
<event>
 7    1  0.5206756E-006  0.1353082E+03  0.7546771E-02  0.1231957E+00
         -2   -1    0    0    0  501 -0.00000000000E+00  0.00000000000E+00  0.10893393759E+03  0.10893393759E+03  0.00000000000E+00 0.  1.
          2   -1    0    0  501    0  0.00000000000E+00 -0.00000000000E+00 -0.14588239223E+03  0.14588239223E+03  0.00000000000E+00 0. -1.
         23    2    1    2    0    0  0.12120101159E+02 -0.50358681689E+02 -0.58767690904E+02  0.14751928206E+03  0.12500161363E+03 0.  0.
          5    1    3    3  502    0 -0.10789302627E+02  0.84302998326E+01 -0.79601804935E+02  0.80907455499E+02  0.47000000000E+01 0.  1.
         -5    1    3    3    0  502  0.22909403786E+02 -0.58788981521E+02  0.20834114031E+02  0.66611826559E+02  0.47000000000E+01 0.  1.
        -11    1    1    2    0    0 -0.40996231419E+02  0.36340515378E+02  0.42305679137E+02  0.69217732812E+02  0.00000000000E+00 0.  1.
         11    1    1    2    0    0  0.28876130260E+02  0.14018166311E+02 -0.20486442877E+02  0.38079314952E+02  0.00000000000E+00 0. -1.
<mgrwt>
<rscale>  0 0.12701274E+03</rscale>
<asrwt>0</asrwt>
<pdfrwt beam="2">  1        2 0.22443445E-01 0.13530816E+03</pdfrwt>
<pdfrwt beam="1">  1       -2 0.16759067E-01 0.13530816E+03</pdfrwt>
<totfact> 0.65597573E+03</totfact>
</mgrwt>
</event>
<event>
 7    1  0.5206756E-006  0.1457959E+03  0.7546771E-02  0.1216084E+00
          2   -1    0    0  501    0  0.00000000000E+00  0.00000000000E+00  0.74255658009E+02  0.74255658009E+02  0.00000000000E+00 0. -1.
         -2   -1    0    0    0  501 -0.00000000000E+00 -0.00000000000E+00 -0.23369662983E+03  0.23369662983E+03  0.00000000000E+00 0.  1.
         23    2    1    2    0    0  0.32619441190E+02  0.67566340878E+02 -0.76991114965E+02  0.16487591537E+03  0.12500878898E+03 0.  0.
          5    1    3    3  502    0 -0.16029204956E+02  0.46528493805E+02 -0.96318101493E+02  0.10826404215E+03  0.47000000000E+01 0. -1.
         -5    1    3    3    0  502  0.48648646146E+02  0.21037847073E+02  0.19326986528E+02  0.56611873221E+02  0.47000000000E+01 0. -1.
        -11    1    1    2    0    0  0.52501960722E+01 -0.87826429325E+01  0.17987749436E+02  0.20694407588E+02  0.00000000000E+00 0.  1.
         11    1    1    2    0    0 -0.37869637262E+02 -0.58783697945E+02 -0.10043760629E+03  0.12238196488E+03  0.00000000000E+00 0. -1.
<mgrwt>
<rscale>  0 0.13797213E+03</rscale>
<asrwt>0</asrwt>
<pdfrwt beam="1">  1        2 0.11423947E-01 0.14579587E+03</pdfrwt>
<pdfrwt beam="2">  1       -2 0.35953328E-01 0.14579587E+03</pdfrwt>
<totfact> 0.38085515E+03</totfact>
</mgrwt>
</event>
<event>
 7    1  0.5206756E-006  0.1337980E+03  0.7546771E-02  0.1234411E+00
         -1   -1    0    0    0  501 -0.00000000000E+00  0.00000000000E+00  0.28448165678E+02  0.28448165678E+02  0.00000000000E+00 0.  1.
          1   -1    0    0  501    0  0.00000000000E+00 -0.00000000000E+00 -0.51796283985E+03  0.51796283985E+03  0.00000000000E+00 0. -1.
         23    2    1    2    0    0  0.43037245512E+02  0.20614493369E+02 -0.33299233426E+03  0.35886738733E+03  0.12499898069E+03 0.  0.
          5    1    3    3  502    0  0.56994820350E+02  0.62281162367E+02 -0.16826522165E+03  0.18831523451E+03  0.47000000000E+01 0.  1.
         -5    1    3    3    0  502 -0.13957574838E+02 -0.41666668998E+02 -0.16472711261E+03  0.17055215281E+03  0.47000000000E+01 0.  1.
        -11    1    1    2    0    0 -0.26934893644E+02  0.20052366325E+02 -0.10608747284E+02  0.35215499567E+02  0.00000000000E+00 0.  1.
         11    1    1    2    0    0 -0.16102351867E+02 -0.40666859693E+02 -0.14591359263E+03  0.15232811864E+03  0.00000000000E+00 0. -1.
<mgrwt>
<rscale>  0 0.12542234E+03</rscale>
<asrwt>0</asrwt>
<pdfrwt beam="2">  1        1 0.79686592E-01 0.13379801E+03</pdfrwt>
<pdfrwt beam="1">  1       -1 0.43766408E-02 0.13379801E+03</pdfrwt>
<totfact> 0.88301868E+03</totfact>
</mgrwt>
</event>
<event>
 7    1  0.5206756E-006  0.1356734E+03  0.7546771E-02  0.1231401E+00
          2   -1    0    0  501    0  0.00000000000E+00  0.00000000000E+00  0.15874993792E+03  0.15874993792E+03  0.00000000000E+00 0. -1.
         -2   -1    0    0    0  501 -0.00000000000E+00 -0.00000000000E+00 -0.11783955805E+03  0.11783955805E+03  0.00000000000E+00 0.  1.
         23    2    1    2    0    0  0.39490511170E+02  0.34952952539E+02  0.87395300270E+02  0.16138529896E+03  0.12500426732E+03 0.  0.
          5    1    3    3  502    0  0.72873448568E+02  0.13353457006E+02  0.10881504516E+02  0.75029004130E+02  0.47000000000E+01 0.  1.
         -5    1    3    3    0  502 -0.33382937398E+02  0.21599495533E+02  0.76513795755E+02  0.86356294834E+02  0.47000000000E+01 0.  1.
        -11    1    1    2    0    0 -0.47736986730E+02  0.34411838136E+01  0.75024367341E+01  0.48445311487E+02  0.00000000000E+00 0. -1.
         11    1    1    2    0    0  0.82464755602E+01 -0.38394136353E+02 -0.53987357134E+02  0.66758885519E+02  0.00000000000E+00 0.  1.
<mgrwt>
<rscale>  0 0.12737699E+03</rscale>
<asrwt>0</asrwt>
<pdfrwt beam="1">  1        2 0.24423067E-01 0.13567342E+03</pdfrwt>
<pdfrwt beam="2">  1       -2 0.18129163E-01 0.13567342E+03</pdfrwt>
<totfact> 0.52415491E+03</totfact>
</mgrwt>
</event>
<event>
 6    1  0.5206756E-006  0.2404245E+03  0.7546771E-02  0.1146891E+00
          1   -1    0    0  501    0  0.00000000000E+00  0.00000000000E+00  0.14739332862E+03  0.14739332862E+03  0.00000000000E+00 0. -1.
         -1   -1    0    0    0  501 -0.00000000000E+00 -0.00000000000E+00 -0.33503837943E+03  0.33503837943E+03  0.00000000000E+00 0.  1.
          5    1    1    2  502    0  0.18813613586E+02 -0.78385654789E+02 -0.42860685867E+01  0.80862372688E+02  0.47000000000E+01 0. -1.
         -5    1    1    2    0  502 -0.71376796854E+01  0.15833184857E+03  0.24008894212E+02  0.16036969085E+03  0.47000000000E+01 0.  1.
        -11    1    1    2    0    0 -0.37715144456E+01  0.20645449837E+02 -0.50439310827E+02  0.54631337132E+02  0.00000000000E+00 0.  1.
         11    1    1    2    0    0 -0.79044194546E+01 -0.10059164362E+03 -0.15692856560E+03  0.18656830737E+03  0.00000000000E+00 0. -1.
<mgrwt>
<rscale>  0 0.20341269E+03</rscale>
<asrwt>0</asrwt>
<pdfrwt beam="1">  1        1 0.22675897E-01 0.24042446E+03</pdfrwt>
<pdfrwt beam="2">  1       -1 0.51544365E-01 0.24042446E+03</pdfrwt>
<totfact> 0.84227339E+02</totfact>
</mgrwt>
</event>
<event>
 6    1  0.5206756E-006  0.1836009E+03  0.7546771E-02  0.1179002E+00
          2   -1    0    0  501    0  0.00000000000E+00  0.00000000000E+00  0.13720773999E+03  0.13720773999E+03  0.00000000000E+00 0. -1.
         -2   -1    0    0    0  501 -0.00000000000E+00 -0.00000000000E+00 -0.23076065063E+03  0.23076065063E+03  0.00000000000E+00 0.  1.
          5    1    1    2  502    0 -0.29347122519E+02  0.18433485424E+02  0.49571237329E+02  0.60666667580E+02  0.47000000000E+01 0. -1.
         -5    1    1    2    0  502  0.77574990269E+02 -0.97128814487E+02 -0.17804336421E+02  0.12566212681E+03  0.47000000000E+01 0.  1.
        -11    1    1    2    0    0 -0.52510049275E+02  0.31997601606E+02 -0.17297241930E+02  0.63877588885E+02  0.00000000000E+00 0.  1.
         11    1    1    2    0    0  0.42821815249E+01  0.46697727457E+02 -0.10802256962E+03  0.11776200735E+03  0.00000000000E+00 0. -1.
<mgrwt>
<rscale>  0 0.16889773E+03</rscale>
<asrwt>0</asrwt>
<pdfrwt beam="1">  1        2 0.21108884E-01 0.18360088E+03</pdfrwt>
<pdfrwt beam="2">  1       -2 0.35501638E-01 0.18360088E+03</pdfrwt>
<totfact> 0.19202573E+03</totfact>
</mgrwt>
</event>
<event>
 7    1  0.5206756E-006  0.1668643E+03  0.7546771E-02  0.1189568E+00
         -1   -1    0    0    0  501 -0.00000000000E+00  0.00000000000E+00  0.38497329950E+02  0.38497329950E+02  0.00000000000E+00 0.  1.
          1   -1    0    0  501    0  0.00000000000E+00 -0.00000000000E+00 -0.65964610849E+03  0.65964610849E+03  0.00000000000E+00 0. -1.
         23    2    1    2    0    0  0.96893770408E+02 -0.53209026570E+02 -0.43724523599E+03  0.46800329322E+03  0.12499633124E+03 0.  0.
          5    1    3    3  502    0  0.93645281597E+02 -0.56593011493E+02 -0.18018710152E+03  0.21085940641E+03  0.47000000000E+01 0. -1.
         -5    1    3    3    0  502  0.32484888118E+01  0.33839849223E+01 -0.25705813446E+03  0.25714388681E+03  0.47000000000E+01 0. -1.
        -11    1    1    2    0    0 -0.52994069715E+02  0.57258360350E+02 -0.59387169712E+02  0.98049615916E+02  0.00000000000E+00 0.  1.
         11    1    1    2    0    0 -0.43899700693E+02 -0.40493337798E+01 -0.12451637285E+03  0.13209052930E+03  0.00000000000E+00 0. -1.
<mgrwt>
<rscale>  0 0.15923060E+03</rscale>
<asrwt>0</asrwt>
<pdfrwt beam="2">  1        1 0.10148401E+00 0.16686427E+03</pdfrwt>
<pdfrwt beam="1">  1       -1 0.59226664E-02 0.16686427E+03</pdfrwt>
<totfact> 0.41057213E+03</totfact>
</mgrwt>
</event>
<event>
 7    1  0.5206756E-006  0.1528243E+03  0.7546771E-02  0.1205837E+00
         -1   -1    0    0    0  501 -0.00000000000E+00  0.00000000000E+00  0.61267633377E+02  0.61267633377E+02  0.00000000000E+00 0.  1.
          1   -1    0    0  501    0  0.00000000000E+00 -0.00000000000E+00 -0.51110731633E+03  0.51110731633E+03  0.00000000000E+00 0. -1.
         23    2    1    2    0    0 -0.87909931979E+02 -0.14838860314E+01 -0.41364487526E+03  0.44097317915E+03  0.12499961538E+03 0.  0.
          5    1    3    3  502    0 -0.94523547672E+02  0.31557016794E+02 -0.18849697383E+03  0.21326918558E+03  0.47000000000E+01 0. -1.
         -5    1    3    3    0  502  0.66136156935E+01 -0.33040902826E+02 -0.22514790143E+03  0.22770399357E+03  0.47000000000E+01 0. -1.
        -11    1    1    2    0    0  0.30778975092E+02 -0.38546206907E+02  0.62856931969E+01  0.49725901837E+02  0.00000000000E+00 0. -1.
         11    1    1    2    0    0  0.57130956887E+02  0.40030092938E+02 -0.42480500898E+02  0.81675868725E+02  0.00000000000E+00 0.  1.
<mgrwt>
<rscale>  0 0.14571726E+03</rscale>
<asrwt>0</asrwt>
<pdfrwt beam="2">  1        1 0.78631895E-01 0.15282428E+03</pdfrwt>
<pdfrwt beam="1">  1       -1 0.94257897E-02 0.15282428E+03</pdfrwt>
<totfact> 0.28694584E+03</totfact>
</mgrwt>
</event>
<event>
 7    1  0.5206756E-006  0.1311337E+03  0.7546771E-02  0.1239108E+00
          1   -1    0    0  501    0  0.00000000000E+00  0.00000000000E+00  0.69501421459E+03  0.69501421459E+03  0.00000000000E+00 0. -1.
         -1   -1    0    0    0  501 -0.00000000000E+00 -0.00000000000E+00 -0.21465302132E+02  0.21465302132E+02  0.00000000000E+00 0.  1.
         23    2    1    2    0    0 -0.15361703897E+02 -0.36573303820E+02  0.49397526202E+03  0.51108474034E+03  0.12498985485E+03 0.  0.
          5    1    3    3  502    0 -0.33683912314E+02  0.32610760982E+02  0.98886934808E+02  0.10953895908E+03  0.47000000000E+01 0.  1.
         -5    1    3    3    0  502  0.18322208417E+02 -0.69184064803E+02  0.39508832722E+03  0.40154578126E+03  0.47000000000E+01 0.  1.
        -11    1    1    2    0    0  0.40655053603E+01 -0.20163267198E+02  0.45608257516E+01  0.21068621442E+02  0.00000000000E+00 0.  1.
         11    1    1    2    0    0  0.11296198537E+02  0.56736571019E+02  0.17501282468E+03  0.18432615494E+03  0.00000000000E+00 0. -1.
<mgrwt>
<rscale>  0 0.12245057E+03</rscale>
<asrwt>0</asrwt>
<pdfrwt beam="1">  1        1 0.10692525E+00 0.13113372E+03</pdfrwt>
<pdfrwt beam="2">  1       -1 0.33023547E-02 0.13113372E+03</pdfrwt>
<totfact> 0.89244793E+03</totfact>
</mgrwt>
</event>
<event>
 7    1  0.5206756E-006  0.1864421E+03  0.7546771E-02  0.1166608E+00
         -2   -1    0    0    0  501 -0.00000000000E+00  0.00000000000E+00  0.16890182292E+02  0.16890182292E+02  0.00000000000E+00 0.  1.
          2   -1    0    0  501    0  0.00000000000E+00 -0.00000000000E+00 -0.20055998671E+04  0.20055998671E+04  0.00000000000E+00 0. -1.
         23    2    1    2    0    0 -0.13654586587E+03 -0.22109876405E+02 -0.13329484531E+04  0.13459242994E+04  0.12500808331E+03 0.  0.
          5    1    3    3  502    0  0.20589706608E+02 -0.10871245741E+02 -0.30965703461E+03  0.31056672243E+03  0.47000000000E+01 0.  1.
         -5    1    3    3    0  502 -0.15713557248E+03 -0.11238630664E+02 -0.10232914185E+04  0.10353575770E+04  0.47000000000E+01 0.  1.
        -11    1    1    2    0    0  0.10283014452E+03 -0.15941582728E+02 -0.54289722797E+03  0.55277985928E+03  0.00000000000E+00 0. -1.
         11    1    1    2    0    0  0.33715721349E+02  0.38051459133E+02 -0.11286400374E+03  0.12378589075E+03  0.00000000000E+00 0.  1.
<mgrwt>
<rscale>  0 0.18123997E+03</rscale>
<asrwt>0</asrwt>
<pdfrwt beam="2">  1        2 0.30855389E+00 0.18644206E+03</pdfrwt>
<pdfrwt beam="1">  1       -2 0.25984891E-02 0.18644206E+03</pdfrwt>
<totfact> 0.38690681E+03</totfact>
</mgrwt>
</event>
<event>
 7    1  0.5206756E-006  0.1265035E+03  0.7546771E-02  0.1244520E+00
         -1   -1    0    0    0  501 -0.00000000000E+00  0.00000000000E+00  0.30507224106E+02  0.30507224106E+02  0.00000000000E+00 0.  1.
          1   -1    0    0  501    0  0.00000000000E+00 -0.00000000000E+00 -0.42043940362E+03  0.42043940362E+03  0.00000000000E+00 0. -1.
         23    2    1    2    0    0  0.15680358855E+02 -0.11454044370E+02 -0.20361723722E+03  0.23971463736E+03  0.12500423706E+03 0.  0.
          5    1    3    3  502    0  0.32620070452E+02  0.44733906378E+02 -0.48329656286E+02  0.73641272754E+02  0.47000000000E+01 0. -1.
         -5    1    3    3    0  502 -0.16939711597E+02 -0.56187950748E+02 -0.15528758093E+03  0.16607336460E+03  0.47000000000E+01 0. -1.
        -11    1    1    2    0    0  0.14043358936E+02  0.39496311879E+02 -0.35350346948E+02  0.54834492900E+02  0.00000000000E+00 0.  1.
         11    1    1    2    0    0 -0.29723717791E+02 -0.28042267509E+02 -0.15096459534E+03  0.15639749746E+03  0.00000000000E+00 0. -1.
<mgrwt>
<rscale>  0 0.11914133E+03</rscale>
<asrwt>0</asrwt>
<pdfrwt beam="2">  1        1 0.64682984E-01 0.12650347E+03</pdfrwt>
<pdfrwt beam="1">  1       -1 0.46934192E-02 0.12650347E+03</pdfrwt>
<totfact> 0.10378159E+04</totfact>
</mgrwt>
</event>
<event>
 7    1  0.5206756E-006  0.2260236E+03  0.7546771E-02  0.1132916E+00
          2   -1    0    0  501    0  0.00000000000E+00  0.00000000000E+00  0.26863722002E+03  0.26863722002E+03  0.00000000000E+00 0. -1.
         -2   -1    0    0    0  501 -0.00000000000E+00 -0.00000000000E+00 -0.19265871044E+03  0.19265871044E+03  0.00000000000E+00 0.  1.
         23    2    1    2    0    0 -0.18833325073E+03 -0.68807223377E+00  0.10905744413E+03  0.25095852105E+03  0.12496706123E+03 0.  0.
          5    1    3    3  502    0 -0.16695542678E+03 -0.47704287825E+02  0.77113429040E+02  0.19004837423E+03  0.47000000000E+01 0.  1.
         -5    1    3    3    0  502 -0.21377823945E+02  0.47016215591E+02  0.31944015093E+02  0.60910146818E+02  0.47000000000E+01 0.  1.
        -11    1    1    2    0    0  0.52679520433E+02 -0.56283802596E+01  0.29690653738E+02  0.60731749989E+02  0.00000000000E+00 0. -1.
         11    1    1    2    0    0  0.13565373029E+03  0.63164524934E+01 -0.62769588292E+02  0.14960565942E+03  0.00000000000E+00 0.  1.
<mgrwt>
<rscale>  0 0.22130177E+03</rscale>
<asrwt>0</asrwt>
<pdfrwt beam="1">  1        2 0.41328803E-01 0.22602357E+03</pdfrwt>
<pdfrwt beam="2">  1       -2 0.29639802E-01 0.22602357E+03</pdfrwt>
<totfact> 0.12846184E+03</totfact>
</mgrwt>
</event>
<event>
 7    1  0.5206756E-006  0.1740900E+03  0.7546771E-02  0.1180502E+00
          2   -1    0    0  501    0  0.00000000000E+00  0.00000000000E+00  0.70611631992E+02  0.70611631992E+02  0.00000000000E+00 0. -1.
         -2   -1    0    0    0  501 -0.00000000000E+00 -0.00000000000E+00 -0.64259275385E+03  0.64259275385E+03  0.00000000000E+00 0.  1.
         23    2    1    2    0    0  0.11467681970E+03 -0.39138449037E+02 -0.66784118780E+02  0.18646027406E+03  0.12499889644E+03 0.  0.
          5    1    3    3  502    0  0.13825973892E+02 -0.53781205604E+02  0.12672929863E+02  0.57151279790E+02  0.47000000000E+01 0.  1.
         -5    1    3    3    0  502  0.10085084580E+03  0.14642756567E+02 -0.79457048643E+02  0.12930899427E+03  0.47000000000E+01 0.  1.
        -11    1    1    2    0    0 -0.26494508128E+02  0.46535724315E+02 -0.27413883255E+03  0.27931994578E+03  0.00000000000E+00 0.  1.
         11    1    1    2    0    0 -0.88182311569E+02 -0.73972752774E+01 -0.23105817053E+03  0.24742416600E+03  0.00000000000E+00 0. -1.
<mgrwt>
<rscale>  0 0.16747917E+03</rscale>
<asrwt>0</asrwt>
<pdfrwt beam="1">  1        2 0.10863328E-01 0.17408996E+03</pdfrwt>
<pdfrwt beam="2">  1       -2 0.98860427E-01 0.17408996E+03</pdfrwt>
<totfact> 0.50512475E+02</totfact>
</mgrwt>
</event>
<event>
 7    1  0.5206756E-006  0.1162245E+03  0.7546771E-02  0.1258377E+00
          1   -1    0    0  501    0  0.00000000000E+00  0.00000000000E+00  0.21360121938E+03  0.21360121938E+03  0.00000000000E+00 0. -1.
         -1   -1    0    0    0  501 -0.00000000000E+00 -0.00000000000E+00 -0.56341663860E+02  0.56341663860E+02  0.00000000000E+00 0.  1.
         23    2    1    2    0    0 -0.29272892719E+02  0.13955694030E+02  0.11595905839E+03  0.16417866432E+03  0.11160854337E+03 0.  0.
          5    1    3    3  502    0 -0.57754411471E+02 -0.15535743491E+02  0.10588501191E+03  0.12169904321E+03  0.47000000000E+01 0. -1.
         -5    1    3    3    0  502  0.28481518752E+02  0.29491437521E+02  0.10074046476E+02  0.42479621113E+02  0.47000000000E+01 0.  1.
        -11    1    1    2    0    0  0.74066274437E+01  0.67563381239E+01 -0.28248013870E+02  0.29974264337E+02  0.00000000000E+00 0.  1.
         11    1    1    2    0    0  0.21866265275E+02 -0.20712032154E+02  0.69548510998E+02  0.75789954579E+02  0.00000000000E+00 0. -1.
<mgrwt>
<rscale>  0 0.11119268E+03</rscale>
<asrwt>0</asrwt>
<pdfrwt beam="1">  1        1 0.32861726E-01 0.11622448E+03</pdfrwt>
<pdfrwt beam="2">  1       -1 0.86679484E-02 0.11622448E+03</pdfrwt>
<totfact> 0.95658656E+03</totfact>
</mgrwt>
</event>
<event>
 7    1  0.5206756E-006  0.1341691E+03  0.7546771E-02  0.1233544E+00
          2   -1    0    0  501    0  0.00000000000E+00  0.00000000000E+00  0.25931021766E+03  0.25931021766E+03  0.00000000000E+00 0. -1.
         -2   -1    0    0    0  501 -0.00000000000E+00 -0.00000000000E+00 -0.59896696809E+02  0.59896696809E+02  0.00000000000E+00 0.  1.
         23    2    1    2    0    0  0.32803324367E+02 -0.36037675694E+02  0.15725613939E+03  0.20671441622E+03  0.12500633718E+03 0.  0.
          5    1    3    3  502    0 -0.88770454008E+01 -0.73058737308E+02  0.62466899713E+02  0.96646699850E+02  0.47000000000E+01 0. -1.
         -5    1    3    3    0  502  0.41680369768E+02  0.37021061614E+02  0.94789239679E+02  0.11006771637E+03  0.47000000000E+01 0. -1.
        -11    1    1    2    0    0  0.30472549617E+02  0.18196194477E+02  0.22020849125E+01  0.35560187732E+02  0.00000000000E+00 0.  1.
         11    1    1    2    0    0 -0.63275873984E+02  0.17841481217E+02  0.39955296550E+02  0.76932310526E+02  0.00000000000E+00 0. -1.
<mgrwt>
<rscale>  0 0.12598089E+03</rscale>
<asrwt>0</asrwt>
<pdfrwt beam="1">  1        2 0.39893879E-01 0.13416913E+03</pdfrwt>
<pdfrwt beam="2">  1       -2 0.92148766E-02 0.13416913E+03</pdfrwt>
<totfact> 0.91632393E+03</totfact>
</mgrwt>
</event>
<event>
 7    1  0.5206756E-006  0.1814097E+03  0.7546771E-02  0.1171954E+00
          1   -1    0    0  501    0  0.00000000000E+00  0.00000000000E+00  0.44979153341E+02  0.44979153341E+02  0.00000000000E+00 0. -1.
         -1   -1    0    0    0  501 -0.00000000000E+00 -0.00000000000E+00 -0.66105567488E+03  0.66105567488E+03  0.00000000000E+00 0.  1.
         23    2    1    2    0    0 -0.11482548156E+03 -0.64023332914E+02 -0.27660463975E+03  0.33078634835E+03  0.12500241256E+03 0.  0.
          5    1    3    3  502    0 -0.64995665100E+02 -0.83180359138E+02 -0.24902099526E+03  0.27051239290E+03  0.47000000000E+01 0.  1.
         -5    1    3    3    0  502 -0.49829816461E+02  0.19157026225E+02 -0.27583644490E+02  0.60273955451E+02  0.47000000000E+01 0.  1.
        -11    1    1    2    0    0  0.15926984517E+02  0.56256900916E+02 -0.15733742637E+03  0.16784985395E+03  0.00000000000E+00 0.  1.
         11    1    1    2    0    0  0.98898497044E+02  0.77664319983E+01 -0.18213445542E+03  0.20739862592E+03  0.00000000000E+00 0. -1.
<mgrwt>
<rscale>  0 0.17577710E+03</rscale>
<asrwt>0</asrwt>
<pdfrwt beam="1">  1        1 0.69198702E-02 0.18140971E+03</pdfrwt>
<pdfrwt beam="2">  1       -1 0.10170087E+00 0.18140971E+03</pdfrwt>
<totfact> 0.10206623E+03</totfact>
</mgrwt>
</event>
<event>
 7    1  0.5206756E-006  0.1352561E+03  0.7546771E-02  0.1233233E+00
         -2   -1    0    0    0  501 -0.00000000000E+00  0.00000000000E+00  0.11654296586E+02  0.11654296586E+02  0.00000000000E+00 0.  1.
          2   -1    0    0  501    0  0.00000000000E+00 -0.00000000000E+00 -0.12642237189E+04  0.12642237189E+04  0.00000000000E+00 0. -1.
         23    2    1    2    0    0  0.48398869934E+02 -0.17973538533E+02 -0.83748488930E+03  0.84833670477E+03  0.12501490376E+03 0.  0.
          5    1    3    3  502    0  0.31511775766E+02 -0.23933654680E+02 -0.69384365604E+02  0.80013074110E+02  0.47000000000E+01 0.  1.
         -5    1    3    3    0  502  0.16887094169E+02  0.59601161472E+01 -0.76810052370E+03  0.76832363066E+03  0.47000000000E+01 0.  1.
        -11    1    1    2    0    0 -0.14088748911E+02  0.51229150754E+02 -0.18135476706E+03  0.18897743322E+03  0.00000000000E+00 0.  1.
         11    1    1    2    0    0 -0.34310121023E+02 -0.33255612221E+02 -0.23372976598E+03  0.23856387751E+03  0.00000000000E+00 0. -1.
<mgrwt>
<rscale>  0 0.12618212E+03</rscale>
<asrwt>0</asrwt>
<pdfrwt beam="2">  1        2 0.19449607E+00 0.13525615E+03</pdfrwt>
<pdfrwt beam="1">  1       -2 0.17929677E-02 0.13525615E+03</pdfrwt>
<totfact> 0.16064624E+04</totfact>
</mgrwt>
</event>
<event>
 7    1  0.5206756E-006  0.1665550E+03  0.7546771E-02  0.1185989E+00
         -3   -1    0    0    0  501 -0.00000000000E+00  0.00000000000E+00  0.63228609346E+03  0.63228609346E+03  0.00000000000E+00 0.  1.
          3   -1    0    0  501    0  0.00000000000E+00 -0.00000000000E+00 -0.42778763789E+02  0.42778763789E+02  0.00000000000E+00 0. -1.
         23    2    1    2    0    0  0.10111944544E+03 -0.65503024552E+02  0.21923511858E+03  0.27532636129E+03  0.11499904145E+03 0.  0.
          5    1    3    3  502    0 -0.12968731793E+02 -0.50616190940E+01  0.94865213057E+02  0.95996388684E+02  0.47000000000E+01 0. -1.
         -5    1    3    3    0  502  0.11408817723E+03 -0.60441405458E+02  0.12436990552E+03  0.17932997261E+03  0.47000000000E+01 0.  1.
        -11    1    1    2    0    0  0.11121873290E+02  0.30524294455E+02  0.95392823231E+02  0.10077310823E+03  0.00000000000E+00 0.  1.
         11    1    1    2    0    0 -0.11224131873E+03  0.34978730097E+02  0.27487938786E+03  0.29896538773E+03  0.00000000000E+00 0. -1.
<mgrwt>
<rscale>  0 0.16242244E+03</rscale>
<asrwt>0</asrwt>
<pdfrwt beam="2">  1        3 0.65813487E-02 0.16655500E+03</pdfrwt>
<pdfrwt beam="1">  1       -3 0.97274777E-01 0.16655500E+03</pdfrwt>
<totfact> 0.33779022E+02</totfact>
</mgrwt>
</event>
<event>
 7    1  0.5206756E-006  0.1598020E+03  0.7546771E-02  0.1196776E+00
         -2   -1    0    0    0  501 -0.00000000000E+00  0.00000000000E+00  0.32556270586E+02  0.32556270586E+02  0.00000000000E+00 0.  1.
          2   -1    0    0  501    0  0.00000000000E+00 -0.00000000000E+00 -0.90674512464E+03  0.90674512464E+03  0.00000000000E+00 0. -1.
         23    2    1    2    0    0 -0.85902536037E+02  0.50337293277E+02 -0.70659401391E+03  0.72443893259E+03  0.12499431092E+03 0.  0.
          5    1    3    3  502    0 -0.57931674618E+02  0.90928593171E+02 -0.53829662365E+03  0.54900768029E+03  0.47000000000E+01 0.  1.
         -5    1    3    3    0  502 -0.27970861419E+02 -0.40591299894E+02 -0.16829739026E+03  0.17543125230E+03  0.47000000000E+01 0.  1.
        -11    1    1    2    0    0  0.10263185838E+03 -0.29718760375E+02 -0.14421815539E+03  0.17948643240E+03  0.00000000000E+00 0.  1.
         11    1    1    2    0    0 -0.16729322344E+02 -0.20618532902E+02 -0.23376684759E+02  0.35376030239E+02  0.00000000000E+00 0. -1.
<mgrwt>
<rscale>  0 0.15304880E+03</rscale>
<asrwt>0</asrwt>
<pdfrwt beam="2">  1        2 0.13949923E+00 0.15980196E+03</pdfrwt>
<pdfrwt beam="1">  1       -2 0.50086577E-02 0.15980196E+03</pdfrwt>
<totfact> 0.57473251E+03</totfact>
</mgrwt>
</event>
<event>
 7    1  0.5206756E-006  0.1457899E+03  0.7546771E-02  0.1214722E+00
         -1   -1    0    0    0  501 -0.00000000000E+00  0.00000000000E+00  0.22258639199E+03  0.22258639199E+03  0.00000000000E+00 0.  1.
          1   -1    0    0  501    0  0.00000000000E+00 -0.00000000000E+00 -0.82462056992E+02  0.82462056992E+02  0.00000000000E+00 0. -1.
         23    2    1    2    0    0 -0.74853527478E+02  0.49196967658E+01  0.48047988249E+02  0.15350347250E+03  0.12500981123E+03 0.  0.
          5    1    3    3  502    0  0.26462106125E+02 -0.27823858717E+02  0.18642427976E+02  0.42942290289E+02  0.47000000000E+01 0.  1.
         -5    1    3    3    0  502 -0.10131563360E+03  0.32743555482E+02  0.29405560273E+02  0.11056118222E+03  0.47000000000E+01 0.  1.
        -11    1    1    2    0    0  0.54427710838E+02  0.40004722567E+02  0.70646609196E+02  0.97743014715E+02  0.00000000000E+00 0.  1.
         11    1    1    2    0    0  0.20425816640E+02 -0.44924419332E+02  0.21429737550E+02  0.53801961760E+02  0.00000000000E+00 0. -1.
<mgrwt>
<rscale>  0 0.13897001E+03</rscale>
<asrwt>0</asrwt>
<pdfrwt beam="2">  1        1 0.12686470E-01 0.14578994E+03</pdfrwt>
<pdfrwt beam="1">  1       -1 0.34244060E-01 0.14578994E+03</pdfrwt>
<totfact> 0.36498075E+03</totfact>
</mgrwt>
</event>
<event>
 7    1  0.5206756E-006  0.1340398E+03  0.7546771E-02  0.1235557E+00
         -2   -1    0    0    0  501 -0.00000000000E+00  0.00000000000E+00  0.63658516074E+02  0.63658516074E+02  0.00000000000E+00 0.  1.
          2   -1    0    0  501    0  0.00000000000E+00 -0.00000000000E+00 -0.21739193838E+03  0.21739193838E+03  0.00000000000E+00 0. -1.
         23    2    1    2    0    0 -0.20768538629E+01  0.48340722568E+02 -0.99764732753E+02  0.16709183129E+03  0.12500215759E+03 0.  0.
          5    1    3    3  502    0  0.55202797632E+02 -0.49518594585E+01 -0.39450422114E+02  0.68193075774E+02  0.47000000000E+01 0.  1.
         -5    1    3    3    0  502 -0.57279651495E+02  0.53292582027E+02 -0.60314310639E+02  0.98898755515E+02  0.47000000000E+01 0.  1.
        -11    1    1    2    0    0  0.18303660754E+02 -0.28441652763E+02  0.17454273468E+02  0.38060521163E+02  0.00000000000E+00 0.  1.
         11    1    1    2    0    0 -0.16226806891E+02 -0.19899069805E+02 -0.71422963020E+02  0.75898102002E+02  0.00000000000E+00 0. -1.
<mgrwt>
<rscale>  0 0.12468821E+03</rscale>
<asrwt>0</asrwt>
<pdfrwt beam="2">  1        2 0.33444914E-01 0.13403984E+03</pdfrwt>
<pdfrwt beam="1">  1       -2 0.97936178E-02 0.13403984E+03</pdfrwt>
<totfact> 0.10056329E+04</totfact>
</mgrwt>
</event>
<event>
 7    1  0.5206756E-006  0.1259332E+03  0.7546771E-02  0.1249643E+00
          1   -1    0    0  501    0  0.00000000000E+00  0.00000000000E+00  0.17057536455E+04  0.17057536455E+04  0.00000000000E+00 0. -1.
         -1   -1    0    0    0  501 -0.00000000000E+00 -0.00000000000E+00 -0.99516664827E+01  0.99516664827E+01  0.00000000000E+00 0.  1.
         23    2    1    2    0    0  0.79218031836E+01  0.13075244069E+02  0.14133172042E+04  0.14189167294E+04  0.12500179403E+03 0.  0.
          5    1    3    3  502    0  0.49744959562E+02  0.35821432296E+02  0.42298348433E+03  0.42742818582E+03  0.47000000000E+01 0.  1.
         -5    1    3    3    0  502 -0.41823156378E+02 -0.22746188227E+02  0.99033371983E+03  0.99148854361E+03  0.47000000000E+01 0.  1.
        -11    1    1    2    0    0  0.29503210173E+02  0.24024601008E+02  0.10707550870E+03  0.11363443769E+03  0.00000000000E+00 0.  1.
         11    1    1    2    0    0 -0.37425013357E+02 -0.37099845077E+02  0.17540926619E+03  0.18315414490E+03  0.00000000000E+00 0. -1.
<mgrwt>
<rscale>  0 0.11611733E+03</rscale>
<asrwt>0</asrwt>
<pdfrwt beam="1">  1        1 0.26242341E+00 0.12593318E+03</pdfrwt>
<pdfrwt beam="2">  1       -1 0.15310270E-02 0.12593318E+03</pdfrwt>
<totfact> 0.52191973E+03</totfact>
</mgrwt>
</event>
<event>
 6    1  0.5206756E-006  0.4689091E+03  0.7546771E-02  0.1037152E+00
          2   -1    0    0  501    0  0.00000000000E+00  0.00000000000E+00  0.14729909499E+04  0.14729909499E+04  0.00000000000E+00 0. -1.
         -2   -1    0    0    0  501 -0.00000000000E+00 -0.00000000000E+00 -0.10340150463E+03  0.10340150463E+03  0.00000000000E+00 0.  1.
          5    1    1    2  502    0 -0.68843501426E+02 -0.75427099416E+02  0.29448455999E+03  0.31172411053E+03  0.47000000000E+01 0. -1.
         -5    1    1    2    0  502  0.35567045647E+03  0.54918492755E+02  0.66185688632E+03  0.75338844060E+03  0.47000000000E+01 0.  1.
        -11    1    1    2    0    0 -0.17132511906E+03 -0.29264089021E+02  0.21445997129E+03  0.27604666746E+03  0.00000000000E+00 0.  1.
         11    1    1    2    0    0 -0.11550183598E+03  0.49772695681E+02  0.19878802771E+03  0.23523323598E+03  0.00000000000E+00 0. -1.
<mgrwt>
<rscale>  0 0.41973720E+03</rscale>
<asrwt>0</asrwt>
<pdfrwt beam="1">  1        2 0.22661398E+00 0.46890914E+03</pdfrwt>
<pdfrwt beam="2">  1       -2 0.15907925E-01 0.46890914E+03</pdfrwt>
<totfact> 0.43039452E+02</totfact>
</mgrwt>
</event>
<event>
 7    1  0.5206756E-006  0.1508672E+03  0.7546771E-02  0.1208180E+00
          2   -1    0    0  501    0  0.00000000000E+00  0.00000000000E+00  0.11108279280E+03  0.11108279280E+03  0.00000000000E+00 0.  1.
         -2   -1    0    0    0  501 -0.00000000000E+00 -0.00000000000E+00 -0.17410518390E+03  0.17410518390E+03  0.00000000000E+00 0. -1.
         23    2    1    2    0    0 -0.14972227837E+02 -0.83132722490E+02 -0.15778711909E+02  0.15169010445E+03  0.12500281150E+03 0.  0.
          5    1    3    3  502    0  0.53530682526E+02 -0.52790476825E+02 -0.19272273303E+01  0.75353650345E+02  0.47000000000E+01 0. -1.
         -5    1    3    3    0  502 -0.68502910363E+02 -0.30342245666E+02 -0.13851484579E+02  0.76336454105E+02  0.47000000000E+01 0. -1.
        -11    1    1    2    0    0  0.23992404069E+02  0.59317413072E+02  0.15453982550E+02  0.65825652471E+02  0.00000000000E+00 0.  1.
         11    1    1    2    0    0 -0.90201762320E+01  0.23815309418E+02 -0.62697661743E+02  0.67672219781E+02  0.00000000000E+00 0. -1.
<mgrwt>
<rscale>  0 0.14389674E+03</rscale>
<asrwt>0</asrwt>
<pdfrwt beam="1">  1        2 0.17089660E-01 0.15086723E+03</pdfrwt>
<pdfrwt beam="2">  1       -2 0.26785413E-01 0.15086723E+03</pdfrwt>
<totfact> 0.40393010E+03</totfact>
</mgrwt>
</event>
<event>
 7    1  0.5206756E-006  0.1878617E+03  0.7546771E-02  0.1165429E+00
         -2   -1    0    0    0  501 -0.00000000000E+00  0.00000000000E+00  0.36774667402E+02  0.36774667402E+02  0.00000000000E+00 0.  1.
          2   -1    0    0  501    0  0.00000000000E+00 -0.00000000000E+00 -0.86985886911E+03  0.86985886911E+03  0.00000000000E+00 0. -1.
         23    2    1    2    0    0  0.47715903976E+02 -0.13187103992E+03 -0.49507715815E+03  0.52952185265E+03  0.12500088500E+03 0.  0.
          5    1    3    3  502    0 -0.12896933634E+02 -0.11239686442E+03 -0.22355180250E+03  0.25059306541E+03  0.47000000000E+01 0.  1.
         -5    1    3    3    0  502  0.60612837610E+02 -0.19474175503E+02 -0.27152535564E+03  0.27892878724E+03  0.47000000000E+01 0.  1.
        -11    1    1    2    0    0  0.65441371353E+01  0.31386776092E+02 -0.16775854144E+02  0.36185421464E+02  0.00000000000E+00 0.  1.
         11    1    1    2    0    0 -0.54260041112E+02  0.10048426383E+03 -0.32123118942E+03  0.34092626240E+03  0.00000000000E+00 0. -1.
<mgrwt>
<rscale>  0 0.18247543E+03</rscale>
<asrwt>0</asrwt>
<pdfrwt beam="2">  1        2 0.13382445E+00 0.18786165E+03</pdfrwt>
<pdfrwt beam="1">  1       -2 0.56576408E-02 0.18786165E+03</pdfrwt>
<totfact> 0.50768074E+03</totfact>
</mgrwt>
</event>
<event>
 7    1  0.5206756E-006  0.1362470E+03  0.7546771E-02  0.1231843E+00
         -1   -1    0    0    0  501 -0.00000000000E+00  0.00000000000E+00  0.20267790423E+03  0.20267790423E+03  0.00000000000E+00 0.  1.
          1   -1    0    0  501    0  0.00000000000E+00 -0.00000000000E+00 -0.71641880928E+02  0.71641880928E+02  0.00000000000E+00 0. -1.
         23    2    1    2    0    0  0.51947245600E+02 -0.15545922445E+02  0.58765751486E+02  0.14838014037E+03  0.12499224167E+03 0.  0.
          5    1    3    3  502    0  0.18547378761E+02 -0.69206009237E+02  0.21946408676E+02  0.75081368042E+02  0.47000000000E+01 0. -1.
         -5    1    3    3    0  502  0.33399866839E+02  0.53660086792E+02  0.36819342811E+02  0.73298772325E+02  0.47000000000E+01 0. -1.
        -11    1    1    2    0    0  0.21933134976E+02 -0.10976985444E+02  0.14702546164E+02  0.28595829818E+02  0.00000000000E+00 0.  1.
         11    1    1    2    0    0 -0.73880380575E+02  0.26522907888E+02  0.57567725655E+02  0.97343814975E+02  0.00000000000E+00 0. -1.
<mgrwt>
<rscale>  0 0.12708719E+03</rscale>
<asrwt>0</asrwt>
<pdfrwt beam="2">  1        1 0.11021828E-01 0.13624703E+03</pdfrwt>
<pdfrwt beam="1">  1       -1 0.31181216E-01 0.13624703E+03</pdfrwt>
<totfact> 0.51290487E+03</totfact>
</mgrwt>
</event>
<event>
 6    1  0.5206756E-006  0.1627564E+03  0.7546771E-02  0.1195741E+00
          1   -1    0    0  501    0  0.00000000000E+00  0.00000000000E+00  0.73183497213E+03  0.73183497213E+03  0.00000000000E+00 0. -1.
         -1   -1    0    0    0  501 -0.00000000000E+00 -0.00000000000E+00 -0.39371997806E+02  0.39371997806E+02  0.00000000000E+00 0.  1.
          5    1    1    2  502    0 -0.45549414366E+02  0.30442395582E+02  0.37933559825E+03  0.38330024094E+03  0.47000000000E+01 0.  1.
         -5    1    1    2    0  502 -0.30875174783E+02 -0.80811299438E+02  0.18957276040E+03  0.20843143722E+03  0.47000000000E+01 0.  1.
        -11    1    1    2    0    0  0.33401835836E+02 -0.37699893426E+01 -0.45277664487E+01  0.33917489970E+02  0.00000000000E+00 0.  1.
         11    1    1    2    0    0  0.43022753312E+02  0.54138893199E+02  0.12808238212E+03  0.14555780181E+03  0.00000000000E+00 0. -1.
<mgrwt>
<rscale>  0 0.15391675E+03</rscale>
<asrwt>0</asrwt>
<pdfrwt beam="1">  1        1 0.11258999E+00 0.16275644E+03</pdfrwt>
<pdfrwt beam="2">  1       -1 0.60572310E-02 0.16275644E+03</pdfrwt>
<totfact> 0.34168277E+03</totfact>
</mgrwt>
</event>
<event>
 7    1  0.5206756E-006  0.1719373E+03  0.7546771E-02  0.1182266E+00
          2   -1    0    0  501    0  0.00000000000E+00  0.00000000000E+00  0.93668799086E+03  0.93668799086E+03  0.00000000000E+00 0. -1.
         -2   -1    0    0    0  501 -0.00000000000E+00 -0.00000000000E+00 -0.27495559275E+02  0.27495559275E+02  0.00000000000E+00 0.  1.
         23    2    1    2    0    0 -0.57440141409E+02  0.10313805790E+03  0.46863997683E+03  0.49918519564E+03  0.12500241129E+03 0.  0.
          5    1    3    3  502    0 -0.31732738699E+02  0.13031053009E+03  0.36156862083E+03  0.38567053106E+03  0.47000000000E+01 0. -1.
         -5    1    3    3    0  502 -0.25707402710E+02 -0.27172472191E+02  0.10707135601E+03  0.11351466459E+03  0.47000000000E+01 0. -1.
        -11    1    1    2    0    0 -0.10667982289E+02 -0.54984185543E+02  0.10247061534E+03  0.11677882305E+03  0.00000000000E+00 0.  1.
         11    1    1    2    0    0  0.68108123697E+02 -0.48153872353E+02  0.33808183942E+03  0.34821953145E+03  0.00000000000E+00 0. -1.
<mgrwt>
<rscale>  0 0.16583165E+03</rscale>
<asrwt>0</asrwt>
<pdfrwt beam="1">  1        2 0.14410582E+00 0.17193729E+03</pdfrwt>
<pdfrwt beam="2">  1       -2 0.42300868E-02 0.17193729E+03</pdfrwt>
<totfact> 0.71162825E+03</totfact>
</mgrwt>
</event>
<event>
 7    1  0.5206756E-006  0.1605762E+03  0.7546771E-02  0.1195668E+00
         -2   -1    0    0    0  501 -0.00000000000E+00  0.00000000000E+00  0.27622596345E+02  0.27622596345E+02  0.00000000000E+00 0.  1.
          2   -1    0    0  501    0  0.00000000000E+00 -0.00000000000E+00 -0.80079151753E+03  0.80079151753E+03  0.00000000000E+00 0. -1.
         23    2    1    2    0    0  0.28831885449E+02 -0.96584986952E+02 -0.45439206105E+03  0.48193035625E+03  0.12499914324E+03 0.  0.
          5    1    3    3  502    0 -0.84935821475E+01  0.17056199245E+02 -0.10656376120E+02  0.22331664120E+02  0.47000000000E+01 0.  1.
         -5    1    3    3    0  502  0.37325467596E+02 -0.11364118620E+03 -0.44373568493E+03  0.45959869213E+03  0.47000000000E+01 0.  1.
        -11    1    1    2    0    0 -0.26737072165E+02  0.73521836028E+00 -0.22085743534E+02  0.34687052937E+02  0.00000000000E+00 0.  1.
         11    1    1    2    0    0 -0.20948132835E+01  0.95849768592E+02 -0.29669111661E+03  0.31179670469E+03  0.00000000000E+00 0. -1.
<mgrwt>
<rscale>  0 0.15397790E+03</rscale>
<asrwt>0</asrwt>
<pdfrwt beam="2">  1        2 0.12319869E+00 0.16057622E+03</pdfrwt>
<pdfrwt beam="1">  1       -2 0.42496304E-02 0.16057622E+03</pdfrwt>
<totfact> 0.86323348E+03</totfact>
</mgrwt>
</event>
<event>
 7    1  0.5206756E-006  0.1691831E+03  0.7546771E-02  0.1185526E+00
         -2   -1    0    0    0  501 -0.00000000000E+00  0.00000000000E+00  0.11500670029E+03  0.11500670029E+03  0.00000000000E+00 0.  1.
          2   -1    0    0  501    0  0.00000000000E+00 -0.00000000000E+00 -0.24842333010E+03  0.24842333010E+03  0.00000000000E+00 0. -1.
         23    2    1    2    0    0 -0.47449573274E+02  0.10367610800E+03 -0.13773385899E+03  0.21815939891E+03  0.12499083986E+03 0.  0.
          5    1    3    3  502    0  0.41924092973E+02  0.20329037676E+02 -0.40692340075E+02  0.62039148005E+02  0.47000000000E+01 0.  1.
         -5    1    3    3    0  502 -0.89373666248E+02  0.83347070320E+02 -0.97041518918E+02  0.15612025091E+03  0.47000000000E+01 0.  1.
        -11    1    1    2    0    0 -0.27045822566E+02 -0.26572256707E+02  0.32283504304E+01  0.38052379575E+02  0.00000000000E+00 0.  1.
         11    1    1    2    0    0  0.74495395841E+02 -0.77103851289E+02  0.10888787577E+01  0.10721825191E+03  0.00000000000E+00 0. -1.
<mgrwt>
<rscale>  0 0.16284114E+03</rscale>
<asrwt>0</asrwt>
<pdfrwt beam="2">  1        2 0.38218974E-01 0.16918306E+03</pdfrwt>
<pdfrwt beam="1">  1       -2 0.17693339E-01 0.16918306E+03</pdfrwt>
<totfact> 0.33963888E+03</totfact>
</mgrwt>
</event>
<event>
 7    1  0.5206756E-006  0.1278218E+03  0.7546771E-02  0.1244450E+00
         -1   -1    0    0    0  501 -0.00000000000E+00  0.00000000000E+00  0.47918450228E+02  0.47918450228E+02  0.00000000000E+00 0.  1.
          1   -1    0    0  501    0  0.00000000000E+00 -0.00000000000E+00 -0.27346986279E+03  0.27346986279E+03  0.00000000000E+00 0. -1.
         23    2    1    2    0    0  0.26824863563E+02  0.25622665470E+00 -0.15928212130E+03  0.20422835024E+03  0.12497514120E+03 0.  0.
          5    1    3    3  502    0  0.65196380882E+01 -0.42440714742E+02 -0.14963725493E+03  0.15574696790E+03  0.47000000000E+01 0. -1.
         -5    1    3    3    0  502  0.20305225475E+02  0.42696941397E+02 -0.96448663755E+01  0.48481382340E+02  0.47000000000E+01 0. -1.
        -11    1    1    2    0    0 -0.42430651202E+02  0.19199759383E+02 -0.23566281534E+00  0.46573022865E+02  0.00000000000E+00 0.  1.
         11    1    1    2    0    0  0.15605787639E+02 -0.19455986038E+02 -0.66033628449E+02  0.70586939916E+02  0.00000000000E+00 0. -1.
<mgrwt>
<rscale>  0 0.11918378E+03</rscale>
<asrwt>0</asrwt>
<pdfrwt beam="2">  1        1 0.42072286E-01 0.12782185E+03</pdfrwt>
<pdfrwt beam="1">  1       -1 0.73720693E-02 0.12782185E+03</pdfrwt>
<totfact> 0.90662994E+03</totfact>
</mgrwt>
</event>
<event>
 6    1  0.5206756E-006  0.4081399E+03  0.7546771E-02  0.1084431E+00
         -2   -1    0    0    0  501 -0.00000000000E+00  0.00000000000E+00  0.10414227836E+03  0.10414227836E+03  0.00000000000E+00 0.  1.
          2   -1    0    0  501    0  0.00000000000E+00 -0.00000000000E+00 -0.96984178730E+03  0.96984178730E+03  0.00000000000E+00 0. -1.
          5    1    1    2  502    0  0.15495367101E+03  0.87646036062E+01 -0.52612096312E+03  0.54855520804E+03  0.47000000000E+01 0. -1.
         -5    1    1    2    0  502 -0.22084380747E+03 -0.49573627753E+02 -0.33408319571E+03  0.40356313450E+03  0.47000000000E+01 0.  1.
        -11    1    1    2    0    0  0.83755157804E+02  0.20318666365E+02  0.15436467310E+02  0.87556034542E+02  0.00000000000E+00 0.  1.
         11    1    1    2    0    0 -0.17865021338E+02  0.20490357781E+02 -0.20931817414E+02  0.34309688569E+02  0.00000000000E+00 0. -1.
<mgrwt>
<rscale>  0 0.30162452E+03</rscale>
<asrwt>0</asrwt>
<pdfrwt beam="2">  1        2 0.14920643E+00 0.40813986E+03</pdfrwt>
<pdfrwt beam="1">  1       -2 0.16021889E-01 0.40813986E+03</pdfrwt>
<totfact> 0.83785637E+02</totfact>
</mgrwt>
</event>
<event>
 7    1  0.5206756E-006  0.2357739E+03  0.7546771E-02  0.1125604E+00
          1   -1    0    0  501    0  0.00000000000E+00  0.00000000000E+00  0.10207052373E+03  0.10207052373E+03  0.00000000000E+00 0. -1.
         -1   -1    0    0    0  501 -0.00000000000E+00 -0.00000000000E+00 -0.50672094868E+03  0.50672094868E+03  0.00000000000E+00 0.  1.
         23    2    1    2    0    0  0.17668234404E+03 -0.93533142477E+02 -0.20678093587E+03  0.31360434146E+03  0.12499691239E+03 0.  0.
          5    1    3    3  502    0  0.87886849951E+02 -0.48016517896E+02 -0.20651187670E+02  0.10236330367E+03  0.47000000000E+01 0. -1.
         -5    1    3    3    0  502  0.88795494090E+02 -0.45516624581E+02 -0.18612974820E+03  0.21124103780E+03  0.47000000000E+01 0. -1.
        -11    1    1    2    0    0 -0.14395891832E+03  0.38230519391E+02 -0.16739321833E+03  0.22406747269E+03  0.00000000000E+00 0.  1.
         11    1    1    2    0    0 -0.32723425721E+02  0.55302623086E+02 -0.30476270754E+02  0.71119658254E+02  0.00000000000E+00 0. -1.
<mgrwt>
<rscale>  0 0.23147699E+03</rscale>
<asrwt>0</asrwt>
<pdfrwt beam="1">  1        1 0.15703157E-01 0.23577389E+03</pdfrwt>
<pdfrwt beam="2">  1       -1 0.77957070E-01 0.23577389E+03</pdfrwt>
<totfact> 0.60432402E+02</totfact>
</mgrwt>
</event>
<event>
 6    1  0.5206756E-006  0.2796328E+03  0.7546771E-02  0.1114015E+00
         -2   -1    0    0    0  501 -0.00000000000E+00  0.00000000000E+00  0.21546051824E+03  0.21546051824E+03  0.00000000000E+00 0.  1.
          2   -1    0    0  501    0  0.00000000000E+00 -0.00000000000E+00 -0.41179227653E+03  0.41179227653E+03  0.00000000000E+00 0. -1.
          5    1    1    2  502    0  0.32748730729E+02  0.72627913799E+02 -0.30797474491E+03  0.31814749210E+03  0.47000000000E+01 0. -1.
         -5    1    1    2    0  502 -0.72906623095E+02  0.67857208822E+02 -0.25699066798E+01  0.99743024320E+02  0.47000000000E+01 0.  1.
        -11    1    1    2    0    0  0.64359596007E+02 -0.49298238140E+02  0.50287555841E+02  0.95400797451E+02  0.00000000000E+00 0. -1.
         11    1    1    2    0    0 -0.24201703641E+02 -0.91186884481E+02  0.63925337461E+02  0.11396148090E+03  0.00000000000E+00 0.  1.
<mgrwt>
<rscale>  0 0.24887927E+03</rscale>
<asrwt>0</asrwt>
<pdfrwt beam="2">  1        2 0.63352657E-01 0.27963280E+03</pdfrwt>
<pdfrwt beam="1">  1       -2 0.33147773E-01 0.27963280E+03</pdfrwt>
<totfact> 0.65995489E+02</totfact>
</mgrwt>
</event>
<event>
 7    1  0.5206756E-006  0.1266208E+03  0.7546771E-02  0.1247483E+00
          1   -1    0    0  501    0  0.00000000000E+00  0.00000000000E+00  0.33137655887E+02  0.33137655887E+02  0.00000000000E+00 0. -1.
         -1   -1    0    0    0  501 -0.00000000000E+00 -0.00000000000E+00 -0.48326571668E+03  0.48326571668E+03  0.00000000000E+00 0.  1.
         23    2    1    2    0    0  0.18872444864E+02  0.69941611487E+01 -0.12434992651E+03  0.17747036580E+03  0.12501095573E+03 0.  0.
          5    1    3    3  502    0  0.48493812932E+02 -0.44325001028E+02 -0.78029093309E+02  0.10211260946E+03  0.47000000000E+01 0. -1.
         -5    1    3    3    0  502 -0.29621368068E+02  0.51319162176E+02 -0.46320833198E+02  0.75357756342E+02  0.47000000000E+01 0. -1.
        -11    1    1    2    0    0 -0.44287421503E+02  0.26318802922E+02 -0.18710328744E+03  0.19406621360E+03  0.00000000000E+00 0. -1.
         11    1    1    2    0    0  0.25414976639E+02 -0.33312964071E+02 -0.13867484684E+03  0.14486679316E+03  0.00000000000E+00 0.  1.
<mgrwt>
<rscale>  0 0.11737990E+03</rscale>
<asrwt>0</asrwt>
<pdfrwt beam="1">  1        1 0.50981014E-02 0.12662080E+03</pdfrwt>
<pdfrwt beam="2">  1       -1 0.74348564E-01 0.12662080E+03</pdfrwt>
<totfact> 0.29519613E+03</totfact>
</mgrwt>
</event>
<event>
 6    1  0.5206756E-006  0.1325572E+03  0.7546771E-02  0.1238430E+00
          2   -1    0    0  501    0  0.00000000000E+00  0.00000000000E+00  0.13230103050E+03  0.13230103050E+03  0.00000000000E+00 0. -1.
         -2   -1    0    0    0  501 -0.00000000000E+00 -0.00000000000E+00 -0.13034460045E+03  0.13034460045E+03  0.00000000000E+00 0.  1.
          5    1    1    2  502    0 -0.21785736161E+02  0.29140224939E+02  0.86649835238E+02  0.94095987993E+02  0.47000000000E+01 0. -1.
         -5    1    1    2    0  502 -0.60156909526E+01 -0.46990131349E+02 -0.23091596521E+02  0.52910989517E+02  0.47000000000E+01 0.  1.
        -11    1    1    2    0    0 -0.12598148883E+02  0.33771943022E+02 -0.62563349552E+02  0.72204087128E+02  0.00000000000E+00 0.  1.
         11    1    1    2    0    0  0.40399575996E+02 -0.15922036613E+02  0.96154088282E+00  0.43434566321E+02  0.00000000000E+00 0. -1.
<mgrwt>
<rscale>  0 0.12287372E+03</rscale>
<asrwt>0</asrwt>
<pdfrwt beam="1">  1        2 0.20354005E-01 0.13255716E+03</pdfrwt>
<pdfrwt beam="2">  1       -2 0.20053015E-01 0.13255716E+03</pdfrwt>
<totfact> 0.54143456E+03</totfact>
</mgrwt>
</event>
<event>
 7    1  0.5206756E-006  0.1419312E+03  0.7546771E-02  0.1216008E+00
          3   -1    0    0  501    0  0.00000000000E+00  0.00000000000E+00  0.13654552731E+03  0.13654552731E+03  0.00000000000E+00 0. -1.
         -3   -1    0    0    0  501 -0.00000000000E+00 -0.00000000000E+00 -0.13609550997E+03  0.13609550997E+03  0.00000000000E+00 0.  1.
         23    2    1    2    0    0 -0.10543165429E+02  0.88549006002E+02  0.22770167580E+02  0.14374612407E+03  0.11041912358E+03 0.  0.
          5    1    3    3  502    0  0.36392215668E+02  0.71192009644E+02  0.41378764208E+02  0.90149807131E+02  0.47000000000E+01 0. -1.
         -5    1    3    3    0  502 -0.46935381096E+02  0.17356996358E+02 -0.18608596628E+02  0.53596316942E+02  0.47000000000E+01 0.  1.
        -11    1    1    2    0    0  0.32102952223E+02 -0.93536370410E+02 -0.20929193910E+01  0.98914268144E+02  0.00000000000E+00 0.  1.
         11    1    1    2    0    0 -0.21559786794E+02  0.49873644083E+01 -0.20227230850E+02  0.29980645060E+02  0.00000000000E+00 0. -1.
<mgrwt>
<rscale>  0 0.13802718E+03</rscale>
<asrwt>0</asrwt>
<pdfrwt beam="1">  1        3 0.21007004E-01 0.14193121E+03</pdfrwt>
<pdfrwt beam="2">  1       -3 0.20937771E-01 0.14193121E+03</pdfrwt>
<totfact> 0.98761200E+02</totfact>
</mgrwt>
</event>
<event>
 7    1  0.5206756E-006  0.1293206E+03  0.7546771E-02  0.1252001E+00
         -2   -1    0    0    0  501 -0.00000000000E+00  0.00000000000E+00  0.70370363361E+01  0.70370363361E+01  0.00000000000E+00 0. -1.
          2   -1    0    0  501    0  0.00000000000E+00 -0.00000000000E+00 -0.17083514597E+04  0.17083514597E+04  0.00000000000E+00 0.  1.
         23    2    1    2    0    0  0.28998895289E+02  0.16140652406E+02 -0.12794594112E+04  0.12859783041E+04  0.12498942854E+03 0.  0.
          5    1    3    3  502    0  0.49414195888E+02 -0.42495186775E+02 -0.55050573143E+03  0.55437014168E+03  0.47000000000E+01 0. -1.
         -5    1    3    3    0  502 -0.20415300599E+02  0.58635839181E+02 -0.72895367973E+03  0.73160816243E+03  0.47000000000E+01 0. -1.
        -11    1    1    2    0    0  0.24740564678E+02 -0.67153046160E+01 -0.13580620222E+03  0.13820461432E+03  0.00000000000E+00 0.  1.
         11    1    1    2    0    0 -0.53739459967E+02 -0.94253477901E+01 -0.28604880999E+03  0.29120557761E+03  0.00000000000E+00 0. -1.
<mgrwt>
<rscale>  0 0.11475971E+03</rscale>
<asrwt>0</asrwt>
<pdfrwt beam="2">  1        2 0.26282311E+00 0.12932059E+03</pdfrwt>
<pdfrwt beam="1">  1       -2 0.10826218E-02 0.12932059E+03</pdfrwt>
<totfact> 0.19392661E+04</totfact>
</mgrwt>
</event>
<event>
 7    1  0.5206756E-006  0.1569942E+03  0.7546771E-02  0.1200382E+00
         -2   -1    0    0    0  501 -0.00000000000E+00  0.00000000000E+00  0.12238147305E+02  0.12238147305E+02  0.00000000000E+00 0.  1.
          2   -1    0    0  501    0  0.00000000000E+00 -0.00000000000E+00 -0.24037727865E+04  0.24037727865E+04  0.00000000000E+00 0. -1.
         23    2    1    2    0    0 -0.23710254296E+02  0.92135704783E+02 -0.19255196619E+04  0.19319092006E+04  0.12488405386E+03 0.  0.
          5    1    3    3  502    0 -0.27475788853E+02  0.11988474276E+02 -0.13955316566E+04  0.13958615035E+04  0.47000000000E+01 0. -1.
         -5    1    3    3    0  502  0.37655345565E+01  0.80147230507E+02 -0.52998800532E+03  0.53604769713E+03  0.47000000000E+01 0. -1.
        -11    1    1    2    0    0  0.10642359784E+02 -0.54389998321E+01 -0.23000328888E+01  0.12170977456E+02  0.00000000000E+00 0.  1.
         11    1    1    2    0    0  0.13067894512E+02 -0.86696704951E+02 -0.46371494439E+03  0.47193075569E+03  0.00000000000E+00 0. -1.
<mgrwt>
<rscale>  0 0.15007384E+03</rscale>
<asrwt>0</asrwt>
<pdfrwt beam="2">  1        2 0.36981095E+00 0.15699424E+03</pdfrwt>
<pdfrwt beam="1">  1       -2 0.18827932E-02 0.15699424E+03</pdfrwt>
<totfact> 0.38374192E+03</totfact>
</mgrwt>
</event>
<event>
 7    1  0.5206756E-006  0.1294749E+03  0.7546771E-02  0.1243359E+00
         -1   -1    0    0    0  501 -0.00000000000E+00  0.00000000000E+00  0.33809704699E+02  0.33809704699E+02  0.00000000000E+00 0.  1.
          1   -1    0    0  501    0  0.00000000000E+00 -0.00000000000E+00 -0.41460194573E+03  0.41460194573E+03  0.00000000000E+00 0. -1.
         23    2    1    2    0    0 -0.32761141003E+02 -0.80779353908E+01 -0.28717467376E+03  0.31501277765E+03  0.12500084573E+03 0.  0.
          5    1    3    3  502    0 -0.30094868897E+02 -0.77218670236E+00 -0.29874831266E+03  0.30029808811E+03  0.47000000000E+01 0.  1.
         -5    1    3    3    0  502 -0.26662721060E+01 -0.73057486885E+01  0.11573638900E+02  0.14714689539E+02  0.47000000000E+01 0.  1.
        -11    1    1    2    0    0  0.51808848489E+02 -0.21049960134E+02 -0.37384287365E+02  0.67266949873E+02  0.00000000000E+00 0. -1.
         11    1    1    2    0    0 -0.19047707486E+02  0.29127895525E+02 -0.56233279911E+02  0.66131922910E+02  0.00000000000E+00 0.  1.
<mgrwt>
<rscale>  0 0.11984124E+03</rscale>
<asrwt>0</asrwt>
<pdfrwt beam="2">  1        1 0.63784915E-01 0.12947493E+03</pdfrwt>
<pdfrwt beam="1">  1       -1 0.52014930E-02 0.12947493E+03</pdfrwt>
<totfact> 0.90915468E+03</totfact>
</mgrwt>
</event>
<event>
 7    1  0.5206756E-006  0.1419512E+03  0.7546771E-02  0.1220835E+00
         -1   -1    0    0    0  501 -0.00000000000E+00  0.00000000000E+00  0.44369042328E+03  0.44369042328E+03  0.00000000000E+00 0.  1.
          1   -1    0    0  501    0  0.00000000000E+00 -0.00000000000E+00 -0.59182415717E+02  0.59182415717E+02  0.00000000000E+00 0. -1.
         23    2    1    2    0    0  0.33021390701E+02  0.58612356556E+02  0.52027881747E+02  0.15118544075E+03  0.12499726569E+03 0.  0.
          5    1    3    3  502    0  0.15610048634E+02  0.92816199539E+02  0.59984274903E+02  0.11170820807E+03  0.47000000000E+01 0.  1.
         -5    1    3    3    0  502  0.17411342066E+02 -0.34203842983E+02 -0.79563931565E+01  0.39477232672E+02  0.47000000000E+01 0.  1.
        -11    1    1    2    0    0 -0.16474700783E+02 -0.75831697377E+02  0.30745191860E+03  0.31709390462E+03  0.00000000000E+00 0.  1.
         11    1    1    2    0    0 -0.16546689917E+02  0.17219340821E+02  0.25028207213E+02  0.34593493634E+02  0.00000000000E+00 0. -1.
<mgrwt>
<rscale>  0 0.13456520E+03</rscale>
<asrwt>0</asrwt>
<pdfrwt beam="2">  1        1 0.91049873E-02 0.14195118E+03</pdfrwt>
<pdfrwt beam="1">  1       -1 0.68260063E-01 0.14195118E+03</pdfrwt>
<totfact> 0.16069691E+03</totfact>
</mgrwt>
</event>
<event>
 7    1  0.5206756E-006  0.1350735E+03  0.7546771E-02  0.1231716E+00
          1   -1    0    0  501    0  0.00000000000E+00  0.00000000000E+00  0.67121043558E+02  0.67121043558E+02  0.00000000000E+00 0. -1.
         -1   -1    0    0    0  501 -0.00000000000E+00 -0.00000000000E+00 -0.24748732144E+03  0.24748732144E+03  0.00000000000E+00 0.  1.
         23    2    1    2    0    0 -0.11817631233E+02 -0.49795583135E+02 -0.44520105010E+02  0.14222130715E+03  0.12500241578E+03 0.  0.
          5    1    3    3  502    0  0.49423150630E+02  0.83704838047E+01 -0.19692902274E+02  0.54061198814E+02  0.47000000000E+01 0.  1.
         -5    1    3    3    0  502 -0.61240781863E+02 -0.58166066940E+02 -0.24827202735E+02  0.88160108337E+02  0.47000000000E+01 0.  1.
        -11    1    1    2    0    0 -0.37286017898E+02  0.33182235546E+02 -0.42247811535E+02  0.65392549010E+02  0.00000000000E+00 0.  1.
         11    1    1    2    0    0  0.49103649131E+02  0.16613347589E+02 -0.93598361341E+02  0.10699450884E+03  0.00000000000E+00 0. -1.
<mgrwt>
<rscale>  0 0.12717010E+03</rscale>
<asrwt>0</asrwt>
<pdfrwt beam="1">  1        1 0.10326314E-01 0.13507354E+03</pdfrwt>
<pdfrwt beam="2">  1       -1 0.38074972E-01 0.13507354E+03</pdfrwt>
<totfact> 0.39687693E+03</totfact>
</mgrwt>
</event>
<event>
 7    1  0.5206756E-006  0.1469137E+03  0.7546771E-02  0.1214194E+00
         -1   -1    0    0    0  501 -0.00000000000E+00  0.00000000000E+00  0.36771252697E+02  0.36771252697E+02  0.00000000000E+00 0.  1.
          1   -1    0    0  501    0  0.00000000000E+00 -0.00000000000E+00 -0.49362747661E+03  0.49362747661E+03  0.00000000000E+00 0. -1.
         23    2    1    2    0    0 -0.68268971019E+02 -0.36026641912E+02 -0.29474624298E+03  0.32933112107E+03  0.12500027289E+03 0.  0.
          5    1    3    3  502    0 -0.55961175781E+02 -0.80110512161E+02 -0.16694017525E+03  0.19349537324E+03  0.47000000000E+01 0.  1.
         -5    1    3    3    0  502 -0.12307795238E+02  0.44083870249E+02 -0.12780606773E+03  0.13583574783E+03  0.47000000000E+01 0.  1.
        -11    1    1    2    0    0  0.27541300432E+02 -0.10166035101E+01  0.23280737916E+01  0.27658211073E+02  0.00000000000E+00 0.  1.
         11    1    1    2    0    0  0.40727670587E+02  0.37043245422E+02 -0.16443805473E+03  0.17340939716E+03  0.00000000000E+00 0. -1.
<mgrwt>
<rscale>  0 0.13935922E+03</rscale>
<asrwt>0</asrwt>
<pdfrwt beam="2">  1        1 0.75942689E-01 0.14691371E+03</pdfrwt>
<pdfrwt beam="1">  1       -1 0.56571158E-02 0.14691371E+03</pdfrwt>
<totfact> 0.64685723E+03</totfact>
</mgrwt>
</event>
<event>
 7    1  0.5206756E-006  0.1269224E+03  0.7546771E-02  0.1248076E+00
         -2   -1    0    0    0  501 -0.00000000000E+00  0.00000000000E+00  0.11020413583E+03  0.11020413583E+03  0.00000000000E+00 0.  1.
          2   -1    0    0  501    0  0.00000000000E+00 -0.00000000000E+00 -0.11933493865E+03  0.11933493865E+03  0.00000000000E+00 0. -1.
         23    2    1    2    0    0 -0.11568247248E+02  0.18693795665E+02 -0.39447925070E+02  0.13291138724E+03  0.12500406284E+03 0.  0.
          5    1    3    3  502    0  0.49563185894E+01  0.38064904600E+02 -0.77658314110E+02  0.86754860421E+02  0.47000000000E+01 0. -1.
         -5    1    3    3    0  502 -0.16524565838E+02 -0.19371108935E+02  0.38210389041E+02  0.46156526820E+02  0.47000000000E+01 0. -1.
        -11    1    1    2    0    0  0.71471780482E+00 -0.45267208034E+02 -0.10742021651E+02  0.46529796624E+02  0.00000000000E+00 0. -1.
         11    1    1    2    0    0  0.10853529443E+02  0.26573412369E+02  0.41059143906E+02  0.50097890620E+02  0.00000000000E+00 0.  1.
<mgrwt>
<rscale>  0 0.11703168E+03</rscale>
<asrwt>0</asrwt>
<pdfrwt beam="2">  1        2 0.18359221E-01 0.12692241E+03</pdfrwt>
<pdfrwt beam="1">  1       -2 0.16954483E-01 0.12692241E+03</pdfrwt>
<totfact> 0.80327141E+03</totfact>
</mgrwt>
</event>
<event>
 7    1  0.5206756E-006  0.1494103E+03  0.7546771E-02  0.1210666E+00
          1   -1    0    0  501    0  0.00000000000E+00  0.00000000000E+00  0.84369018318E+03  0.84369018318E+03  0.00000000000E+00 0. -1.
         -1   -1    0    0    0  501 -0.00000000000E+00 -0.00000000000E+00 -0.23162535092E+02  0.23162535092E+02  0.00000000000E+00 0.  1.
         23    2    1    2    0    0 -0.80959531722E+02 -0.12080849054E+02  0.55364831920E+03  0.57345436745E+03  0.12499222980E+03 0.  0.
          5    1    3    3  502    0 -0.82138278494E+02 -0.38613158150E+02  0.21092938488E+03  0.22967578928E+03  0.47000000000E+01 0.  1.
         -5    1    3    3    0  502  0.11787467722E+01  0.26532309096E+02  0.34271893432E+03  0.34377857818E+03  0.47000000000E+01 0.  1.
        -11    1    1    2    0    0 -0.10717019698E+02 -0.18291802686E+02  0.24001640255E+02  0.32023792587E+02  0.00000000000E+00 0.  1.
         11    1    1    2    0    0  0.91676551420E+02  0.30372651740E+02  0.24287768864E+03  0.26137455823E+03  0.00000000000E+00 0. -1.
<mgrwt>
<rscale>  0 0.14199747E+03</rscale>
<asrwt>0</asrwt>
<pdfrwt beam="1">  1        1 0.12979847E+00 0.14941034E+03</pdfrwt>
<pdfrwt beam="2">  1       -1 0.35634676E-02 0.14941034E+03</pdfrwt>
<totfact> 0.60325162E+03</totfact>
</mgrwt>
</event>
<event>
 7    1  0.5206756E-006  0.1322975E+03  0.7546771E-02  0.1238566E+00
         -2   -1    0    0    0  501 -0.00000000000E+00  0.00000000000E+00  0.63507022000E+02  0.63507022000E+02  0.00000000000E+00 0.  1.
          2   -1    0    0  501    0  0.00000000000E+00 -0.00000000000E+00 -0.41440626743E+03  0.41440626743E+03  0.00000000000E+00 0. -1.
         23    2    1    2    0    0  0.34360848880E+02  0.26356529283E+02 -0.35582080600E+03  0.37961966009E+03  0.12500922276E+03 0.  0.
          5    1    3    3  502    0  0.11098508737E+02 -0.50187854898E+02 -0.15649532906E+03  0.16478736509E+03  0.47000000000E+01 0.  1.
         -5    1    3    3    0  502  0.23262340143E+02  0.76544384182E+02 -0.19932547694E+03  0.21483229500E+03  0.47000000000E+01 0.  1.
        -11    1    1    2    0    0 -0.22838093868E+02  0.29534182258E+02  0.15198807010E+02  0.40309430506E+02  0.00000000000E+00 0.  1.
         11    1    1    2    0    0 -0.11522755012E+02 -0.55890711541E+02 -0.10277246438E+02  0.57984198831E+02  0.00000000000E+00 0. -1.
<mgrwt>
<rscale>  0 0.12278884E+03</rscale>
<asrwt>0</asrwt>
<pdfrwt beam="2">  1        2 0.63754810E-01 0.13229754E+03</pdfrwt>
<pdfrwt beam="1">  1       -2 0.97703111E-02 0.13229754E+03</pdfrwt>
<totfact> 0.50783842E+03</totfact>
</mgrwt>
</event>
<event>
 7    1  0.5206756E-006  0.2352318E+03  0.7546771E-02  0.1125929E+00
          2   -1    0    0  501    0  0.00000000000E+00  0.00000000000E+00  0.14336988567E+04  0.14336988567E+04  0.00000000000E+00 0. -1.
         -2   -1    0    0    0  501 -0.00000000000E+00 -0.00000000000E+00 -0.41276891536E+02  0.41276891536E+02  0.00000000000E+00 0.  1.
         23    2    1    2    0    0 -0.80590654001E+02  0.18224710570E+03  0.98300957077E+03  0.10107629879E+04  0.12500056158E+03 0.  0.
          5    1    3    3  502    0 -0.81002674237E+02  0.93289869181E+02  0.77020072767E+03  0.78006133338E+03  0.47000000000E+01 0.  1.
         -5    1    3    3    0  502  0.41202023621E+00  0.88957236515E+02  0.21280884310E+03  0.23070165450E+03  0.47000000000E+01 0.  1.
        -11    1    1    2    0    0  0.11353303845E+02 -0.70443926327E+02  0.23615960118E+03  0.24670346875E+03  0.00000000000E+00 0. -1.
         11    1    1    2    0    0  0.69237350156E+02 -0.11180317937E+03  0.17325279317E+03  0.21750929156E+03  0.00000000000E+00 0.  1.
<mgrwt>
<rscale>  0 0.23101257E+03</rscale>
<asrwt>0</asrwt>
<pdfrwt beam="1">  1        2 0.22056902E+00 0.23523180E+03</pdfrwt>
<pdfrwt beam="2">  1       -2 0.63502921E-02 0.23523180E+03</pdfrwt>
<totfact> 0.20102863E+03</totfact>
</mgrwt>
</event>
<event>
 7    1  0.5206756E-006  0.2234029E+03  0.7546771E-02  0.1134662E+00
         -2   -1    0    0    0  501 -0.00000000000E+00  0.00000000000E+00  0.25718683770E+02  0.25718683770E+02  0.00000000000E+00 0.  1.
          2   -1    0    0  501    0  0.00000000000E+00 -0.00000000000E+00 -0.18226522456E+04  0.18226522456E+04  0.00000000000E+00 0. -1.
         23    2    1    2    0    0  0.90821353310E+02 -0.16134899664E+03 -0.81739629119E+03  0.84737567294E+03  0.12500726907E+03 0.  0.
          5    1    3    3  502    0 -0.10065400649E+02  0.94450250004E+01 -0.16063289794E+03  0.16129333120E+03  0.47000000000E+01 0.  1.
         -5    1    3    3    0  502  0.10088675396E+03 -0.17079402164E+03 -0.65676339324E+03  0.68608234175E+03  0.47000000000E+01 0.  1.
        -11    1    1    2    0    0 -0.89283644038E+02  0.66645801586E+02 -0.53649785467E+03  0.54794450451E+03  0.00000000000E+00 0.  1.
         11    1    1    2    0    0 -0.15377092721E+01  0.94703195049E+02 -0.44303941597E+03  0.45305075191E+03  0.00000000000E+00 0. -1.
<mgrwt>
<rscale>  0 0.21895905E+03</rscale>
<asrwt>0</asrwt>
<pdfrwt beam="2">  1        2 0.28040823E+00 0.22340285E+03</pdfrwt>
<pdfrwt beam="1">  1       -2 0.39567178E-02 0.22340285E+03</pdfrwt>
<totfact> 0.25750505E+03</totfact>
</mgrwt>
</event>
<event>
 7    1  0.5206756E-006  0.1352919E+03  0.7546771E-02  0.1227800E+00
         -2   -1    0    0    0  501 -0.00000000000E+00  0.00000000000E+00  0.39973621194E+02  0.39973621194E+02  0.00000000000E+00 0.  1.
          2   -1    0    0  501    0  0.00000000000E+00 -0.00000000000E+00 -0.49150428849E+03  0.49150428849E+03  0.00000000000E+00 0. -1.
         23    2    1    2    0    0  0.57644130312E+02  0.35363975717E+02 -0.36094130217E+03  0.38546403010E+03  0.11717695314E+03 0.  0.
          5    1    3    3  502    0  0.69322052203E+02  0.19991562329E+02 -0.35817994087E+03  0.36540411810E+03  0.47000000000E+01 0. -1.
         -5    1    3    3    0  502 -0.11677921892E+02  0.15372413389E+02 -0.27613613073E+01  0.20059911998E+02  0.47000000000E+01 0.  1.
        -11    1    1    2    0    0 -0.68489655990E+02 -0.57763135538E+02 -0.69454284005E+02  0.11336362014E+03  0.00000000000E+00 0.  1.
         11    1    1    2    0    0  0.10845525678E+02  0.22399159820E+02 -0.21135081114E+02  0.32650259441E+02  0.00000000000E+00 0. -1.
<mgrwt>
<rscale>  0 0.12976846E+03</rscale>
<asrwt>0</asrwt>
<pdfrwt beam="2">  1        2 0.75616045E-01 0.13529189E+03</pdfrwt>
<pdfrwt beam="1">  1       -2 0.61497878E-02 0.13529189E+03</pdfrwt>
<totfact> 0.86292381E+03</totfact>
</mgrwt>
</event>
<event>
 7    1  0.5206756E-006  0.2312381E+03  0.7546771E-02  0.1129092E+00
          2   -1    0    0  501    0  0.00000000000E+00  0.00000000000E+00  0.11439007834E+04  0.11439007834E+04  0.00000000000E+00 0.  1.
         -2   -1    0    0    0  501 -0.00000000000E+00 -0.00000000000E+00 -0.60645597931E+02  0.60645597931E+02  0.00000000000E+00 0. -1.
         23    2    1    2    0    0 -0.18813568740E+03 -0.49623335647E+02  0.88079466156E+03  0.91064278275E+03  0.12495411005E+03 0.  0.
          5    1    3    3  502    0 -0.12597965163E+03 -0.37040374705E+02  0.31528918160E+03  0.34157315471E+03  0.47000000000E+01 0. -1.
         -5    1    3    3    0  502 -0.62156035772E+02 -0.12582960942E+02  0.56550547997E+03  0.56906962804E+03  0.47000000000E+01 0. -1.
        -11    1    1    2    0    0  0.99095730530E+02  0.45971378522E+02  0.56746507443E+02  0.12309954329E+03  0.00000000000E+00 0. -1.
         11    1    1    2    0    0  0.89039956871E+02  0.36519571250E+01  0.14571401649E+03  0.17080405532E+03  0.00000000000E+00 0.  1.
<mgrwt>
<rscale>  0 0.22654965E+03</rscale>
<asrwt>0</asrwt>
<pdfrwt beam="1">  1        2 0.17598472E+00 0.23123806E+03</pdfrwt>
<pdfrwt beam="2">  1       -2 0.93300928E-02 0.23123806E+03</pdfrwt>
<totfact> 0.15968936E+03</totfact>
</mgrwt>
</event>
<event>
 7    1  0.5206756E-006  0.1544726E+03  0.7546771E-02  0.1203084E+00
         -1   -1    0    0    0  501 -0.00000000000E+00  0.00000000000E+00  0.61893644366E+02  0.61893644366E+02  0.00000000000E+00 0.  1.
          1   -1    0    0  501    0  0.00000000000E+00 -0.00000000000E+00 -0.43417310528E+03  0.43417310528E+03  0.00000000000E+00 0. -1.
         23    2    1    2    0    0  0.90558437922E+02  0.61284973213E+01 -0.32151640595E+03  0.35669955994E+03  0.12499355029E+03 0.  0.
          5    1    3    3  502    0  0.16016906485E+02 -0.45818128759E+02 -0.19413145776E+03  0.20016232190E+03  0.47000000000E+01 0.  1.
         -5    1    3    3    0  502  0.74541531436E+02  0.51946626080E+02 -0.12738494819E+03  0.15653723805E+03  0.47000000000E+01 0.  1.
        -11    1    1    2    0    0 -0.69726703473E+02 -0.42079957779E+02 -0.11587983392E+02  0.82260667290E+02  0.00000000000E+00 0.  1.
         11    1    1    2    0    0 -0.20831734449E+02  0.35951460457E+02 -0.39175071576E+02  0.57106522413E+02  0.00000000000E+00 0. -1.
<mgrwt>
<rscale>  0 0.14789439E+03</rscale>
<asrwt>0</asrwt>
<pdfrwt beam="2">  1        1 0.66795861E-01 0.15447258E+03</pdfrwt>
<pdfrwt beam="1">  1       -1 0.95220994E-02 0.15447258E+03</pdfrwt>
<totfact> 0.34919933E+03</totfact>
</mgrwt>
</event>
<event>
 7    1  0.5206756E-006  0.1430933E+03  0.7546771E-02  0.1223469E+00
         -4   -1    0    0    0  501 -0.00000000000E+00  0.00000000000E+00  0.12084946912E+03  0.12084946912E+03  0.00000000000E+00 0.  1.
          4   -1    0    0  501    0  0.00000000000E+00 -0.00000000000E+00 -0.20789062639E+03  0.20789062639E+03  0.00000000000E+00 0. -1.
         23    2    1    2    0    0 -0.58804862224E+02  0.37200193699E+02 -0.14855465687E+03  0.20626239580E+03  0.12503528947E+03 0.  0.
          5    1    3    3  502    0  0.13568733848E+01  0.63889764931E+01  0.21634017793E+02  0.23082046094E+02  0.47000000000E+01 0.  1.
         -5    1    3    3    0  502 -0.60161735608E+02  0.30811217206E+02 -0.17018867466E+03  0.18318034971E+03  0.47000000000E+01 0.  1.
        -11    1    1    2    0    0  0.69574103229E+02 -0.16153636833E+02  0.67301624502E+02  0.98137681263E+02  0.00000000000E+00 0.  1.
         11    1    1    2    0    0 -0.10769241005E+02 -0.21046556866E+02 -0.57881249077E+01  0.24340018441E+02  0.00000000000E+00 0. -1.
<mgrwt>
<rscale>  0 0.13272369E+03</rscale>
<asrwt>0</asrwt>
<pdfrwt beam="2">  1        4 0.31983173E-01 0.14309329E+03</pdfrwt>
<pdfrwt beam="1">  1       -4 0.18592226E-01 0.14309329E+03</pdfrwt>
<totfact> 0.40625365E+02</totfact>
</mgrwt>
</event>
<event>
 7    1  0.5206756E-006  0.1527537E+03  0.7546771E-02  0.1204924E+00
          2   -1    0    0  501    0  0.00000000000E+00  0.00000000000E+00  0.63652142493E+03  0.63652142493E+03  0.00000000000E+00 0. -1.
         -2   -1    0    0    0  501 -0.00000000000E+00 -0.00000000000E+00 -0.40371698121E+02  0.40371698121E+02  0.00000000000E+00 0.  1.
         23    2    1    2    0    0  0.24200292790E+02  0.84401330013E+02  0.47853079152E+03  0.50232004214E+03  0.12499787050E+03 0.  0.
          5    1    3    3  502    0 -0.32771517139E+02 -0.84170525857E+01  0.20571097476E+03  0.20852796994E+03  0.47000000000E+01 0. -1.
         -5    1    3    3    0  502  0.56971809929E+02  0.92818382599E+02  0.27281981676E+03  0.29379207221E+03  0.47000000000E+01 0. -1.
        -11    1    1    2    0    0  0.17094195960E+01  0.14523166865E+02 -0.44924934257E+01  0.15297940656E+02  0.00000000000E+00 0.  1.
         11    1    1    2    0    0 -0.25909712386E+02 -0.98924496878E+02  0.12211142871E+03  0.15927514025E+03  0.00000000000E+00 0. -1.
<mgrwt>
<rscale>  0 0.14643440E+03</rscale>
<asrwt>0</asrwt>
<pdfrwt beam="1">  1        2 0.97926366E-01 0.15275374E+03</pdfrwt>
<pdfrwt beam="2">  1       -2 0.62110309E-02 0.15275374E+03</pdfrwt>
<totfact> 0.64006508E+03</totfact>
</mgrwt>
</event>
<event>
 7    1  0.5206756E-006  0.1261877E+03  0.7546771E-02  0.1241455E+00
         -2   -1    0    0    0  501 -0.00000000000E+00  0.00000000000E+00  0.61831057664E+02  0.61831057664E+02  0.00000000000E+00 0.  1.
          2   -1    0    0  501    0  0.00000000000E+00 -0.00000000000E+00 -0.21950465127E+03  0.21950465127E+03  0.00000000000E+00 0. -1.
         23    2    1    2    0    0 -0.13442055345E+02  0.10842480190E+02 -0.80801807372E+02  0.14984081043E+03  0.12500035266E+03 0.  0.
          5    1    3    3  502    0 -0.58596300657E+02 -0.22437801803E+02 -0.66938787400E+02  0.91868779567E+02  0.47000000000E+01 0. -1.
         -5    1    3    3    0  502  0.45154245312E+02  0.33280281993E+02 -0.13863019972E+02  0.57972030859E+02  0.47000000000E+01 0. -1.
        -11    1    1    2    0    0  0.67435896111E+01  0.47491242163E+02 -0.34634277857E+02  0.59164408944E+02  0.00000000000E+00 0.  1.
         11    1    1    2    0    0  0.66984657342E+01 -0.58333722353E+02 -0.42237508378E+02  0.72330489565E+02  0.00000000000E+00 0. -1.
<mgrwt>
<rscale>  0 0.12100083E+03</rscale>
<asrwt>0</asrwt>
<pdfrwt beam="2">  1        2 0.33769946E-01 0.12618770E+03</pdfrwt>
<pdfrwt beam="1">  1       -2 0.95124705E-02 0.12618770E+03</pdfrwt>
<totfact> 0.10366821E+04</totfact>
</mgrwt>
</event>
<event>
 7    1  0.5206756E-006  0.1443598E+03  0.7546771E-02  0.1218843E+00
         -2   -1    0    0    0  501 -0.00000000000E+00  0.00000000000E+00  0.36270818849E+02  0.36270818849E+02  0.00000000000E+00 0.  1.
          2   -1    0    0  501    0  0.00000000000E+00 -0.00000000000E+00 -0.45882803716E+03  0.45882803716E+03  0.00000000000E+00 0. -1.
         23    2    1    2    0    0  0.32533041401E+02 -0.64489883798E+02 -0.23641433556E+03  0.27700448255E+03  0.12498960515E+03 0.  0.
          5    1    3    3  502    0  0.64142065358E+02 -0.58004092589E+02 -0.22715804881E+03  0.24310810033E+03  0.47000000000E+01 0.  1.
         -5    1    3    3    0  502 -0.31609023957E+02 -0.64857912099E+01 -0.92562867530E+01  0.33896382220E+02  0.47000000000E+01 0.  1.
        -11    1    1    2    0    0 -0.26308985096E+02  0.45886090636E+02 -0.19074638500E+03  0.19794413202E+03  0.00000000000E+00 0. -1.
         11    1    1    2    0    0 -0.62240563047E+01  0.18603793162E+02  0.46035022586E+01  0.20150241437E+02  0.00000000000E+00 0.  1.
<mgrwt>
<rscale>  0 0.13598017E+03</rscale>
<asrwt>0</asrwt>
<pdfrwt beam="2">  1        2 0.70588929E-01 0.14435978E+03</pdfrwt>
<pdfrwt beam="1">  1       -2 0.55801260E-02 0.14435978E+03</pdfrwt>
<totfact> 0.10824819E+04</totfact>
</mgrwt>
</event>
<event>
 7    1  0.5206756E-006  0.2481843E+03  0.7546771E-02  0.1117015E+00
          2   -1    0    0  501    0  0.00000000000E+00  0.00000000000E+00  0.56358630681E+03  0.56358630681E+03  0.00000000000E+00 0. -1.
         -2   -1    0    0    0  501 -0.00000000000E+00 -0.00000000000E+00 -0.10264118888E+03  0.10264118888E+03  0.00000000000E+00 0.  1.
         23    2    1    2    0    0 -0.20052451517E+03 -0.75903129860E+02  0.22943033950E+03  0.33798480432E+03  0.12499632379E+03 0.  0.
          5    1    3    3  502    0 -0.18149598062E+03 -0.31794149981E+02  0.22296289772E+03  0.28928567664E+03  0.47000000000E+01 0.  1.
         -5    1    3    3    0  502 -0.19028534557E+02 -0.44108979878E+02  0.64674417815E+01  0.48699127677E+02  0.47000000000E+01 0.  1.
        -11    1    1    2    0    0  0.81104565463E+02  0.39484880590E+02  0.37854341469E+02  0.97826159601E+02  0.00000000000E+00 0.  1.
         11    1    1    2    0    0  0.11941994971E+03  0.36418249269E+02  0.19366043697E+03  0.23041653177E+03  0.00000000000E+00 0. -1.
<mgrwt>
<rscale>  0 0.24421633E+03</rscale>
<asrwt>0</asrwt>
<pdfrwt beam="1">  1        2 0.86705583E-01 0.24818430E+03</pdfrwt>
<pdfrwt beam="2">  1       -2 0.15790953E-01 0.24818430E+03</pdfrwt>
<totfact> 0.17016343E+03</totfact>
</mgrwt>
</event>
<event>
 6    1  0.5206756E-006  0.1333066E+03  0.7546771E-02  0.1225484E+00
          2   -1    0    0  501    0  0.00000000000E+00  0.00000000000E+00  0.22896868188E+03  0.22896868188E+03  0.00000000000E+00 0.  1.
         -2   -1    0    0    0  501 -0.00000000000E+00 -0.00000000000E+00 -0.26965874606E+03  0.26965874606E+03  0.00000000000E+00 0. -1.
          5    1    1    2  502    0  0.27102383538E+00 -0.35158653675E+02  0.18119269734E+03  0.18463230474E+03  0.47000000000E+01 0.  1.
         -5    1    1    2    0  502 -0.22560754777E+02  0.42186618166E+02  0.11077914641E+02  0.49330605117E+02  0.47000000000E+01 0. -1.
        -11    1    1    2    0    0 -0.17516429607E+02  0.39946326504E+02 -0.17411216860E+03  0.17949256687E+03  0.00000000000E+00 0. -1.
         11    1    1    2    0    0  0.39806160548E+02 -0.46974290995E+02 -0.58848507564E+02  0.85171951220E+02  0.00000000000E+00 0.  1.
<mgrwt>
<rscale>  0 0.13133805E+03</rscale>
<asrwt>0</asrwt>
<pdfrwt beam="1">  1        2 0.35225951E-01 0.13330662E+03</pdfrwt>
<pdfrwt beam="2">  1       -2 0.41485961E-01 0.13330662E+03</pdfrwt>
<totfact> 0.80826906E+02</totfact>
</mgrwt>
</event>
<event>
 7    1  0.5206756E-006  0.1524069E+03  0.7546771E-02  0.1206614E+00
         -1   -1    0    0    0  501 -0.00000000000E+00  0.00000000000E+00  0.98769281165E+01  0.98769281165E+01  0.00000000000E+00 0.  1.
          1   -1    0    0  501    0  0.00000000000E+00 -0.00000000000E+00 -0.20554808012E+04  0.20554808012E+04  0.00000000000E+00 0. -1.
         23    2    1    2    0    0  0.52430943279E+02  0.69664238416E+02 -0.13491925414E+04  0.13577733197E+04  0.12500305601E+03 0.  0.
          5    1    3    3  502    0  0.92369736311E+01 -0.30240620826E+02 -0.13633192191E+03  0.14002963887E+03  0.47000000000E+01 0. -1.
         -5    1    3    3    0  502  0.43193969648E+02  0.99904859242E+02 -0.12128606194E+04  0.12177436808E+04  0.47000000000E+01 0. -1.
        -11    1    1    2    0    0 -0.70812025576E+02 -0.77733550722E+02 -0.57985693448E+03  0.58931393360E+03  0.00000000000E+00 0.  1.
         11    1    1    2    0    0  0.18381082297E+02  0.80693123056E+01 -0.11655439728E+03  0.11827047608E+03  0.00000000000E+00 0. -1.
<mgrwt>
<rscale>  0 0.14510951E+03</rscale>
<asrwt>0</asrwt>
<pdfrwt beam="2">  1        1 0.31622799E+00 0.15240694E+03</pdfrwt>
<pdfrwt beam="1">  1       -1 0.15195265E-02 0.15240694E+03</pdfrwt>
<totfact> 0.31718054E+03</totfact>
</mgrwt>
</event>
<event>
 7    1  0.5206756E-006  0.1650270E+03  0.7546771E-02  0.1190035E+00
         -1   -1    0    0    0  501 -0.00000000000E+00  0.00000000000E+00  0.33060489244E+03  0.33060489244E+03  0.00000000000E+00 0.  1.
          1   -1    0    0  501    0  0.00000000000E+00 -0.00000000000E+00 -0.74667943113E+02  0.74667943113E+02  0.00000000000E+00 0. -1.
         23    2    1    2    0    0 -0.10725419713E+03  0.10290549385E+02  0.93007000950E+02  0.18943127050E+03  0.12499818323E+03 0.  0.
          5    1    3    3  502    0 -0.12658218689E+03  0.36205478200E+02  0.80857167190E+02  0.15457638298E+03  0.47000000000E+01 0. -1.
         -5    1    3    3    0  502  0.19327989763E+02 -0.25914928815E+02  0.12149833760E+02  0.34854887522E+02  0.47000000000E+01 0. -1.
        -11    1    1    2    0    0  0.65937776833E+02  0.63478118782E+01  0.15763401312E+03  0.17098703817E+03  0.00000000000E+00 0.  1.
         11    1    1    2    0    0  0.41316420296E+02 -0.16638361263E+02  0.52959352575E+01  0.44854526882E+02  0.00000000000E+00 0. -1.
<mgrwt>
<rscale>  0 0.15882075E+03</rscale>
<asrwt>0</asrwt>
<pdfrwt beam="2">  1        1 0.11487376E-01 0.16502698E+03</pdfrwt>
<pdfrwt beam="1">  1       -1 0.50862290E-01 0.16502698E+03</pdfrwt>
<totfact> 0.20746412E+03</totfact>
</mgrwt>
</event>
<event>
 7    1  0.5206756E-006  0.1492561E+03  0.7546771E-02  0.1207061E+00
         -2   -1    0    0    0  501 -0.00000000000E+00  0.00000000000E+00  0.94591637491E+03  0.94591637491E+03  0.00000000000E+00 0.  1.
          2   -1    0    0  501    0  0.00000000000E+00 -0.00000000000E+00 -0.21600431654E+02  0.21600431654E+02  0.00000000000E+00 0. -1.
         23    2    1    2    0    0 -0.46573917901E+02 -0.66990478295E+02  0.40368311283E+03  0.43039220857E+03  0.12498217315E+03 0.  0.
          5    1    3    3  502    0 -0.40620335784E+02  0.26050937818E+02  0.20810019225E+03  0.21367368358E+03  0.47000000000E+01 0.  1.
         -5    1    3    3    0  502 -0.59535821175E+01 -0.93041416113E+02  0.19558292058E+03  0.21671852499E+03  0.47000000000E+01 0.  1.
        -11    1    1    2    0    0 -0.19938630564E+02  0.61047190860E+02  0.28956247420E+03  0.29659860917E+03  0.00000000000E+00 0.  1.
         11    1    1    2    0    0  0.66512548465E+02  0.59432874344E+01  0.23107035624E+03  0.24052598882E+03  0.00000000000E+00 0. -1.
<mgrwt>
<rscale>  0 0.14476242E+03</rscale>
<asrwt>0</asrwt>
<pdfrwt beam="2">  1        2 0.33231441E-02 0.14925615E+03</pdfrwt>
<pdfrwt beam="1">  1       -2 0.14552556E+00 0.14925615E+03</pdfrwt>
<totfact> 0.91032213E+02</totfact>
</mgrwt>
</event>
<event>
 7    1  0.5206756E-006  0.1536727E+03  0.7546771E-02  0.1205170E+00
          2   -1    0    0  501    0  0.00000000000E+00  0.00000000000E+00  0.93536420307E+02  0.93536420307E+02  0.00000000000E+00 0. -1.
         -2   -1    0    0    0  501 -0.00000000000E+00 -0.00000000000E+00 -0.23129488029E+03  0.23129488029E+03  0.00000000000E+00 0.  1.
         23    2    1    2    0    0  0.67719251400E+02 -0.58344982122E+02 -0.24947491106E+02  0.15568449199E+03  0.12500099913E+03 0.  0.
          5    1    3    3  502    0  0.94434589076E+02 -0.66055980179E+02 -0.41976764810E+02  0.12274128448E+03  0.47000000000E+01 0.  1.
         -5    1    3    3    0  502 -0.26715337677E+02  0.77109980561E+01  0.17029273704E+02  0.32943207510E+02  0.47000000000E+01 0.  1.
        -11    1    1    2    0    0 -0.13292911625E+02  0.67666471890E+02 -0.48096142603E+02  0.84075512789E+02  0.00000000000E+00 0.  1.
         11    1    1    2    0    0 -0.54426339774E+02 -0.93214897672E+01 -0.64714826271E+02  0.85071295817E+02  0.00000000000E+00 0. -1.
<mgrwt>
<rscale>  0 0.14624080E+03</rscale>
<asrwt>0</asrwt>
<pdfrwt beam="1">  1        2 0.14390219E-01 0.15367265E+03</pdfrwt>
<pdfrwt beam="2">  1       -2 0.35583827E-01 0.15367265E+03</pdfrwt>
<totfact> 0.29546214E+03</totfact>
</mgrwt>
</event>
<event>
 6    1  0.5206756E-006  0.1628463E+03  0.7546771E-02  0.1200847E+00
          2   -1    0    0  501    0  0.00000000000E+00  0.00000000000E+00  0.10816185659E+04  0.10816185659E+04  0.00000000000E+00 0. -1.
         -2   -1    0    0    0  501 -0.00000000000E+00 -0.00000000000E+00 -0.78502761073E+02  0.78502761073E+02  0.00000000000E+00 0.  1.
          5    1    1    2  502    0 -0.44694260758E+02 -0.79375397423E+02  0.75211755085E+03  0.75762849139E+03  0.47000000000E+01 0. -1.
         -5    1    1    2    0  502  0.63076622350E+02  0.93343877155E+01  0.27620812995E+03  0.28351157318E+03  0.47000000000E+01 0.  1.
        -11    1    1    2    0    0  0.33914639317E+02  0.17345010418E+02  0.57846220389E+01  0.38529391360E+02  0.00000000000E+00 0. -1.
         11    1    1    2    0    0 -0.52297000910E+02  0.52695999290E+02 -0.30994498019E+02  0.80451871033E+02  0.00000000000E+00 0.  1.
<mgrwt>
<rscale>  0 0.14969580E+03</rscale>
<asrwt>0</asrwt>
<pdfrwt beam="1">  1        2 0.16640285E+00 0.16284633E+03</pdfrwt>
<pdfrwt beam="2">  1       -2 0.12077349E-01 0.16284633E+03</pdfrwt>
<totfact> 0.11512038E+03</totfact>
</mgrwt>
</event>
<event>
 7    1  0.5206756E-006  0.1382394E+03  0.7546771E-02  0.1227157E+00
          2   -1    0    0  501    0  0.00000000000E+00  0.00000000000E+00  0.35289876637E+03  0.35289876637E+03  0.00000000000E+00 0. -1.
         -2   -1    0    0    0  501 -0.00000000000E+00 -0.00000000000E+00 -0.43639835123E+02  0.43639835123E+02  0.00000000000E+00 0.  1.
         23    2    1    2    0    0 -0.53119940339E+02 -0.25759374778E+02  0.15378540225E+03  0.20678508774E+03  0.12499939645E+03 0.  0.
          5    1    3    3  502    0 -0.38047286345E+02  0.25474683104E+02  0.14541253220E+03  0.15252360473E+03  0.47000000000E+01 0.  1.
         -5    1    3    3    0  502 -0.15072653993E+02 -0.51234057881E+02  0.83728700496E+01  0.54261483008E+02  0.47000000000E+01 0.  1.
        -11    1    1    2    0    0  0.25435891309E+02 -0.66834532705E+01  0.14288532401E+03  0.14528547392E+03  0.00000000000E+00 0. -1.
         11    1    1    2    0    0  0.27684049030E+02  0.32442828048E+02  0.12588204985E+02  0.44468039840E+02  0.00000000000E+00 0.  1.
<mgrwt>
<rscale>  0 0.13020180E+03</rscale>
<asrwt>0</asrwt>
<pdfrwt beam="1">  1        2 0.54292116E-01 0.13823937E+03</pdfrwt>
<pdfrwt beam="2">  1       -2 0.67138210E-02 0.13823937E+03</pdfrwt>
<totfact> 0.10795739E+04</totfact>
</mgrwt>
</event>
<event>
 7    1  0.5206756E-006  0.2321191E+03  0.7546771E-02  0.1128185E+00
          2   -1    0    0  501    0  0.00000000000E+00  0.00000000000E+00  0.93013667612E+03  0.93013667612E+03  0.00000000000E+00 0. -1.
         -2   -1    0    0    0  501 -0.00000000000E+00 -0.00000000000E+00 -0.56391190967E+02  0.56391190967E+02  0.00000000000E+00 0.  1.
         23    2    1    2    0    0  0.19441420887E+03  0.21382789128E+02  0.34733796091E+03  0.41775942103E+03  0.12500066593E+03 0.  0.
          5    1    3    3  502    0  0.38431836975E+02  0.54791998169E+02  0.64857683190E+02  0.93315476881E+02  0.47000000000E+01 0. -1.
         -5    1    3    3    0  502  0.15598237190E+03 -0.33409209041E+02  0.28248027772E+03  0.32444394415E+03  0.47000000000E+01 0. -1.
        -11    1    1    2    0    0 -0.65030494429E+02  0.29335260865E+02  0.12422062542E+03  0.14324903670E+03  0.00000000000E+00 0.  1.
         11    1    1    2    0    0 -0.12938371445E+03 -0.50718049993E+02  0.40218689881E+03  0.42551940935E+03  0.00000000000E+00 0. -1.
<mgrwt>
<rscale>  0 0.22781867E+03</rscale>
<asrwt>0</asrwt>
<pdfrwt beam="1">  1        2 0.14309794E+00 0.23211910E+03</pdfrwt>
<pdfrwt beam="2">  1       -2 0.86755685E-02 0.23211910E+03</pdfrwt>
<totfact> 0.24091178E+03</totfact>
</mgrwt>
</event>
<event>
 6    1  0.5206756E-006  0.1626391E+03  0.7546771E-02  0.1198223E+00
          1   -1    0    0  501    0  0.00000000000E+00  0.00000000000E+00  0.10239678220E+04  0.10239678220E+04  0.00000000000E+00 0. -1.
         -1   -1    0    0    0  501 -0.00000000000E+00 -0.00000000000E+00 -0.20925812556E+02  0.20925812556E+02  0.00000000000E+00 0.  1.
          5    1    1    2  502    0  0.45803499767E+02 -0.53324956995E+02  0.54963664363E+03  0.55413359549E+03  0.47000000000E+01 0. -1.
         -5    1    1    2    0  502  0.35798412221E+02  0.51478327582E+02  0.12619534330E+03  0.14099255015E+03  0.47000000000E+01 0.  1.
        -11    1    1    2    0    0 -0.22307491411E+02  0.32204488820E+02  0.22063970141E+03  0.22409067609E+03  0.00000000000E+00 0.  1.
         11    1    1    2    0    0 -0.59294420576E+02 -0.30357859407E+02  0.10657032107E+03  0.12567681279E+03  0.00000000000E+00 0. -1.
<mgrwt>
<rscale>  0 0.15184547E+03</rscale>
<asrwt>0</asrwt>
<pdfrwt beam="1">  1        1 0.15753347E+00 0.16263912E+03</pdfrwt>
<pdfrwt beam="2">  1       -1 0.32193566E-02 0.16263912E+03</pdfrwt>
<totfact> 0.51239484E+03</totfact>
</mgrwt>
</event>
<event>
 7    1  0.5206756E-006  0.1377759E+03  0.7546771E-02  0.1228070E+00
          2   -1    0    0  501    0  0.00000000000E+00  0.00000000000E+00  0.47136024853E+03  0.47136024853E+03  0.00000000000E+00 0. -1.
         -2   -1    0    0    0  501 -0.00000000000E+00 -0.00000000000E+00 -0.37425319116E+02  0.37425319116E+02  0.00000000000E+00 0.  1.
         23    2    1    2    0    0 -0.57223245484E+02  0.88771721076E+01  0.33588792792E+03  0.36304670581E+03  0.12501562492E+03 0.  0.
          5    1    3    3  502    0  0.13548932169E+02  0.15440124062E+02  0.14668666413E+01  0.21123747104E+02  0.47000000000E+01 0. -1.
         -5    1    3    3    0  502 -0.70772177652E+02 -0.65629519549E+01  0.33442106128E+03  0.34192295871E+03  0.47000000000E+01 0. -1.
        -11    1    1    2    0    0 -0.12078846078E+02  0.27128523465E+02  0.28644249225E+02  0.41259524011E+02  0.00000000000E+00 0. -1.
         11    1    1    2    0    0  0.69302091562E+02 -0.36005695572E+02  0.69402752273E+02  0.10447933782E+03  0.00000000000E+00 0.  1.
<mgrwt>
<rscale>  0 0.12958706E+03</rscale>
<asrwt>0</asrwt>
<pdfrwt beam="1">  1        2 0.72516957E-01 0.13777594E+03</pdfrwt>
<pdfrwt beam="2">  1       -2 0.57577417E-02 0.13777594E+03</pdfrwt>
<totfact> 0.99930759E+03</totfact>
</mgrwt>
</event>
<event>
 6    1  0.5206756E-006  0.6334350E+03  0.7546771E-02  0.1012767E+00
         -2   -1    0    0    0  501 -0.00000000000E+00  0.00000000000E+00  0.10564129951E+03  0.10564129951E+03  0.00000000000E+00 0.  1.
          2   -1    0    0  501    0  0.00000000000E+00 -0.00000000000E+00 -0.21696995779E+04  0.21696995779E+04  0.00000000000E+00 0. -1.
          5    1    1    2  502    0 -0.86322437275E+02  0.29870192143E+03 -0.17652374837E+04  0.17924173245E+04  0.47000000000E+01 0. -1.
         -5    1    1    2    0  502  0.93229912256E+02 -0.64254678298E+02 -0.39104263582E+02  0.11988208228E+03  0.47000000000E+01 0.  1.
        -11    1    1    2    0    0  0.22793602068E+02 -0.75602342799E+02 -0.14418845772E+03  0.16439456765E+03  0.00000000000E+00 0. -1.
         11    1    1    2    0    0 -0.29701077049E+02 -0.15884490033E+03 -0.11552807331E+03  0.19864690298E+03  0.00000000000E+00 0.  1.
<mgrwt>
<rscale>  0 0.50389737E+03</rscale>
<asrwt>0</asrwt>
<pdfrwt beam="2">  1        2 0.33379992E+00 0.63343498E+03</pdfrwt>
<pdfrwt beam="1">  1       -2 0.16252508E-01 0.63343498E+03</pdfrwt>
<totfact> 0.17091279E+02</totfact>
</mgrwt>
</event>
<event>
 7    1  0.5206756E-006  0.1620283E+03  0.7546771E-02  0.1193913E+00
          4   -1    0    0  501    0  0.00000000000E+00  0.00000000000E+00  0.34679745416E+03  0.34679745416E+03  0.00000000000E+00 0. -1.
         -4   -1    0    0    0  501 -0.00000000000E+00 -0.00000000000E+00 -0.64674242982E+02  0.64674242982E+02  0.00000000000E+00 0.  1.
         23    2    1    2    0    0  0.62347472361E+02 -0.82102581716E+02  0.15955165470E+03  0.22739814220E+03  0.12500057330E+03 0.  0.
          5    1    3    3  502    0  0.34021983588E+02 -0.10978801698E+03  0.14465951207E+03  0.18482253237E+03  0.47000000000E+01 0.  1.
         -5    1    3    3    0  502  0.28325488772E+02  0.27685435266E+02  0.14892142626E+02  0.42575609826E+02  0.47000000000E+01 0.  1.
        -11    1    1    2    0    0 -0.18647468971E+02  0.35918243092E+02  0.11267913043E+03  0.11972649966E+03  0.00000000000E+00 0. -1.
         11    1    1    2    0    0 -0.43700003389E+02  0.46184338624E+02  0.98924260476E+01  0.64347055282E+02  0.00000000000E+00 0.  1.
<mgrwt>
<rscale>  0 0.15546546E+03</rscale>
<asrwt>0</asrwt>
<pdfrwt beam="1">  1        4 0.53353453E-01 0.16202834E+03</pdfrwt>
<pdfrwt beam="2">  1       -4 0.99498837E-02 0.16202834E+03</pdfrwt>
<totfact> 0.44573380E+02</totfact>
</mgrwt>
</event>
<event>
 7    1  0.5206756E-006  0.1338838E+03  0.7546771E-02  0.1234865E+00
          1   -1    0    0  501    0  0.00000000000E+00  0.00000000000E+00  0.30732167697E+03  0.30732167697E+03  0.00000000000E+00 0. -1.
         -1   -1    0    0    0  501 -0.00000000000E+00 -0.00000000000E+00 -0.46673608525E+02  0.46673608525E+02  0.00000000000E+00 0.  1.
         23    2    1    2    0    0  0.46896224389E+02 -0.99481504450E+01  0.17717304004E+03  0.22207015553E+03  0.12500658502E+03 0.  0.
          5    1    3    3  502    0  0.83420835485E+02  0.11995920194E+02  0.14746371914E+03  0.16991343784E+03  0.47000000000E+01 0. -1.
         -5    1    3    3    0  502 -0.36524611095E+02 -0.21944070639E+02  0.29709320895E+02  0.52156717687E+02  0.47000000000E+01 0. -1.
        -11    1    1    2    0    0 -0.40759057195E+01  0.45418148816E+02  0.28739647760E+02  0.53901656772E+02  0.00000000000E+00 0.  1.
         11    1    1    2    0    0 -0.42820318670E+02 -0.35469998371E+02  0.54735380645E+02  0.78023473197E+02  0.00000000000E+00 0. -1.
<mgrwt>
<rscale>  0 0.12513061E+03</rscale>
<asrwt>0</asrwt>
<pdfrwt beam="1">  1        1 0.47280257E-01 0.13388378E+03</pdfrwt>
<pdfrwt beam="2">  1       -1 0.71805554E-02 0.13388378E+03</pdfrwt>
<totfact> 0.81931101E+03</totfact>
</mgrwt>
</event>
<event>
 7    1  0.5206756E-006  0.1392263E+03  0.7546771E-02  0.1225541E+00
         -1   -1    0    0    0  501 -0.00000000000E+00  0.00000000000E+00  0.23777186085E+02  0.23777186085E+02  0.00000000000E+00 0.  1.
          1   -1    0    0  501    0  0.00000000000E+00 -0.00000000000E+00 -0.68990198839E+03  0.68990198839E+03  0.00000000000E+00 0. -1.
         23    2    1    2    0    0  0.16570574252E+02  0.59006128825E+02 -0.45107143213E+03  0.47206928635E+03  0.12501066780E+03 0.  0.
          5    1    3    3  502    0  0.34589784211E+02  0.83215639782E+02 -0.41548916977E+03  0.42517600599E+03  0.47000000000E+01 0. -1.
         -5    1    3    3    0  502 -0.18019209959E+02 -0.24209510956E+02 -0.35582262361E+02  0.46893280361E+02  0.47000000000E+01 0. -1.
        -11    1    1    2    0    0  0.20459338859E+02  0.16261115694E+02 -0.55726043474E+02  0.61549982546E+02  0.00000000000E+00 0.  1.
         11    1    1    2    0    0 -0.37029913111E+02 -0.75267244519E+02 -0.15932732671E+03  0.18005990558E+03  0.00000000000E+00 0. -1.
<mgrwt>
<rscale>  0 0.13129916E+03</rscale>
<asrwt>0</asrwt>
<pdfrwt beam="2">  1        1 0.10613876E+00 0.13922634E+03</pdfrwt>
<pdfrwt beam="1">  1       -1 0.36580291E-02 0.13922634E+03</pdfrwt>
<totfact> 0.77940512E+03</totfact>
</mgrwt>
</event>
<event>
 7    1  0.5206756E-006  0.1261913E+03  0.7546771E-02  0.1249700E+00
         -2   -1    0    0    0  501 -0.00000000000E+00  0.00000000000E+00  0.58062437037E+03  0.58062437037E+03  0.00000000000E+00 0.  1.
          2   -1    0    0  501    0  0.00000000000E+00 -0.00000000000E+00 -0.20375806413E+02  0.20375806413E+02  0.00000000000E+00 0. -1.
         23    2    1    2    0    0 -0.15552894755E+02 -0.75674773603E+01  0.29795016610E+03  0.32357152801E+03  0.12500029205E+03 0.  0.
          5    1    3    3  502    0 -0.19946930069E+02 -0.45749443604E+02  0.44043330351E+02  0.66729278114E+02  0.47000000000E+01 0. -1.
         -5    1    3    3    0  502  0.43940353134E+01  0.38181966244E+02  0.25390683575E+03  0.25684224990E+03  0.47000000000E+01 0. -1.
        -11    1    1    2    0    0 -0.17685619883E+02 -0.32686173298E+02  0.89272789562E+02  0.96699524465E+02  0.00000000000E+00 0. -1.
         11    1    1    2    0    0  0.33238514639E+02  0.40253650658E+02  0.17302560830E+03  0.18072912431E+03  0.00000000000E+00 0.  1.
<mgrwt>
<rscale>  0 0.11608456E+03</rscale>
<asrwt>0</asrwt>
<pdfrwt beam="2">  1        2 0.31347399E-02 0.12619125E+03</pdfrwt>
<pdfrwt beam="1">  1       -2 0.89326814E-01 0.12619125E+03</pdfrwt>
<totfact> 0.31087183E+03</totfact>
</mgrwt>
</event>
<event>
 7    1  0.5206756E-006  0.1751697E+03  0.7546771E-02  0.1178695E+00
          2   -1    0    0  501    0  0.00000000000E+00  0.00000000000E+00  0.25993946745E+03  0.25993946745E+03  0.00000000000E+00 0.  1.
         -2   -1    0    0    0  501 -0.00000000000E+00 -0.00000000000E+00 -0.20564613660E+03  0.20564613660E+03  0.00000000000E+00 0. -1.
         23    2    1    2    0    0  0.10333994842E+03  0.66183339628E+02  0.19217760274E+03  0.26003200382E+03  0.12500013053E+03 0.  0.
          5    1    3    3  502    0 -0.97647744355E-01  0.71037825279E+02  0.86012615597E+02  0.11165411859E+03  0.47000000000E+01 0.  1.
         -5    1    3    3    0  502  0.10343759616E+03 -0.48544856510E+01  0.10616498714E+03  0.14837788523E+03  0.47000000000E+01 0.  1.
        -11    1    1    2    0    0  0.61348683243E+01 -0.18225779053E+02  0.44050323050E+01  0.19728657863E+02  0.00000000000E+00 0.  1.
         11    1    1    2    0    0 -0.10947481674E+03 -0.47957560575E+02 -0.14228930419E+03  0.18582494237E+03  0.00000000000E+00 0. -1.
<mgrwt>
<rscale>  0 0.16918980E+03</rscale>
<asrwt>0</asrwt>
<pdfrwt beam="1">  1        2 0.39990687E-01 0.17516967E+03</pdfrwt>
<pdfrwt beam="2">  1       -2 0.31637867E-01 0.17516967E+03</pdfrwt>
<totfact> 0.11756742E+03</totfact>
</mgrwt>
</event>
<event>
 7    1  0.5206756E-006  0.1357050E+03  0.7546771E-02  0.1231920E+00
          2   -1    0    0  501    0  0.00000000000E+00  0.00000000000E+00  0.28041734809E+03  0.28041734809E+03  0.00000000000E+00 0. -1.
         -2   -1    0    0    0  501 -0.00000000000E+00 -0.00000000000E+00 -0.56234946507E+02  0.56234946507E+02  0.00000000000E+00 0.  1.
         23    2    1    2    0    0  0.50989519066E+02  0.13818145110E+02  0.17489576656E+03  0.22136929307E+03  0.12499985025E+03 0.  0.
          5    1    3    3  502    0  0.14124940575E+02  0.68083372755E+02  0.83361416422E+02  0.10865576533E+03  0.47000000000E+01 0.  1.
         -5    1    3    3    0  502  0.36864578491E+02 -0.54265227646E+02  0.91534350142E+02  0.11271352774E+03  0.47000000000E+01 0.  1.
        -11    1    1    2    0    0 -0.60063463866E+02 -0.25911426265E+02  0.65876639335E+02  0.92837240980E+02  0.00000000000E+00 0. -1.
         11    1    1    2    0    0  0.90739448000E+01  0.12093281155E+02 -0.16590004317E+02  0.22445760548E+02  0.00000000000E+00 0.  1.
<mgrwt>
<rscale>  0 0.12703708E+03</rscale>
<asrwt>0</asrwt>
<pdfrwt beam="1">  1        2 0.43141130E-01 0.13570495E+03</pdfrwt>
<pdfrwt beam="2">  1       -2 0.86515304E-02 0.13570495E+03</pdfrwt>
<totfact> 0.93111198E+03</totfact>
</mgrwt>
</event>
<event>
 7    1  0.5206756E-006  0.1294433E+03  0.7546771E-02  0.1242566E+00
         -3   -1    0    0    0  501 -0.00000000000E+00  0.00000000000E+00  0.38068789556E+03  0.38068789556E+03  0.00000000000E+00 0.  1.
          3   -1    0    0  501    0  0.00000000000E+00 -0.00000000000E+00 -0.41992849288E+02  0.41992849288E+02  0.00000000000E+00 0. -1.
         23    2    1    2    0    0  0.82152579686E+01 -0.32606007478E+02  0.95116761275E+02  0.16063235569E+03  0.12499965293E+03 0.  0.
          5    1    3    3  502    0  0.45395790606E+02 -0.55201729457E+02  0.21136804042E+02  0.74678398650E+02  0.47000000000E+01 0. -1.
         -5    1    3    3    0  502 -0.37180532637E+02  0.22595721980E+02  0.73979957233E+02  0.85953957042E+02  0.47000000000E+01 0. -1.
        -11    1    1    2    0    0 -0.39510287567E+02 -0.31642650811E+01  0.56431272712E+02  0.68960596988E+02  0.00000000000E+00 0. -1.
         11    1    1    2    0    0  0.31295029598E+02  0.35770272559E+02  0.18714701228E+03  0.19308779217E+03  0.00000000000E+00 0.  1.
<mgrwt>
<rscale>  0 0.12032254E+03</rscale>
<asrwt>0</asrwt>
<pdfrwt beam="2">  1        3 0.64604386E-02 0.12944325E+03</pdfrwt>
<pdfrwt beam="1">  1       -3 0.58567366E-01 0.12944325E+03</pdfrwt>
<totfact> 0.10007713E+03</totfact>
</mgrwt>
</event>
<event>
 7    1  0.5206756E-006  0.1870589E+03  0.7546771E-02  0.1166447E+00
          2   -1    0    0  501    0  0.00000000000E+00  0.00000000000E+00  0.68603856554E+03  0.68603856554E+03  0.00000000000E+00 0.  1.
         -2   -1    0    0    0  501 -0.00000000000E+00 -0.00000000000E+00 -0.47674181447E+02  0.47674181447E+02  0.00000000000E+00 0. -1.
         23    2    1    2    0    0  0.13138263316E+03 -0.45876817670E+02  0.41973932567E+03  0.45953469503E+03  0.12499982291E+03 0.  0.
          5    1    3    3  502    0  0.19294688226E+02  0.46189487723E+01  0.24490856255E+03  0.24575580093E+03  0.47000000000E+01 0. -1.
         -5    1    3    3    0  502  0.11208794494E+03 -0.50495766442E+02  0.17483076312E+03  0.21377889410E+03  0.47000000000E+01 0. -1.
        -11    1    1    2    0    0 -0.86894239423E+02  0.67895273159E+02  0.11528194197E+03  0.15953151132E+03  0.00000000000E+00 0.  1.
         11    1    1    2    0    0 -0.44488393740E+02 -0.22018455488E+02  0.10334311645E+03  0.11464654063E+03  0.00000000000E+00 0. -1.
<mgrwt>
<rscale>  0 0.18140799E+03</rscale>
<asrwt>0</asrwt>
<pdfrwt beam="1">  1        2 0.10554439E+00 0.18705891E+03</pdfrwt>
<pdfrwt beam="2">  1       -2 0.73344899E-02 0.18705891E+03</pdfrwt>
<totfact> 0.45809378E+03</totfact>
</mgrwt>
</event>
<event>
 7    1  0.1250514E-005  0.2036082E+03  0.7546771E-02  0.1150672E+00
         -2   -1    0    0    0  501 -0.00000000000E+00  0.00000000000E+00  0.24868486203E+02  0.24868486203E+02  0.00000000000E+00 0.  1.
          2   -1    0    0  501    0  0.00000000000E+00 -0.00000000000E+00 -0.16203573226E+04  0.16203573226E+04  0.00000000000E+00 0. -1.
         23    2    1    2    0    0  0.10051218405E+03 -0.12541363709E+03 -0.10358811594E+04  0.10557017011E+04  0.12500010321E+03 0.  0.
          5    1    3    3  502    0  0.11916047768E+03 -0.59624966777E+02 -0.61609471129E+03  0.63035635904E+03  0.47000000000E+01 0.  1.
         -5    1    3    3    0  502 -0.18648293635E+02 -0.65788670314E+02 -0.41978644814E+03  0.42534534209E+03  0.47000000000E+01 0.  1.
        -11    1    1    2    0    0 -0.22679240716E+02  0.65242716354E+02 -0.11488972358E+03  0.13405449855E+03  0.00000000000E+00 0.  1.
         11    1    1    2    0    0 -0.77832943332E+02  0.60170920737E+02 -0.44471795344E+03  0.45546960917E+03  0.00000000000E+00 0. -1.
<mgrwt>
<rscale>  0 0.19889846E+03</rscale>
<asrwt>0</asrwt>
<pdfrwt beam="2">  1        2 0.24928573E+00 0.20360822E+03</pdfrwt>
<pdfrwt beam="1">  1       -2 0.38259211E-02 0.20360822E+03</pdfrwt>
<totfact> 0.34538521E+03</totfact>
</mgrwt>
</event>
<event>
 7    1  0.5206756E-006  0.1290488E+03  0.7546771E-02  0.1243039E+00
         -1   -1    0    0    0  501 -0.00000000000E+00  0.00000000000E+00  0.14340423232E+02  0.14340423232E+02  0.00000000000E+00 0.  1.
          1   -1    0    0  501    0  0.00000000000E+00 -0.00000000000E+00 -0.10679427293E+04  0.10679427293E+04  0.00000000000E+00 0. -1.
         23    2    1    2    0    0  0.16331617792E+02 -0.27822830568E+02 -0.81020203211E+03  0.82041509491E+03  0.12495104436E+03 0.  0.
          5    1    3    3  502    0 -0.32884244160E+02  0.29239954088E+02 -0.46237637792E+03  0.46448934680E+03  0.47000000000E+01 0. -1.
         -5    1    3    3    0  502  0.49215861952E+02 -0.57062784656E+02 -0.34782565419E+03  0.35592574811E+03  0.47000000000E+01 0. -1.
        -11    1    1    2    0    0 -0.29433116506E+02 -0.10233776117E+02 -0.25452798554E+02  0.40235351062E+02  0.00000000000E+00 0.  1.
         11    1    1    2    0    0  0.13101498714E+02  0.38056606685E+02 -0.21794747544E+03  0.22163270659E+03  0.00000000000E+00 0. -1.
<mgrwt>
<rscale>  0 0.12003492E+03</rscale>
<asrwt>0</asrwt>
<pdfrwt beam="2">  1        1 0.16429894E+00 0.12904881E+03</pdfrwt>
<pdfrwt beam="1">  1       -1 0.22062182E-02 0.12904881E+03</pdfrwt>
<totfact> 0.81694391E+03</totfact>
</mgrwt>
</event>
<event>
 6    1  0.5206756E-006  0.2029237E+03  0.7546771E-02  0.1158938E+00
         -2   -1    0    0    0  501 -0.00000000000E+00  0.00000000000E+00  0.24231062832E+02  0.24231062832E+02  0.00000000000E+00 0.  1.
          2   -1    0    0  501    0  0.00000000000E+00 -0.00000000000E+00 -0.15481916026E+04  0.15481916026E+04  0.00000000000E+00 0. -1.
          5    1    1    2  502    0  0.53673609167E+01  0.87378402499E+02 -0.11046867743E+04  0.11081600756E+04  0.47000000000E+01 0. -1.
         -5    1    1    2    0  502 -0.12110651284E+02  0.37300757420E+02 -0.47578400756E+02  0.61836951713E+02  0.47000000000E+01 0.  1.
        -11    1    1    2    0    0  0.35019418439E+02 -0.10476009739E+02 -0.84646594018E+02  0.92201693730E+02  0.00000000000E+00 0. -1.
         11    1    1    2    0    0 -0.28276128072E+02 -0.11420315018E+03 -0.28704877068E+03  0.31022394439E+03  0.00000000000E+00 0.  1.
<mgrwt>
<rscale>  0 0.18947260E+03</rscale>
<asrwt>0</asrwt>
<pdfrwt beam="2">  1        2 0.23818343E+00 0.20292366E+03</pdfrwt>
<pdfrwt beam="1">  1       -2 0.37278542E-02 0.20292366E+03</pdfrwt>
<totfact> 0.39182463E+03</totfact>
</mgrwt>
</event>
<event>
 7    1  0.5206756E-006  0.1576646E+03  0.7546771E-02  0.1198771E+00
          2   -1    0    0  501    0  0.00000000000E+00  0.00000000000E+00  0.75127920028E+03  0.75127920028E+03  0.00000000000E+00 0. -1.
         -2   -1    0    0    0  501 -0.00000000000E+00 -0.00000000000E+00 -0.31740558727E+02  0.31740558727E+02  0.00000000000E+00 0.  1.
         23    2    1    2    0    0  0.57444706567E+02  0.77031780782E+02  0.51400859879E+03  0.53764577208E+03  0.12499738815E+03 0.  0.
          5    1    3    3  502    0 -0.27276795502E+02  0.48255894554E+02  0.10381506457E+03  0.11778078181E+03  0.47000000000E+01 0.  1.
         -5    1    3    3    0  502  0.84721502069E+02  0.28775886228E+02  0.41019353422E+03  0.41986499027E+03  0.47000000000E+01 0.  1.
        -11    1    1    2    0    0 -0.27109875963E+02 -0.26896424225E+02  0.75809865220E+01  0.38933717617E+02  0.00000000000E+00 0.  1.
         11    1    1    2    0    0 -0.30334830604E+02 -0.50135356557E+02  0.19794905624E+03  0.20644026931E+03  0.00000000000E+00 0. -1.
<mgrwt>
<rscale>  0 0.15139325E+03</rscale>
<asrwt>0</asrwt>
<pdfrwt beam="1">  1        2 0.11558140E+00 0.15766463E+03</pdfrwt>
<pdfrwt beam="2">  1       -2 0.48831634E-02 0.15766463E+03</pdfrwt>
<totfact> 0.75760472E+03</totfact>
</mgrwt>
</event>
<event>
 7    1  0.5206756E-006  0.1414536E+03  0.7546771E-02  0.1222011E+00
          1   -1    0    0  501    0  0.00000000000E+00  0.00000000000E+00  0.66548230851E+03  0.66548230851E+03  0.00000000000E+00 0. -1.
         -1   -1    0    0    0  501 -0.00000000000E+00 -0.00000000000E+00 -0.44469510950E+02  0.44469510950E+02  0.00000000000E+00 0.  1.
         23    2    1    2    0    0  0.62442006555E+02  0.22068803099E+02  0.56755865348E+03  0.58492045134E+03  0.12499229176E+03 0.  0.
          5    1    3    3  502    0  0.94413319151E+02  0.24576848140E+02  0.50609876607E+03  0.51543762699E+03  0.47000000000E+01 0. -1.
         -5    1    3    3    0  502 -0.31971312597E+02 -0.25080450413E+01  0.61459887406E+02  0.69482824345E+02  0.47000000000E+01 0. -1.
        -11    1    1    2    0    0 -0.64101418916E+01  0.18212593170E+02  0.52584882981E+02  0.56017482870E+02  0.00000000000E+00 0. -1.
         11    1    1    2    0    0 -0.56031864663E+02 -0.40281396268E+02  0.86926110178E+00  0.69013885254E+02  0.00000000000E+00 0.  1.
<mgrwt>
<rscale>  0 0.13373887E+03</rscale>
<asrwt>0</asrwt>
<pdfrwt beam="1">  1        1 0.10238189E+00 0.14145356E+03</pdfrwt>
<pdfrwt beam="2">  1       -1 0.68414637E-02 0.14145356E+03</pdfrwt>
<totfact> 0.32471647E+03</totfact>
</mgrwt>
</event>
<event>
 7    1  0.5206756E-006  0.1263544E+03  0.7546771E-02  0.1248694E+00
          1   -1    0    0  501    0  0.00000000000E+00  0.00000000000E+00  0.22142511888E+03  0.22142511888E+03  0.00000000000E+00 0. -1.
         -1   -1    0    0    0  501 -0.00000000000E+00 -0.00000000000E+00 -0.53885141740E+02  0.53885141740E+02  0.00000000000E+00 0.  1.
         23    2    1    2    0    0  0.11056803180E+02 -0.14753061457E+02  0.10363791393E+03  0.16342047483E+03  0.12500211467E+03 0.  0.
          5    1    3    3  502    0  0.10935862507E+02 -0.52169635188E+02  0.40125529093E+00  0.53511820472E+02  0.47000000000E+01 0. -1.
         -5    1    3    3    0  502  0.12094067259E+00  0.37416573732E+02  0.10323665864E+03  0.10990865436E+03  0.47000000000E+01 0. -1.
        -11    1    1    2    0    0  0.57347639104E+01 -0.20474597374E+02 -0.13514047427E+02  0.25193771702E+02  0.00000000000E+00 0.  1.
         11    1    1    2    0    0 -0.16791567090E+02  0.35227658831E+02  0.77416110639E+02  0.86696014086E+02  0.00000000000E+00 0. -1.
<mgrwt>
<rscale>  0 0.11666992E+03</rscale>
<asrwt>0</asrwt>
<pdfrwt beam="1">  1        1 0.34065402E-01 0.12635440E+03</pdfrwt>
<pdfrwt beam="2">  1       -1 0.82900219E-02 0.12635440E+03</pdfrwt>
<totfact> 0.98521955E+03</totfact>
</mgrwt>
</event>
<event>
 7    1  0.5206756E-006  0.1762411E+03  0.7546771E-02  0.1177272E+00
          2   -1    0    0  501    0  0.00000000000E+00  0.00000000000E+00  0.24004462920E+03  0.24004462920E+03  0.00000000000E+00 0. -1.
         -2   -1    0    0    0  501 -0.00000000000E+00 -0.00000000000E+00 -0.11524233923E+03  0.11524233923E+03  0.00000000000E+00 0.  1.
         23    2    1    2    0    0  0.58713996203E+02 -0.10950491789E+03  0.85044924715E+02  0.19568745627E+03  0.12498912324E+03 0.  0.
          5    1    3    3  502    0  0.12111508540E+02 -0.12400564384E+03  0.75418218055E+02  0.14571920244E+03  0.47000000000E+01 0.  1.
         -5    1    3    3    0  502  0.46602487662E+02  0.14500725956E+02  0.96267066603E+01  0.49968253829E+02  0.47000000000E+01 0.  1.
        -11    1    1    2    0    0  0.60597247478E+01  0.78477732329E+02  0.26440931905E+01  0.78755736072E+02  0.00000000000E+00 0.  1.
         11    1    1    2    0    0 -0.64773720950E+02  0.31027185558E+02  0.37113272062E+02  0.80843776090E+02  0.00000000000E+00 0. -1.
<mgrwt>
<rscale>  0 0.17055348E+03</rscale>
<asrwt>0</asrwt>
<pdfrwt beam="1">  1        2 0.36929943E-01 0.17624115E+03</pdfrwt>
<pdfrwt beam="2">  1       -2 0.17729591E-01 0.17624115E+03</pdfrwt>
<totfact> 0.35184771E+03</totfact>
</mgrwt>
</event>
<event>
 7    1  0.5206756E-006  0.1449751E+03  0.7546771E-02  0.1211770E+00
         -2   -1    0    0    0  501 -0.00000000000E+00  0.00000000000E+00  0.13411348616E+03  0.13411348616E+03  0.00000000000E+00 0.  1.
          2   -1    0    0  501    0  0.00000000000E+00 -0.00000000000E+00 -0.15524850289E+03  0.15524850289E+03  0.00000000000E+00 0. -1.
         23    2    1    2    0    0  0.29326414644E+02  0.67335915602E+02 -0.54423547055E+02  0.15485383390E+03  0.12499449298E+03 0.  0.
          5    1    3    3  502    0  0.69462950416E+02  0.61419020043E+02 -0.64177226065E+02  0.11286365158E+03  0.47000000000E+01 0. -1.
         -5    1    3    3    0  502 -0.40136535773E+02  0.59168955582E+01  0.97536790104E+01  0.41990182318E+02  0.47000000000E+01 0. -1.
        -11    1    1    2    0    0 -0.59088236799E+01 -0.22229002402E+02  0.68776676745E+02  0.72520852236E+02  0.00000000000E+00 0.  1.
         11    1    1    2    0    0 -0.23417590964E+02 -0.45106913200E+02 -0.35488146425E+02  0.61987302907E+02  0.00000000000E+00 0. -1.
<mgrwt>
<rscale>  0 0.14116471E+03</rscale>
<asrwt>0</asrwt>
<pdfrwt beam="2">  1        2 0.23884385E-01 0.14497513E+03</pdfrwt>
<pdfrwt beam="1">  1       -2 0.20632844E-01 0.14497513E+03</pdfrwt>
<totfact> 0.43371581E+03</totfact>
</mgrwt>
</event>
<event>
 7    1  0.5206756E-006  0.1357415E+03  0.7546771E-02  0.1232260E+00
         -1   -1    0    0    0  501 -0.00000000000E+00  0.00000000000E+00  0.49282437883E+03  0.49282437883E+03  0.00000000000E+00 0.  1.
          1   -1    0    0  501    0  0.00000000000E+00 -0.00000000000E+00 -0.35339653578E+02  0.35339653578E+02  0.00000000000E+00 0. -1.
         23    2    1    2    0    0  0.88223333047E+01  0.52243553093E+02  0.14322833121E+03  0.19733250081E+03  0.12497415176E+03 0.  0.
          5    1    3    3  502    0 -0.21276018295E+00  0.92537426473E+02  0.84611701769E+02  0.12547689286E+03  0.47000000000E+01 0.  1.
         -5    1    3    3    0  502  0.90350934876E+01 -0.40293873380E+02  0.58616629442E+02  0.71855607947E+02  0.47000000000E+01 0.  1.
        -11    1    1    2    0    0 -0.47340821122E+02 -0.18492225277E+02  0.18334548900E+03  0.19025951771E+03  0.00000000000E+00 0. -1.
         11    1    1    2    0    0  0.38518487817E+02 -0.33751327816E+02  0.13091090504E+03  0.14057201390E+03  0.00000000000E+00 0.  1.
<mgrwt>
<rscale>  0 0.12681454E+03</rscale>
<asrwt>0</asrwt>
<pdfrwt beam="2">  1        1 0.54368701E-02 0.13574152E+03</pdfrwt>
<pdfrwt beam="1">  1       -1 0.75819130E-01 0.13574152E+03</pdfrwt>
<totfact> 0.26098514E+03</totfact>
</mgrwt>
</event>
<event>
 7    1  0.5206756E-006  0.1310535E+03  0.7546771E-02  0.1238779E+00
         -1   -1    0    0    0  501 -0.00000000000E+00  0.00000000000E+00  0.85777721199E+02  0.85777721199E+02  0.00000000000E+00 0.  1.
          1   -1    0    0  501    0  0.00000000000E+00 -0.00000000000E+00 -0.15742758997E+03  0.15742758997E+03  0.00000000000E+00 0. -1.
         23    2    1    2    0    0 -0.21774757730E+02  0.32807601234E+02 -0.50514041225E+02  0.14045174003E+03  0.12499817656E+03 0.  0.
          5    1    3    3  502    0 -0.49515514457E+02 -0.15176379495E+02  0.15370590912E+02  0.54225950720E+02  0.47000000000E+01 0.  1.
         -5    1    3    3    0  502  0.27740756727E+02  0.47983980729E+02 -0.65884632136E+02  0.86225789310E+02  0.47000000000E+01 0.  1.
        -11    1    1    2    0    0  0.38383089371E+02  0.19838300669E+02 -0.19816391536E+02  0.47534293900E+02  0.00000000000E+00 0. -1.
         11    1    1    2    0    0 -0.16608331641E+02 -0.52645901903E+02 -0.13194360084E+01  0.55219277236E+02  0.00000000000E+00 0.  1.
<mgrwt>
<rscale>  0 0.12265601E+03</rscale>
<asrwt>0</asrwt>
<pdfrwt beam="2">  1        1 0.24219629E-01 0.13105351E+03</pdfrwt>
<pdfrwt beam="1">  1       -1 0.13196573E-01 0.13105351E+03</pdfrwt>
<totfact> 0.74224904E+03</totfact>
</mgrwt>
</event>
<event>
 7    1  0.5206756E-006  0.1923090E+03  0.7546771E-02  0.1161273E+00
          2   -1    0    0  501    0  0.00000000000E+00  0.00000000000E+00  0.61905121738E+03  0.61905121738E+03  0.00000000000E+00 0. -1.
         -2   -1    0    0    0  501 -0.00000000000E+00 -0.00000000000E+00 -0.61096038759E+02  0.61096038759E+02  0.00000000000E+00 0.  1.
         23    2    1    2    0    0  0.13517987380E+03  0.55551547531E+02  0.17302968419E+03  0.25869289640E+03  0.12499268109E+03 0.  0.
          5    1    3    3  502    0  0.41437493501E+00 -0.30854473166E+02  0.38268165288E+02  0.49383324062E+02  0.47000000000E+01 0.  1.
         -5    1    3    3    0  502  0.13476549886E+03  0.86406020697E+02  0.13476151890E+03  0.20930957234E+03  0.47000000000E+01 0.  1.
        -11    1    1    2    0    0 -0.90761773152E+02 -0.57169640744E+02  0.16304629744E+03  0.19516701155E+03  0.00000000000E+00 0. -1.
         11    1    1    2    0    0 -0.44418100648E+02  0.16180932137E+01  0.22187919699E+03  0.22628734819E+03  0.00000000000E+00 0.  1.
<mgrwt>
<rscale>  0 0.18691607E+03</rscale>
<asrwt>0</asrwt>
<pdfrwt beam="1">  1        2 0.95238645E-01 0.19230898E+03</pdfrwt>
<pdfrwt beam="2">  1       -2 0.93993910E-02 0.19230898E+03</pdfrwt>
<totfact> 0.35138719E+03</totfact>
</mgrwt>
</event>
<event>
 7    1  0.5206756E-006  0.1366713E+03  0.7546771E-02  0.1229637E+00
         -2   -1    0    0    0  501 -0.00000000000E+00  0.00000000000E+00  0.20953755926E+02  0.20953755926E+02  0.00000000000E+00 0.  1.
          2   -1    0    0  501    0  0.00000000000E+00 -0.00000000000E+00 -0.11831661067E+04  0.11831661067E+04  0.00000000000E+00 0. -1.
         23    2    1    2    0    0  0.49156272360E+02  0.25289392490E+02 -0.10033648104E+04  0.10126302334E+04  0.12499261741E+03 0.  0.
          5    1    3    3  502    0  0.91055959737E+00 -0.38320463273E+02 -0.60981849669E+03  0.61104007719E+03  0.47000000000E+01 0. -1.
         -5    1    3    3    0  502  0.48245712762E+02  0.63609855763E+02 -0.39354631372E+03  0.40159015624E+03  0.47000000000E+01 0. -1.
        -11    1    1    2    0    0 -0.71814256029E+02 -0.87557509886E+01 -0.80296302271E+02  0.10808074159E+03  0.00000000000E+00 0.  1.
         11    1    1    2    0    0  0.22657983669E+02 -0.16533641501E+02 -0.78551238093E+02  0.83408887604E+02  0.00000000000E+00 0. -1.
<mgrwt>
<rscale>  0 0.12854081E+03</rscale>
<asrwt>0</asrwt>
<pdfrwt beam="2">  1        2 0.18202557E+00 0.13667131E+03</pdfrwt>
<pdfrwt beam="1">  1       -2 0.32236545E-02 0.13667131E+03</pdfrwt>
<totfact> 0.75639495E+03</totfact>
</mgrwt>
</event>
<event>
 7    1  0.5206756E-006  0.1342604E+03  0.7546771E-02  0.1234229E+00
         -2   -1    0    0    0  501 -0.00000000000E+00  0.00000000000E+00  0.14042046093E+02  0.14042046093E+02  0.00000000000E+00 0.  1.
          2   -1    0    0  501    0  0.00000000000E+00 -0.00000000000E+00 -0.17381489929E+04  0.17381489929E+04  0.00000000000E+00 0. -1.
         23    2    1    2    0    0  0.34752724296E+02  0.34514136730E+02 -0.14965570193E+04  0.15025673934E+04  0.12500752914E+03 0.  0.
          5    1    3    3  502    0  0.19174044561E+02 -0.43331814026E+02 -0.34544275190E+03  0.34870915521E+03  0.47000000000E+01 0. -1.
         -5    1    3    3    0  502  0.15578679735E+02  0.77845950756E+02 -0.11511142674E+04  0.11538582382E+04  0.47000000000E+01 0. -1.
        -11    1    1    2    0    0 -0.49821655197E+02  0.14001482116E+02 -0.11965220932E+03  0.13036445076E+03  0.00000000000E+00 0.  1.
         11    1    1    2    0    0  0.15068930901E+02 -0.48515618845E+02 -0.10789771817E+03  0.11925919477E+03  0.00000000000E+00 0. -1.
<mgrwt>
<rscale>  0 0.12553938E+03</rscale>
<asrwt>0</asrwt>
<pdfrwt beam="2">  1        2 0.26740754E+00 0.13426042E+03</pdfrwt>
<pdfrwt beam="1">  1       -2 0.21603148E-02 0.13426042E+03</pdfrwt>
<totfact> 0.69261329E+03</totfact>
</mgrwt>
</event>
<event>
 7    1  0.5206756E-006  0.1582972E+03  0.7546771E-02  0.1195799E+00
          1   -1    0    0  501    0  0.00000000000E+00  0.00000000000E+00  0.58164498198E+02  0.58164498198E+02  0.00000000000E+00 0. -1.
         -1   -1    0    0    0  501 -0.00000000000E+00 -0.00000000000E+00 -0.80943706922E+03  0.80943706922E+03  0.00000000000E+00 0.  1.
         23    2    1    2    0    0 -0.77533533510E+02 -0.72876431527E+02 -0.72206105795E+02  0.17398774182E+03  0.11719893131E+03 0.  0.
          5    1    3    3  502    0  0.29310108441E+02 -0.25250390827E+01 -0.19156675760E+02  0.35419295665E+02  0.47000000000E+01 0. -1.
         -5    1    3    3    0  502 -0.10684364195E+03 -0.70351392444E+02 -0.53049430034E+02  0.13856844616E+03  0.47000000000E+01 0.  1.
        -11    1    1    2    0    0  0.94189143946E+02  0.79443841097E+02 -0.58029574155E+03  0.59323356815E+03  0.00000000000E+00 0.  1.
         11    1    1    2    0    0 -0.16655610436E+02 -0.65674095704E+01 -0.98770723685E+02  0.10038025744E+03  0.00000000000E+00 0. -1.
<mgrwt>
<rscale>  0 0.15386831E+03</rscale>
<asrwt>0</asrwt>
<pdfrwt beam="1">  1        1 0.89483853E-02 0.15829723E+03</pdfrwt>
<pdfrwt beam="2">  1       -1 0.12452877E+00 0.15829723E+03</pdfrwt>
<totfact> 0.45121333E+02</totfact>
</mgrwt>
</event>
<event>
 7    1  0.5206756E-006  0.1322721E+03  0.7546771E-02  0.1237772E+00
          1   -1    0    0  501    0  0.00000000000E+00  0.00000000000E+00  0.27784259612E+03  0.27784259612E+03  0.00000000000E+00 0. -1.
         -1   -1    0    0    0  501 -0.00000000000E+00 -0.00000000000E+00 -0.49797945577E+02  0.49797945577E+02  0.00000000000E+00 0.  1.
         23    2    1    2    0    0  0.33599336869E+02 -0.27230618268E+02  0.15600626612E+03  0.20453325017E+03  0.12500189339E+03 0.  0.
          5    1    3    3  502    0  0.63968136541E+02 -0.17050169298E+01  0.15125664175E+03  0.16430304698E+03  0.47000000000E+01 0. -1.
         -5    1    3    3    0  502 -0.30368799672E+02 -0.25525601338E+02  0.47496243685E+01  0.40230203191E+02  0.47000000000E+01 0. -1.
        -11    1    1    2    0    0  0.75577214292E+01 -0.19927623899E+02 -0.68660062453E+01  0.22391323972E+02  0.00000000000E+00 0.  1.
         11    1    1    2    0    0 -0.41157058298E+02  0.47158242167E+02  0.78904390670E+02  0.10071596755E+03  0.00000000000E+00 0. -1.
<mgrwt>
<rscale>  0 0.12328649E+03</rscale>
<asrwt>0</asrwt>
<pdfrwt beam="1">  1        1 0.42745014E-01 0.13227205E+03</pdfrwt>
<pdfrwt beam="2">  1       -1 0.76612226E-02 0.13227205E+03</pdfrwt>
<totfact> 0.84128307E+03</totfact>
</mgrwt>
</event>
<event>
 7    1  0.5206756E-006  0.1555123E+03  0.7546771E-02  0.1202281E+00
         -2   -1    0    0    0  501 -0.00000000000E+00  0.00000000000E+00  0.74626649172E+02  0.74626649172E+02  0.00000000000E+00 0.  1.
          2   -1    0    0  501    0  0.00000000000E+00 -0.00000000000E+00 -0.28525347468E+03  0.28525347468E+03  0.00000000000E+00 0. -1.
         23    2    1    2    0    0  0.72917897009E+02  0.56955609357E+02 -0.15312795600E+03  0.21824815654E+03  0.12499250290E+03 0.  0.
          5    1    3    3  502    0  0.31406045628E+01 -0.37819410063E+01  0.20422699153E+02  0.21525406280E+02  0.47000000000E+01 0. -1.
         -5    1    3    3    0  502  0.69777292446E+02  0.60737550363E+02 -0.17355065515E+03  0.19672275026E+03  0.47000000000E+01 0. -1.
        -11    1    1    2    0    0 -0.15912289643E+02 -0.48081635129E+02 -0.66131851485E+02  0.83297457219E+02  0.00000000000E+00 0. -1.
         11    1    1    2    0    0 -0.57005607366E+02 -0.88739742273E+01  0.86329819803E+01  0.58334510092E+02  0.00000000000E+00 0.  1.
<mgrwt>
<rscale>  0 0.14853774E+03</rscale>
<asrwt>0</asrwt>
<pdfrwt beam="2">  1        2 0.43885150E-01 0.15551234E+03</pdfrwt>
<pdfrwt beam="1">  1       -2 0.11481023E-01 0.15551234E+03</pdfrwt>
<totfact> 0.59106252E+03</totfact>
</mgrwt>
</event>
<event>
 7    1  0.5503349E-006  0.2470683E+03  0.7546771E-02  0.1117539E+00
          3   -1    0    0  501    0  0.00000000000E+00  0.00000000000E+00  0.31868145807E+03  0.31868145807E+03  0.00000000000E+00 0. -1.
         -3   -1    0    0    0  501 -0.00000000000E+00 -0.00000000000E+00 -0.18284852116E+03  0.18284852116E+03  0.00000000000E+00 0.  1.
         23    2    1    2    0    0 -0.18027223982E+03 -0.11366597546E+03  0.97546469457E+02  0.26562767489E+03  0.12499885414E+03 0.  0.
          5    1    3    3  502    0 -0.18417161553E+03 -0.90006272744E+02  0.48303205050E+02  0.21065517492E+03  0.47000000000E+01 0. -1.
         -5    1    3    3    0  502  0.38993757116E+01 -0.23659702719E+02  0.49243264407E+02  0.54972499972E+02  0.47000000000E+01 0. -1.
        -11    1    1    2    0    0  0.78537889381E+02  0.50918059063E+02 -0.29941170200E+02  0.98271676896E+02  0.00000000000E+00 0.  1.
         11    1    1    2    0    0  0.10173435044E+03  0.62747916400E+02  0.68227637656E+02  0.13763062745E+03  0.00000000000E+00 0. -1.
<mgrwt>
<rscale>  0 0.24341465E+03</rscale>
<asrwt>0</asrwt>
<pdfrwt beam="1">  1        3 0.49027917E-01 0.24706831E+03</pdfrwt>
<pdfrwt beam="2">  1       -3 0.28130542E-01 0.24706831E+03</pdfrwt>
<totfact> 0.12518447E+02</totfact>
</mgrwt>
</event>
<event>
 7    1  0.5206756E-006  0.1251414E+03  0.7546771E-02  0.1261396E+00
         -1   -1    0    0    0  501 -0.00000000000E+00  0.00000000000E+00  0.37574644323E+02  0.37574644323E+02  0.00000000000E+00 0.  1.
          1   -1    0    0  501    0  0.00000000000E+00 -0.00000000000E+00 -0.39202832319E+03  0.39202832319E+03  0.00000000000E+00 0. -1.
         23    2    1    2    0    0 -0.58672344656E+01 -0.11098740498E+01 -0.32869841292E+03  0.35171438642E+03  0.12499882679E+03 0.  0.
          5    1    3    3  502    0 -0.11734701251E+02  0.20912599492E+02 -0.23628695567E+01  0.24550217586E+02  0.47000000000E+01 0. -1.
         -5    1    3    3    0  502  0.58674667857E+01 -0.22022473542E+02 -0.32633554336E+03  0.32716416883E+03  0.47000000000E+01 0. -1.
        -11    1    1    2    0    0 -0.73753460199E+00  0.32642720297E+02 -0.31262227363E+02  0.45204181282E+02  0.00000000000E+00 0. -1.
         11    1    1    2    0    0  0.66047690676E+01 -0.31532846247E+02  0.55069614161E+01  0.32684399810E+02  0.00000000000E+00 0.  1.
<mgrwt>
<rscale>  0 0.10955521E+03</rscale>
<asrwt>0</asrwt>
<pdfrwt beam="2">  1        1 0.60312051E-01 0.12514137E+03</pdfrwt>
<pdfrwt beam="1">  1       -1 0.57807144E-02 0.12514137E+03</pdfrwt>
<totfact> 0.83223416E+03</totfact>
</mgrwt>
</event>
<event>
 7    1  0.5206756E-006  0.1453709E+03  0.7546771E-02  0.1211946E+00
         -1   -1    0    0    0  501 -0.00000000000E+00  0.00000000000E+00  0.41682169492E+02  0.41682169492E+02  0.00000000000E+00 0.  1.
          1   -1    0    0  501    0  0.00000000000E+00 -0.00000000000E+00 -0.50455756629E+03  0.50455756629E+03  0.00000000000E+00 0. -1.
         23    2    1    2    0    0  0.92041190204E+02  0.52949747670E-01 -0.33297150476E+03  0.36332179165E+03  0.11252163261E+03 0.  0.
          5    1    3    3  502    0  0.88625691699E+02 -0.45171234526E+01 -0.34101149993E+03  0.35240012871E+03  0.47000000000E+01 0. -1.
         -5    1    3    3    0  502  0.34154985050E+01  0.45700732003E+01  0.80399951636E+01  0.10921662938E+02  0.47000000000E+01 0.  1.
        -11    1    1    2    0    0 -0.74816533881E+02 -0.20277454220E+02 -0.36257131823E+02  0.85576097712E+02  0.00000000000E+00 0.  1.
         11    1    1    2    0    0 -0.17224656322E+02  0.20224504472E+02 -0.93646760214E+02  0.97341846424E+02  0.00000000000E+00 0. -1.
<mgrwt>
<rscale>  0 0.14103248E+03</rscale>
<asrwt>0</asrwt>
<pdfrwt beam="2">  1        1 0.77624246E-01 0.14537091E+03</pdfrwt>
<pdfrwt beam="1">  1       -1 0.64126411E-02 0.14537091E+03</pdfrwt>
<totfact> 0.52103506E+03</totfact>
</mgrwt>
</event>
<event>
 7    1  0.5206756E-006  0.1278274E+03  0.7546771E-02  0.1244637E+00
          2   -1    0    0  501    0  0.00000000000E+00  0.00000000000E+00  0.11402361262E+04  0.11402361262E+04  0.00000000000E+00 0. -1.
         -2   -1    0    0    0  501 -0.00000000000E+00 -0.00000000000E+00 -0.11266191335E+02  0.11266191335E+02  0.00000000000E+00 0.  1.
         23    2    1    2    0    0 -0.16611645402E+02 -0.21421294514E+02  0.72857020881E+03  0.73969885317E+03  0.12492007686E+03 0.  0.
          5    1    3    3  502    0 -0.58031412667E+02  0.46647975690E+00  0.59929654557E+03  0.60211817942E+03  0.47000000000E+01 0.  1.
         -5    1    3    3    0  502  0.41419767265E+02 -0.21887774271E+02  0.12927366324E+03  0.13758067375E+03  0.47000000000E+01 0.  1.
        -11    1    1    2    0    0  0.48266949075E+02 -0.49760400777E+01  0.28854127522E+03  0.29259276623E+03  0.00000000000E+00 0. -1.
         11    1    1    2    0    0 -0.31655303673E+02  0.26397334592E+02  0.11185845085E+03  0.11921069814E+03  0.00000000000E+00 0.  1.
<mgrwt>
<rscale>  0 0.11907126E+03</rscale>
<asrwt>0</asrwt>
<pdfrwt beam="1">  1        2 0.17542085E+00 0.12782740E+03</pdfrwt>
<pdfrwt beam="2">  1       -2 0.17332611E-02 0.12782740E+03</pdfrwt>
<totfact> 0.19680671E+04</totfact>
</mgrwt>
</event>
<event>
 7    1  0.5206756E-006  0.2521167E+03  0.7546771E-02  0.1114926E+00
          2   -1    0    0  501    0  0.00000000000E+00  0.00000000000E+00  0.55665208769E+03  0.55665208769E+03  0.00000000000E+00 0. -1.
         -2   -1    0    0    0  501 -0.00000000000E+00 -0.00000000000E+00 -0.10702136701E+03  0.10702136701E+03  0.00000000000E+00 0.  1.
         23    2    1    2    0    0 -0.18270494670E+03  0.12065199575E+03  0.26363413060E+03  0.36478186407E+03  0.12499940762E+03 0.  0.
          5    1    3    3  502    0 -0.13853563815E+02 -0.24979692505E+02  0.34288530775E+02  0.44874264459E+02  0.47000000000E+01 0.  1.
         -5    1    3    3    0  502 -0.16885138289E+03  0.14563168826E+03  0.22934559983E+03  0.31990759961E+03  0.47000000000E+01 0.  1.
        -11    1    1    2    0    0  0.42718715933E+02 -0.71942986587E+02  0.86682785854E+02  0.12047650133E+03  0.00000000000E+00 0. -1.
         11    1    1    2    0    0  0.13998623077E+03 -0.48709009163E+02  0.99313804225E+02  0.17841508930E+03  0.00000000000E+00 0.  1.
<mgrwt>
<rscale>  0 0.24745191E+03</rscale>
<asrwt>0</asrwt>
<pdfrwt beam="1">  1        2 0.85638782E-01 0.25211675E+03</pdfrwt>
<pdfrwt beam="2">  1       -2 0.16464826E-01 0.25211675E+03</pdfrwt>
<totfact> 0.16099827E+03</totfact>
</mgrwt>
</event>
<event>
 7    1  0.5206756E-006  0.1395043E+03  0.7546771E-02  0.1228394E+00
          1   -1    0    0  501    0  0.00000000000E+00  0.00000000000E+00  0.56785665235E+03  0.56785665235E+03  0.00000000000E+00 0. -1.
         -1   -1    0    0    0  501 -0.00000000000E+00 -0.00000000000E+00 -0.26040188144E+02  0.26040188144E+02  0.00000000000E+00 0.  1.
         23    2    1    2    0    0 -0.17251337934E+02 -0.59461997549E+02  0.33062165624E+03  0.35884833828E+03  0.12501244936E+03 0.  0.
          5    1    3    3  502    0 -0.49428458599E+02 -0.63709726099E+02  0.11374796998E+03  0.13950911223E+03  0.47000000000E+01 0. -1.
         -5    1    3    3    0  502  0.32177120665E+02  0.42477285497E+01  0.21687368626E+03  0.21933922605E+03  0.47000000000E+01 0. -1.
        -11    1    1    2    0    0 -0.12014343973E+02  0.70630496737E+02  0.15356793902E+03  0.16945832357E+03  0.00000000000E+00 0. -1.
         11    1    1    2    0    0  0.29265681906E+02 -0.11168499188E+02  0.57626868940E+02  0.65590178650E+02  0.00000000000E+00 0.  1.
<mgrwt>
<rscale>  0 0.12936942E+03</rscale>
<asrwt>0</asrwt>
<pdfrwt beam="1">  1        1 0.87362553E-01 0.13950430E+03</pdfrwt>
<pdfrwt beam="2">  1       -1 0.40061832E-02 0.13950430E+03</pdfrwt>
<totfact> 0.89251271E+03</totfact>
</mgrwt>
</event>
<event>
 7    1  0.5206756E-006  0.1275873E+03  0.7546771E-02  0.1245047E+00
         -2   -1    0    0    0  501 -0.00000000000E+00  0.00000000000E+00  0.30943665935E+02  0.30943665935E+02  0.00000000000E+00 0.  1.
          2   -1    0    0  501    0  0.00000000000E+00 -0.00000000000E+00 -0.40720388565E+03  0.40720388565E+03  0.00000000000E+00 0. -1.
         23    2    1    2    0    0  0.10353640281E+02  0.23343970394E+02 -0.23418847067E+03  0.26668850337E+03  0.12500551673E+03 0.  0.
          5    1    3    3  502    0  0.36767340492E+02  0.31893683828E+02 -0.23726891632E+02  0.54351630900E+02  0.47000000000E+01 0. -1.
         -5    1    3    3    0  502 -0.26413700211E+02 -0.85497134338E+01 -0.21046157903E+03  0.21233687247E+03  0.47000000000E+01 0. -1.
        -11    1    1    2    0    0 -0.41399021692E+02 -0.86229484914E+01 -0.24287982442E+02  0.48766180175E+02  0.00000000000E+00 0.  1.
         11    1    1    2    0    0  0.31045381412E+02 -0.14721021903E+02 -0.11778376660E+03  0.12269286804E+03  0.00000000000E+00 0. -1.
<mgrwt>
<rscale>  0 0.11882575E+03</rscale>
<asrwt>0</asrwt>
<pdfrwt beam="2">  1        2 0.62646753E-01 0.12758730E+03</pdfrwt>
<pdfrwt beam="1">  1       -2 0.47605639E-02 0.12758730E+03</pdfrwt>
<totfact> 0.15482906E+04</totfact>
</mgrwt>
</event>
<event>
 7    1  0.5206756E-006  0.1819380E+03  0.7546771E-02  0.1171034E+00
          1   -1    0    0  501    0  0.00000000000E+00  0.00000000000E+00  0.29005532884E+03  0.29005532884E+03  0.00000000000E+00 0. -1.
         -1   -1    0    0    0  501 -0.00000000000E+00 -0.00000000000E+00 -0.12970685297E+03  0.12970685297E+03  0.00000000000E+00 0.  1.
         23    2    1    2    0    0 -0.13120775243E+03 -0.16081394787E+02 -0.13224596545E+02  0.18241804469E+03  0.12500946972E+03 0.  0.
          5    1    3    3  502    0 -0.14452785904E+03 -0.24898165772E+02  0.17198326218E+02  0.14773656664E+03  0.47000000000E+01 0.  1.
         -5    1    3    3    0  502  0.13320106610E+02  0.88167709849E+01 -0.30422922762E+02  0.34681478056E+02  0.47000000000E+01 0.  1.
        -11    1    1    2    0    0  0.14588648768E+03  0.17645486525E+02  0.15447300137E+03  0.21320445266E+03  0.00000000000E+00 0.  1.
         11    1    1    2    0    0 -0.14678735252E+02 -0.15640917383E+01  0.19100071041E+02  0.24139684449E+02  0.00000000000E+00 0. -1.
<mgrwt>
<rscale>  0 0.17670136E+03</rscale>
<asrwt>0</asrwt>
<pdfrwt beam="1">  1        1 0.44623896E-01 0.18193805E+03</pdfrwt>
<pdfrwt beam="2">  1       -1 0.19954901E-01 0.18193805E+03</pdfrwt>
<totfact> 0.18295978E+03</totfact>
</mgrwt>
</event>
<event>
 7    1  0.5206756E-006  0.1679307E+03  0.7546771E-02  0.1186785E+00
          2   -1    0    0  501    0  0.00000000000E+00  0.00000000000E+00  0.83062838832E+02  0.83062838832E+02  0.00000000000E+00 0. -1.
         -2   -1    0    0    0  501 -0.00000000000E+00 -0.00000000000E+00 -0.30279817772E+03  0.30279817772E+03  0.00000000000E+00 0.  1.
         23    2    1    2    0    0  0.46046081955E+02  0.10225384583E+03 -0.84307392346E+02  0.18790547743E+03  0.12499856556E+03 0.  0.
          5    1    3    3  502    0  0.70100006519E+01  0.23610786944E+02  0.32912274741E+02  0.41375321121E+02  0.47000000000E+01 0. -1.
         -5    1    3    3    0  502  0.39036081303E+02  0.78643058889E+02 -0.11721966709E+03  0.14653015631E+03  0.47000000000E+01 0. -1.
        -11    1    1    2    0    0 -0.59717942136E+02 -0.56664461041E+02 -0.12427936517E+03  0.14907197713E+03  0.00000000000E+00 0.  1.
         11    1    1    2    0    0  0.13671860181E+02 -0.45589384792E+02 -0.11148581364E+02  0.48883561991E+02  0.00000000000E+00 0. -1.
<mgrwt>
<rscale>  0 0.16170544E+03</rscale>
<asrwt>0</asrwt>
<pdfrwt beam="1">  1        2 0.12778898E-01 0.16793074E+03</pdfrwt>
<pdfrwt beam="2">  1       -2 0.46584335E-01 0.16793074E+03</pdfrwt>
<totfact> 0.20457050E+03</totfact>
</mgrwt>
</event>
<event>
 7    1  0.5206756E-006  0.1316515E+03  0.7546771E-02  0.1240172E+00
          1   -1    0    0  501    0  0.00000000000E+00  0.00000000000E+00  0.62980217640E+03  0.62980217640E+03  0.00000000000E+00 0. -1.
         -1   -1    0    0    0  501 -0.00000000000E+00 -0.00000000000E+00 -0.21719088812E+02  0.21719088812E+02  0.00000000000E+00 0.  1.
         23    2    1    2    0    0  0.40616932896E+02 -0.76506325454E+01  0.42018920639E+03  0.44033066249E+03  0.12499542289E+03 0.  0.
          5    1    3    3  502    0  0.24095986651E+02  0.10687938480E+02  0.41345013149E+03  0.41431624374E+03  0.47000000000E+01 0.  1.
         -5    1    3    3    0  502  0.16520946245E+02 -0.18338571025E+02  0.67390749029E+01  0.26014418745E+02  0.47000000000E+01 0.  1.
        -11    1    1    2    0    0 -0.23646899895E+02  0.35676551577E+02  0.36376903913E+02  0.56171802049E+02  0.00000000000E+00 0.  1.
         11    1    1    2    0    0 -0.16970033000E+02 -0.28025919032E+02  0.15151697728E+03  0.15501880068E+03  0.00000000000E+00 0. -1.
<mgrwt>
<rscale>  0 0.12179077E+03</rscale>
<asrwt>0</asrwt>
<pdfrwt beam="1">  1        1 0.96892628E-01 0.13165152E+03</pdfrwt>
<pdfrwt beam="2">  1       -1 0.33413988E-02 0.13165152E+03</pdfrwt>
<totfact> 0.10073666E+04</totfact>
</mgrwt>
</event>
<event>
 7    1  0.5206756E-006  0.1772829E+03  0.7546771E-02  0.1175917E+00
          1   -1    0    0  501    0  0.00000000000E+00  0.00000000000E+00  0.14819241217E+03  0.14819241217E+03  0.00000000000E+00 0. -1.
         -1   -1    0    0    0  501 -0.00000000000E+00 -0.00000000000E+00 -0.21953281056E+03  0.21953281056E+03  0.00000000000E+00 0.  1.
         23    2    1    2    0    0 -0.10804748505E+03 -0.64235307152E+02  0.31953853504E+02  0.18013958914E+03  0.12501515552E+03 0.  0.
          5    1    3    3  502    0 -0.54281982873E+02 -0.45043595501E+02  0.79002028825E+02  0.10601353555E+03  0.47000000000E+01 0.  1.
         -5    1    3    3    0  502 -0.53765502175E+02 -0.19191711651E+02 -0.47048175321E+02  0.74126053592E+02  0.47000000000E+01 0.  1.
        -11    1    1    2    0    0 -0.23175506947E+01 -0.15907779890E+02  0.66525189431E+00  0.16089470542E+02  0.00000000000E+00 0. -1.
         11    1    1    2    0    0  0.11036503574E+03  0.80143087042E+02 -0.10395950378E+03  0.17149616305E+03  0.00000000000E+00 0.  1.
<mgrwt>
<rscale>  0 0.17186491E+03</rscale>
<asrwt>0</asrwt>
<pdfrwt beam="1">  1        1 0.22798833E-01 0.17728289E+03</pdfrwt>
<pdfrwt beam="2">  1       -1 0.33774278E-01 0.17728289E+03</pdfrwt>
<totfact> 0.17687497E+03</totfact>
</mgrwt>
</event>
<event>
 7    1  0.5206756E-006  0.1443541E+03  0.7546771E-02  0.1212274E+00
         -1   -1    0    0    0  501 -0.00000000000E+00  0.00000000000E+00  0.24323212452E+03  0.24323212452E+03  0.00000000000E+00 0.  1.
          1   -1    0    0  501    0  0.00000000000E+00 -0.00000000000E+00 -0.14714188482E+03  0.14714188482E+03  0.00000000000E+00 0. -1.
         23    2    1    2    0    0 -0.78761918536E+02 -0.50063507196E+02 -0.84680082051E+02  0.16735839670E+03  0.11012866151E+03 0.  0.
          5    1    3    3  502    0 -0.88067367826E+02 -0.73580757022E+02 -0.52849166841E+02  0.12643224872E+03  0.47000000000E+01 0. -1.
         -5    1    3    3    0  502  0.93054492894E+01  0.23517249826E+02 -0.31830915210E+02  0.40926147986E+02  0.47000000000E+01 0.  1.
        -11    1    1    2    0    0  0.87065929357E+02  0.67971950085E+02  0.15931802446E+03  0.19386308305E+03  0.00000000000E+00 0.  1.
         11    1    1    2    0    0 -0.83040108208E+01 -0.17908442888E+02  0.21452297296E+02  0.29152529593E+02  0.00000000000E+00 0. -1.
<mgrwt>
<rscale>  0 0.14078718E+03</rscale>
<asrwt>0</asrwt>
<pdfrwt beam="2">  1        1 0.22637213E-01 0.14435414E+03</pdfrwt>
<pdfrwt beam="1">  1       -1 0.37420327E-01 0.14435414E+03</pdfrwt>
<totfact> 0.14859059E+03</totfact>
</mgrwt>
</event>
<event>
 7    1  0.5206756E-006  0.1869323E+03  0.7546771E-02  0.1166069E+00
          2   -1    0    0  501    0  0.00000000000E+00  0.00000000000E+00  0.12432109316E+04  0.12432109316E+04  0.00000000000E+00 0. -1.
         -2   -1    0    0    0  501 -0.00000000000E+00 -0.00000000000E+00 -0.29869800373E+02  0.29869800373E+02  0.00000000000E+00 0.  1.
         23    2    1    2    0    0  0.98954270340E+02  0.97609083105E+02  0.88581570335E+03  0.90532489064E+03  0.12499686624E+03 0.  0.
          5    1    3    3  502    0  0.47499320364E+02  0.79271390837E+02  0.78612636109E+03  0.79155346278E+03  0.47000000000E+01 0. -1.
         -5    1    3    3    0  502  0.51454949976E+02  0.18337692268E+02  0.99689342263E+02  0.11377142785E+03  0.47000000000E+01 0. -1.
        -11    1    1    2    0    0 -0.27089368097E+02 -0.85858829001E+02  0.13851122621E+03  0.16519967363E+03  0.00000000000E+00 0. -1.
         11    1    1    2    0    0 -0.71864902244E+02 -0.11750254103E+02  0.18901420165E+03  0.20255616769E+03  0.00000000000E+00 0.  1.
<mgrwt>
<rscale>  0 0.18180369E+03</rscale>
<asrwt>0</asrwt>
<pdfrwt beam="1">  1        2 0.19126318E+00 0.18693233E+03</pdfrwt>
<pdfrwt beam="2">  1       -2 0.45953549E-02 0.18693233E+03</pdfrwt>
<totfact> 0.41718536E+03</totfact>
</mgrwt>
</event>
<event>
 7    1  0.5206756E-006  0.1733995E+03  0.7546771E-02  0.1180382E+00
          1   -1    0    0  501    0  0.00000000000E+00  0.00000000000E+00  0.69263960811E+03  0.69263960811E+03  0.00000000000E+00 0. -1.
         -1   -1    0    0    0  501 -0.00000000000E+00 -0.00000000000E+00 -0.43203318814E+02  0.43203318814E+02  0.00000000000E+00 0.  1.
         23    2    1    2    0    0  0.97352482732E+02  0.70455569754E+02  0.47090735329E+03  0.50181782826E+03  0.12500361665E+03 0.  0.
          5    1    3    3  502    0  0.28423469538E+01 -0.30258967995E+01  0.25355682756E+03  0.25363436240E+03  0.47000000000E+01 0.  1.
         -5    1    3    3    0  502  0.94510135778E+02  0.73481466554E+02  0.21735052573E+03  0.24818346586E+03  0.47000000000E+01 0.  1.
        -11    1    1    2    0    0 -0.70147091093E+02 -0.42401433608E+02  0.17683667424E+03  0.19490947980E+03  0.00000000000E+00 0. -1.
         11    1    1    2    0    0 -0.27205391640E+02 -0.28054136147E+02  0.16922617697E+01  0.39115618864E+02  0.00000000000E+00 0.  1.
<mgrwt>
<rscale>  0 0.16759224E+03</rscale>
<asrwt>0</asrwt>
<pdfrwt beam="1">  1        1 0.10655993E+00 0.17339953E+03</pdfrwt>
<pdfrwt beam="2">  1       -1 0.66466650E-02 0.17339953E+03</pdfrwt>
<totfact> 0.32255400E+03</totfact>
</mgrwt>
</event>
<event>
 7    1  0.5206756E-006  0.1310593E+03  0.7546771E-02  0.1238998E+00
          2   -1    0    0  501    0  0.00000000000E+00  0.00000000000E+00  0.37000493047E+03  0.37000493047E+03  0.00000000000E+00 0. -1.
         -2   -1    0    0    0  501 -0.00000000000E+00 -0.00000000000E+00 -0.40478879556E+02  0.40478879556E+02  0.00000000000E+00 0.  1.
         23    2    1    2    0    0  0.15203984220E+02  0.36309997360E+02  0.25138836398E+03  0.28350068453E+03  0.12500780593E+03 0.  0.
          5    1    3    3  502    0  0.47812847053E+02 -0.20850784852E+02  0.53345133699E+02  0.74757052253E+02  0.47000000000E+01 0. -1.
         -5    1    3    3    0  502 -0.32608862833E+02  0.57160782212E+02  0.19804323028E+03  0.20874363228E+03  0.47000000000E+01 0. -1.
        -11    1    1    2    0    0 -0.13285705701E+02 -0.22505859440E+02  0.98723009589E+02  0.10212373038E+03  0.00000000000E+00 0. -1.
         11    1    1    2    0    0 -0.19182785191E+01 -0.13804137920E+02 -0.20585322655E+02  0.24859395106E+02  0.00000000000E+00 0.  1.
<mgrwt>
<rscale>  0 0.12251944E+03</rscale>
<asrwt>0</asrwt>
<pdfrwt beam="1">  1        2 0.56923833E-01 0.13105926E+03</pdfrwt>
<pdfrwt beam="2">  1       -2 0.62275202E-02 0.13105926E+03</pdfrwt>
<totfact> 0.11465024E+04</totfact>
</mgrwt>
</event>
<event>
 7    1  0.5206756E-006  0.1445542E+03  0.7546771E-02  0.1215287E+00
          2   -1    0    0  501    0  0.00000000000E+00  0.00000000000E+00  0.70025371936E+03  0.70025371936E+03  0.00000000000E+00 0. -1.
         -2   -1    0    0    0  501 -0.00000000000E+00 -0.00000000000E+00 -0.33118348102E+02  0.33118348102E+02  0.00000000000E+00 0.  1.
         23    2    1    2    0    0  0.21621618154E+02 -0.69314730747E+02  0.53207947733E+03  0.55136600760E+03  0.12499551139E+03 0.  0.
          5    1    3    3  502    0  0.70413843994E+02 -0.50451404739E+02  0.39847284335E+03  0.40780651117E+03  0.47000000000E+01 0. -1.
         -5    1    3    3    0  502 -0.48792225840E+02 -0.18863326009E+02  0.13360663398E+03  0.14355949643E+03  0.47000000000E+01 0. -1.
        -11    1    1    2    0    0 -0.15201388867E+02  0.14051581259E+02 -0.12588045424E+02  0.24227836201E+02  0.00000000000E+00 0.  1.
         11    1    1    2    0    0 -0.64202292872E+01  0.55263149488E+02  0.14764393934E+03  0.15777822366E+03  0.00000000000E+00 0. -1.
<mgrwt>
<rscale>  0 0.13855449E+03</rscale>
<asrwt>0</asrwt>
<pdfrwt beam="1">  1        2 0.10773133E+00 0.14455416E+03</pdfrwt>
<pdfrwt beam="2">  1       -2 0.50951310E-02 0.14455416E+03</pdfrwt>
<totfact> 0.76998842E+03</totfact>
</mgrwt>
</event>
<event>
 7    1  0.5206756E-006  0.1272449E+03  0.7546771E-02  0.1242568E+00
         -1   -1    0    0    0  501 -0.00000000000E+00  0.00000000000E+00  0.43425133506E+02  0.43425133506E+02  0.00000000000E+00 0.  1.
          1   -1    0    0  501    0  0.00000000000E+00 -0.00000000000E+00 -0.35311366113E+03  0.35311366113E+03  0.00000000000E+00 0. -1.
         23    2    1    2    0    0  0.21921747194E+02  0.92656863179E+01 -0.24474284232E+03  0.27584474961E+03  0.12499940432E+03 0.  0.
          5    1    3    3  502    0  0.53312356367E+02  0.51544735129E+02 -0.14757573351E+03  0.16522637254E+03  0.47000000000E+01 0.  1.
         -5    1    3    3    0  502 -0.31390609173E+02 -0.42279048811E+02 -0.97167108807E+02  0.11061837707E+03  0.47000000000E+01 0.  1.
        -11    1    1    2    0    0 -0.29719069621E+01  0.44559977746E+02 -0.27780377771E+02  0.52594422108E+02  0.00000000000E+00 0.  1.
         11    1    1    2    0    0 -0.18949840232E+02 -0.53825664064E+02 -0.37165307530E+02  0.68099622910E+02  0.00000000000E+00 0. -1.
<mgrwt>
<rscale>  0 0.12032149E+03</rscale>
<asrwt>0</asrwt>
<pdfrwt beam="2">  1        1 0.54325177E-01 0.12724491E+03</pdfrwt>
<pdfrwt beam="1">  1       -1 0.66807900E-02 0.12724491E+03</pdfrwt>
<totfact> 0.76545311E+03</totfact>
</mgrwt>
</event>
<event>
 7    1  0.5206756E-006  0.1357374E+03  0.7546771E-02  0.1231471E+00
         -2   -1    0    0    0  501 -0.00000000000E+00  0.00000000000E+00  0.11574265707E+02  0.11574265707E+02  0.00000000000E+00 0.  1.
          2   -1    0    0  501    0  0.00000000000E+00 -0.00000000000E+00 -0.17837000632E+04  0.17837000632E+04  0.00000000000E+00 0. -1.
         23    2    1    2    0    0 -0.47215390100E+01  0.52684627856E+02 -0.14520952149E+04  0.14584255785E+04  0.12500676728E+03 0.  0.
          5    1    3    3  502    0  0.58966808806E+02  0.36319937170E+02 -0.80046888491E+03  0.80347292928E+03  0.47000000000E+01 0. -1.
         -5    1    3    3    0  502 -0.63688347816E+02  0.16364690686E+02 -0.65162633002E+03  0.65495264922E+03  0.47000000000E+01 0. -1.
        -11    1    1    2    0    0 -0.18724952978E+02  0.12007383617E+02 -0.23176280701E+02  0.32123840251E+02  0.00000000000E+00 0.  1.
         11    1    1    2    0    0  0.23446491988E+02 -0.64692011473E+02 -0.29685430191E+03  0.30472491020E+03  0.00000000000E+00 0. -1.
<mgrwt>
<rscale>  0 0.12733060E+03</rscale>
<asrwt>0</asrwt>
<pdfrwt beam="2">  1        2 0.27441543E+00 0.13573745E+03</pdfrwt>
<pdfrwt beam="1">  1       -2 0.17806560E-02 0.13573745E+03</pdfrwt>
<totfact> 0.86924325E+03</totfact>
</mgrwt>
</event>
<event>
 7    1  0.5206756E-006  0.1475572E+03  0.7546771E-02  0.1213028E+00
         -2   -1    0    0    0  501 -0.00000000000E+00  0.00000000000E+00  0.11440879357E+03  0.11440879357E+03  0.00000000000E+00 0. -1.
          2   -1    0    0  501    0  0.00000000000E+00 -0.00000000000E+00 -0.16403829168E+03  0.16403829168E+03  0.00000000000E+00 0.  1.
         23    2    1    2    0    0  0.11879757061E+02 -0.77506138526E+02 -0.56278328975E+02  0.15792525372E+03  0.12499922125E+03 0.  0.
          5    1    3    3  502    0 -0.22839092120E+02  0.53758319075E+01  0.26467058151E+02  0.35680791257E+02  0.47000000000E+01 0.  1.
         -5    1    3    3    0  502  0.34718849181E+02 -0.82881970434E+02 -0.82745387126E+02  0.12224446246E+03  0.47000000000E+01 0.  1.
        -11    1    1    2    0    0  0.20863687762E+02 -0.42331675254E+01 -0.19288718744E+02  0.28727475439E+02  0.00000000000E+00 0.  1.
         11    1    1    2    0    0 -0.32743444823E+02  0.81739306051E+02  0.25937549608E+02  0.91794356103E+02  0.00000000000E+00 0. -1.
<mgrwt>
<rscale>  0 0.14022367E+03</rscale>
<asrwt>0</asrwt>
<pdfrwt beam="2">  1        2 0.25236660E-01 0.14755723E+03</pdfrwt>
<pdfrwt beam="1">  1       -2 0.17601353E-01 0.14755723E+03</pdfrwt>
<totfact> 0.53384831E+03</totfact>
</mgrwt>
</event>
<event>
 7    1  0.5206756E-006  0.1440070E+03  0.7546771E-02  0.1225660E+00
         -4   -1    0    0    0  501 -0.00000000000E+00  0.00000000000E+00  0.77753745840E+02  0.77753745840E+02  0.00000000000E+00 0.  1.
          4   -1    0    0  501    0  0.00000000000E+00 -0.00000000000E+00 -0.20048016711E+03  0.20048016711E+03  0.00000000000E+00 0. -1.
         23    2    1    2    0    0  0.19323738882E+02  0.68844989352E+02 -0.10292935476E+03  0.17700981288E+03  0.12499992936E+03 0.  0.
          5    1    3    3  502    0  0.56789749841E+01 -0.95392912398E+01  0.24157374749E+02  0.26998473827E+02  0.47000000000E+01 0.  1.
         -5    1    3    3    0  502  0.13644763898E+02  0.78384280592E+02 -0.12708672951E+03  0.15001133905E+03  0.47000000000E+01 0.  1.
        -11    1    1    2    0    0 -0.43857889252E+01 -0.11690536508E+02 -0.37524416965E+02  0.39547258526E+02  0.00000000000E+00 0. -1.
         11    1    1    2    0    0 -0.14937949957E+02 -0.57154452844E+02  0.17727350458E+02  0.61676841546E+02  0.00000000000E+00 0.  1.
<mgrwt>
<rscale>  0 0.13121742E+03</rscale>
<asrwt>0</asrwt>
<pdfrwt beam="2">  1        4 0.30843103E-01 0.14400702E+03</pdfrwt>
<pdfrwt beam="1">  1       -4 0.11962115E-01 0.14400702E+03</pdfrwt>
<totfact> 0.94208008E+02</totfact>
</mgrwt>
</event>
<event>
 7    1  0.5206756E-006  0.1520598E+03  0.7546771E-02  0.1206352E+00
          2   -1    0    0  501    0  0.00000000000E+00  0.00000000000E+00  0.22277135750E+03  0.22277135750E+03  0.00000000000E+00 0. -1.
         -2   -1    0    0    0  501 -0.00000000000E+00 -0.00000000000E+00 -0.87403818607E+02  0.87403818607E+02  0.00000000000E+00 0.  1.
         23    2    1    2    0    0 -0.57597651952E+02 -0.64659861628E+02  0.79628220238E+02  0.17164744772E+03  0.12499522245E+03 0.  0.
          5    1    3    3  502    0 -0.31330737169E+01 -0.57197180189E+02 -0.17380695617E+02  0.60045917035E+02  0.47000000000E+01 0. -1.
         -5    1    3    3    0  502 -0.54464578235E+02 -0.74626814389E+01  0.97008915855E+02  0.11160153069E+03  0.47000000000E+01 0. -1.
        -11    1    1    2    0    0  0.53370966393E+02 -0.78550250898E+01  0.19599755047E+02  0.57396096303E+02  0.00000000000E+00 0.  1.
         11    1    1    2    0    0  0.42266855593E+01  0.72514886717E+02  0.36139563611E+02  0.81131632083E+02  0.00000000000E+00 0. -1.
<mgrwt>
<rscale>  0 0.14531384E+03</rscale>
<asrwt>0</asrwt>
<pdfrwt beam="1">  1        2 0.34272516E-01 0.15205983E+03</pdfrwt>
<pdfrwt beam="2">  1       -2 0.13446741E-01 0.15205983E+03</pdfrwt>
<totfact> 0.59642985E+03</totfact>
</mgrwt>
</event>
<event>
 7    1  0.5206756E-006  0.1431957E+03  0.7546771E-02  0.1219818E+00
          1   -1    0    0  501    0  0.00000000000E+00  0.00000000000E+00  0.13001753024E+03  0.13001753024E+03  0.00000000000E+00 0. -1.
         -1   -1    0    0    0  501 -0.00000000000E+00 -0.00000000000E+00 -0.15623457756E+03  0.15623457756E+03  0.00000000000E+00 0.  1.
         23    2    1    2    0    0 -0.67496863811E+02  0.17997733030E+02  0.46984641658E+02  0.15070684453E+03  0.12500100566E+03 0.  0.
          5    1    3    3  502    0 -0.64985209924E+02 -0.45501497849E+02  0.25611818289E+02  0.83495622948E+02  0.47000000000E+01 0. -1.
         -5    1    3    3    0  502 -0.25116538875E+01  0.63499230879E+02  0.21372823369E+02  0.67211221580E+02  0.47000000000E+01 0. -1.
        -11    1    1    2    0    0  0.15737364978E+02  0.79317312704E+01 -0.75577901061E+02  0.77605387353E+02  0.00000000000E+00 0.  1.
         11    1    1    2    0    0  0.51759498833E+02 -0.25929464300E+02  0.23762120799E+01  0.57939875925E+02  0.00000000000E+00 0. -1.
<mgrwt>
<rscale>  0 0.13528476E+03</rscale>
<asrwt>0</asrwt>
<pdfrwt beam="1">  1        1 0.20002697E-01 0.14319566E+03</pdfrwt>
<pdfrwt beam="2">  1       -1 0.24036089E-01 0.14319566E+03</pdfrwt>
<totfact> 0.36617088E+03</totfact>
</mgrwt>
</event>
<event>
 7    1  0.5206756E-006  0.1312554E+03  0.7546771E-02  0.1238927E+00
         -2   -1    0    0    0  501 -0.00000000000E+00  0.00000000000E+00  0.16643335190E+02  0.16643335190E+02  0.00000000000E+00 0.  1.
          2   -1    0    0  501    0  0.00000000000E+00 -0.00000000000E+00 -0.10003365190E+04  0.10003365190E+04  0.00000000000E+00 0. -1.
         23    2    1    2    0    0 -0.39237312960E+02  0.66513794410E+01 -0.77034277044E+03  0.78144479201E+03  0.12507666212E+03 0.  0.
          5    1    3    3  502    0 -0.27284290544E+02 -0.39296070542E+02 -0.11878698148E+03  0.12814464733E+03  0.47000000000E+01 0.  1.
         -5    1    3    3    0  502 -0.11953022416E+02  0.45947449983E+02 -0.65155578897E+03  0.65330014468E+03  0.47000000000E+01 0.  1.
        -11    1    1    2    0    0 -0.17857732011E+02  0.12332575329E+02 -0.10808151142E+02  0.24244734231E+02  0.00000000000E+00 0.  1.
         11    1    1    2    0    0  0.57095044972E+02 -0.18983954770E+02 -0.20254226227E+03  0.21129032800E+03  0.00000000000E+00 0. -1.
<mgrwt>
<rscale>  0 0.12256357E+03</rscale>
<asrwt>0</asrwt>
<pdfrwt beam="2">  1        2 0.15389799E+00 0.13125540E+03</pdfrwt>
<pdfrwt beam="1">  1       -2 0.25605121E-02 0.13125540E+03</pdfrwt>
<totfact> 0.13478009E+04</totfact>
</mgrwt>
</event>
<event>
 7    1  0.5206756E-006  0.1719649E+03  0.7546771E-02  0.1182185E+00
         -3   -1    0    0    0  501 -0.00000000000E+00  0.00000000000E+00  0.16008135264E+03  0.16008135264E+03  0.00000000000E+00 0.  1.
          3   -1    0    0  501    0  0.00000000000E+00 -0.00000000000E+00 -0.16114952520E+03  0.16114952520E+03  0.00000000000E+00 0. -1.
         23    2    1    2    0    0 -0.46119113952E+02  0.10871927144E+03  0.61440268942E+01  0.17207464746E+03  0.12500033032E+03 0.  0.
          5    1    3    3  502    0 -0.56991711791E+02  0.87750986806E+01 -0.29959216746E+02  0.65151379401E+02  0.47000000000E+01 0. -1.
         -5    1    3    3    0  502  0.10872597839E+02  0.99944172758E+02  0.36103243641E+02  0.10692326806E+03  0.47000000000E+01 0. -1.
        -11    1    1    2    0    0  0.70496031721E+01 -0.77761582136E+02 -0.41721973379E+02  0.88528433985E+02  0.00000000000E+00 0. -1.
         11    1    1    2    0    0  0.39069510780E+02 -0.30957689303E+02  0.34509773921E+02  0.60627796395E+02  0.00000000000E+00 0.  1.
<mgrwt>
<rscale>  0 0.16590642E+03</rscale>
<asrwt>0</asrwt>
<pdfrwt beam="2">  1        3 0.24792235E-01 0.17196492E+03</pdfrwt>
<pdfrwt beam="1">  1       -3 0.24627900E-01 0.17196492E+03</pdfrwt>
<totfact> 0.56393113E+02</totfact>
</mgrwt>
</event>
<event>
 7    1  0.6893158E-006  0.1684190E+03  0.7546771E-02  0.1186155E+00
         -2   -1    0    0    0  501 -0.00000000000E+00  0.00000000000E+00  0.49918450287E+03  0.49918450287E+03  0.00000000000E+00 0.  1.
          2   -1    0    0  501    0  0.00000000000E+00 -0.00000000000E+00 -0.51366357047E+02  0.51366357047E+02  0.00000000000E+00 0. -1.
         23    2    1    2    0    0  0.11284798323E+03  0.23289609718E+01  0.18400717663E+03  0.24944659475E+03  0.12499948480E+03 0.  0.
          5    1    3    3  502    0 -0.88905503421E+01  0.36620547876E+02  0.22088890705E+02  0.43933079845E+02  0.47000000000E+01 0. -1.
         -5    1    3    3    0  502  0.12173853358E+03 -0.34291586904E+02  0.16191828593E+03  0.20551351490E+03  0.47000000000E+01 0. -1.
        -11    1    1    2    0    0 -0.69824087126E+02  0.50151475145E+01  0.58571679350E+02  0.91275388082E+02  0.00000000000E+00 0. -1.
         11    1    1    2    0    0 -0.43023896108E+02 -0.73441084863E+01  0.20523928984E+03  0.20982887709E+03  0.00000000000E+00 0.  1.
<mgrwt>
<rscale>  0 0.16227256E+03</rscale>
<asrwt>0</asrwt>
<pdfrwt beam="2">  1        2 0.79025168E-02 0.16841901E+03</pdfrwt>
<pdfrwt beam="1">  1       -2 0.76797613E-01 0.16841901E+03</pdfrwt>
<totfact> 0.13196900E+03</totfact>
</mgrwt>
</event>
<event>
 7    1  0.7609693E-006  0.1687826E+03  0.7546771E-02  0.1185618E+00
         -1   -1    0    0    0  501 -0.00000000000E+00  0.00000000000E+00  0.58960263428E+03  0.58960263428E+03  0.00000000000E+00 0.  1.
          1   -1    0    0  501    0  0.00000000000E+00 -0.00000000000E+00 -0.42552453719E+02  0.42552453719E+02  0.00000000000E+00 0. -1.
         23    2    1    2    0    0 -0.10386299158E+03 -0.45551165837E+02  0.25718696547E+03  0.30762428870E+03  0.12500055224E+03 0.  0.
          5    1    3    3  502    0 -0.65979543280E+02 -0.86338521175E+02  0.20010914012E+03  0.22775732333E+03  0.47000000000E+01 0. -1.
         -5    1    3    3    0  502 -0.37883448295E+02  0.40787355339E+02  0.57077825349E+02  0.79866965366E+02  0.47000000000E+01 0. -1.
        -11    1    1    2    0    0  0.87519948476E+02 -0.96866357407E+01  0.16520649044E+03  0.18720779037E+03  0.00000000000E+00 0. -1.
         11    1    1    2    0    0  0.16343043099E+02  0.55237801577E+02  0.12465672464E+03  0.13732300892E+03  0.00000000000E+00 0.  1.
<mgrwt>
<rscale>  0 0.16275790E+03</rscale>
<asrwt>0</asrwt>
<pdfrwt beam="2">  1        1 0.65465318E-02 0.16878261E+03</pdfrwt>
<pdfrwt beam="1">  1       -1 0.90708092E-01 0.16878261E+03</pdfrwt>
<totfact> 0.14098135E+03</totfact>
</mgrwt>
</event>
<event>
 7    1  0.5206756E-006  0.1284426E+03  0.7546771E-02  0.1243553E+00
         -2   -1    0    0    0  501 -0.00000000000E+00  0.00000000000E+00  0.11236392418E+03  0.11236392418E+03  0.00000000000E+00 0.  1.
          2   -1    0    0  501    0  0.00000000000E+00 -0.00000000000E+00 -0.12468328264E+03  0.12468328264E+03  0.00000000000E+00 0. -1.
         23    2    1    2    0    0 -0.21896359301E+02  0.19826126309E+02 -0.42836417304E+02  0.13539740762E+03  0.12499989403E+03 0.  0.
          5    1    3    3  502    0 -0.23958930386E+02  0.51716161606E+02  0.23331873202E+02  0.61766155973E+02  0.47000000000E+01 0.  1.
         -5    1    3    3    0  502  0.20625710851E+01 -0.31890035297E+02 -0.66168290507E+02  0.73631251649E+02  0.47000000000E+01 0.  1.
        -11    1    1    2    0    0 -0.17350574578E+02 -0.44347428702E+02  0.27917555746E+01  0.47702523726E+02  0.00000000000E+00 0. -1.
         11    1    1    2    0    0  0.39246933880E+02  0.24521302393E+02  0.27725303272E+02  0.53947275479E+02  0.00000000000E+00 0.  1.
<mgrwt>
<rscale>  0 0.11972389E+03</rscale>
<asrwt>0</asrwt>
<pdfrwt beam="2">  1        2 0.19182043E-01 0.12844259E+03</pdfrwt>
<pdfrwt beam="1">  1       -2 0.17286758E-01 0.12844259E+03</pdfrwt>
<totfact> 0.74070959E+03</totfact>
</mgrwt>
</event>
<event>
 7    1  0.5206756E-006  0.1766771E+03  0.7546771E-02  0.1177035E+00
          1   -1    0    0  501    0  0.00000000000E+00  0.00000000000E+00  0.99865945187E+02  0.99865945187E+02  0.00000000000E+00 0. -1.
         -1   -1    0    0    0  501 -0.00000000000E+00 -0.00000000000E+00 -0.31241483808E+03  0.31241483808E+03  0.00000000000E+00 0.  1.
         23    2    1    2    0    0 -0.10068313943E+03  0.73833469748E+02 -0.40596423135E+02  0.18128114321E+03  0.12500522985E+03 0.  0.
          5    1    3    3  502    0 -0.89658195028E+02  0.88079739797E+02 -0.71889938513E+02  0.14486851196E+03  0.47000000000E+01 0. -1.
         -5    1    3    3    0  502 -0.11024944406E+02 -0.14246270049E+02  0.31293515378E+02  0.36412631245E+02  0.47000000000E+01 0. -1.
        -11    1    1    2    0    0  0.27252083623E+00 -0.43740971809E+02 -0.24656025295E+02  0.50212214309E+02  0.00000000000E+00 0. -1.
         11    1    1    2    0    0  0.10041061860E+03 -0.30092497939E+02 -0.14729644447E+03  0.18078742576E+03  0.00000000000E+00 0.  1.
<mgrwt>
<rscale>  0 0.17078184E+03</rscale>
<asrwt>0</asrwt>
<pdfrwt beam="1">  1        1 0.15363991E-01 0.17667706E+03</pdfrwt>
<pdfrwt beam="2">  1       -1 0.48063822E-01 0.17667706E+03</pdfrwt>
<totfact> 0.15747594E+03</totfact>
</mgrwt>
</event>
<event>
 7    1  0.5206756E-006  0.1410323E+03  0.7546771E-02  0.1222564E+00
         -1   -1    0    0    0  501 -0.00000000000E+00  0.00000000000E+00  0.16247198106E+02  0.16247198106E+02  0.00000000000E+00 0.  1.
          1   -1    0    0  501    0  0.00000000000E+00 -0.00000000000E+00 -0.19443150658E+04  0.19443150658E+04  0.00000000000E+00 0. -1.
         23    2    1    2    0    0  0.65015515462E+02 -0.62455890653E+01 -0.17030999881E+04  0.17089293972E+04  0.12499636231E+03 0.  0.
          5    1    3    3  502    0  0.53152909872E+02  0.55986393749E+01 -0.16750948014E+04  0.16759538359E+04  0.47000000000E+01 0. -1.
         -5    1    3    3    0  502  0.11862605590E+02 -0.11844228440E+02 -0.28005186725E+02  0.32975561288E+02  0.47000000000E+01 0. -1.
        -11    1    1    2    0    0 -0.16499930985E+02 -0.33936396132E+02 -0.14501825586E+03  0.14984732642E+03  0.00000000000E+00 0. -1.
         11    1    1    2    0    0 -0.48515584477E+02  0.40181985197E+02 -0.79949623769E+02  0.10178554029E+03  0.00000000000E+00 0.  1.
<mgrwt>
<rscale>  0 0.13335245E+03</rscale>
<asrwt>0</asrwt>
<pdfrwt beam="2">  1        1 0.29912553E+00 0.14103232E+03</pdfrwt>
<pdfrwt beam="1">  1       -1 0.24995678E-02 0.14103232E+03</pdfrwt>
<totfact> 0.18187505E+03</totfact>
</mgrwt>
</event>
<event>
 7    1  0.5206756E-006  0.1126690E+03  0.7546771E-02  0.1265908E+00
          1   -1    0    0  501    0  0.00000000000E+00  0.00000000000E+00  0.39148865775E+03  0.39148865775E+03  0.00000000000E+00 0. -1.
         -1   -1    0    0    0  501 -0.00000000000E+00 -0.00000000000E+00 -0.28541657376E+02  0.28541657376E+02  0.00000000000E+00 0.  1.
         23    2    1    2    0    0 -0.96834650949E+01 -0.12970908261E+01  0.25000281918E+03  0.27421834870E+03  0.11224455989E+03 0.  0.
          5    1    3    3  502    0  0.17865765016E+02 -0.49036372789E+02  0.16208770382E+03  0.17034748353E+03  0.47000000000E+01 0. -1.
         -5    1    3    3    0  502 -0.27549230111E+02  0.47739281963E+02  0.87915115360E+02  0.10387086517E+03  0.47000000000E+01 0.  1.
        -11    1    1    2    0    0 -0.35525983080E+02 -0.20669477597E+02  0.60776355147E+02  0.73369531298E+02  0.00000000000E+00 0. -1.
         11    1    1    2    0    0  0.45209448175E+02  0.21966568424E+02  0.52167826044E+02  0.72442435124E+02  0.00000000000E+00 0.  1.
<mgrwt>
<rscale>  0 0.10716694E+03</rscale>
<asrwt>0</asrwt>
<pdfrwt beam="1">  1        1 0.60229021E-01 0.11266895E+03</pdfrwt>
<pdfrwt beam="2">  1       -1 0.43910245E-02 0.11266895E+03</pdfrwt>
<totfact> 0.12404829E+04</totfact>
</mgrwt>
</event>
<event>
 7    1  0.5206756E-006  0.1380536E+03  0.7546771E-02  0.1227695E+00
         -2   -1    0    0    0  501 -0.00000000000E+00  0.00000000000E+00  0.16060391856E+03  0.16060391856E+03  0.00000000000E+00 0.  1.
          2   -1    0    0  501    0  0.00000000000E+00 -0.00000000000E+00 -0.11318290961E+03  0.11318290961E+03  0.00000000000E+00 0. -1.
         23    2    1    2    0    0 -0.40896705433E+02 -0.41952091598E+02 -0.29515810792E+02  0.14117362429E+03  0.12500516231E+03 0.  0.
          5    1    3    3  502    0 -0.66919256729E+02 -0.28039700062E+01 -0.55629868639E+02  0.87194159516E+02  0.47000000000E+01 0. -1.
         -5    1    3    3    0  502  0.26022551296E+02 -0.39148121592E+02  0.26114057847E+02  0.53979464775E+02  0.47000000000E+01 0. -1.
        -11    1    1    2    0    0  0.31714437293E+02  0.63715382260E+02  0.81871437937E+02  0.10848220047E+03  0.00000000000E+00 0.  1.
         11    1    1    2    0    0  0.91822681394E+01 -0.21763290662E+02 -0.49346181960E+01  0.24131003406E+02  0.00000000000E+00 0. -1.
<mgrwt>
<rscale>  0 0.12983918E+03</rscale>
<asrwt>0</asrwt>
<pdfrwt beam="2">  1        2 0.17412755E-01 0.13805365E+03</pdfrwt>
<pdfrwt beam="1">  1       -2 0.24708295E-01 0.13805365E+03</pdfrwt>
<totfact> 0.45306727E+03</totfact>
</mgrwt>
</event>
<event>
 7    1  0.5206756E-006  0.2227795E+03  0.7546771E-02  0.1134995E+00
         -1   -1    0    0    0  501 -0.00000000000E+00  0.00000000000E+00  0.84113219045E+02  0.84113219045E+02  0.00000000000E+00 0.  1.
          1   -1    0    0  501    0  0.00000000000E+00 -0.00000000000E+00 -0.58721356108E+03  0.58721356108E+03  0.00000000000E+00 0. -1.
         23    2    1    2    0    0 -0.16720061420E+03 -0.77784855918E+02 -0.34842036082E+03  0.41355465473E+03  0.12499670162E+03 0.  0.
          5    1    3    3  502    0  0.17022322319E+02 -0.22030959193E+02 -0.65619966468E+02  0.71436633595E+02  0.47000000000E+01 0. -1.
         -5    1    3    3    0  502 -0.18422293652E+03 -0.55753896725E+02 -0.28280039436E+03  0.34211802114E+03  0.47000000000E+01 0. -1.
        -11    1    1    2    0    0  0.10821348955E+03  0.68077715312E+02 -0.50101483323E+02  0.13731312127E+03  0.00000000000E+00 0.  1.
         11    1    1    2    0    0  0.58987124652E+02  0.97071406060E+01 -0.10457849789E+03  0.12045900412E+03  0.00000000000E+00 0. -1.
<mgrwt>
<rscale>  0 0.21851502E+03</rscale>
<asrwt>0</asrwt>
<pdfrwt beam="2">  1        1 0.90340548E-01 0.22277950E+03</pdfrwt>
<pdfrwt beam="1">  1       -1 0.12940495E-01 0.22277950E+03</pdfrwt>
<totfact> 0.14707744E+03</totfact>
</mgrwt>
</event>
<event>
 7    1  0.5206756E-006  0.1382257E+03  0.7546771E-02  0.1227224E+00
          2   -1    0    0  501    0  0.00000000000E+00  0.00000000000E+00  0.19201568466E+03  0.19201568466E+03  0.00000000000E+00 0. -1.
         -2   -1    0    0    0  501 -0.00000000000E+00 -0.00000000000E+00 -0.95396170730E+02  0.95396170730E+02  0.00000000000E+00 0.  1.
         23    2    1    2    0    0  0.41284462549E+02 -0.42170934885E+02  0.11168422853E+03  0.17770682318E+03  0.12499421389E+03 0.  0.
          5    1    3    3  502    0 -0.22873299635E+01 -0.69703067542E+02  0.20473523114E+02  0.72835462872E+02  0.47000000000E+01 0.  1.
         -5    1    3    3    0  502  0.43571792512E+02  0.27532132657E+02  0.91210705414E+02  0.10487136031E+03  0.47000000000E+01 0.  1.
        -11    1    1    2    0    0  0.22471091360E+02  0.25942212468E+02 -0.25943002016E+02  0.43023106446E+02  0.00000000000E+00 0. -1.
         11    1    1    2    0    0 -0.63755553909E+02  0.16228722417E+02  0.10878287414E+02  0.66681925756E+02  0.00000000000E+00 0.  1.
<mgrwt>
<rscale>  0 0.13015619E+03</rscale>
<asrwt>0</asrwt>
<pdfrwt beam="1">  1        2 0.29540875E-01 0.13822571E+03</pdfrwt>
<pdfrwt beam="2">  1       -2 0.14676334E-01 0.13822571E+03</pdfrwt>
<totfact> 0.60379097E+03</totfact>
</mgrwt>
</event>
<event>
 7    1  0.5206756E-006  0.1758652E+03  0.7546771E-02  0.1177543E+00
         -1   -1    0    0    0  501 -0.00000000000E+00  0.00000000000E+00  0.50505370262E+02  0.50505370262E+02  0.00000000000E+00 0.  1.
          1   -1    0    0  501    0  0.00000000000E+00 -0.00000000000E+00 -0.81372841042E+03  0.81372841042E+03  0.00000000000E+00 0. -1.
         23    2    1    2    0    0 -0.12180320378E+03  0.21641958050E+02 -0.64791329639E+03  0.67135697839E+03  0.12499663194E+03 0.  0.
          5    1    3    3  502    0 -0.39328758534E+02  0.55463276058E+02 -0.14056946324E+03  0.15622032593E+03  0.47000000000E+01 0.  1.
         -5    1    3    3    0  502 -0.82474445244E+02 -0.33821318007E+02 -0.50734383315E+03  0.51513665246E+03  0.47000000000E+01 0.  1.
        -11    1    1    2    0    0  0.53077269192E+02 -0.52140544822E+02 -0.32995833185E+02  0.81391387301E+02  0.00000000000E+00 0.  1.
         11    1    1    2    0    0  0.68725934586E+02  0.30498586772E+02 -0.82313910580E+02  0.11148541499E+03  0.00000000000E+00 0. -1.
<mgrwt>
<rscale>  0 0.17029278E+03</rscale>
<asrwt>0</asrwt>
<pdfrwt beam="2">  1        1 0.12518897E+00 0.17586516E+03</pdfrwt>
<pdfrwt beam="1">  1       -1 0.77700577E-02 0.17586516E+03</pdfrwt>
<totfact> 0.20070941E+03</totfact>
</mgrwt>
</event>
<event>
 7    1  0.5206756E-006  0.1344180E+03  0.7546771E-02  0.1233714E+00
         -2   -1    0    0    0  501 -0.00000000000E+00  0.00000000000E+00  0.56082410548E+02  0.56082410548E+02  0.00000000000E+00 0.  1.
          2   -1    0    0  501    0  0.00000000000E+00 -0.00000000000E+00 -0.44101324957E+03  0.44101324957E+03  0.00000000000E+00 0. -1.
         23    2    1    2    0    0 -0.21096495891E+02 -0.44677605276E+02 -0.36874485591E+03  0.39248054045E+03  0.12500822099E+03 0.  0.
          5    1    3    3  502    0 -0.29753882723E+02 -0.99334477242E+01 -0.12000090585E+02  0.33912521211E+02  0.47000000000E+01 0. -1.
         -5    1    3    3    0  502  0.86573868319E+01 -0.34744157551E+02 -0.35674476533E+03  0.35856801924E+03  0.47000000000E+01 0. -1.
        -11    1    1    2    0    0  0.17613378687E+02 -0.23396292167E+02  0.10927688454E+02  0.31257510632E+02  0.00000000000E+00 0.  1.
         11    1    1    2    0    0  0.34831172044E+01  0.68073897443E+02 -0.27113671566E+02  0.73357609042E+02  0.00000000000E+00 0. -1.
<mgrwt>
<rscale>  0 0.12587121E+03</rscale>
<asrwt>0</asrwt>
<pdfrwt beam="2">  1        2 0.67848190E-01 0.13441803E+03</pdfrwt>
<pdfrwt beam="1">  1       -2 0.86280635E-02 0.13441803E+03</pdfrwt>
<totfact> 0.57713713E+03</totfact>
</mgrwt>
</event>
<event>
 7    1  0.5206756E-006  0.2005175E+03  0.7546771E-02  0.1153671E+00
         -2   -1    0    0    0  501 -0.00000000000E+00  0.00000000000E+00  0.23037622856E+03  0.23037622856E+03  0.00000000000E+00 0. -1.
          2   -1    0    0  501    0  0.00000000000E+00 -0.00000000000E+00 -0.40553351219E+03  0.40553351219E+03  0.00000000000E+00 0.  1.
         23    2    1    2    0    0  0.15469184628E+03 -0.25537824444E+02 -0.33770249234E+03  0.39274704733E+03  0.12500208826E+03 0.  0.
          5    1    3    3  502    0  0.17129747707E+02  0.42832830152E+02 -0.67462492402E+02  0.81861819406E+02  0.47000000000E+01 0. -1.
         -5    1    3    3    0  502  0.13756209857E+03 -0.68370654596E+02 -0.27023999994E+03  0.31088522792E+03  0.47000000000E+01 0. -1.
        -11    1    1    2    0    0 -0.22533641311E+02  0.30711553014E+02  0.76265406687E+02  0.85248910471E+02  0.00000000000E+00 0. -1.
         11    1    1    2    0    0 -0.13215820497E+03 -0.51737285701E+01  0.86279802023E+02  0.15791378295E+03  0.00000000000E+00 0.  1.
<mgrwt>
<rscale>  0 0.19540900E+03</rscale>
<asrwt>0</asrwt>
<pdfrwt beam="2">  1        2 0.62389770E-01 0.20051751E+03</pdfrwt>
<pdfrwt beam="1">  1       -2 0.35442497E-01 0.20051751E+03</pdfrwt>
<totfact> 0.59250045E+02</totfact>
</mgrwt>
</event>
<event>
 7    1  0.5206756E-006  0.1361584E+03  0.7546771E-02  0.1230688E+00
         -2   -1    0    0    0  501 -0.00000000000E+00  0.00000000000E+00  0.21446024594E+02  0.21446024594E+02  0.00000000000E+00 0.  1.
          2   -1    0    0  501    0  0.00000000000E+00 -0.00000000000E+00 -0.70177449302E+03  0.70177449302E+03  0.00000000000E+00 0. -1.
         23    2    1    2    0    0  0.47163573632E+02  0.26275111780E+02 -0.32235350181E+03  0.34992984649E+03  0.12499733260E+03 0.  0.
          5    1    3    3  502    0  0.48787769304E+02 -0.42719664020E+02 -0.12670965698E+03  0.14241714539E+03  0.47000000000E+01 0.  1.
         -5    1    3    3    0  502 -0.16241956711E+01  0.68994775800E+02 -0.19564384483E+03  0.20751270110E+03  0.47000000000E+01 0.  1.
        -11    1    1    2    0    0  0.13710121289E+02  0.13495914821E+02 -0.20671690570E+02  0.28238731091E+02  0.00000000000E+00 0.  1.
         11    1    1    2    0    0 -0.60873694922E+02 -0.39771026601E+02 -0.33730327605E+03  0.34505194004E+03  0.00000000000E+00 0. -1.
<mgrwt>
<rscale>  0 0.12784534E+03</rscale>
<asrwt>0</asrwt>
<pdfrwt beam="2">  1        2 0.10796530E+00 0.13615843E+03</pdfrwt>
<pdfrwt beam="1">  1       -2 0.32993886E-02 0.13615843E+03</pdfrwt>
<totfact> 0.14614154E+04</totfact>
</mgrwt>
</event>
<event>
 7    1  0.5206756E-006  0.1333343E+03  0.7546771E-02  0.1234916E+00
         -1   -1    0    0    0  501 -0.00000000000E+00  0.00000000000E+00  0.18001837886E+03  0.18001837886E+03  0.00000000000E+00 0.  1.
          1   -1    0    0  501    0  0.00000000000E+00 -0.00000000000E+00 -0.84719155074E+02  0.84719155074E+02  0.00000000000E+00 0. -1.
         23    2    1    2    0    0 -0.43559338205E+02 -0.15977227723E+02  0.15586207902E+02  0.13424219285E+03  0.12500139485E+03 0.  0.
          5    1    3    3  502    0  0.36545457197E+01  0.24318123773E+02 -0.42354322989E+02  0.49200665891E+02  0.47000000000E+01 0.  1.
         -5    1    3    3    0  502 -0.47213883925E+02 -0.40295351496E+02  0.57940530891E+02  0.85041526958E+02  0.47000000000E+01 0.  1.
        -11    1    1    2    0    0  0.32299763803E+02 -0.36290944358E+02  0.27811715650E+02  0.55980343974E+02  0.00000000000E+00 0. -1.
         11    1    1    2    0    0  0.11259574402E+02  0.52268172081E+02  0.51901300236E+02  0.74514997112E+02  0.00000000000E+00 0.  1.
<mgrwt>
<rscale>  0 0.12509840E+03</rscale>
<asrwt>0</asrwt>
<pdfrwt beam="2">  1        1 0.13033716E-01 0.13333430E+03</pdfrwt>
<pdfrwt beam="1">  1       -1 0.27695135E-01 0.13333430E+03</pdfrwt>
<totfact> 0.50137511E+03</totfact>
</mgrwt>
</event>
<event>
 7    1  0.5206756E-006  0.1345273E+03  0.7546771E-02  0.1232977E+00
          2   -1    0    0  501    0  0.00000000000E+00  0.00000000000E+00  0.21042637942E+03  0.21042637942E+03  0.00000000000E+00 0. -1.
         -2   -1    0    0    0  501 -0.00000000000E+00 -0.00000000000E+00 -0.75936012119E+02  0.75936012119E+02  0.00000000000E+00 0.  1.
         23    2    1    2    0    0  0.23308757846E+01 -0.49669073693E+02  0.12078077203E+03  0.18079154027E+03  0.12500054512E+03 0.  0.
          5    1    3    3  502    0  0.33965916892E+02 -0.66406777516E+02  0.12375536738E+03  0.14457186644E+03  0.47000000000E+01 0.  1.
         -5    1    3    3    0  502 -0.31635041107E+02  0.16737703824E+02 -0.29745953513E+01  0.36219673834E+02  0.47000000000E+01 0.  1.
        -11    1    1    2    0    0 -0.20396396290E+02  0.10953220754E+02  0.46347022092E+02  0.51807648888E+02  0.00000000000E+00 0. -1.
         11    1    1    2    0    0  0.18065520506E+02  0.38715852939E+02 -0.32637426823E+02  0.53763202374E+02  0.00000000000E+00 0.  1.
<mgrwt>
<rscale>  0 0.12634860E+03</rscale>
<asrwt>0</asrwt>
<pdfrwt beam="1">  1        2 0.32373289E-01 0.13452727E+03</pdfrwt>
<pdfrwt beam="2">  1       -2 0.11682463E-01 0.13452727E+03</pdfrwt>
<totfact> 0.78840798E+03</totfact>
</mgrwt>
</event>
<event>
 7    1  0.5206756E-006  0.1328181E+03  0.7546771E-02  0.1236031E+00
         -1   -1    0    0    0  501 -0.00000000000E+00  0.00000000000E+00  0.30846797999E+02  0.30846797999E+02  0.00000000000E+00 0.  1.
          1   -1    0    0  501    0  0.00000000000E+00 -0.00000000000E+00 -0.68950091657E+03  0.68950091657E+03  0.00000000000E+00 0. -1.
         23    2    1    2    0    0  0.43884091378E+02  0.94872829599E+01 -0.56939085258E+03  0.58467648986E+03  0.12499933114E+03 0.  0.
          5    1    3    3  502    0  0.78089809577E+02 -0.26401221273E+02 -0.33134825238E+03  0.34148030280E+03  0.47000000000E+01 0. -1.
         -5    1    3    3    0  502 -0.34205718200E+02  0.35888504233E+02 -0.23804260020E+03  0.24319618706E+03  0.47000000000E+01 0. -1.
        -11    1    1    2    0    0 -0.66862506880E+01  0.17693324893E+02 -0.87549244850E+02  0.89569135129E+02  0.00000000000E+00 0. -1.
         11    1    1    2    0    0 -0.37197840690E+02 -0.27180607853E+02 -0.17140211485E+01  0.46102089581E+02  0.00000000000E+00 0.  1.
<mgrwt>
<rscale>  0 0.12438674E+03</rscale>
<asrwt>0</asrwt>
<pdfrwt beam="2">  1        1 0.10607705E+00 0.13281813E+03</pdfrwt>
<pdfrwt beam="1">  1       -1 0.47456617E-02 0.13281813E+03</pdfrwt>
<totfact> 0.53067154E+03</totfact>
</mgrwt>
</event>
<event>
 7    1  0.5206756E-006  0.1295026E+03  0.7546771E-02  0.1242493E+00
         -2   -1    0    0    0  501 -0.00000000000E+00  0.00000000000E+00  0.20451725790E+02  0.20451725790E+02  0.00000000000E+00 0.  1.
          2   -1    0    0  501    0  0.00000000000E+00 -0.00000000000E+00 -0.73536959618E+03  0.73536959618E+03  0.00000000000E+00 0. -1.
         23    2    1    2    0    0  0.33705074793E+02 -0.31888468822E+01 -0.54657373935E+03  0.56170613754E+03  0.12499892636E+03 0.  0.
          5    1    3    3  502    0  0.71450495498E+02  0.25226681965E+01 -0.47572143908E+03  0.48108680585E+03  0.47000000000E+01 0.  1.
         -5    1    3    3    0  502 -0.37745420705E+02 -0.57115150787E+01 -0.70852300277E+02  0.80619331697E+02  0.47000000000E+01 0.  1.
        -11    1    1    2    0    0  0.41516981495E+01 -0.39046839890E+02 -0.57913569819E+02  0.69970521451E+02  0.00000000000E+00 0.  1.
         11    1    1    2    0    0 -0.37856772943E+02  0.42235686773E+02 -0.11043056122E+03  0.12414466298E+03  0.00000000000E+00 0. -1.
<mgrwt>
<rscale>  0 0.12036712E+03</rscale>
<asrwt>0</asrwt>
<pdfrwt beam="2">  1        2 0.11313377E+00 0.12950263E+03</pdfrwt>
<pdfrwt beam="1">  1       -2 0.31464196E-02 0.12950263E+03</pdfrwt>
<totfact> 0.14765825E+04</totfact>
</mgrwt>
</event>
<event>
 7    1  0.5206756E-006  0.1324673E+03  0.7546771E-02  0.1258570E+00
         -1   -1    0    0    0  501 -0.00000000000E+00  0.00000000000E+00  0.34434939547E+03  0.34434939547E+03  0.00000000000E+00 0.  1.
          1   -1    0    0  501    0  0.00000000000E+00 -0.00000000000E+00 -0.29534485614E+02  0.29534485614E+02  0.00000000000E+00 0. -1.
         23    2    1    2    0    0  0.37015035599E+02 -0.23552153965E+02  0.17501058997E+03  0.21949095937E+03  0.12499103098E+03 0.  0.
          5    1    3    3  502    0 -0.42360306871E+02 -0.30622781243E+02  0.74709587378E+02  0.91300398550E+02  0.47000000000E+01 0.  1.
         -5    1    3    3    0  502  0.79375342470E+02  0.70706272777E+01  0.10030100259E+03  0.12819056082E+03  0.47000000000E+01 0.  1.
        -11    1    1    2    0    0 -0.36960181492E+02  0.12354457226E+02  0.13755846954E+03  0.14297209578E+03  0.00000000000E+00 0.  1.
         11    1    1    2    0    0 -0.54854107126E-01  0.11197696739E+02  0.22458503440E+01  0.11420825933E+02  0.00000000000E+00 0. -1.
<mgrwt>
<rscale>  0 0.11108693E+03</rscale>
<asrwt>0</asrwt>
<pdfrwt beam="2">  1        1 0.45437673E-02 0.13246726E+03</pdfrwt>
<pdfrwt beam="1">  1       -1 0.52976827E-01 0.13246726E+03</pdfrwt>
<totfact> 0.66421372E+03</totfact>
</mgrwt>
</event>
<event>
 7    1  0.5206756E-006  0.1330174E+03  0.7546771E-02  0.1241397E+00
          2   -1    0    0  501    0  0.00000000000E+00  0.00000000000E+00  0.88169116173E+02  0.88169116173E+02  0.00000000000E+00 0.  1.
         -2   -1    0    0    0  501 -0.00000000000E+00 -0.00000000000E+00 -0.14656601892E+03  0.14656601892E+03  0.00000000000E+00 0. -1.
         23    2    1    2    0    0  0.37852470812E+02  0.25159536052E+02 -0.53631965271E+02  0.14342251782E+03  0.12501127596E+03 0.  0.
          5    1    3    3  502    0  0.81162211764E+02  0.33531081020E+02 -0.28540460247E+02  0.92456940702E+02  0.47000000000E+01 0. -1.
         -5    1    3    3    0  502 -0.43309740952E+02 -0.83715449677E+01 -0.25091505024E+02  0.50965577117E+02  0.47000000000E+01 0. -1.
        -11    1    1    2    0    0 -0.55802465826E+02 -0.18523948315E+01  0.12482191778E+02  0.57211464502E+02  0.00000000000E+00 0.  1.
         11    1    1    2    0    0  0.17949995014E+02 -0.23307141221E+02 -0.17247129254E+02  0.34101152772E+02  0.00000000000E+00 0. -1.
<mgrwt>
<rscale>  0 0.12103641E+03</rscale>
<asrwt>0</asrwt>
<pdfrwt beam="1">  1        2 0.13564480E-01 0.13301741E+03</pdfrwt>
<pdfrwt beam="2">  1       -2 0.22548618E-01 0.13301741E+03</pdfrwt>
<totfact> 0.70868178E+03</totfact>
</mgrwt>
</event>
<event>
 7    1  0.5206756E-006  0.1294630E+03  0.7546771E-02  0.1243988E+00
         -1   -1    0    0    0  501 -0.00000000000E+00  0.00000000000E+00  0.87263753433E+01  0.87263753433E+01  0.00000000000E+00 0.  1.
          1   -1    0    0  501    0  0.00000000000E+00 -0.00000000000E+00 -0.14462170084E+04  0.14462170084E+04  0.00000000000E+00 0. -1.
         23    2    1    2    0    0 -0.12828625438E+02 -0.31153713778E+02 -0.91080279855E+03  0.91995782750E+03  0.12500215603E+03 0.  0.
          5    1    3    3  502    0  0.20825245767E+02 -0.26990097021E+02 -0.65744553920E+02  0.74206418648E+02  0.47000000000E+01 0.  1.
         -5    1    3    3    0  502 -0.33653871205E+02 -0.41636167574E+01 -0.84505824463E+03  0.84575140885E+03  0.47000000000E+01 0.  1.
        -11    1    1    2    0    0  0.27199263396E+02 -0.24358223798E+02 -0.20222525478E+03  0.20549495534E+03  0.00000000000E+00 0. -1.
         11    1    1    2    0    0 -0.14370637958E+02  0.55511937577E+02 -0.32446257976E+03  0.32949060094E+03  0.00000000000E+00 0.  1.
<mgrwt>
<rscale>  0 0.11946150E+03</rscale>
<asrwt>0</asrwt>
<pdfrwt beam="2">  1        1 0.22249482E+00 0.12946299E+03</pdfrwt>
<pdfrwt beam="1">  1       -1 0.13425199E-02 0.12946299E+03</pdfrwt>
<totfact> 0.92580078E+03</totfact>
</mgrwt>
</event>
<event>
 7    1  0.5206756E-006  0.1421362E+03  0.7546771E-02  0.1220707E+00
         -2   -1    0    0    0  501 -0.00000000000E+00  0.00000000000E+00  0.25994088136E+02  0.25994088136E+02  0.00000000000E+00 0.  1.
          2   -1    0    0  501    0  0.00000000000E+00 -0.00000000000E+00 -0.64063708766E+03  0.64063708766E+03  0.00000000000E+00 0. -1.
         23    2    1    2    0    0  0.52326420534E+02  0.42889191949E+02 -0.30482535383E+03  0.33633496482E+03  0.12500070059E+03 0.  0.
          5    1    3    3  502    0 -0.17494944407E+02  0.15332217471E+02 -0.22652550478E+03  0.22776532723E+03  0.47000000000E+01 0.  1.
         -5    1    3    3    0  502  0.69821364941E+02  0.27556974478E+02 -0.78299849056E+02  0.10856963759E+03  0.47000000000E+01 0.  1.
        -11    1    1    2    0    0 -0.48932382852E+02 -0.67723938521E+02 -0.27487639879E+03  0.28729417772E+03  0.00000000000E+00 0. -1.
         11    1    1    2    0    0 -0.33940376816E+01  0.24834746572E+02 -0.34941246898E+02  0.43002033253E+02  0.00000000000E+00 0.  1.
<mgrwt>
<rscale>  0 0.13465523E+03</rscale>
<asrwt>0</asrwt>
<pdfrwt beam="2">  1        2 0.98559554E-01 0.14213625E+03</pdfrwt>
<pdfrwt beam="1">  1       -2 0.39990904E-02 0.14213625E+03</pdfrwt>
<totfact> 0.12269123E+04</totfact>
</mgrwt>
</event>
<event>
 7    1  0.5206756E-006  0.1909450E+03  0.7546771E-02  0.1162409E+00
          2   -1    0    0  501    0  0.00000000000E+00  0.00000000000E+00  0.10536634093E+04  0.10536634093E+04  0.00000000000E+00 0. -1.
         -2   -1    0    0    0  501 -0.00000000000E+00 -0.00000000000E+00 -0.35150801924E+02  0.35150801924E+02  0.00000000000E+00 0.  1.
         23    2    1    2    0    0  0.12418462912E+03  0.73579657366E+02  0.72017404289E+03  0.74505748852E+03  0.12499688418E+03 0.  0.
          5    1    3    3  502    0  0.13767365168E+03  0.47985783033E+02  0.67914706503E+03  0.69463623263E+03  0.47000000000E+01 0. -1.
         -5    1    3    3    0  502 -0.13489022563E+02  0.25593874333E+02  0.41026977859E+02  0.50421255887E+02  0.47000000000E+01 0. -1.
        -11    1    1    2    0    0 -0.29985384182E+02 -0.62400791227E+02  0.80596390206E+02  0.10624857705E+03  0.00000000000E+00 0.  1.
         11    1    1    2    0    0 -0.94199244940E+02 -0.11178866138E+02  0.21774217431E+03  0.23750814569E+03  0.00000000000E+00 0. -1.
<mgrwt>
<rscale>  0 0.18568846E+03</rscale>
<asrwt>0</asrwt>
<pdfrwt beam="1">  1        2 0.16210204E+00 0.19094504E+03</pdfrwt>
<pdfrwt beam="2">  1       -2 0.54078165E-02 0.19094504E+03</pdfrwt>
<totfact> 0.41867347E+03</totfact>
</mgrwt>
</event>
<event>
 7    1  0.5206756E-006  0.1277437E+03  0.7546771E-02  0.1245896E+00
          1   -1    0    0  501    0  0.00000000000E+00  0.00000000000E+00  0.46794938046E+03  0.46794938046E+03  0.00000000000E+00 0. -1.
         -1   -1    0    0    0  501 -0.00000000000E+00 -0.00000000000E+00 -0.28057991341E+02  0.28057991341E+02  0.00000000000E+00 0.  1.
         23    2    1    2    0    0 -0.25088939328E+02 -0.77096878093E+01  0.31314571392E+03  0.33819917132E+03  0.12501818737E+03 0.  0.
          5    1    3    3  502    0 -0.46038217807E+02 -0.12637307246E+02  0.31250084220E+03  0.31616148628E+03  0.47000000000E+01 0. -1.
         -5    1    3    3    0  502  0.20949278480E+02  0.49276194365E+01  0.64487171627E+00  0.22037685034E+02  0.47000000000E+01 0. -1.
        -11    1    1    2    0    0 -0.20046045975E+02 -0.23307563213E+02  0.80356649166E+02  0.86036489511E+02  0.00000000000E+00 0. -1.
         11    1    1    2    0    0  0.45134985303E+02  0.31017251022E+02  0.46389026034E+02  0.71771710970E+02  0.00000000000E+00 0.  1.
<mgrwt>
<rscale>  0 0.11831905E+03</rscale>
<asrwt>0</asrwt>
<pdfrwt beam="1">  1        1 0.71992207E-01 0.12774365E+03</pdfrwt>
<pdfrwt beam="2">  1       -1 0.43166144E-02 0.12774365E+03</pdfrwt>
<totfact> 0.10248125E+04</totfact>
</mgrwt>
</event>
<event>
 7    1  0.5206756E-006  0.1567731E+03  0.7546771E-02  0.1197663E+00
         -1   -1    0    0    0  501 -0.00000000000E+00  0.00000000000E+00  0.59301641785E+02  0.59301641785E+02  0.00000000000E+00 0.  1.
          1   -1    0    0  501    0  0.00000000000E+00 -0.00000000000E+00 -0.87829579241E+03  0.87829579241E+03  0.00000000000E+00 0. -1.
         23    2    1    2    0    0 -0.45197244730E+02  0.96822450652E+02 -0.77568394349E+03  0.79136804106E+03  0.11471886660E+03 0.  0.
          5    1    3    3  502    0 -0.23842148755E+02  0.11439543118E+03 -0.71516071051E+03  0.72465970951E+03  0.47000000000E+01 0. -1.
         -5    1    3    3    0  502 -0.21355095974E+02 -0.17572980526E+02 -0.60523232980E+02  0.66708331556E+02  0.47000000000E+01 0.  1.
        -11    1    1    2    0    0  0.88492768880E+01  0.17131967858E+02 -0.83495120080E+00  0.19300548377E+02  0.00000000000E+00 0.  1.
         11    1    1    2    0    0  0.36347967842E+02 -0.11395441851E+03 -0.42475255941E+02  0.12692884476E+03  0.00000000000E+00 0. -1.
<mgrwt>
<rscale>  0 0.15230990E+03</rscale>
<asrwt>0</asrwt>
<pdfrwt beam="2">  1        1 0.13512242E+00 0.15677307E+03</pdfrwt>
<pdfrwt beam="1">  1       -1 0.91233298E-02 0.15677307E+03</pdfrwt>
<totfact> 0.13943223E+03</totfact>
</mgrwt>
</event>
<event>
 7    1  0.5206756E-006  0.1291524E+03  0.7546771E-02  0.1243056E+00
          1   -1    0    0  501    0  0.00000000000E+00  0.00000000000E+00  0.95195584202E+03  0.95195584202E+03  0.00000000000E+00 0. -1.
         -1   -1    0    0    0  501 -0.00000000000E+00 -0.00000000000E+00 -0.20155083562E+02  0.20155083562E+02  0.00000000000E+00 0.  1.
         23    2    1    2    0    0 -0.43581439063E+01 -0.32192427576E+02  0.79121429018E+03  0.80168597172E+03  0.12499999377E+03 0.  0.
          5    1    3    3  502    0  0.43215234247E+02 -0.31959359147E+02  0.16388771851E+03  0.17254052099E+03  0.47000000000E+01 0. -1.
         -5    1    3    3    0  502 -0.47573378153E+02 -0.23306842907E+00  0.62732657168E+03  0.62914545072E+03  0.47000000000E+01 0. -1.
        -11    1    1    2    0    0 -0.26892031469E+02 -0.50612171711E+01  0.10913815183E+03  0.11251636974E+03  0.00000000000E+00 0. -1.
         11    1    1    2    0    0  0.31250175375E+02  0.37253644747E+02  0.31448316451E+02  0.57908584127E+02  0.00000000000E+00 0.  1.
<mgrwt>
<rscale>  0 0.12002481E+03</rscale>
<asrwt>0</asrwt>
<pdfrwt beam="1">  1        1 0.14645471E+00 0.12915241E+03</pdfrwt>
<pdfrwt beam="2">  1       -1 0.31007828E-02 0.12915241E+03</pdfrwt>
<totfact> 0.60588540E+03</totfact>
</mgrwt>
</event>
<event>
 7    1  0.5206756E-006  0.1322126E+03  0.7546771E-02  0.1237404E+00
          2   -1    0    0  501    0  0.00000000000E+00  0.00000000000E+00  0.42480397533E+03  0.42480397533E+03  0.00000000000E+00 0. -1.
         -2   -1    0    0    0  501 -0.00000000000E+00 -0.00000000000E+00 -0.33669403529E+02  0.33669403529E+02  0.00000000000E+00 0.  1.
         23    2    1    2    0    0 -0.40256706545E+01  0.42884950097E+02  0.27229774075E+03  0.30269824929E+03  0.12499938214E+03 0.  0.
          5    1    3    3  502    0  0.48985942828E+02  0.27182410645E+02  0.21774341157E+03  0.22488394635E+03  0.47000000000E+01 0.  1.
         -5    1    3    3    0  502 -0.53011613483E+02  0.15702539451E+02  0.54554329178E+02  0.77814302935E+02  0.47000000000E+01 0.  1.
        -11    1    1    2    0    0  0.53622975247E+01  0.28512246288E+02  0.29083196503E+02  0.41079614677E+02  0.00000000000E+00 0.  1.
         11    1    1    2    0    0 -0.13366268702E+01 -0.71397196385E+02  0.89753634551E+02  0.11469551490E+03  0.00000000000E+00 0. -1.
<mgrwt>
<rscale>  0 0.12351769E+03</rscale>
<asrwt>0</asrwt>
<pdfrwt beam="1">  1        2 0.65354454E-01 0.13221260E+03</pdfrwt>
<pdfrwt beam="2">  1       -2 0.51799085E-02 0.13221260E+03</pdfrwt>
<totfact> 0.13076280E+04</totfact>
</mgrwt>
</event>
<event>
 7    1  0.5206756E-006  0.2392717E+03  0.7546771E-02  0.1123056E+00
         -2   -1    0    0    0  501 -0.00000000000E+00  0.00000000000E+00  0.57421231813E+03  0.57421231813E+03  0.00000000000E+00 0.  1.
          2   -1    0    0  501    0  0.00000000000E+00 -0.00000000000E+00 -0.94707484661E+02  0.94707484661E+02  0.00000000000E+00 0. -1.
         23    2    1    2    0    0  0.19412154071E+03 -0.62786151973E+02  0.20496435795E+03  0.31505769709E+03  0.12500276405E+03 0.  0.
          5    1    3    3  502    0  0.15400691407E+03 -0.55017385518E+02  0.77332586529E+02  0.18096259621E+03  0.47000000000E+01 0. -1.
         -5    1    3    3    0  502  0.40114626644E+02 -0.77687664548E+01  0.12763177142E+03  0.13409510088E+03  0.47000000000E+01 0. -1.
        -11    1    1    2    0    0 -0.14997615018E+02  0.48126569154E+01  0.85945527474E+02  0.87376906649E+02  0.00000000000E+00 0.  1.
         11    1    1    2    0    0 -0.17912392569E+03  0.57973495057E+02  0.18859494804E+03  0.26648519905E+03  0.00000000000E+00 0. -1.
<mgrwt>
<rscale>  0 0.23516477E+03</rscale>
<asrwt>0</asrwt>
<pdfrwt beam="2">  1        2 0.14570383E-01 0.23927174E+03</pdfrwt>
<pdfrwt beam="1">  1       -2 0.88340355E-01 0.23927174E+03</pdfrwt>
<totfact> 0.46023273E+02</totfact>
</mgrwt>
</event>
<event>
 7    1  0.5206756E-006  0.1250966E+03  0.7546771E-02  0.1248364E+00
         -2   -1    0    0    0  501 -0.00000000000E+00  0.00000000000E+00  0.16873331231E+03  0.16873331231E+03  0.00000000000E+00 0.  1.
          2   -1    0    0  501    0  0.00000000000E+00 -0.00000000000E+00 -0.90613503435E+02  0.90613503435E+02  0.00000000000E+00 0. -1.
         23    2    1    2    0    0 -0.98615851351E-01  0.48922427829E+01 -0.15161195529E+02  0.12601197346E+03  0.12500084736E+03 0.  0.
          5    1    3    3  502    0  0.41060320788E+02  0.32914219056E+02  0.28137865315E+02  0.59859211687E+02  0.47000000000E+01 0. -1.
         -5    1    3    3    0  502 -0.41158936640E+02 -0.28021976273E+02 -0.43299060844E+02  0.66152761768E+02  0.47000000000E+01 0. -1.
        -11    1    1    2    0    0  0.25580058624E+02  0.37739853488E+02  0.45766200794E+02  0.64600163124E+02  0.00000000000E+00 0. -1.
         11    1    1    2    0    0 -0.25481442773E+02 -0.42632096271E+02  0.47514803614E+02  0.68734679171E+02  0.00000000000E+00 0.  1.
<mgrwt>
<rscale>  0 0.11686269E+03</rscale>
<asrwt>0</asrwt>
<pdfrwt beam="2">  1        2 0.13940539E-01 0.12509659E+03</pdfrwt>
<pdfrwt beam="1">  1       -2 0.25958971E-01 0.12509659E+03</pdfrwt>
<totfact> 0.53488179E+03</totfact>
</mgrwt>
</event>
<event>
 7    1  0.5206756E-006  0.1347097E+03  0.7546771E-02  0.1232615E+00
          1   -1    0    0  501    0  0.00000000000E+00  0.00000000000E+00  0.74036839438E+03  0.74036839438E+03  0.00000000000E+00 0. -1.
         -1   -1    0    0    0  501 -0.00000000000E+00 -0.00000000000E+00 -0.20262794775E+02  0.20262794775E+02  0.00000000000E+00 0.  1.
         23    2    1    2    0    0 -0.24654452937E+02  0.43753416618E+02  0.48030551427E+03  0.49883874842E+03  0.12499802551E+03 0.  0.
          5    1    3    3  502    0 -0.39335955621E+01  0.84924599141E+02  0.35970756841E+03  0.36964751519E+03  0.47000000000E+01 0.  1.
         -5    1    3    3    0  502 -0.20720857375E+02 -0.41171182523E+02  0.12059794585E+03  0.12919123324E+03  0.47000000000E+01 0.  1.
        -11    1    1    2    0    0  0.36545916297E+02  0.18731864595E+02  0.10477232598E+03  0.11253322639E+03  0.00000000000E+00 0. -1.
         11    1    1    2    0    0 -0.11891463360E+02 -0.62485281214E+02  0.13502775935E+03  0.14925921434E+03  0.00000000000E+00 0.  1.
<mgrwt>
<rscale>  0 0.12658349E+03</rscale>
<asrwt>0</asrwt>
<pdfrwt beam="1">  1        1 0.11390281E+00 0.13470972E+03</pdfrwt>
<pdfrwt beam="2">  1       -1 0.31173536E-02 0.13470972E+03</pdfrwt>
<totfact> 0.88767657E+03</totfact>
</mgrwt>
</event>
<event>
 7    1  0.5206756E-006  0.1903246E+03  0.7546771E-02  0.1163252E+00
          1   -1    0    0  501    0  0.00000000000E+00  0.00000000000E+00  0.89270387097E+02  0.89270387097E+02  0.00000000000E+00 0. -1.
         -1   -1    0    0    0  501 -0.00000000000E+00 -0.00000000000E+00 -0.36455304882E+03  0.36455304882E+03  0.00000000000E+00 0.  1.
         23    2    1    2    0    0 -0.13679056627E+03  0.43439103104E+02 -0.16537514730E+03  0.25213567864E+03  0.12499938559E+03 0.  0.
          5    1    3    3  502    0 -0.12955209432E+03  0.82123343442E+01 -0.64683114564E+02  0.14511093304E+03  0.47000000000E+01 0. -1.
         -5    1    3    3    0  502 -0.72384719504E+01  0.35226768760E+02 -0.10069203274E+03  0.10702474560E+03  0.47000000000E+01 0. -1.
        -11    1    1    2    0    0  0.36324318119E+02  0.50817402805E+01  0.98851017921E+01  0.37986779391E+02  0.00000000000E+00 0. -1.
         11    1    1    2    0    0  0.10046624815E+03 -0.48520843385E+02 -0.11979261621E+03  0.16370097788E+03  0.00000000000E+00 0.  1.
<mgrwt>
<rscale>  0 0.18478373E+03</rscale>
<asrwt>0</asrwt>
<pdfrwt beam="1">  1        1 0.13733906E-01 0.19032462E+03</pdfrwt>
<pdfrwt beam="2">  1       -1 0.56085085E-01 0.19032462E+03</pdfrwt>
<totfact> 0.13728683E+03</totfact>
</mgrwt>
</event>
<event>
 7    1  0.5206756E-006  0.1312116E+03  0.7546771E-02  0.1246455E+00
          1   -1    0    0  501    0  0.00000000000E+00  0.00000000000E+00  0.31463567970E+02  0.31463567970E+02  0.00000000000E+00 0. -1.
         -1   -1    0    0    0  501 -0.00000000000E+00 -0.00000000000E+00 -0.37416747113E+03  0.37416747113E+03  0.00000000000E+00 0.  1.
         23    2    1    2    0    0  0.22416942389E+02  0.32965654884E+02 -0.20592931789E+03  0.24417897026E+03  0.12500892704E+03 0.  0.
          5    1    3    3  502    0  0.39714842033E+02 -0.70966780521E+01 -0.79428391063E+01  0.41386111320E+02  0.47000000000E+01 0. -1.
         -5    1    3    3    0  502 -0.17297899644E+02  0.40062332936E+02 -0.19798647879E+03  0.20279285894E+03  0.47000000000E+01 0. -1.
        -11    1    1    2    0    0 -0.35509925941E+02 -0.11960207955E+02 -0.20780706172E+02  0.42846693731E+02  0.00000000000E+00 0. -1.
         11    1    1    2    0    0  0.13092983552E+02 -0.21005446930E+02 -0.11599387909E+03  0.11860537512E+03  0.00000000000E+00 0.  1.
<mgrwt>
<rscale>  0 0.11798726E+03</rscale>
<asrwt>0</asrwt>
<pdfrwt beam="1">  1        1 0.48405491E-02 0.13121161E+03</pdfrwt>
<pdfrwt beam="2">  1       -1 0.57564224E-01 0.13121161E+03</pdfrwt>
<totfact> 0.52147392E+03</totfact>
</mgrwt>
</event>
<event>
 7    1  0.5206756E-006  0.1511298E+03  0.7546771E-02  0.1207877E+00
          1   -1    0    0  501    0  0.00000000000E+00  0.00000000000E+00  0.10560660021E+03  0.10560660021E+03  0.00000000000E+00 0. -1.
         -1   -1    0    0    0  501 -0.00000000000E+00 -0.00000000000E+00 -0.29163553556E+03  0.29163553556E+03  0.00000000000E+00 0.  1.
         23    2    1    2    0    0  0.64834282404E+01  0.84693001573E+02  0.23800462346E+02  0.15299244910E+03  0.12500115246E+03 0.  0.
          5    1    3    3  502    0  0.62747698576E+02  0.22083621639E+02  0.13742278180E+02  0.68087445472E+02  0.47000000000E+01 0.  1.
         -5    1    3    3    0  502 -0.56264270335E+02  0.62609379934E+02  0.10058184166E+02  0.84905003626E+02  0.47000000000E+01 0.  1.
        -11    1    1    2    0    0 -0.20734412578E+02  0.12745981348E+02 -0.62178064896E+02  0.66771907713E+02  0.00000000000E+00 0.  1.
         11    1    1    2    0    0  0.14250984338E+02 -0.97438982921E+02 -0.14765133280E+03  0.17747777896E+03  0.00000000000E+00 0. -1.
<mgrwt>
<rscale>  0 0.14413051E+03</rscale>
<asrwt>0</asrwt>
<pdfrwt beam="1">  1        1 0.16247169E-01 0.15112984E+03</pdfrwt>
<pdfrwt beam="2">  1       -1 0.44867006E-01 0.15112984E+03</pdfrwt>
<totfact> 0.16505858E+03</totfact>
</mgrwt>
</event>
<event>
 7    1  0.5206756E-006  0.1519907E+03  0.7546771E-02  0.1207165E+00
          4   -1    0    0  501    0  0.00000000000E+00  0.00000000000E+00  0.40666312084E+03  0.40666312084E+03  0.00000000000E+00 0. -1.
         -4   -1    0    0    0  501 -0.00000000000E+00 -0.00000000000E+00 -0.49288452553E+02  0.49288452553E+02  0.00000000000E+00 0.  1.
         23    2    1    2    0    0 -0.68576676270E+02  0.52662702894E+02  0.24330969312E+03  0.28688111479E+03  0.12500018579E+03 0.  0.
          5    1    3    3  502    0 -0.55194149256E+02  0.70544364395E+02  0.24787597623E+03  0.26360480089E+03  0.47000000000E+01 0.  1.
         -5    1    3    3    0  502 -0.13382527014E+02 -0.17881661501E+02 -0.45662831032E+01  0.23276313898E+02  0.47000000000E+01 0.  1.
        -11    1    1    2    0    0 -0.14216090570E+02 -0.25664538938E+02  0.54249835552E+01  0.29836156532E+02  0.00000000000E+00 0.  1.
         11    1    1    2    0    0  0.82792766840E+02 -0.26998163956E+02  0.10863999161E+03  0.13923430208E+03  0.00000000000E+00 0. -1.
<mgrwt>
<rscale>  0 0.14468142E+03</rscale>
<asrwt>0</asrwt>
<pdfrwt beam="1">  1        4 0.62563555E-01 0.15199068E+03</pdfrwt>
<pdfrwt beam="2">  1       -4 0.75828391E-02 0.15199068E+03</pdfrwt>
<totfact> 0.49713682E+02</totfact>
</mgrwt>
</event>
<event>
 7    1  0.5206756E-006  0.1737395E+03  0.7546771E-02  0.1181687E+00
          3   -1    0    0  501    0  0.00000000000E+00  0.00000000000E+00  0.24468287963E+03  0.24468287963E+03  0.00000000000E+00 0. -1.
         -3   -1    0    0    0  501 -0.00000000000E+00 -0.00000000000E+00 -0.15459336891E+03  0.15459336891E+03  0.00000000000E+00 0.  1.
         23    2    1    2    0    0 -0.96468977740E+02 -0.72484278013E+02  0.16102021899E+03  0.23688163893E+03  0.12500066285E+03 0.  0.
          5    1    3    3  502    0 -0.98566701244E+02 -0.12956275158E+01  0.11683836638E+03  0.15293909606E+03  0.47000000000E+01 0.  1.
         -5    1    3    3    0  502  0.20977235042E+01 -0.71188650497E+02  0.44181852609E+02  0.83942542870E+02  0.47000000000E+01 0.  1.
        -11    1    1    2    0    0  0.81983458880E+02  0.19669053661E+02 -0.17957355449E+02  0.86201077816E+02  0.00000000000E+00 0.  1.
         11    1    1    2    0    0  0.14485518860E+02  0.52815224352E+02 -0.52973352813E+02  0.76193531800E+02  0.00000000000E+00 0. -1.
<mgrwt>
<rscale>  0 0.16637011E+03</rscale>
<asrwt>0</asrwt>
<pdfrwt beam="1">  1        3 0.37643520E-01 0.17373946E+03</pdfrwt>
<pdfrwt beam="2">  1       -3 0.23783595E-01 0.17373946E+03</pdfrwt>
<totfact> 0.27612443E+02</totfact>
</mgrwt>
</event>
<event>
 7    1  0.5206756E-006  0.1408370E+03  0.7546771E-02  0.1223077E+00
          2   -1    0    0  501    0  0.00000000000E+00  0.00000000000E+00  0.36946947536E+03  0.36946947536E+03  0.00000000000E+00 0. -1.
         -2   -1    0    0    0  501 -0.00000000000E+00 -0.00000000000E+00 -0.43317244527E+02  0.43317244527E+02  0.00000000000E+00 0.  1.
         23    2    1    2    0    0  0.12168639519E+02  0.63736856213E+02  0.18949174397E+03  0.23609780791E+03  0.12499836496E+03 0.  0.
          5    1    3    3  502    0  0.25508561237E+01  0.87442757125E+02  0.19090718083E+03  0.21004852852E+03  0.47000000000E+01 0.  1.
         -5    1    3    3    0  502  0.96177833954E+01 -0.23705900912E+02 -0.14154368605E+01  0.26049279395E+02  0.47000000000E+01 0.  1.
        -11    1    1    2    0    0  0.30872296845E+02 -0.54482109111E+02  0.52531866018E+02  0.81737359102E+02  0.00000000000E+00 0.  1.
         11    1    1    2    0    0 -0.43040936365E+02 -0.92547471026E+01  0.84128620846E+02  0.94951552871E+02  0.00000000000E+00 0. -1.
<mgrwt>
<rscale>  0 0.13299557E+03</rscale>
<asrwt>0</asrwt>
<pdfrwt beam="1">  1        2 0.56841456E-01 0.14083698E+03</pdfrwt>
<pdfrwt beam="2">  1       -2 0.66641917E-02 0.14083698E+03</pdfrwt>
<totfact> 0.10412113E+04</totfact>
</mgrwt>
</event>
<event>
 7    1  0.5206756E-006  0.1465495E+03  0.7546771E-02  0.1228480E+00
         -2   -1    0    0    0  501 -0.00000000000E+00  0.00000000000E+00  0.23112973481E+02  0.23112973481E+02  0.00000000000E+00 0.  1.
          2   -1    0    0  501    0  0.00000000000E+00 -0.00000000000E+00 -0.72271676035E+03  0.72271676035E+03  0.00000000000E+00 0. -1.
         23    2    1    2    0    0 -0.12095724533E+02  0.75487662428E+02 -0.57112604485E+03  0.58962844930E+03  0.12502821837E+03 0.  0.
          5    1    3    3  502    0  0.33388115797E+02  0.90033121079E+02 -0.42830096755E+03  0.43895846953E+03  0.47000000000E+01 0. -1.
         -5    1    3    3    0  502 -0.45483840331E+02 -0.14545458651E+02 -0.14282507730E+03  0.15066997977E+03  0.47000000000E+01 0. -1.
        -11    1    1    2    0    0 -0.14110171505E+02 -0.79684268133E+01 -0.19549667715E+02  0.25392563351E+02  0.00000000000E+00 0. -1.
         11    1    1    2    0    0  0.26205896038E+02 -0.67519235615E+02 -0.10892807431E+03  0.13080872118E+03  0.00000000000E+00 0.  1.
<mgrwt>
<rscale>  0 0.12931197E+03</rscale>
<asrwt>0</asrwt>
<pdfrwt beam="2">  1        2 0.11118720E+00 0.14654948E+03</pdfrwt>
<pdfrwt beam="1">  1       -2 0.35558418E-02 0.14654948E+03</pdfrwt>
<totfact> 0.12695798E+04</totfact>
</mgrwt>
</event>
<event>
 7    1  0.5206756E-006  0.1253518E+03  0.7546771E-02  0.1247821E+00
         -1   -1    0    0    0  501 -0.00000000000E+00  0.00000000000E+00  0.27182217362E+02  0.27182217362E+02  0.00000000000E+00 0.  1.
          1   -1    0    0  501    0  0.00000000000E+00 -0.00000000000E+00 -0.56270830333E+03  0.56270830333E+03  0.00000000000E+00 0. -1.
         23    2    1    2    0    0 -0.49279480602E+01  0.79666630264E+01 -0.42775426867E+03  0.44574295200E+03  0.12500125000E+03 0.  0.
          5    1    3    3  502    0  0.51200642083E+02  0.30004510547E+02 -0.27666828240E+03  0.28300036200E+03  0.47000000000E+01 0. -1.
         -5    1    3    3    0  502 -0.56128590143E+02 -0.22037847520E+02 -0.15108598627E+03  0.16274259000E+03  0.47000000000E+01 0. -1.
        -11    1    1    2    0    0 -0.40117368050E+02 -0.32852026322E+00 -0.82972680434E+02  0.92162773630E+02  0.00000000000E+00 0. -1.
         11    1    1    2    0    0  0.45045316110E+02 -0.76381427632E+01 -0.24799136864E+02  0.51984795061E+02  0.00000000000E+00 0.  1.
<mgrwt>
<rscale>  0 0.11718096E+03</rscale>
<asrwt>0</asrwt>
<pdfrwt beam="2">  1        1 0.86570510E-01 0.12535176E+03</pdfrwt>
<pdfrwt beam="1">  1       -1 0.41818795E-02 0.12535176E+03</pdfrwt>
<totfact> 0.84238167E+03</totfact>
</mgrwt>
</event>
<event>
 7    1  0.5206756E-006  0.1252388E+03  0.7546771E-02  0.1250072E+00
          1   -1    0    0  501    0  0.00000000000E+00  0.00000000000E+00  0.73708955611E+03  0.73708955611E+03  0.00000000000E+00 0. -1.
         -1   -1    0    0    0  501 -0.00000000000E+00 -0.00000000000E+00 -0.19871439399E+02  0.19871439399E+02  0.00000000000E+00 0.  1.
         23    2    1    2    0    0  0.66813322920E+01 -0.38896926675E+01  0.56914915560E+03  0.58276541115E+03  0.12499997284E+03 0.  0.
          5    1    3    3  502    0 -0.49060802004E+02  0.32008834236E+02  0.26923652710E+03  0.27557562535E+03  0.47000000000E+01 0.  1.
         -5    1    3    3    0  502  0.55742134296E+02 -0.35898526904E+02  0.29991262849E+03  0.30718978580E+03  0.47000000000E+01 0.  1.
        -11    1    1    2    0    0  0.36842187768E+02 -0.16776239969E+02  0.45676982538E+02  0.61034217950E+02  0.00000000000E+00 0. -1.
         11    1    1    2    0    0 -0.43523520060E+02  0.20665932636E+02  0.10239197858E+03  0.11316136641E+03  0.00000000000E+00 0.  1.
<mgrwt>
<rscale>  0 0.11586872E+03</rscale>
<asrwt>0</asrwt>
<pdfrwt beam="1">  1        1 0.11339837E+00 0.12523882E+03</pdfrwt>
<pdfrwt beam="2">  1       -1 0.30571451E-02 0.12523882E+03</pdfrwt>
<totfact> 0.91497233E+03</totfact>
</mgrwt>
</event>
<event>
 7    1  0.5206756E-006  0.1355255E+03  0.7546771E-02  0.1231823E+00
         -1   -1    0    0    0  501 -0.00000000000E+00  0.00000000000E+00  0.39797648375E+02  0.39797648375E+02  0.00000000000E+00 0. -1.
          1   -1    0    0  501    0  0.00000000000E+00 -0.00000000000E+00 -0.37872097998E+03  0.37872097998E+03  0.00000000000E+00 0.  1.
         23    2    1    2    0    0 -0.32182714594E+02 -0.41303478293E+02 -0.23258682016E+03  0.26919097589E+03  0.12500179259E+03 0.  0.
          5    1    3    3  502    0 -0.39492193459E+02 -0.60058663351E+02 -0.55584405015E+02  0.90985671777E+02  0.47000000000E+01 0.  1.
         -5    1    3    3    0  502  0.73094788658E+01  0.18755185058E+02 -0.17700241514E+03  0.17820530411E+03  0.47000000000E+01 0.  1.
        -11    1    1    2    0    0 -0.16960635348E+02 -0.19547277123E+02 -0.34501369509E+02  0.43128919443E+02  0.00000000000E+00 0.  1.
         11    1    1    2    0    0  0.49143349942E+02  0.60850755416E+02 -0.71835141939E+02  0.10619873302E+03  0.00000000000E+00 0. -1.
<mgrwt>
<rscale>  0 0.12710036E+03</rscale>
<asrwt>0</asrwt>
<pdfrwt beam="2">  1        1 0.58264766E-01 0.13552547E+03</pdfrwt>
<pdfrwt beam="1">  1       -1 0.61227151E-02 0.13552547E+03</pdfrwt>
<totfact> 0.80227796E+03</totfact>
</mgrwt>
</event>
<event>
 7    1  0.5206756E-006  0.1567775E+03  0.7546771E-02  0.1200832E+00
         -2   -1    0    0    0  501 -0.00000000000E+00  0.00000000000E+00  0.40205484266E+02  0.40205484266E+02  0.00000000000E+00 0.  1.
          2   -1    0    0  501    0  0.00000000000E+00 -0.00000000000E+00 -0.51300879415E+03  0.51300879415E+03  0.00000000000E+00 0. -1.
         23    2    1    2    0    0 -0.94627518529E+02 -0.12147052673E+01 -0.26544771505E+03  0.30828829822E+03  0.12499337032E+03 0.  0.
          5    1    3    3  502    0 -0.76761529950E+02 -0.55884439622E+02 -0.12992142765E+03  0.16098779592E+03  0.47000000000E+01 0. -1.
         -5    1    3    3    0  502 -0.17865988579E+02  0.54669734355E+02 -0.13552628740E+03  0.14730050230E+03  0.47000000000E+01 0. -1.
        -11    1    1    2    0    0  0.82172877954E+02  0.35567568685E+02 -0.17286325832E+03  0.19467701428E+03  0.00000000000E+00 0. -1.
         11    1    1    2    0    0  0.12454640575E+02 -0.34352863418E+02 -0.34492336516E+02  0.50248965912E+02  0.00000000000E+00 0.  1.
<mgrwt>
<rscale>  0 0.14970787E+03</rscale>
<asrwt>0</asrwt>
<pdfrwt beam="2">  1        2 0.78924420E-01 0.15677750E+03</pdfrwt>
<pdfrwt beam="1">  1       -2 0.61854599E-02 0.15677750E+03</pdfrwt>
<totfact> 0.82352524E+03</totfact>
</mgrwt>
</event>
<event>
 7    1  0.5206756E-006  0.1377375E+03  0.7546771E-02  0.1228705E+00
         -3   -1    0    0    0  501 -0.00000000000E+00  0.00000000000E+00  0.43840609738E+02  0.43840609738E+02  0.00000000000E+00 0.  1.
          3   -1    0    0  501    0  0.00000000000E+00 -0.00000000000E+00 -0.34331206479E+03  0.34331206479E+03  0.00000000000E+00 0. -1.
         23    2    1    2    0    0 -0.57109408804E+02  0.90427914132E+01 -0.18704305222E+03  0.23228585409E+03  0.12501343117E+03 0.  0.
          5    1    3    3  502    0 -0.59402827043E+02  0.41226723183E+02 -0.18605264199E+03  0.19966475441E+03  0.47000000000E+01 0. -1.
         -5    1    3    3    0  502  0.22934182394E+01 -0.32183931770E+02 -0.99041023594E+00  0.32621099672E+02  0.47000000000E+01 0. -1.
        -11    1    1    2    0    0  0.73113300131E+02 -0.98186128620E+01 -0.11690155689E+03  0.13823145017E+03  0.00000000000E+00 0. -1.
         11    1    1    2    0    0 -0.16003891328E+02  0.77582144880E+00  0.44731540620E+01  0.16635370264E+02  0.00000000000E+00 0.  1.
<mgrwt>
<rscale>  0 0.12916145E+03</rscale>
<asrwt>0</asrwt>
<pdfrwt beam="2">  1        3 0.52817238E-01 0.13773748E+03</pdfrwt>
<pdfrwt beam="1">  1       -3 0.67447095E-02 0.13773748E+03</pdfrwt>
<totfact> 0.11642575E+03</totfact>
</mgrwt>
</event>
<event>
 7    1  0.5206756E-006  0.1343017E+03  0.7546771E-02  0.1234142E+00
          1   -1    0    0  501    0  0.00000000000E+00  0.00000000000E+00  0.46130602072E+02  0.46130602072E+02  0.00000000000E+00 0. -1.
         -1   -1    0    0    0  501 -0.00000000000E+00 -0.00000000000E+00 -0.30675358293E+03  0.30675358293E+03  0.00000000000E+00 0.  1.
         23    2    1    2    0    0 -0.47914245651E+02 -0.10771861503E+02 -0.13239935649E+03  0.18859094269E+03  0.12500058451E+03 0.  0.
          5    1    3    3  502    0  0.13127591769E+02 -0.32712393144E+02 -0.11626873045E+03  0.12158512249E+03  0.47000000000E+01 0.  1.
         -5    1    3    3    0  502 -0.61041837420E+02  0.21940531641E+02 -0.16130626046E+02  0.67005820202E+02  0.47000000000E+01 0.  1.
        -11    1    1    2    0    0 -0.14289864592E+02 -0.24940021924E+02 -0.53393332590E+02  0.60638707842E+02  0.00000000000E+00 0.  1.
         11    1    1    2    0    0  0.62204110243E+02  0.35711883427E+02 -0.74830291777E+02  0.10365453447E+03  0.00000000000E+00 0. -1.
<mgrwt>
<rscale>  0 0.12559512E+03</rscale>
<asrwt>0</asrwt>
<pdfrwt beam="1">  1        1 0.70970159E-02 0.13430173E+03</pdfrwt>
<pdfrwt beam="2">  1       -1 0.47192858E-01 0.13430173E+03</pdfrwt>
<totfact> 0.44774455E+03</totfact>
</mgrwt>
</event>
<event>
 7    1  0.5206756E-006  0.1462201E+03  0.7546771E-02  0.1214759E+00
          2   -1    0    0  501    0  0.00000000000E+00  0.00000000000E+00  0.15846210830E+03  0.15846210830E+03  0.00000000000E+00 0.  1.
         -2   -1    0    0    0  501 -0.00000000000E+00 -0.00000000000E+00 -0.12035250912E+03  0.12035250912E+03  0.00000000000E+00 0. -1.
         23    2    1    2    0    0  0.10330703873E+02 -0.75170530357E+02  0.59203956662E+02  0.15775115419E+03  0.12499194409E+03 0.  0.
          5    1    3    3  502    0 -0.26763448148E+02 -0.98325002679E+02  0.45390307489E+02  0.11165329517E+03  0.47000000000E+01 0. -1.
         -5    1    3    3    0  502  0.37094152021E+02  0.23154472322E+02  0.13813649173E+02  0.46097859019E+02  0.47000000000E+01 0. -1.
        -11    1    1    2    0    0  0.40087580750E+02  0.25455323561E+02 -0.11470442112E+01  0.47500561454E+02  0.00000000000E+00 0.  1.
         11    1    1    2    0    0 -0.50418284623E+02  0.49715206796E+02 -0.19947313273E+02  0.73562901777E+02  0.00000000000E+00 0. -1.
<mgrwt>
<rscale>  0 0.13894243E+03</rscale>
<asrwt>0</asrwt>
<pdfrwt beam="1">  1        2 0.24378786E-01 0.14622010E+03</pdfrwt>
<pdfrwt beam="2">  1       -2 0.18515771E-01 0.14622010E+03</pdfrwt>
<totfact> 0.50934007E+03</totfact>
</mgrwt>
</event>
<event>
 7    1  0.5206756E-006  0.1399795E+03  0.7546771E-02  0.1223776E+00
          2   -1    0    0  501    0  0.00000000000E+00  0.00000000000E+00  0.14042728432E+03  0.14042728432E+03  0.00000000000E+00 0. -1.
         -2   -1    0    0    0  501 -0.00000000000E+00 -0.00000000000E+00 -0.12780823353E+03  0.12780823353E+03  0.00000000000E+00 0.  1.
         23    2    1    2    0    0  0.55984348987E+02 -0.28915159483E+02  0.51701341925E+02  0.14922230519E+03  0.12499573525E+03 0.  0.
          5    1    3    3  502    0  0.50028264768E+02  0.84877587793E+01 -0.29937387207E+02  0.59103354199E+02  0.47000000000E+01 0.  1.
         -5    1    3    3    0  502  0.59560842188E+01 -0.37402918263E+02  0.81638729132E+02  0.90118950993E+02  0.47000000000E+01 0.  1.
        -11    1    1    2    0    0  0.51032665995E+01 -0.27993934147E+02 -0.52781284588E+01  0.28940668946E+02  0.00000000000E+00 0.  1.
         11    1    1    2    0    0 -0.61087615586E+02  0.56909093630E+02 -0.33804162676E+02  0.90072543708E+02  0.00000000000E+00 0. -1.
<mgrwt>
<rscale>  0 0.13251123E+03</rscale>
<asrwt>0</asrwt>
<pdfrwt beam="1">  1        2 0.21604198E-01 0.13997953E+03</pdfrwt>
<pdfrwt beam="2">  1       -2 0.19662805E-01 0.13997953E+03</pdfrwt>
<totfact> 0.52526332E+03</totfact>
</mgrwt>
</event>
<event>
 7    1  0.5206756E-006  0.1686533E+03  0.7546771E-02  0.1186219E+00
         -1   -1    0    0    0  501 -0.00000000000E+00  0.00000000000E+00  0.19102853408E+03  0.19102853408E+03  0.00000000000E+00 0.  1.
          1   -1    0    0  501    0  0.00000000000E+00 -0.00000000000E+00 -0.13778924248E+03  0.13778924248E+03  0.00000000000E+00 0. -1.
         23    2    1    2    0    0 -0.10852068081E+03  0.32316396084E+02 -0.14695225662E+02  0.16929226223E+03  0.12499133080E+03 0.  0.
          5    1    3    3  502    0  0.27547500415E+02  0.13022010909E+02  0.12834327607E+01  0.30857328901E+02  0.47000000000E+01 0. -1.
         -5    1    3    3    0  502 -0.13606818122E+03  0.19294385175E+02 -0.15978658422E+02  0.13843493333E+03  0.47000000000E+01 0. -1.
        -11    1    1    2    0    0  0.22321162150E+02 -0.48162609771E+01  0.65113716065E+02  0.69001642512E+02  0.00000000000E+00 0.  1.
         11    1    1    2    0    0  0.86199518659E+02 -0.27500135107E+02  0.28208011950E+01  0.90523871810E+02  0.00000000000E+00 0. -1.
<mgrwt>
<rscale>  0 0.16221491E+03</rscale>
<asrwt>0</asrwt>
<pdfrwt beam="2">  1        1 0.21198345E-01 0.16865325E+03</pdfrwt>
<pdfrwt beam="1">  1       -1 0.29389005E-01 0.16865325E+03</pdfrwt>
<totfact> 0.24540955E+03</totfact>
</mgrwt>
</event>
<event>
 7    1  0.5206756E-006  0.1348173E+03  0.7546771E-02  0.1253672E+00
         -3   -1    0    0    0  501 -0.00000000000E+00  0.00000000000E+00  0.30439782810E+03  0.30439782810E+03  0.00000000000E+00 0.  1.
          3   -1    0    0  501    0  0.00000000000E+00 -0.00000000000E+00 -0.38086243241E+02  0.38086243241E+02  0.00000000000E+00 0. -1.
         23    2    1    2    0    0  0.46807839405E+02 -0.19011050460E+02  0.11813291883E+03  0.17925143821E+03  0.12499319069E+03 0.  0.
          5    1    3    3  502    0  0.16612282566E+02 -0.55511178653E+02  0.72529511101E+01  0.58584590016E+02  0.47000000000E+01 0. -1.
         -5    1    3    3    0  502  0.30195556839E+02  0.36500128194E+02  0.11087996772E+03  0.12066684819E+03  0.47000000000E+01 0. -1.
        -11    1    1    2    0    0 -0.51575023111E+02  0.98986084887E+01  0.14159864962E+03  0.15102365057E+03  0.00000000000E+00 0.  1.
         11    1    1    2    0    0  0.47671837058E+01  0.91124419710E+01  0.65800164081E+01  0.12208982558E+02  0.00000000000E+00 0. -1.
<mgrwt>
<rscale>  0 0.11381048E+03</rscale>
<asrwt>0</asrwt>
<pdfrwt beam="2">  1        3 0.58594222E-02 0.13481725E+03</pdfrwt>
<pdfrwt beam="1">  1       -3 0.46830434E-01 0.13481725E+03</pdfrwt>
<totfact> 0.18466119E+03</totfact>
</mgrwt>
</event>
<event>
 7    1  0.5206756E-006  0.1674477E+03  0.7546771E-02  0.1187353E+00
          2   -1    0    0  501    0  0.00000000000E+00  0.00000000000E+00  0.36182520305E+03  0.36182520305E+03  0.00000000000E+00 0. -1.
         -2   -1    0    0    0  501 -0.00000000000E+00 -0.00000000000E+00 -0.78328369333E+02  0.78328369333E+02  0.00000000000E+00 0.  1.
         23    2    1    2    0    0  0.11067759346E+03  0.13037718247E+02  0.23466553126E+03  0.28828222144E+03  0.12497686124E+03 0.  0.
          5    1    3    3  502    0  0.97838470403E+02  0.62177873052E+02  0.17219094869E+03  0.20763012064E+03  0.47000000000E+01 0. -1.
         -5    1    3    3    0  502  0.12839123061E+02 -0.49140154805E+02  0.62474582570E+02  0.80652100795E+02  0.47000000000E+01 0. -1.
        -11    1    1    2    0    0 -0.62979482556E+02 -0.49183793449E+02  0.45447310603E+02  0.91928879043E+02  0.00000000000E+00 0. -1.
         11    1    1    2    0    0 -0.47698110908E+02  0.36146075202E+02  0.33839918542E+01  0.59942471901E+02  0.00000000000E+00 0.  1.
<mgrwt>
<rscale>  0 0.16119600E+03</rscale>
<asrwt>0</asrwt>
<pdfrwt beam="1">  1        2 0.55665415E-01 0.16744769E+03</pdfrwt>
<pdfrwt beam="2">  1       -2 0.12050519E-01 0.16744769E+03</pdfrwt>
<totfact> 0.42612253E+03</totfact>
</mgrwt>
</event>
<event>
 7    1  0.5206756E-006  0.1791894E+03  0.7546771E-02  0.1174377E+00
          1   -1    0    0  501    0  0.00000000000E+00  0.00000000000E+00  0.67402105275E+03  0.67402105275E+03  0.00000000000E+00 0. -1.
         -1   -1    0    0    0  501 -0.00000000000E+00 -0.00000000000E+00 -0.42448857846E+02  0.42448857846E+02  0.00000000000E+00 0.  1.
         23    2    1    2    0    0 -0.66721288645E+02 -0.10969525139E+03  0.37594411839E+03  0.41646467104E+03  0.12499625407E+03 0.  0.
          5    1    3    3  502    0 -0.72549988015E+02 -0.31587047490E+02  0.89909409827E+02  0.11986256424E+03  0.47000000000E+01 0. -1.
         -5    1    3    3    0  502  0.58286993700E+01 -0.78108203903E+02  0.28603470857E+03  0.29660210680E+03  0.47000000000E+01 0. -1.
        -11    1    1    2    0    0 -0.26114836662E+01  0.12823567855E+02 -0.45472665103E+01  0.13854290750E+02  0.00000000000E+00 0.  1.
         11    1    1    2    0    0  0.69332772311E+02  0.96871683537E+02  0.26017534302E+03  0.28615094880E+03  0.00000000000E+00 0. -1.
<mgrwt>
<rscale>  0 0.17337150E+03</rscale>
<asrwt>0</asrwt>
<pdfrwt beam="1">  1        1 0.10369554E+00 0.17918940E+03</pdfrwt>
<pdfrwt beam="2">  1       -1 0.65305940E-02 0.17918940E+03</pdfrwt>
<totfact> 0.34475697E+03</totfact>
</mgrwt>
</event>
<event>
 7    1  0.5206756E-006  0.1528193E+03  0.7546771E-02  0.1208627E+00
          1   -1    0    0  501    0  0.00000000000E+00  0.00000000000E+00  0.54487601728E+03  0.54487601728E+03  0.00000000000E+00 0. -1.
         -1   -1    0    0    0  501 -0.00000000000E+00 -0.00000000000E+00 -0.35497161492E+02  0.35497161492E+02  0.00000000000E+00 0.  1.
         23    2    1    2    0    0  0.52730733662E+02 -0.70339313513E+02  0.34610005195E+03  0.37833713526E+03  0.12500237063E+03 0.  0.
          5    1    3    3  502    0  0.71342743790E+02  0.81799409542E+01  0.16634049024E+03  0.18124002653E+03  0.47000000000E+01 0.  1.
         -5    1    3    3    0  502 -0.18612010127E+02 -0.78519254467E+02  0.17975956171E+03  0.19709710873E+03  0.47000000000E+01 0.  1.
        -11    1    1    2    0    0 -0.67388829100E+02  0.59461287572E+02  0.92612382211E+02  0.12905019313E+03  0.00000000000E+00 0.  1.
         11    1    1    2    0    0  0.14658095438E+02  0.10878025941E+02  0.70666421626E+02  0.72985850380E+02  0.00000000000E+00 0. -1.
<mgrwt>
<rscale>  0 0.14355265E+03</rscale>
<asrwt>0</asrwt>
<pdfrwt beam="1">  1        1 0.83827074E-01 0.15281931E+03</pdfrwt>
<pdfrwt beam="2">  1       -1 0.54611021E-02 0.15281931E+03</pdfrwt>
<totfact> 0.59977329E+03</totfact>
</mgrwt>
</event>
<event>
 6    1  0.5206756E-006  0.1523984E+03  0.7546771E-02  0.1215884E+00
         -2   -1    0    0    0  501 -0.00000000000E+00  0.00000000000E+00  0.20382406403E+02  0.20382406403E+02  0.00000000000E+00 0.  1.
          2   -1    0    0  501    0  0.00000000000E+00 -0.00000000000E+00 -0.21690913287E+04  0.21690913287E+04  0.00000000000E+00 0. -1.
          5    1    1    2  502    0 -0.30731976416E+02 -0.21222054626E+02 -0.14117124721E+04  0.14122142274E+04  0.47000000000E+01 0. -1.
         -5    1    1    2    0  502  0.52575915626E+02  0.59843686174E+02 -0.60352928125E+03  0.60878171540E+03  0.47000000000E+01 0.  1.
        -11    1    1    2    0    0  0.63398194754E+01  0.23066950397E+02 -0.75696112741E+02  0.79386264528E+02  0.00000000000E+00 0. -1.
         11    1    1    2    0    0 -0.28183758686E+02 -0.61688581945E+02 -0.57771056150E+02  0.89091527794E+02  0.00000000000E+00 0.  1.
<mgrwt>
<rscale>  0 0.13811832E+03</rscale>
<asrwt>0</asrwt>
<pdfrwt beam="2">  1        2 0.33370640E+00 0.15239841E+03</pdfrwt>
<pdfrwt beam="1">  1       -2 0.31357544E-02 0.15239841E+03</pdfrwt>
<totfact> 0.24138765E+03</totfact>
</mgrwt>
</event>
<event>
 7    1  0.5206756E-006  0.1645367E+03  0.7546771E-02  0.1188453E+00
          3   -1    0    0  501    0  0.00000000000E+00  0.00000000000E+00  0.53766144530E+02  0.53766144530E+02  0.00000000000E+00 0. -1.
         -3   -1    0    0    0  501 -0.00000000000E+00 -0.00000000000E+00 -0.50163724668E+03  0.50163724668E+03  0.00000000000E+00 0.  1.
         23    2    1    2    0    0 -0.10605404120E+03  0.14139243477E+02 -0.32021378853E+03  0.36001278321E+03  0.12499982337E+03 0.  0.
          5    1    3    3  502    0 -0.54527633072E+02 -0.53390564270E+02 -0.11767572408E+03  0.14033346414E+03  0.47000000000E+01 0. -1.
         -5    1    3    3    0  502 -0.51526408129E+02  0.67529807747E+02 -0.20253806446E+03  0.21967931906E+03  0.47000000000E+01 0. -1.
        -11    1    1    2    0    0  0.83750836342E+02  0.17752845577E+02 -0.30759736409E+02  0.90969926339E+02  0.00000000000E+00 0. -1.
         11    1    1    2    0    0  0.22303204859E+02 -0.31892089053E+02 -0.96897577206E+02  0.10442068167E+03  0.00000000000E+00 0.  1.
<mgrwt>
<rscale>  0 0.16021596E+03</rscale>
<asrwt>0</asrwt>
<pdfrwt beam="1">  1        3 0.82717145E-02 0.16453672E+03</pdfrwt>
<pdfrwt beam="2">  1       -3 0.77174962E-01 0.16453672E+03</pdfrwt>
<totfact> 0.38833498E+02</totfact>
</mgrwt>
</event>
<event>
 7    1  0.5206756E-006  0.1533352E+03  0.7546771E-02  0.1204421E+00
          1   -1    0    0  501    0  0.00000000000E+00  0.00000000000E+00  0.43363262925E+03  0.43363262925E+03  0.00000000000E+00 0. -1.
         -1   -1    0    0    0  501 -0.00000000000E+00 -0.00000000000E+00 -0.45991572240E+02  0.45991572240E+02  0.00000000000E+00 0.  1.
         23    2    1    2    0    0 -0.38589484480E+02 -0.79989086087E+02  0.21904576034E+03  0.26738125238E+03  0.12499714715E+03 0.  0.
          5    1    3    3  502    0 -0.76424261555E+02 -0.62044159775E+02  0.97055636500E+02  0.13831858911E+03  0.47000000000E+01 0.  1.
         -5    1    3    3    0  502  0.37834777074E+02 -0.17944926313E+02  0.12199012384E+03  0.12906266328E+03  0.47000000000E+01 0.  1.
        -11    1    1    2    0    0 -0.11849022634E+02  0.67319060522E+02  0.56539454241E+02  0.88707187605E+02  0.00000000000E+00 0. -1.
         11    1    1    2    0    0  0.50438507114E+02  0.12670025566E+02  0.11205584243E+03  0.12353576150E+03  0.00000000000E+00 0.  1.
<mgrwt>
<rscale>  0 0.14683146E+03</rscale>
<asrwt>0</asrwt>
<pdfrwt beam="1">  1        1 0.66712709E-01 0.15333522E+03</pdfrwt>
<pdfrwt beam="2">  1       -1 0.70756268E-02 0.15333522E+03</pdfrwt>
<totfact> 0.54834529E+03</totfact>
</mgrwt>
</event>
<event>
 7    1  0.5206756E-006  0.1447597E+03  0.7546771E-02  0.1217454E+00
         -2   -1    0    0    0  501 -0.00000000000E+00  0.00000000000E+00  0.33092529077E+02  0.33092529077E+02  0.00000000000E+00 0.  1.
          2   -1    0    0  501    0  0.00000000000E+00 -0.00000000000E+00 -0.56486628649E+03  0.56486628649E+03  0.00000000000E+00 0. -1.
         23    2    1    2    0    0 -0.72931445586E+02  0.33058697912E+01 -0.38183267764E+03  0.40835225612E+03  0.12500178731E+03 0.  0.
          5    1    3    3  502    0 -0.82308465425E+02 -0.25982159956E+02 -0.36028438244E+03  0.37050868052E+03  0.47000000000E+01 0. -1.
         -5    1    3    3    0  502  0.93770198386E+01  0.29288029747E+02 -0.21548295208E+02  0.37843575596E+02  0.47000000000E+01 0. -1.
        -11    1    1    2    0    0  0.23633114884E+02 -0.30591692481E+02 -0.11942961933E+03  0.12553011488E+03  0.00000000000E+00 0. -1.
         11    1    1    2    0    0  0.49298330702E+02  0.27285822690E+02 -0.30511460431E+02  0.64076444561E+02  0.00000000000E+00 0.  1.
<mgrwt>
<rscale>  0 0.13697772E+03</rscale>
<asrwt>0</asrwt>
<pdfrwt beam="2">  1        2 0.86902500E-01 0.14475970E+03</pdfrwt>
<pdfrwt beam="1">  1       -2 0.50911586E-02 0.14475970E+03</pdfrwt>
<totfact> 0.98821372E+03</totfact>
</mgrwt>
</event>
<event>
 7    1  0.5206756E-006  0.1703723E+03  0.7546771E-02  0.1184001E+00
         -1   -1    0    0    0  501 -0.00000000000E+00  0.00000000000E+00  0.77500025512E+03  0.77500025512E+03  0.00000000000E+00 0.  1.
          1   -1    0    0  501    0  0.00000000000E+00 -0.00000000000E+00 -0.33650092485E+02  0.33650092485E+02  0.00000000000E+00 0. -1.
         23    2    1    2    0    0  0.35424748622E+02 -0.11021349318E+03  0.32279363189E+03  0.36499652803E+03  0.12499923916E+03 0.  0.
          5    1    3    3  502    0  0.69648444505E+02 -0.11486835712E+03  0.27189633298E+03  0.30330735431E+03  0.47000000000E+01 0. -1.
         -5    1    3    3    0  502 -0.34223695883E+02  0.46548639408E+01  0.50897298911E+02  0.61689173723E+02  0.47000000000E+01 0. -1.
        -11    1    1    2    0    0 -0.22428125781E+02  0.53866438461E+02  0.34593692859E+03  0.35082327828E+03  0.00000000000E+00 0.  1.
         11    1    1    2    0    0 -0.12996622841E+02  0.56347054717E+02  0.72619602152E+02  0.92830541295E+02  0.00000000000E+00 0. -1.
<mgrwt>
<rscale>  0 0.16423070E+03</rscale>
<asrwt>0</asrwt>
<pdfrwt beam="2">  1        1 0.51769379E-02 0.17037235E+03</pdfrwt>
<pdfrwt beam="1">  1       -1 0.11923080E+00 0.17037235E+03</pdfrwt>
<totfact> 0.10530782E+03</totfact>
</mgrwt>
</event>
<event>
 7    1  0.5206756E-006  0.2976524E+03  0.7546771E-02  0.1088033E+00
          2   -1    0    0  501    0  0.00000000000E+00  0.00000000000E+00  0.26526554863E+04  0.26526554863E+04  0.00000000000E+00 0. -1.
         -2   -1    0    0    0  501 -0.00000000000E+00 -0.00000000000E+00 -0.32214923247E+02  0.32214923247E+02  0.00000000000E+00 0.  1.
         23    2    1    2    0    0  0.18843777261E+03  0.19356134036E+03  0.12317660339E+04  0.12672191946E+04  0.12498855196E+03 0.  0.
          5    1    3    3  502    0  0.70304707408E+02  0.92576516390E+02  0.79783334155E+03  0.80627122866E+03  0.47000000000E+01 0.  1.
         -5    1    3    3    0  502  0.11813306520E+03  0.10098482397E+03  0.43393269239E+03  0.46094796593E+03  0.47000000000E+01 0.  1.
        -11    1    1    2    0    0 -0.65257145954E+02 -0.28936243694E+02  0.22825683707E+03  0.23915891154E+03  0.00000000000E+00 0.  1.
         11    1    1    2    0    0 -0.12318062666E+03 -0.16462509667E+03  0.11604176921E+04  0.11784923035E+04  0.00000000000E+00 0. -1.
<mgrwt>
<rscale>  0 0.29447969E+03</rscale>
<asrwt>0</asrwt>
<pdfrwt beam="1">  1        2 0.40810067E+00 0.29765236E+03</pdfrwt>
<pdfrwt beam="2">  1       -2 0.49561441E-02 0.29765236E+03</pdfrwt>
<totfact> 0.65190544E+02</totfact>
</mgrwt>
</event>
<event>
 7    1  0.5206756E-006  0.1623035E+03  0.7546771E-02  0.1193485E+00
         -2   -1    0    0    0  501 -0.00000000000E+00  0.00000000000E+00  0.41844968424E+03  0.41844968424E+03  0.00000000000E+00 0. -1.
          2   -1    0    0  501    0  0.00000000000E+00 -0.00000000000E+00 -0.88574387418E+02  0.88574387418E+02  0.00000000000E+00 0.  1.
         23    2    1    2    0    0 -0.36028736901E+02  0.97053991146E+02  0.14670512304E+02  0.16296517394E+03  0.12499950762E+03 0.  0.
          5    1    3    3  502    0 -0.58356348516E+02  0.88446405268E+02  0.52193640166E+02  0.11821377285E+03  0.47000000000E+01 0. -1.
         -5    1    3    3    0  502  0.22327611615E+02  0.86075858782E+01 -0.37523127861E+02  0.44751401091E+02  0.47000000000E+01 0. -1.
        -11    1    1    2    0    0 -0.21301074559E+02 -0.71085638335E+02  0.15224215284E+03  0.16936521737E+03  0.00000000000E+00 0.  1.
         11    1    1    2    0    0  0.57329811460E+02 -0.25968352811E+02  0.16296263168E+03  0.17469368035E+03  0.00000000000E+00 0. -1.
<mgrwt>
<rscale>  0 0.15583114E+03</rscale>
<asrwt>0</asrwt>
<pdfrwt beam="2">  1        2 0.13626829E-01 0.16230349E+03</pdfrwt>
<pdfrwt beam="1">  1       -2 0.64376874E-01 0.16230349E+03</pdfrwt>
<totfact> 0.98338347E+02</totfact>
</mgrwt>
</event>
<event>
 7    1  0.5206756E-006  0.1374477E+03  0.7546771E-02  0.1228549E+00
          3   -1    0    0  501    0  0.00000000000E+00  0.00000000000E+00  0.45498349206E+02  0.45498349206E+02  0.00000000000E+00 0. -1.
         -3   -1    0    0    0  501 -0.00000000000E+00 -0.00000000000E+00 -0.34441611715E+03  0.34441611715E+03  0.00000000000E+00 0.  1.
         23    2    1    2    0    0 -0.49273627270E+02  0.28962032218E+02 -0.12700388009E+03  0.18714127954E+03  0.12500073318E+03 0.  0.
          5    1    3    3  502    0  0.23893599645E+02  0.57281701304E+01  0.12405716885E+02  0.27923249246E+02  0.47000000000E+01 0.  1.
         -5    1    3    3    0  502 -0.73167226915E+02  0.23233862088E+02 -0.13940959697E+03  0.15921803029E+03  0.47000000000E+01 0.  1.
        -11    1    1    2    0    0  0.16765124165E+02  0.23137654654E+02 -0.11684625739E+03  0.12028910307E+03  0.00000000000E+00 0.  1.
         11    1    1    2    0    0  0.32508503106E+02 -0.52099686873E+02 -0.55067630458E+02  0.82484083741E+02  0.00000000000E+00 0. -1.
<mgrwt>
<rscale>  0 0.12926620E+03</rscale>
<asrwt>0</asrwt>
<pdfrwt beam="1">  1        3 0.69997460E-02 0.13744771E+03</pdfrwt>
<pdfrwt beam="2">  1       -3 0.52987095E-01 0.13744771E+03</pdfrwt>
<totfact> 0.10885892E+03</totfact>
</mgrwt>
</event>
<event>
 7    1  0.5206756E-006  0.2079121E+03  0.7546771E-02  0.1147159E+00
         -2   -1    0    0    0  501 -0.00000000000E+00  0.00000000000E+00  0.28618687221E+02  0.28618687221E+02  0.00000000000E+00 0.  1.
          2   -1    0    0  501    0  0.00000000000E+00 -0.00000000000E+00 -0.15290315258E+04  0.15290315258E+04  0.00000000000E+00 0. -1.
         23    2    1    2    0    0 -0.10064425865E+03 -0.13218938584E+03 -0.10263456471E+04  0.10471928252E+04  0.12499650151E+03 0.  0.
          5    1    3    3  502    0 -0.11164435452E+03 -0.93818877394E+02 -0.94776465656E+03  0.95892980863E+03  0.47000000000E+01 0.  1.
         -5    1    3    3    0  502  0.11000095869E+02 -0.38370508441E+02 -0.78580990525E+02  0.88263016599E+02  0.47000000000E+01 0.  1.
        -11    1    1    2    0    0  0.57099536689E+02  0.50915740098E+02 -0.10418810029E+03  0.12925915798E+03  0.00000000000E+00 0.  1.
         11    1    1    2    0    0  0.43544721961E+02  0.81273645737E+02 -0.36987909120E+03  0.38119822981E+03  0.00000000000E+00 0. -1.
<mgrwt>
<rscale>  0 0.20308888E+03</rscale>
<asrwt>0</asrwt>
<pdfrwt beam="2">  1        2 0.23523570E+00 0.20791206E+03</pdfrwt>
<pdfrwt beam="1">  1       -2 0.44028735E-02 0.20791206E+03</pdfrwt>
<totfact> 0.31242019E+03</totfact>
</mgrwt>
</event>
<event>
 7    1  0.5206756E-006  0.1538422E+03  0.7546771E-02  0.1204300E+00
          2   -1    0    0  501    0  0.00000000000E+00  0.00000000000E+00  0.45987280449E+03  0.45987280449E+03  0.00000000000E+00 0. -1.
         -2   -1    0    0    0  501 -0.00000000000E+00 -0.00000000000E+00 -0.54904975329E+02  0.54904975329E+02  0.00000000000E+00 0.  1.
         23    2    1    2    0    0  0.86615085293E+02 -0.23052592567E+02  0.33563567428E+03  0.36921364731E+03  0.12503526098E+03 0.  0.
          5    1    3    3  502    0  0.10193501022E+03  0.16919162280E+02  0.17870455678E+03  0.20648102327E+03  0.47000000000E+01 0. -1.
         -5    1    3    3    0  502 -0.15319924925E+02 -0.39971754847E+02  0.15693111750E+03  0.16273262404E+03  0.47000000000E+01 0. -1.
        -11    1    1    2    0    0 -0.86429430464E+02 -0.15032761714E+02  0.35555621097E+02  0.94658504989E+02  0.00000000000E+00 0. -1.
         11    1    1    2    0    0 -0.18565482902E+00  0.38085354281E+02  0.33776533787E+02  0.50905627519E+02  0.00000000000E+00 0.  1.
<mgrwt>
<rscale>  0 0.14692723E+03</rscale>
<asrwt>0</asrwt>
<pdfrwt beam="1">  1        2 0.70749660E-01 0.15384216E+03</pdfrwt>
<pdfrwt beam="2">  1       -2 0.84469196E-02 0.15384216E+03</pdfrwt>
<totfact> 0.57424543E+03</totfact>
</mgrwt>
</event>
<event>
 7    1  0.5206756E-006  0.1403721E+03  0.7546771E-02  0.1217950E+00
         -2   -1    0    0    0  501 -0.00000000000E+00  0.00000000000E+00  0.95302626735E+02  0.95302626735E+02  0.00000000000E+00 0. -1.
          2   -1    0    0  501    0  0.00000000000E+00 -0.00000000000E+00 -0.18755370897E+03  0.18755370897E+03  0.00000000000E+00 0.  1.
         23    2    1    2    0    0 -0.22274344228E+02  0.59858267476E+02 -0.61176392305E+02  0.15312373169E+03  0.12500067054E+03 0.  0.
          5    1    3    3  502    0  0.47279456749E+02  0.28685526292E-01 -0.29618123462E+02  0.55988133482E+02  0.47000000000E+01 0.  1.
         -5    1    3    3    0  502 -0.69553800977E+02  0.59829581949E+02 -0.31558268842E+02  0.97135598206E+02  0.47000000000E+01 0.  1.
        -11    1    1    2    0    0  0.35989572923E+02 -0.80397550965E+02 -0.47495671524E+02  0.10007424431E+03  0.00000000000E+00 0.  1.
         11    1    1    2    0    0 -0.13715228696E+02  0.20539283490E+02  0.16420981589E+02  0.29658359712E+02  0.00000000000E+00 0. -1.
<mgrwt>
<rscale>  0 0.13662032E+03</rscale>
<asrwt>0</asrwt>
<pdfrwt beam="2">  1        2 0.28854416E-01 0.14037210E+03</pdfrwt>
<pdfrwt beam="1">  1       -2 0.14661943E-01 0.14037210E+03</pdfrwt>
<totfact> 0.62102271E+03</totfact>
</mgrwt>
</event>
<event>
 7    1  0.5206756E-006  0.1450519E+03  0.7546771E-02  0.1217233E+00
          1   -1    0    0  501    0  0.00000000000E+00  0.00000000000E+00  0.62166725163E+03  0.62166725163E+03  0.00000000000E+00 0.  1.
         -1   -1    0    0    0  501 -0.00000000000E+00 -0.00000000000E+00 -0.34547649444E+02  0.34547649444E+02  0.00000000000E+00 0. -1.
         23    2    1    2    0    0 -0.42449344911E+01 -0.73468733489E+02  0.46823549231E+03  0.49018826317E+03  0.12499753127E+03 0.  0.
          5    1    3    3  502    0 -0.39418242762E+02 -0.63303924370E+02  0.12999799984E+03  0.14994250454E+03  0.47000000000E+01 0. -1.
         -5    1    3    3    0  502  0.35173308271E+02 -0.10164809119E+02  0.33823749246E+03  0.34024575863E+03  0.47000000000E+01 0. -1.
        -11    1    1    2    0    0  0.37559896478E+02  0.28617617199E+01  0.34746716024E+02  0.51247144097E+02  0.00000000000E+00 0.  1.
         11    1    1    2    0    0 -0.33314961987E+02  0.70606971769E+02  0.84137393857E+02  0.11477949381E+03  0.00000000000E+00 0. -1.
<mgrwt>
<rscale>  0 0.13713800E+03</rscale>
<asrwt>0</asrwt>
<pdfrwt beam="1">  1        1 0.95641108E-01 0.14505191E+03</pdfrwt>
<pdfrwt beam="2">  1       -1 0.53150234E-02 0.14505191E+03</pdfrwt>
<totfact> 0.52088236E+03</totfact>
</mgrwt>
</event>
<event>
 7    1  0.5206756E-006  0.1609093E+03  0.7546771E-02  0.1194737E+00
         -2   -1    0    0    0  501 -0.00000000000E+00  0.00000000000E+00  0.88610516465E+02  0.88610516465E+02  0.00000000000E+00 0.  1.
          2   -1    0    0  501    0  0.00000000000E+00 -0.00000000000E+00 -0.36625445859E+03  0.36625445859E+03  0.00000000000E+00 0. -1.
         23    2    1    2    0    0 -0.28445917434E+02  0.97192893380E+02 -0.27322773493E+03  0.31708862957E+03  0.12504469249E+03 0.  0.
          5    1    3    3  502    0 -0.63978845002E+02  0.23063107385E+02 -0.69510627450E+02  0.97360242699E+02  0.47000000000E+01 0. -1.
         -5    1    3    3    0  502  0.35532927568E+02  0.74129785995E+02 -0.20371710748E+03  0.21972838687E+03  0.47000000000E+01 0. -1.
        -11    1    1    2    0    0  0.11460365214E+02 -0.10880137727E+03  0.13834393737E+02  0.11027452161E+03  0.00000000000E+00 0. -1.
         11    1    1    2    0    0  0.16985552220E+02  0.11608483889E+02 -0.18250600930E+02  0.27501823880E+02  0.00000000000E+00 0.  1.
<mgrwt>
<rscale>  0 0.15476535E+03</rscale>
<asrwt>0</asrwt>
<pdfrwt beam="2">  1        2 0.56346840E-01 0.16090930E+03</pdfrwt>
<pdfrwt beam="1">  1       -2 0.13632387E-01 0.16090930E+03</pdfrwt>
<totfact> 0.34406078E+03</totfact>
</mgrwt>
</event>
<event>
 7    1  0.5206756E-006  0.1547123E+03  0.7546771E-02  0.1203577E+00
         -1   -1    0    0    0  501 -0.00000000000E+00  0.00000000000E+00  0.59017093807E+02  0.59017093807E+02  0.00000000000E+00 0.  1.
          1   -1    0    0  501    0  0.00000000000E+00 -0.00000000000E+00 -0.49063002191E+03  0.49063002191E+03  0.00000000000E+00 0. -1.
         23    2    1    2    0    0  0.79283338384E+02  0.45001147464E+02 -0.38269207974E+03  0.41278218670E+03  0.12499981895E+03 0.  0.
          5    1    3    3  502    0  0.21253295764E+02 -0.15819350757E+02 -0.27388802289E+03  0.27520663786E+03  0.47000000000E+01 0. -1.
         -5    1    3    3    0  502  0.58030042621E+02  0.60820498221E+02 -0.10880405685E+03  0.13757554884E+03  0.47000000000E+01 0. -1.
        -11    1    1    2    0    0  0.18857296627E+02  0.20832766932E+01 -0.73455799796E+01  0.20344415034E+02  0.00000000000E+00 0. -1.
         11    1    1    2    0    0 -0.98140635011E+02 -0.47084424157E+02 -0.41575268382E+02  0.11652051399E+03  0.00000000000E+00 0.  1.
<mgrwt>
<rscale>  0 0.14750138E+03</rscale>
<asrwt>0</asrwt>
<pdfrwt beam="2">  1        1 0.75481538E-01 0.15471233E+03</pdfrwt>
<pdfrwt beam="1">  1       -1 0.90795533E-02 0.15471233E+03</pdfrwt>
<totfact> 0.32066188E+03</totfact>
</mgrwt>
</event>
<event>
 7    1  0.5206756E-006  0.1358099E+03  0.7546771E-02  0.1230973E+00
         -2   -1    0    0    0  501 -0.00000000000E+00  0.00000000000E+00  0.45126262450E+02  0.45126262450E+02  0.00000000000E+00 0. -1.
          2   -1    0    0  501    0  0.00000000000E+00 -0.00000000000E+00 -0.35750197152E+03  0.35750197152E+03  0.00000000000E+00 0.  1.
         23    2    1    2    0    0  0.27733798924E+02  0.45269627999E+02 -0.23483214634E+03  0.27127564054E+03  0.12500333345E+03 0.  0.
          5    1    3    3  502    0 -0.13159127077E+02  0.35857104464E+02 -0.64468366613E+01  0.39019818924E+02  0.47000000000E+01 0.  1.
         -5    1    3    3    0  502  0.40892926001E+02  0.94125235345E+01 -0.22838530968E+03  0.23225582161E+03  0.47000000000E+01 0.  1.
        -11    1    1    2    0    0  0.16298785506E+02 -0.43198115962E+02 -0.49659445180E+01  0.46436927510E+02  0.00000000000E+00 0. -1.
         11    1    1    2    0    0 -0.44032584430E+02 -0.20715120364E+01 -0.72577618207E+02  0.84915665918E+02  0.00000000000E+00 0.  1.
<mgrwt>
<rscale>  0 0.12765765E+03</rscale>
<asrwt>0</asrwt>
<pdfrwt beam="2">  1        2 0.55000302E-01 0.13580993E+03</pdfrwt>
<pdfrwt beam="1">  1       -2 0.69425021E-02 0.13580993E+03</pdfrwt>
<totfact> 0.10103533E+04</totfact>
</mgrwt>
</event>
<event>
 7    1  0.5206756E-006  0.1433688E+03  0.7546771E-02  0.1219928E+00
         -1   -1    0    0    0  501 -0.00000000000E+00  0.00000000000E+00  0.37648505533E+02  0.37648505533E+02  0.00000000000E+00 0.  1.
          1   -1    0    0  501    0  0.00000000000E+00 -0.00000000000E+00 -0.48848020850E+03  0.48848020850E+03  0.00000000000E+00 0. -1.
         23    2    1    2    0    0 -0.43960520347E+02  0.54730097527E+02 -0.33319351217E+03  0.36272926748E+03  0.12500677586E+03 0.  0.
          5    1    3    3  502    0  0.33041412944E+02  0.11192204002E+02 -0.19796421930E+03  0.20106944701E+03  0.47000000000E+01 0. -1.
         -5    1    3    3    0  502 -0.77001933290E+02  0.43537893525E+02 -0.13522929287E+03  0.16165982047E+03  0.47000000000E+01 0. -1.
        -11    1    1    2    0    0 -0.22979633293E+02  0.43080028808E+01 -0.17149155157E+02  0.28995102305E+02  0.00000000000E+00 0. -1.
         11    1    1    2    0    0  0.66940153640E+02 -0.59038100407E+02 -0.10048903565E+03  0.13440434425E+03  0.00000000000E+00 0.  1.
<mgrwt>
<rscale>  0 0.13520686E+03</rscale>
<asrwt>0</asrwt>
<pdfrwt beam="2">  1        1 0.75150796E-01 0.14336877E+03</pdfrwt>
<pdfrwt beam="1">  1       -1 0.57920782E-02 0.14336877E+03</pdfrwt>
<totfact> 0.63224365E+03</totfact>
</mgrwt>
</event>
<event>
 7    1  0.5206756E-006  0.1398613E+03  0.7546771E-02  0.1222688E+00
         -1   -1    0    0    0  501 -0.00000000000E+00  0.00000000000E+00  0.58669619101E+03  0.58669619101E+03  0.00000000000E+00 0.  1.
          1   -1    0    0  501    0  0.00000000000E+00 -0.00000000000E+00 -0.28965084597E+02  0.28965084597E+02  0.00000000000E+00 0. -1.
         23    2    1    2    0    0  0.60293498529E+02  0.17404938144E+02  0.24158610306E+03  0.27915054191E+03  0.12499176780E+03 0.  0.
          5    1    3    3  502    0  0.41228734489E+02 -0.19799927955E+02  0.14513431697E+02  0.48213850648E+02  0.47000000000E+01 0. -1.
         -5    1    3    3    0  502  0.19064764040E+02  0.37204866100E+02  0.22707267136E+03  0.23093669126E+03  0.47000000000E+01 0. -1.
        -11    1    1    2    0    0 -0.32731045065E+02  0.38410064197E+02  0.10709017018E+03  0.11838479164E+03  0.00000000000E+00 0.  1.
         11    1    1    2    0    0 -0.27562453464E+02 -0.55815002341E+02  0.20905483317E+03  0.21812594206E+03  0.00000000000E+00 0. -1.
<mgrwt>
<rscale>  0 0.13326655E+03</rscale>
<asrwt>0</asrwt>
<pdfrwt beam="2">  1        1 0.44561673E-02 0.13986129E+03</pdfrwt>
<pdfrwt beam="1">  1       -1 0.90260944E-01 0.13986129E+03</pdfrwt>
<totfact> 0.23923457E+03</totfact>
</mgrwt>
</event>
<event>
 7    1  0.5206756E-006  0.1892369E+03  0.7546771E-02  0.1163692E+00
          2   -1    0    0  501    0  0.00000000000E+00  0.00000000000E+00  0.53072865083E+03  0.53072865083E+03  0.00000000000E+00 0.  1.
         -2   -1    0    0    0  501 -0.00000000000E+00 -0.00000000000E+00 -0.86071256253E+02  0.86071256253E+02  0.00000000000E+00 0. -1.
         23    2    1    2    0    0  0.11141694717E+03 -0.88157893385E+02  0.39725417157E+03  0.44002442267E+03  0.12500026175E+03 0.  0.
          5    1    3    3  502    0 -0.11463030968E+02 -0.24034922276E+02  0.10243355686E+02  0.28915305696E+02  0.47000000000E+01 0.  1.
         -5    1    3    3    0  502  0.12287997814E+03 -0.64122971108E+02  0.38701081588E+03  0.41110911698E+03  0.47000000000E+01 0.  1.
        -11    1    1    2    0    0 -0.57754651880E+02  0.87041307249E+02  0.61581724076E+02  0.12126045407E+03  0.00000000000E+00 0.  1.
         11    1    1    2    0    0 -0.53662295292E+02  0.11165861360E+01 -0.14178501070E+02  0.55515030335E+02  0.00000000000E+00 0. -1.
<mgrwt>
<rscale>  0 0.18431423E+03</rscale>
<asrwt>0</asrwt>
<pdfrwt beam="1">  1        2 0.81650560E-01 0.18923693E+03</pdfrwt>
<pdfrwt beam="2">  1       -2 0.13241732E-01 0.18923693E+03</pdfrwt>
<totfact> 0.24200146E+03</totfact>
</mgrwt>
</event>
<event>
 7    1  0.5206756E-006  0.1276722E+03  0.7546771E-02  0.1246913E+00
          2   -1    0    0  501    0  0.00000000000E+00  0.00000000000E+00  0.37330680955E+02  0.37330680955E+02  0.00000000000E+00 0. -1.
         -2   -1    0    0    0  501 -0.00000000000E+00 -0.00000000000E+00 -0.33332071064E+03  0.33332071064E+03  0.00000000000E+00 0.  1.
         23    2    1    2    0    0 -0.25690738899E+02  0.39857822849E+01 -0.14048064695E+03  0.18982887499E+03  0.12499715632E+03 0.  0.
          5    1    3    3  502    0 -0.15475862285E+02  0.29048494541E+02  0.11656410967E+02  0.35231793386E+02  0.47000000000E+01 0. -1.
         -5    1    3    3    0  502 -0.10214876614E+02 -0.25062712256E+02 -0.15213705791E+03  0.15459708160E+03  0.47000000000E+01 0. -1.
        -11    1    1    2    0    0  0.51967359993E+02  0.73313456322E+01 -0.13709874134E+03  0.14680061311E+03  0.00000000000E+00 0.  1.
         11    1    1    2    0    0 -0.26276621094E+02 -0.11317127917E+02 -0.18410641396E+02  0.34021903489E+02  0.00000000000E+00 0. -1.
<mgrwt>
<rscale>  0 0.11771627E+03</rscale>
<asrwt>0</asrwt>
<pdfrwt beam="1">  1        2 0.57431819E-02 0.12767220E+03</pdfrwt>
<pdfrwt beam="2">  1       -2 0.51280107E-01 0.12767220E+03</pdfrwt>
<totfact> 0.45180402E+03</totfact>
</mgrwt>
</event>
<event>
 7    1  0.5206756E-006  0.1898767E+03  0.7546771E-02  0.1163162E+00
         -2   -1    0    0    0  501 -0.00000000000E+00  0.00000000000E+00  0.98466153921E+02  0.98466153921E+02  0.00000000000E+00 0.  1.
          2   -1    0    0  501    0  0.00000000000E+00 -0.00000000000E+00 -0.37966054696E+03  0.37966054696E+03  0.00000000000E+00 0. -1.
         23    2    1    2    0    0 -0.38657734027E+02  0.13760438977E+03 -0.23343260209E+03  0.30090519020E+03  0.12499506105E+03 0.  0.
          5    1    3    3  502    0  0.18664659367E+02  0.12748664001E+03 -0.13668671782E+03  0.18790040372E+03  0.47000000000E+01 0.  1.
         -5    1    3    3    0  502 -0.57322393394E+02  0.10117749767E+02 -0.96745884275E+02  0.11300478649E+03  0.47000000000E+01 0.  1.
        -11    1    1    2    0    0  0.30623250129E+02 -0.16218801555E+02  0.17876134466E+02  0.38992167878E+02  0.00000000000E+00 0.  1.
         11    1    1    2    0    0  0.80344838984E+01 -0.12138558822E+03 -0.65637925416E+02  0.13822934280E+03  0.00000000000E+00 0. -1.
<mgrwt>
<rscale>  0 0.18487975E+03</rscale>
<asrwt>0</asrwt>
<pdfrwt beam="2">  1        2 0.58409315E-01 0.18987668E+03</pdfrwt>
<pdfrwt beam="1">  1       -2 0.15148639E-01 0.18987668E+03</pdfrwt>
<totfact> 0.28037286E+03</totfact>
</mgrwt>
</event>
<event>
 6    1  0.5206756E-006  0.1652222E+03  0.7546771E-02  0.1200470E+00
          1   -1    0    0  501    0  0.00000000000E+00  0.00000000000E+00  0.53545265115E+03  0.53545265115E+03  0.00000000000E+00 0. -1.
         -1   -1    0    0    0  501 -0.00000000000E+00 -0.00000000000E+00 -0.36713409022E+02  0.36713409022E+02  0.00000000000E+00 0.  1.
          5    1    1    2  502    0  0.78491578636E+02 -0.35968036450E+01  0.68892367577E+02  0.10460455642E+03  0.47000000000E+01 0. -1.
         -5    1    1    2    0  502 -0.48043620524E+02 -0.52126384670E+02  0.18648571642E+03  0.19956042163E+03  0.47000000000E+01 0.  1.
        -11    1    1    2    0    0 -0.29039181346E+02 -0.20727193061E+02  0.72024413975E+02  0.80376655777E+02  0.00000000000E+00 0.  1.
         11    1    1    2    0    0 -0.14087767654E+01  0.76450381376E+02  0.17133674416E+03  0.18762442635E+03  0.00000000000E+00 0. -1.
<mgrwt>
<rscale>  0 0.15000207E+03</rscale>
<asrwt>0</asrwt>
<pdfrwt beam="1">  1        1 0.82377325E-01 0.16522218E+03</pdfrwt>
<pdfrwt beam="2">  1       -1 0.56482172E-02 0.16522218E+03</pdfrwt>
<totfact> 0.58618693E+03</totfact>
</mgrwt>
</event>
<event>
 7    1  0.5206756E-006  0.1526649E+03  0.7546771E-02  0.1205204E+00
         -2   -1    0    0    0  501 -0.00000000000E+00  0.00000000000E+00  0.27429646375E+02  0.27429646375E+02  0.00000000000E+00 0.  1.
          2   -1    0    0  501    0  0.00000000000E+00 -0.00000000000E+00 -0.74467368329E+03  0.74467368329E+03  0.00000000000E+00 0. -1.
         23    2    1    2    0    0  0.38663935864E+02 -0.78823949434E+02 -0.45815417845E+03  0.48292009580E+03  0.12489376589E+03 0.  0.
          5    1    3    3  502    0  0.27697668048E+02  0.18674251100E+02 -0.25548340793E+03  0.25770089289E+03  0.47000000000E+01 0. -1.
         -5    1    3    3    0  502  0.10966267815E+02 -0.97498200534E+02 -0.20267077052E+03  0.22521920291E+03  0.47000000000E+01 0. -1.
        -11    1    1    2    0    0 -0.60725654878E+02  0.64443049415E+02 -0.12907153783E+03  0.15652467427E+03  0.00000000000E+00 0.  1.
         11    1    1    2    0    0  0.22061719014E+02  0.14380900019E+02 -0.13001832064E+03  0.13265855959E+03  0.00000000000E+00 0. -1.
<mgrwt>
<rscale>  0 0.14621363E+03</rscale>
<asrwt>0</asrwt>
<pdfrwt beam="2">  1        2 0.11456517E+00 0.15266489E+03</pdfrwt>
<pdfrwt beam="1">  1       -2 0.42199461E-02 0.15266489E+03</pdfrwt>
<totfact> 0.95150941E+03</totfact>
</mgrwt>
</event>
<event>
 7    1  0.5206756E-006  0.1771306E+03  0.7546771E-02  0.1176331E+00
          1   -1    0    0  501    0  0.00000000000E+00  0.00000000000E+00  0.11362540892E+04  0.11362540892E+04  0.00000000000E+00 0. -1.
         -1   -1    0    0    0  501 -0.00000000000E+00 -0.00000000000E+00 -0.26608574950E+02  0.26608574950E+02  0.00000000000E+00 0.  1.
         23    2    1    2    0    0  0.81994911477E+02 -0.95029396347E+02  0.75696216755E+03  0.77741042410E+03  0.12498597008E+03 0.  0.
          5    1    3    3  502    0  0.81744994073E+02 -0.50743924767E+01  0.27003759550E+03  0.28222400057E+03  0.47000000000E+01 0.  1.
         -5    1    3    3    0  502  0.24991740449E+00 -0.89955003871E+02  0.48692457205E+03  0.49518642353E+03  0.47000000000E+01 0.  1.
        -11    1    1    2    0    0 -0.71347234521E+02  0.11089360432E+03  0.33233761628E+03  0.35754176056E+03  0.00000000000E+00 0. -1.
         11    1    1    2    0    0 -0.10647676957E+02 -0.15864207973E+02  0.20345730441E+02  0.27910479508E+02  0.00000000000E+00 0.  1.
<mgrwt>
<rscale>  0 0.17146280E+03</rscale>
<asrwt>0</asrwt>
<pdfrwt beam="1">  1        1 0.17480828E+00 0.17713059E+03</pdfrwt>
<pdfrwt beam="2">  1       -1 0.40936278E-02 0.17713059E+03</pdfrwt>
<totfact> 0.29965675E+03</totfact>
</mgrwt>
</event>
<event>
 7    1  0.5206756E-006  0.1272657E+03  0.7546771E-02  0.1248355E+00
         -1   -1    0    0    0  501 -0.00000000000E+00  0.00000000000E+00  0.15229821866E+02  0.15229821866E+02  0.00000000000E+00 0.  1.
          1   -1    0    0  501    0  0.00000000000E+00 -0.00000000000E+00 -0.93930493418E+03  0.93930493418E+03  0.00000000000E+00 0. -1.
         23    2    1    2    0    0 -0.23912802128E+02 -0.48267659708E+00 -0.72184878569E+03  0.73298173320E+03  0.12499798686E+03 0.  0.
          5    1    3    3  502    0 -0.53383551899E+02  0.42611385720E+02 -0.51782899091E+03  0.52233560823E+03  0.47000000000E+01 0.  1.
         -5    1    3    3    0  502  0.29470749771E+02 -0.43094062318E+02 -0.20401979478E+03  0.21064612496E+03  0.47000000000E+01 0.  1.
        -11    1    1    2    0    0  0.37588643605E+02 -0.31044514061E+02 -0.72606613126E+02  0.87455064182E+02  0.00000000000E+00 0.  1.
         11    1    1    2    0    0 -0.13675841477E+02  0.31527190658E+02 -0.12961971350E+03  0.13409795867E+03  0.00000000000E+00 0. -1.
<mgrwt>
<rscale>  0 0.11686801E+03</rscale>
<asrwt>0</asrwt>
<pdfrwt beam="2">  1        1 0.14450842E+00 0.12726567E+03</pdfrwt>
<pdfrwt beam="1">  1       -1 0.23430500E-02 0.12726567E+03</pdfrwt>
<totfact> 0.92892483E+03</totfact>
</mgrwt>
</event>
<event>
 7    1  0.5206756E-006  0.1789617E+03  0.7546771E-02  0.1174851E+00
          1   -1    0    0  501    0  0.00000000000E+00  0.00000000000E+00  0.29161399173E+02  0.29161399173E+02  0.00000000000E+00 0. -1.
         -1   -1    0    0    0  501 -0.00000000000E+00 -0.00000000000E+00 -0.99724235702E+03  0.99724235702E+03  0.00000000000E+00 0.  1.
         23    2    1    2    0    0 -0.12750747408E+02  0.12742969049E+03 -0.61299860657E+03  0.63858797291E+03  0.12500559955E+03 0.  0.
          5    1    3    3  502    0  0.22612048202E+02  0.13912500619E+03 -0.46614226388E+03  0.48700900633E+03  0.47000000000E+01 0. -1.
         -5    1    3    3    0  502 -0.35362795610E+02 -0.11695315701E+02 -0.14685634269E+03  0.15157896658E+03  0.47000000000E+01 0. -1.
        -11    1    1    2    0    0  0.28061398314E+02 -0.11745315021E+02 -0.13845481701E+03  0.14175729559E+03  0.00000000000E+00 0.  1.
         11    1    1    2    0    0 -0.15310650906E+02 -0.11568437547E+03 -0.21662753427E+03  0.24605848769E+03  0.00000000000E+00 0. -1.
<mgrwt>
<rscale>  0 0.17290608E+03</rscale>
<asrwt>0</asrwt>
<pdfrwt beam="1">  1        1 0.44863695E-02 0.17896175E+03</pdfrwt>
<pdfrwt beam="2">  1       -1 0.15342189E+00 0.17896175E+03</pdfrwt>
<totfact> 0.68569799E+02</totfact>
</mgrwt>
</event>
<event>
 7    1  0.5206756E-006  0.1264913E+03  0.7546771E-02  0.1233914E+00
          1   -1    0    0  501    0  0.00000000000E+00  0.00000000000E+00  0.86647180724E+03  0.86647180724E+03  0.00000000000E+00 0. -1.
         -1   -1    0    0    0  501 -0.00000000000E+00 -0.00000000000E+00 -0.33115364213E+02  0.33115364213E+02  0.00000000000E+00 0.  1.
         23    2    1    2    0    0 -0.11842572281E+02 -0.15336340122E+02  0.72289884095E+03  0.73388200114E+03  0.12499843001E+03 0.  0.
          5    1    3    3  502    0 -0.46719689619E+02 -0.83273720246E+01  0.10949083346E+03  0.11942532033E+03  0.47000000000E+01 0. -1.
         -5    1    3    3    0  502  0.34877117338E+02 -0.70089680974E+01  0.61340800748E+03  0.61445668081E+03  0.47000000000E+01 0. -1.
        -11    1    1    2    0    0 -0.21909763863E+02 -0.18377297876E+02 -0.14419273941E+02  0.32026212557E+02  0.00000000000E+00 0.  1.
         11    1    1    2    0    0  0.33752336144E+02  0.33713637998E+02  0.12487687602E+03  0.13367895775E+03  0.00000000000E+00 0. -1.
<mgrwt>
<rscale>  0 0.12574200E+03</rscale>
<asrwt>0</asrwt>
<pdfrwt beam="1">  1        1 0.13330334E+00 0.12649133E+03</pdfrwt>
<pdfrwt beam="2">  1       -1 0.50946721E-02 0.12649133E+03</pdfrwt>
<totfact> 0.33972567E+03</totfact>
</mgrwt>
</event>
<event>
 7    1  0.5206756E-006  0.1462041E+03  0.7546771E-02  0.1214916E+00
         -1   -1    0    0    0  501 -0.00000000000E+00  0.00000000000E+00  0.23681689433E+02  0.23681689433E+02  0.00000000000E+00 0.  1.
          1   -1    0    0  501    0  0.00000000000E+00 -0.00000000000E+00 -0.83860684492E+03  0.83860684492E+03  0.00000000000E+00 0. -1.
         23    2    1    2    0    0 -0.72837912282E+02  0.21081783588E+02 -0.59054052288E+03  0.60836975147E+03  0.12500336910E+03 0.  0.
          5    1    3    3  502    0 -0.35457127883E+02  0.24500372363E+02 -0.55426444424E+03  0.55595740872E+03  0.47000000000E+01 0.  1.
         -5    1    3    3    0  502 -0.37380784399E+02 -0.34185887758E+01 -0.36276078632E+02  0.52412342749E+02  0.47000000000E+01 0.  1.
        -11    1    1    2    0    0  0.61728060981E+01 -0.23435421469E+02 -0.51708086180E+01  0.24780229546E+02  0.00000000000E+00 0.  1.
         11    1    1    2    0    0  0.66665106184E+02  0.23536378819E+01 -0.21921382399E+03  0.22913855333E+03  0.00000000000E+00 0. -1.
<mgrwt>
<rscale>  0 0.13882677E+03</rscale>
<asrwt>0</asrwt>
<pdfrwt beam="2">  1        1 0.12901641E+00 0.14620412E+03</pdfrwt>
<pdfrwt beam="1">  1       -1 0.36433376E-02 0.14620412E+03</pdfrwt>
<totfact> 0.58884503E+03</totfact>
</mgrwt>
</event>
<event>
 7    1  0.5206756E-006  0.1581242E+03  0.7546771E-02  0.1198734E+00
          3   -1    0    0  501    0  0.00000000000E+00  0.00000000000E+00  0.52252233907E+03  0.52252233907E+03  0.00000000000E+00 0. -1.
         -3   -1    0    0    0  501 -0.00000000000E+00 -0.00000000000E+00 -0.64916237486E+02  0.64916237486E+02  0.00000000000E+00 0.  1.
         23    2    1    2    0    0 -0.93977966553E+02  0.23379678532E+02  0.42069748874E+03  0.44943258672E+03  0.12499922163E+03 0.  0.
          5    1    3    3  502    0 -0.10065480797E+03 -0.27944173669E+02  0.24966299681E+03  0.27067687228E+03  0.47000000000E+01 0.  1.
         -5    1    3    3    0  502  0.66768414183E+01  0.51323852201E+02  0.17103449193E+03  0.17875571444E+03  0.47000000000E+01 0.  1.
        -11    1    1    2    0    0  0.51590686846E+02  0.29308894042E+02 -0.31337978619E+01  0.59417429498E+02  0.00000000000E+00 0.  1.
         11    1    1    2    0    0  0.42387279708E+02 -0.52688572574E+02  0.40042410708E+02  0.78588560339E+02  0.00000000000E+00 0. -1.
<mgrwt>
<rscale>  0 0.15142395E+03</rscale>
<asrwt>0</asrwt>
<pdfrwt beam="1">  1        3 0.80388049E-01 0.15812423E+03</pdfrwt>
<pdfrwt beam="2">  1       -3 0.99871138E-02 0.15812423E+03</pdfrwt>
<totfact> 0.25964848E+02</totfact>
</mgrwt>
</event>
<event>
 7    1  0.5206756E-006  0.1370110E+03  0.7546771E-02  0.1230143E+00
         -1   -1    0    0    0  501 -0.00000000000E+00  0.00000000000E+00  0.96296269062E+02  0.96296269062E+02  0.00000000000E+00 0.  1.
          1   -1    0    0  501    0  0.00000000000E+00 -0.00000000000E+00 -0.16835970346E+03  0.16835970346E+03  0.00000000000E+00 0. -1.
         23    2    1    2    0    0 -0.29897934504E+02  0.47474145041E+02 -0.81118834594E+02  0.15922401974E+03  0.12499736878E+03 0.  0.
          5    1    3    3  502    0 -0.31235927625E+02 -0.35945595540E+02 -0.52161412389E+02  0.70786100018E+02  0.47000000000E+01 0. -1.
         -5    1    3    3    0  502  0.13379931211E+01  0.83419740581E+02 -0.28957422204E+02  0.88437919723E+02  0.47000000000E+01 0. -1.
        -11    1    1    2    0    0 -0.98291834024E+01  0.11362643099E+02 -0.23052184629E+02  0.27515917588E+02  0.00000000000E+00 0. -1.
         11    1    1    2    0    0  0.39727117907E+02 -0.58836788140E+02  0.32107584829E+02  0.77916035188E+02  0.00000000000E+00 0.  1.
<mgrwt>
<rscale>  0 0.12820583E+03</rscale>
<asrwt>0</asrwt>
<pdfrwt beam="2">  1        1 0.25901493E-01 0.13701103E+03</pdfrwt>
<pdfrwt beam="1">  1       -1 0.14814811E-01 0.13701103E+03</pdfrwt>
<totfact> 0.57145719E+03</totfact>
</mgrwt>
</event>
<event>
 7    1  0.5206756E-006  0.1262956E+03  0.7546771E-02  0.1246283E+00
         -1   -1    0    0    0  501 -0.00000000000E+00  0.00000000000E+00  0.18315540570E+03  0.18315540570E+03  0.00000000000E+00 0.  1.
          1   -1    0    0  501    0  0.00000000000E+00 -0.00000000000E+00 -0.72781090952E+02  0.72781090952E+02  0.00000000000E+00 0. -1.
         23    2    1    2    0    0  0.16736349256E+02  0.70074706262E+01  0.28766146341E+02  0.12953015841E+03  0.12498544208E+03 0.  0.
          5    1    3    3  502    0 -0.16585093657E+02 -0.77671212987E+01 -0.44065813071E+02  0.47950801729E+02  0.47000000000E+01 0.  1.
         -5    1    3    3    0  502  0.33321442913E+02  0.14774591925E+02  0.72831959412E+02  0.81579356679E+02  0.47000000000E+01 0.  1.
        -11    1    1    2    0    0  0.12215122540E+02 -0.10866250137E+02  0.93464879747E+02  0.94883973130E+02  0.00000000000E+00 0.  1.
         11    1    1    2    0    0 -0.28951471796E+02  0.38587795105E+01 -0.11856711342E+02  0.31522365113E+02  0.00000000000E+00 0. -1.
<mgrwt>
<rscale>  0 0.11808924E+03</rscale>
<asrwt>0</asrwt>
<pdfrwt beam="2">  1        1 0.11197091E-01 0.12629557E+03</pdfrwt>
<pdfrwt beam="1">  1       -1 0.28177755E-01 0.12629557E+03</pdfrwt>
<totfact> 0.59218365E+03</totfact>
</mgrwt>
</event>
<event>
 7    1  0.5206756E-006  0.1298179E+03  0.7546771E-02  0.1236958E+00
         -1   -1    0    0    0  501 -0.00000000000E+00  0.00000000000E+00  0.11914143038E+03  0.11914143038E+03  0.00000000000E+00 0.  1.
          1   -1    0    0  501    0  0.00000000000E+00 -0.00000000000E+00 -0.15500342842E+03  0.15500342842E+03  0.00000000000E+00 0. -1.
         23    2    1    2    0    0 -0.34692394950E+02 -0.48887533781E+01 -0.85927086694E+02  0.15567965474E+03  0.12500091398E+03 0.  0.
          5    1    3    3  502    0 -0.20786492708E+02  0.52572986756E+02 -0.77097656657E+02  0.95719046577E+02  0.47000000000E+01 0. -1.
         -5    1    3    3    0  502 -0.13905902241E+02 -0.57461740134E+02 -0.88294300368E+01  0.59960608162E+02  0.47000000000E+01 0. -1.
        -11    1    1    2    0    0  0.55300005445E+01 -0.36329384842E+02  0.56671911725E+02  0.67543398550E+02  0.00000000000E+00 0.  1.
         11    1    1    2    0    0  0.29162394405E+02  0.41218138220E+02 -0.66068230766E+01  0.50921805515E+02  0.00000000000E+00 0. -1.
<mgrwt>
<rscale>  0 0.12379919E+03</rscale>
<asrwt>0</asrwt>
<pdfrwt beam="2">  1        1 0.23846681E-01 0.12981791E+03</pdfrwt>
<pdfrwt beam="1">  1       -1 0.18329451E-01 0.12981791E+03</pdfrwt>
<totfact> 0.45153439E+03</totfact>
</mgrwt>
</event>
<event>
 7    1  0.5206756E-006  0.1331033E+03  0.7546771E-02  0.1235487E+00
          1   -1    0    0  501    0  0.00000000000E+00  0.00000000000E+00  0.37039076549E+03  0.37039076549E+03  0.00000000000E+00 0. -1.
         -1   -1    0    0    0  501 -0.00000000000E+00 -0.00000000000E+00 -0.45078958134E+02  0.45078958134E+02  0.00000000000E+00 0.  1.
         23    2    1    2    0    0 -0.77790941341E+01  0.45118807337E+02  0.26464329633E+03  0.29623056887E+03  0.12498101681E+03 0.  0.
          5    1    3    3  502    0 -0.23273055636E+02  0.84562625733E+02  0.20393580929E+03  0.22204588963E+03  0.47000000000E+01 0.  1.
         -5    1    3    3    0  502  0.15493961502E+02 -0.39443818396E+02  0.60707487037E+02  0.74184679247E+02  0.47000000000E+01 0.  1.
        -11    1    1    2    0    0  0.46200214705E+02 -0.44557046662E+02  0.36321227638E+02  0.73749724224E+02  0.00000000000E+00 0. -1.
         11    1    1    2    0    0 -0.38421120570E+02 -0.56176067551E+00  0.24347283387E+02  0.45489430522E+02  0.00000000000E+00 0.  1.
<mgrwt>
<rscale>  0 0.12473338E+03</rscale>
<asrwt>0</asrwt>
<pdfrwt beam="1">  1        1 0.56983193E-01 0.13310325E+03</pdfrwt>
<pdfrwt beam="2">  1       -1 0.69352246E-02 0.13310325E+03</pdfrwt>
<totfact> 0.68398920E+03</totfact>
</mgrwt>
</event>
<event>
 7    1  0.5206756E-006  0.1349075E+03  0.7546771E-02  0.1238493E+00
         -1   -1    0    0    0  501 -0.00000000000E+00  0.00000000000E+00  0.12269638847E+03  0.12269638847E+03  0.00000000000E+00 0.  1.
          1   -1    0    0  501    0  0.00000000000E+00 -0.00000000000E+00 -0.11022670258E+03  0.11022670258E+03  0.00000000000E+00 0. -1.
         23    2    1    2    0    0 -0.43829688236E+02  0.25554959537E+02 -0.16190566608E+02  0.13587552620E+03  0.12500370653E+03 0.  0.
          5    1    3    3  502    0 -0.66483476465E+02  0.73313161184E+00  0.34362874807E+02  0.74989914588E+02  0.47000000000E+01 0.  1.
         -5    1    3    3    0  502  0.22653788229E+02  0.24821827926E+02 -0.50553441414E+02  0.60885611613E+02  0.47000000000E+01 0.  1.
        -11    1    1    2    0    0 -0.15027000617E+02  0.71032215579E+01  0.24503750726E+02  0.29609125344E+02  0.00000000000E+00 0.  1.
         11    1    1    2    0    0  0.58856688853E+02 -0.32658181095E+02  0.41565017695E+01  0.67438439500E+02  0.00000000000E+00 0. -1.
<mgrwt>
<rscale>  0 0.12283418E+03</rscale>
<asrwt>0</asrwt>
<pdfrwt beam="2">  1        1 0.16957954E-01 0.13490747E+03</pdfrwt>
<pdfrwt beam="1">  1       -1 0.18876368E-01 0.13490747E+03</pdfrwt>
<totfact> 0.66598197E+03</totfact>
</mgrwt>
</event>
<event>
 7    1  0.5206756E-006  0.1921648E+03  0.7546771E-02  0.1161697E+00
          2   -1    0    0  501    0  0.00000000000E+00  0.00000000000E+00  0.28389084736E+03  0.28389084736E+03  0.00000000000E+00 0. -1.
         -2   -1    0    0    0  501 -0.00000000000E+00 -0.00000000000E+00 -0.13946576540E+03  0.13946576540E+03  0.00000000000E+00 0.  1.
         23    2    1    2    0    0 -0.14021526361E+03  0.40480821860E+02  0.16304439325E+03  0.25201344883E+03  0.12501314786E+03 0.  0.
          5    1    3    3  502    0 -0.56280032069E+02 -0.44456065802E+02  0.72425199546E+02  0.10203569633E+03  0.47000000000E+01 0.  1.
         -5    1    3    3    0  502 -0.83935231537E+02  0.84936887662E+02  0.90619193703E+02  0.14997775250E+03  0.47000000000E+01 0.  1.
        -11    1    1    2    0    0  0.33331374041E+02 -0.49754683423E+02  0.89991048428E+01  0.60559829144E+02  0.00000000000E+00 0.  1.
         11    1    1    2    0    0  0.10688388957E+03  0.92738615631E+01 -0.27618416129E+02  0.11078333479E+03  0.00000000000E+00 0. -1.
<mgrwt>
<rscale>  0 0.18645635E+03</rscale>
<asrwt>0</asrwt>
<pdfrwt beam="1">  1        2 0.43675515E-01 0.19216478E+03</pdfrwt>
<pdfrwt beam="2">  1       -2 0.21456272E-01 0.19216478E+03</pdfrwt>
<totfact> 0.21327498E+03</totfact>
</mgrwt>
</event>
<event>
 7    1  0.5206756E-006  0.1461030E+03  0.7546771E-02  0.1214903E+00
          2   -1    0    0  501    0  0.00000000000E+00  0.00000000000E+00  0.82247609174E+03  0.82247609174E+03  0.00000000000E+00 0.  1.
         -2   -1    0    0    0  501 -0.00000000000E+00 -0.00000000000E+00 -0.24052967342E+02  0.24052967342E+02  0.00000000000E+00 0. -1.
         23    2    1    2    0    0 -0.64246186581E+02  0.39927142744E+02  0.57563936228E+03  0.59389121072E+03  0.12499738216E+03 0.  0.
          5    1    3    3  502    0 -0.22511319010E+02  0.81795798087E+02  0.38389988355E+03  0.39319018637E+03  0.47000000000E+01 0. -1.
         -5    1    3    3    0  502 -0.41734867571E+02 -0.41868655343E+02  0.19173947873E+03  0.20070102435E+03  0.47000000000E+01 0. -1.
        -11    1    1    2    0    0  0.86763161046E+02 -0.40221447556E+02  0.16639714968E+03  0.19192087531E+03  0.00000000000E+00 0. -1.
         11    1    1    2    0    0 -0.22516974465E+02  0.29430481253E+00  0.56386612440E+02  0.60716973054E+02  0.00000000000E+00 0.  1.
<mgrwt>
<rscale>  0 0.13883685E+03</rscale>
<asrwt>0</asrwt>
<pdfrwt beam="1">  1        2 0.12653476E+00 0.14610303E+03</pdfrwt>
<pdfrwt beam="2">  1       -2 0.37004571E-02 0.14610303E+03</pdfrwt>
<totfact> 0.10204110E+04</totfact>
</mgrwt>
</event>
<event>
 7    1  0.5206756E-006  0.1303620E+03  0.7546771E-02  0.1241087E+00
          2   -1    0    0  501    0  0.00000000000E+00  0.00000000000E+00  0.79684475364E+03  0.79684475364E+03  0.00000000000E+00 0. -1.
         -2   -1    0    0    0  501 -0.00000000000E+00 -0.00000000000E+00 -0.17660860717E+02  0.17660860717E+02  0.00000000000E+00 0.  1.
         23    2    1    2    0    0 -0.12613890004E+02  0.34800924116E+02  0.55390453712E+03  0.56903820854E+03  0.12499612794E+03 0.  0.
          5    1    3    3  502    0 -0.12577313044E+02  0.35552126066E+02  0.40229686836E+02  0.55341306220E+02  0.47000000000E+01 0. -1.
         -5    1    3    3    0  502 -0.36576959592E-01 -0.75120195022E+00  0.51367485028E+03  0.51369690232E+03  0.47000000000E+01 0. -1.
        -11    1    1    2    0    0  0.46296239006E+01 -0.64257861079E+02  0.17689722399E+03  0.18826346959E+03  0.00000000000E+00 0. -1.
         11    1    1    2    0    0  0.79842661030E+01  0.29456936963E+02  0.48382131823E+02  0.57203936230E+02  0.00000000000E+00 0.  1.
<mgrwt>
<rscale>  0 0.12122674E+03</rscale>
<asrwt>0</asrwt>
<pdfrwt beam="1">  1        2 0.12259147E+00 0.13036198E+03</pdfrwt>
<pdfrwt beam="2">  1       -2 0.27170561E-02 0.13036198E+03</pdfrwt>
<totfact> 0.16609213E+04</totfact>
</mgrwt>
</event>
<event>
 7    1  0.5206756E-006  0.3080330E+03  0.7546771E-02  0.1082831E+00
         -2   -1    0    0    0  501 -0.00000000000E+00  0.00000000000E+00  0.39516724102E+03  0.39516724102E+03  0.00000000000E+00 0.  1.
          2   -1    0    0  501    0  0.00000000000E+00 -0.00000000000E+00 -0.23906633416E+03  0.23906633416E+03  0.00000000000E+00 0. -1.
         23    2    1    2    0    0  0.27981105882E+03  0.31042628588E+02  0.13962055648E+03  0.33819851739E+03  0.12500585562E+03 0.  0.
          5    1    3    3  502    0  0.24759908040E+03  0.65891175154E+02  0.13665226963E+03  0.29041846424E+03  0.47000000000E+01 0.  1.
         -5    1    3    3    0  502  0.32211978426E+02 -0.34848546566E+02  0.29682868573E+01  0.47780053147E+02  0.47000000000E+01 0.  1.
        -11    1    1    2    0    0 -0.20326535822E+03 -0.22614617264E+01 -0.24172419262E+02  0.20471010213E+03  0.00000000000E+00 0. -1.
         11    1    1    2    0    0 -0.76545700602E+02 -0.28781166862E+02  0.40652769646E+02  0.91324955661E+02  0.00000000000E+00 0.  1.
<mgrwt>
<rscale>  0 0.30487038E+03</rscale>
<asrwt>0</asrwt>
<pdfrwt beam="2">  1        2 0.36779436E-01 0.30803301E+03</pdfrwt>
<pdfrwt beam="1">  1       -2 0.60794960E-01 0.30803301E+03</pdfrwt>
<totfact> 0.36193426E+02</totfact>
</mgrwt>
</event>
<event>
 7    1  0.5206756E-006  0.1756542E+03  0.7546771E-02  0.1177839E+00
          2   -1    0    0  501    0  0.00000000000E+00  0.00000000000E+00  0.12373492584E+04  0.12373492584E+04  0.00000000000E+00 0. -1.
         -2   -1    0    0    0  501 -0.00000000000E+00 -0.00000000000E+00 -0.25096142097E+02  0.25096142097E+02  0.00000000000E+00 0.  1.
         23    2    1    2    0    0  0.71237346299E+02 -0.10076610500E+03  0.86294832344E+03  0.88064420655E+03  0.12500336862E+03 0.  0.
          5    1    3    3  502    0 -0.13176482452E+02 -0.88326723940E+02  0.48240876841E+03  0.49062769968E+03  0.47000000000E+01 0. -1.
         -5    1    3    3    0  502  0.84413828751E+02 -0.12439381064E+02  0.38053955503E+03  0.39001650687E+03  0.47000000000E+01 0. -1.
        -11    1    1    2    0    0 -0.23751650603E+02  0.85965108544E+02  0.29487924595E+03  0.30807127501E+03  0.00000000000E+00 0. -1.
         11    1    1    2    0    0 -0.47485695697E+02  0.14800996460E+02  0.54425546939E+02  0.73729918972E+02  0.00000000000E+00 0.  1.
<mgrwt>
<rscale>  0 0.17000861E+03</rscale>
<asrwt>0</asrwt>
<pdfrwt beam="1">  1        2 0.19036138E+00 0.17565423E+03</pdfrwt>
<pdfrwt beam="2">  1       -2 0.38609459E-02 0.17565423E+03</pdfrwt>
<totfact> 0.54493772E+03</totfact>
</mgrwt>
</event>
<event>
 6    1  0.5206756E-006  0.2019839E+03  0.7546771E-02  0.1170538E+00
          1   -1    0    0  501    0  0.00000000000E+00  0.00000000000E+00  0.19393385519E+03  0.19393385519E+03  0.00000000000E+00 0. -1.
         -1   -1    0    0    0  501 -0.00000000000E+00 -0.00000000000E+00 -0.13500689919E+03  0.13500689919E+03  0.00000000000E+00 0.  1.
          5    1    1    2  502    0 -0.10379182780E+02  0.10186071417E+03  0.62062651041E+02  0.11982151385E+03  0.47000000000E+01 0. -1.
         -5    1    1    2    0  502  0.70473367487E+02 -0.54247682772E+02 -0.75828585332E+01  0.89380626282E+02  0.47000000000E+01 0.  1.
        -11    1    1    2    0    0 -0.24239695265E+02 -0.56582008507E+02 -0.30655168033E+02  0.68766458687E+02  0.00000000000E+00 0.  1.
         11    1    1    2    0    0 -0.35854489442E+02  0.89689771062E+01  0.35102331532E+02  0.50972155560E+02  0.00000000000E+00 0. -1.
<mgrwt>
<rscale>  0 0.17720303E+03</rscale>
<asrwt>0</asrwt>
<pdfrwt beam="1">  1        1 0.29835978E-01 0.20198388E+03</pdfrwt>
<pdfrwt beam="2">  1       -1 0.20770292E-01 0.20198388E+03</pdfrwt>
<totfact> 0.28468156E+03</totfact>
</mgrwt>
</event>
<event>
 7    1  0.5206756E-006  0.2197098E+03  0.7546771E-02  0.1137525E+00
         -3   -1    0    0    0  501 -0.00000000000E+00  0.00000000000E+00  0.18177332252E+03  0.18177332252E+03  0.00000000000E+00 0.  1.
          3   -1    0    0  501    0  0.00000000000E+00 -0.00000000000E+00 -0.24479399311E+03  0.24479399311E+03  0.00000000000E+00 0. -1.
         23    2    1    2    0    0 -0.37610325334E+02  0.17672751862E+03 -0.31077293182E+02  0.22189681119E+03  0.12500097701E+03 0.  0.
          5    1    3    3  502    0 -0.19355313183E+02  0.87500531820E+01 -0.47325016197E+02  0.52085878481E+02  0.47000000000E+01 0.  1.
         -5    1    3    3    0  502 -0.18255012151E+02  0.16797746544E+03  0.16247723015E+02  0.16981093271E+03  0.47000000000E+01 0.  1.
        -11    1    1    2    0    0 -0.13916924076E+02 -0.12593445557E+03 -0.29819204096E+01  0.12673618159E+03  0.00000000000E+00 0.  1.
         11    1    1    2    0    0  0.51527249411E+02 -0.50793063051E+02 -0.28961456999E+02  0.77934322846E+02  0.00000000000E+00 0. -1.
<mgrwt>
<rscale>  0 0.21518509E+03</rscale>
<asrwt>0</asrwt>
<pdfrwt beam="2">  1        3 0.37660614E-01 0.21970980E+03</pdfrwt>
<pdfrwt beam="1">  1       -3 0.27965127E-01 0.21970980E+03</pdfrwt>
<totfact> 0.21046764E+02</totfact>
</mgrwt>
</event>
<event>
 7    1  0.5206756E-006  0.1408238E+03  0.7546771E-02  0.1223874E+00
          3   -1    0    0  501    0  0.00000000000E+00  0.00000000000E+00  0.12793543563E+04  0.12793543563E+04  0.00000000000E+00 0. -1.
         -3   -1    0    0    0  501 -0.00000000000E+00 -0.00000000000E+00 -0.13135226293E+02  0.13135226293E+02  0.00000000000E+00 0.  1.
         23    2    1    2    0    0 -0.56401058611E+01  0.64604625255E+02  0.86628337515E+03  0.87765495845E+03  0.12500308656E+03 0.  0.
          5    1    3    3  502    0  0.38682055409E+01 -0.31916669716E+02  0.40284004956E+03  0.40414828015E+03  0.47000000000E+01 0. -1.
         -5    1    3    3    0  502 -0.95083114020E+01  0.96521294970E+02  0.46344332558E+03  0.47350667830E+03  0.47000000000E+01 0. -1.
        -11    1    1    2    0    0 -0.19339541850E+02  0.86403447252E+01  0.28998502102E+02  0.35910813971E+02  0.00000000000E+00 0.  1.
         11    1    1    2    0    0  0.24979647711E+02 -0.73244969980E+02  0.37093725280E+03  0.37892381021E+03  0.00000000000E+00 0. -1.
<mgrwt>
<rscale>  0 0.13244348E+03</rscale>
<asrwt>0</asrwt>
<pdfrwt beam="1">  1        3 0.19682365E+00 0.14082379E+03</pdfrwt>
<pdfrwt beam="2">  1       -3 0.20208051E-02 0.14082379E+03</pdfrwt>
<totfact> 0.37124376E+02</totfact>
</mgrwt>
</event>
<event>
 7    1  0.5206756E-006  0.1682156E+03  0.7546771E-02  0.1186524E+00
          1   -1    0    0  501    0  0.00000000000E+00  0.00000000000E+00  0.10579980350E+04  0.10579980350E+04  0.00000000000E+00 0. -1.
         -1   -1    0    0    0  501 -0.00000000000E+00 -0.00000000000E+00 -0.25886119921E+02  0.25886119921E+02  0.00000000000E+00 0.  1.
         23    2    1    2    0    0 -0.78296057682E+02 -0.80864546981E+02  0.72820360168E+03  0.74738007754E+03  0.12500858851E+03 0.  0.
          5    1    3    3  502    0  0.26619259719E+02 -0.51649192057E+02  0.21787476891E+03  0.22553875267E+03  0.47000000000E+01 0. -1.
         -5    1    3    3    0  502 -0.10491531740E+03 -0.29215354924E+02  0.51032883277E+03  0.52184132487E+03  0.47000000000E+01 0. -1.
        -11    1    1    2    0    0 -0.19507268120E+02  0.66938188259E+01  0.30647484263E+02  0.36940614662E+02  0.00000000000E+00 0.  1.
         11    1    1    2    0    0  0.97803325801E+02  0.74170728156E+02  0.27326082911E+03  0.29956346269E+03  0.00000000000E+00 0. -1.
<mgrwt>
<rscale>  0 0.16193934E+03</rscale>
<asrwt>0</asrwt>
<pdfrwt beam="1">  1        1 0.16276890E+00 0.16821562E+03</pdfrwt>
<pdfrwt beam="2">  1       -1 0.39824808E-02 0.16821562E+03</pdfrwt>
<totfact> 0.35440283E+03</totfact>
</mgrwt>
</event>
<event>
 7    1  0.5206756E-006  0.1828797E+03  0.7546771E-02  0.1170609E+00
         -1   -1    0    0    0  501 -0.00000000000E+00  0.00000000000E+00  0.92628740860E+02  0.92628740860E+02  0.00000000000E+00 0.  1.
          1   -1    0    0  501    0  0.00000000000E+00 -0.00000000000E+00 -0.33099613546E+03  0.33099613546E+03  0.00000000000E+00 0. -1.
         23    2    1    2    0    0 -0.11937999977E+03  0.59787344025E+02 -0.16666001784E+03  0.24742783908E+03  0.12497545021E+03 0.  0.
          5    1    3    3  502    0 -0.10513454174E+03 -0.91439994153E+01 -0.13129455543E+03  0.16851479128E+03  0.47000000000E+01 0. -1.
         -5    1    3    3    0  502 -0.14245458033E+02  0.68931343440E+02 -0.35365462404E+02  0.78913047806E+02  0.47000000000E+01 0. -1.
        -11    1    1    2    0    0  0.73839316156E+02  0.12104884566E+02 -0.43451346861E+02  0.86526252576E+02  0.00000000000E+00 0. -1.
         11    1    1    2    0    0  0.45540683618E+02 -0.71892228591E+02 -0.28256029904E+02  0.89670784663E+02  0.00000000000E+00 0.  1.
<mgrwt>
<rscale>  0 0.17713067E+03</rscale>
<asrwt>0</asrwt>
<pdfrwt beam="2">  1        1 0.50922483E-01 0.18287967E+03</pdfrwt>
<pdfrwt beam="1">  1       -1 0.14250575E-01 0.18287967E+03</pdfrwt>
<totfact> 0.26528547E+03</totfact>
</mgrwt>
</event>
<event>
 7    1  0.5206756E-006  0.1405031E+03  0.7546771E-02  0.1223143E+00
         -1   -1    0    0    0  501 -0.00000000000E+00  0.00000000000E+00  0.43284353407E+02  0.43284353407E+02  0.00000000000E+00 0.  1.
          1   -1    0    0  501    0  0.00000000000E+00 -0.00000000000E+00 -0.38762753081E+03  0.38762753081E+03  0.00000000000E+00 0. -1.
         23    2    1    2    0    0  0.19592279615E+02 -0.61089515929E+02 -0.23578728381E+03  0.27447545290E+03  0.12500137865E+03 0.  0.
          5    1    3    3  502    0  0.22790784787E+02 -0.78144735620E+02 -0.24206883372E+03  0.25543184969E+03  0.47000000000E+01 0. -1.
         -5    1    3    3    0  502 -0.31985051717E+01  0.17055219691E+02  0.62815499139E+01  0.19043603213E+02  0.47000000000E+01 0. -1.
        -11    1    1    2    0    0  0.26273539133E+01  0.32261734878E+02  0.88184710794E+01  0.33548292924E+02  0.00000000000E+00 0.  1.
         11    1    1    2    0    0 -0.22219633528E+02  0.28827781051E+02 -0.11737436467E+03  0.12288813839E+03  0.00000000000E+00 0. -1.
<mgrwt>
<rscale>  0 0.13295006E+03</rscale>
<asrwt>0</asrwt>
<pdfrwt beam="2">  1        1 0.59635005E-01 0.14050314E+03</pdfrwt>
<pdfrwt beam="1">  1       -1 0.66591313E-02 0.14050314E+03</pdfrwt>
<totfact> 0.68889928E+03</totfact>
</mgrwt>
</event>
<event>
 7    1  0.5206756E-006  0.1445661E+03  0.7546771E-02  0.1216005E+00
          2   -1    0    0  501    0  0.00000000000E+00  0.00000000000E+00  0.11428808230E+03  0.11428808230E+03  0.00000000000E+00 0. -1.
         -2   -1    0    0    0  501 -0.00000000000E+00 -0.00000000000E+00 -0.16603574767E+03  0.16603574767E+03  0.00000000000E+00 0.  1.
         23    2    1    2    0    0  0.72579423188E+02 -0.24141772877E+01  0.10625470770E+02  0.14495607958E+03  0.12500305378E+03 0.  0.
          5    1    3    3  502    0  0.51205529580E+02  0.44732826096E+02  0.45871622637E+02  0.82154292362E+02  0.47000000000E+01 0.  1.
         -5    1    3    3    0  502  0.21373893607E+02 -0.47147003383E+02 -0.35246151867E+02  0.62801787215E+02  0.47000000000E+01 0.  1.
        -11    1    1    2    0    0 -0.57111893925E+01 -0.16462541750E+02  0.20706672581E+02  0.27062875946E+02  0.00000000000E+00 0. -1.
         11    1    1    2    0    0 -0.66868233795E+02  0.18876719037E+02 -0.83079808717E+02  0.10830487445E+03  0.00000000000E+00 0.  1.
<mgrwt>
<rscale>  0 0.13802995E+03</rscale>
<asrwt>0</asrwt>
<pdfrwt beam="1">  1        2 0.17582782E-01 0.14456612E+03</pdfrwt>
<pdfrwt beam="2">  1       -2 0.25543961E-01 0.14456612E+03</pdfrwt>
<totfact> 0.42389554E+03</totfact>
</mgrwt>
</event>
<event>
 7    1  0.5206756E-006  0.1310147E+03  0.7546771E-02  0.1239006E+00
         -2   -1    0    0    0  501 -0.00000000000E+00  0.00000000000E+00  0.77671769429E+03  0.77671769429E+03  0.00000000000E+00 0.  1.
          2   -1    0    0  501    0  0.00000000000E+00 -0.00000000000E+00 -0.17205848268E+02  0.17205848268E+02  0.00000000000E+00 0. -1.
         23    2    1    2    0    0  0.21050819117E+02  0.33107408682E+02  0.42659941083E+03  0.44626438126E+03  0.12500241264E+03 0.  0.
          5    1    3    3  502    0 -0.28999221974E+02  0.20521741351E+02  0.31292688592E+02  0.47575404386E+02  0.47000000000E+01 0.  1.
         -5    1    3    3    0  502  0.50050041090E+02  0.12585667331E+02  0.39530672223E+03  0.39868897687E+03  0.47000000000E+01 0.  1.
        -11    1    1    2    0    0 -0.55544520815E+02 -0.24002578693E+02  0.15897893445E+03  0.17010473002E+03  0.00000000000E+00 0. -1.
         11    1    1    2    0    0  0.34493701698E+02 -0.91048299896E+01  0.17393350074E+03  0.17755443128E+03  0.00000000000E+00 0.  1.
<mgrwt>
<rscale>  0 0.12251411E+03</rscale>
<asrwt>0</asrwt>
<pdfrwt beam="2">  1        2 0.26470542E-02 0.13101466E+03</pdfrwt>
<pdfrwt beam="1">  1       -2 0.11949500E+00 0.13101466E+03</pdfrwt>
<totfact> 0.19942449E+03</totfact>
</mgrwt>
</event>
<event>
 7    1  0.5206756E-006  0.1339999E+03  0.7546771E-02  0.1235163E+00
         -2   -1    0    0    0  501 -0.00000000000E+00  0.00000000000E+00  0.18726490583E+03  0.18726490583E+03  0.00000000000E+00 0.  1.
          2   -1    0    0  501    0  0.00000000000E+00 -0.00000000000E+00 -0.73967477895E+02  0.73967477895E+02  0.00000000000E+00 0. -1.
         23    2    1    2    0    0 -0.24400704662E+02  0.41644664776E+02  0.68527333982E+02  0.15050574843E+03  0.12500524915E+03 0.  0.
          5    1    3    3  502    0  0.16229061569E+02  0.74188542822E+01  0.90839491082E+02  0.92694794774E+02  0.47000000000E+01 0.  1.
         -5    1    3    3    0  502 -0.40629766232E+02  0.34225810494E+02 -0.22312157099E+02  0.57810953655E+02  0.47000000000E+01 0.  1.
        -11    1    1    2    0    0  0.12652452188E+02 -0.22215044033E+02 -0.25963876908E+02  0.36437832425E+02  0.00000000000E+00 0. -1.
         11    1    1    2    0    0  0.11748252475E+02 -0.19429620743E+02  0.70733970858E+02  0.74288802870E+02  0.00000000000E+00 0.  1.
<mgrwt>
<rscale>  0 0.12493981E+03</rscale>
<asrwt>0</asrwt>
<pdfrwt beam="2">  1        2 0.11379612E-01 0.13399994E+03</pdfrwt>
<pdfrwt beam="1">  1       -2 0.28809985E-01 0.13399994E+03</pdfrwt>
<totfact> 0.56959875E+03</totfact>
</mgrwt>
</event>
<event>
 7    1  0.5206756E-006  0.1407046E+03  0.7546771E-02  0.1223556E+00
          2   -1    0    0  501    0  0.00000000000E+00  0.00000000000E+00  0.20405556859E+04  0.20405556859E+04  0.00000000000E+00 0. -1.
         -2   -1    0    0    0  501 -0.00000000000E+00 -0.00000000000E+00 -0.16405926965E+02  0.16405926965E+02  0.00000000000E+00 0.  1.
         23    2    1    2    0    0  0.20485446716E+02  0.61245426391E+02  0.18118487027E+04  0.18173039113E+04  0.12500851575E+03 0.  0.
          5    1    3    3  502    0  0.26578562276E+02  0.73237021054E+02  0.17866637573E+04  0.17883678460E+04  0.47000000000E+01 0.  1.
         -5    1    3    3    0  502 -0.60931155594E+01 -0.11991594663E+02  0.25184945403E+02  0.28936065295E+02  0.47000000000E+01 0.  1.
        -11    1    1    2    0    0 -0.19419396037E+02 -0.30070802338E+02  0.20435799962E+03  0.20746941487E+03  0.00000000000E+00 0. -1.
         11    1    1    2    0    0 -0.10660506790E+01 -0.31174624054E+02  0.79430566347E+01  0.32188286653E+02  0.00000000000E+00 0.  1.
<mgrwt>
<rscale>  0 0.13266349E+03</rscale>
<asrwt>0</asrwt>
<pdfrwt beam="1">  1        2 0.31393144E+00 0.14070460E+03</pdfrwt>
<pdfrwt beam="2">  1       -2 0.25239904E-02 0.14070460E+03</pdfrwt>
<totfact> 0.38693222E+03</totfact>
</mgrwt>
</event>
<event>
 7    1  0.5206756E-006  0.2216273E+03  0.7546771E-02  0.1135041E+00
          2   -1    0    0  501    0  0.00000000000E+00  0.00000000000E+00  0.43149835527E+03  0.43149835527E+03  0.00000000000E+00 0. -1.
         -2   -1    0    0    0  501 -0.00000000000E+00 -0.00000000000E+00 -0.13550885203E+03  0.13550885203E+03  0.00000000000E+00 0.  1.
         23    2    1    2    0    0  0.55857326430E+02 -0.18012173299E+03  0.28013370084E+03  0.35720239604E+03  0.11642500496E+03 0.  0.
          5    1    3    3  502    0  0.51914724086E+02 -0.12914314735E+03  0.27150015794E+03  0.30513524354E+03  0.47000000000E+01 0. -1.
         -5    1    3    3    0  502  0.39426023443E+01 -0.50978585640E+02  0.86335428962E+01  0.52067152505E+02  0.47000000000E+01 0.  1.
        -11    1    1    2    0    0 -0.47538435006E+01  0.34680770106E+02  0.40672774252E+02  0.53662178567E+02  0.00000000000E+00 0. -1.
         11    1    1    2    0    0 -0.51103482930E+02  0.14544096289E+03 -0.24816971843E+02  0.15614263269E+03  0.00000000000E+00 0.  1.
<mgrwt>
<rscale>  0 0.21845418E+03</rscale>
<asrwt>0</asrwt>
<pdfrwt beam="1">  1        2 0.66384362E-01 0.22162730E+03</pdfrwt>
<pdfrwt beam="2">  1       -2 0.20847516E-01 0.22162730E+03</pdfrwt>
<totfact> 0.14314252E+03</totfact>
</mgrwt>
</event>
<event>
 7    1  0.5206756E-006  0.1356798E+03  0.7546771E-02  0.1231569E+00
         -1   -1    0    0    0  501 -0.00000000000E+00  0.00000000000E+00  0.43018207916E+02  0.43018207916E+02  0.00000000000E+00 0.  1.
          1   -1    0    0  501    0  0.00000000000E+00 -0.00000000000E+00 -0.34473150319E+03  0.34473150319E+03  0.00000000000E+00 0. -1.
         23    2    1    2    0    0 -0.51140188383E+02 -0.13004453603E+02 -0.19893506431E+03  0.24079901329E+03  0.12499828122E+03 0.  0.
          5    1    3    3  502    0  0.34178148204E+02 -0.28060801546E+02 -0.98520489994E+02  0.10809223537E+03  0.47000000000E+01 0.  1.
         -5    1    3    3    0  502 -0.85318336587E+02  0.15056347943E+02 -0.10041457432E+03  0.13270677793E+03  0.47000000000E+01 0.  1.
        -11    1    1    2    0    0  0.67075446644E+02  0.13281572632E+02 -0.34027102093E+02  0.76376432169E+02  0.00000000000E+00 0. -1.
         11    1    1    2    0    0 -0.15935258261E+02 -0.27711902846E+00 -0.68751128867E+02  0.70574265645E+02  0.00000000000E+00 0.  1.
<mgrwt>
<rscale>  0 0.12726645E+03</rscale>
<asrwt>0</asrwt>
<pdfrwt beam="2">  1        1 0.53035617E-01 0.13567979E+03</pdfrwt>
<pdfrwt beam="1">  1       -1 0.66181857E-02 0.13567979E+03</pdfrwt>
<totfact> 0.80342976E+03</totfact>
</mgrwt>
</event>
<event>
 7    1  0.5206756E-006  0.2183497E+03  0.7546771E-02  0.1138565E+00
         -1   -1    0    0    0  501 -0.00000000000E+00  0.00000000000E+00  0.73179765156E+02  0.73179765156E+02  0.00000000000E+00 0.  1.
          1   -1    0    0  501    0  0.00000000000E+00 -0.00000000000E+00 -0.60863438435E+03  0.60863438435E+03  0.00000000000E+00 0. -1.
         23    2    1    2    0    0  0.11946802858E+03  0.13334370200E+03 -0.31859247968E+03  0.38623538270E+03  0.12499379994E+03 0.  0.
          5    1    3    3  502    0  0.25805014212E+01  0.69249187907E+02 -0.47627875809E+02  0.84217655913E+02  0.47000000000E+01 0.  1.
         -5    1    3    3    0  502  0.11688752716E+03  0.64094514091E+02 -0.27096460387E+03  0.30201772679E+03  0.47000000000E+01 0.  1.
        -11    1    1    2    0    0 -0.23889242731E+02 -0.94758790510E+02 -0.10240636548E+03  0.14155206812E+03  0.00000000000E+00 0.  1.
         11    1    1    2    0    0 -0.95578785854E+02 -0.38584911488E+02 -0.11445577403E+03  0.15402669869E+03  0.00000000000E+00 0. -1.
<mgrwt>
<rscale>  0 0.21383474E+03</rscale>
<asrwt>0</asrwt>
<pdfrwt beam="2">  1        1 0.93636058E-01 0.21834973E+03</pdfrwt>
<pdfrwt beam="1">  1       -1 0.11258426E-01 0.21834973E+03</pdfrwt>
<totfact> 0.17392057E+03</totfact>
</mgrwt>
</event>
<event>
 7    1  0.5206756E-006  0.1778411E+03  0.7546771E-02  0.1175643E+00
          1   -1    0    0  501    0  0.00000000000E+00  0.00000000000E+00  0.10343287959E+04  0.10343287959E+04  0.00000000000E+00 0. -1.
         -1   -1    0    0    0  501 -0.00000000000E+00 -0.00000000000E+00 -0.33944912567E+02  0.33944912567E+02  0.00000000000E+00 0.  1.
         23    2    1    2    0    0  0.50451267711E+02 -0.11602142631E+03  0.76812787834E+03  0.78844651168E+03  0.12498464917E+03 0.  0.
          5    1    3    3  502    0  0.85686916194E+02 -0.11042244095E+03  0.55788876638E+03  0.57514983155E+03  0.47000000000E+01 0. -1.
         -5    1    3    3    0  502 -0.35235648483E+02 -0.55989853581E+01  0.21023911196E+03  0.21329668014E+03  0.47000000000E+01 0. -1.
        -11    1    1    2    0    0 -0.72108136947E+02  0.10916543565E+03  0.21336484788E+03  0.25028230873E+03  0.00000000000E+00 0. -1.
         11    1    1    2    0    0  0.21656869236E+02  0.68559906560E+01  0.18891157130E+02  0.29544888064E+02  0.00000000000E+00 0.  1.
<mgrwt>
<rscale>  0 0.17213125E+03</rscale>
<asrwt>0</asrwt>
<pdfrwt beam="1">  1        1 0.15912748E+00 0.17784112E+03</pdfrwt>
<pdfrwt beam="2">  1       -1 0.52222950E-02 0.17784112E+03</pdfrwt>
<totfact> 0.24689645E+03</totfact>
</mgrwt>
</event>
<event>
 7    1  0.5206756E-006  0.1384814E+03  0.7546771E-02  0.1230724E+00
          1   -1    0    0  501    0  0.00000000000E+00  0.00000000000E+00  0.92849086508E+02  0.92849086508E+02  0.00000000000E+00 0.  1.
         -1   -1    0    0    0  501 -0.00000000000E+00 -0.00000000000E+00 -0.15412702578E+03  0.15412702578E+03  0.00000000000E+00 0. -1.
         23    2    1    2    0    0  0.61263066902E+02 -0.10018626217E+02 -0.29890455085E+02  0.14167054847E+03  0.12378840318E+03 0.  0.
          5    1    3    3  502    0  0.15076003815E+02  0.50363766083E+02 -0.38051787745E+02  0.65067836722E+02  0.47000000000E+01 0. -1.
         -5    1    3    3    0  502  0.46187063087E+02 -0.60382392300E+02  0.81613326602E+01  0.76602711749E+02  0.47000000000E+01 0. -1.
        -11    1    1    2    0    0 -0.75368847173E+00  0.21904601589E+02 -0.37398307529E+02  0.43347583821E+02  0.00000000000E+00 0. -1.
         11    1    1    2    0    0 -0.60509378430E+02 -0.11885975371E+02  0.60108233383E+01  0.61957980000E+02  0.00000000000E+00 0.  1.
<mgrwt>
<rscale>  0 0.12782205E+03</rscale>
<asrwt>0</asrwt>
<pdfrwt beam="1">  1        1 0.14284475E-01 0.13848142E+03</pdfrwt>
<pdfrwt beam="2">  1       -1 0.23711850E-01 0.13848142E+03</pdfrwt>
<totfact> 0.57613269E+03</totfact>
</mgrwt>
</event>
<event>
 7    1  0.5206756E-006  0.1431073E+03  0.7546771E-02  0.1219401E+00
          1   -1    0    0  501    0  0.00000000000E+00  0.00000000000E+00  0.26314718270E+03  0.26314718270E+03  0.00000000000E+00 0. -1.
         -1   -1    0    0    0  501 -0.00000000000E+00 -0.00000000000E+00 -0.65552216148E+02  0.65552216148E+02  0.00000000000E+00 0.  1.
         23    2    1    2    0    0  0.69548089914E+02  0.40158025186E+01  0.79729783337E+02  0.16381857454E+03  0.12500649396E+03 0.  0.
          5    1    3    3  502    0  0.23002089847E+02  0.60767612969E+02  0.57746781691E+02  0.87055038446E+02  0.47000000000E+01 0.  1.
         -5    1    3    3    0  502  0.46546000067E+02 -0.56751810450E+02  0.21983001647E+02  0.76763536090E+02  0.47000000000E+01 0.  1.
        -11    1    1    2    0    0 -0.47471883425E+02  0.41436535444E+02  0.50970581502E+02  0.81046692494E+02  0.00000000000E+00 0.  1.
         11    1    1    2    0    0 -0.22076206489E+02 -0.45452337963E+02  0.66894601710E+02  0.83834131815E+02  0.00000000000E+00 0. -1.
<mgrwt>
<rscale>  0 0.13558171E+03</rscale>
<asrwt>0</asrwt>
<pdfrwt beam="1">  1        1 0.40484182E-01 0.14310726E+03</pdfrwt>
<pdfrwt beam="2">  1       -1 0.10084956E-01 0.14310726E+03</pdfrwt>
<totfact> 0.59614079E+03</totfact>
</mgrwt>
</event>
<event>
 7    1  0.5206756E-006  0.1862520E+03  0.7546771E-02  0.1167315E+00
         -2   -1    0    0    0  501 -0.00000000000E+00  0.00000000000E+00  0.55032992298E+02  0.55032992298E+02  0.00000000000E+00 0.  1.
          2   -1    0    0  501    0  0.00000000000E+00 -0.00000000000E+00 -0.60393927943E+03  0.60393927943E+03  0.00000000000E+00 0. -1.
         23    2    1    2    0    0 -0.97980036829E+02 -0.97286038820E+02 -0.38077558971E+03  0.42388659751E+03  0.12500054744E+03 0.  0.
          5    1    3    3  502    0 -0.11228995558E+03 -0.11560860339E+03 -0.31312373057E+03  0.35219730826E+03  0.47000000000E+01 0. -1.
         -5    1    3    3    0  502  0.14309918753E+02  0.18322564566E+02 -0.67651859146E+02  0.71689289248E+02  0.47000000000E+01 0. -1.
        -11    1    1    2    0    0  0.89133702503E+01  0.40919278898E+02 -0.68784179234E+01  0.42439936238E+02  0.00000000000E+00 0.  1.
         11    1    1    2    0    0  0.89066666579E+02  0.56366759922E+02 -0.16125227949E+03  0.19264573798E+03  0.00000000000E+00 0. -1.
<mgrwt>
<rscale>  0 0.18050565E+03</rscale>
<asrwt>0</asrwt>
<pdfrwt beam="2">  1        2 0.92913735E-01 0.18625197E+03</pdfrwt>
<pdfrwt beam="1">  1       -2 0.84666142E-02 0.18625197E+03</pdfrwt>
<totfact> 0.42553869E+03</totfact>
</mgrwt>
</event>
<event>
 7    1  0.5206756E-006  0.1407529E+03  0.7546771E-02  0.1218642E+00
         -2   -1    0    0    0  501 -0.00000000000E+00  0.00000000000E+00  0.20104239486E+02  0.20104239486E+02  0.00000000000E+00 0.  1.
          2   -1    0    0  501    0  0.00000000000E+00 -0.00000000000E+00 -0.87498827381E+03  0.87498827381E+03  0.00000000000E+00 0. -1.
         23    2    1    2    0    0  0.26852825182E+02  0.58856046108E+02 -0.50119020405E+03  0.52057949549E+03  0.12500512831E+03 0.  0.
          5    1    3    3  502    0  0.52018616139E+02 -0.16127552502E+02 -0.28799453037E+03  0.29313644246E+03  0.47000000000E+01 0. -1.
         -5    1    3    3    0  502 -0.25165790957E+02  0.74983598610E+02 -0.21319567368E+03  0.22744305303E+03  0.47000000000E+01 0. -1.
        -11    1    1    2    0    0 -0.15151915351E+02  0.85478087914E+00  0.44745993644E+00  0.15182602199E+02  0.00000000000E+00 0.  1.
         11    1    1    2    0    0 -0.11700909831E+02 -0.59710826987E+02 -0.35414129021E+03  0.35933041561E+03  0.00000000000E+00 0. -1.
<mgrwt>
<rscale>  0 0.13612344E+03</rscale>
<asrwt>0</asrwt>
<pdfrwt beam="2">  1        2 0.13461358E+00 0.14075294E+03</pdfrwt>
<pdfrwt beam="1">  1       -2 0.30929599E-02 0.14075294E+03</pdfrwt>
<totfact> 0.12263399E+04</totfact>
</mgrwt>
</event>
<event>
 7    1  0.5206756E-006  0.1284244E+03  0.7546771E-02  0.1243426E+00
          2   -1    0    0  501    0  0.00000000000E+00  0.00000000000E+00  0.41576179969E+02  0.41576179969E+02  0.00000000000E+00 0.  1.
         -2   -1    0    0    0  501 -0.00000000000E+00 -0.00000000000E+00 -0.30786876202E+03  0.30786876202E+03  0.00000000000E+00 0. -1.
         23    2    1    2    0    0  0.23359902018E+02  0.17944203280E+02 -0.13885885051E+03  0.18914179439E+03  0.12500063425E+03 0.  0.
          5    1    3    3  502    0  0.24935553797E+02  0.50239319731E+02 -0.11224925053E+02  0.57392160028E+02  0.47000000000E+01 0. -1.
         -5    1    3    3    0  502 -0.15756517798E+01 -0.32295116451E+02 -0.12763392546E+03  0.13174963436E+03  0.47000000000E+01 0. -1.
        -11    1    1    2    0    0 -0.92815460389E+01  0.24598939172E+02 -0.11640220167E+01  0.26317481880E+02  0.00000000000E+00 0.  1.
         11    1    1    2    0    0 -0.14078355979E+02 -0.42543142452E+02 -0.12626970952E+03  0.13398566573E+03  0.00000000000E+00 0. -1.
<mgrwt>
<rscale>  0 0.11980066E+03</rscale>
<asrwt>0</asrwt>
<pdfrwt beam="1">  1        2 0.63963357E-02 0.12842444E+03</pdfrwt>
<pdfrwt beam="2">  1       -2 0.47364423E-01 0.12842444E+03</pdfrwt>
<totfact> 0.46026731E+03</totfact>
</mgrwt>
</event>
<event>
 6    1  0.5206756E-006  0.1367278E+03  0.7546771E-02  0.1231515E+00
         -1   -1    0    0    0  501 -0.00000000000E+00  0.00000000000E+00  0.89964174777E+02  0.89964174777E+02  0.00000000000E+00 0.  1.
          1   -1    0    0  501    0  0.00000000000E+00 -0.00000000000E+00 -0.16049139540E+03  0.16049139540E+03  0.00000000000E+00 0. -1.
          5    1    1    2  502    0  0.18376789232E+02  0.39824234159E+02  0.63326741473E+01  0.44563087535E+02  0.47000000000E+01 0. -1.
         -5    1    1    2    0  502 -0.52290525601E+02 -0.65180788132E+02 -0.56949070205E+02  0.10123300256E+03  0.47000000000E+01 0.  1.
        -11    1    1    2    0    0 -0.90080838640E+01 -0.28093352415E+02  0.81201025952E+01  0.30599315204E+02  0.00000000000E+00 0.  1.
         11    1    1    2    0    0  0.42921820233E+02  0.53449906388E+02 -0.28030927160E+02  0.74060164883E+02  0.00000000000E+00 0. -1.
<mgrwt>
<rscale>  0 0.12730221E+03</rscale>
<asrwt>0</asrwt>
<pdfrwt beam="2">  1        1 0.24690984E-01 0.13672776E+03</pdfrwt>
<pdfrwt beam="1">  1       -1 0.13840642E-01 0.13672776E+03</pdfrwt>
<totfact> 0.67475972E+03</totfact>
</mgrwt>
</event>
<event>
 7    1  0.5206756E-006  0.1548364E+03  0.7546771E-02  0.1202938E+00
         -1   -1    0    0    0  501 -0.00000000000E+00  0.00000000000E+00  0.31821620925E+02  0.31821620925E+02  0.00000000000E+00 0.  1.
          1   -1    0    0  501    0  0.00000000000E+00 -0.00000000000E+00 -0.63454048791E+03  0.63454048791E+03  0.00000000000E+00 0. -1.
         23    2    1    2    0    0 -0.80499093128E+02  0.43229237764E+02 -0.32091441911E+03  0.35631499526E+03  0.12500176184E+03 0.  0.
          5    1    3    3  502    0 -0.67244353568E+02  0.32343371833E+02 -0.32855816419E+03  0.33695764429E+03  0.47000000000E+01 0.  1.
         -5    1    3    3    0  502 -0.13254739560E+02  0.10885865931E+02  0.76437450809E+01  0.19357350974E+02  0.47000000000E+01 0.  1.
        -11    1    1    2    0    0  0.60733583615E+01 -0.35883459963E+02 -0.18047200987E+03  0.18410501005E+03  0.00000000000E+00 0. -1.
         11    1    1    2    0    0  0.74425734766E+02 -0.73457778011E+01 -0.10133243801E+03  0.12594210352E+03  0.00000000000E+00 0.  1.
<mgrwt>
<rscale>  0 0.14801121E+03</rscale>
<asrwt>0</asrwt>
<pdfrwt beam="2">  1        1 0.97621601E-01 0.15483640E+03</pdfrwt>
<pdfrwt beam="1">  1       -1 0.48956346E-02 0.15483640E+03</pdfrwt>
<totfact> 0.57383681E+03</totfact>
</mgrwt>
</event>
<event>
 7    1  0.5206756E-006  0.1464083E+03  0.7546771E-02  0.1216139E+00
         -1   -1    0    0    0  501 -0.00000000000E+00  0.00000000000E+00  0.35746382750E+02  0.35746382750E+02  0.00000000000E+00 0.  1.
          1   -1    0    0  501    0  0.00000000000E+00 -0.00000000000E+00 -0.48185298903E+03  0.48185298903E+03  0.00000000000E+00 0. -1.
         23    2    1    2    0    0  0.17251014759E+02 -0.74303073030E+02 -0.23010236174E+03  0.27273155439E+03  0.12496743460E+03 0.  0.
          5    1    3    3  502    0 -0.34311754411E+02  0.17423926020E+02 -0.85054708302E+02  0.93473435227E+02  0.47000000000E+01 0. -1.
         -5    1    3    3    0  502  0.51562769169E+02 -0.91726999050E+02 -0.14504765343E+03  0.17925811916E+03  0.47000000000E+01 0. -1.
        -11    1    1    2    0    0 -0.20021665752E+02  0.58955651393E+02 -0.22010525114E+03  0.22874212010E+03  0.00000000000E+00 0. -1.
         11    1    1    2    0    0  0.27706509935E+01  0.15347421636E+02  0.41010065966E+01  0.16125697285E+02  0.00000000000E+00 0.  1.
<mgrwt>
<rscale>  0 0.13793221E+03</rscale>
<asrwt>0</asrwt>
<pdfrwt beam="2">  1        1 0.74131227E-01 0.14640835E+03</pdfrwt>
<pdfrwt beam="1">  1       -1 0.54994437E-02 0.14640835E+03</pdfrwt>
<totfact> 0.69604366E+03</totfact>
</mgrwt>
</event>
<event>
 7    1  0.5206756E-006  0.1443845E+03  0.7546771E-02  0.1220749E+00
          2   -1    0    0  501    0  0.00000000000E+00  0.00000000000E+00  0.39077742581E+03  0.39077742581E+03  0.00000000000E+00 0. -1.
         -2   -1    0    0    0  501 -0.00000000000E+00 -0.00000000000E+00 -0.43226681633E+02  0.43226681633E+02  0.00000000000E+00 0.  1.
         23    2    1    2    0    0  0.36553968070E+02 -0.62363611432E+02  0.24426163682E+03  0.28374395092E+03  0.12498587861E+03 0.  0.
          5    1    3    3  502    0  0.71754051154E+02  0.35061984116E+00  0.13261214541E+03  0.15085369701E+03  0.47000000000E+01 0.  1.
         -5    1    3    3    0  502 -0.35200083084E+02 -0.62714231274E+02  0.11164949140E+03  0.13289025391E+03  0.47000000000E+01 0.  1.
        -11    1    1    2    0    0 -0.85658492811E+01 -0.18225520518E+02  0.63225092641E+01  0.21107285364E+02  0.00000000000E+00 0.  1.
         11    1    1    2    0    0 -0.27988118788E+02  0.80589131951E+02  0.96966598094E+02  0.12915287116E+03  0.00000000000E+00 0. -1.
<mgrwt>
<rscale>  0 0.13462540E+03</rscale>
<asrwt>0</asrwt>
<pdfrwt beam="1">  1        2 0.60119602E-01 0.14438450E+03</pdfrwt>
<pdfrwt beam="2">  1       -2 0.66502590E-02 0.14438450E+03</pdfrwt>
<totfact> 0.98562606E+03</totfact>
</mgrwt>
</event>
<event>
 7    1  0.5206756E-006  0.1610355E+03  0.7546771E-02  0.1194914E+00
         -3   -1    0    0    0  501 -0.00000000000E+00  0.00000000000E+00  0.42425288720E+02  0.42425288720E+02  0.00000000000E+00 0.  1.
          3   -1    0    0  501    0  0.00000000000E+00 -0.00000000000E+00 -0.70507912368E+03  0.70507912368E+03  0.00000000000E+00 0. -1.
         23    2    1    2    0    0  0.59074884029E+02  0.82564127832E+02 -0.54080054587E+03  0.56426735695E+03  0.12500297027E+03 0.  0.
          5    1    3    3  502    0  0.87368829078E+02  0.64232776952E+02 -0.49742813350E+03  0.50913259562E+03  0.47000000000E+01 0.  1.
         -5    1    3    3    0  502 -0.28293945049E+02  0.18331350880E+02 -0.43372412369E+02  0.55134761324E+02  0.47000000000E+01 0.  1.
        -11    1    1    2    0    0 -0.98564164669E+01 -0.64227802927E+02 -0.18920492270E+02  0.67678243492E+02  0.00000000000E+00 0.  1.
         11    1    1    2    0    0 -0.49218467562E+02 -0.18336324904E+02 -0.10293279682E+03  0.11555881195E+03  0.00000000000E+00 0. -1.
<mgrwt>
<rscale>  0 0.15461492E+03</rscale>
<asrwt>0</asrwt>
<pdfrwt beam="2">  1        3 0.10847371E+00 0.16103546E+03</pdfrwt>
<pdfrwt beam="1">  1       -3 0.65269675E-02 0.16103546E+03</pdfrwt>
<totfact> 0.26614818E+02</totfact>
</mgrwt>
</event>
<event>
 7    1  0.5206756E-006  0.1388140E+03  0.7546771E-02  0.1226450E+00
          1   -1    0    0  501    0  0.00000000000E+00  0.00000000000E+00  0.29826500299E+03  0.29826500299E+03  0.00000000000E+00 0. -1.
         -1   -1    0    0    0  501 -0.00000000000E+00 -0.00000000000E+00 -0.67851493733E+02  0.67851493733E+02  0.00000000000E+00 0.  1.
         23    2    1    2    0    0  0.60093563298E+02 -0.57733259424E+01  0.21512348630E+03  0.25602233158E+03  0.12499900906E+03 0.  0.
          5    1    3    3  502    0  0.96145575113E+01 -0.98278890868E+01 -0.14681998602E+02  0.20656190428E+02  0.47000000000E+01 0. -1.
         -5    1    3    3    0  502  0.50479005786E+02  0.40545631444E+01  0.22980548490E+03  0.23536614115E+03  0.47000000000E+01 0. -1.
        -11    1    1    2    0    0 -0.42897389386E+02 -0.18503249111E+02 -0.30280152521E+02  0.55672649304E+02  0.00000000000E+00 0.  1.
         11    1    1    2    0    0 -0.17196173912E+02  0.24276575053E+02  0.45570175475E+02  0.54421515840E+02  0.00000000000E+00 0. -1.
<mgrwt>
<rscale>  0 0.13067986E+03</rscale>
<asrwt>0</asrwt>
<pdfrwt beam="1">  1        1 0.45886923E-01 0.13881398E+03</pdfrwt>
<pdfrwt beam="2">  1       -1 0.10438692E-01 0.13881398E+03</pdfrwt>
<totfact> 0.48344579E+03</totfact>
</mgrwt>
</event>
<event>
 7    1  0.5206756E-006  0.1378233E+03  0.7546771E-02  0.1237062E+00
          4   -1    0    0  501    0  0.00000000000E+00  0.00000000000E+00  0.26520034603E+03  0.26520034603E+03  0.00000000000E+00 0. -1.
         -4   -1    0    0    0  501 -0.00000000000E+00 -0.00000000000E+00 -0.67786845371E+02  0.67786845371E+02  0.00000000000E+00 0.  1.
         23    2    1    2    0    0  0.37012300116E+02 -0.44724333015E+02  0.20061641931E+03  0.24339720634E+03  0.12500030414E+03 0.  0.
          5    1    3    3  502    0 -0.43861523589E+02 -0.20957500242E+02  0.10526009333E+03  0.11603804254E+03  0.47000000000E+01 0.  1.
         -5    1    3    3    0  502  0.80873823705E+02 -0.23766832773E+02  0.95356325978E+02  0.12735916380E+03  0.47000000000E+01 0.  1.
        -11    1    1    2    0    0  0.10604465518E+02  0.52109819507E+01  0.20227961023E+02  0.23426041684E+02  0.00000000000E+00 0. -1.
         11    1    1    2    0    0 -0.47616765633E+02  0.39513351064E+02 -0.23430879668E+02  0.66163943381E+02  0.00000000000E+00 0.  1.
<mgrwt>
<rscale>  0 0.12373351E+03</rscale>
<asrwt>0</asrwt>
<pdfrwt beam="1">  1        4 0.40800053E-01 0.13782326E+03</pdfrwt>
<pdfrwt beam="2">  1       -4 0.10428746E-01 0.13782326E+03</pdfrwt>
<totfact> 0.68620037E+02</totfact>
</mgrwt>
</event>
<event>
 7    1  0.5206756E-006  0.1741440E+03  0.7546771E-02  0.1180745E+00
          1   -1    0    0  501    0  0.00000000000E+00  0.00000000000E+00  0.11501118716E+03  0.11501118716E+03  0.00000000000E+00 0. -1.
         -1   -1    0    0    0  501 -0.00000000000E+00 -0.00000000000E+00 -0.22853487615E+03  0.22853487615E+03  0.00000000000E+00 0.  1.
         23    2    1    2    0    0  0.67929821526E+02 -0.10042145445E+03 -0.42602907105E+02  0.17927946913E+03  0.12500876445E+03 0.  0.
          5    1    3    3  502    0  0.67597057595E+02 -0.56631671833E+02 -0.81760399671E+02  0.12034683795E+03  0.47000000000E+01 0.  1.
         -5    1    3    3    0  502  0.33276393116E+00 -0.43789782614E+02  0.39157492566E+02  0.58932631176E+02  0.47000000000E+01 0.  1.
        -11    1    1    2    0    0 -0.11621341131E+02  0.47581409685E+02 -0.71952100471E+02  0.87041087307E+02  0.00000000000E+00 0.  1.
         11    1    1    2    0    0 -0.56308480395E+02  0.52840044762E+02  0.10313185835E+01  0.77225506880E+02  0.00000000000E+00 0. -1.
<mgrwt>
<rscale>  0 0.16725146E+03</rscale>
<asrwt>0</asrwt>
<pdfrwt beam="1">  1        1 0.17694029E-01 0.17414396E+03</pdfrwt>
<pdfrwt beam="2">  1       -1 0.35159211E-01 0.17414396E+03</pdfrwt>
<totfact> 0.22817711E+03</totfact>
</mgrwt>
</event>
<event>
 7    1  0.5206756E-006  0.1510260E+03  0.7546771E-02  0.1208117E+00
         -2   -1    0    0    0  501 -0.00000000000E+00  0.00000000000E+00  0.65291499546E+02  0.65291499546E+02  0.00000000000E+00 0.  1.
          2   -1    0    0  501    0  0.00000000000E+00 -0.00000000000E+00 -0.41326169109E+03  0.41326169109E+03  0.00000000000E+00 0. -1.
         23    2    1    2    0    0  0.81145205773E+02  0.24488399005E+02 -0.31546398936E+03  0.34975188070E+03  0.12499849346E+03 0.  0.
          5    1    3    3  502    0  0.75664653396E+02 -0.10551768947E+02 -0.76826740075E+02  0.10844776435E+03  0.47000000000E+01 0. -1.
         -5    1    3    3    0  502  0.54805523772E+01  0.35040167952E+02 -0.23863724928E+03  0.24130411635E+03  0.47000000000E+01 0. -1.
        -11    1    1    2    0    0  0.98952821238E+00 -0.23629579128E+02  0.20286993820E+02  0.31159240910E+02  0.00000000000E+00 0.  1.
         11    1    1    2    0    0 -0.82134733986E+02 -0.85881987687E+00 -0.52793196005E+02  0.97642069022E+02  0.00000000000E+00 0. -1.
<mgrwt>
<rscale>  0 0.14394485E+03</rscale>
<asrwt>0</asrwt>
<pdfrwt beam="2">  1        2 0.63578723E-01 0.15102599E+03</pdfrwt>
<pdfrwt beam="1">  1       -2 0.10044846E-01 0.15102599E+03</pdfrwt>
<totfact> 0.49105237E+03</totfact>
</mgrwt>
</event>
<event>
 7    1  0.5206756E-006  0.2108606E+03  0.7546771E-02  0.1144708E+00
          2   -1    0    0  501    0  0.00000000000E+00  0.00000000000E+00  0.78109470017E+03  0.78109470017E+03  0.00000000000E+00 0. -1.
         -2   -1    0    0    0  501 -0.00000000000E+00 -0.00000000000E+00 -0.62834953447E+02  0.62834953447E+02  0.00000000000E+00 0.  1.
         23    2    1    2    0    0 -0.16970864939E+03  0.56675146518E+01  0.54747549454E+03  0.58667846529E+03  0.12501623143E+03 0.  0.
          5    1    3    3  502    0 -0.14158318388E+03  0.35416784805E+02  0.27747745480E+03  0.31355378250E+03  0.47000000000E+01 0.  1.
         -5    1    3    3    0  502 -0.28125465515E+02 -0.29749270153E+02  0.26999803974E+03  0.27312468279E+03  0.47000000000E+01 0.  1.
        -11    1    1    2    0    0  0.93714279276E+02 -0.38188813422E+02  0.55565922048E+02  0.11544835774E+03  0.00000000000E+00 0.  1.
         11    1    1    2    0    0  0.75994370116E+02  0.32521298770E+02  0.11521833014E+03  0.14180283059E+03  0.00000000000E+00 0. -1.
<mgrwt>
<rscale>  0 0.20608095E+03</rscale>
<asrwt>0</asrwt>
<pdfrwt beam="1">  1        2 0.12016841E+00 0.21086063E+03</pdfrwt>
<pdfrwt beam="2">  1       -2 0.96669165E-02 0.21086063E+03</pdfrwt>
<totfact> 0.25459767E+03</totfact>
</mgrwt>
</event>
<event>
 7    1  0.5206756E-006  0.1566961E+03  0.7546771E-02  0.1200748E+00
          2   -1    0    0  501    0  0.00000000000E+00  0.00000000000E+00  0.46011410191E+02  0.46011410191E+02  0.00000000000E+00 0. -1.
         -2   -1    0    0    0  501 -0.00000000000E+00 -0.00000000000E+00 -0.45101168079E+03  0.45101168079E+03  0.00000000000E+00 0.  1.
         23    2    1    2    0    0 -0.24860467760E+02  0.91163300131E+02 -0.23684491614E+03  0.28398800666E+03  0.12499953391E+03 0.  0.
          5    1    3    3  502    0  0.37608360945E+02  0.75201552423E+02 -0.88473868930E+02  0.12214490486E+03  0.47000000000E+01 0.  1.
         -5    1    3    3    0  502 -0.62468828706E+02  0.15961747707E+02 -0.14837104721E+03  0.16184310180E+03  0.47000000000E+01 0.  1.
        -11    1    1    2    0    0  0.10825297916E+02 -0.42646764494E+02 -0.75076274935E+01  0.44635166264E+02  0.00000000000E+00 0. -1.
         11    1    1    2    0    0  0.14035169845E+02 -0.48516535636E+02 -0.16064772697E+03  0.16839991806E+03  0.00000000000E+00 0.  1.
<mgrwt>
<rscale>  0 0.14977617E+03</rscale>
<asrwt>0</asrwt>
<pdfrwt beam="1">  1        2 0.70786785E-02 0.15669612E+03</pdfrwt>
<pdfrwt beam="2">  1       -2 0.69386412E-01 0.15669612E+03</pdfrwt>
<totfact> 0.18814535E+03</totfact>
</mgrwt>
</event>
<event>
 7    1  0.5206756E-006  0.1280894E+03  0.7546771E-02  0.1244768E+00
          2   -1    0    0  501    0  0.00000000000E+00  0.00000000000E+00  0.12576232933E+04  0.12576232933E+04  0.00000000000E+00 0. -1.
         -2   -1    0    0    0  501 -0.00000000000E+00 -0.00000000000E+00 -0.12330218922E+02  0.12330218922E+02  0.00000000000E+00 0.  1.
         23    2    1    2    0    0  0.17158608385E+02 -0.22064463409E+02  0.97378279143E+03  0.98217096657E+03  0.12500249713E+03 0.  0.
          5    1    3    3  502    0  0.67870517840E+01  0.48696592801E+02  0.56481762157E+03  0.56697306626E+03  0.47000000000E+01 0.  1.
         -5    1    3    3    0  502  0.10371556601E+02 -0.70761056210E+02  0.40896516986E+03  0.41519790031E+03  0.47000000000E+01 0.  1.
        -11    1    1    2    0    0  0.31041212587E+02 -0.66743330632E+01  0.49641525427E+02  0.58926943306E+02  0.00000000000E+00 0.  1.
         11    1    1    2    0    0 -0.48199820972E+02  0.28738796473E+02  0.22186875755E+03  0.22885560238E+03  0.00000000000E+00 0. -1.
<mgrwt>
<rscale>  0 0.11899280E+03</rscale>
<asrwt>0</asrwt>
<pdfrwt beam="1">  1        2 0.19348041E+00 0.12808935E+03</pdfrwt>
<pdfrwt beam="2">  1       -2 0.18969577E-02 0.12808935E+03</pdfrwt>
<totfact> 0.14879388E+04</totfact>
</mgrwt>
</event>
<event>
 7    1  0.5206756E-006  0.1495552E+03  0.7546771E-02  0.1210478E+00
          2   -1    0    0  501    0  0.00000000000E+00  0.00000000000E+00  0.33762567600E+03  0.33762567600E+03  0.00000000000E+00 0. -1.
         -2   -1    0    0    0  501 -0.00000000000E+00 -0.00000000000E+00 -0.56225918282E+02  0.56225918282E+02  0.00000000000E+00 0.  1.
         23    2    1    2    0    0  0.74107964773E+02  0.35350888215E+02  0.12138483046E+03  0.19261632026E+03  0.12500037611E+03 0.  0.
          5    1    3    3  502    0  0.14983838950E+02 -0.65840616589E+01  0.11871413323E+03  0.11992914878E+03  0.47000000000E+01 0. -1.
         -5    1    3    3    0  502  0.59124125823E+02  0.41934949874E+02  0.26706972278E+01  0.72687171488E+02  0.47000000000E+01 0. -1.
        -11    1    1    2    0    0  0.10706567243E+02 -0.14376476763E+02 -0.10964096483E+01  0.17958724352E+02  0.00000000000E+00 0.  1.
         11    1    1    2    0    0 -0.84814532016E+02 -0.20974411453E+02  0.16111133690E+03  0.18327654966E+03  0.00000000000E+00 0. -1.
<mgrwt>
<rscale>  0 0.14213996E+03</rscale>
<asrwt>0</asrwt>
<pdfrwt beam="1">  1        2 0.51942410E-01 0.14955524E+03</pdfrwt>
<pdfrwt beam="2">  1       -2 0.86501415E-02 0.14955524E+03</pdfrwt>
<totfact> 0.76986338E+03</totfact>
</mgrwt>
</event>
<event>
 7    1  0.5206756E-006  0.1369013E+03  0.7546771E-02  0.1229284E+00
          2   -1    0    0  501    0  0.00000000000E+00  0.00000000000E+00  0.24989303124E+03  0.24989303124E+03  0.00000000000E+00 0.  1.
         -2   -1    0    0    0  501 -0.00000000000E+00 -0.00000000000E+00 -0.60453191535E+02  0.60453191535E+02  0.00000000000E+00 0. -1.
         23    2    1    2    0    0  0.55813848168E+02  0.12052215963E+01  0.12438026050E+03  0.18496598883E+03  0.12500131845E+03 0.  0.
          5    1    3    3  502    0  0.55607002900E+02 -0.21803690524E+02  0.15738736645E+01  0.59934186992E+02  0.47000000000E+01 0.  1.
         -5    1    3    3    0  502  0.20684526767E+00  0.23008912120E+02  0.12280638684E+03  0.12503180183E+03  0.47000000000E+01 0.  1.
        -11    1    1    2    0    0 -0.77513931201E+02 -0.47075064151E+00  0.68440992570E+02  0.10340599886E+03  0.00000000000E+00 0. -1.
         11    1    1    2    0    0  0.21700083033E+02 -0.73447095476E+00 -0.33814133697E+01  0.21974235085E+02  0.00000000000E+00 0.  1.
<mgrwt>
<rscale>  0 0.12877563E+03</rscale>
<asrwt>0</asrwt>
<pdfrwt beam="1">  1        2 0.38445081E-01 0.13690131E+03</pdfrwt>
<pdfrwt beam="2">  1       -2 0.93004912E-02 0.13690131E+03</pdfrwt>
<totfact> 0.94083651E+03</totfact>
</mgrwt>
</event>
<event>
 7    1  0.5206756E-006  0.1445285E+03  0.7546771E-02  0.1217441E+00
          2   -1    0    0  501    0  0.00000000000E+00  0.00000000000E+00  0.67880285921E+03  0.67880285921E+03  0.00000000000E+00 0. -1.
         -2   -1    0    0    0  501 -0.00000000000E+00 -0.00000000000E+00 -0.25121877289E+02  0.25121877289E+02  0.00000000000E+00 0.  1.
         23    2    1    2    0    0  0.28080258789E+02  0.66905283195E+02  0.36158695271E+03  0.38940159823E+03  0.12499464979E+03 0.  0.
          5    1    3    3  502    0  0.27231884275E+00 -0.25432791812E+02  0.15620496437E+02  0.30215740365E+02  0.47000000000E+01 0.  1.
         -5    1    3    3    0  502  0.27807939946E+02  0.92338075007E+02  0.34596645627E+03  0.35918585786E+03  0.47000000000E+01 0.  1.
        -11    1    1    2    0    0  0.29636662126E+02 -0.36450909856E+02  0.16631230718E+03  0.17282009169E+03  0.00000000000E+00 0.  1.
         11    1    1    2    0    0 -0.57716920914E+02 -0.30454373339E+02  0.12578172203E+03  0.14170304659E+03  0.00000000000E+00 0. -1.
<mgrwt>
<rscale>  0 0.13698749E+03</rscale>
<asrwt>0</asrwt>
<pdfrwt beam="1">  1        2 0.10443120E+00 0.14452848E+03</pdfrwt>
<pdfrwt beam="2">  1       -2 0.38649047E-02 0.14452848E+03</pdfrwt>
<totfact> 0.12077166E+04</totfact>
</mgrwt>
</event>
<event>
 7    1  0.5206756E-006  0.1521790E+03  0.7546771E-02  0.1206651E+00
         -1   -1    0    0    0  501 -0.00000000000E+00  0.00000000000E+00  0.12449708976E+02  0.12449708976E+02  0.00000000000E+00 0.  1.
          1   -1    0    0  501    0  0.00000000000E+00 -0.00000000000E+00 -0.17471451813E+04  0.17471451813E+04  0.00000000000E+00 0. -1.
         23    2    1    2    0    0 -0.86429699710E+02 -0.79451275021E+01 -0.12344737715E+04  0.12438182883E+04  0.12500089535E+03 0.  0.
          5    1    3    3  502    0 -0.90649939968E+00 -0.42850566886E+02 -0.70572396324E+03  0.70703988226E+03  0.47000000000E+01 0. -1.
         -5    1    3    3    0  502 -0.85523200310E+02  0.34905439384E+02 -0.52874980824E+03  0.53677840606E+03  0.47000000000E+01 0. -1.
        -11    1    1    2    0    0 -0.40068965340E+01  0.18712109332E+02 -0.22896673867E+02  0.29840508200E+02  0.00000000000E+00 0.  1.
         11    1    1    2    0    0  0.90436596244E+02 -0.10766981829E+02 -0.47732502699E+03  0.48593609377E+03  0.00000000000E+00 0. -1.
<mgrwt>
<rscale>  0 0.14508116E+03</rscale>
<asrwt>0</asrwt>
<pdfrwt beam="2">  1        1 0.26879136E+00 0.15217898E+03</pdfrwt>
<pdfrwt beam="1">  1       -1 0.19153413E-02 0.15217898E+03</pdfrwt>
<totfact> 0.35734311E+03</totfact>
</mgrwt>
</event>
<event>
 7    1  0.5206756E-006  0.1162895E+03  0.7546771E-02  0.1259379E+00
         -2   -1    0    0    0  501 -0.00000000000E+00  0.00000000000E+00  0.21054245138E+03  0.21054245138E+03  0.00000000000E+00 0.  1.
          2   -1    0    0  501    0  0.00000000000E+00 -0.00000000000E+00 -0.66300645844E+02  0.66300645844E+02  0.00000000000E+00 0. -1.
         23    2    1    2    0    0 -0.74150778371E+01  0.21278677646E+02  0.16481424728E+02  0.11745159913E+03  0.11408538589E+03 0.  0.
          5    1    3    3  502    0 -0.62958946941E+01  0.53772541087E+02 -0.28804283043E+02  0.61505293972E+02  0.47000000000E+01 0. -1.
         -5    1    3    3    0  502 -0.11191831430E+01 -0.32493863441E+02  0.45285707770E+02  0.55946305155E+02  0.47000000000E+01 0.  1.
        -11    1    1    2    0    0 -0.99654866626E+00  0.36093425861E+02  0.61732276163E+02  0.71516448597E+02  0.00000000000E+00 0. -1.
         11    1    1    2    0    0  0.84116265033E+01 -0.57372103507E+02  0.66028104642E+02  0.87875049496E+02  0.00000000000E+00 0.  1.
<mgrwt>
<rscale>  0 0.11064545E+03</rscale>
<asrwt>0</asrwt>
<pdfrwt beam="2">  1        2 0.10200099E-01 0.11628947E+03</pdfrwt>
<pdfrwt beam="1">  1       -2 0.32391146E-01 0.11628947E+03</pdfrwt>
<totfact> 0.52129295E+03</totfact>
</mgrwt>
</event>
<event>
 7    1  0.5206756E-006  0.1414149E+03  0.7546771E-02  0.1223207E+00
         -2   -1    0    0    0  501 -0.00000000000E+00  0.00000000000E+00  0.19431901451E+02  0.19431901451E+02  0.00000000000E+00 0.  1.
          2   -1    0    0  501    0  0.00000000000E+00 -0.00000000000E+00 -0.81567728089E+03  0.81567728089E+03  0.00000000000E+00 0. -1.
         23    2    1    2    0    0  0.20145893866E+02 -0.62986656098E+02 -0.45561926201E+03  0.47706088958E+03  0.12500001828E+03 0.  0.
          5    1    3    3  502    0  0.39914158063E+00  0.15843164753E+02 -0.25365198415E+01  0.16723908523E+02  0.47000000000E+01 0. -1.
         -5    1    3    3    0  502  0.19746752285E+02 -0.78829820851E+02 -0.45308274217E+03  0.46033698106E+03  0.47000000000E+01 0. -1.
        -11    1    1    2    0    0  0.10050703599E+02  0.72554535532E+02 -0.28261086012E+03  0.29194875497E+03  0.00000000000E+00 0.  1.
         11    1    1    2    0    0 -0.30196597464E+02 -0.95678794334E+01 -0.58015257301E+02  0.66099537782E+02  0.00000000000E+00 0. -1.
<mgrwt>
<rscale>  0 0.13290569E+03</rscale>
<asrwt>0</asrwt>
<pdfrwt beam="2">  1        2 0.12548882E+00 0.14141492E+03</pdfrwt>
<pdfrwt beam="1">  1       -2 0.29895232E-02 0.14141492E+03</pdfrwt>
<totfact> 0.14102848E+04</totfact>
</mgrwt>
</event>
<event>
 6    1  0.5206756E-006  0.1493462E+03  0.7546771E-02  0.1238819E+00
          2   -1    0    0  501    0  0.00000000000E+00  0.00000000000E+00  0.53959678043E+03  0.53959678043E+03  0.00000000000E+00 0. -1.
         -2   -1    0    0    0  501 -0.00000000000E+00 -0.00000000000E+00 -0.57111892038E+02  0.57111892038E+02  0.00000000000E+00 0.  1.
          5    1    1    2  502    0 -0.78640071280E+02  0.70664693395E+02  0.31856958304E+03  0.33568799344E+03  0.47000000000E+01 0. -1.
         -5    1    1    2    0  502  0.35732454259E+02 -0.20188835292E+02  0.18529358981E+03  0.18984257105E+03  0.47000000000E+01 0.  1.
        -11    1    1    2    0    0  0.33695571957E+02 -0.46156416322E+02 -0.21345585630E+02  0.61003609426E+02  0.00000000000E+00 0.  1.
         11    1    1    2    0    0  0.92120450644E+01 -0.43194417815E+01 -0.32698825308E-01  0.10174498552E+02  0.00000000000E+00 0. -1.
<mgrwt>
<rscale>  0 0.12263088E+03</rscale>
<asrwt>0</asrwt>
<pdfrwt beam="1">  1        2 0.83014886E-01 0.14934617E+03</pdfrwt>
<pdfrwt beam="2">  1       -2 0.87864453E-02 0.14934617E+03</pdfrwt>
<totfact> 0.45213021E+03</totfact>
</mgrwt>
</event>
<event>
 7    1  0.5206756E-006  0.1256978E+03  0.7546771E-02  0.1249377E+00
         -1   -1    0    0    0  501 -0.00000000000E+00  0.00000000000E+00  0.13580284771E+03  0.13580284771E+03  0.00000000000E+00 0.  1.
          1   -1    0    0  501    0  0.00000000000E+00 -0.00000000000E+00 -0.13343286464E+03  0.13343286464E+03  0.00000000000E+00 0. -1.
         23    2    1    2    0    0  0.12468488048E+02 -0.44445050110E+01 -0.77256739674E+02  0.14754169507E+03  0.12499892456E+03 0.  0.
          5    1    3    3  502    0  0.16472749595E+00 -0.32674652613E+02  0.24508901013E+02  0.41114915632E+02  0.47000000000E+01 0. -1.
         -5    1    3    3    0  502  0.12303760552E+02  0.28230147602E+02 -0.10176564069E+03  0.10642677944E+03  0.47000000000E+01 0. -1.
        -11    1    1    2    0    0 -0.50500381924E+02  0.11539166688E+02  0.56354471899E+02  0.76545851915E+02  0.00000000000E+00 0. -1.
         11    1    1    2    0    0  0.38031893876E+02 -0.70946616774E+01  0.23272250851E+02  0.45148165365E+02  0.00000000000E+00 0.  1.
<mgrwt>
<rscale>  0 0.11627196E+03</rscale>
<asrwt>0</asrwt>
<pdfrwt beam="2">  1        1 0.20528133E-01 0.12569784E+03</pdfrwt>
<pdfrwt beam="1">  1       -1 0.20892746E-01 0.12569784E+03</pdfrwt>
<totfact> 0.44152815E+03</totfact>
</mgrwt>
</event>
<event>
 7    1  0.5206756E-006  0.2246863E+03  0.7546771E-02  0.1132457E+00
          1   -1    0    0  501    0  0.00000000000E+00  0.00000000000E+00  0.47215175674E+02  0.47215175674E+02  0.00000000000E+00 0. -1.
         -1   -1    0    0    0  501 -0.00000000000E+00 -0.00000000000E+00 -0.11707948255E+04  0.11707948255E+04  0.00000000000E+00 0.  1.
         23    2    1    2    0    0  0.18588772755E+03  0.47726648922E+02 -0.35409199196E+03  0.41936271731E+03  0.11684121544E+03 0.  0.
          5    1    3    3  502    0  0.11673490953E+03 -0.91217951777E+00 -0.10797413423E+03  0.15908606110E+03  0.47000000000E+01 0. -1.
         -5    1    3    3    0  502  0.69152818023E+02  0.48638828439E+02 -0.24611785773E+03  0.26027665621E+03  0.47000000000E+01 0.  1.
        -11    1    1    2    0    0 -0.29178020912E+02  0.27001934652E+02 -0.12386326143E+03  0.13008677454E+03  0.00000000000E+00 0. -1.
         11    1    1    2    0    0 -0.15670970664E+03 -0.74728583573E+02 -0.64562439646E+03  0.66856050935E+03  0.00000000000E+00 0.  1.
<mgrwt>
<rscale>  0 0.22192344E+03</rscale>
<asrwt>0</asrwt>
<pdfrwt beam="1">  1        1 0.72638736E-02 0.22468634E+03</pdfrwt>
<pdfrwt beam="2">  1       -1 0.18012227E+00 0.22468634E+03</pdfrwt>
<totfact> 0.22735549E+02</totfact>
</mgrwt>
</event>
<event>
 7    1  0.5206756E-006  0.1716946E+03  0.7546771E-02  0.1191415E+00
         -2   -1    0    0    0  501 -0.00000000000E+00  0.00000000000E+00  0.56705766205E+02  0.56705766205E+02  0.00000000000E+00 0.  1.
          2   -1    0    0  501    0  0.00000000000E+00 -0.00000000000E+00 -0.40026955633E+03  0.40026955633E+03  0.00000000000E+00 0. -1.
         23    2    1    2    0    0  0.11734353122E+03  0.92237706130E+01 -0.25000006393E+03  0.30328052020E+03  0.12499783880E+03 0.  0.
          5    1    3    3  502    0  0.37952731992E+02  0.42962828883E+02 -0.18891098939E+03  0.19747320437E+03  0.47000000000E+01 0.  1.
         -5    1    3    3    0  502  0.79390799231E+02 -0.33739058270E+02 -0.61089074536E+02  0.10580731583E+03  0.47000000000E+01 0.  1.
        -11    1    1    2    0    0 -0.32153760245E+02  0.14364090489E+01 -0.95493693050E+01  0.33572578438E+02  0.00000000000E+00 0.  1.
         11    1    1    2    0    0 -0.85189770978E+02 -0.10660179662E+02 -0.84014356889E+02  0.12012222389E+03  0.00000000000E+00 0. -1.
<mgrwt>
<rscale>  0 0.15761545E+03</rscale>
<asrwt>0</asrwt>
<pdfrwt beam="2">  1        2 0.61579931E-01 0.17169462E+03</pdfrwt>
<pdfrwt beam="1">  1       -2 0.87239641E-02 0.17169462E+03</pdfrwt>
<totfact> 0.63844399E+03</totfact>
</mgrwt>
</event>
<event>
 7    1  0.5206756E-006  0.1298040E+03  0.7546771E-02  0.1243701E+00
         -1   -1    0    0    0  501 -0.00000000000E+00  0.00000000000E+00  0.17575863010E+03  0.17575863010E+03  0.00000000000E+00 0.  1.
          1   -1    0    0  501    0  0.00000000000E+00 -0.00000000000E+00 -0.98893518750E+02  0.98893518750E+02  0.00000000000E+00 0. -1.
         23    2    1    2    0    0  0.31585336766E+02  0.15039337716E+02 -0.29306896608E+02  0.13307135390E+03  0.12500110344E+03 0.  0.
          5    1    3    3  502    0  0.61631626279E+02  0.38950079255E+02 -0.50639814943E+02  0.88893458079E+02  0.47000000000E+01 0. -1.
         -5    1    3    3    0  502 -0.30046289513E+02 -0.23910741538E+02  0.21332918334E+02  0.44177895820E+02  0.47000000000E+01 0. -1.
        -11    1    1    2    0    0  0.24161097761E+02  0.10760620847E+02  0.57208979665E+02  0.63027112898E+02  0.00000000000E+00 0. -1.
         11    1    1    2    0    0 -0.55746434527E+02 -0.25799958563E+02  0.48963028290E+02  0.78553682050E+02  0.00000000000E+00 0.  1.
<mgrwt>
<rscale>  0 0.11963476E+03</rscale>
<asrwt>0</asrwt>
<pdfrwt beam="2">  1        1 0.15214388E-01 0.12980405E+03</pdfrwt>
<pdfrwt beam="1">  1       -1 0.27039789E-01 0.12980405E+03</pdfrwt>
<totfact> 0.42604262E+03</totfact>
</mgrwt>
</event>
<event>
 7    1  0.5206756E-006  0.1336143E+03  0.7546771E-02  0.1233455E+00
         -2   -1    0    0    0  501 -0.00000000000E+00  0.00000000000E+00  0.12468514146E+03  0.12468514146E+03  0.00000000000E+00 0. -1.
          2   -1    0    0  501    0  0.00000000000E+00 -0.00000000000E+00 -0.20994787198E+03  0.20994787198E+03  0.00000000000E+00 0.  1.
         23    2    1    2    0    0  0.46136393346E+02  0.99693562780E+01 -0.15749225167E+03  0.20653473599E+03  0.12499933191E+03 0.  0.
          5    1    3    3  502    0 -0.31321679204E+02 -0.32304462859E+02 -0.54224201143E+02  0.70618552084E+02  0.47000000000E+01 0.  1.
         -5    1    3    3    0  502  0.77458072550E+02  0.42273819137E+02 -0.10326805053E+03  0.13591618391E+03  0.47000000000E+01 0.  1.
        -11    1    1    2    0    0  0.10359320638E+02  0.52499786903E+00 -0.18204693756E+02  0.20952375083E+02  0.00000000000E+00 0.  1.
         11    1    1    2    0    0 -0.56495713984E+02 -0.10494354147E+02  0.90434214914E+02  0.10714590237E+03  0.00000000000E+00 0. -1.
<mgrwt>
<rscale>  0 0.12603859E+03</rscale>
<asrwt>0</asrwt>
<pdfrwt beam="2">  1        2 0.32299672E-01 0.13361432E+03</pdfrwt>
<pdfrwt beam="1">  1       -2 0.19182330E-01 0.13361432E+03</pdfrwt>
<totfact> 0.35127716E+03</totfact>
</mgrwt>
</event>
<event>
 7    1  0.5206756E-006  0.1357595E+03  0.7546771E-02  0.1231289E+00
          1   -1    0    0  501    0  0.00000000000E+00  0.00000000000E+00  0.46233143007E+03  0.46233143007E+03  0.00000000000E+00 0. -1.
         -1   -1    0    0    0  501 -0.00000000000E+00 -0.00000000000E+00 -0.32999060261E+02  0.32999060261E+02  0.00000000000E+00 0.  1.
         23    2    1    2    0    0  0.38707567257E+02  0.36176956245E+02  0.29344060693E+03  0.32332342281E+03  0.12499439195E+03 0.  0.
          5    1    3    3  502    0  0.80420525761E+02  0.45522857568E+02  0.20880596706E+03  0.22838960880E+03  0.47000000000E+01 0. -1.
         -5    1    3    3    0  502 -0.41712958505E+02 -0.93459013222E+01  0.84634639865E+02  0.94933814017E+02  0.47000000000E+01 0. -1.
        -11    1    1    2    0    0 -0.63920990554E+01 -0.19054841978E+02 -0.93966704003E+01  0.22186557817E+02  0.00000000000E+00 0.  1.
         11    1    1    2    0    0 -0.32315468201E+02 -0.17122114267E+02  0.14528843328E+03  0.14982050970E+03  0.00000000000E+00 0. -1.
<mgrwt>
<rscale>  0 0.12745008E+03</rscale>
<asrwt>0</asrwt>
<pdfrwt beam="1">  1        1 0.71127908E-01 0.13575952E+03</pdfrwt>
<pdfrwt beam="2">  1       -1 0.50767788E-02 0.13575952E+03</pdfrwt>
<totfact> 0.82288406E+03</totfact>
</mgrwt>
</event>
<event>
 6    1  0.5206756E-006  0.1525041E+03  0.7546771E-02  0.1240171E+00
         -2   -1    0    0    0  501 -0.00000000000E+00  0.00000000000E+00  0.26069251389E+02  0.26069251389E+02  0.00000000000E+00 0.  1.
          2   -1    0    0  501    0  0.00000000000E+00 -0.00000000000E+00 -0.83007877930E+03  0.83007877930E+03  0.00000000000E+00 0. -1.
          5    1    1    2  502    0 -0.67119033550E+02  0.11760907320E+02 -0.30449308125E+03  0.31205994638E+03  0.47000000000E+01 0. -1.
         -5    1    1    2    0  502  0.82837589046E+02  0.69206367310E+01 -0.46639245616E+03  0.47376573803E+03  0.47000000000E+01 0.  1.
        -11    1    1    2    0    0 -0.17498554281E+02 -0.37081927938E+02 -0.13042770462E+02  0.43027696230E+02  0.00000000000E+00 0. -1.
         11    1    1    2    0    0  0.17799987844E+01  0.18400383887E+02 -0.20081220043E+02  0.27294650049E+02  0.00000000000E+00 0.  1.
<mgrwt>
<rscale>  0 0.12179121E+03</rscale>
<asrwt>0</asrwt>
<pdfrwt beam="2">  1        2 0.12770442E+00 0.15250408E+03</pdfrwt>
<pdfrwt beam="1">  1       -2 0.40106542E-02 0.15250408E+03</pdfrwt>
<totfact> 0.89698278E+03</totfact>
</mgrwt>
</event>
<event>
 7    1  0.5206756E-006  0.1663485E+03  0.7546771E-02  0.1190827E+00
         -2   -1    0    0    0  501 -0.00000000000E+00  0.00000000000E+00  0.16859045268E+03  0.16859045268E+03  0.00000000000E+00 0.  1.
          2   -1    0    0  501    0  0.00000000000E+00 -0.00000000000E+00 -0.15546589957E+03  0.15546589957E+03  0.00000000000E+00 0. -1.
         23    2    1    2    0    0 -0.10929180686E+03  0.10102699313E+02 -0.50813331900E+02  0.17393620029E+03  0.12500017398E+03 0.  0.
          5    1    3    3  502    0 -0.14299228472E+02 -0.49095353984E+02 -0.10706114711E+01  0.51362028062E+02  0.47000000000E+01 0. -1.
         -5    1    3    3    0  502 -0.94992578384E+02  0.59198053297E+02 -0.49742720429E+02  0.12257417223E+03  0.47000000000E+01 0. -1.
        -11    1    1    2    0    0  0.91416899143E+02  0.22544220832E+02  0.62227566576E+02  0.11286080535E+03  0.00000000000E+00 0.  1.
         11    1    1    2    0    0  0.17874907713E+02 -0.32646920146E+02  0.17103184398E+01  0.37259346612E+02  0.00000000000E+00 0. -1.
<mgrwt>
<rscale>  0 0.15812763E+03</rscale>
<asrwt>0</asrwt>
<pdfrwt beam="2">  1        2 0.23917831E-01 0.16634845E+03</pdfrwt>
<pdfrwt beam="1">  1       -2 0.25936993E-01 0.16634845E+03</pdfrwt>
<totfact> 0.29348018E+03</totfact>
</mgrwt>
</event>
<event>
 7    1  0.5206756E-006  0.1288816E+03  0.7546771E-02  0.1244047E+00
         -3   -1    0    0    0  501 -0.00000000000E+00  0.00000000000E+00  0.38629872416E+02  0.38629872416E+02  0.00000000000E+00 0.  1.
          3   -1    0    0  501    0  0.00000000000E+00 -0.00000000000E+00 -0.32446569656E+03  0.32446569656E+03  0.00000000000E+00 0. -1.
         23    2    1    2    0    0  0.14242238170E+02  0.27992418155E+02 -0.16293573621E+03  0.20774630296E+03  0.12499622169E+03 0.  0.
          5    1    3    3  502    0 -0.75140677722E+01 -0.34619692671E+02 -0.12754908548E+03  0.13246072453E+03  0.47000000000E+01 0. -1.
         -5    1    3    3    0  502  0.21756305942E+02  0.62612110825E+02 -0.35386650733E+02  0.75285578435E+02  0.47000000000E+01 0. -1.
        -11    1    1    2    0    0  0.34955326041E+02 -0.29430380234E+02 -0.62863325366E+02  0.77716277416E+02  0.00000000000E+00 0. -1.
         11    1    1    2    0    0 -0.49197564211E+02  0.14379620798E+01 -0.60036762559E+02  0.77632988593E+02  0.00000000000E+00 0.  1.
<mgrwt>
<rscale>  0 0.11942575E+03</rscale>
<asrwt>0</asrwt>
<pdfrwt beam="2">  1        3 0.49917802E-01 0.12888162E+03</pdfrwt>
<pdfrwt beam="1">  1       -3 0.59430570E-02 0.12888162E+03</pdfrwt>
<totfact> 0.15790757E+03</totfact>
</mgrwt>
</event>
<event>
 6    1  0.5206756E-006  0.1501220E+03  0.7546771E-02  0.1210827E+00
         -1   -1    0    0    0  501 -0.00000000000E+00  0.00000000000E+00  0.25269264726E+03  0.25269264726E+03  0.00000000000E+00 0.  1.
          1   -1    0    0  501    0  0.00000000000E+00 -0.00000000000E+00 -0.72272281004E+02  0.72272281004E+02  0.00000000000E+00 0. -1.
          5    1    1    2  502    0 -0.17382719878E+01  0.32149590762E+02 -0.26256762815E+02  0.41810589199E+02  0.47000000000E+01 0. -1.
         -5    1    1    2    0  502 -0.27121360798E+02  0.39851979722E+02  0.13537595665E+03  0.14377930358E+03  0.47000000000E+01 0.  1.
        -11    1    1    2    0    0 -0.27697140234E+02 -0.40136173634E+02  0.52800207848E+02  0.71874237108E+02  0.00000000000E+00 0.  1.
         11    1    1    2    0    0  0.56556773021E+02 -0.31865396850E+02  0.18500964568E+02  0.67500798372E+02  0.00000000000E+00 0. -1.
<mgrwt>
<rscale>  0 0.14187560E+03</rscale>
<asrwt>0</asrwt>
<pdfrwt beam="2">  1        1 0.11118813E-01 0.15012198E+03</pdfrwt>
<pdfrwt beam="1">  1       -1 0.38875791E-01 0.15012198E+03</pdfrwt>
<totfact> 0.34915300E+03</totfact>
</mgrwt>
</event>
<event>
 7    1  0.5206756E-006  0.1363083E+03  0.7546771E-02  0.1230789E+00
          1   -1    0    0  501    0  0.00000000000E+00  0.00000000000E+00  0.88057056845E+03  0.88057056845E+03  0.00000000000E+00 0. -1.
         -1   -1    0    0    0  501 -0.00000000000E+00 -0.00000000000E+00 -0.18212155160E+02  0.18212155160E+02  0.00000000000E+00 0.  1.
         23    2    1    2    0    0 -0.48955682405E+02 -0.23561255243E+02  0.61561647768E+03  0.63052645319E+03  0.12501267537E+03 0.  0.
          5    1    3    3  502    0  0.29945968857E+02 -0.19234011110E+02  0.65053522011E+02  0.74301809939E+02  0.47000000000E+01 0. -1.
         -5    1    3    3    0  502 -0.78901651262E+02 -0.43272441338E+01  0.55056295566E+03  0.55622464325E+03  0.47000000000E+01 0. -1.
        -11    1    1    2    0    0  0.14022222757E+02  0.68712435150E+00 -0.35696645189E+01  0.14485764588E+02  0.00000000000E+00 0.  1.
         11    1    1    2    0    0  0.34933459648E+02  0.22874130892E+02  0.25031160013E+03  0.25377050583E+03  0.00000000000E+00 0. -1.
<mgrwt>
<rscale>  0 0.12777871E+03</rscale>
<asrwt>0</asrwt>
<pdfrwt beam="1">  1        1 0.13547236E+00 0.13630833E+03</pdfrwt>
<pdfrwt beam="2">  1       -1 0.28018707E-02 0.13630833E+03</pdfrwt>
<totfact> 0.79792042E+03</totfact>
</mgrwt>
</event>
<event>
 7    1  0.5206756E-006  0.1344174E+03  0.7546771E-02  0.1231898E+00
          2   -1    0    0  501    0  0.00000000000E+00  0.00000000000E+00  0.43958314544E+03  0.43958314544E+03  0.00000000000E+00 0. -1.
         -2   -1    0    0    0  501 -0.00000000000E+00 -0.00000000000E+00 -0.45954568146E+02  0.45954568146E+02  0.00000000000E+00 0.  1.
         23    2    1    2    0    0 -0.29332517572E+02  0.39789668219E+02  0.33997351903E+03  0.36558178780E+03  0.12499774258E+03 0.  0.
          5    1    3    3  502    0  0.50803628859E+01 -0.26334733720E+02  0.23597578881E+03  0.23754155677E+03  0.47000000000E+01 0.  1.
         -5    1    3    3    0  502 -0.34412880458E+02  0.66124401939E+02  0.10399773022E+03  0.12804023104E+03  0.47000000000E+01 0.  1.
        -11    1    1    2    0    0  0.22276794754E+02 -0.54807456020E+02 -0.46419347760E+01  0.59343579083E+02  0.00000000000E+00 0.  1.
         11    1    1    2    0    0  0.70557228171E+01  0.15017787800E+02  0.58296993043E+02  0.60612346702E+02  0.00000000000E+00 0. -1.
<mgrwt>
<rscale>  0 0.12705120E+03</rscale>
<asrwt>0</asrwt>
<pdfrwt beam="1">  1        2 0.67628173E-01 0.13441745E+03</pdfrwt>
<pdfrwt beam="2">  1       -2 0.70699339E-02 0.13441745E+03</pdfrwt>
<totfact> 0.78728610E+03</totfact>
</mgrwt>
</event>
<event>
 7    1  0.5206756E-006  0.1255596E+03  0.7546771E-02  0.1250901E+00
         -1   -1    0    0    0  501 -0.00000000000E+00  0.00000000000E+00  0.62194595706E+02  0.62194595706E+02  0.00000000000E+00 0.  1.
          1   -1    0    0  501    0  0.00000000000E+00 -0.00000000000E+00 -0.21484668611E+03  0.21484668611E+03  0.00000000000E+00 0. -1.
         23    2    1    2    0    0 -0.28834690099E+01  0.11408286125E+02 -0.13750344336E+03  0.18620532030E+03  0.12500704374E+03 0.  0.
          5    1    3    3  502    0  0.31289691434E+02  0.53765572961E+02 -0.10641190930E+03  0.12335058195E+03  0.47000000000E+01 0. -1.
         -5    1    3    3    0  502 -0.34173160444E+02 -0.42357286836E+02 -0.31091534055E+02  0.62854738347E+02  0.47000000000E+01 0. -1.
        -11    1    1    2    0    0  0.31085845812E+02 -0.15964292225E+01  0.25610970306E+02  0.40308810403E+02  0.00000000000E+00 0.  1.
         11    1    1    2    0    0 -0.28202376802E+02 -0.98118569027E+01 -0.40759617354E+02  0.50527151117E+02  0.00000000000E+00 0. -1.
<mgrwt>
<rscale>  0 0.11539070E+03</rscale>
<asrwt>0</asrwt>
<pdfrwt beam="2">  1        1 0.33053336E-01 0.12555964E+03</pdfrwt>
<pdfrwt beam="1">  1       -1 0.95683994E-02 0.12555964E+03</pdfrwt>
<totfact> 0.82268737E+03</totfact>
</mgrwt>
</event>
<event>
 7    1  0.5206756E-006  0.1308375E+03  0.7546771E-02  0.1238915E+00
         -2   -1    0    0    0  501 -0.00000000000E+00  0.00000000000E+00  0.88775592185E+01  0.88775592185E+01  0.00000000000E+00 0.  1.
          2   -1    0    0  501    0  0.00000000000E+00 -0.00000000000E+00 -0.16703549489E+04  0.16703549489E+04  0.00000000000E+00 0. -1.
         23    2    1    2    0    0 -0.16925649211E+02 -0.34800002512E+02 -0.11858653474E+04  0.11930612182E+04  0.12498372020E+03 0.  0.
          5    1    3    3  502    0  0.43608030444E+02 -0.50797123173E+02 -0.68361551368E+03  0.68690193520E+03  0.47000000000E+01 0. -1.
         -5    1    3    3    0  502 -0.60533679655E+02  0.15997120661E+02 -0.50224983373E+03  0.50615928296E+03  0.47000000000E+01 0. -1.
        -11    1    1    2    0    0  0.40076522309E+02  0.56285755037E+02 -0.31644315398E+03  0.32389887860E+03  0.00000000000E+00 0.  1.
         11    1    1    2    0    0 -0.23150873098E+02 -0.21485752525E+02 -0.15916888833E+03  0.16227241139E+03  0.00000000000E+00 0. -1.
<mgrwt>
<rscale>  0 0.12257106E+03</rscale>
<asrwt>0</asrwt>
<pdfrwt beam="2">  1        2 0.25697768E+00 0.13083749E+03</pdfrwt>
<pdfrwt beam="1">  1       -2 0.13657784E-02 0.13083749E+03</pdfrwt>
<totfact> 0.14542202E+04</totfact>
</mgrwt>
</event>
<event>
 7    1  0.5206756E-006  0.1383866E+03  0.7546771E-02  0.1227163E+00
          3   -1    0    0  501    0  0.00000000000E+00  0.00000000000E+00  0.43033668472E+03  0.43033668472E+03  0.00000000000E+00 0. -1.
         -3   -1    0    0    0  501 -0.00000000000E+00 -0.00000000000E+00 -0.38369576966E+02  0.38369576966E+02  0.00000000000E+00 0.  1.
         23    2    1    2    0    0  0.26191897374E+02  0.53292356945E+02  0.28280503888E+03  0.31484844290E+03  0.12499904474E+03 0.  0.
          5    1    3    3  502    0 -0.16322459561E+02  0.33914488876E+02  0.25980672011E+03  0.26256092066E+03  0.47000000000E+01 0.  1.
         -5    1    3    3    0  502  0.42514356934E+02  0.19377868069E+02  0.22998318771E+02  0.52287522247E+02  0.47000000000E+01 0.  1.
        -11    1    1    2    0    0  0.32790185824E+02 -0.11314164501E+02  0.24520461165E+02  0.42478931489E+02  0.00000000000E+00 0.  1.
         11    1    1    2    0    0 -0.58982083197E+02 -0.41978192444E+02  0.84641607711E+02  0.11137888730E+03  0.00000000000E+00 0. -1.
<mgrwt>
<rscale>  0 0.13019742E+03</rscale>
<asrwt>0</asrwt>
<pdfrwt beam="1">  1        3 0.66205640E-01 0.13838660E+03</pdfrwt>
<pdfrwt beam="2">  1       -3 0.59030121E-02 0.13838660E+03</pdfrwt>
<totfact> 0.90719626E+02</totfact>
</mgrwt>
</event>
<event>
 7    1  0.5206756E-006  0.1795894E+03  0.7546771E-02  0.1174328E+00
          2   -1    0    0  501    0  0.00000000000E+00  0.00000000000E+00  0.18087708975E+03  0.18087708975E+03  0.00000000000E+00 0.  1.
         -2   -1    0    0    0  501 -0.00000000000E+00 -0.00000000000E+00 -0.16471146836E+03  0.16471146836E+03  0.00000000000E+00 0. -1.
         23    2    1    2    0    0  0.95598267227E+02 -0.86535699411E+02 -0.31482178176E+02  0.18232798445E+03  0.12499964161E+03 0.  0.
          5    1    3    3  502    0  0.87102199219E+01 -0.13884480334E+02 -0.62516009678E+02  0.64799600240E+02  0.47000000000E+01 0. -1.
         -5    1    3    3    0  502  0.86888047306E+02 -0.72651219077E+02  0.31033831502E+02  0.11752838421E+03  0.47000000000E+01 0. -1.
        -11    1    1    2    0    0 -0.82727126146E+02  0.37042385522E+02  0.62390260173E+02  0.11003844914E+03  0.00000000000E+00 0.  1.
         11    1    1    2    0    0 -0.12871141082E+02  0.49493313890E+02 -0.14742460605E+02  0.53222124509E+02  0.00000000000E+00 0. -1.
<mgrwt>
<rscale>  0 0.17341955E+03</rscale>
<asrwt>0</asrwt>
<pdfrwt beam="1">  1        2 0.27827245E-01 0.17958944E+03</pdfrwt>
<pdfrwt beam="2">  1       -2 0.25340226E-01 0.17958944E+03</pdfrwt>
<totfact> 0.25944300E+03</totfact>
</mgrwt>
</event>
<event>
 7    1  0.5206756E-006  0.1449627E+03  0.7546771E-02  0.1217012E+00
         -1   -1    0    0    0  501 -0.00000000000E+00  0.00000000000E+00  0.52082203689E+02  0.52082203689E+02  0.00000000000E+00 0.  1.
          1   -1    0    0  501    0  0.00000000000E+00 -0.00000000000E+00 -0.33463298636E+03  0.33463298636E+03  0.00000000000E+00 0. -1.
         23    2    1    2    0    0 -0.34727070298E+02 -0.64679769390E+02 -0.18226214333E+03  0.23288127069E+03  0.12499902147E+03 0.  0.
          5    1    3    3  502    0 -0.22614014342E+02 -0.89134688387E+02 -0.18334498836E+03  0.20516788510E+03  0.47000000000E+01 0. -1.
         -5    1    3    3    0  502 -0.12113055957E+02  0.24454918997E+02  0.10828450334E+01  0.27713385595E+02  0.47000000000E+01 0. -1.
        -11    1    1    2    0    0  0.74770374584E+01 -0.74609365854E+01  0.13024495171E+02  0.16769291527E+02  0.00000000000E+00 0.  1.
         11    1    1    2    0    0  0.27250032840E+02  0.72140705975E+02 -0.11331313451E+03  0.13706462783E+03  0.00000000000E+00 0. -1.
<mgrwt>
<rscale>  0 0.13729757E+03</rscale>
<asrwt>0</asrwt>
<pdfrwt beam="2">  1        1 0.51481997E-01 0.14496274E+03</pdfrwt>
<pdfrwt beam="1">  1       -1 0.80126468E-02 0.14496274E+03</pdfrwt>
<totfact> 0.62813119E+03</totfact>
</mgrwt>
</event>
<event>
 7    1  0.5206756E-006  0.1307024E+03  0.7546771E-02  0.1240719E+00
         -1   -1    0    0    0  501 -0.00000000000E+00  0.00000000000E+00  0.85539144041E+02  0.85539144041E+02  0.00000000000E+00 0.  1.
          1   -1    0    0  501    0  0.00000000000E+00 -0.00000000000E+00 -0.18758615466E+03  0.18758615466E+03  0.00000000000E+00 0. -1.
         23    2    1    2    0    0  0.23139891950E+02 -0.30432108234E+02 -0.11590889990E+03  0.17469398622E+03  0.12498619097E+03 0.  0.
          5    1    3    3  502    0  0.14692388183E+02  0.32663580729E+02  0.64421875539E+01  0.36692881558E+02  0.47000000000E+01 0.  1.
         -5    1    3    3    0  502  0.84475037665E+01 -0.63095688963E+02 -0.12235108746E+03  0.13800110466E+03  0.47000000000E+01 0.  1.
        -11    1    1    2    0    0  0.30228279190E+02  0.74440427625E+00  0.21190366318E+02  0.36923361510E+02  0.00000000000E+00 0.  1.
         11    1    1    2    0    0 -0.53368171140E+02  0.29687703958E+02 -0.73284770345E+01  0.61507950972E+02  0.00000000000E+00 0. -1.
<mgrwt>
<rscale>  0 0.12145307E+03</rscale>
<asrwt>0</asrwt>
<pdfrwt beam="2">  1        1 0.28859408E-01 0.13070239E+03</pdfrwt>
<pdfrwt beam="1">  1       -1 0.13159869E-01 0.13070239E+03</pdfrwt>
<totfact> 0.59867319E+03</totfact>
</mgrwt>
</event>
<event>
 7    1  0.5206756E-006  0.1304101E+03  0.7546771E-02  0.1240230E+00
         -1   -1    0    0    0  501 -0.00000000000E+00  0.00000000000E+00  0.87081660234E+02  0.87081660234E+02  0.00000000000E+00 0.  1.
          1   -1    0    0  501    0  0.00000000000E+00 -0.00000000000E+00 -0.17722206457E+03  0.17722206457E+03  0.00000000000E+00 0. -1.
         23    2    1    2    0    0 -0.32686933572E+02  0.17786574262E+02 -0.10054978031E+03  0.16467258388E+03  0.12498801427E+03 0.  0.
          5    1    3    3  502    0 -0.61070828797E+02 -0.26735929094E+02 -0.22885272445E+02  0.70641926144E+02  0.47000000000E+01 0.  1.
         -5    1    3    3    0  502  0.28383895226E+02  0.44522503356E+02 -0.77664507860E+02  0.94030657737E+02  0.47000000000E+01 0.  1.
        -11    1    1    2    0    0  0.13954086270E+02  0.36576486970E+02  0.15056704913E+02  0.41943536875E+02  0.00000000000E+00 0.  1.
         11    1    1    2    0    0  0.18732847301E+02 -0.54363061232E+02 -0.46473289443E+01  0.57687604048E+02  0.00000000000E+00 0. -1.
<mgrwt>
<rscale>  0 0.12175489E+03</rscale>
<asrwt>0</asrwt>
<pdfrwt beam="2">  1        1 0.27264932E-01 0.13041013E+03</pdfrwt>
<pdfrwt beam="1">  1       -1 0.13397179E-01 0.13041013E+03</pdfrwt>
<totfact> 0.62492260E+03</totfact>
</mgrwt>
</event>
<event>
 7    1  0.5206756E-006  0.1578837E+03  0.7546771E-02  0.1200219E+00
          2   -1    0    0  501    0  0.00000000000E+00  0.00000000000E+00  0.34469348664E+03  0.34469348664E+03  0.00000000000E+00 0. -1.
         -2   -1    0    0    0  501 -0.00000000000E+00 -0.00000000000E+00 -0.60690217834E+02  0.60690217834E+02  0.00000000000E+00 0.  1.
         23    2    1    2    0    0  0.43574557554E+02  0.82298534554E+02  0.17984104332E+03  0.23931167699E+03  0.12749700790E+03 0.  0.
          5    1    3    3  502    0 -0.14006554607E+02  0.96501256466E+02  0.12295214519E+03  0.15699680276E+03  0.47000000000E+01 0. -1.
         -5    1    3    3    0  502  0.57581112161E+02 -0.14202721912E+02  0.56888898133E+02  0.82314874222E+02  0.47000000000E+01 0.  1.
        -11    1    1    2    0    0 -0.57786773081E+01  0.86773037046E+01 -0.10571338389E+02  0.14847286161E+02  0.00000000000E+00 0. -1.
         11    1    1    2    0    0 -0.37795880246E+02 -0.90975838259E+02  0.11473356387E+03  0.15122474132E+03  0.00000000000E+00 0.  1.
<mgrwt>
<rscale>  0 0.15020713E+03</rscale>
<asrwt>0</asrwt>
<pdfrwt beam="1">  1        2 0.53029766E-01 0.15788375E+03</pdfrwt>
<pdfrwt beam="2">  1       -2 0.93369568E-02 0.15788375E+03</pdfrwt>
<totfact> 0.67059606E+03</totfact>
</mgrwt>
</event>
<event>
 7    1  0.5206756E-006  0.1439734E+03  0.7546771E-02  0.1217668E+00
         -3   -1    0    0    0  501 -0.00000000000E+00  0.00000000000E+00  0.19360589281E+02  0.19360589281E+02  0.00000000000E+00 0.  1.
          3   -1    0    0  501    0  0.00000000000E+00 -0.00000000000E+00 -0.90447095239E+03  0.90447095239E+03  0.00000000000E+00 0. -1.
         23    2    1    2    0    0  0.17708208250E+02  0.69210736534E+02 -0.41458815666E+03  0.43887547917E+03  0.12499855951E+03 0.  0.
          5    1    3    3  502    0  0.46423888484E+02  0.90125061082E+02 -0.23878229137E+03  0.25945476817E+03  0.47000000000E+01 0. -1.
         -5    1    3    3    0  502 -0.28715680233E+02 -0.20914324548E+02 -0.17580586529E+03  0.17942071099E+03  0.47000000000E+01 0. -1.
        -11    1    1    2    0    0 -0.95083899827E+01 -0.77048642084E+02 -0.46650796399E+03  0.47292344327E+03  0.00000000000E+00 0. -1.
         11    1    1    2    0    0 -0.81998182677E+01  0.78379055496E+01 -0.40142424521E+01  0.12032619228E+02  0.00000000000E+00 0.  1.
<mgrwt>
<rscale>  0 0.13682396E+03</rscale>
<asrwt>0</asrwt>
<pdfrwt beam="2">  1        3 0.13914939E+00 0.14397342E+03</pdfrwt>
<pdfrwt beam="1">  1       -3 0.29785519E-02 0.14397342E+03</pdfrwt>
<totfact> 0.50054765E+02</totfact>
</mgrwt>
</event>
<event>
 7    1  0.5206756E-006  0.1292366E+03  0.7546771E-02  0.1242667E+00
          2   -1    0    0  501    0  0.00000000000E+00  0.00000000000E+00  0.23909381294E+03  0.23909381294E+03  0.00000000000E+00 0. -1.
         -2   -1    0    0    0  501 -0.00000000000E+00 -0.00000000000E+00 -0.53568241318E+02  0.53568241318E+02  0.00000000000E+00 0.  1.
         23    2    1    2    0    0  0.14390246137E+02 -0.29499907757E+02  0.11212301388E+03  0.17109552679E+03  0.12499914121E+03 0.  0.
          5    1    3    3  502    0 -0.45174428653E+02 -0.45301557349E+02  0.76212255775E+02  0.99616053087E+02  0.47000000000E+01 0. -1.
         -5    1    3    3    0  502  0.59564674790E+02  0.15801649592E+02  0.35910758106E+02  0.71479473700E+02  0.47000000000E+01 0. -1.
        -11    1    1    2    0    0 -0.40245625004E+02 -0.65171492295E+01  0.64561844725E+02  0.76357156576E+02  0.00000000000E+00 0. -1.
         11    1    1    2    0    0  0.25855378867E+02  0.36017056987E+02  0.88407130203E+01  0.45209370899E+02  0.00000000000E+00 0.  1.
<mgrwt>
<rscale>  0 0.12026112E+03</rscale>
<asrwt>0</asrwt>
<pdfrwt beam="1">  1        2 0.36783663E-01 0.12923664E+03</pdfrwt>
<pdfrwt beam="2">  1       -2 0.82412681E-02 0.12923664E+03</pdfrwt>
<totfact> 0.11847174E+04</totfact>
</mgrwt>
</event>
<event>
 7    1  0.5206756E-006  0.2294096E+03  0.7546771E-02  0.1130062E+00
          1   -1    0    0  501    0  0.00000000000E+00  0.00000000000E+00  0.19393234537E+03  0.19393234537E+03  0.00000000000E+00 0.  1.
         -1   -1    0    0    0  501 -0.00000000000E+00 -0.00000000000E+00 -0.28540127207E+03  0.28540127207E+03  0.00000000000E+00 0. -1.
         23    2    1    2    0    0  0.17989554224E+03  0.68139336032E+02  0.34265539216E+02  0.23195452897E+03  0.12499360424E+03 0.  0.
          5    1    3    3  502    0 -0.17974155806E+02 -0.28731047008E+01  0.62847002580E+01  0.19822019698E+02  0.47000000000E+01 0.  1.
         -5    1    3    3    0  502  0.19786969804E+03  0.71012440733E+02  0.27980838958E+02  0.21213250927E+03  0.47000000000E+01 0.  1.
        -11    1    1    2    0    0 -0.16819784148E+03 -0.40991707187E+02 -0.75016293467E+02  0.18867505989E+03  0.00000000000E+00 0.  1.
         11    1    1    2    0    0 -0.11697700754E+02 -0.27147628845E+02 -0.50718172445E+02  0.58704028576E+02  0.00000000000E+00 0. -1.
<mgrwt>
<rscale>  0 0.22520367E+03</rscale>
<asrwt>0</asrwt>
<pdfrwt beam="1">  1        1 0.29835745E-01 0.22940963E+03</pdfrwt>
<pdfrwt beam="2">  1       -1 0.43907888E-01 0.22940963E+03</pdfrwt>
<totfact> 0.79667916E+02</totfact>
</mgrwt>
</event>
<event>
 6    1  0.5206756E-006  0.2520668E+03  0.7546771E-02  0.1146050E+00
          2   -1    0    0  501    0  0.00000000000E+00  0.00000000000E+00  0.74926579742E+03  0.74926579742E+03  0.00000000000E+00 0. -1.
         -2   -1    0    0    0  501 -0.00000000000E+00 -0.00000000000E+00 -0.62865414380E+02  0.62865414380E+02  0.00000000000E+00 0.  1.
          5    1    1    2  502    0  0.43129375968E+02  0.65352076163E+02  0.46297579889E+03  0.46957397424E+03  0.47000000000E+01 0. -1.
         -5    1    1    2    0  502 -0.39824933457E+02 -0.12333014600E+03  0.18700946318E+03  0.22757631589E+03  0.47000000000E+01 0.  1.
        -11    1    1    2    0    0 -0.24025080678E+02  0.70932464435E+02  0.46927550490E+02  0.88378809719E+02  0.00000000000E+00 0.  1.
         11    1    1    2    0    0  0.20720638167E+02 -0.12954394599E+02 -0.10512429519E+02  0.26602111944E+02  0.00000000000E+00 0. -1.
<mgrwt>
<rscale>  0 0.20443501E+03</rscale>
<asrwt>0</asrwt>
<pdfrwt beam="1">  1        2 0.11527165E+00 0.25206683E+03</pdfrwt>
<pdfrwt beam="2">  1       -2 0.96716027E-02 0.25206683E+03</pdfrwt>
<totfact> 0.26890309E+03</totfact>
</mgrwt>
</event>
<event>
 7    1  0.5206756E-006  0.1198934E+03  0.7546771E-02  0.1252861E+00
         -2   -1    0    0    0  501 -0.00000000000E+00  0.00000000000E+00  0.30583076497E+02  0.30583076497E+02  0.00000000000E+00 0.  1.
          2   -1    0    0  501    0  0.00000000000E+00 -0.00000000000E+00 -0.39897433952E+03  0.39897433952E+03  0.00000000000E+00 0. -1.
         23    2    1    2    0    0 -0.44160249177E+02  0.38721206882E+01 -0.23090528859E+03  0.26017626318E+03  0.11139710363E+03 0.  0.
          5    1    3    3  502    0  0.31942431351E+02 -0.19913441172E+02 -0.53124116372E+02  0.65277299272E+02  0.47000000000E+01 0. -1.
         -5    1    3    3    0  502 -0.76102680529E+02  0.23785561860E+02 -0.17778117222E+03  0.19489896390E+03  0.47000000000E+01 0.  1.
        -11    1    1    2    0    0  0.12052559650E+02  0.36621074112E+02 -0.94848037652E+02  0.10238416630E+03  0.00000000000E+00 0.  1.
         11    1    1    2    0    0  0.32107689528E+02 -0.40493194800E+02 -0.42637936784E+02  0.66996986537E+02  0.00000000000E+00 0. -1.
<mgrwt>
<rscale>  0 0.11426967E+03</rscale>
<asrwt>0</asrwt>
<pdfrwt beam="2">  1        2 0.61380670E-01 0.11989343E+03</pdfrwt>
<pdfrwt beam="1">  1       -2 0.47050885E-02 0.11989343E+03</pdfrwt>
<totfact> 0.16016956E+04</totfact>
</mgrwt>
</event>
<event>
 7    1  0.5206756E-006  0.1349687E+03  0.7546771E-02  0.1232171E+00
         -1   -1    0    0    0  501 -0.00000000000E+00  0.00000000000E+00  0.18379854421E+03  0.18379854421E+03  0.00000000000E+00 0.  1.
          1   -1    0    0  501    0  0.00000000000E+00 -0.00000000000E+00 -0.95860639731E+02  0.95860639731E+02  0.00000000000E+00 0. -1.
         23    2    1    2    0    0  0.29893028264E+02  0.41216442302E+02 -0.10598493397E+02  0.13538419769E+03  0.12499665862E+03 0.  0.
          5    1    3    3  502    0 -0.30344974196E+02 -0.13615366229E+02 -0.36669178248E+02  0.49728405262E+02  0.47000000000E+01 0. -1.
         -5    1    3    3    0  502  0.60238002460E+02  0.54831808531E+02  0.26070684851E+02  0.85655792424E+02  0.47000000000E+01 0. -1.
        -11    1    1    2    0    0  0.29243892874E+02 -0.19530457314E+02  0.11825314093E+02  0.37100971506E+02  0.00000000000E+00 0. -1.
         11    1    1    2    0    0 -0.59136921138E+02 -0.21685984988E+02  0.86711083784E+02  0.10717401475E+03  0.00000000000E+00 0.  1.
<mgrwt>
<rscale>  0 0.12687288E+03</rscale>
<asrwt>0</asrwt>
<pdfrwt beam="2">  1        1 0.14747791E-01 0.13496871E+03</pdfrwt>
<pdfrwt beam="1">  1       -1 0.28276699E-01 0.13496871E+03</pdfrwt>
<totfact> 0.41275612E+03</totfact>
</mgrwt>
</event>
<event>
 7    1  0.5206756E-006  0.4101775E+03  0.7546771E-02  0.1040311E+00
         -1   -1    0    0    0  501 -0.00000000000E+00  0.00000000000E+00  0.12445438898E+03  0.12445438898E+03  0.00000000000E+00 0.  1.
          1   -1    0    0  501    0  0.00000000000E+00 -0.00000000000E+00 -0.33796640283E+03  0.33796640283E+03  0.00000000000E+00 0. -1.
         23    2    1    2    0    0  0.67195069368E+01  0.89167691375E+02 -0.23189800190E+03  0.27820121170E+03  0.12499280759E+03 0.  0.
          5    1    3    3  502    0  0.64507638348E+02  0.31854168323E+02 -0.10487010367E+03  0.12726253214E+03  0.47000000000E+01 0.  1.
         -5    1    3    3    0  502 -0.57788131411E+02  0.57313523052E+02 -0.12702789824E+03  0.15093867956E+03  0.47000000000E+01 0.  1.
        -11    1    1    2    0    0 -0.66213279270E+02 -0.13156352165E+02 -0.32698015189E+02  0.75009653720E+02  0.00000000000E+00 0. -1.
         11    1    1    2    0    0  0.59493772333E+02 -0.76011339210E+02  0.51084003237E+02  0.10920992639E+03  0.00000000000E+00 0.  1.
<mgrwt>
<rscale>  0 0.41017753E+03</rscale>
<asrwt>0</asrwt>
<pdfrwt beam="2">  1        1 0.51994831E-01 0.41017753E+03</pdfrwt>
<pdfrwt beam="1">  1       -1 0.19146829E-01 0.41017753E+03</pdfrwt>
<totfact> 0.16379812E+03</totfact>
</mgrwt>
</event>
<event>
 7    1  0.5206756E-006  0.1311710E+03  0.7546771E-02  0.1242429E+00
          1   -1    0    0  501    0  0.00000000000E+00  0.00000000000E+00  0.25798831820E+03  0.25798831820E+03  0.00000000000E+00 0. -1.
         -1   -1    0    0    0  501 -0.00000000000E+00 -0.00000000000E+00 -0.49966224067E+02  0.49966224067E+02  0.00000000000E+00 0.  1.
         23    2    1    2    0    0  0.39846022337E+02 -0.32725539478E+00  0.14488539569E+03  0.19544208952E+03  0.12497207640E+03 0.  0.
          5    1    3    3  502    0 -0.40284352402E+02 -0.60647753038E+00  0.88487523540E+02  0.97341300000E+02  0.47000000000E+01 0. -1.
         -5    1    3    3    0  502  0.80130374739E+02  0.27922213560E+00  0.56397872148E+02  0.98100789516E+02  0.47000000000E+01 0. -1.
        -11    1    1    2    0    0 -0.46353173147E+02  0.34810380143E+02  0.37242910630E+02  0.68901477623E+02  0.00000000000E+00 0. -1.
         11    1    1    2    0    0  0.65071508097E+01 -0.34483124749E+02  0.25893787813E+02  0.43610975126E+02  0.00000000000E+00 0.  1.
<mgrwt>
<rscale>  0 0.12040606E+03</rscale>
<asrwt>0</asrwt>
<pdfrwt beam="1">  1        1 0.39690510E-01 0.13117100E+03</pdfrwt>
<pdfrwt beam="2">  1       -1 0.76871116E-02 0.13117100E+03</pdfrwt>
<totfact> 0.91664623E+03</totfact>
</mgrwt>
</event>
<event>
 7    1  0.5206756E-006  0.1336784E+03  0.7546771E-02  0.1236769E+00
          1   -1    0    0  501    0  0.00000000000E+00  0.00000000000E+00  0.56926064224E+03  0.56926064224E+03  0.00000000000E+00 0. -1.
         -1   -1    0    0    0  501 -0.00000000000E+00 -0.00000000000E+00 -0.28379105915E+02  0.28379105915E+02  0.00000000000E+00 0.  1.
         23    2    1    2    0    0 -0.45926569801E+02 -0.11570418980E+02  0.42441568002E+03  0.44497033178E+03  0.12500720901E+03 0.  0.
          5    1    3    3  502    0 -0.20626534561E+02 -0.67260508825E+02  0.19003545384E+03  0.20269433562E+03  0.47000000000E+01 0.  1.
         -5    1    3    3    0  502 -0.25300035240E+02  0.55690089845E+02  0.23438022618E+03  0.24227599616E+03  0.47000000000E+01 0.  1.
        -11    1    1    2    0    0  0.36080021625E+02 -0.12092285858E+02  0.51003632756E+01  0.38392773321E+02  0.00000000000E+00 0.  1.
         11    1    1    2    0    0  0.98465481760E+01  0.23662704838E+02  0.11136549302E+03  0.11427664305E+03  0.00000000000E+00 0. -1.
<mgrwt>
<rscale>  0 0.12391854E+03</rscale>
<asrwt>0</asrwt>
<pdfrwt beam="1">  1        1 0.87578552E-01 0.13367845E+03</pdfrwt>
<pdfrwt beam="2">  1       -1 0.43660167E-02 0.13367845E+03</pdfrwt>
<totfact> 0.78178211E+03</totfact>
</mgrwt>
</event>
<event>
 7    1  0.5206756E-006  0.1357982E+03  0.7546771E-02  0.1229814E+00
          2   -1    0    0  501    0  0.00000000000E+00  0.00000000000E+00  0.50913594549E+03  0.50913594549E+03  0.00000000000E+00 0. -1.
         -2   -1    0    0    0  501 -0.00000000000E+00 -0.00000000000E+00 -0.37975444854E+02  0.37975444854E+02  0.00000000000E+00 0.  1.
         23    2    1    2    0    0  0.19238748607E+02  0.49448078134E+02  0.38569232067E+03  0.40890062171E+03  0.12500364126E+03 0.  0.
          5    1    3    3  502    0 -0.30241845685E+02  0.64825805979E+02  0.13486086212E+03  0.15273014268E+03  0.47000000000E+01 0. -1.
         -5    1    3    3    0  502  0.49480594291E+02 -0.15377727845E+02  0.25083145856E+03  0.25617047903E+03  0.47000000000E+01 0. -1.
        -11    1    1    2    0    0 -0.32367545623E+02 -0.65415233189E+02  0.91152819609E+02  0.11677177427E+03  0.00000000000E+00 0. -1.
         11    1    1    2    0    0  0.13128797017E+02  0.15967155055E+02 -0.56846396463E+01  0.21438994369E+02  0.00000000000E+00 0.  1.
<mgrwt>
<rscale>  0 0.12842330E+03</rscale>
<asrwt>0</asrwt>
<pdfrwt beam="1">  1        2 0.78328602E-01 0.13579820E+03</pdfrwt>
<pdfrwt beam="2">  1       -2 0.58423765E-02 0.13579820E+03</pdfrwt>
<totfact> 0.89748958E+03</totfact>
</mgrwt>
</event>
<event>
 6    1  0.5206756E-006  0.3223640E+03  0.7546771E-02  0.1117404E+00
          2   -1    0    0  501    0  0.00000000000E+00  0.00000000000E+00  0.13392003305E+04  0.13392003305E+04  0.00000000000E+00 0. -1.
         -2   -1    0    0    0  501 -0.00000000000E+00 -0.00000000000E+00 -0.41886827783E+02  0.41886827783E+02  0.00000000000E+00 0.  1.
          5    1    1    2  502    0  0.21672347641E+02  0.15591120377E+03  0.75395560032E+03  0.77022667532E+03  0.47000000000E+01 0. -1.
         -5    1    1    2    0  502 -0.70591301366E+02 -0.13686786391E+03  0.42741223985E+03  0.45433386048E+03  0.47000000000E+01 0.  1.
        -11    1    1    2    0    0  0.24554812068E+02  0.34665221831E+02  0.69510635170E+02  0.81463763735E+02  0.00000000000E+00 0. -1.
         11    1    1    2    0    0  0.24364141658E+02 -0.53708561696E+02  0.46435027389E+02  0.75062858771E+02  0.00000000000E+00 0.  1.
<mgrwt>
<rscale>  0 0.24362141E+03</rscale>
<asrwt>0</asrwt>
<pdfrwt beam="1">  1        2 0.20603079E+00 0.32236397E+03</pdfrwt>
<pdfrwt beam="2">  1       -2 0.64441284E-02 0.32236397E+03</pdfrwt>
<totfact> 0.22108301E+03</totfact>
</mgrwt>
</event>
<event>
 7    1  0.5206756E-006  0.1232817E+03  0.7546771E-02  0.1270901E+00
          2   -1    0    0  501    0  0.00000000000E+00  0.00000000000E+00  0.50959024271E+03  0.50959024271E+03  0.00000000000E+00 0. -1.
         -2   -1    0    0    0  501 -0.00000000000E+00 -0.00000000000E+00 -0.27580703862E+02  0.27580703862E+02  0.00000000000E+00 0.  1.
         23    2    1    2    0    0 -0.19841777600E+02  0.12286891668E+02  0.44826440909E+03  0.46490789109E+03  0.12105247992E+03 0.  0.
          5    1    3    3  502    0  0.32287256295E+02 -0.35953395160E+02  0.23861802984E+03  0.24350722312E+03  0.47000000000E+01 0. -1.
         -5    1    3    3    0  502 -0.52129033894E+02  0.48240286828E+02  0.20964637924E+03  0.22140066797E+03  0.47000000000E+01 0.  1.
        -11    1    1    2    0    0 -0.14005476048E+02 -0.51108442218E+01  0.34576152725E+02  0.37653478262E+02  0.00000000000E+00 0. -1.
         11    1    1    2    0    0  0.33847253647E+02 -0.71760474466E+01 -0.83102296497E+00  0.34609577223E+02  0.00000000000E+00 0.  1.
<mgrwt>
<rscale>  0 0.10460420E+03</rscale>
<asrwt>0</asrwt>
<pdfrwt beam="1">  1        2 0.78398492E-01 0.12328166E+03</pdfrwt>
<pdfrwt beam="2">  1       -2 0.42431856E-02 0.12328166E+03</pdfrwt>
<totfact> 0.14381505E+04</totfact>
</mgrwt>
</event>
<event>
 7    1  0.5206756E-006  0.1657781E+03  0.7546771E-02  0.1189470E+00
         -2   -1    0    0    0  501 -0.00000000000E+00  0.00000000000E+00  0.88307067786E+03  0.88307067786E+03  0.00000000000E+00 0.  1.
          2   -1    0    0  501    0  0.00000000000E+00 -0.00000000000E+00 -0.28745153830E+02  0.28745153830E+02  0.00000000000E+00 0. -1.
         23    2    1    2    0    0  0.80463651403E+02  0.73333858939E+02  0.33782777136E+03  0.37631102077E+03  0.12502050707E+03 0.  0.
          5    1    3    3  502    0  0.32562478867E+02 -0.30980395065E+02  0.14474702596E+03  0.15163736820E+03  0.47000000000E+01 0. -1.
         -5    1    3    3    0  502  0.47901172536E+02  0.10431425400E+03  0.19308074539E+03  0.22467365257E+03  0.47000000000E+01 0. -1.
        -11    1    1    2    0    0 -0.44674276256E+02  0.11944606284E+02  0.22440839457E+03  0.22912353029E+03  0.00000000000E+00 0.  1.
         11    1    1    2    0    0 -0.35789375146E+02 -0.85278465223E+02  0.29208935810E+03  0.30638128063E+03  0.00000000000E+00 0. -1.
<mgrwt>
<rscale>  0 0.15931690E+03</rscale>
<asrwt>0</asrwt>
<pdfrwt beam="2">  1        2 0.44223320E-02 0.16577811E+03</pdfrwt>
<pdfrwt beam="1">  1       -2 0.13585701E+00 0.16577811E+03</pdfrwt>
<totfact> 0.74296839E+02</totfact>
</mgrwt>
</event>
<event>
 7    1  0.5206756E-006  0.1252645E+03  0.7546771E-02  0.1249564E+00
          1   -1    0    0  501    0  0.00000000000E+00  0.00000000000E+00  0.16557374064E+03  0.16557374064E+03  0.00000000000E+00 0. -1.
         -1   -1    0    0    0  501 -0.00000000000E+00 -0.00000000000E+00 -0.75738057541E+02  0.75738057541E+02  0.00000000000E+00 0.  1.
         23    2    1    2    0    0  0.48084148596E+00 -0.81405699047E+01  0.78873452307E+02  0.14802776502E+03  0.12499879060E+03 0.  0.
          5    1    3    3  502    0 -0.34339403749E+02 -0.44401387400E+02  0.79620889860E+02  0.97530784653E+02  0.47000000000E+01 0. -1.
         -5    1    3    3    0  502  0.34820245235E+02  0.36260817496E+02 -0.74743755289E+00  0.50496980371E+02  0.47000000000E+01 0. -1.
        -11    1    1    2    0    0 -0.39042054588E+02 -0.41520609027E+01  0.29161651518E+02  0.48907295524E+02  0.00000000000E+00 0.  1.
         11    1    1    2    0    0  0.38561213102E+02  0.12292630807E+02 -0.18199420728E+02  0.44376737632E+02  0.00000000000E+00 0. -1.
<mgrwt>
<rscale>  0 0.11616304E+03</rscale>
<asrwt>0</asrwt>
<pdfrwt beam="1">  1        1 0.25472883E-01 0.12526451E+03</pdfrwt>
<pdfrwt beam="2">  1       -1 0.11652009E-01 0.12526451E+03</pdfrwt>
<totfact> 0.84150459E+03</totfact>
</mgrwt>
</event>
<event>
 7    1  0.5206756E-006  0.1609860E+03  0.7546771E-02  0.1194977E+00
          1   -1    0    0  501    0  0.00000000000E+00  0.00000000000E+00  0.43510038964E+02  0.43510038964E+02  0.00000000000E+00 0. -1.
         -1   -1    0    0    0  501 -0.00000000000E+00 -0.00000000000E+00 -0.53383355010E+03  0.53383355010E+03  0.00000000000E+00 0.  1.
         23    2    1    2    0    0 -0.10045903529E+03 -0.14190841723E+02 -0.20270114732E+03  0.25885178479E+03  0.12499237419E+03 0.  0.
          5    1    3    3  502    0 -0.11308962854E+03 -0.24394005548E+02 -0.21049461601E+03  0.24023822543E+03  0.47000000000E+01 0.  1.
         -5    1    3    3    0  502  0.12630593250E+02  0.10203163825E+02  0.77934686896E+01  0.18613559362E+02  0.47000000000E+01 0.  1.
        -11    1    1    2    0    0  0.48908624647E+02 -0.24002009999E+02 -0.21405245302E+03  0.22087689488E+03  0.00000000000E+00 0.  1.
         11    1    1    2    0    0  0.51550410644E+02  0.38192851722E+02 -0.73569910799E+02  0.97614909390E+02  0.00000000000E+00 0. -1.
<mgrwt>
<rscale>  0 0.15456155E+03</rscale>
<asrwt>0</asrwt>
<pdfrwt beam="1">  1        1 0.66938517E-02 0.16098600E+03</pdfrwt>
<pdfrwt beam="2">  1       -1 0.82128244E-01 0.16098600E+03</pdfrwt>
<totfact> 0.16831123E+03</totfact>
</mgrwt>
</event>
<event>
 7    1  0.5206756E-006  0.1661958E+03  0.7546771E-02  0.1188844E+00
          2   -1    0    0  501    0  0.00000000000E+00  0.00000000000E+00  0.34018239500E+03  0.34018239500E+03  0.00000000000E+00 0. -1.
         -2   -1    0    0    0  501 -0.00000000000E+00 -0.00000000000E+00 -0.71056248493E+02  0.71056248493E+02  0.00000000000E+00 0.  1.
         23    2    1    2    0    0 -0.92154602891E+02 -0.59185327101E+02  0.17051688835E+03  0.23811144416E+03  0.12500270737E+03 0.  0.
          5    1    3    3  502    0 -0.22649178941E+02 -0.54186241070E+02  0.15602794630E+03  0.16678112619E+03  0.47000000000E+01 0. -1.
         -5    1    3    3    0  502 -0.69505423950E+02 -0.49990860313E+01  0.14488942055E+02  0.71330317969E+02  0.47000000000E+01 0. -1.
        -11    1    1    2    0    0 -0.81222955247E+01 -0.77467247494E+01  0.35118334210E+02  0.36868425877E+02  0.00000000000E+00 0. -1.
         11    1    1    2    0    0  0.10027689842E+03  0.66932051850E+02  0.63490923944E+02  0.13625877346E+03  0.00000000000E+00 0.  1.
<mgrwt>
<rscale>  0 0.15986970E+03</rscale>
<asrwt>0</asrwt>
<pdfrwt beam="1">  1        2 0.52335752E-01 0.16619582E+03</pdfrwt>
<pdfrwt beam="2">  1       -2 0.10931731E-01 0.16619582E+03</pdfrwt>
<totfact> 0.53168715E+03</totfact>
</mgrwt>
</event>
<event>
 7    1  0.5206756E-006  0.1636469E+03  0.7546771E-02  0.1185359E+00
          2   -1    0    0  501    0  0.00000000000E+00  0.00000000000E+00  0.12552717308E+03  0.12552717308E+03  0.00000000000E+00 0. -1.
         -2   -1    0    0    0  501 -0.00000000000E+00 -0.00000000000E+00 -0.32133686645E+03  0.32133686645E+03  0.00000000000E+00 0.  1.
         23    2    1    2    0    0  0.80682268020E+02 -0.61621384408E+02  0.34144796219E+02  0.16462413540E+03  0.12501366109E+03 0.  0.
          5    1    3    3  502    0  0.10394107262E+03 -0.39051614322E+02 -0.78016689035E+01  0.11140794943E+03  0.47000000000E+01 0. -1.
         -5    1    3    3    0  502 -0.23258804600E+02 -0.22569770086E+02  0.41946465122E+02  0.53216185972E+02  0.47000000000E+01 0. -1.
        -11    1    1    2    0    0 -0.81093626739E+02  0.30348924966E+02 -0.50826260793E+02  0.10040190402E+03  0.00000000000E+00 0.  1.
         11    1    1    2    0    0  0.41135871927E+00  0.31272459442E+02 -0.17912822879E+03  0.18183800011E+03  0.00000000000E+00 0. -1.
<mgrwt>
<rscale>  0 0.16299228E+03</rscale>
<asrwt>0</asrwt>
<pdfrwt beam="1">  1        2 0.19311872E-01 0.16364686E+03</pdfrwt>
<pdfrwt beam="2">  1       -2 0.49436442E-01 0.16364686E+03</pdfrwt>
<totfact> 0.11211104E+03</totfact>
</mgrwt>
</event>
<event>
 7    1  0.5206756E-006  0.1281588E+03  0.7546771E-02  0.1244748E+00
         -2   -1    0    0    0  501 -0.00000000000E+00  0.00000000000E+00  0.26579720470E+02  0.26579720470E+02  0.00000000000E+00 0.  1.
          2   -1    0    0  501    0  0.00000000000E+00 -0.00000000000E+00 -0.59156296255E+03  0.59156296255E+03  0.00000000000E+00 0. -1.
         23    2    1    2    0    0  0.28225357769E+02  0.15993183100E+01 -0.45461787186E+03  0.47233683770E+03  0.12500180078E+03 0.  0.
          5    1    3    3  502    0  0.68647947328E+02  0.95829026402E+01 -0.38567567412E+03  0.39188287575E+03  0.47000000000E+01 0. -1.
         -5    1    3    3    0  502 -0.40422589559E+02 -0.79835843302E+01 -0.68942197736E+02  0.80453961954E+02  0.47000000000E+01 0. -1.
        -11    1    1    2    0    0  0.13805204332E+02  0.58063935192E+01  0.10060012269E+02  0.18041666198E+02  0.00000000000E+00 0.  1.
         11    1    1    2    0    0 -0.42030562101E+02 -0.74057118292E+01 -0.12042538250E+03  0.12776417912E+03  0.00000000000E+00 0. -1.
<mgrwt>
<rscale>  0 0.11900496E+03</rscale>
<asrwt>0</asrwt>
<pdfrwt beam="2">  1        2 0.91009686E-01 0.12815880E+03</pdfrwt>
<pdfrwt beam="1">  1       -2 0.40891878E-02 0.12815880E+03</pdfrwt>
<totfact> 0.12907809E+04</totfact>
</mgrwt>
</event>
<event>
 7    1  0.5206756E-006  0.1504641E+03  0.7546771E-02  0.1209018E+00
         -2   -1    0    0    0  501 -0.00000000000E+00  0.00000000000E+00  0.38385592709E+02  0.38385592709E+02  0.00000000000E+00 0.  1.
          2   -1    0    0  501    0  0.00000000000E+00 -0.00000000000E+00 -0.50717955717E+03  0.50717955717E+03  0.00000000000E+00 0. -1.
         23    2    1    2    0    0 -0.55391604944E+02 -0.62811534322E+02 -0.30753475417E+03  0.34236979961E+03  0.12500374363E+03 0.  0.
          5    1    3    3  502    0 -0.96107792535E+01  0.29770291314E+02 -0.21568417994E+02  0.38287386664E+02  0.47000000000E+01 0. -1.
         -5    1    3    3    0  502 -0.45780825691E+02 -0.92581825635E+02 -0.28596633618E+03  0.30408241295E+03  0.47000000000E+01 0. -1.
        -11    1    1    2    0    0  0.70452182970E+02  0.34644266045E+02 -0.65484163892E+02  0.10223458796E+03  0.00000000000E+00 0.  1.
         11    1    1    2    0    0 -0.15060578026E+02  0.28167268276E+02 -0.95775046398E+02  0.10096076231E+03  0.00000000000E+00 0. -1.
<mgrwt>
<rscale>  0 0.14325300E+03</rscale>
<asrwt>0</asrwt>
<pdfrwt beam="2">  1        2 0.78027621E-01 0.15046413E+03</pdfrwt>
<pdfrwt beam="1">  1       -2 0.59054760E-02 0.15046413E+03</pdfrwt>
<totfact> 0.89260805E+03</totfact>
</mgrwt>
</event>
<event>
 7    1  0.5206756E-006  0.2459223E+03  0.7546771E-02  0.1118561E+00
          2   -1    0    0  501    0  0.00000000000E+00  0.00000000000E+00  0.12699422889E+04  0.12699422889E+04  0.00000000000E+00 0. -1.
         -2   -1    0    0    0  501 -0.00000000000E+00 -0.00000000000E+00 -0.58176626527E+02  0.58176626527E+02  0.00000000000E+00 0.  1.
         23    2    1    2    0    0 -0.21151823626E+03 -0.10567037838E+02  0.94199324542E+03  0.97356512330E+03  0.12500459322E+03 0.  0.
          5    1    3    3  502    0 -0.53471521332E+02  0.50376150622E+02  0.35766106583E+03  0.36515816868E+03  0.47000000000E+01 0.  1.
         -5    1    3    3    0  502 -0.15804671493E+03 -0.60943188460E+02  0.58433217959E+03  0.60840695461E+03  0.47000000000E+01 0.  1.
        -11    1    1    2    0    0  0.40871205456E+02 -0.15308560336E+02  0.13698294984E+02  0.45743313614E+02  0.00000000000E+00 0.  1.
         11    1    1    2    0    0  0.17064703080E+03  0.25875598174E+02  0.25607412201E+03  0.30881047856E+03  0.00000000000E+00 0. -1.
<mgrwt>
<rscale>  0 0.24185910E+03</rscale>
<asrwt>0</asrwt>
<pdfrwt beam="1">  1        2 0.19537572E+00 0.24592229E+03</pdfrwt>
<pdfrwt beam="2">  1       -2 0.89502512E-02 0.24592229E+03</pdfrwt>
<totfact> 0.14464891E+03</totfact>
</mgrwt>
</event>
<event>
 7    1  0.5206756E-006  0.1415830E+03  0.7546771E-02  0.1223283E+00
         -4   -1    0    0    0  501 -0.00000000000E+00  0.00000000000E+00  0.19956310227E+02  0.19956310227E+02  0.00000000000E+00 0.  1.
          4   -1    0    0  501    0  0.00000000000E+00 -0.00000000000E+00 -0.83481038797E+03  0.83481038797E+03  0.00000000000E+00 0. -1.
         23    2    1    2    0    0 -0.50527289535E+02 -0.43214615697E+02 -0.55304021682E+03  0.57087584483E+03  0.12500095518E+03 0.  0.
          5    1    3    3  502    0  0.36577419278E+02 -0.94959141824E+01 -0.27273796144E+03  0.27538366981E+03  0.47000000000E+01 0. -1.
         -5    1    3    3    0  502 -0.87104708813E+02 -0.33718701514E+02 -0.28030225538E+03  0.29549217502E+03  0.47000000000E+01 0. -1.
        -11    1    1    2    0    0  0.24697893324E+02 -0.24338822884E+02 -0.57407787788E+02  0.67067267223E+02  0.00000000000E+00 0.  1.
         11    1    1    2    0    0  0.25829396210E+02  0.67553438581E+02 -0.20440607314E+03  0.21682358614E+03  0.00000000000E+00 0. -1.
<mgrwt>
<rscale>  0 0.13285275E+03</rscale>
<asrwt>0</asrwt>
<pdfrwt beam="2">  1        4 0.12843231E+00 0.14158301E+03</pdfrwt>
<pdfrwt beam="1">  1       -4 0.30702029E-02 0.14158301E+03</pdfrwt>
<totfact> 0.41056470E+02</totfact>
</mgrwt>
</event>
<event>
 6    1  0.5206756E-006  0.1329213E+03  0.7546771E-02  0.1239872E+00
          2   -1    0    0  501    0  0.00000000000E+00  0.00000000000E+00  0.22756922001E+03  0.22756922001E+03  0.00000000000E+00 0. -1.
         -2   -1    0    0    0  501 -0.00000000000E+00 -0.00000000000E+00 -0.61422576247E+02  0.61422576247E+02  0.00000000000E+00 0.  1.
          5    1    1    2  502    0  0.20398030185E+02  0.43697692574E+02  0.12184989074E+03  0.13112991209E+03  0.47000000000E+01 0. -1.
         -5    1    1    2    0  502 -0.41871595436E+02 -0.38613157958E+02  0.13811704071E+02  0.58796765568E+02  0.47000000000E+01 0.  1.
        -11    1    1    2    0    0  0.46859198124E+02 -0.38106323808E+01 -0.12927657656E+02  0.48758893553E+02  0.00000000000E+00 0. -1.
         11    1    1    2    0    0 -0.25385632873E+02 -0.12739022349E+01  0.43412706607E+02  0.50306225044E+02  0.00000000000E+00 0.  1.
<mgrwt>
<rscale>  0 0.12197630E+03</rscale>
<asrwt>0</asrwt>
<pdfrwt beam="1">  1        2 0.35010649E-01 0.13292131E+03</pdfrwt>
<pdfrwt beam="2">  1       -2 0.94496273E-02 0.13292131E+03</pdfrwt>
<totfact> 0.10119845E+04</totfact>
</mgrwt>
</event>
<event>
 7    1  0.5206756E-006  0.1352399E+03  0.7546771E-02  0.1233902E+00
         -2   -1    0    0    0  501 -0.00000000000E+00  0.00000000000E+00  0.36912511655E+03  0.36912511655E+03  0.00000000000E+00 0.  1.
          2   -1    0    0  501    0  0.00000000000E+00 -0.00000000000E+00 -0.39885386654E+02  0.39885386654E+02  0.00000000000E+00 0. -1.
         23    2    1    2    0    0  0.20944857191E+02 -0.47187638109E+02  0.14119146821E+03  0.19551180024E+03  0.12499789241E+03 0.  0.
          5    1    3    3  502    0  0.54197421675E+02  0.20084150657E+02  0.78620206077E+02  0.97693195400E+02  0.47000000000E+01 0.  1.
         -5    1    3    3    0  502 -0.33252564484E+02 -0.67271788766E+02  0.62571262133E+02  0.97818604843E+02  0.47000000000E+01 0.  1.
        -11    1    1    2    0    0  0.19357671815E+02  0.55166573751E+02  0.12824365552E+03  0.14094149672E+03  0.00000000000E+00 0. -1.
         11    1    1    2    0    0 -0.40302529006E+02 -0.79789356422E+01  0.59804606169E+02  0.72557206240E+02  0.00000000000E+00 0.  1.
<mgrwt>
<rscale>  0 0.12574989E+03</rscale>
<asrwt>0</asrwt>
<pdfrwt beam="2">  1        2 0.61362136E-02 0.13523991E+03</pdfrwt>
<pdfrwt beam="1">  1       -2 0.56788477E-01 0.13523991E+03</pdfrwt>
<totfact> 0.33945688E+03</totfact>
</mgrwt>
</event>
<event>
 6    1  0.5206756E-006  0.1856414E+03  0.7546771E-02  0.1187645E+00
         -1   -1    0    0    0  501 -0.00000000000E+00  0.00000000000E+00  0.43786363165E+02  0.43786363165E+02  0.00000000000E+00 0.  1.
          1   -1    0    0  501    0  0.00000000000E+00 -0.00000000000E+00 -0.69344422701E+03  0.69344422701E+03  0.00000000000E+00 0. -1.
          5    1    1    2  502    0  0.47907202384E+02 -0.61396077515E+02 -0.29784810799E+03  0.30789635238E+03  0.47000000000E+01 0. -1.
         -5    1    1    2    0  502 -0.10714210093E+02  0.10468380282E+03 -0.28783977918E+03  0.30650827289E+03  0.47000000000E+01 0.  1.
        -11    1    1    2    0    0 -0.33641825524E+02 -0.28196358307E+02  0.11826092180E+02  0.45460570857E+02  0.00000000000E+00 0.  1.
         11    1    1    2    0    0 -0.35511667666E+01 -0.15091366993E+02 -0.75796068851E+02  0.77365394049E+02  0.00000000000E+00 0. -1.
<mgrwt>
<rscale>  0 0.16093516E+03</rscale>
<asrwt>0</asrwt>
<pdfrwt beam="2">  1        1 0.10668372E+00 0.18564143E+03</pdfrwt>
<pdfrwt beam="1">  1       -1 0.67363641E-02 0.18564143E+03</pdfrwt>
<totfact> 0.31623396E+03</totfact>
</mgrwt>
</event>
<event>
 7    1  0.5206756E-006  0.2161867E+03  0.7546771E-02  0.1140298E+00
          2   -1    0    0  501    0  0.00000000000E+00  0.00000000000E+00  0.20158164444E+04  0.20158164444E+04  0.00000000000E+00 0. -1.
         -2   -1    0    0    0  501 -0.00000000000E+00 -0.00000000000E+00 -0.25795458583E+02  0.25795458583E+02  0.00000000000E+00 0.  1.
         23    2    1    2    0    0  0.15280984639E+03  0.88130515474E+02  0.14549953923E+04  0.14709684780E+04  0.12497533672E+03 0.  0.
          5    1    3    3  502    0  0.13406820001E+03  0.19255561881E+02  0.11357229805E+04  0.11437805023E+04  0.47000000000E+01 0.  1.
         -5    1    3    3    0  502  0.18741646383E+02  0.68874953593E+02  0.31927241183E+03  0.32718797578E+03  0.47000000000E+01 0.  1.
        -11    1    1    2    0    0 -0.14428387025E+03 -0.93853877551E+02  0.53309664271E+03  0.56019498036E+03  0.00000000000E+00 0. -1.
         11    1    1    2    0    0 -0.85259761411E+01  0.57233620772E+01  0.19289507472E+01  0.10448444555E+02  0.00000000000E+00 0.  1.
<mgrwt>
<rscale>  0 0.21160857E+03</rscale>
<asrwt>0</asrwt>
<pdfrwt beam="1">  1        2 0.31012548E+00 0.21618666E+03</pdfrwt>
<pdfrwt beam="2">  1       -2 0.39685337E-02 0.21618666E+03</pdfrwt>
<totfact> 0.20336323E+03</totfact>
</mgrwt>
</event>
<event>
 7    1  0.5206756E-006  0.1313783E+03  0.7546771E-02  0.1236911E+00
         -2   -1    0    0    0  501 -0.00000000000E+00  0.00000000000E+00  0.27984046538E+02  0.27984046538E+02  0.00000000000E+00 0.  1.
          2   -1    0    0  501    0  0.00000000000E+00 -0.00000000000E+00 -0.62089226980E+03  0.62089226980E+03  0.00000000000E+00 0. -1.
         23    2    1    2    0    0 -0.16791725115E+02 -0.36779806989E+02 -0.47029151324E+03  0.48829741506E+03  0.12500216757E+03 0.  0.
          5    1    3    3  502    0  0.17417043050E+02 -0.74387737754E+02 -0.22242422083E+03  0.23522651409E+03  0.47000000000E+01 0.  1.
         -5    1    3    3    0  502 -0.34208768165E+02  0.37607930765E+02 -0.24786729241E+03  0.25307090098E+03  0.47000000000E+01 0.  1.
        -11    1    1    2    0    0 -0.26805279627E+02 -0.17548984355E+02 -0.54072434349E+02  0.62851555464E+02  0.00000000000E+00 0. -1.
         11    1    1    2    0    0  0.43597004742E+02  0.54328791344E+02 -0.68544275670E+02  0.97727345807E+02  0.00000000000E+00 0.  1.
<mgrwt>
<rscale>  0 0.12382903E+03</rscale>
<asrwt>0</asrwt>
<pdfrwt beam="2">  1        2 0.95521878E-01 0.13137830E+03</pdfrwt>
<pdfrwt beam="1">  1       -2 0.43052383E-02 0.13137830E+03</pdfrwt>
<totfact> 0.11335792E+04</totfact>
</mgrwt>
</event>
<event>
 7    1  0.5206756E-006  0.1910979E+03  0.7546771E-02  0.1160638E+00
          3   -1    0    0  501    0  0.00000000000E+00  0.00000000000E+00  0.34720387166E+03  0.34720387166E+03  0.00000000000E+00 0. -1.
         -3   -1    0    0    0  501 -0.00000000000E+00 -0.00000000000E+00 -0.10361643147E+03  0.10361643147E+03  0.00000000000E+00 0.  1.
         23    2    1    2    0    0  0.71815625924E+02 -0.12544829466E+03  0.17925735409E+03  0.26201452805E+03  0.12499462051E+03 0.  0.
          5    1    3    3  502    0  0.38040771777E+02 -0.72620749972E+02  0.11570558219E+02  0.82926723445E+02  0.47000000000E+01 0. -1.
         -5    1    3    3    0  502  0.33774854147E+02 -0.52827544690E+02  0.16768679587E+03  0.17908780461E+03  0.47000000000E+01 0. -1.
        -11    1    1    2    0    0 -0.43832381008E+02  0.11742872050E+03  0.86433913376E+02  0.15225506036E+03  0.00000000000E+00 0. -1.
         11    1    1    2    0    0 -0.27983244916E+02  0.80195741567E+01 -0.22103827274E+02  0.36550714710E+02  0.00000000000E+00 0.  1.
<mgrwt>
<rscale>  0 0.18760601E+03</rscale>
<asrwt>0</asrwt>
<pdfrwt beam="1">  1        3 0.53415980E-01 0.19109792E+03</pdfrwt>
<pdfrwt beam="2">  1       -3 0.15940990E-01 0.19109792E+03</pdfrwt>
<totfact> 0.28391674E+02</totfact>
</mgrwt>
</event>
<event>
 7    1  0.5206756E-006  0.2455751E+03  0.7546771E-02  0.1119032E+00
         -2   -1    0    0    0  501 -0.00000000000E+00  0.00000000000E+00  0.57796599557E+02  0.57796599557E+02  0.00000000000E+00 0.  1.
          2   -1    0    0  501    0  0.00000000000E+00 -0.00000000000E+00 -0.97262255173E+03  0.97262255173E+03  0.00000000000E+00 0. -1.
         23    2    1    2    0    0  0.20193640046E+03  0.62512973708E+02 -0.49195760898E+03  0.54984492204E+03  0.12498386915E+03 0.  0.
          5    1    3    3  502    0  0.72315591384E+02 -0.29523804747E+01 -0.30259760140E+03  0.31116821766E+03  0.47000000000E+01 0. -1.
         -5    1    3    3    0  502  0.12962080908E+03  0.65465354183E+02 -0.18936000757E+03  0.23867670438E+03  0.47000000000E+01 0. -1.
        -11    1    1    2    0    0 -0.17312368647E+02 -0.23977978261E+02 -0.19879837704E+02  0.35635228311E+02  0.00000000000E+00 0. -1.
         11    1    1    2    0    0 -0.18462403181E+03 -0.38534995447E+02 -0.40298850550E+03  0.44493900094E+03  0.00000000000E+00 0.  1.
<mgrwt>
<rscale>  0 0.24114507E+03</rscale>
<asrwt>0</asrwt>
<pdfrwt beam="2">  1        2 0.14963422E+00 0.24557514E+03</pdfrwt>
<pdfrwt beam="1">  1       -2 0.88917858E-02 0.24557514E+03</pdfrwt>
<totfact> 0.21808702E+03</totfact>
</mgrwt>
</event>
<event>
 7    1  0.5206756E-006  0.1262792E+03  0.7546771E-02  0.1248538E+00
         -1   -1    0    0    0  501 -0.00000000000E+00  0.00000000000E+00  0.17735233377E+02  0.17735233377E+02  0.00000000000E+00 0. -1.
          1   -1    0    0  501    0  0.00000000000E+00 -0.00000000000E+00 -0.70656238554E+03  0.70656238554E+03  0.00000000000E+00 0.  1.
         23    2    1    2    0    0 -0.76459572772E+01  0.16052916607E+02 -0.47291304735E+03  0.48948257955E+03  0.12502115232E+03 0.  0.
          5    1    3    3  502    0  0.41677223711E+02 -0.15982031627E+02 -0.76436122255E+02  0.88639647430E+02  0.47000000000E+01 0.  1.
         -5    1    3    3    0  502 -0.49323180988E+02  0.32034948234E+02 -0.39647692510E+03  0.40084293212E+03  0.47000000000E+01 0.  1.
        -11    1    1    2    0    0  0.40234689647E+02 -0.21531848656E+02 -0.18131741447E+03  0.18697180415E+03  0.00000000000E+00 0.  1.
         11    1    1    2    0    0 -0.32588732370E+02  0.54789320492E+01 -0.34596690338E+02  0.47843235219E+02  0.00000000000E+00 0. -1.
<mgrwt>
<rscale>  0 0.11676127E+03</rscale>
<asrwt>0</asrwt>
<pdfrwt beam="2">  1        1 0.10870190E+00 0.12627924E+03</pdfrwt>
<pdfrwt beam="1">  1       -1 0.27284975E-02 0.12627924E+03</pdfrwt>
<totfact> 0.11476850E+04</totfact>
</mgrwt>
</event>
<event>
 7    1  0.5206756E-006  0.1304657E+03  0.7546771E-02  0.1243549E+00
         -1   -1    0    0    0  501 -0.00000000000E+00  0.00000000000E+00  0.17467870798E+02  0.17467870798E+02  0.00000000000E+00 0.  1.
          1   -1    0    0  501    0  0.00000000000E+00 -0.00000000000E+00 -0.12565331245E+04  0.12565331245E+04  0.00000000000E+00 0. -1.
         23    2    1    2    0    0  0.16886181737E+02  0.33344287658E+02 -0.10952410771E+04  0.11029842720E+04  0.12499721057E+03 0.  0.
          5    1    3    3  502    0  0.21181996042E+02  0.20036498583E+02 -0.10840878537E+04  0.10844900658E+04  0.47000000000E+01 0.  1.
         -5    1    3    3    0  502 -0.42958143053E+01  0.13307789075E+02 -0.11153223344E+02  0.18494206163E+02  0.47000000000E+01 0.  1.
        -11    1    1    2    0    0  0.24342565311E+02  0.12874610174E+02 -0.25833060006E+02  0.37757953630E+02  0.00000000000E+00 0.  1.
         11    1    1    2    0    0 -0.41228747048E+02 -0.46218897833E+02 -0.11799111664E+03  0.13325876972E+03  0.00000000000E+00 0. -1.
<mgrwt>
<rscale>  0 0.11972636E+03</rscale>
<asrwt>0</asrwt>
<pdfrwt beam="2">  1        1 0.19331277E+00 0.13046566E+03</pdfrwt>
<pdfrwt beam="1">  1       -1 0.26873649E-02 0.13046566E+03</pdfrwt>
<totfact> 0.45515943E+03</totfact>
</mgrwt>
</event>
<event>
 7    1  0.5206756E-006  0.2094351E+03  0.7546771E-02  0.1145632E+00
          1   -1    0    0  501    0  0.00000000000E+00  0.00000000000E+00  0.51319873540E+03  0.51319873540E+03  0.00000000000E+00 0. -1.
         -1   -1    0    0    0  501 -0.00000000000E+00 -0.00000000000E+00 -0.79675529729E+02  0.79675529729E+02  0.00000000000E+00 0.  1.
         23    2    1    2    0    0  0.67062463186E+02 -0.15408350907E+03  0.19035916769E+03  0.28301882091E+03  0.12499575404E+03 0.  0.
          5    1    3    3  502    0  0.44180644086E+02 -0.97860805413E+02  0.19426350808E+03  0.22201141214E+03  0.47000000000E+01 0.  1.
         -5    1    3    3    0  502  0.22881819100E+02 -0.56222703653E+02 -0.39043403843E+01  0.61007408773E+02  0.47000000000E+01 0.  1.
        -11    1    1    2    0    0 -0.72223953598E+02  0.12887967363E+03  0.24269385747E+03  0.28412423023E+03  0.00000000000E+00 0. -1.
         11    1    1    2    0    0  0.51614904115E+01  0.25203835435E+02  0.47018050902E+00  0.25731213995E+02  0.00000000000E+00 0.  1.
<mgrwt>
<rscale>  0 0.20494546E+03</rscale>
<asrwt>0</asrwt>
<pdfrwt beam="1">  1        1 0.78953649E-01 0.20943505E+03</pdfrwt>
<pdfrwt beam="2">  1       -1 0.12257774E-01 0.20943505E+03</pdfrwt>
<totfact> 0.19192735E+03</totfact>
</mgrwt>
</event>
<event>
 7    1  0.5206756E-006  0.1115341E+03  0.7546771E-02  0.1267339E+00
          2   -1    0    0  501    0  0.00000000000E+00  0.00000000000E+00  0.81697612006E+03  0.81697612006E+03  0.00000000000E+00 0. -1.
         -2   -1    0    0    0  501 -0.00000000000E+00 -0.00000000000E+00 -0.18053919910E+03  0.18053919910E+03  0.00000000000E+00 0.  1.
         23    2    1    2    0    0 -0.14760048041E+02  0.99586046883E+01  0.80101661782E+03  0.80874438915E+03  0.11010373345E+03 0.  0.
          5    1    3    3  502    0 -0.26349651781E+02 -0.12198950934E+02  0.75937791214E+03  0.75994738107E+03  0.47000000000E+01 0. -1.
         -5    1    3    3    0  502  0.11589603740E+02  0.22157555622E+02  0.41638705687E+02  0.48797008078E+02  0.47000000000E+01 0.  1.
        -11    1    1    2    0    0 -0.27575550226E+02 -0.26953563199E+02 -0.37652367571E+02  0.53894399738E+02  0.00000000000E+00 0. -1.
         11    1    1    2    0    0  0.42335598268E+02  0.16994958511E+02 -0.12692732929E+03  0.13487653027E+03  0.00000000000E+00 0.  1.
<mgrwt>
<rscale>  0 0.10642382E+03</rscale>
<asrwt>0</asrwt>
<pdfrwt beam="1">  1        2 0.12568863E+00 0.11153414E+03</pdfrwt>
<pdfrwt beam="2">  1       -2 0.27775262E-01 0.11153414E+03</pdfrwt>
<totfact> 0.41588637E+02</totfact>
</mgrwt>
</event>
<event>
 7    1  0.5206756E-006  0.1818603E+03  0.7546771E-02  0.1171575E+00
         -1   -1    0    0    0  501 -0.00000000000E+00  0.00000000000E+00  0.15296642759E+03  0.15296642759E+03  0.00000000000E+00 0.  1.
          1   -1    0    0  501    0  0.00000000000E+00 -0.00000000000E+00 -0.20516098000E+03  0.20516098000E+03  0.00000000000E+00 0. -1.
         23    2    1    2    0    0  0.72062290948E+02 -0.11069841085E+03 -0.74412798160E+02  0.19649536465E+03  0.12500420736E+03 0.  0.
          5    1    3    3  502    0 -0.20798223245E+02 -0.40487026001E+02  0.16572562182E+02  0.48667290677E+02  0.47000000000E+01 0.  1.
         -5    1    3    3    0  502  0.92860514193E+02 -0.70211384852E+02 -0.90985360341E+02  0.14782807398E+03  0.47000000000E+01 0.  1.
        -11    1    1    2    0    0 -0.50367157861E+01  0.28621263777E+02  0.44690158121E+02  0.53308118321E+02  0.00000000000E+00 0.  1.
         11    1    1    2    0    0 -0.67025575162E+02  0.82077147077E+02 -0.22471912378E+02  0.10832392461E+03  0.00000000000E+00 0. -1.
<mgrwt>
<rscale>  0 0.17615690E+03</rscale>
<asrwt>0</asrwt>
<pdfrwt beam="2">  1        1 0.31563228E-01 0.18186029E+03</pdfrwt>
<pdfrwt beam="1">  1       -1 0.23533296E-01 0.18186029E+03</pdfrwt>
<totfact> 0.21544648E+03</totfact>
</mgrwt>
</event>
<event>
 7    1  0.5206756E-006  0.1328312E+03  0.7546771E-02  0.1237186E+00
          2   -1    0    0  501    0  0.00000000000E+00  0.00000000000E+00  0.38973267623E+03  0.38973267623E+03  0.00000000000E+00 0.  1.
         -2   -1    0    0    0  501 -0.00000000000E+00 -0.00000000000E+00 -0.35596686488E+02  0.35596686488E+02  0.00000000000E+00 0. -1.
         23    2    1    2    0    0  0.40717481058E+02  0.19001040179E+02  0.23499182818E+03  0.26993569083E+03  0.12500066033E+03 0.  0.
          5    1    3    3  502    0 -0.29251472127E+02 -0.26671119386E+02  0.12822510392E+03  0.13427868224E+03  0.47000000000E+01 0. -1.
         -5    1    3    3    0  502  0.69968953185E+02  0.45672159564E+02  0.10676672426E+03  0.13565700859E+03  0.47000000000E+01 0. -1.
        -11    1    1    2    0    0 -0.53470896513E+02  0.71404908278E+01  0.11363542077E+03  0.12579003234E+03  0.00000000000E+00 0.  1.
         11    1    1    2    0    0  0.12753415454E+02 -0.26141531007E+02  0.55087407927E+01  0.29603639544E+02  0.00000000000E+00 0. -1.
<mgrwt>
<rscale>  0 0.12365538E+03</rscale>
<asrwt>0</asrwt>
<pdfrwt beam="1">  1        2 0.59958870E-01 0.13283116E+03</pdfrwt>
<pdfrwt beam="2">  1       -2 0.54764136E-02 0.13283116E+03</pdfrwt>
<totfact> 0.13190968E+04</totfact>
</mgrwt>
</event>
<event>
 7    1  0.5206756E-006  0.1512578E+03  0.7546771E-02  0.1208332E+00
          2   -1    0    0  501    0  0.00000000000E+00  0.00000000000E+00  0.81968346343E+03  0.81968346343E+03  0.00000000000E+00 0. -1.
         -2   -1    0    0    0  501 -0.00000000000E+00 -0.00000000000E+00 -0.23083748327E+02  0.23083748327E+02  0.00000000000E+00 0.  1.
         23    2    1    2    0    0 -0.57993281955E+02 -0.62366541282E+02  0.45995691780E+03  0.48418930045E+03  0.12500442478E+03 0.  0.
          5    1    3    3  502    0 -0.94687567751E+02 -0.26024744321E+02  0.32768523861E+03  0.34211508065E+03  0.47000000000E+01 0. -1.
         -5    1    3    3    0  502  0.36694285795E+02 -0.36341796961E+02  0.13227167918E+03  0.14207421980E+03  0.47000000000E+01 0. -1.
        -11    1    1    2    0    0 -0.14712616351E+02  0.24059424576E+02  0.30255743436E+02  0.41360935696E+02  0.00000000000E+00 0.  1.
         11    1    1    2    0    0  0.72705898306E+02  0.38307116707E+02  0.30638705387E+03  0.31721697562E+03  0.00000000000E+00 0. -1.
<mgrwt>
<rscale>  0 0.14377921E+03</rscale>
<asrwt>0</asrwt>
<pdfrwt beam="1">  1        2 0.12610513E+00 0.15125777E+03</pdfrwt>
<pdfrwt beam="2">  1       -2 0.35513465E-02 0.15125777E+03</pdfrwt>
<totfact> 0.10915134E+04</totfact>
</mgrwt>
</event>
<event>
 7    1  0.5206756E-006  0.1271000E+03  0.7546771E-02  0.1249109E+00
          2   -1    0    0  501    0  0.00000000000E+00  0.00000000000E+00  0.10905195322E+04  0.10905195322E+04  0.00000000000E+00 0. -1.
         -2   -1    0    0    0  501 -0.00000000000E+00 -0.00000000000E+00 -0.14399352289E+02  0.14399352289E+02  0.00000000000E+00 0.  1.
         23    2    1    2    0    0  0.14632634461E+02  0.17766023406E+02  0.88263784256E+03  0.89174209848E+03  0.12499865399E+03 0.  0.
          5    1    3    3  502    0 -0.38379505489E+02  0.43233301366E+02  0.26396146318E+03  0.27025885524E+03  0.47000000000E+01 0.  1.
         -5    1    3    3    0  502  0.53012139950E+02 -0.25467277960E+02  0.61867637938E+03  0.62148324324E+03  0.47000000000E+01 0.  1.
        -11    1    1    2    0    0 -0.38030023676E+02 -0.39289379308E+02  0.14719559389E+03  0.15702382268E+03  0.00000000000E+00 0. -1.
         11    1    1    2    0    0  0.23397389215E+02  0.21523355903E+02  0.46286743475E+02  0.56152963350E+02  0.00000000000E+00 0.  1.
<mgrwt>
<rscale>  0 0.11642760E+03</rscale>
<asrwt>0</asrwt>
<pdfrwt beam="1">  1        2 0.16777217E+00 0.12710000E+03</pdfrwt>
<pdfrwt beam="2">  1       -2 0.22152858E-02 0.12710000E+03</pdfrwt>
<totfact> 0.14712930E+04</totfact>
</mgrwt>
</event>
<event>
 7    1  0.5206756E-006  0.1356578E+03  0.7546771E-02  0.1224911E+00
         -1   -1    0    0    0  501 -0.00000000000E+00  0.00000000000E+00  0.30117753423E+03  0.30117753423E+03  0.00000000000E+00 0.  1.
          1   -1    0    0  501    0  0.00000000000E+00 -0.00000000000E+00 -0.69793186627E+02  0.69793186627E+02  0.00000000000E+00 0. -1.
         23    2    1    2    0    0  0.26498798510E+02 -0.36474238458E+02  0.23725652126E+02  0.12292805167E+03  0.11187422816E+03 0.  0.
          5    1    3    3  502    0  0.24184914192E+02  0.38183818021E+02  0.45542218519E+01  0.45669956972E+02  0.47000000000E+01 0. -1.
         -5    1    3    3    0  502  0.23138843182E+01 -0.74658056479E+02  0.19171430274E+02  0.77258094700E+02  0.47000000000E+01 0.  1.
        -11    1    1    2    0    0  0.50526579452E+02  0.81625900524E+01  0.10328657985E+03  0.11527220256E+03  0.00000000000E+00 0.  1.
         11    1    1    2    0    0 -0.77025377963E+02  0.28311648406E+02  0.10437211563E+03  0.13277046662E+03  0.00000000000E+00 0. -1.
<mgrwt>
<rscale>  0 0.13173022E+03</rscale>
<asrwt>0</asrwt>
<pdfrwt beam="2">  1        1 0.10737413E-01 0.13565778E+03</pdfrwt>
<pdfrwt beam="1">  1       -1 0.46335005E-01 0.13565778E+03</pdfrwt>
<totfact> 0.26644211E+03</totfact>
</mgrwt>
</event>
<event>
 7    1  0.5206756E-006  0.1352715E+03  0.7546771E-02  0.1232753E+00
         -2   -1    0    0    0  501 -0.00000000000E+00  0.00000000000E+00  0.24919511335E+03  0.24919511335E+03  0.00000000000E+00 0.  1.
          2   -1    0    0  501    0  0.00000000000E+00 -0.00000000000E+00 -0.59021560072E+02  0.59021560072E+02  0.00000000000E+00 0. -1.
         23    2    1    2    0    0  0.49532267598E+02 -0.14859723861E+02  0.80267102605E+02  0.15729330137E+03  0.12499647183E+03 0.  0.
          5    1    3    3  502    0  0.57254326798E+02 -0.10728459581E+02 -0.15939319714E+02  0.60574827239E+02  0.47000000000E+01 0.  1.
         -5    1    3    3    0  502 -0.77220592000E+01 -0.41312642796E+01  0.96206422319E+02  0.96718474131E+02  0.47000000000E+01 0.  1.
        -11    1    1    2    0    0 -0.37739599969E+01  0.16567434752E+02 -0.11933064140E+02  0.20763445958E+02  0.00000000000E+00 0. -1.
         11    1    1    2    0    0 -0.45758307601E+02 -0.17077108905E+01  0.12183951481E+03  0.13015992609E+03  0.00000000000E+00 0.  1.
<mgrwt>
<rscale>  0 0.12649394E+03</rscale>
<asrwt>0</asrwt>
<pdfrwt beam="2">  1        2 0.90802402E-02 0.13527149E+03</pdfrwt>
<pdfrwt beam="1">  1       -2 0.38337709E-01 0.13527149E+03</pdfrwt>
<totfact> 0.44543746E+03</totfact>
</mgrwt>
</event>
<event>
 7    1  0.5206756E-006  0.1339396E+03  0.7546771E-02  0.1234149E+00
          4   -1    0    0  501    0  0.00000000000E+00  0.00000000000E+00  0.83562190336E+02  0.83562190336E+02  0.00000000000E+00 0. -1.
         -4   -1    0    0    0  501 -0.00000000000E+00 -0.00000000000E+00 -0.16897280516E+03  0.16897280516E+03  0.00000000000E+00 0.  1.
         23    2    1    2    0    0 -0.54874841585E+01 -0.47759912343E+02 -0.52951518045E+02  0.14402665543E+03  0.12501476914E+03 0.  0.
          5    1    3    3  502    0 -0.10953652109E+02 -0.83404350882E+02 -0.64240039393E+02  0.10594876546E+03  0.47000000000E+01 0. -1.
         -5    1    3    3    0  502  0.54661679502E+01  0.35644438538E+02  0.11288521348E+02  0.38077889975E+02  0.47000000000E+01 0. -1.
        -11    1    1    2    0    0  0.18905833683E+02  0.72054614119E+02 -0.31088663905E+02  0.80720523948E+02  0.00000000000E+00 0. -1.
         11    1    1    2    0    0 -0.13418349525E+02 -0.24294701775E+02 -0.13704328752E+01  0.27787816118E+02  0.00000000000E+00 0.  1.
<mgrwt>
<rscale>  0 0.12559098E+03</rscale>
<asrwt>0</asrwt>
<pdfrwt beam="1">  1        4 0.12855722E-01 0.13393959E+03</pdfrwt>
<pdfrwt beam="2">  1       -4 0.25995816E-01 0.13393959E+03</pdfrwt>
<totfact> 0.11305015E+03</totfact>
</mgrwt>
</event>
<event>
 7    1  0.5206756E-006  0.1846672E+03  0.7546771E-02  0.1168536E+00
         -1   -1    0    0    0  501 -0.00000000000E+00  0.00000000000E+00  0.23214094746E+03  0.23214094746E+03  0.00000000000E+00 0.  1.
          1   -1    0    0  501    0  0.00000000000E+00 -0.00000000000E+00 -0.15767369761E+03  0.15767369761E+03  0.00000000000E+00 0. -1.
         23    2    1    2    0    0  0.48676359320E+02 -0.12691225211E+03 -0.41189967872E+02  0.18920512834E+03  0.12500343773E+03 0.  0.
          5    1    3    3  502    0 -0.15234016600E+02 -0.57498839308E+02 -0.68521354889E+02  0.90859550183E+02  0.47000000000E+01 0. -1.
         -5    1    3    3    0  502  0.63910375920E+02 -0.69413412801E+02  0.27331387017E+02  0.98345578157E+02  0.47000000000E+01 0. -1.
        -11    1    1    2    0    0 -0.22153830045E+02  0.11421652414E+02  0.68815419261E+02  0.73190219685E+02  0.00000000000E+00 0.  1.
         11    1    1    2    0    0 -0.26522529274E+02  0.11549059970E+03  0.46841798465E+02  0.12741929705E+03  0.00000000000E+00 0. -1.
<mgrwt>
<rscale>  0 0.17924451E+03</rscale>
<asrwt>0</asrwt>
<pdfrwt beam="2">  1        1 0.24257492E-01 0.18466718E+03</pdfrwt>
<pdfrwt beam="1">  1       -1 0.35713992E-01 0.18466718E+03</pdfrwt>
<totfact> 0.14863098E+03</totfact>
</mgrwt>
</event>
<event>
 7    1  0.5206756E-006  0.1432311E+03  0.7546771E-02  0.1218810E+00
          2   -1    0    0  501    0  0.00000000000E+00  0.00000000000E+00  0.12172695876E+03  0.12172695876E+03  0.00000000000E+00 0. -1.
         -2   -1    0    0    0  501 -0.00000000000E+00 -0.00000000000E+00 -0.14921943086E+03  0.14921943086E+03  0.00000000000E+00 0.  1.
         23    2    1    2    0    0 -0.81340064947E+00 -0.69925124370E+02  0.21098573734E+02  0.14477668631E+03  0.12499981779E+03 0.  0.
          5    1    3    3  502    0  0.13429575871E+02 -0.57441430508E+02  0.70273594899E+02  0.91871320807E+02  0.47000000000E+01 0.  1.
         -5    1    3    3    0  502 -0.14242976520E+02 -0.12483693862E+02 -0.49175021165E+02  0.52905365505E+02  0.47000000000E+01 0.  1.
        -11    1    1    2    0    0 -0.24470416441E+01 -0.13286492763E+02  0.15883690325E+02  0.20852110710E+02  0.00000000000E+00 0. -1.
         11    1    1    2    0    0  0.32604422936E+01  0.83211617133E+02 -0.64474736157E+02  0.10531759261E+03  0.00000000000E+00 0.  1.
<mgrwt>
<rscale>  0 0.13600385E+03</rscale>
<asrwt>0</asrwt>
<pdfrwt beam="1">  1        2 0.18727224E-01 0.14323107E+03</pdfrwt>
<pdfrwt beam="2">  1       -2 0.22956835E-01 0.14323107E+03</pdfrwt>
<totfact> 0.47460174E+03</totfact>
</mgrwt>
</event>
<event>
 7    1  0.5206756E-006  0.1313048E+03  0.7546771E-02  0.1238770E+00
          2   -1    0    0  501    0  0.00000000000E+00  0.00000000000E+00  0.59539238781E+03  0.59539238781E+03  0.00000000000E+00 0. -1.
         -2   -1    0    0    0  501 -0.00000000000E+00 -0.00000000000E+00 -0.22594263765E+02  0.22594263765E+02  0.00000000000E+00 0.  1.
         23    2    1    2    0    0 -0.39138309898E+02 -0.91739420209E+01  0.34814260086E+03  0.37208092724E+03  0.12499990949E+03 0.  0.
          5    1    3    3  502    0 -0.67222566325E+02  0.18675907326E+02  0.30682036886E+03  0.31468792745E+03  0.47000000000E+01 0.  1.
         -5    1    3    3    0  502  0.28084256427E+02 -0.27849849347E+02  0.41322232002E+02  0.57392999794E+02  0.47000000000E+01 0.  1.
        -11    1    1    2    0    0  0.65423068114E+02  0.24044761580E+02  0.16160766138E+03  0.17599819492E+03  0.00000000000E+00 0.  1.
         11    1    1    2    0    0 -0.26284758216E+02 -0.14870819559E+02  0.63047861808E+02  0.69907529404E+02  0.00000000000E+00 0. -1.
<mgrwt>
<rscale>  0 0.12266137E+03</rscale>
<asrwt>0</asrwt>
<pdfrwt beam="1">  1        2 0.91598817E-01 0.13130478E+03</pdfrwt>
<pdfrwt beam="2">  1       -2 0.34760410E-02 0.13130478E+03</pdfrwt>
<totfact> 0.16329157E+04</totfact>
</mgrwt>
</event>
<event>
 7    1  0.5206756E-006  0.1385468E+03  0.7546771E-02  0.1226972E+00
         -2   -1    0    0    0  501 -0.00000000000E+00  0.00000000000E+00  0.39368060058E+02  0.39368060058E+02  0.00000000000E+00 0. -1.
          2   -1    0    0  501    0  0.00000000000E+00 -0.00000000000E+00 -0.39681950314E+03  0.39681950314E+03  0.00000000000E+00 0.  1.
         23    2    1    2    0    0 -0.38744511155E+02  0.45483101257E+02 -0.23313470583E+03  0.27119552942E+03  0.12500149787E+03 0.  0.
          5    1    3    3  502    0 -0.77824346746E+02  0.45647702910E+02 -0.11241384816E+03  0.14421964147E+03  0.47000000000E+01 0.  1.
         -5    1    3    3    0  502  0.39079835591E+02 -0.16460165326E+00 -0.12072085767E+03  0.12697588795E+03  0.47000000000E+01 0.  1.
        -11    1    1    2    0    0  0.17300995658E+02 -0.59174611157E+02 -0.12517695402E+03  0.13953576199E+03  0.00000000000E+00 0.  1.
         11    1    1    2    0    0  0.21443515497E+02  0.13691509901E+02  0.86021677560E+00  0.25456271784E+02  0.00000000000E+00 0. -1.
<mgrwt>
<rscale>  0 0.13032688E+03</rscale>
<asrwt>0</asrwt>
<pdfrwt beam="2">  1        2 0.61049153E-01 0.13854683E+03</pdfrwt>
<pdfrwt beam="1">  1       -2 0.60566248E-02 0.13854683E+03</pdfrwt>
<totfact> 0.11146816E+04</totfact>
</mgrwt>
</event>
<event>
 7    1  0.5206756E-006  0.1287008E+03  0.7546771E-02  0.1247023E+00
         -4   -1    0    0    0  501 -0.00000000000E+00  0.00000000000E+00  0.30773695097E+03  0.30773695097E+03  0.00000000000E+00 0.  1.
          4   -1    0    0  501    0  0.00000000000E+00 -0.00000000000E+00 -0.39189751503E+02  0.39189751503E+02  0.00000000000E+00 0. -1.
         23    2    1    2    0    0 -0.28787267563E+02  0.10528590132E+02  0.14113316166E+03  0.19100380733E+03  0.12499730842E+03 0.  0.
          5    1    3    3  502    0  0.35093078370E+02 -0.27323307380E+02  0.90679857712E+02  0.10110892082E+03  0.47000000000E+01 0.  1.
         -5    1    3    3    0  502 -0.63880345933E+02  0.37851897512E+02  0.50453303945E+02  0.89894886510E+02  0.47000000000E+01 0.  1.
        -11    1    1    2    0    0  0.46796081835E+02  0.19057188125E+02  0.98900837440E+02  0.11106045804E+03  0.00000000000E+00 0. -1.
         11    1    1    2    0    0 -0.18008814271E+02 -0.29585778257E+02  0.28513200366E+02  0.44862437090E+02  0.00000000000E+00 0.  1.
<mgrwt>
<rscale>  0 0.11765116E+03</rscale>
<asrwt>0</asrwt>
<pdfrwt beam="2">  1        4 0.60291927E-02 0.12870076E+03</pdfrwt>
<pdfrwt beam="1">  1       -4 0.47344145E-01 0.12870076E+03</pdfrwt>
<totfact> 0.12455828E+03</totfact>
</mgrwt>
</event>
<event>
 7    1  0.5206756E-006  0.1313532E+03  0.7546771E-02  0.1235693E+00
          2   -1    0    0  501    0  0.00000000000E+00  0.00000000000E+00  0.16338576411E+03  0.16338576411E+03  0.00000000000E+00 0. -1.
         -2   -1    0    0    0  501 -0.00000000000E+00 -0.00000000000E+00 -0.90528785760E+02  0.90528785760E+02  0.00000000000E+00 0.  1.
         23    2    1    2    0    0 -0.48271946624E+02 -0.37331705911E+02  0.66848509662E+02  0.14738520458E+03  0.11631783263E+03 0.  0.
          5    1    3    3  502    0 -0.84837411520E+02 -0.33466554444E+02  0.61094892010E+02  0.10987298344E+03  0.47000000000E+01 0. -1.
         -5    1    3    3    0  502  0.36565464896E+02 -0.38651514676E+01  0.57536176517E+01  0.37512221142E+02  0.47000000000E+01 0.  1.
        -11    1    1    2    0    0 -0.18513272247E+02  0.11412795816E+01  0.22131591138E+02  0.28876479956E+02  0.00000000000E+00 0. -1.
         11    1    1    2    0    0  0.66785218871E+02  0.36190426330E+02 -0.16123122447E+02  0.77652865337E+02  0.00000000000E+00 0.  1.
<mgrwt>
<rscale>  0 0.12460198E+03</rscale>
<asrwt>0</asrwt>
<pdfrwt beam="1">  1        2 0.25136271E-01 0.13135325E+03</pdfrwt>
<pdfrwt beam="2">  1       -2 0.13927506E-01 0.13135325E+03</pdfrwt>
<totfact> 0.78157264E+03</totfact>
</mgrwt>
</event>
<event>
 7    1  0.5206756E-006  0.1277590E+03  0.7546771E-02  0.1245025E+00
          2   -1    0    0  501    0  0.00000000000E+00  0.00000000000E+00  0.21965909108E+03  0.21965909108E+03  0.00000000000E+00 0. -1.
         -2   -1    0    0    0  501 -0.00000000000E+00 -0.00000000000E+00 -0.64724970299E+02  0.64724970299E+02  0.00000000000E+00 0.  1.
         23    2    1    2    0    0  0.25546217691E+02 -0.64789738210E+01  0.13653185978E+03  0.18698475501E+03  0.12501105364E+03 0.  0.
          5    1    3    3  502    0  0.49902728263E+02  0.42412832487E+02  0.10471127270E+03  0.12359478662E+03  0.47000000000E+01 0. -1.
         -5    1    3    3    0  502 -0.24356510572E+02 -0.48891806308E+02  0.31820587078E+02  0.63389968397E+02  0.47000000000E+01 0. -1.
        -11    1    1    2    0    0 -0.40619974273E+01  0.26113940502E+02  0.48686247416E+02  0.55396646100E+02  0.00000000000E+00 0. -1.
         11    1    1    2    0    0 -0.21484220264E+02 -0.19634966681E+02 -0.30283986411E+02  0.42002660271E+02  0.00000000000E+00 0.  1.
<mgrwt>
<rscale>  0 0.11883905E+03</rscale>
<asrwt>0</asrwt>
<pdfrwt beam="1">  1        2 0.33793706E-01 0.12775895E+03</pdfrwt>
<pdfrwt beam="2">  1       -2 0.99576878E-02 0.12775895E+03</pdfrwt>
<totfact> 0.96528424E+03</totfact>
</mgrwt>
</event>
<event>
 7    1  0.5206756E-006  0.1478408E+03  0.7546771E-02  0.1213249E+00
         -2   -1    0    0    0  501 -0.00000000000E+00  0.00000000000E+00  0.44068050284E+03  0.44068050284E+03  0.00000000000E+00 0.  1.
          2   -1    0    0  501    0  0.00000000000E+00 -0.00000000000E+00 -0.49569790375E+02  0.49569790375E+02  0.00000000000E+00 0. -1.
         23    2    1    2    0    0  0.52954151404E+01  0.78775850961E+02  0.10792281377E+03  0.18304163929E+03  0.12499292726E+03 0.  0.
          5    1    3    3  502    0 -0.30952516165E+02  0.78192233923E+02  0.18218591707E+02  0.86174768852E+02  0.47000000000E+01 0.  1.
         -5    1    3    3    0  502  0.36247931305E+02  0.58361703789E+00  0.89704222062E+02  0.96866870439E+02  0.47000000000E+01 0.  1.
        -11    1    1    2    0    0  0.34308001874E+02 -0.55317772189E+02  0.10822504053E+03  0.12629233670E+03  0.00000000000E+00 0.  1.
         11    1    1    2    0    0 -0.39603417014E+02 -0.23458078772E+02  0.17496285817E+03  0.18091631723E+03  0.00000000000E+00 0. -1.
<mgrwt>
<rscale>  0 0.14005934E+03</rscale>
<asrwt>0</asrwt>
<pdfrwt beam="2">  1        2 0.76261219E-02 0.14784082E+03</pdfrwt>
<pdfrwt beam="1">  1       -2 0.67796998E-01 0.14784082E+03</pdfrwt>
<totfact> 0.17923198E+03</totfact>
</mgrwt>
</event>
<event>
 7    1  0.5206756E-006  0.1349974E+03  0.7546771E-02  0.1231619E+00
          1   -1    0    0  501    0  0.00000000000E+00  0.00000000000E+00  0.18146759015E+03  0.18146759015E+03  0.00000000000E+00 0. -1.
         -1   -1    0    0    0  501 -0.00000000000E+00 -0.00000000000E+00 -0.80771862421E+02  0.80771862421E+02  0.00000000000E+00 0.  1.
         23    2    1    2    0    0 -0.15071926593E+02 -0.48710737379E+02  0.65554656431E+02  0.15007233969E+03  0.12499758099E+03 0.  0.
          5    1    3    3  502    0  0.10044451013E+02 -0.34830204729E+02  0.99130305277E+02  0.10565482280E+03  0.47000000000E+01 0.  1.
         -5    1    3    3    0  502 -0.25116377606E+02 -0.13880532650E+02 -0.33575648845E+02  0.44417516884E+02  0.47000000000E+01 0.  1.
        -11    1    1    2    0    0  0.47583305245E+02  0.41565570389E+02  0.44863124799E+02  0.77489144701E+02  0.00000000000E+00 0. -1.
         11    1    1    2    0    0 -0.32511378652E+02  0.71451669899E+01 -0.97220534980E+01  0.34677968184E+02  0.00000000000E+00 0.  1.
<mgrwt>
<rscale>  0 0.12723368E+03</rscale>
<asrwt>0</asrwt>
<pdfrwt beam="1">  1        1 0.27918091E-01 0.13499739E+03</pdfrwt>
<pdfrwt beam="2">  1       -1 0.12426440E-01 0.13499739E+03</pdfrwt>
<totfact> 0.68334573E+03</totfact>
</mgrwt>
</event>
<event>
 7    1  0.5206756E-006  0.1388892E+03  0.7546771E-02  0.1225950E+00
          2   -1    0    0  501    0  0.00000000000E+00  0.00000000000E+00  0.66933565621E+03  0.66933565621E+03  0.00000000000E+00 0. -1.
         -2   -1    0    0    0  501 -0.00000000000E+00 -0.00000000000E+00 -0.23438271126E+02  0.23438271126E+02  0.00000000000E+00 0.  1.
         23    2    1    2    0    0 -0.10093768641E+02 -0.59691279422E+02  0.32080494397E+03  0.34957977837E+03  0.12500110547E+03 0.  0.
          5    1    3    3  502    0  0.23938025502E+02 -0.52194044704E+02  0.49359660876E+02  0.75866418719E+02  0.47000000000E+01 0.  1.
         -5    1    3    3    0  502 -0.34031794143E+02 -0.74972347180E+01  0.27144528309E+03  0.27371335965E+03  0.47000000000E+01 0.  1.
        -11    1    1    2    0    0 -0.26803686374E+02 -0.85849700251E+01  0.13437287682E+03  0.13728878081E+03  0.00000000000E+00 0. -1.
         11    1    1    2    0    0  0.36897455015E+02  0.68276249447E+02  0.19071956430E+03  0.20590536815E+03  0.00000000000E+00 0.  1.
<mgrwt>
<rscale>  0 0.13101971E+03</rscale>
<asrwt>0</asrwt>
<pdfrwt beam="1">  1        2 0.10297470E+00 0.13888920E+03</pdfrwt>
<pdfrwt beam="2">  1       -2 0.36058884E-02 0.13888920E+03</pdfrwt>
<totfact> 0.13571798E+04</totfact>
</mgrwt>
</event>
<event>
 7    1  0.5206756E-006  0.1290256E+03  0.7546771E-02  0.1243878E+00
          1   -1    0    0  501    0  0.00000000000E+00  0.00000000000E+00  0.12572812298E+03  0.12572812298E+03  0.00000000000E+00 0. -1.
         -1   -1    0    0    0  501 -0.00000000000E+00 -0.00000000000E+00 -0.11149791376E+03  0.11149791376E+03  0.00000000000E+00 0.  1.
         23    2    1    2    0    0 -0.88942511190E+01  0.30702994127E+02  0.46073593383E+02  0.13700500304E+03  0.12500325316E+03 0.  0.
          5    1    3    3  502    0  0.49685689504E+02  0.27827406999E+02 -0.72490846957E+01  0.57599232206E+02  0.47000000000E+01 0.  1.
         -5    1    3    3    0  502 -0.58579940623E+02  0.28755871272E+01  0.53322678078E+02  0.79405770836E+02  0.47000000000E+01 0.  1.
        -11    1    1    2    0    0  0.38191188050E+02  0.53489563901E+01  0.75691649074E+01  0.39299751100E+02  0.00000000000E+00 0. -1.
         11    1    1    2    0    0 -0.29296936931E+02 -0.36051950517E+02 -0.39412549069E+02  0.60921282601E+02  0.00000000000E+00 0.  1.
<mgrwt>
<rscale>  0 0.11952791E+03</rscale>
<asrwt>0</asrwt>
<pdfrwt beam="1">  1        1 0.19342788E-01 0.12902556E+03</pdfrwt>
<pdfrwt beam="2">  1       -1 0.17153525E-01 0.12902556E+03</pdfrwt>
<totfact> 0.65326898E+03</totfact>
</mgrwt>
</event>
<event>
 7    1  0.5206756E-006  0.1316174E+03  0.7546771E-02  0.1236645E+00
          1   -1    0    0  501    0  0.00000000000E+00  0.00000000000E+00  0.14279533611E+04  0.14279533611E+04  0.00000000000E+00 0. -1.
         -1   -1    0    0    0  501 -0.00000000000E+00 -0.00000000000E+00 -0.12811229583E+02  0.12811229583E+02  0.00000000000E+00 0.  1.
         23    2    1    2    0    0  0.16052972736E+02 -0.37961337215E+02  0.11246127384E+04  0.11322883698E+04  0.12499751940E+03 0.  0.
          5    1    3    3  502    0 -0.13538569720E+02 -0.79287414625E+02  0.68941306391E+03  0.69410535921E+03  0.47000000000E+01 0. -1.
         -5    1    3    3    0  502  0.29591542457E+02  0.41326077410E+02  0.43519967453E+03  0.43818301059E+03  0.47000000000E+01 0. -1.
        -11    1    1    2    0    0 -0.33080226905E+01  0.58983016209E+02  0.27018009487E+03  0.27656323487E+03  0.00000000000E+00 0. -1.
         11    1    1    2    0    0 -0.12744950046E+02 -0.21021678994E+02  0.20349298211E+02  0.31912986026E+02  0.00000000000E+00 0.  1.
<mgrwt>
<rscale>  0 0.12399732E+03</rscale>
<asrwt>0</asrwt>
<pdfrwt beam="1">  1        1 0.21968501E+00 0.13161740E+03</pdfrwt>
<pdfrwt beam="2">  1       -1 0.19709595E-02 0.13161740E+03</pdfrwt>
<totfact> 0.54873192E+03</totfact>
</mgrwt>
</event>
<event>
 7    1  0.5206756E-006  0.1470635E+03  0.7546771E-02  0.1216553E+00
          1   -1    0    0  501    0  0.00000000000E+00  0.00000000000E+00  0.80924531268E+03  0.80924531268E+03  0.00000000000E+00 0. -1.
         -1   -1    0    0    0  501 -0.00000000000E+00 -0.00000000000E+00 -0.22885933888E+02  0.22885933888E+02  0.00000000000E+00 0.  1.
         23    2    1    2    0    0  0.22211554255E+02 -0.74792532087E+02  0.56312359521E+03  0.58201018158E+03  0.12466110854E+03 0.  0.
          5    1    3    3  502    0  0.51509786816E+02 -0.10256468929E+01  0.36303004325E+03  0.36669771256E+03  0.47000000000E+01 0. -1.
         -5    1    3    3    0  502 -0.29298232561E+02 -0.73766885194E+02  0.20009355195E+03  0.21531246902E+03  0.47000000000E+01 0.  1.
        -11    1    1    2    0    0 -0.46500429065E+02  0.16357710360E+02  0.89789767342E+02  0.10243079083E+03  0.00000000000E+00 0.  1.
         11    1    1    2    0    0  0.24288874810E+02  0.58434821727E+02  0.13344601625E+03  0.14769027416E+03  0.00000000000E+00 0. -1.
<mgrwt>
<rscale>  0 0.13763109E+03</rscale>
<asrwt>0</asrwt>
<pdfrwt beam="1">  1        1 0.12449926E+00 0.14706348E+03</pdfrwt>
<pdfrwt beam="2">  1       -1 0.35209135E-02 0.14706348E+03</pdfrwt>
<totfact> 0.65401113E+03</totfact>
</mgrwt>
</event>
<event>
 7    1  0.5206756E-006  0.1363947E+03  0.7546771E-02  0.1230580E+00
         -1   -1    0    0    0  501 -0.00000000000E+00  0.00000000000E+00  0.21394094046E+03  0.21394094046E+03  0.00000000000E+00 0.  1.
          1   -1    0    0  501    0  0.00000000000E+00 -0.00000000000E+00 -0.96963494826E+02  0.96963494826E+02  0.00000000000E+00 0. -1.
         23    2    1    2    0    0 -0.44800122966E+02 -0.31163565681E+02 -0.20155392616E+02  0.13787586223E+03  0.12500117875E+03 0.  0.
          5    1    3    3  502    0 -0.64405154987E+02 -0.47335698448E+02  0.26669073739E+02  0.84392072084E+02  0.47000000000E+01 0. -1.
         -5    1    3    3    0  502  0.19605032021E+02  0.16172132768E+02 -0.46824466355E+02  0.53483790145E+02  0.47000000000E+01 0. -1.
        -11    1    1    2    0    0  0.47411209813E+02  0.12755953951E+02  0.14481544493E+03  0.15291190362E+03  0.00000000000E+00 0.  1.
         11    1    1    2    0    0 -0.26110868476E+01  0.18407611730E+02 -0.76826066787E+01  0.20116669443E+02  0.00000000000E+00 0. -1.
<mgrwt>
<rscale>  0 0.12791661E+03</rscale>
<asrwt>0</asrwt>
<pdfrwt beam="2">  1        1 0.14917461E-01 0.13639470E+03</pdfrwt>
<pdfrwt beam="1">  1       -1 0.32913991E-01 0.13639470E+03</pdfrwt>
<totfact> 0.31511175E+03</totfact>
</mgrwt>
</event>
<event>
 7    1  0.5206756E-006  0.1367011E+03  0.7546771E-02  0.1230076E+00
          3   -1    0    0  501    0  0.00000000000E+00  0.00000000000E+00  0.63849935241E+02  0.63849935241E+02  0.00000000000E+00 0. -1.
         -3   -1    0    0    0  501 -0.00000000000E+00 -0.00000000000E+00 -0.27341301205E+03  0.27341301205E+03  0.00000000000E+00 0.  1.
         23    2    1    2    0    0  0.47294268345E+02  0.28732134022E+02 -0.49602313705E+02  0.14542203845E+03  0.12499958559E+03 0.  0.
          5    1    3    3  502    0  0.59921588273E+02  0.43073110167E+02  0.17083591680E+02  0.75893535069E+02  0.47000000000E+01 0. -1.
         -5    1    3    3    0  502 -0.12627319929E+02 -0.14340976144E+02 -0.66685905385E+02  0.69528503381E+02  0.47000000000E+01 0. -1.
        -11    1    1    2    0    0  0.21661678168E+02  0.95779429094E+01 -0.59987992780E+02  0.64494376261E+02  0.00000000000E+00 0.  1.
         11    1    1    2    0    0 -0.68955946513E+02 -0.38310076932E+02 -0.99972770328E+02  0.12734653258E+03  0.00000000000E+00 0. -1.
<mgrwt>
<rscale>  0 0.12824965E+03</rscale>
<asrwt>0</asrwt>
<pdfrwt beam="1">  1        3 0.98230670E-02 0.13670106E+03</pdfrwt>
<pdfrwt beam="2">  1       -3 0.42063540E-01 0.13670106E+03</pdfrwt>
<totfact> 0.98801966E+02</totfact>
</mgrwt>
</event>
<event>
 7    1  0.5206756E-006  0.1580989E+03  0.7546771E-02  0.1198202E+00
         -1   -1    0    0    0  501 -0.00000000000E+00  0.00000000000E+00  0.19558478718E+02  0.19558478718E+02  0.00000000000E+00 0.  1.
          1   -1    0    0  501    0  0.00000000000E+00 -0.00000000000E+00 -0.11257559618E+04  0.11257559618E+04  0.00000000000E+00 0. -1.
         23    2    1    2    0    0 -0.59767214055E+02 -0.76150795742E+02 -0.69062056352E+03  0.70848571576E+03  0.12499673239E+03 0.  0.
          5    1    3    3  502    0 -0.52065485495E+02 -0.12152364416E+02 -0.56183028385E+03  0.56438803370E+03  0.47000000000E+01 0.  1.
         -5    1    3    3    0  502 -0.77017285592E+01 -0.63998431326E+02 -0.12879027968E+03  0.14409768206E+03  0.47000000000E+01 0.  1.
        -11    1    1    2    0    0  0.38806654009E+01  0.73261822035E+02 -0.17361068711E+03  0.18847552842E+03  0.00000000000E+00 0.  1.
         11    1    1    2    0    0  0.55886548654E+02  0.28889737071E+01 -0.24196623248E+03  0.24835319637E+03  0.00000000000E+00 0. -1.
<mgrwt>
<rscale>  0 0.15186294E+03</rscale>
<asrwt>0</asrwt>
<pdfrwt beam="2">  1        1 0.17319322E+00 0.15809885E+03</pdfrwt>
<pdfrwt beam="1">  1       -1 0.30089969E-02 0.15809885E+03</pdfrwt>
<totfact> 0.47786045E+03</totfact>
</mgrwt>
</event>
<event>
 7    1  0.5206756E-006  0.1295550E+03  0.7546771E-02  0.1245794E+00
         -2   -1    0    0    0  501 -0.00000000000E+00  0.00000000000E+00  0.10288132282E+03  0.10288132282E+03  0.00000000000E+00 0.  1.
          2   -1    0    0  501    0  0.00000000000E+00 -0.00000000000E+00 -0.14967634545E+03  0.14967634545E+03  0.00000000000E+00 0. -1.
         23    2    1    2    0    0  0.79597233741E+01  0.33141984913E+02 -0.84514886567E+02  0.15468440537E+03  0.12499100308E+03 0.  0.
          5    1    3    3  502    0  0.26961844869E+02 -0.26204496670E+02 -0.84044730882E+02  0.92191233388E+02  0.47000000000E+01 0.  1.
         -5    1    3    3    0  502 -0.19002121495E+02  0.59346481583E+02 -0.47015568486E+00  0.62493171979E+02  0.47000000000E+01 0.  1.
        -11    1    1    2    0    0 -0.39217199257E+02 -0.21628539589E+02 -0.34460682941E+01  0.44918346240E+02  0.00000000000E+00 0. -1.
         11    1    1    2    0    0  0.31257475883E+02 -0.11513445324E+02  0.41165932231E+02  0.52954916658E+02  0.00000000000E+00 0.  1.
<mgrwt>
<rscale>  0 0.11837987E+03</rscale>
<asrwt>0</asrwt>
<pdfrwt beam="2">  1        2 0.23027130E-01 0.12955500E+03</pdfrwt>
<pdfrwt beam="1">  1       -2 0.15827896E-01 0.12955500E+03</pdfrwt>
<totfact> 0.69830765E+03</totfact>
</mgrwt>
</event>
<event>
 7    1  0.5206756E-006  0.1575617E+03  0.7546771E-02  0.1199720E+00
         -2   -1    0    0    0  501 -0.00000000000E+00  0.00000000000E+00  0.13464939416E+03  0.13464939416E+03  0.00000000000E+00 0.  1.
          2   -1    0    0  501    0  0.00000000000E+00 -0.00000000000E+00 -0.33255267528E+03  0.33255267528E+03  0.00000000000E+00 0. -1.
         23    2    1    2    0    0  0.53429337940E+02  0.79660093198E+02 -0.27337691082E+03  0.31553228133E+03  0.12500104235E+03 0.  0.
          5    1    3    3  502    0  0.51350180165E+02  0.37905883907E+01 -0.21080969816E+03  0.21705766146E+03  0.47000000000E+01 0. -1.
         -5    1    3    3    0  502  0.20791577752E+01  0.75869504807E+02 -0.62567212665E+02  0.98474619864E+02  0.47000000000E+01 0. -1.
        -11    1    1    2    0    0 -0.19434397827E+02 -0.92161566812E+02  0.45243016228E+02  0.10449105576E+03  0.00000000000E+00 0. -1.
         11    1    1    2    0    0 -0.33994940113E+02  0.12501473614E+02  0.30230613474E+02  0.47178732357E+02  0.00000000000E+00 0.  1.
<mgrwt>
<rscale>  0 0.15061462E+03</rscale>
<asrwt>0</asrwt>
<pdfrwt beam="2">  1        2 0.51161949E-01 0.15756169E+03</pdfrwt>
<pdfrwt beam="1">  1       -2 0.20715292E-01 0.15756169E+03</pdfrwt>
<totfact> 0.19009418E+03</totfact>
</mgrwt>
</event>
<event>
 7    1  0.5206756E-006  0.1310607E+03  0.7546771E-02  0.1240061E+00
          2   -1    0    0  501    0  0.00000000000E+00  0.00000000000E+00  0.12482861855E+03  0.12482861855E+03  0.00000000000E+00 0. -1.
         -2   -1    0    0    0  501 -0.00000000000E+00 -0.00000000000E+00 -0.11215065231E+03  0.11215065231E+03  0.00000000000E+00 0.  1.
         23    2    1    2    0    0 -0.12607353304E+02 -0.37320722060E+02  0.36741663408E+02  0.13611336936E+03  0.12500047134E+03 0.  0.
          5    1    3    3  502    0 -0.62095151686E+02 -0.95411286933E+01 -0.82517673632E+01  0.63537568920E+02  0.47000000000E+01 0.  1.
         -5    1    3    3    0  502  0.49487798382E+02 -0.27779593367E+02  0.44993430771E+02  0.72575800436E+02  0.47000000000E+01 0.  1.
        -11    1    1    2    0    0  0.30992869861E+02  0.74293639022E+01 -0.48548763362E+02  0.58075260259E+02  0.00000000000E+00 0.  1.
         11    1    1    2    0    0 -0.18385516557E+02  0.29891358158E+02  0.24485066195E+02  0.42790641245E+02  0.00000000000E+00 0. -1.
<mgrwt>
<rscale>  0 0.12185944E+03</rscale>
<asrwt>0</asrwt>
<pdfrwt beam="1">  1        2 0.19204403E-01 0.13106067E+03</pdfrwt>
<pdfrwt beam="2">  1       -2 0.17253947E-01 0.13106067E+03</pdfrwt>
<totfact> 0.74321229E+03</totfact>
</mgrwt>
</event>
<event>
 7    1  0.5206756E-006  0.1547365E+03  0.7546771E-02  0.1203460E+00
          2   -1    0    0  501    0  0.00000000000E+00  0.00000000000E+00  0.73518711101E+03  0.73518711101E+03  0.00000000000E+00 0. -1.
         -2   -1    0    0    0  501 -0.00000000000E+00 -0.00000000000E+00 -0.27806123314E+02  0.27806123314E+02  0.00000000000E+00 0.  1.
         23    2    1    2    0    0  0.74788872686E+02 -0.52202957169E+02  0.44235156533E+03  0.46863449829E+03  0.12499944568E+03 0.  0.
          5    1    3    3  502    0  0.80899019883E+02 -0.13278868579E+01  0.37617749146E+03  0.38480905627E+03  0.47000000000E+01 0. -1.
         -5    1    3    3    0  502 -0.61101471973E+01 -0.50875070311E+02  0.66174073871E+02  0.83825442025E+02  0.47000000000E+01 0. -1.
        -11    1    1    2    0    0 -0.54965447099E+02 -0.10191232419E+02  0.76230468548E+02  0.94531190239E+02  0.00000000000E+00 0.  1.
         11    1    1    2    0    0 -0.19823425587E+02  0.62394189588E+02  0.18879895382E+03  0.19982754580E+03  0.00000000000E+00 0. -1.
<mgrwt>
<rscale>  0 0.14759494E+03</rscale>
<asrwt>0</asrwt>
<pdfrwt beam="1">  1        2 0.11310570E+00 0.15473650E+03</pdfrwt>
<pdfrwt beam="2">  1       -2 0.42778657E-02 0.15473650E+03</pdfrwt>
<totfact> 0.94770352E+03</totfact>
</mgrwt>
</event>
<event>
 7    1  0.5206756E-006  0.1399290E+03  0.7546771E-02  0.1225272E+00
         -1   -1    0    0    0  501 -0.00000000000E+00  0.00000000000E+00  0.19643430236E+03  0.19643430236E+03  0.00000000000E+00 0.  1.
          1   -1    0    0  501    0  0.00000000000E+00 -0.00000000000E+00 -0.17514141895E+03  0.17514141895E+03  0.00000000000E+00 0. -1.
         23    2    1    2    0    0  0.59088099890E+02  0.21503084769E+02 -0.12599395115E+03  0.18829389513E+03  0.12500531594E+03 0.  0.
          5    1    3    3  502    0  0.82673451965E+02  0.75273921945E+01 -0.30070136896E+02  0.88418688217E+02  0.47000000000E+01 0. -1.
         -5    1    3    3    0  502 -0.23585352074E+02  0.13975692575E+02 -0.95923814249E+02  0.99875206911E+02  0.47000000000E+01 0. -1.
        -11    1    1    2    0    0 -0.66684830995E+02  0.41644982068E+01  0.53041894491E+02  0.85309157195E+02  0.00000000000E+00 0. -1.
         11    1    1    2    0    0  0.75967311045E+01 -0.25667582976E+02  0.94244940068E+02  0.97972668983E+02  0.00000000000E+00 0.  1.
<mgrwt>
<rscale>  0 0.13148272E+03</rscale>
<asrwt>0</asrwt>
<pdfrwt beam="2">  1        1 0.26944834E-01 0.13992896E+03</pdfrwt>
<pdfrwt beam="1">  1       -1 0.30220662E-01 0.13992896E+03</pdfrwt>
<totfact> 0.17178028E+03</totfact>
</mgrwt>
</event>
<event>
 7    1  0.6168086E-006  0.1993983E+03  0.7546771E-02  0.1154571E+00
         -1   -1    0    0    0  501 -0.00000000000E+00  0.00000000000E+00  0.31423857036E+02  0.31423857036E+02  0.00000000000E+00 0.  1.
          1   -1    0    0  501    0  0.00000000000E+00 -0.00000000000E+00 -0.12562508124E+04  0.12562508124E+04  0.00000000000E+00 0. -1.
         23    2    1    2    0    0  0.10751828155E+03  0.11213730701E+03 -0.83177112698E+03  0.85533788416E+03  0.12499892762E+03 0.  0.
          5    1    3    3  502    0  0.96221250611E+02  0.13707786722E+03 -0.64008962141E+03  0.66165374947E+03  0.47000000000E+01 0. -1.
         -5    1    3    3    0  502  0.11297030935E+02 -0.24940560213E+02 -0.19168150557E+03  0.19368413469E+03  0.47000000000E+01 0. -1.
        -11    1    1    2    0    0 -0.20029557778E+02 -0.79629797557E+02 -0.13604134194E+03  0.15890039195E+03  0.00000000000E+00 0.  1.
         11    1    1    2    0    0 -0.87488723768E+02 -0.32507509451E+02 -0.25701448644E+03  0.27343639333E+03  0.00000000000E+00 0. -1.
<mgrwt>
<rscale>  0 0.19437770E+03</rscale>
<asrwt>0</asrwt>
<pdfrwt beam="2">  1        1 0.19326935E+00 0.19939832E+03</pdfrwt>
<pdfrwt beam="1">  1       -1 0.48344397E-02 0.19939832E+03</pdfrwt>
<totfact> 0.19351888E+03</totfact>
</mgrwt>
</event>
<event>
 7    1  0.5206756E-006  0.1324492E+03  0.7546771E-02  0.1236991E+00
          2   -1    0    0  501    0  0.00000000000E+00  0.00000000000E+00  0.14139012615E+03  0.14139012615E+03  0.00000000000E+00 0. -1.
         -2   -1    0    0    0  501 -0.00000000000E+00 -0.00000000000E+00 -0.96535490443E+02  0.96535490443E+02  0.00000000000E+00 0.  1.
         23    2    1    2    0    0  0.36560960300E+02  0.24156008801E+02  0.20757808959E+02  0.13406597092E+03  0.12499032501E+03 0.  0.
          5    1    3    3  502    0  0.70285922018E+02 -0.16395088765E+02 -0.97102678082E+01  0.72974578248E+02  0.47000000000E+01 0.  1.
         -5    1    3    3    0  502 -0.33724961718E+02  0.40551097566E+02  0.30468076767E+02  0.61091392672E+02  0.47000000000E+01 0.  1.
        -11    1    1    2    0    0 -0.17640143766E+02 -0.16514221382E+02 -0.34324594925E+02  0.41977041305E+02  0.00000000000E+00 0.  1.
         11    1    1    2    0    0 -0.18920816534E+02 -0.76417874190E+01  0.58421421677E+02  0.61882604374E+02  0.00000000000E+00 0. -1.
<mgrwt>
<rscale>  0 0.12377841E+03</rscale>
<asrwt>0</asrwt>
<pdfrwt beam="1">  1        2 0.21752327E-01 0.13244923E+03</pdfrwt>
<pdfrwt beam="2">  1       -2 0.14851614E-01 0.13244923E+03</pdfrwt>
<totfact> 0.82718537E+03</totfact>
</mgrwt>
</event>
<event>
 7    1  0.5206756E-006  0.1390997E+03  0.7546771E-02  0.1225847E+00
         -2   -1    0    0    0  501 -0.00000000000E+00  0.00000000000E+00  0.17928160433E+02  0.17928160433E+02  0.00000000000E+00 0.  1.
          2   -1    0    0  501    0  0.00000000000E+00 -0.00000000000E+00 -0.87053260939E+03  0.87053260939E+03  0.00000000000E+00 0. -1.
         23    2    1    2    0    0 -0.25719863843E+02  0.55290670236E+02 -0.51628242883E+03  0.53469269400E+03  0.12502064263E+03 0.  0.
          5    1    3    3  502    0 -0.37950008671E+02  0.58279985674E+02 -0.12454315320E+03  0.14272297256E+03  0.47000000000E+01 0. -1.
         -5    1    3    3    0  502  0.12230144828E+02 -0.29893154375E+01 -0.39173927564E+03  0.39196972144E+03  0.47000000000E+01 0. -1.
        -11    1    1    2    0    0 -0.27158872170E+02 -0.42366030212E+02 -0.21471395041E+03  0.22053245873E+03  0.00000000000E+00 0. -1.
         11    1    1    2    0    0  0.52878736014E+02 -0.12924640024E+02 -0.12160806971E+03  0.13323561709E+03  0.00000000000E+00 0.  1.
<mgrwt>
<rscale>  0 0.13109015E+03</rscale>
<asrwt>0</asrwt>
<pdfrwt beam="2">  1        2 0.13392812E+00 0.13909971E+03</pdfrwt>
<pdfrwt beam="1">  1       -2 0.27581780E-02 0.13909971E+03</pdfrwt>
<totfact> 0.14596575E+04</totfact>
</mgrwt>
</event>
<event>
 7    1  0.5206756E-006  0.1303906E+03  0.7546771E-02  0.1241394E+00
         -1   -1    0    0    0  501 -0.00000000000E+00  0.00000000000E+00  0.37827794833E+02  0.37827794833E+02  0.00000000000E+00 0.  1.
          1   -1    0    0  501    0  0.00000000000E+00 -0.00000000000E+00 -0.39989928744E+03  0.39989928744E+03  0.00000000000E+00 0. -1.
         23    2    1    2    0    0  0.36942272368E+02 -0.22839721555E+01 -0.28694418838E+03  0.31518037285E+03  0.12502700575E+03 0.  0.
          5    1    3    3  502    0  0.29232642731E+01 -0.33099321251E+02 -0.25915229819E+03  0.26131611928E+03  0.47000000000E+01 0.  1.
         -5    1    3    3    0  502  0.34019008095E+02  0.30815349096E+02 -0.27791890193E+02  0.53864253565E+02  0.47000000000E+01 0.  1.
        -11    1    1    2    0    0 -0.14579284190E+02  0.44669361314E+02 -0.25111079232E+02  0.53277327898E+02  0.00000000000E+00 0. -1.
         11    1    1    2    0    0 -0.22362988179E+02 -0.42385389158E+02 -0.50016224992E+02  0.69269381525E+02  0.00000000000E+00 0.  1.
<mgrwt>
<rscale>  0 0.12103831E+03</rscale>
<asrwt>0</asrwt>
<pdfrwt beam="2">  1        1 0.61522965E-01 0.13039057E+03</pdfrwt>
<pdfrwt beam="1">  1       -1 0.58196609E-02 0.13039057E+03</pdfrwt>
<totfact> 0.80596668E+03</totfact>
</mgrwt>
</event>
<event>
 7    1  0.5206756E-006  0.2395159E+03  0.7546771E-02  0.1122565E+00
         -1   -1    0    0    0  501 -0.00000000000E+00  0.00000000000E+00  0.31162813500E+03  0.31162813500E+03  0.00000000000E+00 0.  1.
          1   -1    0    0  501    0  0.00000000000E+00 -0.00000000000E+00 -0.21689651673E+03  0.21689651673E+03  0.00000000000E+00 0. -1.
         23    2    1    2    0    0 -0.20408152041E+03 -0.96489502559E+01 -0.69854513127E+02  0.24949455407E+03  0.12500204115E+03 0.  0.
          5    1    3    3  502    0 -0.17053242792E+03 -0.19128521807E+02 -0.10380053901E+03  0.20060870175E+03  0.47000000000E+01 0. -1.
         -5    1    3    3    0  502 -0.33549092496E+02  0.94795715507E+01  0.33946025885E+02  0.48885852324E+02  0.47000000000E+01 0. -1.
        -11    1    1    2    0    0  0.18327164182E+00  0.16976306881E+02  0.13799101142E+00  0.16977856912E+02  0.00000000000E+00 0. -1.
         11    1    1    2    0    0  0.20389824877E+03 -0.73273566249E+01  0.16444814039E+03  0.26205224075E+03  0.00000000000E+00 0.  1.
<mgrwt>
<rscale>  0 0.23588528E+03</rscale>
<asrwt>0</asrwt>
<pdfrwt beam="2">  1        1 0.33368695E-01 0.23951593E+03</pdfrwt>
<pdfrwt beam="1">  1       -1 0.47942790E-01 0.23951593E+03</pdfrwt>
<totfact> 0.58959793E+02</totfact>
</mgrwt>
</event>
<event>
 7    1  0.5206756E-006  0.1350761E+03  0.7546771E-02  0.1232449E+00
          1   -1    0    0  501    0  0.00000000000E+00  0.00000000000E+00  0.13399000601E+03  0.13399000601E+03  0.00000000000E+00 0. -1.
         -1   -1    0    0    0  501 -0.00000000000E+00 -0.00000000000E+00 -0.10763479845E+03  0.10763479845E+03  0.00000000000E+00 0.  1.
         23    2    1    2    0    0  0.67848078897E+01 -0.50742727060E+02  0.23127159161E+02  0.13704163333E+03  0.12499874322E+03 0.  0.
          5    1    3    3  502    0  0.47517497536E+02 -0.71600431414E+02  0.28656708459E+02  0.90707393802E+02  0.47000000000E+01 0.  1.
         -5    1    3    3    0  502 -0.40732689646E+02  0.20857704354E+02 -0.55295492984E+01  0.46334239523E+02  0.47000000000E+01 0.  1.
        -11    1    1    2    0    0  0.24591284182E+01  0.15710265685E+02  0.45916400737E+02  0.48591929547E+02  0.00000000000E+00 0. -1.
         11    1    1    2    0    0 -0.92439363078E+01  0.35032461374E+02 -0.42688352341E+02  0.55991241583E+02  0.00000000000E+00 0.  1.
<mgrwt>
<rscale>  0 0.12669151E+03</rscale>
<asrwt>0</asrwt>
<pdfrwt beam="1">  1        1 0.20613847E-01 0.13507607E+03</pdfrwt>
<pdfrwt beam="2">  1       -1 0.16559200E-01 0.13507607E+03</pdfrwt>
<totfact> 0.63911984E+03</totfact>
</mgrwt>
</event>
<event>
 7    1  0.5206756E-006  0.2073779E+03  0.7546771E-02  0.1148332E+00
          2   -1    0    0  501    0  0.00000000000E+00  0.00000000000E+00  0.17922872125E+04  0.17922872125E+04  0.00000000000E+00 0. -1.
         -2   -1    0    0    0  501 -0.00000000000E+00 -0.00000000000E+00 -0.51819650943E+02  0.51819650943E+02  0.00000000000E+00 0.  1.
         23    2    1    2    0    0 -0.16528816661E+03  0.77809618180E+01  0.15948624381E+04  0.16082884659E+04  0.12499948613E+03 0.  0.
          5    1    3    3  502    0 -0.16793662646E+03  0.40783353402E+02  0.12709109701E+04  0.12826155996E+04  0.47000000000E+01 0.  1.
         -5    1    3    3    0  502  0.26484598515E+01 -0.33002391583E+02  0.32395146807E+03  0.32567286631E+03  0.47000000000E+01 0.  1.
        -11    1    1    2    0    0  0.68457938731E+02  0.38580038868E+00  0.10292832892E+02  0.69228466877E+02  0.00000000000E+00 0.  1.
         11    1    1    2    0    0  0.96830227882E+02 -0.81667622067E+01  0.13531229054E+03  0.16658993069E+03  0.00000000000E+00 0. -1.
<mgrwt>
<rscale>  0 0.20167710E+03</rscale>
<asrwt>0</asrwt>
<pdfrwt beam="1">  1        2 0.27573645E+00 0.20737790E+03</pdfrwt>
<pdfrwt beam="2">  1       -2 0.79722554E-02 0.20737790E+03</pdfrwt>
<totfact> 0.91623706E+02</totfact>
</mgrwt>
</event>
<event>
 7    1  0.5206756E-006  0.1668373E+03  0.7546771E-02  0.1187983E+00
          2   -1    0    0  501    0  0.00000000000E+00  0.00000000000E+00  0.10371796023E+04  0.10371796023E+04  0.00000000000E+00 0.  1.
         -2   -1    0    0    0  501 -0.00000000000E+00 -0.00000000000E+00 -0.23608937585E+02  0.23608937585E+02  0.00000000000E+00 0. -1.
         23    2    1    2    0    0 -0.10781448825E+03  0.24149256659E+02  0.61447016570E+03  0.63671680046E+03  0.12501019551E+03 0.  0.
          5    1    3    3  502    0 -0.94410297220E+02 -0.38789545963E+02  0.36385398156E+03  0.37792822466E+03  0.47000000000E+01 0.  1.
         -5    1    3    3    0  502 -0.13404191028E+02  0.62938802623E+02  0.25061618414E+03  0.25878857581E+03  0.47000000000E+01 0.  1.
        -11    1    1    2    0    0  0.11620781374E+03  0.13397079673E+01  0.33476972725E+03  0.35436819987E+03  0.00000000000E+00 0.  1.
         11    1    1    2    0    0 -0.83933254960E+01 -0.25488964626E+02  0.64330771711E+02  0.69703539505E+02  0.00000000000E+00 0. -1.
<mgrwt>
<rscale>  0 0.16063357E+03</rscale>
<asrwt>0</asrwt>
<pdfrwt beam="1">  1        2 0.15956606E+00 0.16683734E+03</pdfrwt>
<pdfrwt beam="2">  1       -2 0.36321451E-02 0.16683734E+03</pdfrwt>
<totfact> 0.77530216E+03</totfact>
</mgrwt>
</event>
<event>
 7    1  0.5206756E-006  0.1354456E+03  0.7546771E-02  0.1231470E+00
          2   -1    0    0  501    0  0.00000000000E+00  0.00000000000E+00  0.15779419731E+04  0.15779419731E+04  0.00000000000E+00 0.  1.
         -2   -1    0    0    0  501 -0.00000000000E+00 -0.00000000000E+00 -0.13366849291E+02  0.13366849291E+02  0.00000000000E+00 0. -1.
         23    2    1    2    0    0 -0.30215463950E+02  0.42510662330E+02  0.12894653922E+04  0.12965594924E+04  0.12500155555E+03 0.  0.
          5    1    3    3  502    0 -0.65469018036E+02  0.23212800246E+02  0.11263686008E+04  0.11285182060E+04  0.47000000000E+01 0.  1.
         -5    1    3    3    0  502  0.35253554087E+02  0.19297862085E+02  0.16309679139E+03  0.16804128635E+03  0.47000000000E+01 0.  1.
        -11    1    1    2    0    0  0.31847512084E+02 -0.32436979470E-02  0.23526050482E+02  0.39594685095E+02  0.00000000000E+00 0. -1.
         11    1    1    2    0    0 -0.16320481347E+01 -0.42507418633E+02  0.25158368118E+03  0.25515464498E+03  0.00000000000E+00 0.  1.
<mgrwt>
<rscale>  0 0.12733162E+03</rscale>
<asrwt>0</asrwt>
<pdfrwt beam="1">  1        2 0.24276016E+00 0.13544563E+03</pdfrwt>
<pdfrwt beam="2">  1       -2 0.20564396E-02 0.13544563E+03</pdfrwt>
<totfact> 0.89948028E+03</totfact>
</mgrwt>
</event>
<event>
 7    1  0.5206756E-006  0.1698907E+03  0.7546771E-02  0.1184227E+00
         -2   -1    0    0    0  501 -0.00000000000E+00  0.00000000000E+00  0.25749385210E+02  0.25749385210E+02  0.00000000000E+00 0.  1.
          2   -1    0    0  501    0  0.00000000000E+00 -0.00000000000E+00 -0.13747246449E+04  0.13747246449E+04  0.00000000000E+00 0. -1.
         23    2    1    2    0    0  0.11368291968E+03 -0.17827757769E+02 -0.10833455716E+04  0.10965858325E+04  0.12498490077E+03 0.  0.
          5    1    3    3  502    0  0.13258845306E+03  0.46144615620E+01 -0.72839582232E+03  0.74039418900E+03  0.47000000000E+01 0.  1.
         -5    1    3    3    0  502 -0.18905533381E+02 -0.22442219331E+02 -0.35494974928E+03  0.35619164352E+03  0.47000000000E+01 0.  1.
        -11    1    1    2    0    0 -0.10265699178E+03  0.40718446343E+02 -0.15463249186E+03  0.19002014991E+03  0.00000000000E+00 0.  1.
         11    1    1    2    0    0 -0.11025927901E+02 -0.22890688573E+02 -0.11099719625E+03  0.11386804769E+03  0.00000000000E+00 0. -1.
<mgrwt>
<rscale>  0 0.16402373E+03</rscale>
<asrwt>0</asrwt>
<pdfrwt beam="2">  1        2 0.21149615E+00 0.16989073E+03</pdfrwt>
<pdfrwt beam="1">  1       -2 0.39614430E-02 0.16989073E+03</pdfrwt>
<totfact> 0.44108686E+03</totfact>
</mgrwt>
</event>
<event>
 7    1  0.5206756E-006  0.1496144E+03  0.7546771E-02  0.1210067E+00
          3   -1    0    0  501    0  0.00000000000E+00  0.00000000000E+00  0.21315183204E+03  0.21315183204E+03  0.00000000000E+00 0. -1.
         -3   -1    0    0    0  501 -0.00000000000E+00 -0.00000000000E+00 -0.14658081233E+03  0.14658081233E+03  0.00000000000E+00 0.  1.
         23    2    1    2    0    0  0.50215965928E+02 -0.65098465274E+02  0.14943389837E+03  0.21145909168E+03  0.12500001623E+03 0.  0.
          5    1    3    3  502    0  0.28965394904E+02 -0.96986260391E+01  0.14875715034E+03  0.15193366061E+03  0.47000000000E+01 0.  1.
         -5    1    3    3    0  502  0.21250571024E+02 -0.55399839235E+02  0.67674802846E+00  0.59525431069E+02  0.47000000000E+01 0.  1.
        -11    1    1    2    0    0 -0.29782244961E+02  0.57618449179E+02 -0.23832475836E+01  0.64904142162E+02  0.00000000000E+00 0. -1.
         11    1    1    2    0    0 -0.20433720967E+02  0.74800160955E+01 -0.80479631078E+02  0.83369410528E+02  0.00000000000E+00 0.  1.
<mgrwt>
<rscale>  0 0.14245234E+03</rscale>
<asrwt>0</asrwt>
<pdfrwt beam="1">  1        3 0.32792590E-01 0.14961436E+03</pdfrwt>
<pdfrwt beam="2">  1       -3 0.22550894E-01 0.14961436E+03</pdfrwt>
<totfact> 0.38746513E+02</totfact>
</mgrwt>
</event>
<event>
 7    1  0.5206756E-006  0.1588372E+03  0.7546771E-02  0.1198206E+00
          1   -1    0    0  501    0  0.00000000000E+00  0.00000000000E+00  0.21352117384E+03  0.21352117384E+03  0.00000000000E+00 0. -1.
         -1   -1    0    0    0  501 -0.00000000000E+00 -0.00000000000E+00 -0.12853937699E+03  0.12853937699E+03  0.00000000000E+00 0.  1.
         23    2    1    2    0    0 -0.65680243131E+01  0.97785682181E+02  0.12644512093E+03  0.20302121706E+03  0.12499626949E+03 0.  0.
          5    1    3    3  502    0  0.86766487182E+00  0.12655095644E+03  0.11425655229E+03  0.17056537503E+03  0.47000000000E+01 0. -1.
         -5    1    3    3    0  502 -0.74356891849E+01 -0.28765274255E+02  0.12188568639E+02  0.32455842033E+02  0.47000000000E+01 0. -1.
        -11    1    1    2    0    0 -0.96556563548E+01 -0.88026735648E+02 -0.64254582006E+02  0.10941018781E+03  0.00000000000E+00 0.  1.
         11    1    1    2    0    0  0.16223680668E+02 -0.97589465334E+01  0.22791257933E+02  0.29629145955E+02  0.00000000000E+00 0. -1.
<mgrwt>
<rscale>  0 0.15185966E+03</rscale>
<asrwt>0</asrwt>
<pdfrwt beam="1">  1        1 0.32849411E-01 0.15883717E+03</pdfrwt>
<pdfrwt beam="2">  1       -1 0.19775289E-01 0.15883717E+03</pdfrwt>
<totfact> 0.27065961E+03</totfact>
</mgrwt>
</event>
<event>
 7    1  0.5206756E-006  0.1286114E+03  0.7546771E-02  0.1244142E+00
          2   -1    0    0  501    0  0.00000000000E+00  0.00000000000E+00  0.56507707248E+03  0.56507707248E+03  0.00000000000E+00 0. -1.
         -2   -1    0    0    0  501 -0.00000000000E+00 -0.00000000000E+00 -0.64406378591E+02  0.64406378591E+02  0.00000000000E+00 0.  1.
         23    2    1    2    0    0 -0.17210712072E+02  0.18841154393E+02  0.51691354915E+03  0.53267298639E+03  0.12605433523E+03 0.  0.
          5    1    3    3  502    0 -0.40837246918E+02  0.62808950059E+02  0.24744216947E+03  0.25857757477E+03  0.47000000000E+01 0. -1.
         -5    1    3    3    0  502  0.23626534846E+02 -0.43967795666E+02  0.26947137969E+03  0.27409541163E+03  0.47000000000E+01 0.  1.
        -11    1    1    2    0    0  0.31306160560E+02 -0.49261922626E+02 -0.22772255822E+02  0.62652919685E+02  0.00000000000E+00 0.  1.
         11    1    1    2    0    0 -0.14095448488E+02  0.30420768233E+02  0.65294005548E+01  0.34157544987E+02  0.00000000000E+00 0. -1.
<mgrwt>
<rscale>  0 0.11936860E+03</rscale>
<asrwt>0</asrwt>
<pdfrwt beam="1">  1        2 0.86934931E-01 0.12861140E+03</pdfrwt>
<pdfrwt beam="2">  1       -2 0.99086740E-02 0.12861140E+03</pdfrwt>
<totfact> 0.35351492E+03</totfact>
</mgrwt>
</event>
<event>
 6    1  0.5206756E-006  0.3384609E+03  0.7546771E-02  0.1117160E+00
          2   -1    0    0  501    0  0.00000000000E+00  0.00000000000E+00  0.12928687292E+04  0.12928687292E+04  0.00000000000E+00 0. -1.
         -2   -1    0    0    0  501 -0.00000000000E+00 -0.00000000000E+00 -0.37358750529E+02  0.37358750529E+02  0.00000000000E+00 0.  1.
          5    1    1    2  502    0  0.86817294254E+02  0.11715763043E+03  0.85700716908E+03  0.86933683391E+03  0.47000000000E+01 0. -1.
         -5    1    1    2    0  502 -0.68771529734E+02 -0.12173506894E+03  0.23059600240E+03  0.26971384213E+03  0.47000000000E+01 0.  1.
        -11    1    1    2    0    0  0.29176306367E+01  0.43654018063E+02  0.57922085813E+02  0.72588937769E+02  0.00000000000E+00 0. -1.
         11    1    1    2    0    0 -0.20963395156E+02 -0.39076579546E+02  0.10998472136E+03  0.11858786589E+03  0.00000000000E+00 0.  1.
<mgrwt>
<rscale>  0 0.24399469E+03</rscale>
<asrwt>0</asrwt>
<pdfrwt beam="1">  1        2 0.19890285E+00 0.33846090E+03</pdfrwt>
<pdfrwt beam="2">  1       -2 0.57475011E-02 0.33846090E+03</pdfrwt>
<totfact> 0.28012726E+03</totfact>
</mgrwt>
</event>
<event>
 7    1  0.5206756E-006  0.1314121E+03  0.7546771E-02  0.1238656E+00
         -2   -1    0    0    0  501 -0.00000000000E+00  0.00000000000E+00  0.17024360919E+02  0.17024360919E+02  0.00000000000E+00 0. -1.
          2   -1    0    0  501    0  0.00000000000E+00 -0.00000000000E+00 -0.79575831350E+03  0.79575831350E+03  0.00000000000E+00 0.  1.
         23    2    1    2    0    0  0.37608209113E+02  0.15147982800E+02 -0.48552377945E+03  0.50299350986E+03  0.12500116707E+03 0.  0.
          5    1    3    3  502    0  0.66882628981E+02  0.40546735387E+02 -0.19979702754E+03  0.21461189628E+03  0.47000000000E+01 0.  1.
         -5    1    3    3    0  502 -0.29274419868E+02 -0.25398752587E+02 -0.28572675192E+03  0.28838161358E+03  0.47000000000E+01 0.  1.
        -11    1    1    2    0    0 -0.36734555213E+02 -0.31121906313E+02 -0.28935539137E+03  0.29333350152E+03  0.00000000000E+00 0.  1.
         11    1    1    2    0    0 -0.87365390002E+00  0.15973923513E+02 -0.38547817500E+01  0.16455663034E+02  0.00000000000E+00 0. -1.
<mgrwt>
<rscale>  0 0.12273284E+03</rscale>
<asrwt>0</asrwt>
<pdfrwt beam="2">  1        2 0.12242434E+00 0.13141206E+03</pdfrwt>
<pdfrwt beam="1">  1       -2 0.26191328E-02 0.13141206E+03</pdfrwt>
<totfact> 0.17565624E+04</totfact>
</mgrwt>
</event>
<event>
 6    1  0.5206756E-006  0.1327860E+03  0.7546771E-02  0.1240323E+00
         -2   -1    0    0    0  501 -0.00000000000E+00  0.00000000000E+00  0.44433869655E+02  0.44433869655E+02  0.00000000000E+00 0.  1.
          2   -1    0    0  501    0  0.00000000000E+00 -0.00000000000E+00 -0.53522643501E+03  0.53522643501E+03  0.00000000000E+00 0. -1.
          5    1    1    2  502    0  0.12865779949E+02  0.44436990560E+02 -0.43430121046E+03  0.43678347706E+03  0.47000000000E+01 0. -1.
         -5    1    1    2    0  502  0.68526860594E+01 -0.33665331690E+02 -0.29103414699E+02  0.45270438602E+02  0.47000000000E+01 0.  1.
        -11    1    1    2    0    0 -0.35417038601E+02  0.31668530501E+02 -0.20856167896E+02  0.51886820935E+02  0.00000000000E+00 0. -1.
         11    1    1    2    0    0  0.15698572592E+02 -0.42440189371E+02 -0.65317722997E+01  0.45719568071E+02  0.00000000000E+00 0.  1.
<mgrwt>
<rscale>  0 0.12169759E+03</rscale>
<asrwt>0</asrwt>
<pdfrwt beam="2">  1        2 0.82342527E-01 0.13278603E+03</pdfrwt>
<pdfrwt beam="1">  1       -2 0.68359800E-02 0.13278603E+03</pdfrwt>
<totfact> 0.66791487E+03</totfact>
</mgrwt>
</event>
<event>
 7    1  0.5206756E-006  0.1291623E+03  0.7546771E-02  0.1242400E+00
          2   -1    0    0  501    0  0.00000000000E+00  0.00000000000E+00  0.20199160754E+04  0.20199160754E+04  0.00000000000E+00 0. -1.
         -2   -1    0    0    0  501 -0.00000000000E+00 -0.00000000000E+00 -0.74988395438E+01  0.74988395438E+01  0.00000000000E+00 0.  1.
         23    2    1    2    0    0 -0.28364504488E+02  0.15886537126E+02  0.15161476076E+04  0.15216393976E+04  0.12500384467E+03 0.  0.
          5    1    3    3  502    0 -0.33811662193E+02  0.35744679062E+02  0.22699869601E+03  0.23231747367E+03  0.47000000000E+01 0.  1.
         -5    1    3    3    0  502  0.54471577050E+01 -0.19858141936E+02  0.12891489115E+04  0.12893219239E+04  0.47000000000E+01 0.  1.
        -11    1    1    2    0    0 -0.17752590898E+02  0.27069949844E+02  0.12125155327E+03  0.12549850931E+03  0.00000000000E+00 0. -1.
         11    1    1    2    0    0  0.46117095386E+02 -0.42956486969E+02  0.37501807503E+03  0.38027700806E+03  0.00000000000E+00 0.  1.
<mgrwt>
<rscale>  0 0.12042363E+03</rscale>
<asrwt>0</asrwt>
<pdfrwt beam="1">  1        2 0.31075589E+00 0.12916226E+03</pdfrwt>
<pdfrwt beam="2">  1       -2 0.11536692E-02 0.12916226E+03</pdfrwt>
<totfact> 0.12280152E+04</totfact>
</mgrwt>
</event>
<event>
 7    1  0.5206756E-006  0.1683726E+03  0.7546771E-02  0.1186248E+00
          1   -1    0    0  501    0  0.00000000000E+00  0.00000000000E+00  0.17948812059E+03  0.17948812059E+03  0.00000000000E+00 0. -1.
         -1   -1    0    0    0  501 -0.00000000000E+00 -0.00000000000E+00 -0.13724659620E+03  0.13724659620E+03  0.00000000000E+00 0.  1.
         23    2    1    2    0    0 -0.10852912494E+03 -0.30760454325E+02  0.13213021608E+02  0.16889021227E+03  0.12499817338E+03 0.  0.
          5    1    3    3  502    0 -0.50885770583E+02  0.43010872237E+02  0.30737766826E+02  0.73526846035E+02  0.47000000000E+01 0. -1.
         -5    1    3    3    0  502 -0.57643354355E+02 -0.73771326562E+02 -0.17524745218E+02  0.95363366232E+02  0.47000000000E+01 0. -1.
        -11    1    1    2    0    0  0.10247465615E+03  0.13293847960E+01 -0.48034631435E+01  0.10259578781E+03  0.00000000000E+00 0.  1.
         11    1    1    2    0    0  0.60544687833E+01  0.29431069529E+02  0.33831965931E+02  0.45248716719E+02  0.00000000000E+00 0. -1.
<mgrwt>
<rscale>  0 0.16218869E+03</rscale>
<asrwt>0</asrwt>
<pdfrwt beam="1">  1        1 0.27613557E-01 0.16837256E+03</pdfrwt>
<pdfrwt beam="2">  1       -1 0.21114861E-01 0.16837256E+03</pdfrwt>
<totfact> 0.30322862E+03</totfact>
</mgrwt>
</event>
<event>
 7    1  0.5206756E-006  0.1753257E+03  0.7546771E-02  0.1180604E+00
          4   -1    0    0  501    0  0.00000000000E+00  0.00000000000E+00  0.31709605076E+03  0.31709605076E+03  0.00000000000E+00 0. -1.
         -4   -1    0    0    0  501 -0.00000000000E+00 -0.00000000000E+00 -0.85080920763E+02  0.85080920763E+02  0.00000000000E+00 0.  1.
         23    2    1    2    0    0 -0.11642026270E+03  0.39507869014E+02  0.16887338781E+03  0.24342823885E+03  0.12499814831E+03 0.  0.
          5    1    3    3  502    0 -0.83865021994E+01  0.63338334813E+02  0.71156307758E+02  0.95746478837E+02  0.47000000000E+01 0.  1.
         -5    1    3    3    0  502 -0.10803376050E+03 -0.23830465799E+02  0.97717080051E+02  0.14768176002E+03  0.47000000000E+01 0.  1.
        -11    1    1    2    0    0  0.53809080117E+02  0.51686411589E+01  0.61410012516E+02  0.81812722676E+02  0.00000000000E+00 0. -1.
         11    1    1    2    0    0  0.62611182581E+02 -0.44676510173E+02  0.17317296679E+01  0.76936009989E+02  0.00000000000E+00 0.  1.
<mgrwt>
<rscale>  0 0.16738350E+03</rscale>
<asrwt>0</asrwt>
<pdfrwt beam="1">  1        4 0.48784007E-01 0.17532566E+03</pdfrwt>
<pdfrwt beam="2">  1       -4 0.13089373E-01 0.17532566E+03</pdfrwt>
<totfact> 0.33961103E+02</totfact>
</mgrwt>
</event>
<event>
 7    1  0.5206756E-006  0.1635259E+03  0.7546771E-02  0.1191968E+00
          1   -1    0    0  501    0  0.00000000000E+00  0.00000000000E+00  0.12362175471E+04  0.12362175471E+04  0.00000000000E+00 0. -1.
         -1   -1    0    0    0  501 -0.00000000000E+00 -0.00000000000E+00 -0.40982423588E+02  0.40982423588E+02  0.00000000000E+00 0.  1.
         23    2    1    2    0    0  0.61824318493E+02 -0.85403299034E+02  0.10908159362E+04  0.11030050391E+04  0.12499895954E+03 0.  0.
          5    1    3    3  502    0  0.55896462932E+02 -0.36197911599E+02  0.20098059841E+03  0.21177817241E+03  0.47000000000E+01 0. -1.
         -5    1    3    3    0  502  0.59278555617E+01 -0.49205387434E+02  0.88983533775E+03  0.89122686670E+03  0.47000000000E+01 0. -1.
        -11    1    1    2    0    0 -0.41465086459E+02 -0.85277760747E+01  0.22683183612E+02  0.48027108789E+02  0.00000000000E+00 0.  1.
         11    1    1    2    0    0 -0.20359232035E+02  0.93931075108E+02  0.81736003750E+02  0.12616782280E+03  0.00000000000E+00 0. -1.
<mgrwt>
<rscale>  0 0.15713694E+03</rscale>
<asrwt>0</asrwt>
<pdfrwt beam="1">  1        1 0.19018729E+00 0.16352587E+03</pdfrwt>
<pdfrwt beam="2">  1       -1 0.63049892E-02 0.16352587E+03</pdfrwt>
<totfact> 0.13421583E+03</totfact>
</mgrwt>
</event>
<event>
 7    1  0.5206756E-006  0.1252576E+03  0.7546771E-02  0.1249772E+00
          2   -1    0    0  501    0  0.00000000000E+00  0.00000000000E+00  0.50357453665E+03  0.50357453665E+03  0.00000000000E+00 0. -1.
         -2   -1    0    0    0  501 -0.00000000000E+00 -0.00000000000E+00 -0.25750402348E+02  0.25750402348E+02  0.00000000000E+00 0.  1.
         23    2    1    2    0    0 -0.20990079538E+01  0.77304052357E+01  0.34953354867E+03  0.37129930311E+03  0.12500122337E+03 0.  0.
          5    1    3    3  502    0 -0.64691898081E+01 -0.50522848642E+02  0.25495030282E+03  0.26003106652E+03  0.47000000000E+01 0. -1.
         -5    1    3    3    0  502  0.43701818543E+01  0.58253253878E+02  0.94583245857E+02  0.11126823659E+03  0.47000000000E+01 0. -1.
        -11    1    1    2    0    0  0.39456937118E+02  0.20681261017E+02  0.52209846610E+02  0.68632590852E+02  0.00000000000E+00 0. -1.
         11    1    1    2    0    0 -0.37357929164E+02 -0.28411666253E+02  0.76080739019E+02  0.89393045033E+02  0.00000000000E+00 0.  1.
<mgrwt>
<rscale>  0 0.11604260E+03</rscale>
<asrwt>0</asrwt>
<pdfrwt beam="1">  1        2 0.77472998E-01 0.12525762E+03</pdfrwt>
<pdfrwt beam="2">  1       -2 0.39616007E-02 0.12525762E+03</pdfrwt>
<totfact> 0.16154317E+04</totfact>
</mgrwt>
</event>
<event>
 7    1  0.5206756E-006  0.1634460E+03  0.7546771E-02  0.1192832E+00
         -2   -1    0    0    0  501 -0.00000000000E+00  0.00000000000E+00  0.57704323597E+02  0.57704323597E+02  0.00000000000E+00 0.  1.
          2   -1    0    0  501    0  0.00000000000E+00 -0.00000000000E+00 -0.41442340513E+03  0.41442340513E+03  0.00000000000E+00 0. -1.
         23    2    1    2    0    0 -0.98899971072E+02  0.36151190877E+02 -0.24899182499E+03  0.29784481438E+03  0.12500596649E+03 0.  0.
          5    1    3    3  502    0 -0.72250997760E+02  0.10153003123E+02 -0.24983168346E+03  0.26030991186E+03  0.47000000000E+01 0. -1.
         -5    1    3    3    0  502 -0.26648973312E+02  0.25998187754E+02  0.83985846705E+00  0.37534902522E+02  0.47000000000E+01 0. -1.
        -11    1    1    2    0    0  0.45188042921E+02 -0.61484583048E+02 -0.72384893037E+02  0.10517550055E+03  0.00000000000E+00 0.  1.
         11    1    1    2    0    0  0.53711928151E+02  0.25333392171E+02 -0.35342363505E+02  0.69107413804E+02  0.00000000000E+00 0. -1.
<mgrwt>
<rscale>  0 0.15639109E+03</rscale>
<asrwt>0</asrwt>
<pdfrwt beam="2">  1        2 0.63757446E-01 0.16344603E+03</pdfrwt>
<pdfrwt beam="1">  1       -2 0.88775884E-02 0.16344603E+03</pdfrwt>
<totfact> 0.59682311E+03</totfact>
</mgrwt>
</event>
<event>
 7    1  0.5206756E-006  0.1457683E+03  0.7546771E-02  0.1216952E+00
         -3   -1    0    0    0  501 -0.00000000000E+00  0.00000000000E+00  0.24794603263E+03  0.24794603263E+03  0.00000000000E+00 0.  1.
          3   -1    0    0  501    0  0.00000000000E+00 -0.00000000000E+00 -0.68568255324E+02  0.68568255324E+02  0.00000000000E+00 0. -1.
         23    2    1    2    0    0  0.68101602620E+02 -0.25432469282E+02  0.95224141511E+02  0.17411503241E+03  0.12634780810E+03 0.  0.
          5    1    3    3  502    0 -0.39521301501E+01 -0.59779013499E+02  0.17464498976E+02  0.62579936978E+02  0.47000000000E+01 0. -1.
         -5    1    3    3    0  502  0.72053732770E+02  0.34346544217E+02  0.77759642535E+02  0.11153509543E+03  0.47000000000E+01 0.  1.
        -11    1    1    2    0    0 -0.54135294355E+02  0.42781525310E+02  0.95170516735E+02  0.11755133457E+03  0.00000000000E+00 0.  1.
         11    1    1    2    0    0 -0.13966308265E+02 -0.17349056027E+02 -0.11016880937E+02  0.24847920983E+02  0.00000000000E+00 0. -1.
<mgrwt>
<rscale>  0 0.13734141E+03</rscale>
<asrwt>0</asrwt>
<pdfrwt beam="2">  1        3 0.10548962E-01 0.14576833E+03</pdfrwt>
<pdfrwt beam="1">  1       -3 0.38145543E-01 0.14576833E+03</pdfrwt>
<totfact> 0.10707562E+03</totfact>
</mgrwt>
</event>
<event>
 7    1  0.5206756E-006  0.1668090E+03  0.7546771E-02  0.1189753E+00
         -3   -1    0    0    0  501 -0.00000000000E+00  0.00000000000E+00  0.90218991996E+02  0.90218991996E+02  0.00000000000E+00 0. -1.
          3   -1    0    0  501    0  0.00000000000E+00 -0.00000000000E+00 -0.27888678757E+03  0.27888678757E+03  0.00000000000E+00 0.  1.
         23    2    1    2    0    0  0.76469775322E+02 -0.79685035772E+02 -0.15366043371E+03  0.22679675442E+03  0.12501162932E+03 0.  0.
          5    1    3    3  502    0 -0.13098881329E+02  0.12369141841E+01 -0.88394520914E+02  0.89491854246E+02  0.47000000000E+01 0.  1.
         -5    1    3    3    0  502  0.89568656651E+02 -0.80921949956E+02 -0.65265912792E+02  0.13730490017E+03  0.47000000000E+01 0.  1.
        -11    1    1    2    0    0 -0.75239101735E+01  0.55036380470E+02 -0.40708501931E+02  0.68867949940E+02  0.00000000000E+00 0.  1.
         11    1    1    2    0    0 -0.68945865148E+02  0.24648655302E+02  0.57011400643E+01  0.73441075205E+02  0.00000000000E+00 0. -1.
<mgrwt>
<rscale>  0 0.15906843E+03</rscale>
<asrwt>0</asrwt>
<pdfrwt beam="2">  1        3 0.42905659E-01 0.16680899E+03</pdfrwt>
<pdfrwt beam="1">  1       -3 0.13879845E-01 0.16680899E+03</pdfrwt>
<totfact> 0.54810998E+02</totfact>
</mgrwt>
</event>
<event>
 7    1  0.5206756E-006  0.1254221E+03  0.7546771E-02  0.1244750E+00
          2   -1    0    0  501    0  0.00000000000E+00  0.00000000000E+00  0.16446657470E+03  0.16446657470E+03  0.00000000000E+00 0. -1.
         -2   -1    0    0    0  501 -0.00000000000E+00 -0.00000000000E+00 -0.92812975199E+02  0.92812975199E+02  0.00000000000E+00 0.  1.
         23    2    1    2    0    0 -0.32261333511E+01 -0.97754177687E+01  0.89487391542E+02  0.15407364362E+03  0.12499891074E+03 0.  0.
          5    1    3    3  502    0  0.19704741184E+02  0.51416354109E+02  0.61918607051E+02  0.82993506940E+02  0.47000000000E+01 0. -1.
         -5    1    3    3    0  502 -0.22930874535E+02 -0.61191771878E+02  0.27568784491E+02  0.71080136683E+02  0.47000000000E+01 0. -1.
        -11    1    1    2    0    0 -0.12978618523E+02 -0.10809968031E+02 -0.55112167742E+02  0.57642440795E+02  0.00000000000E+00 0.  1.
         11    1    1    2    0    0  0.16204751874E+02  0.20585385800E+02  0.37278375700E+02  0.45563465481E+02  0.00000000000E+00 0. -1.
<mgrwt>
<rscale>  0 0.11900383E+03</rscale>
<asrwt>0</asrwt>
<pdfrwt beam="1">  1        2 0.25302550E-01 0.12542207E+03</pdfrwt>
<pdfrwt beam="2">  1       -2 0.14278919E-01 0.12542207E+03</pdfrwt>
<totfact> 0.74261969E+03</totfact>
</mgrwt>
</event>
<event>
 7    1  0.5206756E-006  0.1269670E+03  0.7546771E-02  0.1248375E+00
         -3   -1    0    0    0  501 -0.00000000000E+00  0.00000000000E+00  0.16589885820E+03  0.16589885820E+03  0.00000000000E+00 0.  1.
          3   -1    0    0  501    0  0.00000000000E+00 -0.00000000000E+00 -0.74657801950E+02  0.74657801950E+02  0.00000000000E+00 0. -1.
         23    2    1    2    0    0 -0.21763531454E+02  0.47428543488E+01  0.29046761039E+02  0.13024717058E+03  0.12499786058E+03 0.  0.
          5    1    3    3  502    0  0.21455970341E+02  0.52301068494E+02 -0.57509104188E+01  0.57016869430E+02  0.47000000000E+01 0. -1.
         -5    1    3    3    0  502 -0.43219501795E+02 -0.47558214146E+02  0.34797671458E+02  0.73230301153E+02  0.47000000000E+01 0. -1.
        -11    1    1    2    0    0  0.11354536908E+02 -0.44091838084E+02  0.50426511726E+02  0.67940038114E+02  0.00000000000E+00 0.  1.
         11    1    1    2    0    0  0.10408994546E+02  0.39348983736E+02  0.11767783490E+02  0.42369451457E+02  0.00000000000E+00 0. -1.
<mgrwt>
<rscale>  0 0.11685658E+03</rscale>
<asrwt>0</asrwt>
<pdfrwt beam="2">  1        3 0.11485816E-01 0.12696697E+03</pdfrwt>
<pdfrwt beam="1">  1       -3 0.25522901E-01 0.12696697E+03</pdfrwt>
<totfact> 0.19180142E+03</totfact>
</mgrwt>
</event>
<event>
 7    1  0.8622629E-006  0.1801353E+03  0.7546771E-02  0.1173222E+00
          1   -1    0    0  501    0  0.00000000000E+00  0.00000000000E+00  0.13788542897E+04  0.13788542897E+04  0.00000000000E+00 0. -1.
         -1   -1    0    0    0  501 -0.00000000000E+00 -0.00000000000E+00 -0.23159720803E+02  0.23159720803E+02  0.00000000000E+00 0.  1.
         23    2    1    2    0    0 -0.12854489020E+03 -0.17308672243E+02  0.93915718767E+03  0.95627660875E+03  0.12500140142E+03 0.  0.
          5    1    3    3  502    0 -0.10184229253E+03 -0.55665209957E+02  0.44565884599E+03  0.46054789670E+03  0.47000000000E+01 0.  1.
         -5    1    3    3    0  502 -0.26702597677E+02  0.38356537714E+02  0.49349834168E+03  0.49572871205E+03  0.47000000000E+01 0.  1.
        -11    1    1    2    0    0  0.41024903750E+02  0.33940582486E+02  0.70096471097E+02  0.88025684476E+02  0.00000000000E+00 0.  1.
         11    1    1    2    0    0  0.87519986455E+02 -0.16631910243E+02  0.34644091017E+03  0.35771171732E+03  0.00000000000E+00 0. -1.
<mgrwt>
<rscale>  0 0.17451298E+03</rscale>
<asrwt>0</asrwt>
<pdfrwt beam="1">  1        1 0.21213137E+00 0.18013531E+03</pdfrwt>
<pdfrwt beam="2">  1       -1 0.35630350E-02 0.18013531E+03</pdfrwt>
<totfact> 0.25128633E+03</totfact>
</mgrwt>
</event>
<event>
 7    1  0.5206756E-006  0.1256546E+03  0.7546771E-02  0.1250201E+00
          1   -1    0    0  501    0  0.00000000000E+00  0.00000000000E+00  0.11013636510E+03  0.11013636510E+03  0.00000000000E+00 0. -1.
         -1   -1    0    0    0  501 -0.00000000000E+00 -0.00000000000E+00 -0.16948687866E+03  0.16948687866E+03  0.00000000000E+00 0.  1.
         23    2    1    2    0    0 -0.12192686690E+02 -0.37581372888E+01  0.52060397703E+02  0.13601234397E+03  0.12500514989E+03 0.  0.
          5    1    3    3  502    0  0.40827067579E+02  0.36536437102E+02  0.40417045899E+02  0.68245060498E+02  0.47000000000E+01 0.  1.
         -5    1    3    3    0  502 -0.53019754268E+02 -0.40294574391E+02  0.11643351804E+02  0.67767283472E+02  0.47000000000E+01 0.  1.
        -11    1    1    2    0    0  0.12501291248E+01  0.37435214867E+02 -0.99393702138E+02  0.10621707094E+03  0.00000000000E+00 0.  1.
         11    1    1    2    0    0  0.10942557565E+02 -0.33677077578E+02 -0.12017209128E+02  0.37393828842E+02  0.00000000000E+00 0. -1.
<mgrwt>
<rscale>  0 0.11579448E+03</rscale>
<asrwt>0</asrwt>
<pdfrwt beam="1">  1        1 0.16944056E-01 0.12565458E+03</pdfrwt>
<pdfrwt beam="2">  1       -1 0.26074904E-01 0.12565458E+03</pdfrwt>
<totfact> 0.39308574E+03</totfact>
</mgrwt>
</event>
<event>
 7    1  0.5206756E-006  0.1689716E+03  0.7546771E-02  0.1181170E+00
          1   -1    0    0  501    0  0.00000000000E+00  0.00000000000E+00  0.11561792078E+04  0.11561792078E+04  0.00000000000E+00 0. -1.
         -1   -1    0    0    0  501 -0.00000000000E+00 -0.00000000000E+00 -0.83345958853E+02  0.83345958853E+02  0.00000000000E+00 0.  1.
         23    2    1    2    0    0 -0.10777593094E+03  0.66921568165E+02  0.10653792845E+04  0.10786957073E+04  0.11161210300E+03 0.  0.
          5    1    3    3  502    0 -0.95292673307E+02  0.75004855280E+02  0.10492991657E+04  0.10562941120E+04  0.47000000000E+01 0. -1.
         -5    1    3    3    0  502 -0.12483257630E+02 -0.80832871151E+01  0.16080118806E+02  0.22401595310E+02  0.47000000000E+01 0.  1.
        -11    1    1    2    0    0  0.60394084301E+02  0.84600052238E+01  0.31451052971E+02  0.68616221405E+02  0.00000000000E+00 0.  1.
         11    1    1    2    0    0  0.47381846637E+02 -0.75381573388E+02 -0.23997088514E+02  0.92213237956E+02  0.00000000000E+00 0. -1.
<mgrwt>
<rscale>  0 0.16685337E+03</rscale>
<asrwt>0</asrwt>
<pdfrwt beam="1">  1        1 0.17787371E+00 0.16897162E+03</pdfrwt>
<pdfrwt beam="2">  1       -1 0.12822456E-01 0.16897162E+03</pdfrwt>
<totfact> 0.51555571E+02</totfact>
</mgrwt>
</event>
<event>
 7    1  0.5206756E-006  0.1524420E+03  0.7546771E-02  0.1206182E+00
         -1   -1    0    0    0  501 -0.00000000000E+00  0.00000000000E+00  0.45886025569E+02  0.45886025569E+02  0.00000000000E+00 0.  1.
          1   -1    0    0  501    0  0.00000000000E+00 -0.00000000000E+00 -0.42559019646E+03  0.42559019646E+03  0.00000000000E+00 0. -1.
         23    2    1    2    0    0 -0.13666003702E+01  0.87238178142E+02 -0.22436936923E+03  0.27125665437E+03  0.12500476538E+03 0.  0.
          5    1    3    3  502    0  0.32322742887E+02  0.33671309074E+02 -0.10363758969E+02  0.48041797036E+02  0.47000000000E+01 0. -1.
         -5    1    3    3    0  502 -0.33689343257E+02  0.53566869068E+02 -0.21400561026E+03  0.22321485733E+03  0.47000000000E+01 0. -1.
        -11    1    1    2    0    0  0.24890872879E+02 -0.58568192430E+02 -0.14975600244E+03  0.16271646808E+03  0.00000000000E+00 0. -1.
         11    1    1    2    0    0 -0.23524272509E+02 -0.28669985712E+02 -0.55787992264E+01  0.37503099587E+02  0.00000000000E+00 0.  1.
<mgrwt>
<rscale>  0 0.14544677E+03</rscale>
<asrwt>0</asrwt>
<pdfrwt beam="2">  1        1 0.65475416E-01 0.15244198E+03</pdfrwt>
<pdfrwt beam="1">  1       -1 0.70593885E-02 0.15244198E+03</pdfrwt>
<totfact> 0.56337737E+03</totfact>
</mgrwt>
</event>
<event>
 7    1  0.5206756E-006  0.1257150E+03  0.7546771E-02  0.1249609E+00
          3   -1    0    0  501    0  0.00000000000E+00  0.00000000000E+00  0.16541036467E+03  0.16541036467E+03  0.00000000000E+00 0. -1.
         -3   -1    0    0    0  501 -0.00000000000E+00 -0.00000000000E+00 -0.86284776564E+02  0.86284776564E+02  0.00000000000E+00 0.  1.
         23    2    1    2    0    0 -0.26837893847E+01  0.12982830394E+02  0.96520011329E+02  0.15849407165E+03  0.12501400542E+03 0.  0.
          5    1    3    3  502    0 -0.60985265239E+00  0.45427650660E+02 -0.10228625839E+02  0.46805535478E+02  0.47000000000E+01 0. -1.
         -5    1    3    3    0  502 -0.20739367323E+01 -0.32444820267E+02  0.10674863717E+03  0.11168853618E+03  0.47000000000E+01 0. -1.
        -11    1    1    2    0    0 -0.25087958706E+02 -0.88495174460E+00  0.28645864068E+02  0.38089031752E+02  0.00000000000E+00 0. -1.
         11    1    1    2    0    0  0.27771748091E+02 -0.12097878649E+02 -0.46040287291E+02  0.55112037829E+02  0.00000000000E+00 0.  1.
<mgrwt>
<rscale>  0 0.11613707E+03</rscale>
<asrwt>0</asrwt>
<pdfrwt beam="1">  1        3 0.25447748E-01 0.12571499E+03</pdfrwt>
<pdfrwt beam="2">  1       -3 0.13274581E-01 0.12571499E+03</pdfrwt>
<totfact> 0.15099841E+03</totfact>
</mgrwt>
</event>
<event>
 7    1  0.5206756E-006  0.1375969E+03  0.7546771E-02  0.1228206E+00
         -3   -1    0    0    0  501 -0.00000000000E+00  0.00000000000E+00  0.34519746786E+02  0.34519746786E+02  0.00000000000E+00 0.  1.
          3   -1    0    0  501    0  0.00000000000E+00 -0.00000000000E+00 -0.64871389170E+03  0.64871389170E+03  0.00000000000E+00 0. -1.
         23    2    1    2    0    0 -0.41007812196E+02 -0.40255587736E+02 -0.52642549784E+03  0.54411094139E+03  0.12502303292E+03 0.  0.
          5    1    3    3  502    0 -0.78017226080E+02  0.30075146111E+01 -0.35135115514E+03  0.35995202031E+03  0.47000000000E+01 0.  1.
         -5    1    3    3    0  502  0.37009413883E+02 -0.43263102347E+02 -0.17507434270E+03  0.18415892108E+03  0.47000000000E+01 0.  1.
        -11    1    1    2    0    0  0.58789363671E+02  0.27568027016E+02 -0.20033440963E+02  0.67952366782E+02  0.00000000000E+00 0.  1.
         11    1    1    2    0    0 -0.17781551475E+02  0.12687560720E+02 -0.67735206109E+02  0.71170330311E+02  0.00000000000E+00 0. -1.
<mgrwt>
<rscale>  0 0.12949578E+03</rscale>
<asrwt>0</asrwt>
<pdfrwt beam="2">  1        3 0.99802128E-01 0.13759692E+03</pdfrwt>
<pdfrwt beam="1">  1       -3 0.53107307E-02 0.13759692E+03</pdfrwt>
<totfact> 0.43901755E+02</totfact>
</mgrwt>
</event>
<event>
 6    1  0.5206756E-006  0.2282918E+03  0.7546771E-02  0.1149734E+00
         -1   -1    0    0    0  501 -0.00000000000E+00  0.00000000000E+00  0.53639964642E+02  0.53639964642E+02  0.00000000000E+00 0.  1.
          1   -1    0    0  501    0  0.00000000000E+00 -0.00000000000E+00 -0.77563268074E+03  0.77563268074E+03  0.00000000000E+00 0. -1.
          5    1    1    2  502    0 -0.24649154688E+02 -0.15896493854E+02 -0.43780679079E+03  0.43881334916E+03  0.47000000000E+01 0. -1.
         -5    1    1    2    0  502  0.74264015158E+02  0.10230420142E+03 -0.18155082653E+03  0.22127830031E+03  0.47000000000E+01 0.  1.
        -11    1    1    2    0    0 -0.71861427421E+02 -0.54495007677E+02 -0.92043396132E+02  0.12886332831E+03  0.00000000000E+00 0. -1.
         11    1    1    2    0    0  0.22246566951E+02 -0.31912699887E+02 -0.10591702650E+02  0.40317667594E+02  0.00000000000E+00 0.  1.
<mgrwt>
<rscale>  0 0.20000564E+03</rscale>
<asrwt>0</asrwt>
<pdfrwt beam="2">  1        1 0.11932811E+00 0.22829176E+03</pdfrwt>
<pdfrwt beam="1">  1       -1 0.82523022E-02 0.22829176E+03</pdfrwt>
<totfact> 0.19777110E+03</totfact>
</mgrwt>
</event>
<event>
 7    1  0.5206756E-006  0.2287398E+03  0.7546771E-02  0.1130835E+00
          2   -1    0    0  501    0  0.00000000000E+00  0.00000000000E+00  0.14922252427E+04  0.14922252427E+04  0.00000000000E+00 0. -1.
         -2   -1    0    0    0  501 -0.00000000000E+00 -0.00000000000E+00 -0.36878081402E+02  0.36878081402E+02  0.00000000000E+00 0.  1.
         23    2    1    2    0    0  0.85502484988E+02 -0.17140074116E+03  0.10204676476E+04  0.10457897127E+04  0.12503205384E+03 0.  0.
          5    1    3    3  502    0 -0.17920673518E+02 -0.73609707566E+02  0.21934754239E+03  0.23210983163E+03  0.47000000000E+01 0. -1.
         -5    1    3    3    0  502  0.10342315851E+03 -0.97791033593E+02  0.80112010517E+03  0.81367988108E+03  0.47000000000E+01 0. -1.
        -11    1    1    2    0    0 -0.52061500840E+02  0.10635063216E+03  0.35855292997E+03  0.37759907365E+03  0.00000000000E+00 0. -1.
         11    1    1    2    0    0 -0.33440984148E+02  0.65050108994E+02  0.76326583786E+02  0.10571453776E+03  0.00000000000E+00 0.  1.
<mgrwt>
<rscale>  0 0.22413877E+03</rscale>
<asrwt>0</asrwt>
<pdfrwt beam="1">  1        2 0.22957307E+00 0.22873982E+03</pdfrwt>
<pdfrwt beam="2">  1       -2 0.56735521E-02 0.22873982E+03</pdfrwt>
<totfact> 0.22238181E+03</totfact>
</mgrwt>
</event>
<event>
 6    1  0.5206756E-006  0.1334146E+03  0.7546771E-02  0.1238650E+00
         -1   -1    0    0    0  501 -0.00000000000E+00  0.00000000000E+00  0.14237885093E+02  0.14237885093E+02  0.00000000000E+00 0.  1.
          1   -1    0    0  501    0  0.00000000000E+00 -0.00000000000E+00 -0.10498865417E+04  0.10498865417E+04  0.00000000000E+00 0. -1.
          5    1    1    2  502    0 -0.22964967609E+02 -0.18719967945E+02 -0.60464491228E+03  0.60538862467E+03  0.47000000000E+01 0. -1.
         -5    1    1    2    0  502  0.51139869167E+02  0.33828200286E+02 -0.17270169752E+03  0.18332375645E+03  0.47000000000E+01 0.  1.
        -11    1    1    2    0    0  0.16812367944E+02 -0.26516197321E+02 -0.33676860871E+02  0.46042321775E+02  0.00000000000E+00 0.  1.
         11    1    1    2    0    0 -0.44987269503E+02  0.11407964980E+02 -0.22462518593E+03  0.22936972389E+03  0.00000000000E+00 0. -1.
<mgrwt>
<rscale>  0 0.12273614E+03</rscale>
<asrwt>0</asrwt>
<pdfrwt beam="2">  1        1 0.16152101E+00 0.13341465E+03</pdfrwt>
<pdfrwt beam="1">  1       -1 0.21904438E-02 0.13341465E+03</pdfrwt>
<totfact> 0.85181490E+03</totfact>
</mgrwt>
</event>
<event>
 7    1  0.5206756E-006  0.1334580E+03  0.7546771E-02  0.1234652E+00
         -1   -1    0    0    0  501 -0.00000000000E+00  0.00000000000E+00  0.20196909964E+02  0.20196909964E+02  0.00000000000E+00 0.  1.
          1   -1    0    0  501    0  0.00000000000E+00 -0.00000000000E+00 -0.89182317585E+03  0.89182317585E+03  0.00000000000E+00 0. -1.
         23    2    1    2    0    0 -0.40658699230E+02 -0.23084226116E+02 -0.69124142227E+03  0.70400691463E+03  0.12500008265E+03 0.  0.
          5    1    3    3  502    0  0.35253862935E+02 -0.14823604234E+02 -0.43192898051E+03  0.43364421857E+03  0.47000000000E+01 0. -1.
         -5    1    3    3    0  502 -0.75912562166E+02 -0.82606218821E+01 -0.25931244176E+03  0.27036269606E+03  0.47000000000E+01 0. -1.
        -11    1    1    2    0    0  0.49104772073E+01  0.28799215447E+02 -0.58902424405E+01  0.29802727270E+02  0.00000000000E+00 0.  1.
         11    1    1    2    0    0  0.35748222023E+02 -0.57149893310E+01 -0.17449460117E+03  0.17821044391E+03  0.00000000000E+00 0. -1.
<mgrwt>
<rscale>  0 0.12526720E+03</rscale>
<asrwt>0</asrwt>
<pdfrwt beam="2">  1        1 0.13720359E+00 0.13345798E+03</pdfrwt>
<pdfrwt beam="1">  1       -1 0.31072165E-02 0.13345798E+03</pdfrwt>
<totfact> 0.67204283E+03</totfact>
</mgrwt>
</event>
<event>
 7    1  0.5206756E-006  0.1286598E+03  0.7546771E-02  0.1243728E+00
          1   -1    0    0  501    0  0.00000000000E+00  0.00000000000E+00  0.25799647852E+02  0.25799647852E+02  0.00000000000E+00 0. -1.
         -1   -1    0    0    0  501 -0.00000000000E+00 -0.00000000000E+00 -0.49146726830E+03  0.49146726830E+03  0.00000000000E+00 0.  1.
         23    2    1    2    0    0  0.29155569067E+02 -0.84796561034E+01 -0.25082373127E+03  0.28189694569E+03  0.12502556557E+03 0.  0.
          5    1    3    3  502    0  0.74527377097E+02 -0.26480813462E+02 -0.16541506584E+03  0.18341155205E+03  0.47000000000E+01 0. -1.
         -5    1    3    3    0  502 -0.45371808030E+02  0.18001157359E+02 -0.85408665422E+02  0.98485393635E+02  0.47000000000E+01 0. -1.
        -11    1    1    2    0    0 -0.56171652538E+02 -0.17134861876E+02 -0.12448060280E+03  0.13763821603E+03  0.00000000000E+00 0. -1.
         11    1    1    2    0    0  0.27016083472E+02  0.25614517979E+02 -0.90363286384E+02  0.97731754428E+02  0.00000000000E+00 0.  1.
<mgrwt>
<rscale>  0 0.11961834E+03</rscale>
<asrwt>0</asrwt>
<pdfrwt beam="1">  1        1 0.39691766E-02 0.12865980E+03</pdfrwt>
<pdfrwt beam="2">  1       -1 0.75610348E-01 0.12865980E+03</pdfrwt>
<totfact> 0.40243341E+03</totfact>
</mgrwt>
</event>
<event>
 7    1  0.5206756E-006  0.1446639E+03  0.7546771E-02  0.1217643E+00
          1   -1    0    0  501    0  0.00000000000E+00  0.00000000000E+00  0.75763400799E+03  0.75763400799E+03  0.00000000000E+00 0. -1.
         -1   -1    0    0    0  501 -0.00000000000E+00 -0.00000000000E+00 -0.40202377262E+02  0.40202377262E+02  0.00000000000E+00 0.  1.
         23    2    1    2    0    0  0.64583103751E+02  0.33648744051E+02  0.64546383356E+03  0.66147653674E+03  0.12499773180E+03 0.  0.
          5    1    3    3  502    0  0.27625289927E+02  0.66586278392E+02  0.54075573229E+03  0.54556002522E+03  0.47000000000E+01 0. -1.
         -5    1    3    3    0  502  0.36957813823E+02 -0.32937534341E+02  0.10470810127E+03  0.11591651152E+03  0.47000000000E+01 0. -1.
        -11    1    1    2    0    0 -0.25366944569E+02 -0.59474982875E+02  0.23290194897E+02  0.68725458479E+02  0.00000000000E+00 0.  1.
         11    1    1    2    0    0 -0.39216159181E+02  0.25826238824E+02  0.48677602272E+02  0.67634390037E+02  0.00000000000E+00 0. -1.
<mgrwt>
<rscale>  0 0.13684141E+03</rscale>
<asrwt>0</asrwt>
<pdfrwt beam="1">  1        1 0.11655907E+00 0.14466391E+03</pdfrwt>
<pdfrwt beam="2">  1       -1 0.61849817E-02 0.14466391E+03</pdfrwt>
<totfact> 0.31354189E+03</totfact>
</mgrwt>
</event>
<event>
 7    1  0.5206756E-006  0.1347981E+03  0.7546771E-02  0.1232632E+00
         -2   -1    0    0    0  501 -0.00000000000E+00  0.00000000000E+00  0.21231297316E+03  0.21231297316E+03  0.00000000000E+00 0.  1.
          2   -1    0    0  501    0  0.00000000000E+00 -0.00000000000E+00 -0.73201136947E+02  0.73201136947E+02  0.00000000000E+00 0. -1.
         23    2    1    2    0    0  0.71204734432E+01  0.49949279605E+02  0.38364002112E+02  0.14015107999E+03  0.12499958756E+03 0.  0.
          5    1    3    3  502    0  0.23411394612E+02  0.11528289257E+02 -0.41887903655E+02  0.49575007045E+02  0.47000000000E+01 0.  1.
         -5    1    3    3    0  502 -0.16290921169E+02  0.38420990348E+02  0.80251905767E+02  0.90576072950E+02  0.47000000000E+01 0.  1.
        -11    1    1    2    0    0  0.34879279038E+02 -0.11045314821E+02  0.97650139940E+01  0.37867117450E+02  0.00000000000E+00 0. -1.
         11    1    1    2    0    0 -0.41999752481E+02 -0.38903964783E+02  0.90982820108E+02  0.10749591266E+03  0.00000000000E+00 0.  1.
<mgrwt>
<rscale>  0 0.12657255E+03</rscale>
<asrwt>0</asrwt>
<pdfrwt beam="2">  1        2 0.11261713E-01 0.13479810E+03</pdfrwt>
<pdfrwt beam="1">  1       -2 0.32663534E-01 0.13479810E+03</pdfrwt>
<totfact> 0.46007550E+03</totfact>
</mgrwt>
</event>
<event>
 7    1  0.5206756E-006  0.1272310E+03  0.7546771E-02  0.1261661E+00
         -2   -1    0    0    0  501 -0.00000000000E+00  0.00000000000E+00  0.78572518918E+01  0.78572518918E+01  0.00000000000E+00 0. -1.
          2   -1    0    0  501    0  0.00000000000E+00 -0.00000000000E+00 -0.17519685604E+04  0.17519685604E+04  0.00000000000E+00 0.  1.
         23    2    1    2    0    0 -0.18322691288E+02 -0.15059376000E+02 -0.15162088894E+04  0.15215377511E+04  0.12500090386E+03 0.  0.
          5    1    3    3  502    0 -0.48230537932E+02  0.24071783408E+02 -0.33911805236E+03  0.34340759890E+03  0.47000000000E+01 0.  1.
         -5    1    3    3    0  502  0.29907846645E+02 -0.39131159407E+02 -0.11770908370E+04  0.11781301522E+04  0.47000000000E+01 0.  1.
        -11    1    1    2    0    0 -0.23968769706E+02  0.11798250082E+02 -0.10158348182E+03  0.10503763328E+03  0.00000000000E+00 0. -1.
         11    1    1    2    0    0  0.42291460993E+02  0.32611259178E+01 -0.12631893723E+03  0.13325042784E+03  0.00000000000E+00 0.  1.
<mgrwt>
<rscale>  0 0.10941311E+03</rscale>
<asrwt>0</asrwt>
<pdfrwt beam="2">  1        2 0.26953362E+00 0.12723102E+03</pdfrwt>
<pdfrwt beam="1">  1       -2 0.12088080E-02 0.12723102E+03</pdfrwt>
<totfact> 0.15719608E+04</totfact>
</mgrwt>
</event>
<event>
 7    1  0.5206756E-006  0.1287983E+03  0.7546771E-02  0.1243930E+00
          2   -1    0    0  501    0  0.00000000000E+00  0.00000000000E+00  0.11685958085E+03  0.11685958085E+03  0.00000000000E+00 0. -1.
         -2   -1    0    0    0  501 -0.00000000000E+00 -0.00000000000E+00 -0.10888761940E+03  0.10888761940E+03  0.00000000000E+00 0.  1.
         23    2    1    2    0    0  0.45177910802E+00 -0.31029324216E+02  0.16889280659E+02  0.12990094745E+03  0.12500394106E+03 0.  0.
          5    1    3    3  502    0  0.26072639665E+01 -0.47177514097E+01 -0.53812152336E+02  0.54285290298E+02  0.47000000000E+01 0.  1.
         -5    1    3    3    0  502 -0.21554848584E+01 -0.26311572807E+02  0.70701432995E+02  0.75615657149E+02  0.47000000000E+01 0.  1.
        -11    1    1    2    0    0 -0.40123796001E+02  0.28406444789E+02  0.12444834498E+02  0.50712119032E+02  0.00000000000E+00 0.  1.
         11    1    1    2    0    0  0.39672016893E+02  0.26228794277E+01 -0.21362153704E+02  0.45134133776E+02  0.00000000000E+00 0. -1.
<mgrwt>
<rscale>  0 0.11949631E+03</rscale>
<asrwt>0</asrwt>
<pdfrwt beam="1">  1        2 0.17978397E-01 0.12879832E+03</pdfrwt>
<pdfrwt beam="2">  1       -2 0.16751941E-01 0.12879832E+03</pdfrwt>
<totfact> 0.84022285E+03</totfact>
</mgrwt>
</event>
<event>
 7    1  0.5206756E-006  0.1468830E+03  0.7546771E-02  0.1214413E+00
         -1   -1    0    0    0  501 -0.00000000000E+00  0.00000000000E+00  0.45790021799E+02  0.45790021799E+02  0.00000000000E+00 0.  1.
          1   -1    0    0  501    0  0.00000000000E+00 -0.00000000000E+00 -0.39596987543E+03  0.39596987543E+03  0.00000000000E+00 0. -1.
         23    2    1    2    0    0 -0.40090539941E+02  0.65896108563E+02 -0.23078311309E+03  0.27356070644E+03  0.12500026521E+03 0.  0.
          5    1    3    3  502    0 -0.46047162589E+02 -0.54576865103E+01 -0.17926814591E+03  0.18522765901E+03  0.47000000000E+01 0.  1.
         -5    1    3    3    0  502  0.59566226481E+01  0.71353795073E+02 -0.51514967185E+02  0.88333047433E+02  0.47000000000E+01 0.  1.
        -11    1    1    2    0    0 -0.15496699176E+01 -0.28576330127E+02  0.74521469175E+01  0.29572666672E+02  0.00000000000E+00 0.  1.
         11    1    1    2    0    0  0.41640209859E+02 -0.37319778436E+02 -0.12684888745E+03  0.13862652411E+03  0.00000000000E+00 0. -1.
<mgrwt>
<rscale>  0 0.13919758E+03</rscale>
<asrwt>0</asrwt>
<pdfrwt beam="2">  1        1 0.60918442E-01 0.14688300E+03</pdfrwt>
<pdfrwt beam="1">  1       -1 0.70446188E-02 0.14688300E+03</pdfrwt>
<totfact> 0.61801649E+03</totfact>
</mgrwt>
</event>
<event>
 7    1  0.5206756E-006  0.1341530E+03  0.7546771E-02  0.1236674E+00
          2   -1    0    0  501    0  0.00000000000E+00  0.00000000000E+00  0.87900588863E+03  0.87900588863E+03  0.00000000000E+00 0. -1.
         -2   -1    0    0    0  501 -0.00000000000E+00 -0.00000000000E+00 -0.15310490647E+02  0.15310490647E+02  0.00000000000E+00 0.  1.
         23    2    1    2    0    0 -0.51454337187E+01 -0.48427465934E+02  0.50305655229E+03  0.52063703023E+03  0.12500131000E+03 0.  0.
          5    1    3    3  502    0 -0.74161845440E+01 -0.55142989172E+02  0.50782528504E+03  0.51088585729E+03  0.47000000000E+01 0. -1.
         -5    1    3    3    0  502  0.22707508254E+01  0.67155232371E+01 -0.47687327544E+01  0.97511729419E+01  0.47000000000E+01 0. -1.
        -11    1    1    2    0    0 -0.37976410844E+02  0.37475724068E+02  0.19377249127E+03  0.20098362134E+03  0.00000000000E+00 0. -1.
         11    1    1    2    0    0  0.43121844563E+02  0.10951741866E+02  0.16686635443E+03  0.17269572771E+03  0.00000000000E+00 0.  1.
<mgrwt>
<rscale>  0 0.12397884E+03</rscale>
<asrwt>0</asrwt>
<pdfrwt beam="1">  1        2 0.13523164E+00 0.13415298E+03</pdfrwt>
<pdfrwt beam="2">  1       -2 0.23554608E-02 0.13415298E+03</pdfrwt>
<totfact> 0.18111052E+04</totfact>
</mgrwt>
</event>
<event>
 7    1  0.6279762E-006  0.1495346E+03  0.7546771E-02  0.1210021E+00
         -1   -1    0    0    0  501 -0.00000000000E+00  0.00000000000E+00  0.40767669655E+02  0.40767669655E+02  0.00000000000E+00 0.  1.
          1   -1    0    0  501    0  0.00000000000E+00 -0.00000000000E+00 -0.45665084360E+03  0.45665084360E+03  0.00000000000E+00 0. -1.
         23    2    1    2    0    0  0.18145141045E+02 -0.80037702978E+02 -0.23378566149E+03  0.27751816821E+03  0.12500127250E+03 0.  0.
          5    1    3    3  502    0 -0.13458042220E+02 -0.90187221273E+02 -0.84139134238E+02  0.12416254545E+03  0.47000000000E+01 0.  1.
         -5    1    3    3    0  502  0.31603183265E+02  0.10149518295E+02 -0.14964652725E+03  0.15335562276E+03  0.47000000000E+01 0.  1.
        -11    1    1    2    0    0 -0.41028773162E+02  0.61869322166E+02 -0.63294636747E+02  0.97557082231E+02  0.00000000000E+00 0.  1.
         11    1    1    2    0    0  0.22883632117E+02  0.18168380812E+02 -0.11880287571E+03  0.12234326282E+03  0.00000000000E+00 0. -1.
<mgrwt>
<rscale>  0 0.14248685E+03</rscale>
<asrwt>0</asrwt>
<pdfrwt beam="2">  1        1 0.70253973E-01 0.14953461E+03</pdfrwt>
<pdfrwt beam="1">  1       -1 0.62719494E-02 0.14953461E+03</pdfrwt>
<totfact> 0.61402911E+03</totfact>
</mgrwt>
</event>
<event>
 6    1  0.5206756E-006  0.1930084E+03  0.7546771E-02  0.1172295E+00
          1   -1    0    0  501    0  0.00000000000E+00  0.00000000000E+00  0.23423592319E+03  0.23423592319E+03  0.00000000000E+00 0. -1.
         -1   -1    0    0    0  501 -0.00000000000E+00 -0.00000000000E+00 -0.12713573275E+03  0.12713573275E+03  0.00000000000E+00 0.  1.
          5    1    1    2  502    0  0.67261039908E+02 -0.75285307197E+02  0.11186372875E+03  0.15075645518E+03  0.47000000000E+01 0. -1.
         -5    1    1    2    0  502  0.37388180393E+02  0.67370422103E+02  0.10830810423E+02  0.77948997824E+02  0.47000000000E+01 0.  1.
        -11    1    1    2    0    0 -0.66211919340E+02 -0.19295542259E+02  0.22018166636E+02  0.72395689621E+02  0.00000000000E+00 0. -1.
         11    1    1    2    0    0 -0.38437300961E+02  0.27210427353E+02 -0.37612515375E+02  0.60270513311E+02  0.00000000000E+00 0.  1.
<mgrwt>
<rscale>  0 0.17543526E+03</rscale>
<asrwt>0</asrwt>
<pdfrwt beam="1">  1        1 0.36036296E-01 0.19300838E+03</pdfrwt>
<pdfrwt beam="2">  1       -1 0.19559343E-01 0.19300838E+03</pdfrwt>
<totfact> 0.24724297E+03</totfact>
</mgrwt>
</event>
<event>
 7    1  0.5206756E-006  0.1507145E+03  0.7546771E-02  0.1209196E+00
          2   -1    0    0  501    0  0.00000000000E+00  0.00000000000E+00  0.55202418772E+03  0.55202418772E+03  0.00000000000E+00 0. -1.
         -2   -1    0    0    0  501 -0.00000000000E+00 -0.00000000000E+00 -0.41135253333E+02  0.41135253333E+02  0.00000000000E+00 0.  1.
         23    2    1    2    0    0  0.83963304196E+02  0.65931143278E+01  0.40164071794E+03  0.42898732659E+03  0.12498621710E+03 0.  0.
          5    1    3    3  502    0  0.56717549041E+02  0.62610921057E+02  0.18330440760E+03  0.20189007814E+03  0.47000000000E+01 0.  1.
         -5    1    3    3    0  502  0.27245755155E+02 -0.56017806730E+02  0.21833631033E+03  0.22709724845E+03  0.47000000000E+01 0.  1.
        -11    1    1    2    0    0 -0.90474894903E+02 -0.27856962744E+02  0.65565570701E+02  0.11515450943E+03  0.00000000000E+00 0.  1.
         11    1    1    2    0    0  0.65115907069E+01  0.21263848417E+02  0.43682645750E+02  0.49017605028E+02  0.00000000000E+00 0. -1.
<mgrwt>
<rscale>  0 0.14311669E+03</rscale>
<asrwt>0</asrwt>
<pdfrwt beam="1">  1        2 0.84926793E-01 0.15071450E+03</pdfrwt>
<pdfrwt beam="2">  1       -2 0.63285009E-02 0.15071450E+03</pdfrwt>
<totfact> 0.73117466E+03</totfact>
</mgrwt>
</event>
<event>
 7    1  0.5206756E-006  0.1887646E+03  0.7546771E-02  0.1165238E+00
          1   -1    0    0  501    0  0.00000000000E+00  0.00000000000E+00  0.69664202376E+02  0.69664202376E+02  0.00000000000E+00 0. -1.
         -1   -1    0    0    0  501 -0.00000000000E+00 -0.00000000000E+00 -0.45931395256E+03  0.45931395256E+03  0.00000000000E+00 0.  1.
         23    2    1    2    0    0  0.82855148252E+02 -0.11462998844E+03 -0.17088675516E+03  0.25462589468E+03  0.12500821298E+03 0.  0.
          5    1    3    3  502    0  0.40962621674E+02 -0.44671036390E+02 -0.16131438240E+03  0.17238868245E+03  0.47000000000E+01 0.  1.
         -5    1    3    3    0  502  0.41892526577E+02 -0.69958952053E+02 -0.95723727537E+01  0.82237212231E+02  0.47000000000E+01 0.  1.
        -11    1    1    2    0    0 -0.90535556726E+02  0.12159850080E+03 -0.21549568076E+03  0.26347916588E+03  0.00000000000E+00 0.  1.
         11    1    1    2    0    0  0.76804084749E+01 -0.69685123532E+01 -0.32673142696E+01  0.10873094375E+02  0.00000000000E+00 0. -1.
<mgrwt>
<rscale>  0 0.18267654E+03</rscale>
<asrwt>0</asrwt>
<pdfrwt beam="1">  1        1 0.10717570E-01 0.18876457E+03</pdfrwt>
<pdfrwt beam="2">  1       -1 0.70663682E-01 0.18876457E+03</pdfrwt>
<totfact> 0.12179369E+03</totfact>
</mgrwt>
</event>
<event>
 7    1  0.5206756E-006  0.1260396E+03  0.7546771E-02  0.1249025E+00
          2   -1    0    0  501    0  0.00000000000E+00  0.00000000000E+00  0.42271816210E+03  0.42271816210E+03  0.00000000000E+00 0. -1.
         -2   -1    0    0    0  501 -0.00000000000E+00 -0.00000000000E+00 -0.29219361157E+02  0.29219361157E+02  0.00000000000E+00 0.  1.
         23    2    1    2    0    0  0.16039186612E+02 -0.61211283123E+00  0.27011777383E+03  0.29807648704E+03  0.12501340008E+03 0.  0.
          5    1    3    3  502    0  0.22729569935E+02 -0.46208642526E+02  0.45962503768E+02  0.69184635189E+02  0.47000000000E+01 0. -1.
         -5    1    3    3    0  502 -0.66903833230E+01  0.45596529695E+02  0.22415527006E+03  0.22889185185E+03  0.47000000000E+01 0. -1.
        -11    1    1    2    0    0  0.18648029076E+02  0.28784478948E+01 -0.60722704306E+01  0.19821879802E+02  0.00000000000E+00 0.  1.
         11    1    1    2    0    0 -0.34687215688E+02 -0.22663350636E+01  0.12945329755E+03  0.13403915642E+03  0.00000000000E+00 0. -1.
<mgrwt>
<rscale>  0 0.11647683E+03</rscale>
<asrwt>0</asrwt>
<pdfrwt beam="1">  1        2 0.65033559E-01 0.12603960E+03</pdfrwt>
<pdfrwt beam="2">  1       -2 0.44952866E-02 0.12603960E+03</pdfrwt>
<totfact> 0.16188761E+04</totfact>
</mgrwt>
</event>
<event>
 6    1  0.5206756E-006  0.2388062E+03  0.7546771E-02  0.1159065E+00
         -1   -1    0    0    0  501 -0.00000000000E+00  0.00000000000E+00  0.22516944311E+03  0.22516944311E+03  0.00000000000E+00 0.  1.
          1   -1    0    0  501    0  0.00000000000E+00 -0.00000000000E+00 -0.39837035211E+03  0.39837035211E+03  0.00000000000E+00 0. -1.
          5    1    1    2  502    0  0.10806876234E+03 -0.74542373255E+02 -0.21451001280E+03  0.25153937743E+03  0.47000000000E+01 0. -1.
         -5    1    1    2    0  502 -0.80726410801E+02  0.68855780842E+02 -0.13515688470E+03  0.17189341302E+03  0.47000000000E+01 0.  1.
        -11    1    1    2    0    0 -0.13835130577E+02  0.31107088081E+02  0.16603451018E+03  0.16948899769E+03  0.00000000000E+00 0.  1.
         11    1    1    2    0    0 -0.13507220963E+02 -0.25420495668E+02  0.10431478316E+02  0.30618007088E+02  0.00000000000E+00 0. -1.
<mgrwt>
<rscale>  0 0.18933181E+03</rscale>
<asrwt>0</asrwt>
<pdfrwt beam="2">  1        1 0.61287746E-01 0.23880617E+03</pdfrwt>
<pdfrwt beam="1">  1       -1 0.34641453E-01 0.23880617E+03</pdfrwt>
<totfact> 0.48831432E+02</totfact>
</mgrwt>
</event>
<event>
 7    1  0.5206756E-006  0.1309768E+03  0.7546771E-02  0.1239583E+00
          2   -1    0    0  501    0  0.00000000000E+00  0.00000000000E+00  0.45380934602E+03  0.45380934602E+03  0.00000000000E+00 0. -1.
         -2   -1    0    0    0  501 -0.00000000000E+00 -0.00000000000E+00 -0.29240740494E+02  0.29240740494E+02  0.00000000000E+00 0.  1.
         23    2    1    2    0    0 -0.27040241204E+02 -0.28267917553E+02  0.25406170933E+03  0.28583610206E+03  0.12499870115E+03 0.  0.
          5    1    3    3  502    0 -0.72682472420E+02 -0.19049189241E+02  0.20330376504E+03  0.21679512054E+03  0.47000000000E+01 0. -1.
         -5    1    3    3    0  502  0.45642231217E+02 -0.92187283122E+01  0.50757944284E+02  0.69040981526E+02  0.47000000000E+01 0. -1.
        -11    1    1    2    0    0  0.51972867405E+02  0.40924365404E+02  0.14495651687E+03  0.15933729762E+03  0.00000000000E+00 0.  1.
         11    1    1    2    0    0 -0.24932626202E+02 -0.12656447851E+02  0.25550379336E+02  0.37876686837E+02  0.00000000000E+00 0. -1.
<mgrwt>
<rscale>  0 0.12215575E+03</rscale>
<asrwt>0</asrwt>
<pdfrwt beam="1">  1        2 0.69816818E-01 0.13097681E+03</pdfrwt>
<pdfrwt beam="2">  1       -2 0.44985758E-02 0.13097681E+03</pdfrwt>
<totfact> 0.15030720E+04</totfact>
</mgrwt>
</event>
<event>
 7    1  0.5206756E-006  0.1670603E+03  0.7546771E-02  0.1186956E+00
         -2   -1    0    0    0  501 -0.00000000000E+00  0.00000000000E+00  0.21569219104E+03  0.21569219104E+03  0.00000000000E+00 0.  1.
          2   -1    0    0  501    0  0.00000000000E+00 -0.00000000000E+00 -0.17082817668E+03  0.17082817668E+03  0.00000000000E+00 0. -1.
         23    2    1    2    0    0  0.91709867704E+02  0.62242289995E+02 -0.88199050922E+02  0.18891327769E+03  0.12499740560E+03 0.  0.
          5    1    3    3  502    0 -0.12185868252E+02 -0.14210363659E+01  0.21299203781E+02  0.25025203518E+02  0.47000000000E+01 0.  1.
         -5    1    3    3    0  502  0.10389573596E+03  0.63663326361E+02 -0.10949825470E+03  0.16388807417E+03  0.47000000000E+01 0.  1.
        -11    1    1    2    0    0 -0.57565080099E+02  0.14675455227E+02  0.73497550849E+02  0.94503954487E+02  0.00000000000E+00 0.  1.
         11    1    1    2    0    0 -0.34144787604E+02 -0.76917745222E+02  0.59565514431E+02  0.10310313555E+03  0.00000000000E+00 0. -1.
<mgrwt>
<rscale>  0 0.16155164E+03</rscale>
<asrwt>0</asrwt>
<pdfrwt beam="2">  1        2 0.26281258E-01 0.16706033E+03</pdfrwt>
<pdfrwt beam="1">  1       -2 0.33183414E-01 0.16706033E+03</pdfrwt>
<totfact> 0.16969932E+03</totfact>
</mgrwt>
</event>
<event>
 7    1  0.5206756E-006  0.3214132E+03  0.7546771E-02  0.1076381E+00
         -2   -1    0    0    0  501 -0.00000000000E+00  0.00000000000E+00  0.14047423230E+03  0.14047423230E+03  0.00000000000E+00 0.  1.
          2   -1    0    0  501    0  0.00000000000E+00 -0.00000000000E+00 -0.79257690310E+03  0.79257690310E+03  0.00000000000E+00 0. -1.
         23    2    1    2    0    0 -0.29585541149E+03  0.12213099600E+02 -0.48333634590E+03  0.58044849648E+03  0.12500739770E+03 0.  0.
          5    1    3    3  502    0 -0.11972398998E+03  0.22374584153E+01 -0.31308319102E+03  0.33523426808E+03  0.47000000000E+01 0. -1.
         -5    1    3    3    0  502 -0.17613142150E+03  0.99756411846E+01 -0.17025315488E+03  0.24521422839E+03  0.47000000000E+01 0. -1.
        -11    1    1    2    0    0  0.13628678038E+02  0.17179798619E+02 -0.28823162708E+02  0.36216861462E+02  0.00000000000E+00 0.  1.
         11    1    1    2    0    0  0.28222673345E+03 -0.29392898219E+02 -0.13994316219E+03  0.31638577747E+03  0.00000000000E+00 0. -1.
<mgrwt>
<rscale>  0 0.31841596E+03</rscale>
<asrwt>0</asrwt>
<pdfrwt beam="2">  1        2 0.12193490E+00 0.32141318E+03</pdfrwt>
<pdfrwt beam="1">  1       -2 0.21611421E-01 0.32141318E+03</pdfrwt>
<totfact> 0.66087645E+02</totfact>
</mgrwt>
</event>
<event>
 7    1  0.5206756E-006  0.2154261E+03  0.7546771E-02  0.1141087E+00
          1   -1    0    0  501    0  0.00000000000E+00  0.00000000000E+00  0.23105677848E+03  0.23105677848E+03  0.00000000000E+00 0. -1.
         -1   -1    0    0    0  501 -0.00000000000E+00 -0.00000000000E+00 -0.28925498681E+03  0.28925498681E+03  0.00000000000E+00 0.  1.
         23    2    1    2    0    0  0.17461557159E+03  0.17059966058E+02  0.12701039334E+03  0.25008010373E+03  0.12500711173E+03 0.  0.
          5    1    3    3  502    0  0.16448922821E+03 -0.16235722716E+01  0.14690273320E+03  0.22059430003E+03  0.47000000000E+01 0. -1.
         -5    1    3    3    0  502  0.10126343380E+02  0.18683538330E+02 -0.19892339863E+02  0.29485803702E+02  0.47000000000E+01 0. -1.
        -11    1    1    2    0    0 -0.45694629456E+02 -0.27896682808E+02 -0.13453279068E+02  0.55201583224E+02  0.00000000000E+00 0. -1.
         11    1    1    2    0    0 -0.12892094213E+03  0.10836716750E+02 -0.17175532259E+03  0.21503007834E+03  0.00000000000E+00 0.  1.
<mgrwt>
<rscale>  0 0.21060555E+03</rscale>
<asrwt>0</asrwt>
<pdfrwt beam="1">  1        1 0.35547197E-01 0.21542613E+03</pdfrwt>
<pdfrwt beam="2">  1       -1 0.44500767E-01 0.21542613E+03</pdfrwt>
<totfact> 0.62361096E+02</totfact>
</mgrwt>
</event>
<event>
 7    1  0.5206756E-006  0.1503479E+03  0.7546771E-02  0.1209224E+00
         -1   -1    0    0    0  501 -0.00000000000E+00  0.00000000000E+00  0.44991697115E+02  0.44991697115E+02  0.00000000000E+00 0.  1.
          1   -1    0    0  501    0  0.00000000000E+00 -0.00000000000E+00 -0.46210511361E+03  0.46210511361E+03  0.00000000000E+00 0. -1.
         23    2    1    2    0    0  0.80368487162E+02 -0.22775481242E+02 -0.30655204802E+03  0.34143616924E+03  0.12500673279E+03 0.  0.
          5    1    3    3  502    0  0.10394258267E+03  0.66063625155E-01 -0.15767892685E+03  0.18891479251E+03  0.47000000000E+01 0. -1.
         -5    1    3    3    0  502 -0.23574095508E+02 -0.22841544868E+02 -0.14887312117E+03  0.15252137673E+03  0.47000000000E+01 0. -1.
        -11    1    1    2    0    0 -0.68807205452E+02  0.53753830991E+02 -0.62728786646E+02  0.10751189024E+03  0.00000000000E+00 0.  1.
         11    1    1    2    0    0 -0.11561281710E+02 -0.30978349749E+02 -0.47832581831E+02  0.58148751255E+02  0.00000000000E+00 0. -1.
<mgrwt>
<rscale>  0 0.14309472E+03</rscale>
<asrwt>0</asrwt>
<pdfrwt beam="2">  1        1 0.71093095E-01 0.15034793E+03</pdfrwt>
<pdfrwt beam="1">  1       -1 0.69217995E-02 0.15034793E+03</pdfrwt>
<totfact> 0.52176860E+03</totfact>
</mgrwt>
</event>
<event>
 7    1  0.5206756E-006  0.1273583E+03  0.7546771E-02  0.1245887E+00
          3   -1    0    0  501    0  0.00000000000E+00  0.00000000000E+00  0.16409913674E+03  0.16409913674E+03  0.00000000000E+00 0. -1.
         -3   -1    0    0    0  501 -0.00000000000E+00 -0.00000000000E+00 -0.75251383366E+02  0.75251383366E+02  0.00000000000E+00 0.  1.
         23    2    1    2    0    0  0.18826689447E+02 -0.15493881622E+02  0.50472110572E+02  0.13699481622E+03  0.12500256446E+03 0.  0.
          5    1    3    3  502    0 -0.18317824286E+02 -0.58930221667E+02  0.20241491286E+01  0.61923346906E+02  0.47000000000E+01 0.  1.
         -5    1    3    3    0  502  0.37144513733E+02  0.43436340045E+02  0.48447961443E+02  0.75071469314E+02  0.47000000000E+01 0.  1.
        -11    1    1    2    0    0  0.33311219919E+02  0.18515307091E+02  0.31958963283E+02  0.49737604519E+02  0.00000000000E+00 0. -1.
         11    1    1    2    0    0 -0.52137909366E+02 -0.30214254689E+01  0.64166795198E+01  0.52618099367E+02  0.00000000000E+00 0.  1.
<mgrwt>
<rscale>  0 0.11832458E+03</rscale>
<asrwt>0</asrwt>
<pdfrwt beam="1">  1        3 0.25246021E-01 0.12735834E+03</pdfrwt>
<pdfrwt beam="2">  1       -3 0.11577136E-01 0.12735834E+03</pdfrwt>
<totfact> 0.19317469E+03</totfact>
</mgrwt>
</event>
<event>
 7    1  0.5206756E-006  0.1268729E+03  0.7546771E-02  0.1246816E+00
         -4   -1    0    0    0  501 -0.00000000000E+00  0.00000000000E+00  0.29143820450E+03  0.29143820450E+03  0.00000000000E+00 0.  1.
          4   -1    0    0  501    0  0.00000000000E+00 -0.00000000000E+00 -0.64102485655E+02  0.64102485655E+02  0.00000000000E+00 0. -1.
         23    2    1    2    0    0 -0.21484991205E+02  0.14926441044E+01  0.20843638285E+02  0.12857368159E+03  0.12503160204E+03 0.  0.
          5    1    3    3  502    0  0.12284715793E+02 -0.32075856646E+02  0.58286764238E+02  0.67817488209E+02  0.47000000000E+01 0.  1.
         -5    1    3    3    0  502 -0.33769706998E+02  0.33568500750E+02 -0.37443125954E+02  0.60756193384E+02  0.47000000000E+01 0.  1.
        -11    1    1    2    0    0 -0.20247377156E+02  0.17868821988E+02  0.15735333976E+03  0.15965376480E+03  0.00000000000E+00 0.  1.
         11    1    1    2    0    0  0.41732368361E+02 -0.19361466092E+02  0.49138740800E+02  0.67313243761E+02  0.00000000000E+00 0. -1.
<mgrwt>
<rscale>  0 0.11777361E+03</rscale>
<asrwt>0</asrwt>
<pdfrwt beam="2">  1        4 0.98619210E-02 0.12687291E+03</pdfrwt>
<pdfrwt beam="1">  1       -4 0.44836646E-01 0.12687291E+03</pdfrwt>
<totfact> 0.61472161E+02</totfact>
</mgrwt>
</event>
<event>
 7    1  0.5206756E-006  0.2398637E+03  0.7546771E-02  0.1122588E+00
          2   -1    0    0  501    0  0.00000000000E+00  0.00000000000E+00  0.49710538245E+03  0.49710538245E+03  0.00000000000E+00 0. -1.
         -2   -1    0    0    0  501 -0.00000000000E+00 -0.00000000000E+00 -0.18936445251E+03  0.18936445251E+03  0.00000000000E+00 0.  1.
         23    2    1    2    0    0 -0.39239649704E+01 -0.20468375107E+03  0.38132711573E+03  0.45049413604E+03  0.12499504774E+03 0.  0.
          5    1    3    3  502    0 -0.56363296645E+02 -0.94375702261E+02  0.23748330398E+03  0.26173269581E+03  0.47000000000E+01 0.  1.
         -5    1    3    3    0  502  0.52439331675E+02 -0.11030804881E+03  0.14384381175E+03  0.18876144023E+03  0.47000000000E+01 0.  1.
        -11    1    1    2    0    0  0.30102669001E+02  0.88483285307E+02  0.44617047060E+01  0.93570130215E+02  0.00000000000E+00 0. -1.
         11    1    1    2    0    0 -0.26178704031E+02  0.11620046577E+03 -0.78047890490E+02  0.14240556871E+03  0.00000000000E+00 0.  1.
<mgrwt>
<rscale>  0 0.23585038E+03</rscale>
<asrwt>0</asrwt>
<pdfrwt beam="1">  1        2 0.76477751E-01 0.23986371E+03</pdfrwt>
<pdfrwt beam="2">  1       -2 0.29132993E-01 0.23986371E+03</pdfrwt>
<totfact> 0.67882908E+02</totfact>
</mgrwt>
</event>
<event>
 7    1  0.5206756E-006  0.1331885E+03  0.7546771E-02  0.1237137E+00
         -1   -1    0    0    0  501 -0.00000000000E+00  0.00000000000E+00  0.14717640364E+03  0.14717640364E+03  0.00000000000E+00 0.  1.
          1   -1    0    0  501    0  0.00000000000E+00 -0.00000000000E+00 -0.95866638282E+02  0.95866638282E+02  0.00000000000E+00 0. -1.
         23    2    1    2    0    0  0.45611036995E+02  0.58005751390E+01  0.39508899345E+01  0.13324707293E+03  0.12500063818E+03 0.  0.
          5    1    3    3  502    0  0.54902018106E+01  0.41592542991E+02 -0.44054260190E+02  0.61015979786E+02  0.47000000000E+01 0.  1.
         -5    1    3    3    0  502  0.40120835185E+02 -0.35791967852E+02  0.48005150125E+02  0.72231093147E+02  0.47000000000E+01 0.  1.
        -11    1    1    2    0    0 -0.34885697905E+02  0.11856046732E+02 -0.18174136680E+02  0.41083780334E+02  0.00000000000E+00 0. -1.
         11    1    1    2    0    0 -0.10725339090E+02 -0.17656621871E+02  0.65533012105E+02  0.68712188657E+02  0.00000000000E+00 0.  1.
<mgrwt>
<rscale>  0 0.12368622E+03</rscale>
<asrwt>0</asrwt>
<pdfrwt beam="2">  1        1 0.14748714E-01 0.13318849E+03</pdfrwt>
<pdfrwt beam="1">  1       -1 0.22642524E-01 0.13318849E+03</pdfrwt>
<totfact> 0.59433655E+03</totfact>
</mgrwt>
</event>
<event>
 6    1  0.5206756E-006  0.2641646E+03  0.7546771E-02  0.1147219E+00
         -2   -1    0    0    0  501 -0.00000000000E+00  0.00000000000E+00  0.43013002341E+02  0.43013002341E+02  0.00000000000E+00 0.  1.
          2   -1    0    0  501    0  0.00000000000E+00 -0.00000000000E+00 -0.94359392851E+03  0.94359392851E+03  0.00000000000E+00 0. -1.
          5    1    1    2  502    0  0.57759740374E+02  0.12150244654E+03 -0.45288604911E+03  0.47246893612E+03  0.47000000000E+01 0. -1.
         -5    1    1    2    0  502 -0.61005948086E+02 -0.11348840859E+03 -0.37566915667E+03  0.39717848614E+03  0.47000000000E+01 0.  1.
        -11    1    1    2    0    0 -0.32532187890E+02 -0.24190541538E+01 -0.73814879498E+02  0.80702115878E+02  0.00000000000E+00 0. -1.
         11    1    1    2    0    0  0.35778395602E+02 -0.55949837971E+01  0.17891591020E+01  0.36257392706E+02  0.00000000000E+00 0.  1.
<mgrwt>
<rscale>  0 0.20301635E+03</rscale>
<asrwt>0</asrwt>
<pdfrwt beam="2">  1        2 0.14516830E+00 0.26416455E+03</pdfrwt>
<pdfrwt beam="1">  1       -2 0.66173850E-02 0.26416455E+03</pdfrwt>
<totfact> 0.36124104E+03</totfact>
</mgrwt>
</event>
<event>
 7    1  0.5206756E-006  0.1860485E+03  0.7546771E-02  0.1167344E+00
         -2   -1    0    0    0  501 -0.00000000000E+00  0.00000000000E+00  0.23252895472E+03  0.23252895472E+03  0.00000000000E+00 0.  1.
          2   -1    0    0  501    0  0.00000000000E+00 -0.00000000000E+00 -0.13530519398E+03  0.13530519398E+03  0.00000000000E+00 0. -1.
         23    2    1    2    0    0  0.36385569721E+02 -0.13291074657E+03  0.78883394437E+02  0.20208077848E+03  0.12499949949E+03 0.  0.
          5    1    3    3  502    0 -0.28224673360E+02 -0.61923606064E+02  0.81072762214E+02  0.10595304596E+03  0.47000000000E+01 0.  1.
         -5    1    3    3    0  502  0.64610243081E+02 -0.70987140506E+02 -0.21893677770E+01  0.96127732520E+02  0.47000000000E+01 0.  1.
        -11    1    1    2    0    0  0.19877701425E+02  0.44090370202E+02  0.34458572677E+02  0.59384147627E+02  0.00000000000E+00 0.  1.
         11    1    1    2    0    0 -0.56263271146E+02  0.88820376368E+02 -0.16118206372E+02  0.10636922259E+03  0.00000000000E+00 0. -1.
<mgrwt>
<rscale>  0 0.18047478E+03</rscale>
<asrwt>0</asrwt>
<pdfrwt beam="2">  1        2 0.20816184E-01 0.18604852E+03</pdfrwt>
<pdfrwt beam="1">  1       -2 0.35773685E-01 0.18604852E+03</pdfrwt>
<totfact> 0.19243236E+03</totfact>
</mgrwt>
</event>
<event>
 7    1  0.5206756E-006  0.2821355E+03  0.7546771E-02  0.1097009E+00
          2   -1    0    0  501    0  0.00000000000E+00  0.00000000000E+00  0.16232052797E+04  0.16232052797E+04  0.00000000000E+00 0. -1.
         -2   -1    0    0    0  501 -0.00000000000E+00 -0.00000000000E+00 -0.47092923526E+02  0.47092923526E+02  0.00000000000E+00 0.  1.
         23    2    1    2    0    0  0.18419793289E+03  0.14269127499E+03  0.63634567657E+03  0.68909390658E+03  0.12499965421E+03 0.  0.
          5    1    3    3  502    0  0.30875216877E+02  0.88468474042E+02  0.15707002318E+03  0.18295636665E+03  0.47000000000E+01 0.  1.
         -5    1    3    3    0  502  0.15332271602E+03  0.54222800944E+02  0.47927565340E+03  0.50613753993E+03  0.47000000000E+01 0.  1.
        -11    1    1    2    0    0 -0.15941843960E+02 -0.83495534295E+02  0.49076227021E+03  0.49806952577E+03  0.00000000000E+00 0. -1.
         11    1    1    2    0    0 -0.16825608893E+03 -0.59195740691E+02  0.44900440939E+03  0.48313477087E+03  0.00000000000E+00 0.  1.
<mgrwt>
<rscale>  0 0.27759671E+03</rscale>
<asrwt>0</asrwt>
<pdfrwt beam="1">  1        2 0.24972385E+00 0.28213553E+03</pdfrwt>
<pdfrwt beam="2">  1       -2 0.72450664E-02 0.28213553E+03</pdfrwt>
<totfact> 0.12953646E+03</totfact>
</mgrwt>
</event>
<event>
 7    1  0.5206756E-006  0.2161644E+03  0.7546771E-02  0.1140253E+00
         -1   -1    0    0    0  501 -0.00000000000E+00  0.00000000000E+00  0.26423032036E+03  0.26423032036E+03  0.00000000000E+00 0.  1.
          1   -1    0    0  501    0  0.00000000000E+00 -0.00000000000E+00 -0.23517526690E+03  0.23517526690E+03  0.00000000000E+00 0. -1.
         23    2    1    2    0    0  0.14407479925E+03 -0.10170750267E+03 -0.12342624458E+03  0.24891979799E+03  0.12500025640E+03 0.  0.
          5    1    3    3  502    0  0.82234494892E+02 -0.12368521970E+03 -0.99819231815E+02  0.17901540370E+03  0.47000000000E+01 0.  1.
         -5    1    3    3    0  502  0.61840304357E+02  0.21977717028E+02 -0.23607012762E+02  0.69904394284E+02  0.47000000000E+01 0.  1.
        -11    1    1    2    0    0 -0.93243893255E+02  0.47185273050E+02  0.14031976104E+03  0.17495859213E+03  0.00000000000E+00 0.  1.
         11    1    1    2    0    0 -0.50830905993E+02  0.54522229623E+02  0.12161537000E+02  0.75527197150E+02  0.00000000000E+00 0. -1.
<mgrwt>
<rscale>  0 0.21166668E+03</rscale>
<asrwt>0</asrwt>
<pdfrwt beam="2">  1        1 0.36180810E-01 0.21616435E+03</pdfrwt>
<pdfrwt beam="1">  1       -1 0.40650819E-01 0.21616435E+03</pdfrwt>
<totfact> 0.71728931E+02</totfact>
</mgrwt>
</event>
<event>
 6    1  0.5206756E-006  0.1333575E+03  0.7546771E-02  0.1243103E+00
         -2   -1    0    0    0  501 -0.00000000000E+00  0.00000000000E+00  0.11336754303E+03  0.11336754303E+03  0.00000000000E+00 0.  1.
          2   -1    0    0  501    0  0.00000000000E+00 -0.00000000000E+00 -0.10752422370E+03  0.10752422370E+03  0.00000000000E+00 0. -1.
          5    1    1    2  502    0  0.47551274778E+02 -0.91801707750E+01 -0.37112737468E+02  0.61195135026E+02  0.47000000000E+01 0. -1.
         -5    1    1    2    0  502 -0.60692174829E+02  0.18539870864E+01  0.38726675346E+02  0.72172174256E+02  0.47000000000E+01 0.  1.
        -11    1    1    2    0    0  0.13497122876E+02 -0.36399150407E+02 -0.12383371860E+02  0.40748231555E+02  0.00000000000E+00 0. -1.
         11    1    1    2    0    0 -0.35622282567E+00  0.43725334095E+02  0.16612753306E+02  0.46776225894E+02  0.00000000000E+00 0.  1.
<mgrwt>
<rscale>  0 0.11999652E+03</rscale>
<asrwt>0</asrwt>
<pdfrwt beam="2">  1        2 0.16542188E-01 0.13335754E+03</pdfrwt>
<pdfrwt beam="1">  1       -2 0.17441161E-01 0.13335754E+03</pdfrwt>
<totfact> 0.86730364E+03</totfact>
</mgrwt>
</event>
<event>
 7    1  0.5206756E-006  0.2219193E+03  0.7546771E-02  0.1135686E+00
          2   -1    0    0  501    0  0.00000000000E+00  0.00000000000E+00  0.78282685902E+03  0.78282685902E+03  0.00000000000E+00 0. -1.
         -2   -1    0    0    0  501 -0.00000000000E+00 -0.00000000000E+00 -0.64476552841E+02  0.64476552841E+02  0.00000000000E+00 0.  1.
         23    2    1    2    0    0  0.15272678998E+03 -0.10148127625E+03  0.50357353359E+03  0.55030397864E+03  0.12499697343E+03 0.  0.
          5    1    3    3  502    0  0.11135616012E+03 -0.90655908946E+02  0.48043250846E+03  0.50145405912E+03  0.47000000000E+01 0. -1.
         -5    1    3    3    0  502  0.41370629865E+02 -0.10825367307E+02  0.23141025123E+02  0.48849919514E+02  0.47000000000E+01 0. -1.
        -11    1    1    2    0    0 -0.91249354674E+02  0.58554822430E+01  0.94059460592E+02  0.13117893706E+03  0.00000000000E+00 0. -1.
         11    1    1    2    0    0 -0.61477435309E+02  0.95625794009E+02  0.12071731200E+03  0.16582049617E+03  0.00000000000E+00 0.  1.
<mgrwt>
<rscale>  0 0.21759816E+03</rscale>
<asrwt>0</asrwt>
<pdfrwt beam="1">  1        2 0.12043489E+00 0.22191928E+03</pdfrwt>
<pdfrwt beam="2">  1       -2 0.99194702E-02 0.22191928E+03</pdfrwt>
<totfact> 0.24395141E+03</totfact>
</mgrwt>
</event>
<event>
 7    1  0.5206756E-006  0.1537499E+03  0.7546771E-02  0.1205456E+00
          1   -1    0    0  501    0  0.00000000000E+00  0.00000000000E+00  0.60112658269E+03  0.60112658269E+03  0.00000000000E+00 0. -1.
         -1   -1    0    0    0  501 -0.00000000000E+00 -0.00000000000E+00 -0.38511092463E+02  0.38511092463E+02  0.00000000000E+00 0.  1.
         23    2    1    2    0    0  0.48511581265E+02  0.75237991767E+02  0.43314477344E+03  0.45962311915E+03  0.12499955192E+03 0.  0.
          5    1    3    3  502    0  0.89554937540E+02  0.63300141816E+02  0.33335250459E+03  0.35096007908E+03  0.47000000000E+01 0. -1.
         -5    1    3    3    0  502 -0.41043356276E+02  0.11937849950E+02  0.99792268847E+02  0.10866304007E+03  0.47000000000E+01 0. -1.
        -11    1    1    2    0    0 -0.14777323345E+02 -0.11634557472E+02  0.10076799038E+03  0.10250814649E+03  0.00000000000E+00 0. -1.
         11    1    1    2    0    0 -0.33734257920E+02 -0.63603434295E+02  0.28702726415E+02  0.77506409510E+02  0.00000000000E+00 0.  1.
<mgrwt>
<rscale>  0 0.14601570E+03</rscale>
<asrwt>0</asrwt>
<pdfrwt beam="1">  1        1 0.92481006E-01 0.15374985E+03</pdfrwt>
<pdfrwt beam="2">  1       -1 0.59247839E-02 0.15374985E+03</pdfrwt>
<totfact> 0.46528743E+03</totfact>
</mgrwt>
</event>
<event>
 7    1  0.5206756E-006  0.1440124E+03  0.7546771E-02  0.1218434E+00
         -1   -1    0    0    0  501 -0.00000000000E+00  0.00000000000E+00  0.97740932650E+02  0.97740932650E+02  0.00000000000E+00 0.  1.
          1   -1    0    0  501    0  0.00000000000E+00 -0.00000000000E+00 -0.41966933399E+03  0.41966933399E+03  0.00000000000E+00 0. -1.
         23    2    1    2    0    0 -0.34168538249E+01 -0.71433696948E+02 -0.36639635744E+03  0.39368242108E+03  0.12500043988E+03 0.  0.
          5    1    3    3  502    0 -0.34368749037E+02  0.12058626070E+01 -0.23829694367E+02  0.42102367494E+02  0.47000000000E+01 0.  1.
         -5    1    3    3    0  502  0.30951895212E+02 -0.72639559555E+02 -0.34256666307E+03  0.35158005359E+03  0.47000000000E+01 0.  1.
        -11    1    1    2    0    0  0.44618581089E+02  0.55654565714E+02  0.26727345965E+02  0.76174795605E+02  0.00000000000E+00 0.  1.
         11    1    1    2    0    0 -0.41201727264E+02  0.15779131235E+02  0.17740610136E+02  0.47553049955E+02  0.00000000000E+00 0. -1.
<mgrwt>
<rscale>  0 0.13627255E+03</rscale>
<asrwt>0</asrwt>
<pdfrwt beam="2">  1        1 0.64564512E-01 0.14401235E+03</pdfrwt>
<pdfrwt beam="1">  1       -1 0.15037067E-01 0.14401235E+03</pdfrwt>
<totfact> 0.17941188E+03</totfact>
</mgrwt>
</event>
<event>
 7    1  0.5206756E-006  0.1794303E+03  0.7546771E-02  0.1171647E+00
          3   -1    0    0  501    0  0.00000000000E+00  0.00000000000E+00  0.51061225188E+02  0.51061225188E+02  0.00000000000E+00 0. -1.
         -3   -1    0    0    0  501 -0.00000000000E+00 -0.00000000000E+00 -0.65748111985E+03  0.65748111985E+03  0.00000000000E+00 0.  1.
         23    2    1    2    0    0  0.50821235270E+01  0.13970873064E+03 -0.19632849208E+03  0.26597009628E+03  0.11247603262E+03 0.  0.
          5    1    3    3  502    0 -0.49916891069E+02  0.64919553975E+02 -0.62955323120E+02  0.10340071185E+03  0.47000000000E+01 0. -1.
         -5    1    3    3    0  502  0.54999014596E+02  0.74789176664E+02 -0.13337316896E+03  0.16256938442E+03  0.47000000000E+01 0.  1.
        -11    1    1    2    0    0 -0.21997119702E+02 -0.12609815588E+01 -0.26813779121E+02  0.34705073123E+02  0.00000000000E+00 0.  1.
         11    1    1    2    0    0  0.16914996175E+02 -0.13844774908E+03 -0.38327762345E+03  0.40786717563E+03  0.00000000000E+00 0. -1.
<mgrwt>
<rscale>  0 0.17608501E+03</rscale>
<asrwt>0</asrwt>
<pdfrwt beam="1">  1        3 0.78555730E-02 0.17943025E+03</pdfrwt>
<pdfrwt beam="2">  1       -3 0.10115094E+00 0.17943025E+03</pdfrwt>
<totfact> 0.23384795E+02</totfact>
</mgrwt>
</event>
<event>
 7    1  0.5206756E-006  0.1362588E+03  0.7546771E-02  0.1229674E+00
          2   -1    0    0  501    0  0.00000000000E+00  0.00000000000E+00  0.11788223334E+04  0.11788223334E+04  0.00000000000E+00 0. -1.
         -2   -1    0    0    0  501 -0.00000000000E+00 -0.00000000000E+00 -0.12655070980E+02  0.12655070980E+02  0.00000000000E+00 0.  1.
         23    2    1    2    0    0 -0.18849899831E+02  0.50873022641E+02  0.62754253158E+03  0.64216516400E+03  0.12499234282E+03 0.  0.
          5    1    3    3  502    0 -0.11956869415E+02  0.38493331810E+02  0.62582370171E+03  0.62713802224E+03  0.47000000000E+01 0.  1.
         -5    1    3    3    0  502 -0.68930304163E+01  0.12379690831E+02  0.17188298689E+01  0.15027141761E+02  0.47000000000E+01 0.  1.
        -11    1    1    2    0    0  0.40800447496E+02  0.10211376735E+02  0.17881591736E+03  0.18369562061E+03  0.00000000000E+00 0. -1.
         11    1    1    2    0    0 -0.21950547665E+02 -0.61084399376E+02  0.35980881353E+03  0.36561661981E+03  0.00000000000E+00 0.  1.
<mgrwt>
<rscale>  0 0.12851639E+03</rscale>
<asrwt>0</asrwt>
<pdfrwt beam="1">  1        2 0.18135719E+00 0.13625883E+03</pdfrwt>
<pdfrwt beam="2">  1       -2 0.19469349E-02 0.13625883E+03</pdfrwt>
<totfact> 0.15892681E+04</totfact>
</mgrwt>
</event>
<event>
 7    1  0.5206756E-006  0.1339577E+03  0.7546771E-02  0.1233773E+00
          2   -1    0    0  501    0  0.00000000000E+00  0.00000000000E+00  0.50326924117E+03  0.50326924117E+03  0.00000000000E+00 0. -1.
         -2   -1    0    0    0  501 -0.00000000000E+00 -0.00000000000E+00 -0.28480310285E+02  0.28480310285E+02  0.00000000000E+00 0.  1.
         23    2    1    2    0    0  0.45107822861E+02 -0.16853285828E+02  0.24041520378E+03  0.27521651966E+03  0.12500365420E+03 0.  0.
          5    1    3    3  502    0 -0.31788536699E+02  0.66366977837E+01  0.15448966567E+02  0.36267304710E+02  0.47000000000E+01 0.  1.
         -5    1    3    3    0  502  0.76896359559E+02 -0.23489983611E+02  0.22496623721E+03  0.23894921495E+03  0.47000000000E+01 0.  1.
        -11    1    1    2    0    0  0.28344837693E+02 -0.16691150865E+01  0.70229917229E+02  0.75752604200E+02  0.00000000000E+00 0.  1.
         11    1    1    2    0    0 -0.73452660554E+02  0.18522400914E+02  0.16414380988E+03  0.18078042759E+03  0.00000000000E+00 0. -1.
<mgrwt>
<rscale>  0 0.12583317E+03</rscale>
<asrwt>0</asrwt>
<pdfrwt beam="1">  1        2 0.77426030E-01 0.13395769E+03</pdfrwt>
<pdfrwt beam="2">  1       -2 0.43815866E-02 0.13395769E+03</pdfrwt>
<totfact> 0.13991885E+04</totfact>
</mgrwt>
</event>
<event>
 7    1  0.5206756E-006  0.1277449E+03  0.7546771E-02  0.1242361E+00
          1   -1    0    0  501    0  0.00000000000E+00  0.00000000000E+00  0.13536737304E+03  0.13536737304E+03  0.00000000000E+00 0. -1.
         -1   -1    0    0    0  501 -0.00000000000E+00 -0.00000000000E+00 -0.10412860944E+03  0.10412860944E+03  0.00000000000E+00 0.  1.
         23    2    1    2    0    0 -0.16294999688E+02  0.48515257562E+02  0.49307359961E+02  0.13693057309E+03  0.11704490109E+03 0.  0.
          5    1    3    3  502    0  0.44047455336E+02  0.50474230176E+02  0.27459739285E+02  0.72553108238E+02  0.47000000000E+01 0. -1.
         -5    1    3    3    0  502 -0.60342455024E+02 -0.19589726136E+01  0.21847620677E+02  0.64377464856E+02  0.47000000000E+01 0.  1.
        -11    1    1    2    0    0 -0.10505369905E+02 -0.23610907696E+02 -0.48514929487E+02  0.54968501364E+02  0.00000000000E+00 0.  1.
         11    1    1    2    0    0  0.26800369593E+02 -0.24904349866E+02  0.30446333124E+02  0.47596908022E+02  0.00000000000E+00 0. -1.
<mgrwt>
<rscale>  0 0.12044714E+03</rscale>
<asrwt>0</asrwt>
<pdfrwt beam="1">  1        1 0.20825750E-01 0.12774493E+03</pdfrwt>
<pdfrwt beam="2">  1       -1 0.16019786E-01 0.12774493E+03</pdfrwt>
<totfact> 0.66207961E+03</totfact>
</mgrwt>
</event>
<event>
 7    1  0.5206756E-006  0.1318515E+03  0.7546771E-02  0.1238182E+00
         -2   -1    0    0    0  501 -0.00000000000E+00  0.00000000000E+00  0.12926659899E+03  0.12926659899E+03  0.00000000000E+00 0. -1.
          2   -1    0    0  501    0  0.00000000000E+00 -0.00000000000E+00 -0.15366452562E+03  0.15366452562E+03  0.00000000000E+00 0.  1.
         23    2    1    2    0    0  0.56774121483E+01  0.41568432601E+02 -0.93309732682E+02  0.16152874898E+03  0.12499865173E+03 0.  0.
          5    1    3    3  502    0  0.17048833779E+02 -0.42863715831E+02 -0.36674248180E+02  0.59118959291E+02  0.47000000000E+01 0.  1.
         -5    1    3    3    0  502 -0.11371421631E+02  0.84432148431E+02 -0.56635484502E+02  0.10240978969E+03  0.47000000000E+01 0.  1.
        -11    1    1    2    0    0 -0.35362888285E+02 -0.44262344874E+02  0.13129435071E+02  0.58155576748E+02  0.00000000000E+00 0.  1.
         11    1    1    2    0    0  0.29685476137E+02  0.26939122737E+01  0.55782370981E+02  0.63246798884E+02  0.00000000000E+00 0. -1.
<mgrwt>
<rscale>  0 0.12302914E+03</rscale>
<asrwt>0</asrwt>
<pdfrwt beam="2">  1        2 0.23640696E-01 0.13185155E+03</pdfrwt>
<pdfrwt beam="1">  1       -2 0.19887169E-01 0.13185155E+03</pdfrwt>
<totfact> 0.46431854E+03</totfact>
</mgrwt>
</event>
<event>
 7    1  0.5206756E-006  0.1324945E+03  0.7546771E-02  0.1241385E+00
         -1   -1    0    0    0  501 -0.00000000000E+00  0.00000000000E+00  0.12258816695E+04  0.12258816695E+04  0.00000000000E+00 0.  1.
          1   -1    0    0  501    0  0.00000000000E+00 -0.00000000000E+00 -0.10321526168E+02  0.10321526168E+02  0.00000000000E+00 0. -1.
         23    2    1    2    0    0  0.39946029582E+02 -0.18311184369E+02  0.74066894278E+03  0.75242625051E+03  0.12499517953E+03 0.  0.
          5    1    3    3  502    0 -0.30451635142E+02  0.30092448013E+02  0.34045077116E+03  0.34316421010E+03  0.47000000000E+01 0.  1.
         -5    1    3    3    0  502  0.70397664724E+02 -0.48403632382E+02  0.40021817162E+03  0.40926204041E+03  0.47000000000E+01 0.  1.
        -11    1    1    2    0    0  0.55559796053E+01 -0.27281112109E+02  0.13677530951E+03  0.13958013211E+03  0.00000000000E+00 0.  1.
         11    1    1    2    0    0 -0.45502009188E+02  0.45592296478E+02  0.33811589101E+03  0.34419681302E+03  0.00000000000E+00 0. -1.
<mgrwt>
<rscale>  0 0.12104407E+03</rscale>
<asrwt>0</asrwt>
<pdfrwt beam="2">  1        1 0.15879281E-02 0.13249445E+03</pdfrwt>
<pdfrwt beam="1">  1       -1 0.18859707E+00 0.13249445E+03</pdfrwt>
<totfact> 0.16268550E+03</totfact>
</mgrwt>
</event>
<event>
 7    1  0.5206756E-006  0.1578220E+03  0.7546771E-02  0.1199011E+00
          1   -1    0    0  501    0  0.00000000000E+00  0.00000000000E+00  0.25219062438E+03  0.25219062438E+03  0.00000000000E+00 0. -1.
         -1   -1    0    0    0  501 -0.00000000000E+00 -0.00000000000E+00 -0.85916254044E+02  0.85916254044E+02  0.00000000000E+00 0.  1.
         23    2    1    2    0    0  0.22099763082E+01  0.96319666400E+02  0.11646072237E+03  0.19613997317E+03  0.12500170835E+03 0.  0.
          5    1    3    3  502    0  0.11456535432E+02 -0.26619914912E+02  0.44496194855E+02  0.53309224630E+02  0.47000000000E+01 0.  1.
         -5    1    3    3    0  502 -0.92465591241E+01  0.12293958131E+03  0.71964527512E+02  0.14283074854E+03  0.47000000000E+01 0.  1.
        -11    1    1    2    0    0  0.31104947227E+02 -0.93428217947E+02  0.44689235474E+02  0.10813638342E+03  0.00000000000E+00 0.  1.
         11    1    1    2    0    0 -0.33314923536E+02 -0.28914484524E+01  0.51244124931E+01  0.33830521837E+02  0.00000000000E+00 0. -1.
<mgrwt>
<rscale>  0 0.15119593E+03</rscale>
<asrwt>0</asrwt>
<pdfrwt beam="1">  1        1 0.38798557E-01 0.15782202E+03</pdfrwt>
<pdfrwt beam="2">  1       -1 0.13217885E-01 0.15782202E+03</pdfrwt>
<totfact> 0.41623025E+03</totfact>
</mgrwt>
</event>
<event>
 7    1  0.5206756E-006  0.1301198E+03  0.7546771E-02  0.1238311E+00
          1   -1    0    0  501    0  0.00000000000E+00  0.00000000000E+00  0.61887915996E+03  0.61887915996E+03  0.00000000000E+00 0. -1.
         -1   -1    0    0    0  501 -0.00000000000E+00 -0.00000000000E+00 -0.23310082526E+02  0.23310082526E+02  0.00000000000E+00 0.  1.
         23    2    1    2    0    0  0.49472156723E+02 -0.28217637046E+01  0.40269417518E+03  0.42319470755E+03  0.12031502454E+03 0.  0.
          5    1    3    3  502    0  0.52005500086E+02 -0.37944047137E+02  0.36771983157E+03  0.37334205132E+03  0.47000000000E+01 0. -1.
         -5    1    3    3    0  502 -0.25333433629E+01  0.35122283433E+02  0.34974343609E+02  0.49852656228E+02  0.47000000000E+01 0.  1.
        -11    1    1    2    0    0 -0.27798421474E+02 -0.43325892782E+02  0.11390095922E+03  0.12499325475E+03  0.00000000000E+00 0. -1.
         11    1    1    2    0    0 -0.21673735249E+02  0.46147656487E+02  0.78973943041E+02  0.94001280195E+02  0.00000000000E+00 0.  1.
<mgrwt>
<rscale>  0 0.12294854E+03</rscale>
<asrwt>0</asrwt>
<pdfrwt beam="1">  1        1 0.95212166E-01 0.13011980E+03</pdfrwt>
<pdfrwt beam="2">  1       -1 0.35861670E-02 0.13011980E+03</pdfrwt>
<totfact> 0.92992571E+03</totfact>
</mgrwt>
</event>
<event>
 6    1  0.5206756E-006  0.1502682E+03  0.7546771E-02  0.1220780E+00
         -2   -1    0    0    0  501 -0.00000000000E+00  0.00000000000E+00  0.80926753305E+02  0.80926753305E+02  0.00000000000E+00 0.  1.
          2   -1    0    0  501    0  0.00000000000E+00 -0.00000000000E+00 -0.21896207778E+03  0.21896207778E+03  0.00000000000E+00 0. -1.
          5    1    1    2  502    0 -0.15415148974E+02 -0.81067667769E+02 -0.11121451818E+03  0.13856533704E+03  0.47000000000E+01 0. -1.
         -5    1    1    2    0  502  0.29671500487E+02  0.51164728818E+02 -0.25469995306E+02  0.64568088690E+02  0.47000000000E+01 0.  1.
        -11    1    1    2    0    0  0.13059377020E+02  0.56637587877E+02  0.34905629353E+01  0.58228409890E+02  0.00000000000E+00 0.  1.
         11    1    1    2    0    0 -0.27315728533E+02 -0.26734648926E+02 -0.48413739329E+01  0.38526995472E+02  0.00000000000E+00 0. -1.
<mgrwt>
<rscale>  0 0.13460418E+03</rscale>
<asrwt>0</asrwt>
<pdfrwt beam="2">  1        2 0.33686473E-01 0.15026820E+03</pdfrwt>
<pdfrwt beam="1">  1       -2 0.12450270E-01 0.15026820E+03</pdfrwt>
<totfact> 0.68741847E+03</totfact>
</mgrwt>
</event>
<event>
 7    1  0.5206756E-006  0.1372498E+03  0.7546771E-02  0.1229044E+00
          1   -1    0    0  501    0  0.00000000000E+00  0.00000000000E+00  0.72016543361E+02  0.72016543361E+02  0.00000000000E+00 0. -1.
         -1   -1    0    0    0  501 -0.00000000000E+00 -0.00000000000E+00 -0.22017249187E+03  0.22017249187E+03  0.00000000000E+00 0.  1.
         23    2    1    2    0    0  0.49737428962E+02 -0.27182163196E+02 -0.47149124615E+02  0.14512250960E+03  0.12499928402E+03 0.  0.
          5    1    3    3  502    0 -0.39552395675E+02 -0.16923197053E+02 -0.32078581731E+02  0.53869397694E+02  0.47000000000E+01 0. -1.
         -5    1    3    3    0  502  0.89289824637E+02 -0.10258966143E+02 -0.15070542884E+02  0.91253111908E+02  0.47000000000E+01 0. -1.
        -11    1    1    2    0    0  0.83300218722E+01  0.34865241904E+02 -0.73353556302E+01  0.36589367303E+02  0.00000000000E+00 0. -1.
         11    1    1    2    0    0 -0.58067450834E+02 -0.76830787078E+01 -0.93671468260E+02  0.11047715832E+03  0.00000000000E+00 0.  1.
<mgrwt>
<rscale>  0 0.12893517E+03</rscale>
<asrwt>0</asrwt>
<pdfrwt beam="1">  1        1 0.11079468E-01 0.13724978E+03</pdfrwt>
<pdfrwt beam="2">  1       -1 0.33872690E-01 0.13724978E+03</pdfrwt>
<totfact> 0.44277592E+03</totfact>
</mgrwt>
</event>
<event>
 7    1  0.5206756E-006  0.2469669E+03  0.7546771E-02  0.1117681E+00
          2   -1    0    0  501    0  0.00000000000E+00  0.00000000000E+00  0.12233937778E+04  0.12233937778E+04  0.00000000000E+00 0. -1.
         -2   -1    0    0    0  501 -0.00000000000E+00 -0.00000000000E+00 -0.58684091401E+02  0.58684091401E+02  0.00000000000E+00 0.  1.
         23    2    1    2    0    0  0.15465540981E+03 -0.14646006808E+03  0.88352247060E+03  0.91739009325E+03  0.12499511918E+03 0.  0.
          5    1    3    3  502    0  0.15029981400E+03 -0.68484019529E+02  0.66713032703E+03  0.68728819156E+03  0.47000000000E+01 0. -1.
         -5    1    3    3    0  502  0.43555958126E+01 -0.77976048552E+02  0.21639214357E+03  0.23010190169E+03  0.47000000000E+01 0. -1.
        -11    1    1    2    0    0 -0.80014285242E+02  0.12156675240E+03  0.13419928046E+03  0.19796516867E+03  0.00000000000E+00 0. -1.
         11    1    1    2    0    0 -0.74641124571E+02  0.24893315683E+02  0.14698793538E+03  0.16672260732E+03  0.00000000000E+00 0.  1.
<mgrwt>
<rscale>  0 0.24319729E+03</rscale>
<asrwt>0</asrwt>
<pdfrwt beam="1">  1        2 0.18821441E+00 0.24696685E+03</pdfrwt>
<pdfrwt beam="2">  1       -2 0.90283227E-02 0.24696685E+03</pdfrwt>
<totfact> 0.15150762E+03</totfact>
</mgrwt>
</event>
<event>
 7    1  0.5206756E-006  0.1297392E+03  0.7546771E-02  0.1240903E+00
         -1   -1    0    0    0  501 -0.00000000000E+00  0.00000000000E+00  0.10380160144E+02  0.10380160144E+02  0.00000000000E+00 0.  1.
          1   -1    0    0  501    0  0.00000000000E+00 -0.00000000000E+00 -0.12929332727E+04  0.12929332727E+04  0.00000000000E+00 0. -1.
         23    2    1    2    0    0 -0.25711119761E+02  0.23306451321E+02 -0.82280754590E+03  0.83297330116E+03  0.12501204141E+03 0.  0.
          5    1    3    3  502    0 -0.19349669204E+02 -0.50969624092E+02 -0.31924192543E+03  0.32389783764E+03  0.47000000000E+01 0. -1.
         -5    1    3    3    0  502 -0.63614505565E+01  0.74276075412E+02 -0.50356562047E+03  0.50907546351E+03  0.47000000000E+01 0. -1.
        -11    1    1    2    0    0 -0.26888736940E+02 -0.34790127741E+02 -0.16739860899E+03  0.17307701018E+03  0.00000000000E+00 0. -1.
         11    1    1    2    0    0  0.52599856701E+02  0.11483676421E+02 -0.29234695765E+03  0.29726312149E+03  0.00000000000E+00 0.  1.
<mgrwt>
<rscale>  0 0.12134006E+03</rscale>
<asrwt>0</asrwt>
<pdfrwt beam="2">  1        1 0.19891272E+00 0.12973921E+03</pdfrwt>
<pdfrwt beam="1">  1       -1 0.15969484E-02 0.12973921E+03</pdfrwt>
<totfact> 0.91121672E+03</totfact>
</mgrwt>
</event>
<event>
 6    1  0.5206756E-006  0.1477293E+03  0.7546771E-02  0.1226912E+00
          2   -1    0    0  501    0  0.00000000000E+00  0.00000000000E+00  0.89823652251E+02  0.89823652251E+02  0.00000000000E+00 0. -1.
         -2   -1    0    0    0  501 -0.00000000000E+00 -0.00000000000E+00 -0.21926523820E+03  0.21926523820E+03  0.00000000000E+00 0.  1.
          5    1    1    2  502    0 -0.36314237187E+02 -0.20448820253E+02  0.62136247475E+02  0.74965867717E+02  0.47000000000E+01 0. -1.
         -5    1    1    2    0  502  0.36295924464E+02  0.25759340709E+02 -0.57465082738E+02  0.72837239792E+02  0.47000000000E+01 0.  1.
        -11    1    1    2    0    0 -0.26643869902E+02  0.32534457002E+02 -0.50533826317E+02  0.65742332617E+02  0.00000000000E+00 0.  1.
         11    1    1    2    0    0  0.26662182625E+02 -0.37844977458E+02 -0.83578924366E+02  0.95543450321E+02  0.00000000000E+00 0. -1.
<mgrwt>
<rscale>  0 0.13036717E+03</rscale>
<asrwt>0</asrwt>
<pdfrwt beam="1">  1        2 0.13819024E-01 0.14772928E+03</pdfrwt>
<pdfrwt beam="2">  1       -2 0.33733113E-01 0.14772928E+03</pdfrwt>
<totfact> 0.34134883E+03</totfact>
</mgrwt>
</event>
<event>
 7    1  0.5206756E-006  0.1404873E+03  0.7546771E-02  0.1223397E+00
         -2   -1    0    0    0  501 -0.00000000000E+00  0.00000000000E+00  0.12942261438E+02  0.12942261438E+02  0.00000000000E+00 0.  1.
          2   -1    0    0  501    0  0.00000000000E+00 -0.00000000000E+00 -0.16661861928E+04  0.16661861928E+04  0.00000000000E+00 0. -1.
         23    2    1    2    0    0  0.11224096266E+02 -0.63139868486E+02 -0.13218217276E+04  0.13292664766E+04  0.12499625241E+03 0.  0.
          5    1    3    3  502    0 -0.43984873940E+01 -0.99859899804E+02 -0.90709703571E+03  0.91259984028E+03  0.47000000000E+01 0.  1.
         -5    1    3    3    0  502  0.15622583660E+02  0.36720031318E+02 -0.41472469185E+03  0.41666663635E+03  0.47000000000E+01 0.  1.
        -11    1    1    2    0    0 -0.17093896621E+02 -0.85928626102E+01 -0.12347231663E+02  0.22770435202E+02  0.00000000000E+00 0.  1.
         11    1    1    2    0    0  0.58698003554E+01  0.71732731097E+02 -0.31907497210E+03  0.32709154237E+03  0.00000000000E+00 0. -1.
<mgrwt>
<rscale>  0 0.13277409E+03</rscale>
<asrwt>0</asrwt>
<pdfrwt beam="2">  1        2 0.25633617E+00 0.14048732E+03</pdfrwt>
<pdfrwt beam="1">  1       -2 0.19911184E-02 0.14048732E+03</pdfrwt>
<totfact> 0.85011428E+03</totfact>
</mgrwt>
</event>
<event>
 7    1  0.5206756E-006  0.1300256E+03  0.7546771E-02  0.1239223E+00
          2   -1    0    0  501    0  0.00000000000E+00  0.00000000000E+00  0.93187730300E+02  0.93187730300E+02  0.00000000000E+00 0.  1.
         -2   -1    0    0    0  501 -0.00000000000E+00 -0.00000000000E+00 -0.14447013941E+03  0.14447013941E+03  0.00000000000E+00 0. -1.
         23    2    1    2    0    0  0.72877716379E+01 -0.35057038713E+02 -0.28762272455E+02  0.13316881264E+03  0.12499822704E+03 0.  0.
          5    1    3    3  502    0 -0.30294825005E+01  0.24112469807E+02 -0.60289054611E+02  0.65172456377E+02  0.47000000000E+01 0.  1.
         -5    1    3    3    0  502  0.10317254138E+02 -0.59169508520E+02  0.31526782156E+02  0.67996356260E+02  0.47000000000E+01 0.  1.
        -11    1    1    2    0    0 -0.39711003828E+02 -0.14472522016E+02 -0.14835212094E+02  0.44793986610E+02  0.00000000000E+00 0. -1.
         11    1    1    2    0    0  0.32423232190E+02  0.49529560729E+02 -0.76849245581E+01  0.59695070459E+02  0.00000000000E+00 0.  1.
<mgrwt>
<rscale>  0 0.12237910E+03</rscale>
<asrwt>0</asrwt>
<pdfrwt beam="1">  1        2 0.14336574E-01 0.13002563E+03</pdfrwt>
<pdfrwt beam="2">  1       -2 0.22226175E-01 0.13002563E+03</pdfrwt>
<totfact> 0.67931715E+03</totfact>
</mgrwt>
</event>
<event>
 7    1  0.5206756E-006  0.1396998E+03  0.7546771E-02  0.1225517E+00
         -2   -1    0    0    0  501 -0.00000000000E+00  0.00000000000E+00  0.20142882795E+02  0.20142882795E+02  0.00000000000E+00 0.  1.
          2   -1    0    0  501    0  0.00000000000E+00 -0.00000000000E+00 -0.77433929106E+03  0.77433929106E+03  0.00000000000E+00 0. -1.
         23    2    1    2    0    0 -0.40582374115E+02 -0.47384681863E+02 -0.45869288289E+03  0.47949472966E+03  0.12499519108E+03 0.  0.
          5    1    3    3  502    0 -0.43199502705E+02 -0.19722040892E+02 -0.44607112545E+03  0.44861642290E+03  0.47000000000E+01 0.  1.
         -5    1    3    3    0  502  0.26171285909E+01 -0.27662640971E+02 -0.12621757436E+02  0.30878306760E+02  0.47000000000E+01 0.  1.
        -11    1    1    2    0    0  0.11894848486E+02 -0.22205786789E+02 -0.30799943597E+02  0.39789708632E+02  0.00000000000E+00 0.  1.
         11    1    1    2    0    0  0.28687525629E+02  0.69590468652E+02 -0.26470358178E+03  0.27519773557E+03  0.00000000000E+00 0. -1.
<mgrwt>
<rscale>  0 0.13131559E+03</rscale>
<asrwt>0</asrwt>
<pdfrwt beam="2">  1        2 0.11912914E+00 0.13969980E+03</pdfrwt>
<pdfrwt beam="1">  1       -2 0.30989045E-02 0.13969980E+03</pdfrwt>
<totfact> 0.14257397E+04</totfact>
</mgrwt>
</event>
<event>
 7    1  0.5206756E-006  0.2328446E+03  0.7546771E-02  0.1127530E+00
         -1   -1    0    0    0  501 -0.00000000000E+00  0.00000000000E+00  0.99369939942E+02  0.99369939942E+02  0.00000000000E+00 0.  1.
          1   -1    0    0  501    0  0.00000000000E+00 -0.00000000000E+00 -0.52207662013E+03  0.52207662013E+03  0.00000000000E+00 0. -1.
         23    2    1    2    0    0  0.19424642959E+03  0.29327324150E+02 -0.26824585284E+03  0.35520761654E+03  0.12499938372E+03 0.  0.
          5    1    3    3  502    0  0.11225426277E+02  0.34659428348E+02 -0.99884618267E+02  0.10642515274E+03  0.47000000000E+01 0. -1.
         -5    1    3    3    0  502  0.18302100331E+03 -0.53321041982E+01 -0.16836123457E+03  0.24878246380E+03  0.47000000000E+01 0. -1.
        -11    1    1    2    0    0 -0.17285795694E+03 -0.21906865122E+02 -0.86348900341E+02  0.19446314974E+03  0.00000000000E+00 0.  1.
         11    1    1    2    0    0 -0.21388472643E+02 -0.74204590280E+01 -0.68111927006E+02  0.71775793793E+02  0.00000000000E+00 0. -1.
<mgrwt>
<rscale>  0 0.22873929E+03</rscale>
<asrwt>0</asrwt>
<pdfrwt beam="2">  1        1 0.80319480E-01 0.23284461E+03</pdfrwt>
<pdfrwt beam="1">  1       -1 0.15287683E-01 0.23284461E+03</pdfrwt>
<totfact> 0.13266759E+03</totfact>
</mgrwt>
</event>
<event>
 7    1  0.5206756E-006  0.1264186E+03  0.7546771E-02  0.1248494E+00
         -1   -1    0    0    0  501 -0.00000000000E+00  0.00000000000E+00  0.12949003320E+03  0.12949003320E+03  0.00000000000E+00 0.  1.
          1   -1    0    0  501    0  0.00000000000E+00 -0.00000000000E+00 -0.10506633725E+03  0.10506633725E+03  0.00000000000E+00 0. -1.
         23    2    1    2    0    0 -0.28140910048E+01  0.18583331907E+02 -0.26748047570E+02  0.12921732430E+03  0.12501359733E+03 0.  0.
          5    1    3    3  502    0 -0.53084688837E+02  0.44447383014E+02 -0.19098437011E+02  0.71974956353E+02  0.47000000000E+01 0. -1.
         -5    1    3    3    0  502  0.50270597833E+02 -0.25864051107E+02 -0.76496105589E+01  0.57242367944E+02  0.47000000000E+01 0. -1.
        -11    1    1    2    0    0  0.40162552844E+02 -0.16781781095E+02  0.52157384707E+02  0.67934171131E+02  0.00000000000E+00 0.  1.
         11    1    1    2    0    0 -0.37348461839E+02 -0.18015508118E+01 -0.98564119278E+00  0.37404875025E+02  0.00000000000E+00 0. -1.
<mgrwt>
<rscale>  0 0.11678670E+03</rscale>
<asrwt>0</asrwt>
<pdfrwt beam="2">  1        1 0.16164052E-01 0.12641859E+03</pdfrwt>
<pdfrwt beam="1">  1       -1 0.19921544E-01 0.12641859E+03</pdfrwt>
<totfact> 0.64677272E+03</totfact>
</mgrwt>
</event>
<event>
 6    1  0.5206756E-006  0.1853864E+03  0.7546771E-02  0.1180890E+00
         -2   -1    0    0    0  501 -0.00000000000E+00  0.00000000000E+00  0.14752274523E+02  0.14752274523E+02  0.00000000000E+00 0.  1.
          2   -1    0    0  501    0  0.00000000000E+00 -0.00000000000E+00 -0.17454953323E+04  0.17454953323E+04  0.00000000000E+00 0. -1.
          5    1    1    2  502    0 -0.79664138682E+02 -0.20692551365E+02 -0.11356719294E+04  0.11386603435E+04  0.47000000000E+01 0. -1.
         -5    1    1    2    0  502  0.35569409757E+02 -0.41007596132E+02 -0.13691254420E+03  0.14735650854E+03  0.47000000000E+01 0.  1.
        -11    1    1    2    0    0 -0.27857597410E+02  0.15675914039E+01 -0.84585565944E+02  0.89068631079E+02  0.00000000000E+00 0. -1.
         11    1    1    2    0    0  0.71952326335E+02  0.60132556093E+02 -0.37357301825E+03  0.38516212369E+03  0.00000000000E+00 0.  1.
<mgrwt>
<rscale>  0 0.16711572E+03</rscale>
<asrwt>0</asrwt>
<pdfrwt beam="2">  1        2 0.26853762E+00 0.18538636E+03</pdfrwt>
<pdfrwt beam="1">  1       -2 0.22695817E-02 0.18538636E+03</pdfrwt>
<totfact> 0.64378680E+03</totfact>
</mgrwt>
</event>
<event>
 7    1  0.5206756E-006  0.1125380E+03  0.7546771E-02  0.1296044E+00
          3   -1    0    0  501    0  0.00000000000E+00  0.00000000000E+00  0.75277377854E+03  0.75277377854E+03  0.00000000000E+00 0. -1.
         -3   -1    0    0    0  501 -0.00000000000E+00 -0.00000000000E+00 -0.15248149749E+02  0.15248149749E+02  0.00000000000E+00 0.  1.
         23    2    1    2    0    0 -0.15718745703E+02 -0.20627829831E+01  0.68423763028E+03  0.69343056305E+03  0.11141578454E+03 0.  0.
          5    1    3    3  502    0 -0.11246552679E+02  0.52179154411E+02  0.24386754559E+03  0.24968503939E+03  0.47000000000E+01 0. -1.
         -5    1    3    3    0  502 -0.44721930240E+01 -0.54241937394E+02  0.44037008469E+03  0.44374552367E+03  0.47000000000E+01 0.  1.
        -11    1    1    2    0    0 -0.14109171286E+02 -0.88137659647E+01  0.61043390746E+01  0.17720444137E+02  0.00000000000E+00 0. -1.
         11    1    1    2    0    0  0.29827916989E+02  0.10876548948E+02  0.47183659440E+02  0.56870921102E+02  0.00000000000E+00 0.  1.
<mgrwt>
<rscale>  0 0.92871104E+02</rscale>
<asrwt>0</asrwt>
<pdfrwt beam="1">  1        3 0.11581132E+00 0.11253804E+03</pdfrwt>
<pdfrwt beam="2">  1       -3 0.23458698E-02 0.11253804E+03</pdfrwt>
<totfact> 0.10764803E+03</totfact>
</mgrwt>
</event>
<event>
 7    1  0.5206756E-006  0.1336892E+03  0.7546771E-02  0.1234636E+00
         -2   -1    0    0    0  501 -0.00000000000E+00  0.00000000000E+00  0.11031664439E+04  0.11031664439E+04  0.00000000000E+00 0.  1.
          2   -1    0    0  501    0  0.00000000000E+00 -0.00000000000E+00 -0.12706571942E+02  0.12706571942E+02  0.00000000000E+00 0. -1.
         23    2    1    2    0    0  0.14320513459E+02 -0.45198691314E+02  0.60965917119E+03  0.62414510062E+03  0.12499921126E+03 0.  0.
          5    1    3    3  502    0  0.27389322793E+02 -0.47040504776E+02  0.60752123983E+03  0.60997305755E+03  0.47000000000E+01 0. -1.
         -5    1    3    3    0  502 -0.13068809334E+02  0.18418134617E+01  0.21379313530E+01  0.14172043067E+02  0.47000000000E+01 0. -1.
        -11    1    1    2    0    0 -0.27980267473E+02 -0.20732234858E+02  0.13397227103E+03  0.13842431266E+03  0.00000000000E+00 0. -1.
         11    1    1    2    0    0  0.13659754014E+02  0.65930926173E+02  0.34682842970E+03  0.35330360252E+03  0.00000000000E+00 0.  1.
<mgrwt>
<rscale>  0 0.12527769E+03</rscale>
<asrwt>0</asrwt>
<pdfrwt beam="2">  1        2 0.19548581E-02 0.13368920E+03</pdfrwt>
<pdfrwt beam="1">  1       -2 0.16971784E+00 0.13368920E+03</pdfrwt>
<totfact> 0.12447738E+03</totfact>
</mgrwt>
</event>
<event>
 7    1  0.5206756E-006  0.1700222E+03  0.7546771E-02  0.1184047E+00
         -1   -1    0    0    0  501 -0.00000000000E+00  0.00000000000E+00  0.18706997640E+03  0.18706997640E+03  0.00000000000E+00 0.  1.
          1   -1    0    0  501    0  0.00000000000E+00 -0.00000000000E+00 -0.19385272878E+03  0.19385272878E+03  0.00000000000E+00 0. -1.
         23    2    1    2    0    0  0.67442187946E+02 -0.93449108218E+02 -0.10828155606E+03  0.20157490674E+03  0.12500545230E+03 0.  0.
          5    1    3    3  502    0  0.52817669966E+01 -0.10201177218E+03 -0.89544266759E+02  0.13592116993E+03  0.47000000000E+01 0. -1.
         -5    1    3    3    0  502  0.62160420949E+02  0.85626639639E+01 -0.18737289300E+02  0.65653736809E+02  0.47000000000E+01 0. -1.
        -11    1    1    2    0    0 -0.72226223677E+02  0.64513686500E+02  0.11212164189E+03  0.14815500570E+03  0.00000000000E+00 0.  1.
         11    1    1    2    0    0  0.47840357311E+01  0.28935421718E+02 -0.10622838213E+02  0.31192792750E+02  0.00000000000E+00 0. -1.
<mgrwt>
<rscale>  0 0.16418916E+03</rscale>
<asrwt>0</asrwt>
<pdfrwt beam="2">  1        1 0.29823497E-01 0.17002220E+03</pdfrwt>
<pdfrwt beam="1">  1       -1 0.28779996E-01 0.17002220E+03</pdfrwt>
<totfact> 0.16522136E+03</totfact>
</mgrwt>
</event>
<event>
 7    1  0.5206756E-006  0.1438365E+03  0.7546771E-02  0.1218800E+00
         -1   -1    0    0    0  501 -0.00000000000E+00  0.00000000000E+00  0.49436695085E+03  0.49436695085E+03  0.00000000000E+00 0.  1.
          1   -1    0    0  501    0  0.00000000000E+00 -0.00000000000E+00 -0.33923703574E+02  0.33923703574E+02  0.00000000000E+00 0. -1.
         23    2    1    2    0    0 -0.44353504930E+02 -0.55644902393E+02  0.26537470066E+03  0.30184876694E+03  0.12500143114E+03 0.  0.
          5    1    3    3  502    0 -0.76616819498E+02 -0.17628668237E+02  0.90635583509E+02  0.12007416863E+03  0.47000000000E+01 0.  1.
         -5    1    3    3    0  502  0.32263314568E+02 -0.38016234157E+02  0.17473911715E+03  0.18177459831E+03  0.47000000000E+01 0.  1.
        -11    1    1    2    0    0  0.62850153239E+02  0.54025597970E+02  0.10145084871E+03  0.13100069352E+03  0.00000000000E+00 0. -1.
         11    1    1    2    0    0 -0.18496648309E+02  0.16193044236E+01  0.93617697907E+02  0.95441193972E+02  0.00000000000E+00 0.  1.
<mgrwt>
<rscale>  0 0.13601068E+03</rscale>
<asrwt>0</asrwt>
<pdfrwt beam="2">  1        1 0.52190317E-02 0.14383653E+03</pdfrwt>
<pdfrwt beam="1">  1       -1 0.76056449E-01 0.14383653E+03</pdfrwt>
<totfact> 0.27505877E+03</totfact>
</mgrwt>
</event>
<event>
 7    1  0.5206756E-006  0.1973828E+03  0.7546771E-02  0.1156524E+00
          3   -1    0    0  501    0  0.00000000000E+00  0.00000000000E+00  0.38315303142E+03  0.38315303142E+03  0.00000000000E+00 0. -1.
         -3   -1    0    0    0  501 -0.00000000000E+00 -0.00000000000E+00 -0.15881344194E+03  0.15881344194E+03  0.00000000000E+00 0.  1.
         23    2    1    2    0    0 -0.48648699141E+02 -0.14480063418E+03  0.29176540988E+03  0.35225985572E+03  0.12500412780E+03 0.  0.
          5    1    3    3  502    0 -0.20385019804E+02  0.24658054554E+01  0.12975186238E+03  0.13145061818E+03  0.47000000000E+01 0.  1.
         -5    1    3    3    0  502 -0.28263679337E+02 -0.14726643963E+03  0.16201354751E+03  0.22080923755E+03  0.47000000000E+01 0.  1.
        -11    1    1    2    0    0 -0.59957766754E+00  0.30772915241E+02  0.20980015578E+02  0.37249065216E+02  0.00000000000E+00 0.  1.
         11    1    1    2    0    0  0.49248276809E+02  0.11402771893E+03 -0.88405835977E+02  0.15245755242E+03  0.00000000000E+00 0. -1.
<mgrwt>
<rscale>  0 0.19216367E+03</rscale>
<asrwt>0</asrwt>
<pdfrwt beam="1">  1        3 0.58946620E-01 0.19738275E+03</pdfrwt>
<pdfrwt beam="2">  1       -3 0.24432837E-01 0.19738275E+03</pdfrwt>
<totfact> 0.10918830E+02</totfact>
</mgrwt>
</event>
<event>
 7    1  0.5206756E-006  0.1587822E+03  0.7546771E-02  0.1197538E+00
         -3   -1    0    0    0  501 -0.00000000000E+00  0.00000000000E+00  0.25257285054E+03  0.25257285054E+03  0.00000000000E+00 0.  1.
          3   -1    0    0  501    0  0.00000000000E+00 -0.00000000000E+00 -0.86010110270E+02  0.86010110270E+02  0.00000000000E+00 0. -1.
         23    2    1    2    0    0  0.88803390581E+02 -0.41235690471E+02  0.74833792335E+02  0.17553317986E+03  0.12500150563E+03 0.  0.
          5    1    3    3  502    0  0.21600013741E+02 -0.64563776850E+02  0.78661579488E+02  0.10413825408E+03  0.47000000000E+01 0.  1.
         -5    1    3    3    0  502  0.67203376840E+02  0.23328086380E+02 -0.38277871528E+01  0.71394925782E+02  0.47000000000E+01 0.  1.
        -11    1    1    2    0    0 -0.38663499827E+02 -0.95130925298E+01  0.81860306908E+02  0.91030077422E+02  0.00000000000E+00 0.  1.
         11    1    1    2    0    0 -0.50139890753E+02  0.50748783001E+02  0.98686410281E+01  0.72019703530E+02  0.00000000000E+00 0. -1.
<mgrwt>
<rscale>  0 0.15241366E+03</rscale>
<asrwt>0</asrwt>
<pdfrwt beam="2">  1        3 0.13232325E-01 0.15878224E+03</pdfrwt>
<pdfrwt beam="1">  1       -3 0.38857361E-01 0.15878224E+03</pdfrwt>
<totfact> 0.71549906E+02</totfact>
</mgrwt>
</event>
<event>
 7    1  0.5206756E-006  0.2023913E+03  0.7546771E-02  0.1151962E+00
         -2   -1    0    0    0  501 -0.00000000000E+00  0.00000000000E+00  0.45765341535E+02  0.45765341535E+02  0.00000000000E+00 0.  1.
          2   -1    0    0  501    0  0.00000000000E+00 -0.00000000000E+00 -0.88402245139E+03  0.88402245139E+03  0.00000000000E+00 0. -1.
         23    2    1    2    0    0 -0.13732197945E+03 -0.80487593506E+02 -0.57112109542E+03  0.60592205964E+03  0.12500663174E+03 0.  0.
          5    1    3    3  502    0 -0.42136774205E+01  0.10768184188E+02 -0.66424832855E-01  0.12482118425E+02  0.47000000000E+01 0. -1.
         -5    1    3    3    0  502 -0.13310830203E+03 -0.91255777694E+02 -0.57105467059E+03  0.59343994122E+03  0.47000000000E+01 0. -1.
        -11    1    1    2    0    0 -0.49667302154E+01  0.29792513719E+02 -0.63562133999E+02  0.70373341268E+02  0.00000000000E+00 0.  1.
         11    1    1    2    0    0  0.14228870967E+03  0.50695079787E+02 -0.20357388044E+03  0.25349239201E+03  0.00000000000E+00 0. -1.
<mgrwt>
<rscale>  0 0.19738711E+03</rscale>
<asrwt>0</asrwt>
<pdfrwt beam="2">  1        2 0.13600344E+00 0.20239130E+03</pdfrwt>
<pdfrwt beam="1">  1       -2 0.70408227E-02 0.20239130E+03</pdfrwt>
<totfact> 0.35614054E+03</totfact>
</mgrwt>
</event>
<event>
 7    1  0.5206756E-006  0.1535151E+03  0.7546771E-02  0.1204521E+00
          2   -1    0    0  501    0  0.00000000000E+00  0.00000000000E+00  0.40601767382E+03  0.40601767382E+03  0.00000000000E+00 0. -1.
         -2   -1    0    0    0  501 -0.00000000000E+00 -0.00000000000E+00 -0.48867278844E+02  0.48867278844E+02  0.00000000000E+00 0.  1.
         23    2    1    2    0    0  0.46965802379E+02 -0.75755193545E+02  0.19504922710E+03  0.24821579969E+03  0.12498898463E+03 0.  0.
          5    1    3    3  502    0 -0.22803871887E+02  0.11366299173E+02  0.94255637144E+02  0.97751851457E+02  0.47000000000E+01 0.  1.
         -5    1    3    3    0  502  0.69769674266E+02 -0.87121492717E+02  0.10079358996E+03  0.15046394823E+03  0.47000000000E+01 0.  1.
        -11    1    1    2    0    0 -0.43951322258E+02  0.88647373604E+01  0.11867295422E+03  0.12686044443E+03  0.00000000000E+00 0. -1.
         11    1    1    2    0    0 -0.30144801209E+01  0.66890456184E+02  0.43428213650E+02  0.79808708546E+02  0.00000000000E+00 0.  1.
<mgrwt>
<rscale>  0 0.14675255E+03</rscale>
<asrwt>0</asrwt>
<pdfrwt beam="1">  1        2 0.62464255E-01 0.15351509E+03</pdfrwt>
<pdfrwt beam="2">  1       -2 0.75180432E-02 0.15351509E+03</pdfrwt>
<totfact> 0.78687627E+03</totfact>
</mgrwt>
</event>
<event>
 7    1  0.5206756E-006  0.1739717E+03  0.7546771E-02  0.1179485E+00
         -2   -1    0    0    0  501 -0.00000000000E+00  0.00000000000E+00  0.13824021966E+02  0.13824021966E+02  0.00000000000E+00 0.  1.
          2   -1    0    0  501    0  0.00000000000E+00 -0.00000000000E+00 -0.21934348897E+04  0.21934348897E+04  0.00000000000E+00 0. -1.
         23    2    1    2    0    0  0.11530082603E+03  0.36691563540E+02 -0.15321053095E+04  0.15419509839E+04  0.12500242385E+03 0.  0.
          5    1    3    3  502    0  0.12648020737E+03  0.47876472277E+01 -0.13919106967E+04  0.13976614905E+04  0.47000000000E+01 0. -1.
         -5    1    3    3    0  502 -0.11179381341E+02  0.31903916312E+02 -0.14019461282E+03  0.14428949340E+03  0.47000000000E+01 0. -1.
        -11    1    1    2    0    0 -0.78940780440E+02 -0.58233567934E+02 -0.55503933983E+03  0.56364125471E+03  0.00000000000E+00 0. -1.
         11    1    1    2    0    0 -0.36360045587E+02  0.21542004394E+02 -0.92466218366E+02  0.10166667304E+03  0.00000000000E+00 0.  1.
<mgrwt>
<rscale>  0 0.16843956E+03</rscale>
<asrwt>0</asrwt>
<pdfrwt beam="2">  1        2 0.33745134E+00 0.17397171E+03</pdfrwt>
<pdfrwt beam="1">  1       -2 0.21267738E-02 0.17397171E+03</pdfrwt>
<totfact> 0.41453066E+03</totfact>
</mgrwt>
</event>
<event>
 7    1  0.5206756E-006  0.1800683E+03  0.7546771E-02  0.1169663E+00
          2   -1    0    0  501    0  0.00000000000E+00  0.00000000000E+00  0.42240555510E+03  0.42240555510E+03  0.00000000000E+00 0.  1.
         -2   -1    0    0    0  501 -0.00000000000E+00 -0.00000000000E+00 -0.73781036711E+02  0.73781036711E+02  0.00000000000E+00 0. -1.
         23    2    1    2    0    0  0.12065754955E+03  0.47354379092E+02  0.16233760701E+03  0.24244193564E+03  0.12499564803E+03 0.  0.
          5    1    3    3  502    0  0.14384649958E+02 -0.39422510504E+02  0.46563547317E+02  0.62859417971E+02  0.47000000000E+01 0. -1.
         -5    1    3    3    0  502  0.10627289959E+03  0.86776889597E+02  0.11577405969E+03  0.17958251767E+03  0.47000000000E+01 0. -1.
        -11    1    1    2    0    0 -0.42967390922E+02 -0.77574426529E+02  0.89195853781E+02  0.12577713888E+03  0.00000000000E+00 0. -1.
         11    1    1    2    0    0 -0.77690158626E+02  0.30220047437E+02  0.97091057601E+02  0.12796751729E+03  0.00000000000E+00 0.  1.
<mgrwt>
<rscale>  0 0.17809118E+03</rscale>
<asrwt>0</asrwt>
<pdfrwt beam="1">  1        2 0.64985469E-01 0.18006830E+03</pdfrwt>
<pdfrwt beam="2">  1       -2 0.11350929E-01 0.18006830E+03</pdfrwt>
<totfact> 0.39826116E+03</totfact>
</mgrwt>
</event>
<event>
 7    1  0.5206756E-006  0.1420924E+03  0.7546771E-02  0.1221934E+00
         -4   -1    0    0    0  501 -0.00000000000E+00  0.00000000000E+00  0.53884981179E+02  0.53884981179E+02  0.00000000000E+00 0.  1.
          4   -1    0    0  501    0  0.00000000000E+00 -0.00000000000E+00 -0.35644854286E+03  0.35644854286E+03  0.00000000000E+00 0. -1.
         23    2    1    2    0    0  0.67276365851E+02  0.62797114248E+01 -0.24847499459E+03  0.28623428198E+03  0.12499878826E+03 0.  0.
          5    1    3    3  502    0  0.10165287971E+03 -0.12659064821E+02 -0.18136545420E+03  0.20834845296E+03  0.47000000000E+01 0.  1.
         -5    1    3    3    0  502 -0.34376513855E+02  0.18938776246E+02 -0.67109540396E+02  0.77885829023E+02  0.47000000000E+01 0.  1.
        -11    1    1    2    0    0 -0.11277302111E+02 -0.33944303365E+01  0.24717591910E+02  0.27379902301E+02  0.00000000000E+00 0.  1.
         11    1    1    2    0    0 -0.55999063740E+02 -0.28852810884E+01 -0.78806159000E+02  0.96719339757E+02  0.00000000000E+00 0. -1.
<mgrwt>
<rscale>  0 0.13379299E+03</rscale>
<asrwt>0</asrwt>
<pdfrwt beam="2">  1        4 0.54838240E-01 0.14209237E+03</pdfrwt>
<pdfrwt beam="1">  1       -4 0.82899967E-02 0.14209237E+03</pdfrwt>
<totfact> 0.55796804E+02</totfact>
</mgrwt>
</event>
<event>
 7    1  0.5206756E-006  0.1315663E+03  0.7546771E-02  0.1238191E+00
         -1   -1    0    0    0  501 -0.00000000000E+00  0.00000000000E+00  0.38390425565E+02  0.38390425565E+02  0.00000000000E+00 0.  1.
          1   -1    0    0  501    0  0.00000000000E+00 -0.00000000000E+00 -0.39208991496E+03  0.39208991496E+03  0.00000000000E+00 0. -1.
         23    2    1    2    0    0 -0.35071910755E+02  0.21368339138E+02 -0.26713769225E+03  0.29777884956E+03  0.12499220691E+03 0.  0.
          5    1    3    3  502    0 -0.69302376048E+02  0.39368605558E+02 -0.11023881481E+03  0.13611536548E+03  0.47000000000E+01 0. -1.
         -5    1    3    3    0  502  0.34230465294E+02 -0.18000266420E+02 -0.15689887743E+03  0.16166348408E+03  0.47000000000E+01 0. -1.
        -11    1    1    2    0    0 -0.72013100970E+01 -0.39503770405E+02 -0.75309762393E+02  0.85346160165E+02  0.00000000000E+00 0. -1.
         11    1    1    2    0    0  0.42273220852E+02  0.18135431267E+02 -0.11252034754E+02  0.47355330793E+02  0.00000000000E+00 0.  1.
<mgrwt>
<rscale>  0 0.12302365E+03</rscale>
<asrwt>0</asrwt>
<pdfrwt beam="2">  1        1 0.60321526E-01 0.13156632E+03</pdfrwt>
<pdfrwt beam="1">  1       -1 0.59062193E-02 0.13156632E+03</pdfrwt>
<totfact> 0.80877610E+03</totfact>
</mgrwt>
</event>
<event>
 7    1  0.5206756E-006  0.1373841E+03  0.7546771E-02  0.1228369E+00
          1   -1    0    0  501    0  0.00000000000E+00  0.00000000000E+00  0.74680300764E+03  0.74680300764E+03  0.00000000000E+00 0. -1.
         -1   -1    0    0    0  501 -0.00000000000E+00 -0.00000000000E+00 -0.23231215607E+02  0.23231215607E+02  0.00000000000E+00 0.  1.
         23    2    1    2    0    0  0.55864616483E+02 -0.11294381708E+02  0.53817344507E+03  0.55543231022E+03  0.12500390328E+03 0.  0.
          5    1    3    3  502    0  0.89499463067E+02  0.19240547258E+02  0.36612958620E+03  0.37742988281E+03  0.47000000000E+01 0. -1.
         -5    1    3    3    0  502 -0.33634846584E+02 -0.30534928965E+02  0.17204385887E+03  0.17800242742E+03  0.47000000000E+01 0. -1.
        -11    1    1    2    0    0 -0.77821825604E+02 -0.55235412673E+01  0.11501311113E+03  0.13897755855E+03  0.00000000000E+00 0.  1.
         11    1    1    2    0    0  0.21957209121E+02  0.16817922975E+02  0.70385235839E+02  0.75624354474E+02  0.00000000000E+00 0. -1.
<mgrwt>
<rscale>  0 0.12938663E+03</rscale>
<asrwt>0</asrwt>
<pdfrwt beam="1">  1        1 0.11489275E+00 0.13738411E+03</pdfrwt>
<pdfrwt beam="2">  1       -1 0.35740337E-02 0.13738411E+03</pdfrwt>
<totfact> 0.71867916E+03</totfact>
</mgrwt>
</event>
<event>
 7    1  0.5206756E-006  0.1869573E+03  0.7546771E-02  0.1166738E+00
          2   -1    0    0  501    0  0.00000000000E+00  0.00000000000E+00  0.15378828074E+04  0.15378828074E+04  0.00000000000E+00 0. -1.
         -2   -1    0    0    0  501 -0.00000000000E+00 -0.00000000000E+00 -0.34814136273E+02  0.34814136273E+02  0.00000000000E+00 0.  1.
         23    2    1    2    0    0 -0.13728464905E+03  0.21921393444E+02  0.12898133353E+04  0.13032925507E+04  0.12500164181E+03 0.  0.
          5    1    3    3  502    0  0.18815249809E+00  0.39834341563E+02  0.48107542561E+03  0.48274472063E+03  0.47000000000E+01 0.  1.
         -5    1    3    3    0  502 -0.13747280155E+03 -0.17912948119E+02  0.80873790969E+03  0.82054783007E+03  0.47000000000E+01 0.  1.
        -11    1    1    2    0    0  0.34844171323E+02  0.33342128409E+02  0.62758051258E+02  0.79147879313E+02  0.00000000000E+00 0.  1.
         11    1    1    2    0    0  0.10244047772E+03 -0.55263521853E+02  0.15049728455E+03  0.19025651364E+03  0.00000000000E+00 0. -1.
<mgrwt>
<rscale>  0 0.18110472E+03</rscale>
<asrwt>0</asrwt>
<pdfrwt beam="1">  1        2 0.23659730E+00 0.18695730E+03</pdfrwt>
<pdfrwt beam="2">  1       -2 0.53560221E-02 0.18695730E+03</pdfrwt>
<totfact> 0.22969939E+03</totfact>
</mgrwt>
</event>
<event>
 7    1  0.5206756E-006  0.1259042E+03  0.7546771E-02  0.1239997E+00
          2   -1    0    0  501    0  0.00000000000E+00  0.00000000000E+00  0.91736146449E+03  0.91736146449E+03  0.00000000000E+00 0. -1.
         -2   -1    0    0    0  501 -0.00000000000E+00 -0.00000000000E+00 -0.15248855858E+02  0.15248855858E+02  0.00000000000E+00 0.  1.
         23    2    1    2    0    0  0.15062524111E+02  0.58086536294E+00  0.48475657954E+03  0.50084011310E+03  0.12499864176E+03 0.  0.
          5    1    3    3  502    0  0.13092039824E+02 -0.52596639602E+02  0.37328577132E+03  0.37722959199E+03  0.47000000000E+01 0. -1.
         -5    1    3    3    0  502  0.19704842865E+01  0.53177504965E+02  0.11147080822E+03  0.12361052111E+03  0.47000000000E+01 0. -1.
        -11    1    1    2    0    0 -0.60262731991E+02  0.11909246410E+02  0.19201768907E+03  0.20160411686E+03  0.00000000000E+00 0.  1.
         11    1    1    2    0    0  0.45200207880E+02 -0.12490111773E+02  0.22533834002E+03  0.23016609039E+03  0.00000000000E+00 0. -1.
<mgrwt>
<rscale>  0 0.12189911E+03</rscale>
<asrwt>0</asrwt>
<pdfrwt beam="1">  1        2 0.14113249E+00 0.12590424E+03</pdfrwt>
<pdfrwt beam="2">  1       -2 0.23459785E-02 0.12590424E+03</pdfrwt>
<totfact> 0.17151104E+04</totfact>
</mgrwt>
</event>
<event>
 7    1  0.5206756E-006  0.1554466E+03  0.7546771E-02  0.1201948E+00
          2   -1    0    0  501    0  0.00000000000E+00  0.00000000000E+00  0.59921478116E+02  0.59921478116E+02  0.00000000000E+00 0. -1.
         -2   -1    0    0    0  501 -0.00000000000E+00 -0.00000000000E+00 -0.34529916491E+03  0.34529916491E+03  0.00000000000E+00 0.  1.
         23    2    1    2    0    0  0.38574879823E+01 -0.92329935224E+02 -0.13304651904E+03  0.20460943359E+03  0.12499578766E+03 0.  0.
          5    1    3    3  502    0 -0.49403230450E+02 -0.13681273657E+01 -0.48479742215E+02  0.69389670389E+02  0.47000000000E+01 0.  1.
         -5    1    3    3    0  502  0.53260718433E+02 -0.90961807859E+02 -0.84566776829E+02  0.13521976320E+03  0.47000000000E+01 0.  1.
        -11    1    1    2    0    0  0.28362955728E+02  0.14080063788E+02 -0.90288567493E+02  0.95680357827E+02  0.00000000000E+00 0.  1.
         11    1    1    2    0    0 -0.32220443710E+02  0.78249871436E+02 -0.62042600252E+02  0.10493085161E+03  0.00000000000E+00 0. -1.
<mgrwt>
<rscale>  0 0.14880579E+03</rscale>
<asrwt>0</asrwt>
<pdfrwt beam="1">  1        2 0.92186888E-02 0.15544660E+03</pdfrwt>
<pdfrwt beam="2">  1       -2 0.53122949E-01 0.15544660E+03</pdfrwt>
<totfact> 0.23410536E+03</totfact>
</mgrwt>
</event>
<event>
 7    1  0.5206756E-006  0.2081420E+03  0.7546771E-02  0.1146962E+00
         -1   -1    0    0    0  501 -0.00000000000E+00  0.00000000000E+00  0.44044495945E+02  0.44044495945E+02  0.00000000000E+00 0.  1.
          1   -1    0    0  501    0  0.00000000000E+00 -0.00000000000E+00 -0.90105035340E+03  0.90105035340E+03  0.00000000000E+00 0. -1.
         23    2    1    2    0    0 -0.19314749975E+02 -0.16529766686E+03 -0.47736778309E+03  0.52077162011E+03  0.12500680680E+03 0.  0.
          5    1    3    3  502    0  0.35470526987E+02 -0.17808383533E+02 -0.17923412532E+03  0.18363621236E+03  0.47000000000E+01 0. -1.
         -5    1    3    3    0  502 -0.54785276962E+02 -0.14748928333E+03 -0.29813365777E+03  0.33713540776E+03  0.47000000000E+01 0. -1.
        -11    1    1    2    0    0 -0.24674099062E+02  0.35379809470E+02 -0.15706535215E+03  0.16288052962E+03  0.00000000000E+00 0. -1.
         11    1    1    2    0    0  0.43988849036E+02  0.12991785739E+03 -0.22257272222E+03  0.26144269962E+03  0.00000000000E+00 0.  1.
<mgrwt>
<rscale>  0 0.20332676E+03</rscale>
<asrwt>0</asrwt>
<pdfrwt beam="2">  1        1 0.13862313E+00 0.20814197E+03</pdfrwt>
<pdfrwt beam="1">  1       -1 0.67760765E-02 0.20814197E+03</pdfrwt>
<totfact> 0.21085092E+03</totfact>
</mgrwt>
</event>
<event>
 7    1  0.5206756E-006  0.1555020E+03  0.7546771E-02  0.1202470E+00
         -1   -1    0    0    0  501 -0.00000000000E+00  0.00000000000E+00  0.31004652201E+03  0.31004652201E+03  0.00000000000E+00 0.  1.
          1   -1    0    0  501    0  0.00000000000E+00 -0.00000000000E+00 -0.74612513640E+02  0.74612513640E+02  0.00000000000E+00 0. -1.
         23    2    1    2    0    0  0.10316322985E+02  0.91925210809E+02  0.59408451102E+02  0.16646392461E+03  0.12499681289E+03 0.  0.
          5    1    3    3  502    0 -0.92226930922E+01  0.11489614003E+03  0.20755451605E+02  0.11721373569E+03  0.47000000000E+01 0.  1.
         -5    1    3    3    0  502  0.19539016077E+02 -0.22970929224E+02  0.38652999497E+02  0.49250188922E+02  0.47000000000E+01 0.  1.
        -11    1    1    2    0    0  0.52000456426E+01 -0.10649774618E+03  0.15608695376E+03  0.18902895956E+03  0.00000000000E+00 0.  1.
         11    1    1    2    0    0 -0.15516368627E+02  0.14572535373E+02  0.19938603506E+02  0.29166151484E+02  0.00000000000E+00 0. -1.
<mgrwt>
<rscale>  0 0.14838647E+03</rscale>
<asrwt>0</asrwt>
<pdfrwt beam="2">  1        1 0.11478848E-01 0.15550201E+03</pdfrwt>
<pdfrwt beam="1">  1       -1 0.47699464E-01 0.15550201E+03</pdfrwt>
<totfact> 0.23295262E+03</totfact>
</mgrwt>
</event>
<event>
 7    1  0.5206756E-006  0.1404017E+03  0.7546771E-02  0.1223376E+00
          1   -1    0    0  501    0  0.00000000000E+00  0.00000000000E+00  0.33931313552E+03  0.33931313552E+03  0.00000000000E+00 0. -1.
         -1   -1    0    0    0  501 -0.00000000000E+00 -0.00000000000E+00 -0.47399069303E+02  0.47399069303E+02  0.00000000000E+00 0.  1.
         23    2    1    2    0    0  0.47222744307E+02  0.43108476109E+02  0.17822147685E+03  0.22688222218E+03  0.12499727852E+03 0.  0.
          5    1    3    3  502    0  0.51396104817E+02  0.79586924891E+02  0.88111734370E+02  0.12946584854E+03  0.47000000000E+01 0. -1.
         -5    1    3    3    0  502 -0.41733605101E+01 -0.36478448781E+02  0.90109742476E+02  0.97416373637E+02  0.47000000000E+01 0. -1.
        -11    1    1    2    0    0 -0.29462707406E+02  0.20428116501E+02  0.10511674078E+02  0.37361134397E+02  0.00000000000E+00 0.  1.
         11    1    1    2    0    0 -0.17760036901E+02 -0.63536592611E+02  0.10318091529E+03  0.12246884825E+03  0.00000000000E+00 0. -1.
<mgrwt>
<rscale>  0 0.13278840E+03</rscale>
<asrwt>0</asrwt>
<pdfrwt beam="1">  1        1 0.52202019E-01 0.14040174E+03</pdfrwt>
<pdfrwt beam="2">  1       -1 0.72921647E-02 0.14040174E+03</pdfrwt>
<totfact> 0.71013601E+03</totfact>
</mgrwt>
</event>
<event>
 7    1  0.6573007E-006  0.3789231E+03  0.7546771E-02  0.1052384E+00
          1   -1    0    0  501    0  0.00000000000E+00  0.00000000000E+00  0.61306233149E+03  0.61306233149E+03  0.00000000000E+00 0. -1.
         -1   -1    0    0    0  501 -0.00000000000E+00 -0.00000000000E+00 -0.26415244966E+03  0.26415244966E+03  0.00000000000E+00 0.  1.
         23    2    1    2    0    0  0.89433857075E+02 -0.34635243498E+03  0.34038488962E+03  0.50935702064E+03  0.12499710952E+03 0.  0.
          5    1    3    3  502    0 -0.25556267247E+02 -0.11851169796E+03  0.83979610051E+02  0.14755612577E+03  0.47000000000E+01 0. -1.
         -5    1    3    3    0  502  0.11499012432E+03 -0.22784073701E+03  0.25640527957E+03  0.36180089487E+03  0.47000000000E+01 0. -1.
        -11    1    1    2    0    0 -0.67695322765E+02  0.11694747242E+03  0.22562560335E+02  0.13699794582E+03  0.00000000000E+00 0.  1.
         11    1    1    2    0    0 -0.21738534310E+02  0.22940496255E+03 -0.14037568120E+02  0.23085981469E+03  0.00000000000E+00 0. -1.
<mgrwt>
<rscale>  0 0.37610067E+03</rscale>
<asrwt>0</asrwt>
<pdfrwt beam="1">  1        1 0.94317281E-01 0.37892308E+03</pdfrwt>
<pdfrwt beam="2">  1       -1 0.40638839E-01 0.37892308E+03</pdfrwt>
<totfact> 0.20430697E+02</totfact>
</mgrwt>
</event>
<event>
 7    1  0.5206756E-006  0.1349080E+03  0.7546771E-02  0.1232911E+00
          1   -1    0    0  501    0  0.00000000000E+00  0.00000000000E+00  0.22418690765E+03  0.22418690765E+03  0.00000000000E+00 0. -1.
         -1   -1    0    0    0  501 -0.00000000000E+00 -0.00000000000E+00 -0.68611555235E+02  0.68611555235E+02  0.00000000000E+00 0.  1.
         23    2    1    2    0    0  0.41884726951E+02  0.28638631489E+02  0.12634758395E+03  0.18483477254E+03  0.12500271839E+03 0.  0.
          5    1    3    3  502    0 -0.13822898842E+02 -0.27501584766E+01 -0.20084111884E+02  0.24981942563E+02  0.47000000000E+01 0. -1.
         -5    1    3    3    0  502  0.55707625793E+02  0.31388789966E+02  0.14643169584E+03  0.15985282998E+03  0.47000000000E+01 0. -1.
        -11    1    1    2    0    0 -0.20809160518E+02  0.41450750165E+00 -0.31303422300E+02  0.37591185478E+02  0.00000000000E+00 0.  1.
         11    1    1    2    0    0 -0.21075566433E+02 -0.29053138991E+02  0.60531190760E+02  0.70372504862E+02  0.00000000000E+00 0. -1.
<mgrwt>
<rscale>  0 0.12639092E+03</rscale>
<asrwt>0</asrwt>
<pdfrwt beam="1">  1        1 0.34490293E-01 0.13490805E+03</pdfrwt>
<pdfrwt beam="2">  1       -1 0.10555624E-01 0.13490805E+03</pdfrwt>
<totfact> 0.67540219E+03</totfact>
</mgrwt>
</event>
<event>
 7    1  0.5206756E-006  0.1515874E+03  0.7546771E-02  0.1206568E+00
         -3   -1    0    0    0  501 -0.00000000000E+00  0.00000000000E+00  0.61192514013E+02  0.61192514013E+02  0.00000000000E+00 0.  1.
          3   -1    0    0  501    0  0.00000000000E+00 -0.00000000000E+00 -0.32012976479E+03  0.32012976479E+03  0.00000000000E+00 0. -1.
         23    2    1    2    0    0  0.21229864656E+02 -0.83085477215E+02 -0.12521796977E+03  0.19661712438E+03  0.12499939987E+03 0.  0.
          5    1    3    3  502    0  0.65644986220E+01 -0.60995630455E+02  0.67803336373E+01  0.61900100978E+02  0.47000000000E+01 0.  1.
         -5    1    3    3    0  502  0.14665366034E+02 -0.22089846759E+02 -0.13199830341E+03  0.13471702340E+03  0.47000000000E+01 0.  1.
        -11    1    1    2    0    0  0.22457557678E+02  0.21496964373E+02  0.58479333676E-01  0.31088016887E+02  0.00000000000E+00 0.  1.
         11    1    1    2    0    0 -0.43687422334E+02  0.61588512841E+02 -0.13377776034E+03  0.15361713754E+03  0.00000000000E+00 0. -1.
<mgrwt>
<rscale>  0 0.14514579E+03</rscale>
<asrwt>0</asrwt>
<pdfrwt beam="2">  1        3 0.49250732E-01 0.15158745E+03</pdfrwt>
<pdfrwt beam="1">  1       -3 0.94142332E-02 0.15158745E+03</pdfrwt>
<totfact> 0.78961248E+02</totfact>
</mgrwt>
</event>
<event>
 7    1  0.5206756E-006  0.1291869E+03  0.7546771E-02  0.1241888E+00
          1   -1    0    0  501    0  0.00000000000E+00  0.00000000000E+00  0.10282626600E+03  0.10282626600E+03  0.00000000000E+00 0. -1.
         -1   -1    0    0    0  501 -0.00000000000E+00 -0.00000000000E+00 -0.12613713078E+03  0.12613713078E+03  0.00000000000E+00 0.  1.
         23    2    1    2    0    0 -0.22160834105E+02 -0.23932348087E+02 -0.11373647904E+02  0.12968664765E+03  0.12500162742E+03 0.  0.
          5    1    3    3  502    0  0.13722240121E+02  0.27712372861E+02 -0.47601845773E+02  0.56958767583E+02  0.47000000000E+01 0. -1.
         -5    1    3    3    0  502 -0.35883074227E+02 -0.51644720948E+02  0.36228197869E+02  0.72727880064E+02  0.47000000000E+01 0. -1.
        -11    1    1    2    0    0 -0.31984962069E+02  0.29913499020E+02 -0.90932114426E+01  0.44727415715E+02  0.00000000000E+00 0. -1.
         11    1    1    2    0    0  0.54145796174E+02 -0.59811509328E+01 -0.28440054284E+01  0.54549333421E+02  0.00000000000E+00 0.  1.
<mgrwt>
<rscale>  0 0.12073557E+03</rscale>
<asrwt>0</asrwt>
<pdfrwt beam="1">  1        1 0.15819426E-01 0.12918694E+03</pdfrwt>
<pdfrwt beam="2">  1       -1 0.19405712E-01 0.12918694E+03</pdfrwt>
<totfact> 0.69459058E+03</totfact>
</mgrwt>
</event>
<event>
 6    1  0.5206756E-006  0.1647207E+03  0.7546771E-02  0.1207658E+00
          2   -1    0    0  501    0  0.00000000000E+00  0.00000000000E+00  0.76949624746E+02  0.76949624746E+02  0.00000000000E+00 0. -1.
         -2   -1    0    0    0  501 -0.00000000000E+00 -0.00000000000E+00 -0.30414406363E+03  0.30414406363E+03  0.00000000000E+00 0.  1.
          5    1    1    2  502    0 -0.76441820579E+02 -0.16722650332E+02 -0.46379782667E+02  0.91083331119E+02  0.47000000000E+01 0. -1.
         -5    1    1    2    0  502  0.53078882379E+02 -0.12788476258E+02 -0.18496430767E+03  0.19291137341E+03  0.47000000000E+01 0.  1.
        -11    1    1    2    0    0 -0.16266693768E+02 -0.95941485049E+01  0.30209415716E+02  0.35626700796E+02  0.00000000000E+00 0.  1.
         11    1    1    2    0    0  0.39629631968E+02  0.39105275095E+02 -0.26059764267E+02  0.61472283053E+02  0.00000000000E+00 0. -1.
<mgrwt>
<rscale>  0 0.14429974E+03</rscale>
<asrwt>0</asrwt>
<pdfrwt beam="1">  1        2 0.11838404E-01 0.16472069E+03</pdfrwt>
<pdfrwt beam="2">  1       -2 0.46791395E-01 0.16472069E+03</pdfrwt>
<totfact> 0.22218701E+03</totfact>
</mgrwt>
</event>
<event>
 7    1  0.5206756E-006  0.1365870E+03  0.7546771E-02  0.1229590E+00
         -1   -1    0    0    0  501 -0.00000000000E+00  0.00000000000E+00  0.50981127996E+02  0.50981127996E+02  0.00000000000E+00 0.  1.
          1   -1    0    0  501    0  0.00000000000E+00 -0.00000000000E+00 -0.36975059045E+03  0.36975059045E+03  0.00000000000E+00 0. -1.
         23    2    1    2    0    0 -0.14780544710E+02  0.53029418628E+02 -0.27070684616E+03  0.30321311781E+03  0.12500165802E+03 0.  0.
          5    1    3    3  502    0 -0.57503905470E+02  0.69151511284E+02 -0.16523229928E+03  0.18818191566E+03  0.47000000000E+01 0. -1.
         -5    1    3    3    0  502  0.42723360761E+02 -0.16122092656E+02 -0.10547454689E+03  0.11503120215E+03  0.47000000000E+01 0. -1.
        -11    1    1    2    0    0 -0.13955805201E+02  0.21235508546E+02 -0.22344825089E+02  0.33837886020E+02  0.00000000000E+00 0. -1.
         11    1    1    2    0    0  0.28736349911E+02 -0.74264927175E+02 -0.25717791196E+02  0.83680714615E+02  0.00000000000E+00 0.  1.
<mgrwt>
<rscale>  0 0.12857219E+03</rscale>
<asrwt>0</asrwt>
<pdfrwt beam="2">  1        1 0.56884707E-01 0.13658696E+03</pdfrwt>
<pdfrwt beam="1">  1       -1 0.78432503E-02 0.13658696E+03</pdfrwt>
<totfact> 0.57065526E+03</totfact>
</mgrwt>
</event>
<event>
 6    1  0.5206756E-006  0.1660494E+03  0.7546771E-02  0.1196433E+00
          1   -1    0    0  501    0  0.00000000000E+00  0.00000000000E+00  0.25016610511E+03  0.25016610511E+03  0.00000000000E+00 0. -1.
         -1   -1    0    0    0  501 -0.00000000000E+00 -0.00000000000E+00 -0.92652183880E+02  0.92652183880E+02  0.00000000000E+00 0.  1.
          5    1    1    2  502    0  0.63870216206E+02 -0.71082940244E+02  0.42731993354E+02  0.10478693701E+03  0.47000000000E+01 0. -1.
         -5    1    1    2    0  502 -0.52786443333E+02 -0.42830011940E+01  0.10400758903E+03  0.11680933727E+03  0.47000000000E+01 0.  1.
        -11    1    1    2    0    0 -0.48291965672E+02  0.59160855228E+02  0.21323571598E+02  0.79289440946E+02  0.00000000000E+00 0.  1.
         11    1    1    2    0    0  0.37208192800E+02  0.16205086211E+02 -0.10549232750E+02  0.41932573760E+02  0.00000000000E+00 0. -1.
<mgrwt>
<rscale>  0 0.15333553E+03</rscale>
<asrwt>0</asrwt>
<pdfrwt beam="1">  1        1 0.38487093E-01 0.16604940E+03</pdfrwt>
<pdfrwt beam="2">  1       -1 0.14254182E-01 0.16604940E+03</pdfrwt>
<totfact> 0.37453142E+03</totfact>
</mgrwt>
</event>
<event>
 7    1  0.5206756E-006  0.1877981E+03  0.7546771E-02  0.1165288E+00
          1   -1    0    0  501    0  0.00000000000E+00  0.00000000000E+00  0.10686153763E+03  0.10686153763E+03  0.00000000000E+00 0. -1.
         -1   -1    0    0    0  501 -0.00000000000E+00 -0.00000000000E+00 -0.30826389307E+03  0.30826389307E+03  0.00000000000E+00 0.  1.
         23    2    1    2    0    0 -0.13709556291E+03 -0.29136970718E+02 -0.64860051492E+02  0.19868306901E+03  0.12499591672E+03 0.  0.
          5    1    3    3  502    0 -0.99571508190E+02 -0.15204997705E+02 -0.10232291226E+03  0.14365843369E+03  0.47000000000E+01 0.  1.
         -5    1    3    3    0  502 -0.37524054724E+02 -0.13931973013E+02  0.37462860763E+02  0.55024635315E+02  0.47000000000E+01 0.  1.
        -11    1    1    2    0    0  0.13594016412E+03  0.51481877589E+02 -0.11459302691E+03  0.18509909173E+03  0.00000000000E+00 0. -1.
         11    1    1    2    0    0  0.11553987909E+01 -0.22344906871E+02 -0.21949277043E+02  0.31343269966E+02  0.00000000000E+00 0.  1.
<mgrwt>
<rscale>  0 0.18262335E+03</rscale>
<asrwt>0</asrwt>
<pdfrwt beam="1">  1        1 0.16440237E-01 0.18779812E+03</pdfrwt>
<pdfrwt beam="2">  1       -1 0.47425213E-01 0.18779812E+03</pdfrwt>
<totfact> 0.14802185E+03</totfact>
</mgrwt>
</event>
<event>
 7    1  0.5206756E-006  0.1414599E+03  0.7546771E-02  0.1222454E+00
         -1   -1    0    0    0  501 -0.00000000000E+00  0.00000000000E+00  0.53175652644E+02  0.53175652644E+02  0.00000000000E+00 0. -1.
          1   -1    0    0  501    0  0.00000000000E+00 -0.00000000000E+00 -0.66813325035E+03  0.66813325035E+03  0.00000000000E+00 0.  1.
         23    2    1    2    0    0  0.66216527518E+02 -0.23298605450E+01 -0.58982491950E+03  0.60655117284E+03  0.12498333025E+03 0.  0.
          5    1    3    3  502    0  0.94377965912E+02 -0.18304851649E+02 -0.52700482133E+03  0.53572235323E+03  0.47000000000E+01 0. -1.
         -5    1    3    3    0  502 -0.28161438393E+02  0.15974991104E+02 -0.62820098163E+02  0.70828819603E+02  0.47000000000E+01 0. -1.
        -11    1    1    2    0    0 -0.32990744086E+02  0.13712197312E+02 -0.57041147979E+02  0.67306062976E+02  0.00000000000E+00 0.  1.
         11    1    1    2    0    0 -0.33225783432E+02 -0.11382336767E+02  0.31908469773E+02  0.47451667181E+02  0.00000000000E+00 0. -1.
<mgrwt>
<rscale>  0 0.13342956E+03</rscale>
<asrwt>0</asrwt>
<pdfrwt beam="2">  1        1 0.10278973E+00 0.14145985E+03</pdfrwt>
<pdfrwt beam="1">  1       -1 0.81808695E-02 0.14145985E+03</pdfrwt>
<totfact> 0.24670381E+03</totfact>
</mgrwt>
</event>
<event>
 7    1  0.5206756E-006  0.2454216E+03  0.7546771E-02  0.1119013E+00
          1   -1    0    0  501    0  0.00000000000E+00  0.00000000000E+00  0.77954030413E+03  0.77954030413E+03  0.00000000000E+00 0. -1.
         -1   -1    0    0    0  501 -0.00000000000E+00 -0.00000000000E+00 -0.76028931689E+02  0.76028931689E+02  0.00000000000E+00 0.  1.
         23    2    1    2    0    0  0.70147360426E+02 -0.19921071295E+03  0.46006082631E+03  0.52142853003E+03  0.12500475068E+03 0.  0.
          5    1    3    3  502    0  0.76837231758E+02 -0.17712190710E+03  0.45885830105E+03  0.49784451448E+03  0.47000000000E+01 0. -1.
         -5    1    3    3    0  502 -0.66898713324E+01 -0.22088805849E+02  0.12025252626E+01  0.23584015546E+02  0.47000000000E+01 0. -1.
        -11    1    1    2    0    0 -0.62884685199E+02  0.10518950018E+03  0.82948113391E+02  0.14798548610E+03  0.00000000000E+00 0. -1.
         11    1    1    2    0    0 -0.72626752263E+01  0.94021212771E+02  0.16050243274E+03  0.18615521969E+03  0.00000000000E+00 0.  1.
<mgrwt>
<rscale>  0 0.24117492E+03</rscale>
<asrwt>0</asrwt>
<pdfrwt beam="1">  1        1 0.11992927E+00 0.24542157E+03</pdfrwt>
<pdfrwt beam="2">  1       -1 0.11696759E-01 0.24542157E+03</pdfrwt>
<totfact> 0.11451663E+03</totfact>
</mgrwt>
</event>
<event>
 7    1  0.5206756E-006  0.1411484E+03  0.7546771E-02  0.1223364E+00
          2   -1    0    0  501    0  0.00000000000E+00  0.00000000000E+00  0.57508903018E+02  0.57508903018E+02  0.00000000000E+00 0.  1.
         -2   -1    0    0    0  501 -0.00000000000E+00 -0.00000000000E+00 -0.27613521102E+03  0.27613521102E+03  0.00000000000E+00 0. -1.
         23    2    1    2    0    0 -0.12415691291E+02  0.64371592165E+02 -0.13055169594E+03  0.19226704956E+03  0.12500008707E+03 0.  0.
          5    1    3    3  502    0 -0.34713776155E+02 -0.12322974973E+02  0.22754990213E+01  0.37204433377E+02  0.47000000000E+01 0.  1.
         -5    1    3    3    0  502  0.22298084864E+02  0.76694567137E+02 -0.13282719496E+03  0.15506261619E+03  0.47000000000E+01 0.  1.
        -11    1    1    2    0    0  0.31426200805E+02  0.73835377459E+01 -0.10351177426E+02  0.33900879056E+02  0.00000000000E+00 0.  1.
         11    1    1    2    0    0 -0.19010509514E+02 -0.71755129911E+02 -0.77723434639E+02  0.10747618542E+03  0.00000000000E+00 0. -1.
<mgrwt>
<rscale>  0 0.13279655E+03</rscale>
<asrwt>0</asrwt>
<pdfrwt beam="1">  1        2 0.88475236E-02 0.14114841E+03</pdfrwt>
<pdfrwt beam="2">  1       -2 0.42482340E-01 0.14114841E+03</pdfrwt>
<totfact> 0.37971850E+03</totfact>
</mgrwt>
</event>
<event>
 7    1  0.5206756E-006  0.1125163E+03  0.7546771E-02  0.1265112E+00
         -4   -1    0    0    0  501 -0.00000000000E+00  0.00000000000E+00  0.15555228469E+03  0.15555228469E+03  0.00000000000E+00 0.  1.
          4   -1    0    0  501    0  0.00000000000E+00 -0.00000000000E+00 -0.17951591407E+03  0.17951591407E+03  0.00000000000E+00 0. -1.
         23    2    1    2    0    0 -0.13063041029E+02  0.47731369321E+00 -0.14389379607E+03  0.18266182016E+03  0.11175439646E+03 0.  0.
          5    1    3    3  502    0 -0.12674056007E+02  0.19455940402E+02 -0.15722142941E+03  0.15899633070E+03  0.47000000000E+01 0. -1.
         -5    1    3    3    0  502 -0.38898502187E+00 -0.18978626708E+02  0.13327633335E+02  0.23665489460E+02  0.47000000000E+01 0.  1.
        -11    1    1    2    0    0  0.52755697758E+02  0.45809561159E+01  0.56730998314E+02  0.77605122090E+02  0.00000000000E+00 0.  1.
         11    1    1    2    0    0 -0.39692656729E+02 -0.50582698091E+01  0.63199168375E+02  0.74801256506E+02  0.00000000000E+00 0. -1.
<mgrwt>
<rscale>  0 0.10758345E+03</rscale>
<asrwt>0</asrwt>
<pdfrwt beam="2">  1        4 0.27617833E-01 0.11251629E+03</pdfrwt>
<pdfrwt beam="1">  1       -4 0.23931121E-01 0.11251629E+03</pdfrwt>
<totfact> 0.32406914E+02</totfact>
</mgrwt>
</event>
<event>
 7    1  0.5206756E-006  0.1498702E+03  0.7546771E-02  0.1209836E+00
          1   -1    0    0  501    0  0.00000000000E+00  0.00000000000E+00  0.80071962725E+02  0.80071962725E+02  0.00000000000E+00 0. -1.
         -1   -1    0    0    0  501 -0.00000000000E+00 -0.00000000000E+00 -0.23236059594E+03  0.23236059594E+03  0.00000000000E+00 0.  1.
         23    2    1    2    0    0 -0.10778551826E+02  0.81968723966E+02 -0.84010923948E+02  0.17181069379E+03  0.12500412101E+03 0.  0.
          5    1    3    3  502    0 -0.79773333635E+01 -0.23933792432E+02 -0.56804963038E+02  0.62332640676E+02  0.47000000000E+01 0. -1.
         -5    1    3    3    0  502 -0.28012184621E+01  0.10590251640E+03 -0.27205960910E+02  0.10947805311E+03  0.47000000000E+01 0. -1.
        -11    1    1    2    0    0  0.47387992074E+02 -0.29869345243E+02 -0.16058689994E+02  0.58272472939E+02  0.00000000000E+00 0. -1.
         11    1    1    2    0    0 -0.36609440249E+02 -0.52099378723E+02 -0.52219019273E+02  0.82349391937E+02  0.00000000000E+00 0.  1.
<mgrwt>
<rscale>  0 0.14262778E+03</rscale>
<asrwt>0</asrwt>
<pdfrwt beam="1">  1        1 0.12318764E-01 0.14987021E+03</pdfrwt>
<pdfrwt beam="2">  1       -1 0.35747784E-01 0.14987021E+03</pdfrwt>
<totfact> 0.35285204E+03</totfact>
</mgrwt>
</event>
<event>
 7    1  0.5206756E-006  0.1688926E+03  0.7546771E-02  0.1186655E+00
         -2   -1    0    0    0  501 -0.00000000000E+00  0.00000000000E+00  0.46732549244E+02  0.46732549244E+02  0.00000000000E+00 0.  1.
          2   -1    0    0  501    0  0.00000000000E+00 -0.00000000000E+00 -0.54958889582E+03  0.54958889582E+03  0.00000000000E+00 0. -1.
         23    2    1    2    0    0  0.69662001206E+02 -0.89030496936E+02 -0.34268664570E+03  0.38204560727E+03  0.12548101487E+03 0.  0.
          5    1    3    3  502    0  0.11074272202E+01 -0.54859018587E+02 -0.27262445270E+03  0.27813112110E+03  0.47000000000E+01 0.  1.
         -5    1    3    3    0  502  0.68554573986E+02 -0.34171478349E+02 -0.70062193000E+02  0.10391448616E+03  0.47000000000E+01 0.  1.
        -11    1    1    2    0    0 -0.17104736745E+02  0.32641473104E+02 -0.36752792008E+00  0.36853396889E+02  0.00000000000E+00 0.  1.
         11    1    1    2    0    0 -0.52557264461E+02  0.56389023833E+02 -0.15980217295E+03  0.17742244090E+03  0.00000000000E+00 0. -1.
<mgrwt>
<rscale>  0 0.16182192E+03</rscale>
<asrwt>0</asrwt>
<pdfrwt beam="2">  1        2 0.84552131E-01 0.16889260E+03</pdfrwt>
<pdfrwt beam="1">  1       -2 0.71896236E-02 0.16889260E+03</pdfrwt>
<totfact> 0.60797545E+03</totfact>
</mgrwt>
</event>
<event>
 7    1  0.5206756E-006  0.1310375E+03  0.7546771E-02  0.1240128E+00
          2   -1    0    0  501    0  0.00000000000E+00  0.00000000000E+00  0.50358039057E+03  0.50358039057E+03  0.00000000000E+00 0. -1.
         -2   -1    0    0    0  501 -0.00000000000E+00 -0.00000000000E+00 -0.26077636667E+02  0.26077636667E+02  0.00000000000E+00 0.  1.
         23    2    1    2    0    0 -0.19264562614E+02 -0.34256037777E+02  0.28626096330E+03  0.31482718055E+03  0.12500485992E+03 0.  0.
          5    1    3    3  502    0 -0.66487212671E+02 -0.47361147003E+02  0.18237568877E+03  0.19986647931E+03  0.47000000000E+01 0. -1.
         -5    1    3    3    0  502  0.47222650057E+02  0.13105109226E+02  0.10388527453E+03  0.11496070124E+03  0.47000000000E+01 0. -1.
        -11    1    1    2    0    0  0.23190364150E+01 -0.19278986025E+02  0.46419079535E+01  0.19965083058E+02  0.00000000000E+00 0.  1.
         11    1    1    2    0    0  0.16945526199E+02  0.53535023802E+02  0.18659988265E+03  0.19486576363E+03  0.00000000000E+00 0. -1.
<mgrwt>
<rscale>  0 0.12181783E+03</rscale>
<asrwt>0</asrwt>
<pdfrwt beam="1">  1        2 0.77473899E-01 0.13103745E+03</pdfrwt>
<pdfrwt beam="2">  1       -2 0.40119445E-02 0.13103745E+03</pdfrwt>
<totfact> 0.15914033E+04</totfact>
</mgrwt>
</event>
<event>
 7    1  0.5206756E-006  0.1629833E+03  0.7546771E-02  0.1193064E+00
         -2   -1    0    0    0  501 -0.00000000000E+00  0.00000000000E+00  0.58257056279E+02  0.58257056279E+02  0.00000000000E+00 0. -1.
          2   -1    0    0  501    0  0.00000000000E+00 -0.00000000000E+00 -0.39968638869E+03  0.39968638869E+03  0.00000000000E+00 0.  1.
         23    2    1    2    0    0  0.86640641477E+02  0.58578809592E+02 -0.22479401303E+03  0.27766148173E+03  0.12500188981E+03 0.  0.
          5    1    3    3  502    0 -0.67771831771E+01  0.30334729333E+02  0.11909902256E+01  0.31458456307E+02  0.47000000000E+01 0.  1.
         -5    1    3    3    0  502  0.93417824654E+02  0.28244080259E+02 -0.22598500325E+03  0.24620302542E+03  0.47000000000E+01 0.  1.
        -11    1    1    2    0    0 -0.59264466076E+00 -0.48356638402E+02 -0.58654406696E+02  0.76020096883E+02  0.00000000000E+00 0.  1.
         11    1    1    2    0    0 -0.86047996816E+02 -0.10222171189E+02 -0.57980912690E+02  0.10426186636E+03  0.00000000000E+00 0. -1.
<mgrwt>
<rscale>  0 0.15619196E+03</rscale>
<asrwt>0</asrwt>
<pdfrwt beam="2">  1        2 0.61490213E-01 0.16298328E+03</pdfrwt>
<pdfrwt beam="1">  1       -2 0.89626241E-02 0.16298328E+03</pdfrwt>
<totfact> 0.61128862E+03</totfact>
</mgrwt>
</event>
<event>
 7    1  0.5206756E-006  0.1543312E+03  0.7546771E-02  0.1203772E+00
          2   -1    0    0  501    0  0.00000000000E+00  0.00000000000E+00  0.19192384179E+04  0.19192384179E+04  0.00000000000E+00 0. -1.
         -2   -1    0    0    0  501 -0.00000000000E+00 -0.00000000000E+00 -0.14709860853E+02  0.14709860853E+02  0.00000000000E+00 0.  1.
         23    2    1    2    0    0 -0.40970568064E+02  0.80704914177E+02  0.15362576699E+04  0.15439902046E+04  0.12500501202E+03 0.  0.
          5    1    3    3  502    0 -0.48576618555E+01 -0.10378294462E+02  0.91103230856E+03  0.91111649261E+03  0.47000000000E+01 0.  1.
         -5    1    3    3    0  502 -0.36112906208E+02  0.91083208639E+02  0.62522536136E+03  0.63287371203E+03  0.47000000000E+01 0.  1.
        -11    1    1    2    0    0  0.39076869402E+02 -0.97261501812E+02  0.34939342729E+03  0.36477742322E+03  0.00000000000E+00 0. -1.
         11    1    1    2    0    0  0.18936986616E+01  0.16556587635E+02  0.18877459789E+02  0.25180650842E+02  0.00000000000E+00 0.  1.
<mgrwt>
<rscale>  0 0.14734682E+03</rscale>
<asrwt>0</asrwt>
<pdfrwt beam="1">  1        2 0.29526725E+00 0.15433121E+03</pdfrwt>
<pdfrwt beam="2">  1       -2 0.22630570E-02 0.15433121E+03</pdfrwt>
<totfact> 0.52434265E+03</totfact>
</mgrwt>
</event>
<event>
 7    1  0.5206756E-006  0.1509250E+03  0.7546771E-02  0.1208498E+00
         -2   -1    0    0    0  501 -0.00000000000E+00  0.00000000000E+00  0.25198102993E+02  0.25198102993E+02  0.00000000000E+00 0.  1.
          2   -1    0    0  501    0  0.00000000000E+00 -0.00000000000E+00 -0.75224395325E+03  0.75224395325E+03  0.00000000000E+00 0. -1.
         23    2    1    2    0    0 -0.69295097749E+02 -0.47824700389E+02 -0.37445195139E+03  0.40372345651E+03  0.12525714711E+03 0.  0.
          5    1    3    3  502    0 -0.64340280819E+02  0.29346923469E+02 -0.21629822947E+03  0.22761354908E+03  0.47000000000E+01 0.  1.
         -5    1    3    3    0  502 -0.49548169294E+01 -0.77171623858E+02 -0.15815372192E+03  0.17610990743E+03  0.47000000000E+01 0.  1.
        -11    1    1    2    0    0  0.34054720236E+02  0.22167234185E+01 -0.28275768345E+02  0.44318809873E+02  0.00000000000E+00 0. -1.
         11    1    1    2    0    0  0.35240377513E+02  0.45607976970E+02 -0.32431813053E+03  0.32939978986E+03  0.00000000000E+00 0.  1.
<mgrwt>
<rscale>  0 0.14365152E+03</rscale>
<asrwt>0</asrwt>
<pdfrwt beam="2">  1        2 0.11572981E+00 0.15092503E+03</pdfrwt>
<pdfrwt beam="1">  1       -2 0.38766321E-02 0.15092503E+03</pdfrwt>
<totfact> 0.10658600E+04</totfact>
</mgrwt>
</event>
<event>
 7    1  0.5206756E-006  0.1387689E+03  0.7546771E-02  0.1226018E+00
         -1   -1    0    0    0  501 -0.00000000000E+00  0.00000000000E+00  0.52516258080E+02  0.52516258080E+02  0.00000000000E+00 0.  1.
          1   -1    0    0  501    0  0.00000000000E+00 -0.00000000000E+00 -0.29672935982E+03  0.29672935982E+03  0.00000000000E+00 0. -1.
         23    2    1    2    0    0 -0.38168439374E+01 -0.60136238427E+02 -0.14974929597E+03  0.20416084646E+03  0.12500345641E+03 0.  0.
          5    1    3    3  502    0  0.43172806443E+02 -0.35235291794E+02 -0.13078654371E+02  0.57433075872E+02  0.47000000000E+01 0. -1.
         -5    1    3    3    0  502 -0.46989650380E+02 -0.24900946633E+02 -0.13667064160E+03  0.14672777059E+03  0.47000000000E+01 0. -1.
        -11    1    1    2    0    0 -0.44002727515E+02  0.23737991912E+02 -0.41347078282E+02  0.64879219872E+02  0.00000000000E+00 0.  1.
         11    1    1    2    0    0  0.47819571453E+02  0.36398246515E+02 -0.53116727482E+02  0.80205551564E+02  0.00000000000E+00 0. -1.
<mgrwt>
<rscale>  0 0.13097383E+03</rscale>
<asrwt>0</asrwt>
<pdfrwt beam="2">  1        1 0.45650671E-01 0.13876887E+03</pdfrwt>
<pdfrwt beam="1">  1       -1 0.80794242E-02 0.13876887E+03</pdfrwt>
<totfact> 0.71821459E+03</totfact>
</mgrwt>
</event>
<event>
 7    1  0.5466228E-006  0.1670758E+03  0.7546771E-02  0.1187405E+00
          1   -1    0    0  501    0  0.00000000000E+00  0.00000000000E+00  0.46206065930E+03  0.46206065930E+03  0.00000000000E+00 0. -1.
         -1   -1    0    0    0  501 -0.00000000000E+00 -0.00000000000E+00 -0.57038962968E+02  0.57038962968E+02  0.00000000000E+00 0.  1.
         23    2    1    2    0    0 -0.33257624802E+02 -0.10575113858E+03  0.28852445732E+03  0.33340767363E+03  0.12499976579E+03 0.  0.
          5    1    3    3  502    0 -0.35612455024E+02 -0.41620375790E+02  0.21984428443E+02  0.59210706191E+02  0.47000000000E+01 0.  1.
         -5    1    3    3    0  502  0.23548302220E+01 -0.64130762794E+02  0.26654002888E+03  0.27419696744E+03  0.47000000000E+01 0.  1.
        -11    1    1    2    0    0  0.35047590205E+02  0.15008695829E+02  0.78558655953E+02  0.87321572105E+02  0.00000000000E+00 0.  1.
         11    1    1    2    0    0 -0.17899654035E+01  0.90742442755E+02  0.37938583056E+02  0.98370376525E+02  0.00000000000E+00 0. -1.
<mgrwt>
<rscale>  0 0.16114955E+03</rscale>
<asrwt>0</asrwt>
<pdfrwt beam="1">  1        1 0.71086253E-01 0.16707577E+03</pdfrwt>
<pdfrwt beam="2">  1       -1 0.87752254E-02 0.16707577E+03</pdfrwt>
<totfact> 0.36626407E+03</totfact>
</mgrwt>
</event>
<event>
 7    1  0.5206756E-006  0.1368200E+03  0.7546771E-02  0.1228531E+00
         -1   -1    0    0    0  501 -0.00000000000E+00  0.00000000000E+00  0.78609630025E+02  0.78609630025E+02  0.00000000000E+00 0.  1.
          1   -1    0    0  501    0  0.00000000000E+00 -0.00000000000E+00 -0.20159681086E+03  0.20159681086E+03  0.00000000000E+00 0. -1.
         23    2    1    2    0    0  0.27471887713E+02  0.48361115257E+02 -0.98077627645E+02  0.16834174769E+03  0.12500488346E+03 0.  0.
          5    1    3    3  502    0  0.36463372814E+02 -0.32266441572E+02 -0.63177326327E+02  0.79900972275E+02  0.47000000000E+01 0. -1.
         -5    1    3    3    0  502 -0.89914851014E+01  0.80627556829E+02 -0.34900301318E+02  0.88440775418E+02  0.47000000000E+01 0. -1.
        -11    1    1    2    0    0  0.23165104504E+02  0.15244376722E+02 -0.73713128749E+01  0.28694064575E+02  0.00000000000E+00 0. -1.
         11    1    1    2    0    0 -0.50636992217E+02 -0.63605491979E+02 -0.17538240311E+02  0.83170628613E+02  0.00000000000E+00 0.  1.
<mgrwt>
<rscale>  0 0.12927803E+03</rscale>
<asrwt>0</asrwt>
<pdfrwt beam="2">  1        1 0.31014894E-01 0.13682004E+03</pdfrwt>
<pdfrwt beam="1">  1       -1 0.12093789E-01 0.13682004E+03</pdfrwt>
<totfact> 0.62569527E+03</totfact>
</mgrwt>
</event>
<event>
 7    1  0.5206756E-006  0.1657970E+03  0.7546771E-02  0.1187266E+00
          1   -1    0    0  501    0  0.00000000000E+00  0.00000000000E+00  0.11515588750E+04  0.11515588750E+04  0.00000000000E+00 0. -1.
         -1   -1    0    0    0  501 -0.00000000000E+00 -0.00000000000E+00 -0.22425525880E+02  0.22425525880E+02  0.00000000000E+00 0.  1.
         23    2    1    2    0    0  0.62215189213E+02  0.89422627860E+02  0.71752008761E+03  0.73642631168E+03  0.12498600033E+03 0.  0.
          5    1    3    3  502    0  0.29001131652E+02  0.71027733900E+02  0.15907057829E+03  0.17666789040E+03  0.47000000000E+01 0. -1.
         -5    1    3    3    0  502  0.33214057561E+02  0.18394893960E+02  0.55844950932E+03  0.55975842129E+03  0.47000000000E+01 0. -1.
        -11    1    1    2    0    0  0.11960966708E+02 -0.70444478816E+02  0.18245177942E+03  0.19594422965E+03  0.00000000000E+00 0.  1.
         11    1    1    2    0    0 -0.74176155921E+02 -0.18978149044E+02  0.22916148206E+03  0.24161385951E+03  0.00000000000E+00 0. -1.
<mgrwt>
<rscale>  0 0.16127358E+03</rscale>
<asrwt>0</asrwt>
<pdfrwt beam="1">  1        1 0.17716286E+00 0.16579697E+03</pdfrwt>
<pdfrwt beam="2">  1       -1 0.34500818E-02 0.16579697E+03</pdfrwt>
<totfact> 0.37562429E+03</totfact>
</mgrwt>
</event>
<event>
 7    1  0.5206756E-006  0.2854824E+03  0.7546771E-02  0.1094540E+00
         -2   -1    0    0    0  501 -0.00000000000E+00  0.00000000000E+00  0.95357840484E+02  0.95357840484E+02  0.00000000000E+00 0. -1.
          2   -1    0    0  501    0  0.00000000000E+00 -0.00000000000E+00 -0.86308323601E+03  0.86308323601E+03  0.00000000000E+00 0.  1.
         23    2    1    2    0    0  0.11982243205E+02  0.25639182975E+03 -0.27998705686E+03  0.39986615886E+03  0.12497939222E+03 0.  0.
          5    1    3    3  502    0  0.33898893308E+02  0.23328886907E+03 -0.18538490682E+03  0.29993746861E+03  0.47000000000E+01 0. -1.
         -5    1    3    3    0  502 -0.21916650103E+02  0.23102960684E+02 -0.94602150036E+02  0.99928690252E+02  0.47000000000E+01 0. -1.
        -11    1    1    2    0    0 -0.50357605235E+02 -0.11127817800E+03 -0.21828037596E+03  0.25013005384E+03  0.00000000000E+00 0. -1.
         11    1    1    2    0    0  0.38375362031E+02 -0.14511365174E+03 -0.26945796272E+03  0.30844486380E+03  0.00000000000E+00 0.  1.
<mgrwt>
<rscale>  0 0.28211385E+03</rscale>
<asrwt>0</asrwt>
<pdfrwt beam="2">  1        2 0.13278204E+00 0.28548239E+03</pdfrwt>
<pdfrwt beam="1">  1       -2 0.14670437E-01 0.28548239E+03</pdfrwt>
<totfact> 0.11426310E+03</totfact>
</mgrwt>
</event>
<event>
 7    1  0.5206756E-006  0.1429451E+03  0.7546771E-02  0.1220357E+00
          1   -1    0    0  501    0  0.00000000000E+00  0.00000000000E+00  0.48386700385E+03  0.48386700385E+03  0.00000000000E+00 0. -1.
         -1   -1    0    0    0  501 -0.00000000000E+00 -0.00000000000E+00 -0.37339620284E+02  0.37339620284E+02  0.00000000000E+00 0.  1.
         23    2    1    2    0    0 -0.47644890868E+02  0.50377136249E+02  0.32472109961E+03  0.35479163614E+03  0.12500168423E+03 0.  0.
          5    1    3    3  502    0  0.39443137947E+02  0.33300001311E+02  0.90736010934E+02  0.10449767891E+03  0.47000000000E+01 0. -1.
         -5    1    3    3    0  502 -0.87088028815E+02  0.17077134938E+02  0.23398508868E+03  0.25029395723E+03  0.47000000000E+01 0. -1.
        -11    1    1    2    0    0  0.72173570793E+02 -0.41362656355E+02  0.10954182279E+03  0.13754746309E+03  0.00000000000E+00 0.  1.
         11    1    1    2    0    0 -0.24528679925E+02 -0.90144798940E+01  0.12264461167E+02  0.28867524908E+02  0.00000000000E+00 0. -1.
<mgrwt>
<rscale>  0 0.13490258E+03</rscale>
<asrwt>0</asrwt>
<pdfrwt beam="1">  1        1 0.74441073E-01 0.14294514E+03</pdfrwt>
<pdfrwt beam="2">  1       -1 0.57445573E-02 0.14294514E+03</pdfrwt>
<totfact> 0.64787991E+03</totfact>
</mgrwt>
</event>
<event>
 6    1  0.5206756E-006  0.2500478E+03  0.7546771E-02  0.1142874E+00
          1   -1    0    0  501    0  0.00000000000E+00  0.00000000000E+00  0.20304032135E+04  0.20304032135E+04  0.00000000000E+00 0. -1.
         -1   -1    0    0    0  501 -0.00000000000E+00 -0.00000000000E+00 -0.20612998838E+02  0.20612998838E+02  0.00000000000E+00 0.  1.
          5    1    1    2  502    0  0.71442226166E+01 -0.88231800452E+02  0.49032956347E+03  0.49827809639E+03  0.47000000000E+01 0. -1.
         -5    1    1    2    0  502  0.39297614380E+02  0.15340971143E+03  0.12149193818E+04  0.12252061200E+04  0.47000000000E+01 0.  1.
        -11    1    1    2    0    0 -0.11151033042E+02 -0.81036323553E+02  0.21143766924E+03  0.22670932766E+03  0.00000000000E+00 0. -1.
         11    1    1    2    0    0 -0.35290803955E+02  0.15858412575E+02  0.93103600156E+02  0.10082266836E+03  0.00000000000E+00 0.  1.
<mgrwt>
<rscale>  0 0.20835659E+03</rscale>
<asrwt>0</asrwt>
<pdfrwt beam="1">  1        1 0.31236957E+00 0.25004775E+03</pdfrwt>
<pdfrwt beam="2">  1       -1 0.31712322E-02 0.25004775E+03</pdfrwt>
<totfact> 0.11214233E+03</totfact>
</mgrwt>
</event>
<event>
 7    1  0.5206756E-006  0.1773276E+03  0.7546771E-02  0.1176100E+00
          2   -1    0    0  501    0  0.00000000000E+00  0.00000000000E+00  0.11706238850E+04  0.11706238850E+04  0.00000000000E+00 0. -1.
         -2   -1    0    0    0  501 -0.00000000000E+00 -0.00000000000E+00 -0.28762934222E+02  0.28762934222E+02  0.00000000000E+00 0.  1.
         23    2    1    2    0    0  0.10090787643E+03  0.75054190322E+02  0.85241714530E+03  0.87066644766E+03  0.12501816856E+03 0.  0.
          5    1    3    3  502    0  0.19373747963E+02  0.35388163143E+02  0.56483268889E+02  0.69570926867E+02  0.47000000000E+01 0.  1.
         -5    1    3    3    0  502  0.81534128470E+02  0.39666027179E+02  0.79593387641E+03  0.80109552079E+03  0.47000000000E+01 0.  1.
        -11    1    1    2    0    0  0.11700680584E+02 -0.11448480183E+02  0.64877469783E+01  0.17608648031E+02  0.00000000000E+00 0.  1.
         11    1    1    2    0    0 -0.11260855702E+03 -0.63605710139E+02  0.28295605849E+03  0.31111172352E+03  0.00000000000E+00 0. -1.
<mgrwt>
<rscale>  0 0.17168680E+03</rscale>
<asrwt>0</asrwt>
<pdfrwt beam="1">  1        2 0.18009595E+00 0.17732759E+03</pdfrwt>
<pdfrwt beam="2">  1       -2 0.44250677E-02 0.17732759E+03</pdfrwt>
<totfact> 0.48425139E+03</totfact>
</mgrwt>
</event>
<event>
 7    1  0.5206756E-006  0.1384360E+03  0.7546771E-02  0.1227705E+00
         -1   -1    0    0    0  501 -0.00000000000E+00  0.00000000000E+00  0.14443591186E+03  0.14443591186E+03  0.00000000000E+00 0.  1.
          1   -1    0    0  501    0  0.00000000000E+00 -0.00000000000E+00 -0.10677219656E+03  0.10677219656E+03  0.00000000000E+00 0. -1.
         23    2    1    2    0    0  0.41961156879E+01  0.59353183739E+02  0.24120926597E+01  0.13845698267E+03  0.12499644016E+03 0.  0.
          5    1    3    3  502    0  0.63157503915E+02  0.19071884833E+02 -0.59476134823E+01  0.66408366927E+02  0.47000000000E+01 0. -1.
         -5    1    3    3    0  502 -0.58961388227E+02  0.40281298907E+02  0.83597061420E+01  0.72048615740E+02  0.47000000000E+01 0. -1.
        -11    1    1    2    0    0 -0.14308707722E+02 -0.43055177236E+02  0.63842761531E+02  0.78322318679E+02  0.00000000000E+00 0.  1.
         11    1    1    2    0    0  0.10112592034E+02 -0.16298006504E+02 -0.28591138887E+02  0.34428807073E+02  0.00000000000E+00 0. -1.
<mgrwt>
<rscale>  0 0.12983231E+03</rscale>
<asrwt>0</asrwt>
<pdfrwt beam="2">  1        1 0.16426492E-01 0.13843597E+03</pdfrwt>
<pdfrwt beam="1">  1       -1 0.22220909E-01 0.13843597E+03</pdfrwt>
<totfact> 0.53451191E+03</totfact>
</mgrwt>
</event>
<event>
 7    1  0.6696571E-006  0.1999974E+03  0.7546771E-02  0.1154170E+00
          2   -1    0    0  501    0  0.00000000000E+00  0.00000000000E+00  0.14960242770E+04  0.14960242770E+04  0.00000000000E+00 0. -1.
         -2   -1    0    0    0  501 -0.00000000000E+00 -0.00000000000E+00 -0.26101335923E+02  0.26101335923E+02  0.00000000000E+00 0.  1.
         23    2    1    2    0    0 -0.14984902441E+03  0.43806491977E+02  0.97840146591E+03  0.99863326886E+03  0.12500095330E+03 0.  0.
          5    1    3    3  502    0 -0.63011774716E+02  0.58776511313E+02  0.72881608707E+03  0.73390744703E+03  0.47000000000E+01 0.  1.
         -5    1    3    3    0  502 -0.86837249694E+02 -0.14970019336E+02  0.24958537884E+03  0.26472582183E+03  0.47000000000E+01 0.  1.
        -11    1    1    2    0    0  0.23551238874E+02 -0.28165345403E+02  0.39631002754E+02  0.54023734723E+02  0.00000000000E+00 0. -1.
         11    1    1    2    0    0  0.12629778554E+03 -0.15641146574E+02  0.45189047246E+03  0.46946860939E+03  0.00000000000E+00 0.  1.
<mgrwt>
<rscale>  0 0.19483709E+03</rscale>
<asrwt>0</asrwt>
<pdfrwt beam="1">  1        2 0.23015751E+00 0.19999744E+03</pdfrwt>
<pdfrwt beam="2">  1       -2 0.40155913E-02 0.19999744E+03</pdfrwt>
<totfact> 0.37343246E+03</totfact>
</mgrwt>
</event>
<event>
 7    1  0.5206756E-006  0.1929208E+03  0.7546771E-02  0.1160701E+00
         -2   -1    0    0    0  501 -0.00000000000E+00  0.00000000000E+00  0.51309537672E+02  0.51309537672E+02  0.00000000000E+00 0.  1.
          2   -1    0    0  501    0  0.00000000000E+00 -0.00000000000E+00 -0.66092627666E+03  0.66092627666E+03  0.00000000000E+00 0. -1.
         23    2    1    2    0    0 -0.67375677070E+02 -0.13058992206E+03 -0.36785534022E+03  0.41537452178E+03  0.12500092967E+03 0.  0.
          5    1    3    3  502    0 -0.22860208759E+02 -0.68805837622E+02 -0.31321419011E+03  0.32153079374E+03  0.47000000000E+01 0.  1.
         -5    1    3    3    0  502 -0.44515468311E+02 -0.61784084434E+02 -0.54641150105E+02  0.93843728044E+02  0.47000000000E+01 0.  1.
        -11    1    1    2    0    0 -0.36085740643E+01  0.80673435039E+02 -0.15133186551E+03  0.17153005114E+03  0.00000000000E+00 0.  1.
         11    1    1    2    0    0  0.70984251134E+02  0.49916487018E+02 -0.90429533262E+02  0.12533124140E+03  0.00000000000E+00 0. -1.
<mgrwt>
<rscale>  0 0.18753777E+03</rscale>
<asrwt>0</asrwt>
<pdfrwt beam="2">  1        2 0.10168096E+00 0.19292082E+03</pdfrwt>
<pdfrwt beam="1">  1       -2 0.78937754E-02 0.19292082E+03</pdfrwt>
<totfact> 0.42776865E+03</totfact>
</mgrwt>
</event>
<event>
 7    1  0.5206756E-006  0.1431678E+03  0.7546771E-02  0.1219803E+00
         -2   -1    0    0    0  501 -0.00000000000E+00  0.00000000000E+00  0.27329832738E+02  0.27329832738E+02  0.00000000000E+00 0.  1.
          2   -1    0    0  501    0  0.00000000000E+00 -0.00000000000E+00 -0.62273392947E+03  0.62273392947E+03  0.00000000000E+00 0. -1.
         23    2    1    2    0    0  0.59645905600E+02 -0.35914104116E+02 -0.38354137457E+03  0.40939103259E+03  0.12509825991E+03 0.  0.
          5    1    3    3  502    0  0.87100589490E+02 -0.55908776212E+02 -0.23304115539E+03  0.25503445660E+03  0.47000000000E+01 0.  1.
         -5    1    3    3    0  502 -0.27454683890E+02  0.19994672096E+02 -0.15050021918E+03  0.15435657600E+03  0.47000000000E+01 0.  1.
        -11    1    1    2    0    0 -0.18215784851E+02  0.43775784253E+02 -0.18428364565E+03  0.19028556477E+03  0.00000000000E+00 0. -1.
         11    1    1    2    0    0 -0.41430120749E+02 -0.78616801379E+01 -0.27579076511E+02  0.50387164845E+02  0.00000000000E+00 0.  1.
<mgrwt>
<rscale>  0 0.13529558E+03</rscale>
<asrwt>0</asrwt>
<pdfrwt beam="2">  1        2 0.95805217E-01 0.14316784E+03</pdfrwt>
<pdfrwt beam="1">  1       -2 0.42045898E-02 0.14316784E+03</pdfrwt>
<totfact> 0.11771532E+04</totfact>
</mgrwt>
</event>
<event>
 7    1  0.5206756E-006  0.1326105E+03  0.7546771E-02  0.1237048E+00
         -2   -1    0    0    0  501 -0.00000000000E+00  0.00000000000E+00  0.15774783070E+03  0.15774783070E+03  0.00000000000E+00 0.  1.
          2   -1    0    0  501    0  0.00000000000E+00 -0.00000000000E+00 -0.86751927975E+02  0.86751927975E+02  0.00000000000E+00 0. -1.
         23    2    1    2    0    0 -0.42419176705E+02 -0.11480883758E+02  0.50448891116E+02  0.14188242588E+03  0.12511728464E+03 0.  0.
          5    1    3    3  502    0 -0.43402161297E+02  0.39137510572E+01  0.89486970267E+02  0.99644733429E+02  0.47000000000E+01 0.  1.
         -5    1    3    3    0  502  0.98298459226E+00 -0.15394634815E+02 -0.39038079151E+02  0.42237692451E+02  0.47000000000E+01 0.  1.
        -11    1    1    2    0    0  0.25176077470E+02 -0.37247406329E+02 -0.44941773045E+01  0.45181874515E+02  0.00000000000E+00 0. -1.
         11    1    1    2    0    0  0.17243099235E+02  0.48728290086E+02  0.25041188918E+02  0.57435458285E+02  0.00000000000E+00 0.  1.
<mgrwt>
<rscale>  0 0.12374202E+03</rscale>
<asrwt>0</asrwt>
<pdfrwt beam="2">  1        2 0.13346450E-01 0.13261045E+03</pdfrwt>
<pdfrwt beam="1">  1       -2 0.24268897E-01 0.13261045E+03</pdfrwt>
<totfact> 0.63607033E+03</totfact>
</mgrwt>
</event>
<event>
 7    1  0.5206756E-006  0.1606889E+03  0.7546771E-02  0.1195529E+00
         -2   -1    0    0    0  501 -0.00000000000E+00  0.00000000000E+00  0.20827958286E+02  0.20827958286E+02  0.00000000000E+00 0. -1.
          2   -1    0    0  501    0  0.00000000000E+00 -0.00000000000E+00 -0.11213763477E+04  0.11213763477E+04  0.00000000000E+00 0.  1.
         23    2    1    2    0    0  0.94274133138E+02  0.36177072920E+02 -0.73122764855E+03  0.74867536626E+03  0.12499814904E+03 0.  0.
          5    1    3    3  502    0  0.14616324007E+02 -0.95638409950E+01 -0.82681132118E+01  0.19888581602E+02  0.47000000000E+01 0. -1.
         -5    1    3    3    0  502  0.79657809131E+02  0.45740913915E+02 -0.72295953533E+03  0.72878678466E+03  0.47000000000E+01 0. -1.
        -11    1    1    2    0    0 -0.77030823609E+02 -0.25408776841E+02 -0.36341773604E+03  0.37235977843E+03  0.00000000000E+00 0.  1.
         11    1    1    2    0    0 -0.17243309529E+02 -0.10768296079E+02 -0.59030048330E+01  0.21169161297E+02  0.00000000000E+00 0. -1.
<mgrwt>
<rscale>  0 0.15409539E+03</rscale>
<asrwt>0</asrwt>
<pdfrwt beam="2">  1        2 0.17251949E+00 0.16068892E+03</pdfrwt>
<pdfrwt beam="1">  1       -2 0.32043003E-02 0.16068892E+03</pdfrwt>
<totfact> 0.83275957E+03</totfact>
</mgrwt>
</event>
<event>
 7    1  0.5206756E-006  0.1808285E+03  0.7546771E-02  0.1172786E+00
         -2   -1    0    0    0  501 -0.00000000000E+00  0.00000000000E+00  0.11086209909E+03  0.11086209909E+03  0.00000000000E+00 0.  1.
          2   -1    0    0  501    0  0.00000000000E+00 -0.00000000000E+00 -0.33861692914E+03  0.33861692914E+03  0.00000000000E+00 0. -1.
         23    2    1    2    0    0 -0.12811138097E+03  0.25698254999E+02 -0.22806688053E+03  0.29105575912E+03  0.12500410665E+03 0.  0.
          5    1    3    3  502    0 -0.59942784862E+02  0.30925100662E+02 -0.20937608245E+03  0.22002257432E+03  0.47000000000E+01 0.  1.
         -5    1    3    3    0  502 -0.68168596104E+02 -0.52268456636E+01 -0.18690798083E+02  0.71033184804E+02  0.47000000000E+01 0.  1.
        -11    1    1    2    0    0  0.77778672885E+02 -0.35274479183E+02  0.39327567320E+02  0.94023765021E+02  0.00000000000E+00 0.  1.
         11    1    1    2    0    0  0.50332708081E+02  0.95762241841E+01 -0.39015516842E+02  0.64399504088E+02  0.00000000000E+00 0. -1.
<mgrwt>
<rscale>  0 0.17494628E+03</rscale>
<asrwt>0</asrwt>
<pdfrwt beam="2">  1        2 0.52094911E-01 0.18082852E+03</pdfrwt>
<pdfrwt beam="1">  1       -2 0.17055708E-01 0.18082852E+03</pdfrwt>
<totfact> 0.25999343E+03</totfact>
</mgrwt>
</event>
<event>
 7    1  0.5206756E-006  0.1305307E+03  0.7546771E-02  0.1240686E+00
         -1   -1    0    0    0  501 -0.00000000000E+00  0.00000000000E+00  0.10725012759E+03  0.10725012759E+03  0.00000000000E+00 0.  1.
          1   -1    0    0  501    0  0.00000000000E+00 -0.00000000000E+00 -0.17431702989E+03  0.17431702989E+03  0.00000000000E+00 0. -1.
         23    2    1    2    0    0  0.37540995410E+02  0.11970209071E+01 -0.11371805386E+03  0.17311863402E+03  0.12501002550E+03 0.  0.
          5    1    3    3  502    0 -0.10155804312E+02 -0.54610431634E+02 -0.60877411474E+02  0.82544465788E+02  0.47000000000E+01 0. -1.
         -5    1    3    3    0  502  0.47696799722E+02  0.55807452542E+02 -0.52840642384E+02  0.90574168230E+02  0.47000000000E+01 0. -1.
        -11    1    1    2    0    0  0.10245760677E+02  0.35829433169E+02  0.21034875696E+02  0.42792404567E+02  0.00000000000E+00 0.  1.
         11    1    1    2    0    0 -0.47786756088E+02 -0.37026454076E+02  0.25616275861E+02  0.65656118891E+02  0.00000000000E+00 0. -1.
<mgrwt>
<rscale>  0 0.12147366E+03</rscale>
<asrwt>0</asrwt>
<pdfrwt beam="2">  1        1 0.26818005E-01 0.13053071E+03</pdfrwt>
<pdfrwt beam="1">  1       -1 0.16500020E-01 0.13053071E+03</pdfrwt>
<totfact> 0.46053871E+03</totfact>
</mgrwt>
</event>
<event>
 7    1  0.5206756E-006  0.1309288E+03  0.7546771E-02  0.1237146E+00
         -1   -1    0    0    0  501 -0.00000000000E+00  0.00000000000E+00  0.13028891844E+03  0.13028891844E+03  0.00000000000E+00 0.  1.
          1   -1    0    0  501    0  0.00000000000E+00 -0.00000000000E+00 -0.13612748216E+03  0.13612748216E+03  0.00000000000E+00 0. -1.
         23    2    1    2    0    0 -0.30743568727E+02  0.45949903168E+02 -0.65391870174E+02  0.14635040935E+03  0.11868354988E+03 0.  0.
          5    1    3    3  502    0 -0.17476126040E+02  0.84986491419E+02 -0.30357719263E+02  0.92042380586E+02  0.47000000000E+01 0. -1.
         -5    1    3    3    0  502 -0.13267442687E+02 -0.39036588251E+02 -0.35034150912E+02  0.54308028760E+02  0.47000000000E+01 0.  1.
        -11    1    1    2    0    0  0.15318596851E+02  0.20108794999E+02 -0.57290796884E+01  0.25919980708E+02  0.00000000000E+00 0. -1.
         11    1    1    2    0    0  0.15424971876E+02 -0.66058698167E+02  0.65282386145E+02  0.94146010546E+02  0.00000000000E+00 0.  1.
<mgrwt>
<rscale>  0 0.12368051E+03</rscale>
<asrwt>0</asrwt>
<pdfrwt beam="2">  1        1 0.20942690E-01 0.13092878E+03</pdfrwt>
<pdfrwt beam="1">  1       -1 0.20044449E-01 0.13092878E+03</pdfrwt>
<totfact> 0.46131023E+03</totfact>
</mgrwt>
</event>
<event>
 7    1  0.5206756E-006  0.1580850E+03  0.7546771E-02  0.1198232E+00
          2   -1    0    0  501    0  0.00000000000E+00  0.00000000000E+00  0.37662613154E+03  0.37662613154E+03  0.00000000000E+00 0. -1.
         -2   -1    0    0    0  501 -0.00000000000E+00 -0.00000000000E+00 -0.67127194081E+02  0.67127194081E+02  0.00000000000E+00 0.  1.
         23    2    1    2    0    0  0.80471377285E+02  0.53749924208E+02  0.25191399203E+03  0.29740802104E+03  0.12500469864E+03 0.  0.
          5    1    3    3  502    0 -0.95079811165E+00 -0.16005312033E+02 -0.62398750625E+01  0.17835360134E+02  0.47000000000E+01 0.  1.
         -5    1    3    3    0  502  0.81422175396E+02  0.69755236241E+02  0.25815386709E+03  0.27957266090E+03  0.47000000000E+01 0.  1.
        -11    1    1    2    0    0 -0.93815451549E+02 -0.67075651286E+02  0.45688171527E+02  0.12404793816E+03  0.00000000000E+00 0. -1.
         11    1    1    2    0    0  0.13344074264E+02  0.13325727078E+02  0.11896773904E+02  0.22297366424E+02  0.00000000000E+00 0.  1.
<mgrwt>
<rscale>  0 0.15183805E+03</rscale>
<asrwt>0</asrwt>
<pdfrwt beam="1">  1        2 0.57942481E-01 0.15808501E+03</pdfrwt>
<pdfrwt beam="2">  1       -2 0.10327261E-01 0.15808501E+03</pdfrwt>
<totfact> 0.52049159E+03</totfact>
</mgrwt>
</event>
<event>
 7    1  0.5206756E-006  0.1335267E+03  0.7546771E-02  0.1235624E+00
         -2   -1    0    0    0  501 -0.00000000000E+00  0.00000000000E+00  0.24344274103E+02  0.24344274103E+02  0.00000000000E+00 0.  1.
          2   -1    0    0  501    0  0.00000000000E+00 -0.00000000000E+00 -0.60420666370E+03  0.60420666370E+03  0.00000000000E+00 0. -1.
         23    2    1    2    0    0 -0.10767882362E+02 -0.45703104072E+02 -0.40470719432E+03  0.42616580484E+03  0.12499863626E+03 0.  0.
          5    1    3    3  502    0 -0.23880089354E+02  0.80810139922E+01 -0.99328960075E+01  0.27501161390E+02  0.47000000000E+01 0.  1.
         -5    1    3    3    0  502  0.13112206992E+02 -0.53784118064E+02 -0.39477429831E+03  0.39866464345E+03  0.47000000000E+01 0.  1.
        -11    1    1    2    0    0  0.36754892992E+02  0.26658485655E+02 -0.16084659728E+03  0.16713235734E+03  0.00000000000E+00 0. -1.
         11    1    1    2    0    0 -0.25987010630E+02  0.19044618417E+02 -0.14308598003E+02  0.35252775621E+02  0.00000000000E+00 0.  1.
<mgrwt>
<rscale>  0 0.12464571E+03</rscale>
<asrwt>0</asrwt>
<pdfrwt beam="2">  1        2 0.92954866E-01 0.13352670E+03</pdfrwt>
<pdfrwt beam="1">  1       -2 0.37452732E-02 0.13352670E+03</pdfrwt>
<totfact> 0.14400053E+04</totfact>
</mgrwt>
</event>
<event>
 7    1  0.5206756E-006  0.1366015E+03  0.7546771E-02  0.1229762E+00
         -2   -1    0    0    0  501 -0.00000000000E+00  0.00000000000E+00  0.78139239118E+02  0.78139239118E+02  0.00000000000E+00 0.  1.
          2   -1    0    0  501    0  0.00000000000E+00 -0.00000000000E+00 -0.26046709180E+03  0.26046709180E+03  0.00000000000E+00 0. -1.
         23    2    1    2    0    0  0.53873534919E+02 -0.11463084563E+02 -0.18711683894E+03  0.23167363211E+03  0.12500480122E+03 0.  0.
          5    1    3    3  502    0  0.25158037840E+02 -0.31029451016E+02 -0.19209208002E+03  0.19625802125E+03  0.47000000000E+01 0. -1.
         -5    1    3    3    0  502  0.28715497080E+02  0.19566366453E+02  0.49752410810E+01  0.35415610859E+02  0.47000000000E+01 0. -1.
        -11    1    1    2    0    0 -0.64164828967E+02  0.35634691277E+02  0.20649048703E+02  0.76245260253E+02  0.00000000000E+00 0.  1.
         11    1    1    2    0    0  0.10291294047E+02 -0.24171606714E+02 -0.15860062443E+02  0.30687438554E+02  0.00000000000E+00 0. -1.
<mgrwt>
<rscale>  0 0.12845770E+03</rscale>
<asrwt>0</asrwt>
<pdfrwt beam="2">  1        2 0.40071861E-01 0.13660147E+03</pdfrwt>
<pdfrwt beam="1">  1       -2 0.12021421E-01 0.13660147E+03</pdfrwt>
<totfact> 0.60018904E+03</totfact>
</mgrwt>
</event>
<event>
 7    1  0.5206756E-006  0.1757355E+03  0.7546771E-02  0.1177304E+00
         -2   -1    0    0    0  501 -0.00000000000E+00  0.00000000000E+00  0.55299754815E+02  0.55299754815E+02  0.00000000000E+00 0.  1.
          2   -1    0    0  501    0  0.00000000000E+00 -0.00000000000E+00 -0.50101167237E+03  0.50101167237E+03  0.00000000000E+00 0. -1.
         23    2    1    2    0    0  0.11946131641E+03 -0.31423769037E+02 -0.26132633825E+03  0.31491973281E+03  0.12499809467E+03 0.  0.
          5    1    3    3  502    0  0.48711838126E+00  0.37475812517E+02 -0.65352815895E+02  0.75483470731E+02  0.47000000000E+01 0. -1.
         -5    1    3    3    0  502  0.11897419803E+03 -0.68899581554E+02 -0.19597352236E+03  0.23943626208E+03  0.47000000000E+01 0. -1.
        -11    1    1    2    0    0 -0.58983664699E+02 -0.19659586261E+02 -0.32600232069E+02  0.70202187745E+02  0.00000000000E+00 0.  1.
         11    1    1    2    0    0 -0.60477651708E+02  0.51083355298E+02 -0.15178534723E+03  0.17118950663E+03  0.00000000000E+00 0. -1.
<mgrwt>
<rscale>  0 0.17052290E+03</rscale>
<asrwt>0</asrwt>
<pdfrwt beam="2">  1        2 0.77078715E-01 0.17573555E+03</pdfrwt>
<pdfrwt beam="1">  1       -2 0.85076550E-02 0.17573555E+03</pdfrwt>
<totfact> 0.52028634E+03</totfact>
</mgrwt>
</event>
<event>
 7    1  0.5206756E-006  0.1529004E+03  0.7546771E-02  0.1206609E+00
         -1   -1    0    0    0  501 -0.00000000000E+00  0.00000000000E+00  0.13617128258E+04  0.13617128258E+04  0.00000000000E+00 0.  1.
          1   -1    0    0  501    0  0.00000000000E+00 -0.00000000000E+00 -0.14185216354E+02  0.14185216354E+02  0.00000000000E+00 0. -1.
         23    2    1    2    0    0  0.41469910223E+02  0.77676852453E+02  0.68514564708E+03  0.70199934698E+03  0.12500031438E+03 0.  0.
          5    1    3    3  502    0  0.71480794284E+02  0.93674940676E+02  0.50216981235E+03  0.51583050404E+03  0.47000000000E+01 0.  1.
         -5    1    3    3    0  502 -0.30010884061E+02 -0.15998088222E+02  0.18297583473E+03  0.18616884294E+03  0.47000000000E+01 0.  1.
        -11    1    1    2    0    0 -0.61294526934E+02 -0.23227600365E+02  0.38333681120E+03  0.38890056734E+03  0.00000000000E+00 0.  1.
         11    1    1    2    0    0  0.19824616711E+02 -0.54449252089E+02  0.27904515118E+03  0.28499812785E+03  0.00000000000E+00 0. -1.
<mgrwt>
<rscale>  0 0.14511416E+03</rscale>
<asrwt>0</asrwt>
<pdfrwt beam="2">  1        1 0.21823421E-02 0.15290038E+03</pdfrwt>
<pdfrwt beam="1">  1       -1 0.20949418E+00 0.15290038E+03</pdfrwt>
<totfact> 0.76331313E+02</totfact>
</mgrwt>
</event>
<event>
 7    1  0.5206756E-006  0.1630700E+03  0.7546771E-02  0.1191854E+00
          2   -1    0    0  501    0  0.00000000000E+00  0.00000000000E+00  0.98077207128E+03  0.98077207128E+03  0.00000000000E+00 0. -1.
         -2   -1    0    0    0  501 -0.00000000000E+00 -0.00000000000E+00 -0.25563300605E+02  0.25563300605E+02  0.00000000000E+00 0.  1.
         23    2    1    2    0    0 -0.53082063459E+02 -0.90279988038E+02  0.65012372367E+03  0.67026315486E+03  0.12499463585E+03 0.  0.
          5    1    3    3  502    0 -0.37794682945E+01 -0.28232968571E+02  0.19912346738E+02  0.35071020053E+02  0.47000000000E+01 0. -1.
         -5    1    3    3    0  502 -0.49302595165E+02 -0.62047019467E+02  0.63021137693E+03  0.63519213481E+03  0.47000000000E+01 0. -1.
        -11    1    1    2    0    0  0.18191886952E+02  0.10166627295E+03  0.20675079991E+03  0.23111224344E+03  0.00000000000E+00 0.  1.
         11    1    1    2    0    0  0.34890176507E+02 -0.11386284913E+02  0.98334247097E+02  0.10495997358E+03  0.00000000000E+00 0. -1.
<mgrwt>
<rscale>  0 0.15723490E+03</rscale>
<asrwt>0</asrwt>
<pdfrwt beam="1">  1        2 0.15088798E+00 0.16307005E+03</pdfrwt>
<pdfrwt beam="2">  1       -2 0.39328162E-02 0.16307005E+03</pdfrwt>
<totfact> 0.74375888E+03</totfact>
</mgrwt>
</event>
<event>
 7    1  0.5206756E-006  0.1505879E+03  0.7546771E-02  0.1208036E+00
          2   -1    0    0  501    0  0.00000000000E+00  0.00000000000E+00  0.10117733853E+04  0.10117733853E+04  0.00000000000E+00 0. -1.
         -2   -1    0    0    0  501 -0.00000000000E+00 -0.00000000000E+00 -0.29122517258E+02  0.29122517258E+02  0.00000000000E+00 0.  1.
         23    2    1    2    0    0  0.83522212681E+02 -0.86839197812E+01  0.82736437359E+03  0.84095690845E+03  0.12500137880E+03 0.  0.
          5    1    3    3  502    0  0.12805364841E+02 -0.60329459095E+02  0.29454493963E+03  0.30096915534E+03  0.47000000000E+01 0.  1.
         -5    1    3    3    0  502  0.70716847840E+02  0.51645539314E+02  0.53281943396E+03  0.53998775311E+03  0.47000000000E+01 0.  1.
        -11    1    1    2    0    0 -0.32564285791E+02  0.34635027818E+02  0.12806713187E+03  0.13660603254E+03  0.00000000000E+00 0. -1.
         11    1    1    2    0    0 -0.50957926890E+02 -0.25951108037E+02  0.27219362568E+02  0.63332961559E+02  0.00000000000E+00 0.  1.
<mgrwt>
<rscale>  0 0.14400789E+03</rscale>
<asrwt>0</asrwt>
<pdfrwt beam="1">  1        2 0.15565742E+00 0.15058790E+03</pdfrwt>
<pdfrwt beam="2">  1       -2 0.44803881E-02 0.15058790E+03</pdfrwt>
<totfact> 0.58439342E+03</totfact>
</mgrwt>
</event>
<event>
 7    1  0.5206756E-006  0.1555963E+03  0.7546771E-02  0.1202186E+00
          2   -1    0    0  501    0  0.00000000000E+00  0.00000000000E+00  0.13054826126E+04  0.13054826126E+04  0.00000000000E+00 0.  1.
         -2   -1    0    0    0  501 -0.00000000000E+00 -0.00000000000E+00 -0.16480239770E+02  0.16480239770E+02  0.00000000000E+00 0. -1.
         23    2    1    2    0    0  0.91095944541E+02  0.16920989539E+02  0.85542477904E+03  0.86946060646E+03  0.12500161039E+03 0.  0.
          5    1    3    3  502    0 -0.43360291937E+01 -0.36389929463E+02  0.37089645123E+03  0.37273220367E+03  0.47000000000E+01 0.  1.
         -5    1    3    3    0  502  0.95431973735E+02  0.53310919002E+02  0.48452832781E+03  0.49672840280E+03  0.47000000000E+01 0.  1.
        -11    1    1    2    0    0 -0.44744074827E+02  0.25238643183E+02  0.30696774396E+03  0.31123659356E+03  0.00000000000E+00 0.  1.
         11    1    1    2    0    0 -0.46351869714E+02 -0.42159632722E+02  0.12660984984E+03  0.14126565235E+03  0.00000000000E+00 0. -1.
<mgrwt>
<rscale>  0 0.14861476E+03</rscale>
<asrwt>0</asrwt>
<pdfrwt beam="1">  1        2 0.20084340E+00 0.15559625E+03</pdfrwt>
<pdfrwt beam="2">  1       -2 0.25354225E-02 0.15559625E+03</pdfrwt>
<totfact> 0.92763098E+03</totfact>
</mgrwt>
</event>
<event>
 7    1  0.5206756E-006  0.1336544E+03  0.7546771E-02  0.1235249E+00
         -1   -1    0    0    0  501 -0.00000000000E+00  0.00000000000E+00  0.37009538597E+02  0.37009538597E+02  0.00000000000E+00 0.  1.
          1   -1    0    0  501    0  0.00000000000E+00 -0.00000000000E+00 -0.37867519532E+03  0.37867519532E+03  0.00000000000E+00 0. -1.
         23    2    1    2    0    0 -0.35751168569E+02  0.30986096275E+02 -0.21460808719E+03  0.25282428975E+03  0.12500082474E+03 0.  0.
          5    1    3    3  502    0 -0.72999016288E+01  0.35209954377E+02 -0.22018459859E+03  0.22315101816E+03  0.47000000000E+01 0. -1.
         -5    1    3    3    0  502 -0.28451266940E+02 -0.42238581022E+01  0.55765113955E+01  0.29673271594E+02  0.47000000000E+01 0. -1.
        -11    1    1    2    0    0 -0.34668753498E+01  0.13811913386E+02  0.72263865366E+01  0.15968996162E+02  0.00000000000E+00 0.  1.
         11    1    1    2    0    0  0.39218043919E+02 -0.44798009661E+02 -0.13428395607E+03  0.14689144800E+03  0.00000000000E+00 0. -1.
<mgrwt>
<rscale>  0 0.12488535E+03</rscale>
<asrwt>0</asrwt>
<pdfrwt beam="2">  1        1 0.58257722E-01 0.13365437E+03</pdfrwt>
<pdfrwt beam="1">  1       -1 0.56937752E-02 0.13365437E+03</pdfrwt>
<totfact> 0.89315101E+03</totfact>
</mgrwt>
</event>
<event>
 7    1  0.5206756E-006  0.2938422E+03  0.7546771E-02  0.1090040E+00
         -2   -1    0    0    0  501 -0.00000000000E+00  0.00000000000E+00  0.63637178644E+02  0.63637178644E+02  0.00000000000E+00 0.  1.
          2   -1    0    0  501    0  0.00000000000E+00 -0.00000000000E+00 -0.15901465739E+04  0.15901465739E+04  0.00000000000E+00 0. -1.
         23    2    1    2    0    0 -0.24732881073E+03 -0.97714474055E+02 -0.11312051925E+04  0.11687465217E+04  0.12499434212E+03 0.  0.
          5    1    3    3  502    0 -0.26316790139E+02 -0.36632304567E+02 -0.72735522712E+02  0.85714907952E+02  0.47000000000E+01 0. -1.
         -5    1    3    3    0  502 -0.22101202059E+03 -0.61082169487E+02 -0.10584696698E+04  0.10830316138E+04  0.47000000000E+01 0. -1.
        -11    1    1    2    0    0  0.11537682526E+03  0.73787891163E+02 -0.26370919620E+03  0.29715148469E+03  0.00000000000E+00 0.  1.
         11    1    1    2    0    0  0.13195198547E+03  0.23926582891E+02 -0.13159500662E+03  0.18788574615E+03  0.00000000000E+00 0. -1.
<mgrwt>
<rscale>  0 0.29059362E+03</rscale>
<asrwt>0</asrwt>
<pdfrwt beam="2">  1        2 0.24463792E+00 0.29384221E+03</pdfrwt>
<pdfrwt beam="1">  1       -2 0.97903360E-02 0.29384221E+03</pdfrwt>
<totfact> 0.83807858E+02</totfact>
</mgrwt>
</event>
<event>
 7    1  0.5206756E-006  0.1806879E+03  0.7546771E-02  0.1172724E+00
          1   -1    0    0  501    0  0.00000000000E+00  0.00000000000E+00  0.77360304790E+02  0.77360304790E+02  0.00000000000E+00 0. -1.
         -1   -1    0    0    0  501 -0.00000000000E+00 -0.00000000000E+00 -0.59287401801E+03  0.59287401801E+03  0.00000000000E+00 0.  1.
         23    2    1    2    0    0  0.10403857431E+03  0.78718558783E+02 -0.64246026499E+02  0.19176980861E+03  0.12500988415E+03 0.  0.
          5    1    3    3  502    0 -0.23441610230E+02  0.22318245985E+02  0.94158791045E+01  0.34034717178E+02  0.47000000000E+01 0. -1.
         -5    1    3    3    0  502  0.12748018454E+03  0.56400312798E+02 -0.73661905603E+02  0.15773509144E+03  0.47000000000E+01 0. -1.
        -11    1    1    2    0    0 -0.78479182138E+02 -0.22625888894E+02 -0.35407307300E+03  0.36337123428E+03  0.00000000000E+00 0.  1.
         11    1    1    2    0    0 -0.25559392169E+02 -0.56092669889E+02 -0.97194613721E+02  0.11509327991E+03  0.00000000000E+00 0. -1.
<mgrwt>
<rscale>  0 0.17500734E+03</rscale>
<asrwt>0</asrwt>
<pdfrwt beam="1">  1        1 0.11901585E-01 0.18068787E+03</pdfrwt>
<pdfrwt beam="2">  1       -1 0.91211389E-01 0.18068787E+03</pdfrwt>
<totfact> 0.62498976E+02</totfact>
</mgrwt>
</event>
<event>
 7    1  0.5206756E-006  0.2538316E+03  0.7546771E-02  0.1113647E+00
          2   -1    0    0  501    0  0.00000000000E+00  0.00000000000E+00  0.16671253418E+04  0.16671253418E+04  0.00000000000E+00 0. -1.
         -2   -1    0    0    0  501 -0.00000000000E+00 -0.00000000000E+00 -0.39704547875E+02  0.39704547875E+02  0.00000000000E+00 0.  1.
         23    2    1    2    0    0 -0.30564450265E+02 -0.21879457458E+03  0.10965218784E+04  0.11255179719E+04  0.12500089453E+03 0.  0.
          5    1    3    3  502    0  0.31106808320E+02 -0.69099868376E+02  0.55873072153E+03  0.56386570610E+03  0.47000000000E+01 0.  1.
         -5    1    3    3    0  502 -0.61671258585E+02 -0.14969470620E+03  0.53779115689E+03  0.56165226576E+03  0.47000000000E+01 0.  1.
        -11    1    1    2    0    0  0.49073869041E+02  0.18037767167E+03  0.36582619097E+03  0.41082009573E+03  0.00000000000E+00 0.  1.
         11    1    1    2    0    0 -0.18509418777E+02  0.38416902911E+02  0.16507272454E+03  0.17049182209E+03  0.00000000000E+00 0. -1.
<mgrwt>
<rscale>  0 0.24945974E+03</rscale>
<asrwt>0</asrwt>
<pdfrwt beam="1">  1        2 0.25648077E+00 0.25383159E+03</pdfrwt>
<pdfrwt beam="2">  1       -2 0.61083933E-02 0.25383159E+03</pdfrwt>
<totfact> 0.16026978E+03</totfact>
</mgrwt>
</event>
<event>
 7    1  0.5206756E-006  0.1417554E+03  0.7546771E-02  0.1221404E+00
         -2   -1    0    0    0  501 -0.00000000000E+00  0.00000000000E+00  0.23140963794E+02  0.23140963794E+02  0.00000000000E+00 0.  1.
          2   -1    0    0  501    0  0.00000000000E+00 -0.00000000000E+00 -0.72585109203E+03  0.72585109203E+03  0.00000000000E+00 0. -1.
         23    2    1    2    0    0 -0.23851561449E+02  0.62451464453E+02 -0.45150260391E+03  0.47323270531E+03  0.12500203852E+03 0.  0.
          5    1    3    3  502    0 -0.55242411262E+02  0.85886915479E+02 -0.31884375526E+03  0.33483087749E+03  0.47000000000E+01 0.  1.
         -5    1    3    3    0  502  0.31390849813E+02 -0.23435451026E+02 -0.13265884865E+03  0.13840182781E+03  0.47000000000E+01 0.  1.
        -11    1    1    2    0    0 -0.21448786889E+02 -0.49806237383E+02 -0.19535557803E+03  0.20274248102E+03  0.00000000000E+00 0. -1.
         11    1    1    2    0    0  0.45300348338E+02 -0.12645227070E+02 -0.55851946295E+02  0.73016869504E+02  0.00000000000E+00 0.  1.
<mgrwt>
<rscale>  0 0.13416465E+03</rscale>
<asrwt>0</asrwt>
<pdfrwt beam="2">  1        2 0.11166937E+00 0.14175540E+03</pdfrwt>
<pdfrwt beam="1">  1       -2 0.35601491E-02 0.14175540E+03</pdfrwt>
<totfact> 0.12579245E+04</totfact>
</mgrwt>
</event>
<event>
 7    1  0.5206756E-006  0.2043303E+03  0.7546771E-02  0.1149936E+00
         -2   -1    0    0    0  501 -0.00000000000E+00  0.00000000000E+00  0.57296988823E+02  0.57296988823E+02  0.00000000000E+00 0. -1.
          2   -1    0    0  501    0  0.00000000000E+00 -0.00000000000E+00 -0.90186513991E+03  0.90186513991E+03  0.00000000000E+00 0.  1.
         23    2    1    2    0    0  0.11027822428E+02  0.16125824547E+03 -0.68089603864E+03  0.71089399576E+03  0.12500009266E+03 0.  0.
          5    1    3    3  502    0 -0.28058739017E+01 -0.60240298395E+01 -0.22350918309E+03  0.22365734236E+03  0.47000000000E+01 0.  1.
         -5    1    3    3    0  502  0.13833696329E+02  0.16728227531E+03 -0.45738685555E+03  0.48723665340E+03  0.47000000000E+01 0.  1.
        -11    1    1    2    0    0 -0.39486553152E+02 -0.12518219300E+03 -0.82626667422E+02  0.15510298351E+03  0.00000000000E+00 0. -1.
         11    1    1    2    0    0  0.28458730724E+02 -0.36076052472E+02 -0.81045445020E+02  0.93165149466E+02  0.00000000000E+00 0.  1.
<mgrwt>
<rscale>  0 0.19976645E+03</rscale>
<asrwt>0</asrwt>
<pdfrwt beam="2">  1        2 0.13874849E+00 0.20433027E+03</pdfrwt>
<pdfrwt beam="1">  1       -2 0.88149212E-02 0.20433027E+03</pdfrwt>
<totfact> 0.24444560E+03</totfact>
</mgrwt>
</event>
<event>
 7    1  0.5206756E-006  0.1368536E+03  0.7546771E-02  0.1229680E+00
          2   -1    0    0  501    0  0.00000000000E+00  0.00000000000E+00  0.59655840922E+03  0.59655840922E+03  0.00000000000E+00 0. -1.
         -2   -1    0    0    0  501 -0.00000000000E+00 -0.00000000000E+00 -0.25053833929E+02  0.25053833929E+02  0.00000000000E+00 0.  1.
         23    2    1    2    0    0 -0.55680927771E+02 -0.17750405715E+01  0.35213392097E+03  0.37779256093E+03  0.12500161724E+03 0.  0.
          5    1    3    3  502    0 -0.56851147182E+02 -0.57097400441E+02  0.22580679032E+03  0.23979775359E+03  0.47000000000E+01 0.  1.
         -5    1    3    3    0  502  0.11702194109E+01  0.55322359869E+02  0.12632713065E+03  0.13799480734E+03  0.47000000000E+01 0.  1.
        -11    1    1    2    0    0  0.62362750043E+02  0.27789620957E+02  0.97521803538E+02  0.11904569623E+03  0.00000000000E+00 0.  1.
         11    1    1    2    0    0 -0.66818222718E+01 -0.26014580385E+02  0.12184885079E+03  0.12477398599E+03  0.00000000000E+00 0. -1.
<mgrwt>
<rscale>  0 0.12851237E+03</rscale>
<asrwt>0</asrwt>
<pdfrwt beam="1">  1        2 0.91778207E-01 0.13685365E+03</pdfrwt>
<pdfrwt beam="2">  1       -2 0.38544364E-02 0.13685365E+03</pdfrwt>
<totfact> 0.14026528E+04</totfact>
</mgrwt>
</event>
<event>
 7    1  0.5206756E-006  0.2029548E+03  0.7546771E-02  0.1151377E+00
         -1   -1    0    0    0  501 -0.00000000000E+00  0.00000000000E+00  0.23919614067E+02  0.23919614067E+02  0.00000000000E+00 0.  1.
          1   -1    0    0  501    0  0.00000000000E+00 -0.00000000000E+00 -0.15915771229E+04  0.15915771229E+04  0.00000000000E+00 0. -1.
         23    2    1    2    0    0  0.13427830140E+03  0.86810860468E+02 -0.92391605642E+03  0.94594477512E+03  0.12499540212E+03 0.  0.
          5    1    3    3  502    0  0.59812283421E+02  0.50500843883E+02 -0.74038293657E+03  0.74452456457E+03  0.47000000000E+01 0. -1.
         -5    1    3    3    0  502  0.74466017983E+02  0.36310016585E+02 -0.18353311984E+03  0.20142021055E+03  0.47000000000E+01 0. -1.
        -11    1    1    2    0    0 -0.12844179962E+02 -0.57791175745E+02 -0.21484335489E+03  0.22285075745E+03  0.00000000000E+00 0. -1.
         11    1    1    2    0    0 -0.12143412144E+03 -0.29019684723E+02 -0.42889809748E+03  0.44670120436E+03  0.00000000000E+00 0.  1.
<mgrwt>
<rscale>  0 0.19807024E+03</rscale>
<asrwt>0</asrwt>
<pdfrwt beam="2">  1        1 0.24485802E+00 0.20295477E+03</pdfrwt>
<pdfrwt beam="1">  1       -1 0.36799406E-02 0.20295477E+03</pdfrwt>
<totfact> 0.17365223E+03</totfact>
</mgrwt>
</event>
<event>
 7    1  0.5206756E-006  0.1339546E+03  0.7546771E-02  0.1234714E+00
          1   -1    0    0  501    0  0.00000000000E+00  0.00000000000E+00  0.30764583362E+03  0.30764583362E+03  0.00000000000E+00 0. -1.
         -1   -1    0    0    0  501 -0.00000000000E+00 -0.00000000000E+00 -0.61700071052E+02  0.61700071052E+02  0.00000000000E+00 0.  1.
         23    2    1    2    0    0  0.34448425457E+02 -0.33639498908E+02  0.22948266169E+03  0.26571811845E+03  0.12500206618E+03 0.  0.
          5    1    3    3  502    0 -0.23278795262E+02 -0.33724147251E+02  0.15544813748E+02  0.44078925249E+02  0.47000000000E+01 0.  1.
         -5    1    3    3    0  502  0.57727220719E+02  0.84648342237E-01  0.21393784795E+03  0.22163919320E+03  0.47000000000E+01 0.  1.
        -11    1    1    2    0    0  0.38137291959E+01  0.11478284260E+02  0.47881448452E+02  0.49385510484E+02  0.00000000000E+00 0. -1.
         11    1    1    2    0    0 -0.38262154653E+02  0.22161214648E+02 -0.31418347577E+02  0.54242275743E+02  0.00000000000E+00 0.  1.
<mgrwt>
<rscale>  0 0.12522743E+03</rscale>
<asrwt>0</asrwt>
<pdfrwt beam="1">  1        1 0.47330127E-01 0.13395457E+03</pdfrwt>
<pdfrwt beam="2">  1       -1 0.94923188E-02 0.13395457E+03</pdfrwt>
<totfact> 0.53678831E+03</totfact>
</mgrwt>
</event>
<event>
 6    1  0.5206756E-006  0.1851666E+03  0.7546771E-02  0.1172245E+00
         -3   -1    0    0    0  501 -0.00000000000E+00  0.00000000000E+00  0.18961737143E+03  0.18961737143E+03  0.00000000000E+00 0.  1.
          3   -1    0    0  501    0  0.00000000000E+00 -0.00000000000E+00 -0.14761718844E+03  0.14761718844E+03  0.00000000000E+00 0. -1.
          5    1    1    2  502    0 -0.89378277474E+02 -0.58665066494E+02 -0.47697054476E+02  0.11716298697E+03  0.47000000000E+01 0. -1.
         -5    1    1    2    0  502 -0.84841023157E+01 -0.10233590857E+02  0.67617681155E+02  0.69072043395E+02  0.47000000000E+01 0.  1.
        -11    1    1    2    0    0 -0.13947379971E+02 -0.13452716459E+01  0.12212707517E+02  0.18587344855E+02  0.00000000000E+00 0. -1.
         11    1    1    2    0    0  0.11180975976E+03  0.70243928997E+02  0.98668487926E+01  0.13241218465E+03  0.00000000000E+00 0.  1.
<mgrwt>
<rscale>  0 0.17548602E+03</rscale>
<asrwt>0</asrwt>
<pdfrwt beam="2">  1        3 0.22710337E-01 0.18516656E+03</pdfrwt>
<pdfrwt beam="1">  1       -3 0.29171903E-01 0.18516656E+03</pdfrwt>
<totfact> 0.48903855E+02</totfact>
</mgrwt>
</event>
<event>
 7    1  0.5206756E-006  0.1273898E+03  0.7546771E-02  0.1241303E+00
         -2   -1    0    0    0  501 -0.00000000000E+00  0.00000000000E+00  0.13620409582E+02  0.13620409582E+02  0.00000000000E+00 0.  1.
          2   -1    0    0  501    0  0.00000000000E+00 -0.00000000000E+00 -0.10610215190E+04  0.10610215190E+04  0.00000000000E+00 0. -1.
         23    2    1    2    0    0  0.31877066976E+02  0.33807909040E+02 -0.71785524487E+03  0.72907085530E+03  0.11861297296E+03 0.  0.
          5    1    3    3  502    0  0.40568448864E+02  0.69127848445E+02 -0.60744890105E+03  0.61273217303E+03  0.47000000000E+01 0. -1.
         -5    1    3    3    0  502 -0.86913818882E+01 -0.35319939404E+02 -0.11040634381E+03  0.11633868227E+03  0.47000000000E+01 0.  1.
        -11    1    1    2    0    0  0.17877518681E+02 -0.42536884634E+02 -0.22211181853E+03  0.22685381231E+03  0.00000000000E+00 0. -1.
         11    1    1    2    0    0 -0.49754585658E+02  0.87289755937E+01 -0.10743404606E+03  0.11871726101E+03  0.00000000000E+00 0.  1.
<mgrwt>
<rscale>  0 0.12109433E+03</rscale>
<asrwt>0</asrwt>
<pdfrwt beam="2">  1        2 0.16323409E+00 0.12738979E+03</pdfrwt>
<pdfrwt beam="1">  1       -2 0.20954475E-02 0.12738979E+03</pdfrwt>
<totfact> 0.16589690E+04</totfact>
</mgrwt>
</event>
<event>
 7    1  0.5206756E-006  0.1306425E+03  0.7546771E-02  0.1244317E+00
          1   -1    0    0  501    0  0.00000000000E+00  0.00000000000E+00  0.78071256647E+03  0.78071256647E+03  0.00000000000E+00 0. -1.
         -1   -1    0    0    0  501 -0.00000000000E+00 -0.00000000000E+00 -0.17175958617E+02  0.17175958617E+02  0.00000000000E+00 0.  1.
         23    2    1    2    0    0 -0.34590740295E+02 -0.15754700181E+02  0.56010150695E+03  0.57513577530E+03  0.12499092788E+03 0.  0.
          5    1    3    3  502    0 -0.10050574831E+02  0.54662507171E+02  0.22601871600E+03  0.23279938515E+03  0.47000000000E+01 0. -1.
         -5    1    3    3    0  502 -0.24540165464E+02 -0.70417207353E+02  0.33408279095E+03  0.34233639015E+03  0.47000000000E+01 0. -1.
        -11    1    1    2    0    0  0.26892926558E+02 -0.24361682480E+02  0.38792510735E+02  0.53118546302E+02  0.00000000000E+00 0.  1.
         11    1    1    2    0    0  0.76978137379E+01  0.40116382662E+02  0.16464259017E+03  0.16963420348E+03  0.00000000000E+00 0. -1.
<mgrwt>
<rscale>  0 0.11926356E+03</rscale>
<asrwt>0</asrwt>
<pdfrwt beam="1">  1        1 0.12010960E+00 0.13064250E+03</pdfrwt>
<pdfrwt beam="2">  1       -1 0.26424558E-02 0.13064250E+03</pdfrwt>
<totfact> 0.10418540E+04</totfact>
</mgrwt>
</event>
<event>
 7    1  0.5206756E-006  0.2892041E+03  0.7546771E-02  0.1092509E+00
          2   -1    0    0  501    0  0.00000000000E+00  0.00000000000E+00  0.11752275967E+03  0.11752275967E+03  0.00000000000E+00 0. -1.
         -2   -1    0    0    0  501 -0.00000000000E+00 -0.00000000000E+00 -0.68432047991E+03  0.68432047991E+03  0.00000000000E+00 0.  1.
         23    2    1    2    0    0  0.26078624925E+03 -0.24605917265E+01 -0.25834684758E+03  0.38779129796E+03  0.12499389907E+03 0.  0.
          5    1    3    3  502    0  0.82620550522E+02 -0.32998734416E+02 -0.24903595455E+02  0.92505950664E+02  0.47000000000E+01 0.  1.
         -5    1    3    3    0  502  0.17816569873E+03  0.30538142690E+02 -0.23344325213E+03  0.29528534730E+03  0.47000000000E+01 0.  1.
        -11    1    1    2    0    0 -0.20932844116E+03 -0.24265305030E+02 -0.27712820600E+03  0.34814830729E+03  0.00000000000E+00 0.  1.
         11    1    1    2    0    0 -0.51457808096E+02  0.26725896757E+02 -0.31322666649E+02  0.65903634327E+02  0.00000000000E+00 0. -1.
<mgrwt>
<rscale>  0 0.28590173E+03</rscale>
<asrwt>0</asrwt>
<pdfrwt beam="1">  1        2 0.18080425E-01 0.28920408E+03</pdfrwt>
<pdfrwt beam="2">  1       -2 0.10528007E+00 0.28920408E+03</pdfrwt>
<totfact> 0.23803956E+02</totfact>
</mgrwt>
</event>
<event>
 7    1  0.5206756E-006  0.1586230E+03  0.7546771E-02  0.1197000E+00
         -4   -1    0    0    0  501 -0.00000000000E+00  0.00000000000E+00  0.21682681220E+02  0.21682681220E+02  0.00000000000E+00 0.  1.
          4   -1    0    0  501    0  0.00000000000E+00 -0.00000000000E+00 -0.12418482015E+04  0.12418482015E+04  0.00000000000E+00 0. -1.
         23    2    1    2    0    0 -0.35347794634E+02 -0.91062871929E+02 -0.92113288891E+03  0.93469088629E+03  0.12497736059E+03 0.  0.
          5    1    3    3  502    0 -0.31685252081E+01 -0.10625433290E+03 -0.82920053219E+03  0.83599978194E+03  0.47000000000E+01 0. -1.
         -5    1    3    3    0  502 -0.32179269426E+02  0.15191460974E+02 -0.91932356716E+02  0.98691104355E+02  0.47000000000E+01 0. -1.
        -11    1    1    2    0    0  0.48600968633E+02  0.45259229434E+02 -0.76719703856E+02  0.10147100552E+03  0.00000000000E+00 0.  1.
         11    1    1    2    0    0 -0.13253173999E+02  0.45803642495E+02 -0.22231292756E+03  0.22736899095E+03  0.00000000000E+00 0. -1.
<mgrwt>
<rscale>  0 0.15286181E+03</rscale>
<asrwt>0</asrwt>
<pdfrwt beam="2">  1        4 0.19105354E+00 0.15862299E+03</pdfrwt>
<pdfrwt beam="1">  1       -4 0.33357977E-02 0.15862299E+03</pdfrwt>
<totfact> 0.13048369E+02</totfact>
</mgrwt>
</event>
<event>
 7    1  0.5206756E-006  0.1353686E+03  0.7546771E-02  0.1235748E+00
         -2   -1    0    0    0  501 -0.00000000000E+00  0.00000000000E+00  0.26458334705E+02  0.26458334705E+02  0.00000000000E+00 0.  1.
          2   -1    0    0  501    0  0.00000000000E+00 -0.00000000000E+00 -0.10145846260E+04  0.10145846260E+04  0.00000000000E+00 0. -1.
         23    2    1    2    0    0  0.45474956554E+02  0.25114470747E+02 -0.89942538528E+03  0.90955521008E+03  0.12500379268E+03 0.  0.
          5    1    3    3  502    0  0.55657744674E+02 -0.95759230259E+01 -0.82226041226E+03  0.82421099144E+03  0.47000000000E+01 0.  1.
         -5    1    3    3    0  502 -0.10182788119E+02  0.34690393773E+02 -0.77164973022E+02  0.85344218642E+02  0.47000000000E+01 0.  1.
        -11    1    1    2    0    0 -0.57764135292E+02  0.10426041511E+02 -0.61927600187E+02  0.85325408481E+02  0.00000000000E+00 0.  1.
         11    1    1    2    0    0  0.12289178738E+02 -0.35540512258E+02 -0.26773305791E+02  0.46162342105E+02  0.00000000000E+00 0. -1.
<mgrwt>
<rscale>  0 0.12456659E+03</rscale>
<asrwt>0</asrwt>
<pdfrwt beam="2">  1        2 0.15608992E+00 0.13536859E+03</pdfrwt>
<pdfrwt beam="1">  1       -2 0.40705137E-02 0.13536859E+03</pdfrwt>
<totfact> 0.66878275E+03</totfact>
</mgrwt>
</event>
<event>
 7    1  0.5206756E-006  0.1322619E+03  0.7546771E-02  0.1236519E+00
         -3   -1    0    0    0  501 -0.00000000000E+00  0.00000000000E+00  0.42714364692E+03  0.42714364692E+03  0.00000000000E+00 0.  1.
          3   -1    0    0  501    0  0.00000000000E+00 -0.00000000000E+00 -0.32461466721E+02  0.32461466721E+02  0.00000000000E+00 0. -1.
         23    2    1    2    0    0  0.14313810589E+02 -0.40782654633E+02  0.24108614221E+03  0.27498316202E+03  0.12500040535E+03 0.  0.
          5    1    3    3  502    0  0.22843410752E+02 -0.23033851683E+02 -0.26920900190E+00  0.32780210670E+02  0.47000000000E+01 0. -1.
         -5    1    3    3    0  502 -0.85296001630E+01 -0.17748802950E+02  0.24135535121E+03  0.24220295135E+03  0.47000000000E+01 0. -1.
        -11    1    1    2    0    0  0.64533293408E+01  0.67668970910E+02  0.11066805684E+03  0.12987745720E+03  0.00000000000E+00 0.  1.
         11    1    1    2    0    0 -0.20767139929E+02 -0.26886316277E+02  0.42927981147E+02  0.54744494419E+02  0.00000000000E+00 0. -1.
<mgrwt>
<rscale>  0 0.12407699E+03</rscale>
<asrwt>0</asrwt>
<pdfrwt beam="2">  1        3 0.49940721E-02 0.13226190E+03</pdfrwt>
<pdfrwt beam="1">  1       -3 0.65714403E-01 0.13226190E+03</pdfrwt>
<totfact> 0.11921827E+03</totfact>
</mgrwt>
</event>
<event>
 7    1  0.5206756E-006  0.2184333E+03  0.7546771E-02  0.1138511E+00
         -1   -1    0    0    0  501 -0.00000000000E+00  0.00000000000E+00  0.46358419601E+02  0.46358419601E+02  0.00000000000E+00 0.  1.
          1   -1    0    0  501    0  0.00000000000E+00 -0.00000000000E+00 -0.10235678469E+04  0.10235678469E+04  0.00000000000E+00 0. -1.
         23    2    1    2    0    0 -0.98129840737E+02  0.14986557168E+03 -0.65267089692E+03  0.68825317147E+03  0.12499589250E+03 0.  0.
          5    1    3    3  502    0 -0.12661127956E+03  0.10756621245E+03 -0.46906917559E+03  0.49764333379E+03  0.47000000000E+01 0.  1.
         -5    1    3    3    0  502  0.28481438825E+02  0.42299359227E+02 -0.18360172133E+03  0.19060983769E+03  0.47000000000E+01 0.  1.
        -11    1    1    2    0    0  0.44010203197E+02 -0.61553126328E+02 -0.56849151806E+02  0.94644130337E+02  0.00000000000E+00 0.  1.
         11    1    1    2    0    0  0.54119637540E+02 -0.88312445350E+02 -0.26768937861E+03  0.28702896473E+03  0.00000000000E+00 0. -1.
<mgrwt>
<rscale>  0 0.21390377E+03</rscale>
<asrwt>0</asrwt>
<pdfrwt beam="2">  1        1 0.15747196E+00 0.21843335E+03</pdfrwt>
<pdfrwt beam="1">  1       -1 0.71320652E-02 0.21843335E+03</pdfrwt>
<totfact> 0.15761626E+03</totfact>
</mgrwt>
</event>
<event>
 7    1  0.5206756E-006  0.1301998E+03  0.7546771E-02  0.1227366E+00
          2   -1    0    0  501    0  0.00000000000E+00  0.00000000000E+00  0.16709086323E+04  0.16709086323E+04  0.00000000000E+00 0. -1.
         -2   -1    0    0    0  501 -0.00000000000E+00 -0.00000000000E+00 -0.10572931097E+02  0.10572931097E+02  0.00000000000E+00 0.  1.
         23    2    1    2    0    0 -0.34304225959E+02 -0.22990317536E+01  0.10058958865E+04  0.10142159038E+04  0.12500119851E+03 0.  0.
          5    1    3    3  502    0  0.47183389840E+02  0.36324510147E+01  0.40050869211E+03  0.40332216581E+03  0.47000000000E+01 0. -1.
         -5    1    3    3    0  502 -0.81487615799E+02 -0.59314827684E+01  0.60538719437E+03  0.61089373800E+03  0.47000000000E+01 0. -1.
        -11    1    1    2    0    0  0.77706005470E+02 -0.20796182443E+02  0.43639406525E+03  0.44374596863E+03  0.00000000000E+00 0.  1.
         11    1    1    2    0    0 -0.43401779511E+02  0.23095214197E+02  0.21804574942E+03  0.22351969091E+03  0.00000000000E+00 0. -1.
<mgrwt>
<rscale>  0 0.13006044E+03</rscale>
<asrwt>0</asrwt>
<pdfrwt beam="1">  1        2 0.25706266E+00 0.13019981E+03</pdfrwt>
<pdfrwt beam="2">  1       -2 0.16266061E-02 0.13019981E+03</pdfrwt>
<totfact> 0.11296132E+04</totfact>
</mgrwt>
</event>
<event>
 7    1  0.5206756E-006  0.1274696E+03  0.7546771E-02  0.1248415E+00
          2   -1    0    0  501    0  0.00000000000E+00  0.00000000000E+00  0.35192781926E+02  0.35192781926E+02  0.00000000000E+00 0. -1.
         -2   -1    0    0    0  501 -0.00000000000E+00 -0.00000000000E+00 -0.39569207061E+03  0.39569207061E+03  0.00000000000E+00 0.  1.
         23    2    1    2    0    0  0.90046150801E+00 -0.24969891071E+02 -0.12390875479E+03  0.17776918171E+03  0.12499678461E+03 0.  0.
          5    1    3    3  502    0 -0.11369881821E+02 -0.55702420374E+02 -0.85698829038E+01  0.57685065148E+02  0.47000000000E+01 0. -1.
         -5    1    3    3    0  502  0.12270343329E+02  0.30732529303E+02 -0.11533887189E+03  0.12008411656E+03  0.47000000000E+01 0. -1.
        -11    1    1    2    0    0 -0.42915312032E+02  0.15035498112E+02 -0.14280215545E+03  0.14986742745E+03  0.00000000000E+00 0.  1.
         11    1    1    2    0    0  0.42014850524E+02  0.99343929586E+01 -0.93788378449E+02  0.10324824338E+03  0.00000000000E+00 0. -1.
<mgrwt>
<rscale>  0 0.11683288E+03</rscale>
<asrwt>0</asrwt>
<pdfrwt beam="1">  1        2 0.54142740E-02 0.12746961E+03</pdfrwt>
<pdfrwt beam="2">  1       -2 0.60875705E-01 0.12746961E+03</pdfrwt>
<totfact> 0.34469288E+03</totfact>
</mgrwt>
</event>
<event>
 7    1  0.5206756E-006  0.1424621E+03  0.7546771E-02  0.1220397E+00
         -1   -1    0    0    0  501 -0.00000000000E+00  0.00000000000E+00  0.14489551743E+03  0.14489551743E+03  0.00000000000E+00 0.  1.
          1   -1    0    0  501    0  0.00000000000E+00 -0.00000000000E+00 -0.11746165294E+03  0.11746165294E+03  0.00000000000E+00 0. -1.
         23    2    1    2    0    0 -0.52098764336E+02  0.45335251597E+02 -0.75947369070E+01  0.14266439753E+03  0.12460290531E+03 0.  0.
          5    1    3    3  502    0 -0.34984237683E+02  0.72266986383E+02  0.36262386377E+02  0.88223947276E+02  0.47000000000E+01 0. -1.
         -5    1    3    3    0  502 -0.17114526653E+02 -0.26931734786E+02 -0.43857123284E+02  0.54440450255E+02  0.47000000000E+01 0. -1.
        -11    1    1    2    0    0  0.63501636390E+02  0.26427069327E+01  0.29500791012E+02  0.70069525434E+02  0.00000000000E+00 0.  1.
         11    1    1    2    0    0 -0.11402872054E+02 -0.47977958530E+02  0.55278103849E+01  0.49623247409E+02  0.00000000000E+00 0. -1.
<mgrwt>
<rscale>  0 0.13487478E+03</rscale>
<asrwt>0</asrwt>
<pdfrwt beam="2">  1        1 0.18071024E-01 0.14246210E+03</pdfrwt>
<pdfrwt beam="1">  1       -1 0.22291618E-01 0.14246210E+03</pdfrwt>
<totfact> 0.47125631E+03</totfact>
</mgrwt>
</event>
<event>
 7    1  0.5206756E-006  0.2532624E+03  0.7546771E-02  0.1113640E+00
          1   -1    0    0  501    0  0.00000000000E+00  0.00000000000E+00  0.18373702128E+03  0.18373702128E+03  0.00000000000E+00 0. -1.
         -1   -1    0    0    0  501 -0.00000000000E+00 -0.00000000000E+00 -0.34114238520E+03  0.34114238520E+03  0.00000000000E+00 0.  1.
         23    2    1    2    0    0  0.86209301626E+02 -0.20268586348E+03 -0.31410630046E+02  0.25520277500E+03  0.12501290232E+03 0.  0.
          5    1    3    3  502    0  0.39716381270E+02 -0.10482902269E+03 -0.78545719304E+02  0.13695997576E+03  0.47000000000E+01 0.  1.
         -5    1    3    3    0  502  0.46492920356E+02 -0.97856840791E+02  0.47135089258E+02  0.11824279924E+03  0.47000000000E+01 0.  1.
        -11    1    1    2    0    0 -0.36501537624E+02  0.88542274724E+02 -0.10723170659E+03  0.14377320877E+03  0.00000000000E+00 0.  1.
         11    1    1    2    0    0 -0.49707764003E+02  0.11414358876E+03 -0.18763027294E+02  0.12590342271E+03  0.00000000000E+00 0. -1.
<mgrwt>
<rscale>  0 0.24947101E+03</rscale>
<asrwt>0</asrwt>
<pdfrwt beam="1">  1        1 0.28267234E-01 0.25326237E+03</pdfrwt>
<pdfrwt beam="2">  1       -1 0.52483443E-01 0.25326237E+03</pdfrwt>
<totfact> 0.61492388E+02</totfact>
</mgrwt>
</event>
<event>
 7    1  0.5206756E-006  0.1293233E+03  0.7546771E-02  0.1242367E+00
         -2   -1    0    0    0  501 -0.00000000000E+00  0.00000000000E+00  0.13921056600E+02  0.13921056600E+02  0.00000000000E+00 0. -1.
          2   -1    0    0  501    0  0.00000000000E+00 -0.00000000000E+00 -0.10032812043E+04  0.10032812043E+04  0.00000000000E+00 0.  1.
         23    2    1    2    0    0 -0.30611783512E+02 -0.12815407171E+02 -0.70211433328E+03  0.71392509598E+03  0.12499275871E+03 0.  0.
          5    1    3    3  502    0  0.16259240571E+02 -0.56013404673E+02 -0.45207477640E+03  0.45584598042E+03  0.47000000000E+01 0. -1.
         -5    1    3    3    0  502 -0.46871024083E+02  0.43197997502E+02 -0.25003955687E+03  0.25807911556E+03  0.47000000000E+01 0. -1.
        -11    1    1    2    0    0 -0.17443617767E+02  0.12504936335E+01 -0.72159529119E+01  0.18918602262E+02  0.00000000000E+00 0. -1.
         11    1    1    2    0    0  0.48055401279E+02  0.11564913537E+02 -0.28002986154E+03  0.28435856268E+03  0.00000000000E+00 0.  1.
<mgrwt>
<rscale>  0 0.12044349E+03</rscale>
<asrwt>0</asrwt>
<pdfrwt beam="2">  1        2 0.15435097E+00 0.12932326E+03</pdfrwt>
<pdfrwt beam="1">  1       -2 0.21417008E-02 0.12932326E+03</pdfrwt>
<totfact> 0.17395154E+04</totfact>
</mgrwt>
</event>
<event>
 7    1  0.5206756E-006  0.1682540E+03  0.7546771E-02  0.1186752E+00
         -1   -1    0    0    0  501 -0.00000000000E+00  0.00000000000E+00  0.12144672534E+03  0.12144672534E+03  0.00000000000E+00 0.  1.
          1   -1    0    0  501    0  0.00000000000E+00 -0.00000000000E+00 -0.20691880229E+03  0.20691880229E+03  0.00000000000E+00 0. -1.
         23    2    1    2    0    0  0.47372392149E+01  0.11252440509E+03 -0.75345021470E+02  0.18435371886E+03  0.12500095289E+03 0.  0.
          5    1    3    3  502    0 -0.55791327649E+02  0.38821728113E+02 -0.10515380046E+02  0.68938102904E+02  0.47000000000E+01 0.  1.
         -5    1    3    3    0  502  0.60528566863E+02  0.73702676976E+02 -0.64829641425E+02  0.11541561596E+03  0.47000000000E+01 0.  1.
        -11    1    1    2    0    0 -0.45778536738E+02 -0.53246733887E+02  0.47996038620E+01  0.70384126711E+02  0.00000000000E+00 0. -1.
         11    1    1    2    0    0  0.41041297524E+02 -0.59277671202E+02 -0.14926659349E+02  0.73627682055E+02  0.00000000000E+00 0.  1.
<mgrwt>
<rscale>  0 0.16173519E+03</rscale>
<asrwt>0</asrwt>
<pdfrwt beam="2">  1        1 0.31833662E-01 0.16825404E+03</pdfrwt>
<pdfrwt beam="1">  1       -1 0.18684112E-01 0.16825404E+03</pdfrwt>
<totfact> 0.30909863E+03</totfact>
</mgrwt>
</event>
<event>
 7    1  0.5206756E-006  0.1508069E+03  0.7546771E-02  0.1208500E+00
         -2   -1    0    0    0  501 -0.00000000000E+00  0.00000000000E+00  0.11956919996E+03  0.11956919996E+03  0.00000000000E+00 0.  1.
          2   -1    0    0  501    0  0.00000000000E+00 -0.00000000000E+00 -0.16552219037E+03  0.16552219037E+03  0.00000000000E+00 0. -1.
         23    2    1    2    0    0  0.54576211508E+02 -0.64329239842E+02 -0.55201338025E+02  0.16059235120E+03  0.12500360628E+03 0.  0.
          5    1    3    3  502    0  0.19706544179E+02  0.33479106163E+02  0.65687268624E+01  0.39679170928E+02  0.47000000000E+01 0.  1.
         -5    1    3    3    0  502  0.34869667329E+02 -0.97808346005E+02 -0.61770064888E+02  0.12091318027E+03  0.47000000000E+01 0.  1.
        -11    1    1    2    0    0 -0.36020052482E+02  0.15995338927E+02 -0.37750645845E+02  0.54574777232E+02  0.00000000000E+00 0. -1.
         11    1    1    2    0    0 -0.18556159026E+02  0.48333900915E+02  0.46998993455E+02  0.69924261893E+02  0.00000000000E+00 0.  1.
<mgrwt>
<rscale>  0 0.14365044E+03</rscale>
<asrwt>0</asrwt>
<pdfrwt beam="2">  1        2 0.25464952E-01 0.15080688E+03</pdfrwt>
<pdfrwt beam="1">  1       -2 0.18395262E-01 0.15080688E+03</pdfrwt>
<totfact> 0.49162673E+03</totfact>
</mgrwt>
</event>
<event>
 7    1  0.5206756E-006  0.2250728E+03  0.7546771E-02  0.1133280E+00
         -1   -1    0    0    0  501 -0.00000000000E+00  0.00000000000E+00  0.12176525037E+03  0.12176525037E+03  0.00000000000E+00 0.  1.
          1   -1    0    0  501    0  0.00000000000E+00 -0.00000000000E+00 -0.39389768606E+03  0.39389768606E+03  0.00000000000E+00 0. -1.
         23    2    1    2    0    0 -0.13521986274E+03 -0.12941988152E+03 -0.17773349756E+03  0.28678731732E+03  0.12499540875E+03 0.  0.
          5    1    3    3  502    0 -0.78239324974E+02 -0.55454373453E+02 -0.16707025825E+03  0.19269442311E+03  0.47000000000E+01 0.  1.
         -5    1    3    3    0  502 -0.56980537770E+02 -0.73965508070E+02 -0.10663239311E+02  0.94092894213E+02  0.47000000000E+01 0.  1.
        -11    1    1    2    0    0  0.95697907549E+02  0.34883528435E+02 -0.24268010770E+02  0.10470857850E+03  0.00000000000E+00 0.  1.
         11    1    1    2    0    0  0.39521955195E+02  0.94536353088E+02 -0.70130927365E+02  0.12416704060E+03  0.00000000000E+00 0. -1.
<mgrwt>
<rscale>  0 0.22081043E+03</rscale>
<asrwt>0</asrwt>
<pdfrwt beam="2">  1        1 0.60599646E-01 0.22507281E+03</pdfrwt>
<pdfrwt beam="1">  1       -1 0.18733115E-01 0.22507281E+03</pdfrwt>
<totfact> 0.13834771E+03</totfact>
</mgrwt>
</event>
<event>
 7    1  0.5206756E-006  0.1161425E+03  0.7546771E-02  0.1316391E+00
          2   -1    0    0  501    0  0.00000000000E+00  0.00000000000E+00  0.20158285930E+03  0.20158285930E+03  0.00000000000E+00 0. -1.
         -2   -1    0    0    0  501 -0.00000000000E+00 -0.00000000000E+00 -0.16841820680E+03  0.16841820680E+03  0.00000000000E+00 0.  1.
         23    2    1    2    0    0 -0.47725213755E+01 -0.23498382030E+02  0.18293628928E+03  0.21669048478E+03  0.11364035085E+03 0.  0.
          5    1    3    3  502    0 -0.29728148148E+02  0.48201298314E+01  0.17525467949E+03  0.17788560686E+03  0.47000000000E+01 0. -1.
         -5    1    3    3    0  502  0.24955626773E+02 -0.28318511861E+02  0.76816097883E+01  0.38804877923E+02  0.47000000000E+01 0.  1.
        -11    1    1    2    0    0  0.12841203308E+02  0.76860973375E+01 -0.65105591651E+02  0.66803522803E+02  0.00000000000E+00 0. -1.
         11    1    1    2    0    0 -0.80686819326E+01  0.15812284692E+02 -0.84666045127E+02  0.86507058514E+02  0.00000000000E+00 0.  1.
<mgrwt>
<rscale>  0 0.84634543E+02</rscale>
<asrwt>0</asrwt>
<pdfrwt beam="1">  1        2 0.31012748E-01 0.11614250E+03</pdfrwt>
<pdfrwt beam="2">  1       -2 0.25910493E-01 0.11614250E+03</pdfrwt>
<totfact> 0.21763833E+03</totfact>
</mgrwt>
</event>
<event>
 7    1  0.5206756E-006  0.1318765E+03  0.7546771E-02  0.1237469E+00
          2   -1    0    0  501    0  0.00000000000E+00  0.00000000000E+00  0.48839244225E+03  0.48839244225E+03  0.00000000000E+00 0. -1.
         -2   -1    0    0    0  501 -0.00000000000E+00 -0.00000000000E+00 -0.35083905705E+02  0.35083905705E+02  0.00000000000E+00 0.  1.
         23    2    1    2    0    0  0.38791845457E+02  0.16232596296E+02  0.36827869980E+03  0.39117849769E+03  0.12499244726E+03 0.  0.
          5    1    3    3  502    0  0.62609200992E+02 -0.28465948800E+02  0.28804773419E+03  0.29618205459E+03  0.47000000000E+01 0.  1.
         -5    1    3    3    0  502 -0.23817355535E+02  0.44698545096E+02  0.80230965606E+02  0.94996443094E+02  0.47000000000E+01 0.  1.
        -11    1    1    2    0    0 -0.89281375088E+01  0.12698499281E+02 -0.16457451305E+02  0.22623245276E+02  0.00000000000E+00 0.  1.
         11    1    1    2    0    0 -0.29863707949E+02 -0.28931095577E+02  0.10148728805E+03  0.10967460499E+03  0.00000000000E+00 0. -1.
<mgrwt>
<rscale>  0 0.12347695E+03</rscale>
<asrwt>0</asrwt>
<pdfrwt beam="1">  1        2 0.75137294E-01 0.13187652E+03</pdfrwt>
<pdfrwt beam="2">  1       -2 0.53975243E-02 0.13187652E+03</pdfrwt>
<totfact> 0.10566275E+04</totfact>
</mgrwt>
</event>
<event>
 6    1  0.5206756E-006  0.1482789E+03  0.7546771E-02  0.1215789E+00
          2   -1    0    0  501    0  0.00000000000E+00  0.00000000000E+00  0.57905023696E+03  0.57905023696E+03  0.00000000000E+00 0. -1.
         -2   -1    0    0    0  501 -0.00000000000E+00 -0.00000000000E+00 -0.43289168465E+02  0.43289168465E+02  0.00000000000E+00 0.  1.
          5    1    1    2  502    0  0.45316134459E+02  0.55925987165E+01  0.31806774792E+03  0.32136274126E+03  0.47000000000E+01 0. -1.
         -5    1    1    2    0  502 -0.41377117623E+02 -0.67619861523E+02  0.15137980201E+03  0.17094573991E+03  0.47000000000E+01 0.  1.
        -11    1    1    2    0    0  0.12298061375E+02 -0.13520865217E+02 -0.10496706284E+02  0.21076929392E+02  0.00000000000E+00 0. -1.
         11    1    1    2    0    0 -0.16237078210E+02  0.75548128023E+02  0.76810224846E+02  0.10895399487E+03  0.00000000000E+00 0.  1.
<mgrwt>
<rscale>  0 0.13818762E+03</rscale>
<asrwt>0</asrwt>
<pdfrwt beam="1">  1        2 0.89084646E-01 0.14827892E+03</pdfrwt>
<pdfrwt beam="2">  1       -2 0.66598725E-02 0.14827892E+03</pdfrwt>
<totfact> 0.64030453E+03</totfact>
</mgrwt>
</event>
<event>
 7    1  0.5206756E-006  0.1521008E+03  0.7546771E-02  0.1207746E+00
          1   -1    0    0  501    0  0.00000000000E+00  0.00000000000E+00  0.66325760477E+03  0.66325760477E+03  0.00000000000E+00 0. -1.
         -1   -1    0    0    0  501 -0.00000000000E+00 -0.00000000000E+00 -0.30692756411E+02  0.30692756411E+02  0.00000000000E+00 0.  1.
         23    2    1    2    0    0  0.65756157621E+02 -0.56442397086E+02  0.43918143625E+03  0.46477410944E+03  0.12500008962E+03 0.  0.
          5    1    3    3  502    0  0.90668064212E+02 -0.77320844314E+02  0.34597601718E+03  0.36595178001E+03  0.47000000000E+01 0.  1.
         -5    1    3    3    0  502 -0.24911906592E+02  0.20878447228E+02  0.93205419078E+02  0.98822329431E+02  0.47000000000E+01 0.  1.
        -11    1    1    2    0    0 -0.44039114682E+02  0.16066772711E+02  0.22031738172E+02  0.51797512433E+02  0.00000000000E+00 0.  1.
         11    1    1    2    0    0 -0.21717042939E+02  0.40375624375E+02  0.17135167394E+03  0.17737873931E+03  0.00000000000E+00 0. -1.
<mgrwt>
<rscale>  0 0.14423114E+03</rscale>
<asrwt>0</asrwt>
<pdfrwt beam="1">  1        1 0.10203962E+00 0.15210075E+03</pdfrwt>
<pdfrwt beam="2">  1       -1 0.47219630E-02 0.15210075E+03</pdfrwt>
<totfact> 0.56851784E+03</totfact>
</mgrwt>
</event>
<event>
 7    1  0.5206756E-006  0.2888565E+03  0.7546771E-02  0.1092893E+00
         -4   -1    0    0    0  501 -0.00000000000E+00  0.00000000000E+00  0.43153901909E+03  0.43153901909E+03  0.00000000000E+00 0.  1.
          4   -1    0    0  501    0  0.00000000000E+00 -0.00000000000E+00 -0.23039343274E+03  0.23039343274E+03  0.00000000000E+00 0. -1.
         23    2    1    2    0    0  0.11593665905E+03  0.23303599734E+03 -0.46151372970E+02  0.29252014727E+03  0.12526373124E+03 0.  0.
          5    1    3    3  502    0  0.93130108265E+02  0.12009060898E+03  0.29121948660E+02  0.15480681292E+03  0.47000000000E+01 0.  1.
         -5    1    3    3    0  502  0.22806550790E+02  0.11294538836E+03 -0.75273321630E+02  0.13771333435E+03  0.47000000000E+01 0.  1.
        -11    1    1    2    0    0 -0.62040656442E+02 -0.11228612050E+03  0.18001057285E+03  0.22104529455E+03  0.00000000000E+00 0. -1.
         11    1    1    2    0    0 -0.53896002613E+02 -0.12074987684E+03  0.67286386466E+02  0.14836701001E+03  0.00000000000E+00 0.  1.
<mgrwt>
<rscale>  0 0.28517928E+03</rscale>
<asrwt>0</asrwt>
<pdfrwt beam="2">  1        4 0.35445144E-01 0.28885652E+03</pdfrwt>
<pdfrwt beam="1">  1       -4 0.66390618E-01 0.28885652E+03</pdfrwt>
<totfact> 0.30383849E+01</totfact>
</mgrwt>
</event>
<event>
 7    1  0.5206756E-006  0.1463504E+03  0.7546771E-02  0.1217090E+00
         -2   -1    0    0    0  501 -0.00000000000E+00  0.00000000000E+00  0.52904670530E+02  0.52904670530E+02  0.00000000000E+00 0.  1.
          2   -1    0    0  501    0  0.00000000000E+00 -0.00000000000E+00 -0.31848873349E+03  0.31848873349E+03  0.00000000000E+00 0. -1.
         23    2    1    2    0    0  0.58278290100E+02  0.48962089390E+02 -0.15442569032E+03  0.21275745231E+03  0.12499917756E+03 0.  0.
          5    1    3    3  502    0 -0.31592429900E+02  0.45556741536E+02 -0.49367321826E+02  0.74382261264E+02  0.47000000000E+01 0.  1.
         -5    1    3    3    0  502  0.89870720000E+02  0.34053478537E+01 -0.10505836849E+03  0.13837519105E+03  0.47000000000E+01 0.  1.
        -11    1    1    2    0    0  0.10042159240E+02  0.14844922918E+02 -0.86443674777E+01  0.19898286050E+02  0.00000000000E+00 0. -1.
         11    1    1    2    0    0 -0.68320449340E+02 -0.63807012308E+02 -0.10251400516E+03  0.13873766566E+03  0.00000000000E+00 0.  1.
<mgrwt>
<rscale>  0 0.13724155E+03</rscale>
<asrwt>0</asrwt>
<pdfrwt beam="2">  1        2 0.48998267E-01 0.14635040E+03</pdfrwt>
<pdfrwt beam="1">  1       -2 0.81391800E-02 0.14635040E+03</pdfrwt>
<totfact> 0.89906214E+03</totfact>
</mgrwt>
</event>
<event>
 7    1  0.5206756E-006  0.2468242E+03  0.7546771E-02  0.1117904E+00
          2   -1    0    0  501    0  0.00000000000E+00  0.00000000000E+00  0.54530355302E+03  0.54530355302E+03  0.00000000000E+00 0. -1.
         -2   -1    0    0    0  501 -0.00000000000E+00 -0.00000000000E+00 -0.10608924504E+03  0.10608924504E+03  0.00000000000E+00 0.  1.
         23    2    1    2    0    0 -0.13318297933E+02  0.21241438041E+03  0.26223734246E+03  0.36012581545E+03  0.12499973245E+03 0.  0.
          5    1    3    3  502    0 -0.62946710864E+02  0.63742135655E+02  0.10419267407E+03  0.13749018727E+03  0.47000000000E+01 0. -1.
         -5    1    3    3    0  502  0.49628412930E+02  0.14867224475E+03  0.15804466839E+03  0.22263562818E+03  0.47000000000E+01 0. -1.
        -11    1    1    2    0    0  0.49050292567E+02 -0.87927799790E+02  0.91825999187E+02  0.13626901080E+03  0.00000000000E+00 0. -1.
         11    1    1    2    0    0 -0.35731994634E+02 -0.12448658062E+03  0.85150966337E+02  0.15499797180E+03  0.00000000000E+00 0.  1.
<mgrwt>
<rscale>  0 0.24285712E+03</rscale>
<asrwt>0</asrwt>
<pdfrwt beam="1">  1        2 0.83892852E-01 0.24682419E+03</pdfrwt>
<pdfrwt beam="2">  1       -2 0.16321423E-01 0.24682419E+03</pdfrwt>
<totfact> 0.16721131E+03</totfact>
</mgrwt>
</event>
<event>
 7    1  0.5206756E-006  0.1363681E+03  0.7546771E-02  0.1230467E+00
         -1   -1    0    0    0  501 -0.00000000000E+00  0.00000000000E+00  0.42235998222E+02  0.42235998222E+02  0.00000000000E+00 0.  1.
          1   -1    0    0  501    0  0.00000000000E+00 -0.00000000000E+00 -0.34720345868E+03  0.34720345868E+03  0.00000000000E+00 0. -1.
         23    2    1    2    0    0 -0.24258922479E+02 -0.48802211475E+02 -0.17246483774E+03  0.21986447452E+03  0.12500446285E+03 0.  0.
          5    1    3    3  502    0 -0.47471593192E+02  0.21720100034E+02 -0.33403286784E+02  0.62154520943E+02  0.47000000000E+01 0.  1.
         -5    1    3    3    0  502  0.23212670714E+02 -0.70522311508E+02 -0.13906155096E+03  0.15770995357E+03  0.47000000000E+01 0.  1.
        -11    1    1    2    0    0  0.30144448753E+02  0.15866957581E+02 -0.13177831718E+03  0.13611015029E+03  0.00000000000E+00 0. -1.
         11    1    1    2    0    0 -0.58855262741E+01  0.32935253893E+02 -0.72430553822E+00  0.33464832094E+02  0.00000000000E+00 0.  1.
<mgrwt>
<rscale>  0 0.12799139E+03</rscale>
<asrwt>0</asrwt>
<pdfrwt beam="2">  1        1 0.53415917E-01 0.13636813E+03</pdfrwt>
<pdfrwt beam="1">  1       -1 0.64978458E-02 0.13636813E+03</pdfrwt>
<totfact> 0.81873633E+03</totfact>
</mgrwt>
</event>
<event>
 7    1  0.5206756E-006  0.1424771E+03  0.7546771E-02  0.1220913E+00
         -1   -1    0    0    0  501 -0.00000000000E+00  0.00000000000E+00  0.20992167928E+02  0.20992167928E+02  0.00000000000E+00 0.  1.
          1   -1    0    0  501    0  0.00000000000E+00 -0.00000000000E+00 -0.81765727917E+03  0.81765727917E+03  0.00000000000E+00 0. -1.
         23    2    1    2    0    0 -0.60536119082E+02  0.31774791822E+02 -0.53306350339E+03  0.55177569666E+03  0.12500184666E+03 0.  0.
          5    1    3    3  502    0 -0.66990890436E+02 -0.25574702306E+02 -0.17693985381E+03  0.19097551327E+03  0.47000000000E+01 0.  1.
         -5    1    3    3    0  502  0.64547713543E+01  0.57349494128E+02 -0.35612364957E+03  0.36080018339E+03  0.47000000000E+01 0.  1.
        -11    1    1    2    0    0  0.72018286751E+02 -0.14748232582E+01 -0.22617820772E+03  0.23737183990E+03  0.00000000000E+00 0. -1.
         11    1    1    2    0    0 -0.11482167669E+02 -0.30299968564E+02 -0.37423400131E+02  0.49501910537E+02  0.00000000000E+00 0.  1.
<mgrwt>
<rscale>  0 0.13451030E+03</rscale>
<asrwt>0</asrwt>
<pdfrwt beam="2">  1        1 0.12579341E+00 0.14247709E+03</pdfrwt>
<pdfrwt beam="1">  1       -1 0.32295647E-02 0.14247709E+03</pdfrwt>
<totfact> 0.72935762E+03</totfact>
</mgrwt>
</event>
<event>
 7    1  0.5206756E-006  0.1345828E+03  0.7546771E-02  0.1233515E+00
          1   -1    0    0  501    0  0.00000000000E+00  0.00000000000E+00  0.85377897243E+03  0.85377897243E+03  0.00000000000E+00 0. -1.
         -1   -1    0    0    0  501 -0.00000000000E+00 -0.00000000000E+00 -0.17135895219E+02  0.17135895219E+02  0.00000000000E+00 0.  1.
         23    2    1    2    0    0 -0.49791936444E+02 -0.28549464804E+01  0.54889194749E+03  0.56515032401E+03  0.12500052423E+03 0.  0.
          5    1    3    3  502    0  0.33100600545E+02 -0.31679472448E+02  0.16343156275E+03  0.16979753954E+03  0.47000000000E+01 0.  1.
         -5    1    3    3    0  502 -0.82892536990E+02  0.28824525968E+02  0.38546038474E+03  0.39535278447E+03  0.47000000000E+01 0.  1.
        -11    1    1    2    0    0  0.69036373948E+02 -0.20391287831E+02  0.17980454023E+03  0.19367885335E+03  0.00000000000E+00 0.  1.
         11    1    1    2    0    0 -0.19244437504E+02  0.23246234312E+02  0.10794658949E+03  0.11208569029E+03  0.00000000000E+00 0. -1.
<mgrwt>
<rscale>  0 0.12600001E+03</rscale>
<asrwt>0</asrwt>
<pdfrwt beam="1">  1        1 0.13135058E+00 0.13458276E+03</pdfrwt>
<pdfrwt beam="2">  1       -1 0.26362922E-02 0.13458276E+03</pdfrwt>
<totfact> 0.91420251E+03</totfact>
</mgrwt>
</event>
<event>
 7    1  0.5206756E-006  0.1317171E+03  0.7546771E-02  0.1237043E+00
          1   -1    0    0  501    0  0.00000000000E+00  0.00000000000E+00  0.52958008179E+02  0.52958008179E+02  0.00000000000E+00 0. -1.
         -1   -1    0    0    0  501 -0.00000000000E+00 -0.00000000000E+00 -0.25926881770E+03  0.25926881770E+03  0.00000000000E+00 0.  1.
         23    2    1    2    0    0  0.26742239908E+02  0.31673120610E+02 -0.11822123120E+03  0.17699054218E+03  0.12502423186E+03 0.  0.
          5    1    3    3  502    0 -0.32707629853E+02  0.48309863173E+02 -0.93534475498E+02  0.11033775436E+03  0.47000000000E+01 0. -1.
         -5    1    3    3    0  502  0.59449869761E+02 -0.16636742562E+02 -0.24686755704E+02  0.66652787825E+02  0.47000000000E+01 0. -1.
        -11    1    1    2    0    0  0.11094480437E+02 -0.11653403256E+02 -0.90923282132E+02  0.92335976397E+02  0.00000000000E+00 0.  1.
         11    1    1    2    0    0 -0.37836720345E+02 -0.20019717354E+02  0.28337038076E+01  0.42900307302E+02  0.00000000000E+00 0. -1.
<mgrwt>
<rscale>  0 0.12374578E+03</rscale>
<asrwt>0</asrwt>
<pdfrwt beam="1">  1        1 0.81473857E-02 0.13171709E+03</pdfrwt>
<pdfrwt beam="2">  1       -1 0.39887511E-01 0.13171709E+03</pdfrwt>
<totfact> 0.50089791E+03</totfact>
</mgrwt>
</event>
<event>
 7    1  0.5206756E-006  0.1252698E+03  0.7546771E-02  0.1248558E+00
         -2   -1    0    0    0  501 -0.00000000000E+00  0.00000000000E+00  0.63863665797E+02  0.63863665797E+02  0.00000000000E+00 0.  1.
          2   -1    0    0  501    0  0.00000000000E+00 -0.00000000000E+00 -0.20477753850E+03  0.20477753850E+03  0.00000000000E+00 0. -1.
         23    2    1    2    0    0  0.49890974652E+01 -0.65018565264E+01 -0.11640504744E+03  0.17100483622E+03  0.12500141482E+03 0.  0.
          5    1    3    3  502    0  0.53464659275E+02 -0.79573623816E+01 -0.10895065644E+03  0.12171328993E+03  0.47000000000E+01 0.  1.
         -5    1    3    3    0  502 -0.48475561809E+02  0.14555058551E+01 -0.74543910060E+01  0.49291546286E+02  0.47000000000E+01 0.  1.
        -11    1    1    2    0    0 -0.18406755041E+02  0.84863240122E+01 -0.58033802703E+02  0.61471526600E+02  0.00000000000E+00 0. -1.
         11    1    1    2    0    0  0.13417657576E+02 -0.19844674858E+01  0.33524977448E+02  0.36164841475E+02  0.00000000000E+00 0.  1.
<mgrwt>
<rscale>  0 0.11674934E+03</rscale>
<asrwt>0</asrwt>
<pdfrwt beam="2">  1        2 0.31504237E-01 0.12526978E+03</pdfrwt>
<pdfrwt beam="1">  1       -2 0.98251794E-02 0.12526978E+03</pdfrwt>
<totfact> 0.10611999E+04</totfact>
</mgrwt>
</event>
<event>
 7    1  0.5206756E-006  0.1285032E+03  0.7546771E-02  0.1243956E+00
         -4   -1    0    0    0  501 -0.00000000000E+00  0.00000000000E+00  0.11048442082E+03  0.11048442082E+03  0.00000000000E+00 0.  1.
          4   -1    0    0  501    0  0.00000000000E+00 -0.00000000000E+00 -0.14951086902E+03  0.14951086902E+03  0.00000000000E+00 0. -1.
         23    2    1    2    0    0  0.88078440867E+01 -0.28461875213E+02 -0.84436782351E+02  0.15376160218E+03  0.12500161453E+03 0.  0.
          5    1    3    3  502    0  0.29540025910E+02 -0.46744584775E+02 -0.10515383376E+03  0.11889948734E+03  0.47000000000E+01 0.  1.
         -5    1    3    3    0  502 -0.20732181823E+02  0.18282709562E+02  0.20717051408E+02  0.34862114840E+02  0.47000000000E+01 0.  1.
        -11    1    1    2    0    0 -0.38270428810E+02 -0.95547616313E+00 -0.73940684072E+01  0.38989882067E+02  0.00000000000E+00 0. -1.
         11    1    1    2    0    0  0.29462584723E+02  0.29417351376E+02  0.52804402559E+02  0.67243805590E+02  0.00000000000E+00 0.  1.
<mgrwt>
<rscale>  0 0.11948057E+03</rscale>
<asrwt>0</asrwt>
<pdfrwt beam="2">  1        4 0.23001672E-01 0.12850315E+03</pdfrwt>
<pdfrwt beam="1">  1       -4 0.16997603E-01 0.12850315E+03</pdfrwt>
<totfact> 0.86264699E+02</totfact>
</mgrwt>
</event>
<event>
 7    1  0.5206756E-006  0.1295537E+03  0.7546771E-02  0.1242712E+00
          4   -1    0    0  501    0  0.00000000000E+00  0.00000000000E+00  0.47582839327E+02  0.47582839327E+02  0.00000000000E+00 0. -1.
         -4   -1    0    0    0  501 -0.00000000000E+00 -0.00000000000E+00 -0.26778195300E+03  0.26778195300E+03  0.00000000000E+00 0.  1.
         23    2    1    2    0    0  0.21301109448E+02 -0.26539893501E+02 -0.12177980933E+03  0.17780460616E+03  0.12500421113E+03 0.  0.
          5    1    3    3  502    0  0.12434885078E+02 -0.58497079566E+01  0.25173673508E+02  0.29062850651E+02  0.47000000000E+01 0.  1.
         -5    1    3    3    0  502  0.88662243707E+01 -0.20690185544E+02 -0.14695348284E+03  0.14874175551E+03  0.47000000000E+01 0.  1.
        -11    1    1    2    0    0 -0.39842200438E+02  0.50474345832E+02 -0.54939130048E+02  0.84577588836E+02  0.00000000000E+00 0. -1.
         11    1    1    2    0    0  0.18541090990E+02 -0.23934452331E+02 -0.43480174286E+02  0.52982597327E+02  0.00000000000E+00 0.  1.
<mgrwt>
<rscale>  0 0.12023348E+03</rscale>
<asrwt>0</asrwt>
<pdfrwt beam="1">  1        4 0.73204370E-02 0.12955368E+03</pdfrwt>
<pdfrwt beam="2">  1       -4 0.41197223E-01 0.12955368E+03</pdfrwt>
<totfact> 0.11989542E+03</totfact>
</mgrwt>
</event>
<event>
 7    1  0.5206756E-006  0.1394369E+03  0.7546771E-02  0.1225557E+00
          1   -1    0    0  501    0  0.00000000000E+00  0.00000000000E+00  0.67135479788E+02  0.67135479788E+02  0.00000000000E+00 0. -1.
         -1   -1    0    0    0  501 -0.00000000000E+00 -0.00000000000E+00 -0.23097741306E+03  0.23097741306E+03  0.00000000000E+00 0.  1.
         23    2    1    2    0    0 -0.61196619856E+02 -0.82440328783E+01 -0.93914247853E+02  0.16811464732E+03  0.12501863194E+03 0.  0.
          5    1    3    3  502    0 -0.51015980432E+02 -0.10976984914E+02  0.18156229687E+02  0.55451448436E+02  0.47000000000E+01 0. -1.
         -5    1    3    3    0  502 -0.10180639424E+02  0.27329520355E+01 -0.11207047754E+03  0.11266319888E+03  0.47000000000E+01 0. -1.
        -11    1    1    2    0    0  0.15713190401E+02  0.79418343367E+01 -0.81241881560E+02  0.83127735472E+02  0.00000000000E+00 0.  1.
         11    1    1    2    0    0  0.45483429456E+02  0.30219854165E+00  0.11314196141E+02  0.46870510060E+02  0.00000000000E+00 0. -1.
<mgrwt>
<rscale>  0 0.13128788E+03</rscale>
<asrwt>0</asrwt>
<pdfrwt beam="1">  1        1 0.10328535E-01 0.13943690E+03</pdfrwt>
<pdfrwt beam="2">  1       -1 0.35534987E-01 0.13943690E+03</pdfrwt>
<totfact> 0.44792957E+03</totfact>
</mgrwt>
</event>
<event>
 7    1  0.5206756E-006  0.2049644E+03  0.7546771E-02  0.1149661E+00
         -3   -1    0    0    0  501 -0.00000000000E+00  0.00000000000E+00  0.10928936175E+03  0.10928936175E+03  0.00000000000E+00 0.  1.
          3   -1    0    0  501    0  0.00000000000E+00 -0.00000000000E+00 -0.43166655951E+03  0.43166655951E+03  0.00000000000E+00 0. -1.
         23    2    1    2    0    0 -0.16189087118E+03  0.13308277512E+02 -0.28504711156E+03  0.35108726741E+03  0.12499859642E+03 0.  0.
          5    1    3    3  502    0 -0.14386753581E+03 -0.15457069794E+02 -0.13767456015E+03  0.19978279050E+03  0.47000000000E+01 0. -1.
         -5    1    3    3    0  502 -0.18023335364E+02  0.28765347306E+02 -0.14737255141E+03  0.15130447691E+03  0.47000000000E+01 0. -1.
        -11    1    1    2    0    0  0.10631578533E+03  0.35576264235E+02 -0.20631090783E+02  0.11399280106E+03  0.00000000000E+00 0.  1.
         11    1    1    2    0    0  0.55575085851E+02 -0.48884541747E+02 -0.16698995421E+02  0.75875852794E+02  0.00000000000E+00 0. -1.
<mgrwt>
<rscale>  0 0.20009307E+03</rscale>
<asrwt>0</asrwt>
<pdfrwt beam="2">  1        3 0.66410240E-01 0.20496442E+03</pdfrwt>
<pdfrwt beam="1">  1       -3 0.16813748E-01 0.20496442E+03</pdfrwt>
<totfact> 0.16604588E+02</totfact>
</mgrwt>
</event>
<event>
 7    1  0.5206756E-006  0.1283609E+03  0.7546771E-02  0.1243481E+00
          2   -1    0    0  501    0  0.00000000000E+00  0.00000000000E+00  0.33403726255E+03  0.33403726255E+03  0.00000000000E+00 0. -1.
         -2   -1    0    0    0  501 -0.00000000000E+00 -0.00000000000E+00 -0.42734439179E+02  0.42734439179E+02  0.00000000000E+00 0.  1.
         23    2    1    2    0    0 -0.16294408453E+02 -0.24209728136E+02  0.22499627858E+03  0.25903639302E+03  0.12499963542E+03 0.  0.
          5    1    3    3  502    0 -0.79720209122E+00 -0.69308036788E+02  0.78124534670E+02  0.10454555185E+03  0.47000000000E+01 0. -1.
         -5    1    3    3    0  502 -0.15497206362E+02  0.45098308651E+02  0.14687174391E+03  0.15449084117E+03  0.47000000000E+01 0. -1.
        -11    1    1    2    0    0 -0.20023895232E+01  0.30694503745E+02 -0.14944210684E+02  0.34197829710E+02  0.00000000000E+00 0.  1.
         11    1    1    2    0    0  0.18296797976E+02 -0.64847756082E+01  0.81250755480E+02  0.83537478996E+02  0.00000000000E+00 0. -1.
<mgrwt>
<rscale>  0 0.11976777E+03</rscale>
<asrwt>0</asrwt>
<pdfrwt beam="1">  1        2 0.51390346E-01 0.12836093E+03</pdfrwt>
<pdfrwt beam="2">  1       -2 0.65745293E-02 0.12836093E+03</pdfrwt>
<totfact> 0.11748442E+04</totfact>
</mgrwt>
</event>
<event>
 7    1  0.5206756E-006  0.1651350E+03  0.7546771E-02  0.1190349E+00
          2   -1    0    0  501    0  0.00000000000E+00  0.00000000000E+00  0.16793025762E+04  0.16793025762E+04  0.00000000000E+00 0. -1.
         -2   -1    0    0    0  501 -0.00000000000E+00 -0.00000000000E+00 -0.15456041207E+02  0.15456041207E+02  0.00000000000E+00 0.  1.
         23    2    1    2    0    0  0.82838364892E+02 -0.69159810615E+02  0.11616513995E+04  0.11733301073E+04  0.12499717047E+03 0.  0.
          5    1    3    3  502    0 -0.15741620642E+02 -0.70472715359E+01  0.57088679962E+03  0.57116660498E+03  0.47000000000E+01 0.  1.
         -5    1    3    3    0  502  0.98579985534E+02 -0.62112539079E+02  0.59076459991E+03  0.60216350236E+03  0.47000000000E+01 0.  1.
        -11    1    1    2    0    0 -0.23032799770E+02  0.61551316032E+02  0.14522381252E+03  0.15940210191E+03  0.00000000000E+00 0.  1.
         11    1    1    2    0    0 -0.59805565122E+02  0.76084945825E+01  0.35697132293E+03  0.36202640816E+03  0.00000000000E+00 0. -1.
<mgrwt>
<rscale>  0 0.15854546E+03</rscale>
<asrwt>0</asrwt>
<pdfrwt beam="1">  1        2 0.25835410E+00 0.16513500E+03</pdfrwt>
<pdfrwt beam="2">  1       -2 0.23778538E-02 0.16513500E+03</pdfrwt>
<totfact> 0.64896455E+03</totfact>
</mgrwt>
</event>
<event>
 7    1  0.5206756E-006  0.1624171E+03  0.7546771E-02  0.1193003E+00
          2   -1    0    0  501    0  0.00000000000E+00  0.00000000000E+00  0.14061235571E+04  0.14061235571E+04  0.00000000000E+00 0. -1.
         -2   -1    0    0    0  501 -0.00000000000E+00 -0.00000000000E+00 -0.17114535124E+02  0.17114535124E+02  0.00000000000E+00 0.  1.
         23    2    1    2    0    0 -0.48821882467E+01 -0.10357405079E+03  0.91249132764E+03  0.92683317069E+03  0.12501153357E+03 0.  0.
          5    1    3    3  502    0 -0.50448811136E+02 -0.10408196387E+03  0.60906716671E+03  0.61997019389E+03  0.47000000000E+01 0.  1.
         -5    1    3    3    0  502  0.45566622890E+02  0.50791308653E+00  0.30342416092E+03  0.30686297680E+03  0.47000000000E+01 0.  1.
        -11    1    1    2    0    0 -0.36058128826E+02  0.11810562194E+02  0.15346500924E+03  0.15808601170E+03  0.00000000000E+00 0. -1.
         11    1    1    2    0    0  0.40940317073E+02  0.91763488593E+02  0.32305268509E+03  0.33831890982E+03  0.00000000000E+00 0.  1.
<mgrwt>
<rscale>  0 0.15624471E+03</rscale>
<asrwt>0</asrwt>
<pdfrwt beam="1">  1        2 0.21632661E+00 0.16241707E+03</pdfrwt>
<pdfrwt beam="2">  1       -2 0.26330065E-02 0.16241707E+03</pdfrwt>
<totfact> 0.77623956E+03</totfact>
</mgrwt>
</event>
<event>
 7    1  0.5206756E-006  0.2737608E+03  0.7546771E-02  0.1101124E+00
          2   -1    0    0  501    0  0.00000000000E+00  0.00000000000E+00  0.53894557753E+03  0.53894557753E+03  0.00000000000E+00 0. -1.
         -2   -1    0    0    0  501 -0.00000000000E+00 -0.00000000000E+00 -0.18279564303E+03  0.18279564303E+03  0.00000000000E+00 0.  1.
         23    2    1    2    0    0  0.48219201601E+02  0.23872480125E+03  0.37120306445E+03  0.46123388212E+03  0.12502142545E+03 0.  0.
          5    1    3    3  502    0  0.20348652691E+02  0.98263735518E+02  0.26347120810E+03  0.28197339747E+03  0.47000000000E+01 0. -1.
         -5    1    3    3    0  502  0.27870548910E+02  0.14046106573E+03  0.10773185635E+03  0.17926048464E+03  0.47000000000E+01 0. -1.
        -11    1    1    2    0    0 -0.51080627412E+02 -0.55096622998E+02  0.73703970676E+01  0.75492987195E+02  0.00000000000E+00 0. -1.
         11    1    1    2    0    0  0.28614258115E+01 -0.18362817825E+03 -0.22423527015E+02  0.18501435125E+03  0.00000000000E+00 0.  1.
<mgrwt>
<rscale>  0 0.27027251E+03</rscale>
<asrwt>0</asrwt>
<pdfrwt beam="1">  1        2 0.82914703E-01 0.27376081E+03</pdfrwt>
<pdfrwt beam="2">  1       -2 0.28122407E-01 0.27376081E+03</pdfrwt>
<totfact> 0.66012026E+02</totfact>
</mgrwt>
</event>
<event>
 7    1  0.5206756E-006  0.1477414E+03  0.7546771E-02  0.1212772E+00
         -4   -1    0    0    0  501 -0.00000000000E+00  0.00000000000E+00  0.10322039459E+03  0.10322039459E+03  0.00000000000E+00 0.  1.
          4   -1    0    0  501    0  0.00000000000E+00 -0.00000000000E+00 -0.17980142122E+03  0.17980142122E+03  0.00000000000E+00 0. -1.
         23    2    1    2    0    0 -0.30629371364E+02 -0.72564306855E+02 -0.66618202332E+02  0.16206635926E+03  0.12499513151E+03 0.  0.
          5    1    3    3  502    0  0.38637628020E+02 -0.55645102938E+02 -0.59443560021E+02  0.90248936880E+02  0.47000000000E+01 0.  1.
         -5    1    3    3    0  502 -0.69266999384E+02 -0.16919203918E+02 -0.71746423107E+01  0.71817422379E+02  0.47000000000E+01 0.  1.
        -11    1    1    2    0    0  0.51473242065E+02  0.78959229496E+02  0.51998111339E+01  0.94398583713E+02  0.00000000000E+00 0.  1.
         11    1    1    2    0    0 -0.20843870701E+02 -0.63949226403E+01 -0.15162635441E+02  0.26556872837E+02  0.00000000000E+00 0. -1.
<mgrwt>
<rscale>  0 0.14041498E+03</rscale>
<asrwt>0</asrwt>
<pdfrwt beam="2">  1        4 0.27661757E-01 0.14774140E+03</pdfrwt>
<pdfrwt beam="1">  1       -4 0.15880061E-01 0.14774140E+03</pdfrwt>
<totfact> 0.71121685E+02</totfact>
</mgrwt>
</event>
<event>
 7    1  0.5206756E-006  0.1314825E+03  0.7546771E-02  0.1238176E+00
         -3   -1    0    0    0  501 -0.00000000000E+00  0.00000000000E+00  0.21095793420E+03  0.21095793420E+03  0.00000000000E+00 0.  1.
          3   -1    0    0  501    0  0.00000000000E+00 -0.00000000000E+00 -0.98007049890E+02  0.98007049890E+02  0.00000000000E+00 0. -1.
         23    2    1    2    0    0 -0.32753484505E+02 -0.24300333925E+02 -0.29213386754E+02  0.13468874752E+03  0.12499735904E+03 0.  0.
          5    1    3    3  502    0  0.46350359207E+02  0.33837379355E+01 -0.17750369957E+02  0.49969701967E+02  0.47000000000E+01 0.  1.
         -5    1    3    3    0  502 -0.79103843712E+02 -0.27684071861E+02 -0.11463016797E+02  0.84719045550E+02  0.47000000000E+01 0.  1.
        -11    1    1    2    0    0  0.58557539566E+02  0.39351850599E+02  0.10657126189E+03  0.12780840132E+03  0.00000000000E+00 0.  1.
         11    1    1    2    0    0 -0.25804055061E+02 -0.15051516673E+02  0.35593009175E+02  0.46467835262E+02  0.00000000000E+00 0. -1.
<mgrwt>
<rscale>  0 0.12303275E+03</rscale>
<asrwt>0</asrwt>
<pdfrwt beam="2">  1        3 0.15078008E-01 0.13148246E+03</pdfrwt>
<pdfrwt beam="1">  1       -3 0.32455067E-01 0.13148246E+03</pdfrwt>
<totfact> 0.78366837E+02</totfact>
</mgrwt>
</event>
<event>
 7    1  0.5206756E-006  0.1270476E+03  0.7546771E-02  0.1247849E+00
         -2   -1    0    0    0  501 -0.00000000000E+00  0.00000000000E+00  0.90170678480E+02  0.90170678480E+02  0.00000000000E+00 0.  1.
          2   -1    0    0  501    0  0.00000000000E+00 -0.00000000000E+00 -0.14079332582E+03  0.14079332582E+03  0.00000000000E+00 0. -1.
         23    2    1    2    0    0  0.86488309063E-01  0.22715417011E+02 -0.56153844633E+02  0.13890413516E+03  0.12500042739E+03 0.  0.
          5    1    3    3  502    0  0.47828754509E+02 -0.17095118737E+02 -0.57088098849E+02  0.76556997543E+02  0.47000000000E+01 0. -1.
         -5    1    3    3    0  502 -0.47742266200E+02  0.39810535748E+02  0.93425421616E+00  0.62347137620E+02  0.47000000000E+01 0. -1.
        -11    1    1    2    0    0  0.89737153239E+01  0.24239291029E+02 -0.24481763474E+02  0.35600948571E+02  0.00000000000E+00 0. -1.
         11    1    1    2    0    0 -0.90602036330E+01 -0.46954708040E+02  0.30012960770E+02  0.56458920563E+02  0.00000000000E+00 0.  1.
<mgrwt>
<rscale>  0 0.11716455E+03</rscale>
<asrwt>0</asrwt>
<pdfrwt beam="2">  1        2 0.21660512E-01 0.12704765E+03</pdfrwt>
<pdfrwt beam="1">  1       -2 0.13872412E-01 0.12704765E+03</pdfrwt>
<totfact> 0.92541514E+03</totfact>
</mgrwt>
</event>
<event>
 7    1  0.5206756E-006  0.1280298E+03  0.7546771E-02  0.1244544E+00
         -3   -1    0    0    0  501 -0.00000000000E+00  0.00000000000E+00  0.63846464567E+02  0.63846464567E+02  0.00000000000E+00 0.  1.
          3   -1    0    0  501    0  0.00000000000E+00 -0.00000000000E+00 -0.20759110366E+03  0.20759110366E+03  0.00000000000E+00 0. -1.
         23    2    1    2    0    0 -0.28772367755E+01  0.27465960512E+02 -0.11272952995E+03  0.17058597688E+03  0.12501588341E+03 0.  0.
          5    1    3    3  502    0 -0.42077960212E+01  0.39940398696E+02 -0.13701142753E+03  0.14285363933E+03  0.47000000000E+01 0. -1.
         -5    1    3    3    0  502  0.13305592457E+01 -0.12474438184E+02  0.24281897579E+02  0.27732337549E+02  0.47000000000E+01 0. -1.
        -11    1    1    2    0    0  0.22653035463E+02  0.63810290804E+00  0.25870061600E+02  0.34392256079E+02  0.00000000000E+00 0.  1.
         11    1    1    2    0    0 -0.19775798687E+02 -0.28104063420E+02 -0.56885170746E+02  0.66459335275E+02  0.00000000000E+00 0. -1.
<mgrwt>
<rscale>  0 0.11912707E+03</rscale>
<asrwt>0</asrwt>
<pdfrwt beam="2">  1        3 0.31937092E-01 0.12802980E+03</pdfrwt>
<pdfrwt beam="1">  1       -3 0.98225333E-02 0.12802980E+03</pdfrwt>
<totfact> 0.16502436E+03</totfact>
</mgrwt>
</event>
<event>
 7    1  0.5206756E-006  0.1886356E+03  0.7546771E-02  0.1164703E+00
         -2   -1    0    0    0  501 -0.00000000000E+00  0.00000000000E+00  0.11500764764E+03  0.11500764764E+03  0.00000000000E+00 0.  1.
          2   -1    0    0  501    0  0.00000000000E+00 -0.00000000000E+00 -0.29664997236E+03  0.29664997236E+03  0.00000000000E+00 0. -1.
         23    2    1    2    0    0 -0.14130894305E+03  0.13974318304E+01 -0.14938882972E+03  0.24062507014E+03  0.12495291807E+03 0.  0.
          5    1    3    3  502    0 -0.89830194190E+02  0.40150032410E+02 -0.14575032632E+03  0.17591684545E+03  0.47000000000E+01 0. -1.
         -5    1    3    3    0  502 -0.51478748857E+02 -0.38752600580E+02 -0.36385034011E+01  0.64708224690E+02  0.47000000000E+01 0.  1.
        -11    1    1    2    0    0  0.11090605963E+03 -0.34694984251E+02 -0.44296161042E+02  0.12436255819E+03  0.00000000000E+00 0.  1.
         11    1    1    2    0    0  0.30402883412E+02  0.33297552420E+02  0.12042666042E+02  0.46669991668E+02  0.00000000000E+00 0. -1.
<mgrwt>
<rscale>  0 0.18324061E+03</rscale>
<asrwt>0</asrwt>
<pdfrwt beam="2">  1        2 0.45638456E-01 0.18863563E+03</pdfrwt>
<pdfrwt beam="1">  1       -2 0.17693485E-01 0.18863563E+03</pdfrwt>
<totfact> 0.28215939E+03</totfact>
</mgrwt>
</event>
<event>
 7    1  0.5206756E-006  0.1729033E+03  0.7546771E-02  0.1180992E+00
         -2   -1    0    0    0  501 -0.00000000000E+00  0.00000000000E+00  0.93388366911E+02  0.93388366911E+02  0.00000000000E+00 0.  1.
          2   -1    0    0  501    0  0.00000000000E+00 -0.00000000000E+00 -0.28259615551E+03  0.28259615551E+03  0.00000000000E+00 0. -1.
         23    2    1    2    0    0  0.11621543660E+03  0.27545503845E+02 -0.11884986875E+03  0.20981146983E+03  0.12502311421E+03 0.  0.
          5    1    3    3  502    0  0.11571607867E+03  0.66139133235E+02 -0.84137426089E+02  0.15768890981E+03  0.47000000000E+01 0.  1.
         -5    1    3    3    0  502  0.49935792655E+00 -0.38593629390E+02 -0.34712442656E+02  0.52122560020E+02  0.47000000000E+01 0.  1.
        -11    1    1    2    0    0 -0.86483601957E+02 -0.15358433275E+02 -0.92182200413E+02  0.12732970177E+03  0.00000000000E+00 0. -1.
         11    1    1    2    0    0 -0.29731834643E+02 -0.12187070570E+02  0.21824280564E+02  0.38843350814E+02  0.00000000000E+00 0.  1.
<mgrwt>
<rscale>  0 0.16701973E+03</rscale>
<asrwt>0</asrwt>
<pdfrwt beam="2">  1        2 0.43476331E-01 0.17290333E+03</pdfrwt>
<pdfrwt beam="1">  1       -2 0.14367441E-01 0.17290333E+03</pdfrwt>
<totfact> 0.41796974E+03</totfact>
</mgrwt>
</event>
<event>
 7    1  0.5206756E-006  0.1389312E+03  0.7546771E-02  0.1227011E+00
         -1   -1    0    0    0  501 -0.00000000000E+00  0.00000000000E+00  0.49656853040E+02  0.49656853040E+02  0.00000000000E+00 0.  1.
          1   -1    0    0  501    0  0.00000000000E+00 -0.00000000000E+00 -0.31676085804E+03  0.31676085804E+03  0.00000000000E+00 0. -1.
         23    2    1    2    0    0  0.15875136797E+02 -0.58529450490E+02 -0.18392308937E+03  0.23049852639E+03  0.12499660523E+03 0.  0.
          5    1    3    3  502    0  0.12901473951E+02  0.32973690338E+02 -0.15906389302E+02  0.39100070400E+02  0.47000000000E+01 0.  1.
         -5    1    3    3    0  502  0.29736628460E+01 -0.91503140828E+02 -0.16801670007E+03  0.19139845599E+03  0.47000000000E+01 0.  1.
        -11    1    1    2    0    0 -0.42499806997E+02  0.25607052281E+02 -0.79110227378E+02  0.93382989871E+02  0.00000000000E+00 0. -1.
         11    1    1    2    0    0  0.26624670200E+02  0.32922398209E+02 -0.40706882493E+01  0.42536194822E+02  0.00000000000E+00 0.  1.
<mgrwt>
<rscale>  0 0.13030042E+03</rscale>
<asrwt>0</asrwt>
<pdfrwt beam="2">  1        1 0.48732439E-01 0.13893116E+03</pdfrwt>
<pdfrwt beam="1">  1       -1 0.76395160E-02 0.13893116E+03</pdfrwt>
<totfact> 0.72074935E+03</totfact>
</mgrwt>
</event>
<event>
 7    1  0.5206756E-006  0.1259759E+03  0.7546771E-02  0.1247487E+00
         -2   -1    0    0    0  501 -0.00000000000E+00  0.00000000000E+00  0.73065213754E+01  0.73065213754E+01  0.00000000000E+00 0.  1.
          2   -1    0    0  501    0  0.00000000000E+00 -0.00000000000E+00 -0.22024571674E+04  0.22024571674E+04  0.00000000000E+00 0. -1.
         23    2    1    2    0    0 -0.13909111811E+01 -0.15845306936E+02 -0.17536508079E+04  0.17581698121E+04  0.12496769070E+03 0.  0.
          5    1    3    3  502    0  0.22567497560E+00 -0.50039692558E+02 -0.30549681934E+03  0.30960364725E+03  0.47000000000E+01 0. -1.
         -5    1    3    3    0  502 -0.16165861567E+01  0.34194385622E+02 -0.14481539886E+04  0.14485661649E+04  0.47000000000E+01 0. -1.
        -11    1    1    2    0    0 -0.12305492813E+02 -0.36543074312E+02 -0.13727928981E+03  0.14259181198E+03  0.00000000000E+00 0. -1.
         11    1    1    2    0    0  0.13696403994E+02  0.52388381249E+02 -0.30422054827E+03  0.30900206465E+03  0.00000000000E+00 0.  1.
<mgrwt>
<rscale>  0 0.11737778E+03</rscale>
<asrwt>0</asrwt>
<pdfrwt beam="2">  1        2 0.33883961E+00 0.12597592E+03</pdfrwt>
<pdfrwt beam="1">  1       -2 0.11240801E-02 0.12597592E+03</pdfrwt>
<totfact> 0.10263253E+04</totfact>
</mgrwt>
</event>
<event>
 7    1  0.5206756E-006  0.1318242E+03  0.7546771E-02  0.1235111E+00
         -1   -1    0    0    0  501 -0.00000000000E+00  0.00000000000E+00  0.18169350665E+03  0.18169350665E+03  0.00000000000E+00 0.  1.
          1   -1    0    0  501    0  0.00000000000E+00 -0.00000000000E+00 -0.20272072590E+03  0.20272072590E+03  0.00000000000E+00 0. -1.
         23    2    1    2    0    0  0.53604931178E+02  0.16631905810E+02 -0.16129189747E+03  0.20830914019E+03  0.11927913798E+03 0.  0.
          5    1    3    3  502    0  0.47022077241E+02 -0.24335877725E+02 -0.15767573824E+03  0.16639422803E+03  0.47000000000E+01 0. -1.
         -5    1    3    3    0  502  0.65828539369E+01  0.40967783536E+02 -0.36161592366E+01  0.41914912160E+02  0.47000000000E+01 0.  1.
        -11    1    1    2    0    0 -0.68741594455E+02 -0.33287542180E+02  0.74899653941E+02  0.10697394745E+03  0.00000000000E+00 0.  1.
         11    1    1    2    0    0  0.15136663277E+02  0.16655636370E+02  0.65365024279E+02  0.69131144913E+02  0.00000000000E+00 0. -1.
<mgrwt>
<rscale>  0 0.12497334E+03</rscale>
<asrwt>0</asrwt>
<pdfrwt beam="2">  1        1 0.31187804E-01 0.13182421E+03</pdfrwt>
<pdfrwt beam="1">  1       -1 0.27952847E-01 0.13182421E+03</pdfrwt>
<totfact> 0.16282588E+03</totfact>
</mgrwt>
</event>
<event>
 7    1  0.5206756E-006  0.1232129E+03  0.7546771E-02  0.1242958E+00
         -2   -1    0    0    0  501 -0.00000000000E+00  0.00000000000E+00  0.12796666353E+02  0.12796666353E+02  0.00000000000E+00 0.  1.
          2   -1    0    0  501    0  0.00000000000E+00 -0.00000000000E+00 -0.10941600317E+04  0.10941600317E+04  0.00000000000E+00 0. -1.
         23    2    1    2    0    0  0.40130518148E+02 -0.14742373349E+02 -0.64444423132E+03  0.65611720183E+03  0.11555786082E+03 0.  0.
          5    1    3    3  502    0  0.31498589752E+02  0.47589889375E+02 -0.23726182642E+03  0.24407421618E+03  0.47000000000E+01 0. -1.
         -5    1    3    3    0  502  0.86319283959E+01 -0.62332262724E+02 -0.40718240491E+03  0.41204298566E+03  0.47000000000E+01 0.  1.
        -11    1    1    2    0    0 -0.40840625181E+02 -0.38871989086E+02 -0.19129943053E+03  0.19943535374E+03  0.00000000000E+00 0.  1.
         11    1    1    2    0    0  0.71010703314E+00  0.53614362434E+02 -0.24561970349E+03  0.25140414248E+03  0.00000000000E+00 0. -1.
<mgrwt>
<rscale>  0 0.12008404E+03</rscale>
<asrwt>0</asrwt>
<pdfrwt beam="2">  1        2 0.16833230E+00 0.12321289E+03</pdfrwt>
<pdfrwt beam="1">  1       -2 0.19687180E-02 0.12321289E+03</pdfrwt>
<totfact> 0.17339834E+04</totfact>
</mgrwt>
</event>
<event>
 7    1  0.5206756E-006  0.1399905E+03  0.7546771E-02  0.1223944E+00
         -2   -1    0    0    0  501 -0.00000000000E+00  0.00000000000E+00  0.20345373166E+03  0.20345373166E+03  0.00000000000E+00 0. -1.
          2   -1    0    0  501    0  0.00000000000E+00 -0.00000000000E+00 -0.78504893261E+02  0.78504893261E+02  0.00000000000E+00 0.  1.
         23    2    1    2    0    0  0.30406133626E+02  0.55217181175E+02  0.58401549886E+02  0.15168416860E+03  0.12499550358E+03 0.  0.
          5    1    3    3  502    0  0.30233016220E+02 -0.13025639006E+02  0.74347608270E+02  0.81445438158E+02  0.47000000000E+01 0. -1.
         -5    1    3    3    0  502  0.17311740582E+00  0.68242820181E+02 -0.15946058384E+02  0.70238730440E+02  0.47000000000E+01 0. -1.
        -11    1    1    2    0    0 -0.50298421686E+02 -0.38548194148E+02  0.51057050306E+01  0.63576432112E+02  0.00000000000E+00 0.  1.
         11    1    1    2    0    0  0.19892288060E+02 -0.16668987026E+02  0.61441583484E+02  0.66698024212E+02  0.00000000000E+00 0. -1.
<mgrwt>
<rscale>  0 0.13239564E+03</rscale>
<asrwt>0</asrwt>
<pdfrwt beam="2">  1        2 0.12077676E-01 0.13999052E+03</pdfrwt>
<pdfrwt beam="1">  1       -2 0.31300574E-01 0.13999052E+03</pdfrwt>
<totfact> 0.45804176E+03</totfact>
</mgrwt>
</event>
<event>
 7    1  0.5206756E-006  0.1488929E+03  0.7546771E-02  0.1210920E+00
          2   -1    0    0  501    0  0.00000000000E+00  0.00000000000E+00  0.91623541820E+02  0.91623541820E+02  0.00000000000E+00 0. -1.
         -2   -1    0    0    0  501 -0.00000000000E+00 -0.00000000000E+00 -0.25112056472E+03  0.25112056472E+03  0.00000000000E+00 0.  1.
         23    2    1    2    0    0  0.54567374935E+02 -0.59733032068E+02 -0.96641512074E+01  0.14920620378E+03  0.12499384745E+03 0.  0.
          5    1    3    3  502    0  0.23033092818E+02 -0.84361844699E+02 -0.42395813989E+02  0.97298197566E+02  0.47000000000E+01 0.  1.
         -5    1    3    3    0  502  0.31534282117E+02  0.24628812631E+02  0.32731662782E+02  0.51908006210E+02  0.47000000000E+01 0.  1.
        -11    1    1    2    0    0  0.16495690864E+02  0.16052297336E+02 -0.11392593718E+01  0.23045215963E+02  0.00000000000E+00 0. -1.
         11    1    1    2    0    0 -0.71063065799E+02  0.43680734732E+02 -0.14869361232E+03  0.17049268680E+03  0.00000000000E+00 0.  1.
<mgrwt>
<rscale>  0 0.14180526E+03</rscale>
<asrwt>0</asrwt>
<pdfrwt beam="1">  1        2 0.14095930E-01 0.14889290E+03</pdfrwt>
<pdfrwt beam="2">  1       -2 0.38633932E-01 0.14889290E+03</pdfrwt>
<totfact> 0.25917751E+03</totfact>
</mgrwt>
</event>
<event>
 7    1  0.5206756E-006  0.1279946E+03  0.7546771E-02  0.1244954E+00
         -2   -1    0    0    0  501 -0.00000000000E+00  0.00000000000E+00  0.90494022813E+01  0.90494022813E+01  0.00000000000E+00 0.  1.
          2   -1    0    0  501    0  0.00000000000E+00 -0.00000000000E+00 -0.13876578267E+04  0.13876578267E+04  0.00000000000E+00 0. -1.
         23    2    1    2    0    0  0.11470958910E+02  0.24517903345E+02 -0.85049457201E+03  0.86007187517E+03  0.12509957215E+03 0.  0.
          5    1    3    3  502    0 -0.18797815889E+02  0.65164178516E+02 -0.32002899016E+03  0.32717025015E+03  0.47000000000E+01 0. -1.
         -5    1    3    3    0  502  0.30268774799E+02 -0.40646275172E+02 -0.53046558186E+03  0.53290162502E+03  0.47000000000E+01 0. -1.
        -11    1    1    2    0    0  0.11169783807E+02 -0.55603956942E+02 -0.32554068079E+03  0.33044409353E+03  0.00000000000E+00 0. -1.
         11    1    1    2    0    0 -0.22640742717E+02  0.31086053598E+02 -0.20257317165E+03  0.20619126032E+03  0.00000000000E+00 0.  1.
<mgrwt>
<rscale>  0 0.11888146E+03</rscale>
<asrwt>0</asrwt>
<pdfrwt beam="2">  1        2 0.21348571E+00 0.12799458E+03</pdfrwt>
<pdfrwt beam="1">  1       -2 0.13922165E-02 0.12799458E+03</pdfrwt>
<totfact> 0.19803991E+04</totfact>
</mgrwt>
</event>
<event>
 7    1  0.5206756E-006  0.1333526E+03  0.7546771E-02  0.1235580E+00
         -4   -1    0    0    0  501 -0.00000000000E+00  0.00000000000E+00  0.20472366189E+03  0.20472366189E+03  0.00000000000E+00 0.  1.
          4   -1    0    0  501    0  0.00000000000E+00 -0.00000000000E+00 -0.68967901348E+02  0.68967901348E+02  0.00000000000E+00 0. -1.
         23    2    1    2    0    0 -0.28419528713E+02  0.36720778110E+02  0.57485910898E+02  0.14521550951E+03  0.12500731616E+03 0.  0.
          5    1    3    3  502    0 -0.60067516661E+02  0.56664899209E+02  0.81336282360E+01  0.83109946869E+02  0.47000000000E+01 0. -1.
         -5    1    3    3    0  502  0.31647987948E+02 -0.19944121100E+02  0.49352282661E+02  0.62105562646E+02  0.47000000000E+01 0. -1.
        -11    1    1    2    0    0  0.10787388215E+02 -0.43085311037E+02 -0.35304622734E+01  0.44555313213E+02  0.00000000000E+00 0. -1.
         11    1    1    2    0    0  0.17632140498E+02  0.63645329272E+01  0.81800311921E+02  0.83920740513E+02  0.00000000000E+00 0.  1.
<mgrwt>
<rscale>  0 0.12467385E+03</rscale>
<asrwt>0</asrwt>
<pdfrwt beam="2">  1        4 0.10610446E-01 0.13335259E+03</pdfrwt>
<pdfrwt beam="1">  1       -4 0.31495948E-01 0.13335259E+03</pdfrwt>
<totfact> 0.10929073E+03</totfact>
</mgrwt>
</event>
<event>
 7    1  0.5206756E-006  0.1599839E+03  0.7546771E-02  0.1196480E+00
          2   -1    0    0  501    0  0.00000000000E+00  0.00000000000E+00  0.43712345235E+03  0.43712345235E+03  0.00000000000E+00 0. -1.
         -2   -1    0    0    0  501 -0.00000000000E+00 -0.00000000000E+00 -0.49879756250E+02  0.49879756250E+02  0.00000000000E+00 0.  1.
         23    2    1    2    0    0 -0.73748282372E+02  0.67300662858E+02  0.22378196063E+03  0.27508767500E+03  0.12500669846E+03 0.  0.
          5    1    3    3  502    0 -0.72532602454E+02  0.21589977275E+02  0.40165662026E+02  0.85804871327E+02  0.47000000000E+01 0. -1.
         -5    1    3    3    0  502 -0.12156799173E+01  0.45710685583E+02  0.18361629860E+03  0.18928280367E+03  0.47000000000E+01 0. -1.
        -11    1    1    2    0    0  0.10816267021E+02 -0.27816746878E+02  0.12449748133E+03  0.12802494248E+03  0.00000000000E+00 0.  1.
         11    1    1    2    0    0  0.62932015351E+02 -0.39483915979E+02  0.38964254137E+02  0.83890591115E+02  0.00000000000E+00 0. -1.
<mgrwt>
<rscale>  0 0.15329634E+03</rscale>
<asrwt>0</asrwt>
<pdfrwt beam="1">  1        2 0.67249760E-01 0.15998395E+03</pdfrwt>
<pdfrwt beam="2">  1       -2 0.76738089E-02 0.15998395E+03</pdfrwt>
<totfact> 0.70574887E+03</totfact>
</mgrwt>
</event>
<event>
 7    1  0.5206756E-006  0.1312265E+03  0.7546771E-02  0.1239175E+00
         -3   -1    0    0    0  501 -0.00000000000E+00  0.00000000000E+00  0.19518583438E+03  0.19518583438E+03  0.00000000000E+00 0.  1.
          3   -1    0    0  501    0  0.00000000000E+00 -0.00000000000E+00 -0.68460135613E+02  0.68460135613E+02  0.00000000000E+00 0. -1.
         23    2    1    2    0    0  0.27896913561E+02 -0.28584728806E+02  0.62592499341E+02  0.14538987378E+03  0.12500027967E+03 0.  0.
          5    1    3    3  502    0 -0.10108327733E+02  0.79070419921E+01  0.86333843458E+02  0.87408936207E+02  0.47000000000E+01 0. -1.
         -5    1    3    3    0  502  0.38005241294E+02 -0.36491770798E+02 -0.23741344117E+02  0.57980937577E+02  0.47000000000E+01 0. -1.
        -11    1    1    2    0    0 -0.53242068388E+00  0.54178753858E+02  0.59548065354E+02  0.80508340741E+02  0.00000000000E+00 0.  1.
         11    1    1    2    0    0 -0.27364492877E+02 -0.25594025052E+02  0.45851340772E+01  0.37747755474E+02  0.00000000000E+00 0. -1.
<mgrwt>
<rscale>  0 0.12240910E+03</rscale>
<asrwt>0</asrwt>
<pdfrwt beam="2">  1        3 0.10532329E-01 0.13122650E+03</pdfrwt>
<pdfrwt beam="1">  1       -3 0.30028590E-01 0.13122650E+03</pdfrwt>
<totfact> 0.16554294E+03</totfact>
</mgrwt>
</event>
<event>
 7    1  0.5206756E-006  0.1688448E+03  0.7546771E-02  0.1185784E+00
         -2   -1    0    0    0  501 -0.00000000000E+00  0.00000000000E+00  0.76623433443E+02  0.76623433443E+02  0.00000000000E+00 0.  1.
          2   -1    0    0  501    0  0.00000000000E+00 -0.00000000000E+00 -0.32292381253E+03  0.32292381253E+03  0.00000000000E+00 0. -1.
         23    2    1    2    0    0 -0.94821419541E+02 -0.62446285836E+02 -0.14373307817E+03  0.22173806458E+03  0.12497172202E+03 0.  0.
          5    1    3    3  502    0 -0.12316895998E+03 -0.64681141532E+02 -0.12689953509E+03  0.18836088973E+03  0.47000000000E+01 0. -1.
         -5    1    3    3    0  502  0.28347540436E+02  0.22348556965E+01 -0.16833543074E+02  0.33377174853E+02  0.47000000000E+01 0. -1.
        -11    1    1    2    0    0  0.83781799658E+02  0.21743666457E+01 -0.55108001295E+02  0.10030458430E+03  0.00000000000E+00 0.  1.
         11    1    1    2    0    0  0.11039619882E+02  0.60271919190E+02 -0.47459299621E+02  0.77504597093E+02  0.00000000000E+00 0. -1.
<mgrwt>
<rscale>  0 0.16260764E+03</rscale>
<asrwt>0</asrwt>
<pdfrwt beam="2">  1        2 0.49680586E-01 0.16884481E+03</pdfrwt>
<pdfrwt beam="1">  1       -2 0.11788221E-01 0.16884481E+03</pdfrwt>
<totfact> 0.49872749E+03</totfact>
</mgrwt>
</event>
<event>
 7    1  0.5206756E-006  0.2193510E+03  0.7546771E-02  0.1137728E+00
          1   -1    0    0  501    0  0.00000000000E+00  0.00000000000E+00  0.60357105410E+03  0.60357105410E+03  0.00000000000E+00 0. -1.
         -1   -1    0    0    0  501 -0.00000000000E+00 -0.00000000000E+00 -0.73595794888E+02  0.73595794888E+02  0.00000000000E+00 0.  1.
         23    2    1    2    0    0 -0.12342746521E+03 -0.13135403680E+03  0.27322087173E+03  0.35037768309E+03  0.12500661546E+03 0.  0.
          5    1    3    3  502    0 -0.60517694369E+02 -0.13297190092E+03  0.23454031805E+03  0.27636057707E+03  0.47000000000E+01 0.  1.
         -5    1    3    3    0  502 -0.62909770839E+02  0.16178641158E+01  0.38680553677E+02  0.74017106023E+02  0.47000000000E+01 0.  1.
        -11    1    1    2    0    0  0.59727009954E+02  0.88207818357E+01  0.51259028607E+02  0.79199810126E+02  0.00000000000E+00 0.  1.
         11    1    1    2    0    0  0.63700455253E+02  0.12253325496E+03  0.20549535888E+03  0.24758935577E+03  0.00000000000E+00 0. -1.
<mgrwt>
<rscale>  0 0.21492065E+03</rscale>
<asrwt>0</asrwt>
<pdfrwt beam="1">  1        1 0.92857082E-01 0.21935103E+03</pdfrwt>
<pdfrwt beam="2">  1       -1 0.11322430E-01 0.21935103E+03</pdfrwt>
<totfact> 0.17441772E+03</totfact>
</mgrwt>
</event>
<event>
 7    1  0.5206756E-006  0.1361477E+03  0.7546771E-02  0.1231123E+00
          2   -1    0    0  501    0  0.00000000000E+00  0.00000000000E+00  0.66490927382E+02  0.66490927382E+02  0.00000000000E+00 0.  1.
         -2   -1    0    0    0  501 -0.00000000000E+00 -0.00000000000E+00 -0.23297095256E+03  0.23297095256E+03  0.00000000000E+00 0. -1.
         23    2    1    2    0    0 -0.53680222508E+02 -0.54036393545E+01 -0.56314737223E+02  0.14733480850E+03  0.12500172223E+03 0.  0.
          5    1    3    3  502    0 -0.72455602101E+02  0.39506578363E+02 -0.16539861847E+02  0.84298523354E+02  0.47000000000E+01 0. -1.
         -5    1    3    3    0  502  0.18775379593E+02 -0.44910217718E+02 -0.39774875375E+02  0.63036285149E+02  0.47000000000E+01 0. -1.
        -11    1    1    2    0    0  0.24980165007E+02  0.34857765546E+02 -0.10268735291E+02  0.44096704947E+02  0.00000000000E+00 0. -1.
         11    1    1    2    0    0  0.28700057501E+02 -0.29454126192E+02 -0.99896552669E+02  0.10803036650E+03  0.00000000000E+00 0.  1.
<mgrwt>
<rscale>  0 0.12755946E+03</rscale>
<asrwt>0</asrwt>
<pdfrwt beam="1">  1        2 0.10229374E-01 0.13614770E+03</pdfrwt>
<pdfrwt beam="2">  1       -2 0.35841685E-01 0.13614770E+03</pdfrwt>
<totfact> 0.43629808E+03</totfact>
</mgrwt>
</event>
<event>
 7    1  0.5206756E-006  0.1303027E+03  0.7546771E-02  0.1241232E+00
         -2   -1    0    0    0  501 -0.00000000000E+00  0.00000000000E+00  0.32400034155E+02  0.32400034155E+02  0.00000000000E+00 0.  1.
          2   -1    0    0  501    0  0.00000000000E+00 -0.00000000000E+00 -0.51629327997E+03  0.51629327997E+03  0.00000000000E+00 0. -1.
         23    2    1    2    0    0  0.69426177759E+01  0.36178872530E+02 -0.39832387534E+03  0.41909510511E+03  0.12498674611E+03 0.  0.
          5    1    3    3  502    0  0.55922932732E+02  0.30062349687E+02 -0.11483186172E+03  0.13129952681E+03  0.47000000000E+01 0. -1.
         -5    1    3    3    0  502 -0.48980314956E+02  0.61165228433E+01 -0.28349201362E+03  0.28779557830E+03  0.47000000000E+01 0. -1.
        -11    1    1    2    0    0 -0.37071864358E+02 -0.12891723623E+02 -0.38446778769E+01  0.39437307375E+02  0.00000000000E+00 0.  1.
         11    1    1    2    0    0  0.30129246582E+02 -0.23287148906E+02 -0.81724692597E+02  0.90160901637E+02  0.00000000000E+00 0. -1.
<mgrwt>
<rscale>  0 0.12113771E+03</rscale>
<asrwt>0</asrwt>
<pdfrwt beam="2">  1        2 0.79429742E-01 0.13030271E+03</pdfrwt>
<pdfrwt beam="1">  1       -2 0.49846202E-02 0.13030271E+03</pdfrwt>
<totfact> 0.11194540E+04</totfact>
</mgrwt>
</event>
<event>
 7    1  0.5206756E-006  0.1269238E+03  0.7546771E-02  0.1260993E+00
         -2   -1    0    0    0  501 -0.00000000000E+00  0.00000000000E+00  0.14842690351E+02  0.14842690351E+02  0.00000000000E+00 0.  1.
          2   -1    0    0  501    0  0.00000000000E+00 -0.00000000000E+00 -0.66056197344E+03  0.66056197344E+03  0.00000000000E+00 0. -1.
         23    2    1    2    0    0  0.14365441810E+02 -0.16715511051E+02 -0.42419260795E+03  0.44277422203E+03  0.12499547523E+03 0.  0.
          5    1    3    3  502    0 -0.54091229638E+02 -0.35547769737E+01 -0.23142199773E+03  0.23773247274E+03  0.47000000000E+01 0. -1.
         -5    1    3    3    0  502  0.68456671448E+02 -0.13160734077E+02 -0.19277061022E+03  0.20504174929E+03  0.47000000000E+01 0. -1.
        -11    1    1    2    0    0 -0.80433529630E+01  0.39960543760E+02 -0.88445446387E+02  0.97386536909E+02  0.00000000000E+00 0. -1.
         11    1    1    2    0    0 -0.63220888467E+01 -0.23245032709E+02 -0.13308122875E+03  0.13524390485E+03  0.00000000000E+00 0.  1.
<mgrwt>
<rscale>  0 0.10977205E+03</rscale>
<asrwt>0</asrwt>
<pdfrwt beam="2">  1        2 0.10162491E+00 0.12692377E+03</pdfrwt>
<pdfrwt beam="1">  1       -2 0.22834909E-02 0.12692377E+03</pdfrwt>
<totfact> 0.26743212E+04</totfact>
</mgrwt>
</event>
<event>
 7    1  0.5206756E-006  0.1442800E+03  0.7546771E-02  0.1219243E+00
         -2   -1    0    0    0  501 -0.00000000000E+00  0.00000000000E+00  0.16572927195E+02  0.16572927195E+02  0.00000000000E+00 0.  1.
          2   -1    0    0  501    0  0.00000000000E+00 -0.00000000000E+00 -0.15064040451E+04  0.15064040451E+04  0.00000000000E+00 0. -1.
         23    2    1    2    0    0  0.60682866972E+02 -0.38849125781E+02 -0.12455163880E+04  0.12538452068E+04  0.12500025887E+03 0.  0.
          5    1    3    3  502    0  0.81132492996E+02 -0.21425439717E+02 -0.11784780302E+04  0.11814711544E+04  0.47000000000E+01 0.  1.
         -5    1    3    3    0  502 -0.20449626024E+02 -0.17423686065E+02 -0.67038357820E+02  0.72374052393E+02  0.47000000000E+01 0.  1.
        -11    1    1    2    0    0 -0.48417249733E+02 -0.16894869019E+02 -0.15379832475E+03  0.16212214952E+03  0.00000000000E+00 0. -1.
         11    1    1    2    0    0 -0.12265617239E+02  0.55743994800E+02 -0.90516405082E+02  0.10700961598E+03  0.00000000000E+00 0.  1.
<mgrwt>
<rscale>  0 0.13569390E+03</rscale>
<asrwt>0</asrwt>
<pdfrwt beam="2">  1        2 0.23175452E+00 0.14428004E+03</pdfrwt>
<pdfrwt beam="1">  1       -2 0.25496805E-02 0.14428004E+03</pdfrwt>
<totfact> 0.71766585E+03</totfact>
</mgrwt>
</event>
<event>
 7    1  0.5206756E-006  0.2165834E+03  0.7546771E-02  0.1139978E+00
          2   -1    0    0  501    0  0.00000000000E+00  0.00000000000E+00  0.11127284892E+04  0.11127284892E+04  0.00000000000E+00 0. -1.
         -2   -1    0    0    0  501 -0.00000000000E+00 -0.00000000000E+00 -0.41751503083E+02  0.41751503083E+02  0.00000000000E+00 0.  1.
         23    2    1    2    0    0  0.15613377041E+03  0.83065569344E+02  0.71047781019E+03  0.74275641219E+03  0.12502290188E+03 0.  0.
          5    1    3    3  502    0  0.84583244459E+02  0.11076492699E+03  0.44006324756E+03  0.46162858030E+03  0.47000000000E+01 0.  1.
         -5    1    3    3    0  502  0.71550525949E+02 -0.27699357649E+02  0.27041456263E+03  0.28112783188E+03  0.47000000000E+01 0.  1.
        -11    1    1    2    0    0  0.76184583133E+01 -0.85412456024E+01  0.63174489766E+02  0.64202881094E+02  0.00000000000E+00 0. -1.
         11    1    1    2    0    0 -0.16375222872E+03 -0.74524323742E+02  0.29732468619E+03  0.34752069903E+03  0.00000000000E+00 0.  1.
<mgrwt>
<rscale>  0 0.21201731E+03</rscale>
<asrwt>0</asrwt>
<pdfrwt beam="1">  1        2 0.17118898E+00 0.21658340E+03</pdfrwt>
<pdfrwt beam="2">  1       -2 0.64233090E-02 0.21658340E+03</pdfrwt>
<totfact> 0.29784932E+03</totfact>
</mgrwt>
</event>
<event>
 7    1  0.8377387E-006  0.2183626E+03  0.7546771E-02  0.1138503E+00
          2   -1    0    0  501    0  0.00000000000E+00  0.00000000000E+00  0.16102798000E+04  0.16102798000E+04  0.00000000000E+00 0. -1.
         -2   -1    0    0    0  501 -0.00000000000E+00 -0.00000000000E+00 -0.29081283705E+02  0.29081283705E+02  0.00000000000E+00 0.  1.
         23    2    1    2    0    0 -0.11144256391E+03  0.14013486130E+03  0.10228593279E+04  0.10459079487E+04  0.12500003245E+03 0.  0.
          5    1    3    3  502    0 -0.83829209183E+02  0.14454454228E+03  0.98228876221E+03  0.99641043922E+03  0.47000000000E+01 0.  1.
         -5    1    3    3    0  502 -0.27613354723E+02 -0.44096809836E+01  0.40570565642E+02  0.49497509452E+02  0.47000000000E+01 0.  1.
        -11    1    1    2    0    0  0.36724780544E+02 -0.10322113272E+03  0.39727543516E+03  0.41210566985E+03  0.00000000000E+00 0. -1.
         11    1    1    2    0    0  0.74717783361E+02 -0.36913728577E+02  0.16106375333E+03  0.18134746523E+03  0.00000000000E+00 0.  1.
<mgrwt>
<rscale>  0 0.21391461E+03</rscale>
<asrwt>0</asrwt>
<pdfrwt beam="1">  1        2 0.24773528E+00 0.21836262E+03</pdfrwt>
<pdfrwt beam="2">  1       -2 0.44740449E-02 0.21836262E+03</pdfrwt>
<totfact> 0.27635301E+03</totfact>
</mgrwt>
</event>
<event>
 7    1  0.5206756E-006  0.1942198E+03  0.7546771E-02  0.1159538E+00
          1   -1    0    0  501    0  0.00000000000E+00  0.00000000000E+00  0.34967946593E+03  0.34967946593E+03  0.00000000000E+00 0. -1.
         -1   -1    0    0    0  501 -0.00000000000E+00 -0.00000000000E+00 -0.10487364659E+03  0.10487364659E+03  0.00000000000E+00 0.  1.
         23    2    1    2    0    0  0.11522540666E+03 -0.93900168448E+02  0.19228758624E+03  0.27330537738E+03  0.12500870973E+03 0.  0.
          5    1    3    3  502    0  0.47165585679E+02 -0.31472427026E+02  0.16846293456E+03  0.17781157571E+03  0.47000000000E+01 0. -1.
         -5    1    3    3    0  502  0.68059820977E+02 -0.62427741423E+02  0.23824651684E+02  0.95493801675E+02  0.47000000000E+01 0. -1.
        -11    1    1    2    0    0 -0.46121694207E+02  0.85958749186E+02  0.63401792438E+01  0.97756407007E+02  0.00000000000E+00 0.  1.
         11    1    1    2    0    0 -0.69103712449E+02  0.79414192627E+01  0.46178053856E+02  0.83491328125E+02  0.00000000000E+00 0. -1.
<mgrwt>
<rscale>  0 0.18881108E+03</rscale>
<asrwt>0</asrwt>
<pdfrwt beam="1">  1        1 0.53796840E-01 0.19421976E+03</pdfrwt>
<pdfrwt beam="2">  1       -1 0.16134407E-01 0.19421976E+03</pdfrwt>
<totfact> 0.20383264E+03</totfact>
</mgrwt>
</event>
<event>
 7    1  0.5206756E-006  0.1289160E+03  0.7546771E-02  0.1242952E+00
          1   -1    0    0  501    0  0.00000000000E+00  0.00000000000E+00  0.56574230138E+02  0.56574230138E+02  0.00000000000E+00 0.  1.
         -1   -1    0    0    0  501 -0.00000000000E+00 -0.00000000000E+00 -0.22614694903E+03  0.22614694903E+03  0.00000000000E+00 0. -1.
         23    2    1    2    0    0  0.13548980314E+02  0.28471548970E+02 -0.10313656323E+03  0.16509541015E+03  0.12500055923E+03 0.  0.
          5    1    3    3  502    0 -0.23559923258E+02  0.11639869916E+02 -0.11836790150E+03  0.12134086971E+03  0.47000000000E+01 0.  1.
         -5    1    3    3    0  502  0.37108903572E+02  0.16831679054E+02  0.15231338267E+02  0.43754540444E+02  0.47000000000E+01 0.  1.
        -11    1    1    2    0    0  0.34945003863E+01 -0.55082210606E+02 -0.65980890033E+02  0.86021737414E+02  0.00000000000E+00 0. -1.
         11    1    1    2    0    0 -0.17043480701E+02  0.26610661636E+02 -0.45526563119E+00  0.31604031608E+02  0.00000000000E+00 0.  1.
<mgrwt>
<rscale>  0 0.12008767E+03</rscale>
<asrwt>0</asrwt>
<pdfrwt beam="1">  1        1 0.87037278E-02 0.12891603E+03</pdfrwt>
<pdfrwt beam="2">  1       -1 0.34791838E-01 0.12891603E+03</pdfrwt>
<totfact> 0.58008331E+03</totfact>
</mgrwt>
</event>
<event>
 7    1  0.5206756E-006  0.1304167E+03  0.7546771E-02  0.1240914E+00
         -1   -1    0    0    0  501 -0.00000000000E+00  0.00000000000E+00  0.13086790240E+03  0.13086790240E+03  0.00000000000E+00 0.  1.
          1   -1    0    0  501    0  0.00000000000E+00 -0.00000000000E+00 -0.13013656641E+03  0.13013656641E+03  0.00000000000E+00 0. -1.
         23    2    1    2    0    0  0.10538585807E+02  0.35682480886E+02 -0.62505072852E+02  0.14462158927E+03  0.12499687483E+03 0.  0.
          5    1    3    3  502    0  0.56602237628E+02  0.52192196148E+02 -0.20126980730E+02  0.79718404378E+02  0.47000000000E+01 0. -1.
         -5    1    3    3    0  502 -0.46063651820E+02 -0.16509715262E+02 -0.42378092122E+02  0.64903184891E+02  0.47000000000E+01 0. -1.
        -11    1    1    2    0    0  0.33095250489E+02 -0.39143479665E+02  0.47456831595E+02  0.69854552251E+02  0.00000000000E+00 0. -1.
         11    1    1    2    0    0 -0.43633836297E+02  0.34609987787E+01  0.15779577242E+02  0.46528327291E+02  0.00000000000E+00 0.  1.
<mgrwt>
<rscale>  0 0.12133284E+03</rscale>
<asrwt>0</asrwt>
<pdfrwt beam="2">  1        1 0.20021010E-01 0.13041672E+03</pdfrwt>
<pdfrwt beam="1">  1       -1 0.20133524E-01 0.13041672E+03</pdfrwt>
<totfact> 0.48481424E+03</totfact>
</mgrwt>
</event>
<event>
 7    1  0.5206756E-006  0.1791105E+03  0.7546771E-02  0.1172834E+00
         -2   -1    0    0    0  501 -0.00000000000E+00  0.00000000000E+00  0.41418816701E+02  0.41418816701E+02  0.00000000000E+00 0. -1.
          2   -1    0    0  501    0  0.00000000000E+00 -0.00000000000E+00 -0.80351933430E+03  0.80351933430E+03  0.00000000000E+00 0.  1.
         23    2    1    2    0    0 -0.12604277722E+03  0.23865601666E+02 -0.54414363688E+03  0.57286374589E+03  0.12499690063E+03 0.  0.
          5    1    3    3  502    0  0.16976880260E+02  0.61586379205E+01 -0.13640461826E+02  0.23114832537E+02  0.47000000000E+01 0. -1.
         -5    1    3    3    0  502 -0.14301965748E+03  0.17706963746E+02 -0.53050317505E+03  0.54974891335E+03  0.47000000000E+01 0. -1.
        -11    1    1    2    0    0  0.93380306408E+02 -0.58318683362E+02 -0.18123673708E+03  0.21205590141E+03  0.00000000000E+00 0.  1.
         11    1    1    2    0    0  0.32662470813E+02  0.34453081696E+02 -0.36720143636E+02  0.60018503702E+02  0.00000000000E+00 0. -1.
<mgrwt>
<rscale>  0 0.17489847E+03</rscale>
<asrwt>0</asrwt>
<pdfrwt beam="2">  1        2 0.12361836E+00 0.17911051E+03</pdfrwt>
<pdfrwt beam="1">  1       -2 0.63721255E-02 0.17911051E+03</pdfrwt>
<totfact> 0.46786989E+03</totfact>
</mgrwt>
</event>
<event>
 6    1  0.5206756E-006  0.1615504E+03  0.7546771E-02  0.1238448E+00
         -1   -1    0    0    0  501 -0.00000000000E+00  0.00000000000E+00  0.28604877652E+02  0.28604877652E+02  0.00000000000E+00 0.  1.
          1   -1    0    0  501    0  0.00000000000E+00 -0.00000000000E+00 -0.40694053928E+03  0.40694053928E+03  0.00000000000E+00 0. -1.
          5    1    1    2  502    0  0.40813562854E+01 -0.82249458857E+02 -0.12048213706E+03  0.14601255529E+03  0.47000000000E+01 0. -1.
         -5    1    1    2    0  502  0.17786696201E+02  0.74063104015E+02 -0.17070658799E+03  0.18698807214E+03  0.47000000000E+01 0.  1.
        -11    1    1    2    0    0 -0.25079493314E+02 -0.86546842084E+01 -0.79429773842E+02  0.83743498352E+02  0.00000000000E+00 0. -1.
         11    1    1    2    0    0  0.32114408275E+01  0.16841039051E+02 -0.77171627414E+01  0.18801291160E+02  0.00000000000E+00 0.  1.
<mgrwt>
<rscale>  0 0.12286259E+03</rscale>
<asrwt>0</asrwt>
<pdfrwt beam="2">  1        1 0.62606230E-01 0.16155044E+03</pdfrwt>
<pdfrwt beam="1">  1       -1 0.44007509E-02 0.16155044E+03</pdfrwt>
<totfact> 0.12112574E+04</totfact>
</mgrwt>
</event>
<event>
 7    1  0.5206756E-006  0.1807956E+03  0.7546771E-02  0.1172620E+00
         -2   -1    0    0    0  501 -0.00000000000E+00  0.00000000000E+00  0.38767624150E+02  0.38767624150E+02  0.00000000000E+00 0.  1.
          2   -1    0    0  501    0  0.00000000000E+00 -0.00000000000E+00 -0.84673943374E+03  0.84673943374E+03  0.00000000000E+00 0. -1.
         23    2    1    2    0    0 -0.10644419412E+03  0.75722923758E+02 -0.57982520601E+03  0.60735846456E+03  0.12499082888E+03 0.  0.
          5    1    3    3  502    0 -0.11844224812E+03  0.58907439401E+02 -0.56774567329E+03  0.58297160488E+03  0.47000000000E+01 0. -1.
         -5    1    3    3    0  502  0.11998054007E+02  0.16815484357E+02 -0.12079532713E+02  0.24386859673E+02  0.47000000000E+01 0. -1.
        -11    1    1    2    0    0  0.66737119615E+02 -0.45691578202E+02 -0.21020725775E+03  0.22523022591E+03  0.00000000000E+00 0. -1.
         11    1    1    2    0    0  0.39707074500E+02 -0.30031345557E+02 -0.17939345827E+02  0.52918367417E+02  0.00000000000E+00 0.  1.
<mgrwt>
<rscale>  0 0.17511152E+03</rscale>
<asrwt>0</asrwt>
<pdfrwt beam="2">  1        2 0.13026761E+00 0.18079556E+03</pdfrwt>
<pdfrwt beam="1">  1       -2 0.59642498E-02 0.18079556E+03</pdfrwt>
<totfact> 0.48441248E+03</totfact>
</mgrwt>
</event>
<event>
 7    1  0.5206756E-006  0.1487578E+03  0.7546771E-02  0.1211153E+00
          3   -1    0    0  501    0  0.00000000000E+00  0.00000000000E+00  0.18835399758E+03  0.18835399758E+03  0.00000000000E+00 0. -1.
         -3   -1    0    0    0  501 -0.00000000000E+00 -0.00000000000E+00 -0.98902259153E+02  0.98902259153E+02  0.00000000000E+00 0.  1.
         23    2    1    2    0    0  0.78723484265E+02 -0.17494510288E+02  0.66259513127E+02  0.16284714893E+03  0.12500170387E+03 0.  0.
          5    1    3    3  502    0  0.45523416878E+02  0.15728375076E+02 -0.29083147538E+02  0.56459567281E+02  0.47000000000E+01 0.  1.
         -5    1    3    3    0  502  0.33200067387E+02 -0.33222885365E+02  0.95342660664E+02  0.10638758165E+03  0.47000000000E+01 0.  1.
        -11    1    1    2    0    0 -0.80456045623E+02  0.30622810730E+02 -0.11896428694E+02  0.86904872303E+02  0.00000000000E+00 0.  1.
         11    1    1    2    0    0  0.17325613573E+01 -0.13128300442E+02  0.35088653999E+02  0.37504235505E+02  0.00000000000E+00 0. -1.
<mgrwt>
<rscale>  0 0.14162914E+03</rscale>
<asrwt>0</asrwt>
<pdfrwt beam="1">  1        3 0.28977538E-01 0.14875776E+03</pdfrwt>
<pdfrwt beam="2">  1       -3 0.15215732E-01 0.14875776E+03</pdfrwt>
<totfact> 0.97031878E+02</totfact>
</mgrwt>
</event>
<event>
 7    1  0.5206756E-006  0.2105059E+03  0.7546771E-02  0.1144812E+00
         -2   -1    0    0    0  501 -0.00000000000E+00  0.00000000000E+00  0.11039752542E+03  0.11039752542E+03  0.00000000000E+00 0.  1.
          2   -1    0    0  501    0  0.00000000000E+00 -0.00000000000E+00 -0.37764056684E+03  0.37764056684E+03  0.00000000000E+00 0. -1.
         23    2    1    2    0    0 -0.16362668685E+03  0.43818640407E+02 -0.17729878207E+03  0.27522282796E+03  0.12497592173E+03 0.  0.
          5    1    3    3  502    0 -0.79573175123E+02  0.49760762294E+02 -0.19055288565E+02  0.95881268690E+02  0.47000000000E+01 0.  1.
         -5    1    3    3    0  502 -0.84053511724E+02 -0.59421218874E+01 -0.15824349350E+03  0.17934155927E+03  0.47000000000E+01 0.  1.
        -11    1    1    2    0    0  0.34155835379E+02  0.21521631892E+02  0.31321227093E+01  0.40492121732E+02  0.00000000000E+00 0.  1.
         11    1    1    2    0    0  0.12947085147E+03 -0.65340272299E+02 -0.93076382061E+02  0.17232314256E+03  0.00000000000E+00 0. -1.
<mgrwt>
<rscale>  0 0.20595230E+03</rscale>
<asrwt>0</asrwt>
<pdfrwt beam="2">  1        2 0.58098549E-01 0.21050593E+03</pdfrwt>
<pdfrwt beam="1">  1       -2 0.16984235E-01 0.21050593E+03</pdfrwt>
<totfact> 0.23397239E+03</totfact>
</mgrwt>
</event>
<event>
 7    1  0.5206756E-006  0.1527258E+03  0.7546771E-02  0.1205994E+00
         -1   -1    0    0    0  501 -0.00000000000E+00  0.00000000000E+00  0.16346893667E+03  0.16346893667E+03  0.00000000000E+00 0.  1.
          1   -1    0    0  501    0  0.00000000000E+00 -0.00000000000E+00 -0.14081564069E+03  0.14081564069E+03  0.00000000000E+00 0. -1.
         23    2    1    2    0    0 -0.65677598522E+02 -0.58193058995E+02 -0.47514982235E+02  0.15994637035E+03  0.12500075516E+03 0.  0.
          5    1    3    3  502    0 -0.71261820029E+02 -0.39525233212E+02  0.24477406240E+02  0.85215752479E+02  0.47000000000E+01 0. -1.
         -5    1    3    3    0  502  0.55842215071E+01 -0.18667825783E+02 -0.71992388476E+02  0.74730617874E+02  0.47000000000E+01 0. -1.
        -11    1    1    2    0    0  0.63459003458E+02  0.67722538037E+01  0.90859950357E+01  0.64462887364E+02  0.00000000000E+00 0. -1.
         11    1    1    2    0    0  0.22185950638E+01  0.51420805191E+02  0.61082283179E+02  0.79875319649E+02  0.00000000000E+00 0.  1.
<mgrwt>
<rscale>  0 0.14559378E+03</rscale>
<asrwt>0</asrwt>
<pdfrwt beam="2">  1        1 0.21663945E-01 0.15272579E+03</pdfrwt>
<pdfrwt beam="1">  1       -1 0.25149067E-01 0.15272579E+03</pdfrwt>
<totfact> 0.30814351E+03</totfact>
</mgrwt>
</event>
<event>
 7    1  0.5206756E-006  0.1291551E+03  0.7546771E-02  0.1243205E+00
          1   -1    0    0  501    0  0.00000000000E+00  0.00000000000E+00  0.19841148238E+03  0.19841148238E+03  0.00000000000E+00 0. -1.
         -1   -1    0    0    0  501 -0.00000000000E+00 -0.00000000000E+00 -0.66797066934E+02  0.66797066934E+02  0.00000000000E+00 0.  1.
         23    2    1    2    0    0 -0.31707837364E+02  0.71361336612E+01  0.10240465568E+03  0.16482645632E+03  0.12499894337E+03 0.  0.
          5    1    3    3  502    0 -0.44829508844E+02 -0.31588967154E+02  0.63088933138E+00  0.55045760330E+02  0.47000000000E+01 0. -1.
         -5    1    3    3    0  502  0.13121671479E+02  0.38725100815E+02  0.10177376635E+03  0.10978069599E+03  0.47000000000E+01 0. -1.
        -11    1    1    2    0    0  0.44676909041E+02 -0.34263634360E+02  0.39304134126E+02  0.68664676511E+02  0.00000000000E+00 0.  1.
         11    1    1    2    0    0 -0.12969071676E+02  0.27127500698E+02 -0.10094374363E+02  0.31717416478E+02  0.00000000000E+00 0. -1.
<mgrwt>
<rscale>  0 0.11993470E+03</rscale>
<asrwt>0</asrwt>
<pdfrwt beam="1">  1        1 0.30524843E-01 0.12915513E+03</pdfrwt>
<pdfrwt beam="2">  1       -1 0.10276472E-01 0.12915513E+03</pdfrwt>
<totfact> 0.81613530E+03</totfact>
</mgrwt>
</event>
<event>
 6    1  0.5206756E-006  0.2180148E+03  0.7546771E-02  0.1159915E+00
          1   -1    0    0  501    0  0.00000000000E+00  0.00000000000E+00  0.28877232873E+03  0.28877232873E+03  0.00000000000E+00 0. -1.
         -1   -1    0    0    0  501 -0.00000000000E+00 -0.00000000000E+00 -0.29827072972E+03  0.29827072972E+03  0.00000000000E+00 0.  1.
          5    1    1    2  502    0 -0.56885578399E+02  0.43074822588E+02  0.13273001146E+03  0.15076722228E+03  0.47000000000E+01 0. -1.
         -5    1    1    2    0  502  0.54814048755E+02 -0.12312130498E+03  0.98225691954E+02  0.16683468537E+03  0.47000000000E+01 0.  1.
        -11    1    1    2    0    0 -0.25347389916E+01  0.47578094923E+02 -0.23020419540E+03  0.23508311637E+03  0.00000000000E+00 0.  1.
         11    1    1    2    0    0  0.46062686362E+01  0.32468387472E+02 -0.10249909000E+02  0.34358034436E+02  0.00000000000E+00 0. -1.
<mgrwt>
<rscale>  0 0.18839746E+03</rscale>
<asrwt>0</asrwt>
<pdfrwt beam="1">  1        1 0.44426512E-01 0.21801476E+03</pdfrwt>
<pdfrwt beam="2">  1       -1 0.45887804E-01 0.21801476E+03</pdfrwt>
<totfact> 0.44600038E+02</totfact>
</mgrwt>
</event>
<event>
 7    1  0.5206756E-006  0.1291405E+03  0.7546771E-02  0.1240719E+00
         -2   -1    0    0    0  501 -0.00000000000E+00  0.00000000000E+00  0.10342197174E+03  0.10342197174E+03  0.00000000000E+00 0.  1.
          2   -1    0    0  501    0  0.00000000000E+00 -0.00000000000E+00 -0.13538652823E+03  0.13538652823E+03  0.00000000000E+00 0. -1.
         23    2    1    2    0    0  0.28589583133E+02  0.15288846913E+02 -0.45401308168E+02  0.13688881966E+03  0.12500462816E+03 0.  0.
          5    1    3    3  502    0  0.31243917174E+02 -0.50376798287E+02 -0.38040985828E+02  0.70591860500E+02  0.47000000000E+01 0. -1.
         -5    1    3    3    0  502 -0.26543340407E+01  0.65665645200E+02 -0.73603223401E+01  0.66296959159E+02  0.47000000000E+01 0. -1.
        -11    1    1    2    0    0  0.26314845657E+02 -0.13106687776E+01  0.32776959574E+02  0.42053751718E+02  0.00000000000E+00 0.  1.
         11    1    1    2    0    0 -0.54904428790E+02 -0.13978178135E+02 -0.19340207900E+02  0.59865928593E+02  0.00000000000E+00 0. -1.
<mgrwt>
<rscale>  0 0.12145336E+03</rscale>
<asrwt>0</asrwt>
<pdfrwt beam="2">  1        2 0.20828697E-01 0.12914051E+03</pdfrwt>
<pdfrwt beam="1">  1       -2 0.15911073E-01 0.12914051E+03</pdfrwt>
<totfact> 0.77427300E+03</totfact>
</mgrwt>
</event>
<event>
 7    1  0.5206756E-006  0.1576247E+03  0.7546771E-02  0.1200542E+00
          3   -1    0    0  501    0  0.00000000000E+00  0.00000000000E+00  0.32061604815E+03  0.32061604815E+03  0.00000000000E+00 0. -1.
         -3   -1    0    0    0  501 -0.00000000000E+00 -0.00000000000E+00 -0.72466516121E+02  0.72466516121E+02  0.00000000000E+00 0.  1.
         23    2    1    2    0    0 -0.67521889064E+02 -0.68194471480E+02  0.20151818333E+03  0.25584201810E+03  0.12504346672E+03 0.  0.
          5    1    3    3  502    0 -0.97508572514E+02 -0.18514898046E+02  0.12411555894E+03  0.15898894658E+03  0.47000000000E+01 0.  1.
         -5    1    3    3    0  502  0.29986683449E+02 -0.49679573433E+02  0.77402624388E+02  0.96853071521E+02  0.47000000000E+01 0.  1.
        -11    1    1    2    0    0  0.53957395259E+02  0.52728149634E+02 -0.10821918260E+02  0.76215301494E+02  0.00000000000E+00 0.  1.
         11    1    1    2    0    0  0.13564493805E+02  0.15466321846E+02  0.57453266965E+02  0.61025244683E+02  0.00000000000E+00 0. -1.
<mgrwt>
<rscale>  0 0.14994405E+03</rscale>
<asrwt>0</asrwt>
<pdfrwt beam="1">  1        3 0.49325545E-01 0.15762474E+03</pdfrwt>
<pdfrwt beam="2">  1       -3 0.11148695E-01 0.15762474E+03</pdfrwt>
<totfact> 0.59786859E+02</totfact>
</mgrwt>
</event>
<event>
 7    1  0.5206756E-006  0.1998970E+03  0.7546771E-02  0.1154296E+00
         -2   -1    0    0    0  501 -0.00000000000E+00  0.00000000000E+00  0.17290062966E+03  0.17290062966E+03  0.00000000000E+00 0.  1.
          2   -1    0    0  501    0  0.00000000000E+00 -0.00000000000E+00 -0.30004945019E+03  0.30004945019E+03  0.00000000000E+00 0. -1.
         23    2    1    2    0    0 -0.14039089844E+03 -0.68006233918E+02 -0.19636927583E+03  0.28021365655E+03  0.12499739441E+03 0.  0.
          5    1    3    3  502    0  0.11904901291E+02 -0.27338689922E+01 -0.71487340130E+02  0.72675515225E+02  0.47000000000E+01 0.  1.
         -5    1    3    3    0  502 -0.15229579973E+03 -0.65272364926E+02 -0.12488193570E+03  0.20753814132E+03  0.47000000000E+01 0.  1.
        -11    1    1    2    0    0  0.91797127308E+02  0.65099944296E+02  0.56657052723E+01  0.11268014708E+03  0.00000000000E+00 0.  1.
         11    1    1    2    0    0  0.48593771135E+02  0.29062896225E+01  0.63554750026E+02  0.80056276227E+02  0.00000000000E+00 0. -1.
<mgrwt>
<rscale>  0 0.19469230E+03</rscale>
<asrwt>0</asrwt>
<pdfrwt beam="2">  1        2 0.46161454E-01 0.19989698E+03</pdfrwt>
<pdfrwt beam="1">  1       -2 0.26600097E-01 0.19989698E+03</pdfrwt>
<totfact> 0.13816950E+03</totfact>
</mgrwt>
</event>
<event>
 7    1  0.5206756E-006  0.1266802E+03  0.7546771E-02  0.1247892E+00
          2   -1    0    0  501    0  0.00000000000E+00  0.00000000000E+00  0.88379434165E+02  0.88379434165E+02  0.00000000000E+00 0. -1.
         -2   -1    0    0    0  501 -0.00000000000E+00 -0.00000000000E+00 -0.13802199836E+03  0.13802199836E+03  0.00000000000E+00 0.  1.
         23    2    1    2    0    0 -0.28857711558E+01  0.20405254883E+02 -0.15201492647E+02  0.12758899835E+03  0.12499265986E+03 0.  0.
          5    1    3    3  502    0 -0.42839194532E+02 -0.22829265461E+02  0.26299969815E+02  0.55408937563E+02  0.47000000000E+01 0. -1.
         -5    1    3    3    0  502  0.39953423376E+02  0.43234520344E+02 -0.41501462462E+02  0.72180060788E+02  0.47000000000E+01 0. -1.
        -11    1    1    2    0    0  0.33340459637E+02 -0.38641749870E+02 -0.25615467395E+01  0.51101199629E+02  0.00000000000E+00 0. -1.
         11    1    1    2    0    0 -0.30454688481E+02  0.18236494986E+02 -0.31879524808E+02  0.47711234545E+02  0.00000000000E+00 0.  1.
<mgrwt>
<rscale>  0 0.11713938E+03</rscale>
<asrwt>0</asrwt>
<pdfrwt beam="1">  1        2 0.13596836E-01 0.12668018E+03</pdfrwt>
<pdfrwt beam="2">  1       -2 0.21234153E-01 0.12668018E+03</pdfrwt>
<totfact> 0.78018019E+03</totfact>
</mgrwt>
</event>
<event>
 7    1  0.5206756E-006  0.1670691E+03  0.7546771E-02  0.1188672E+00
          2   -1    0    0  501    0  0.00000000000E+00  0.00000000000E+00  0.11766685972E+04  0.11766685972E+04  0.00000000000E+00 0. -1.
         -2   -1    0    0    0  501 -0.00000000000E+00 -0.00000000000E+00 -0.20333206476E+02  0.20333206476E+02  0.00000000000E+00 0.  1.
         23    2    1    2    0    0 -0.90097549748E+02 -0.64562070320E+02  0.68925621289E+03  0.70921519959E+03  0.12500497161E+03 0.  0.
          5    1    3    3  502    0 -0.38420478260E+02  0.44109475587E+01  0.49638809715E+03  0.49791447318E+03  0.47000000000E+01 0. -1.
         -5    1    3    3    0  502 -0.51677071489E+02 -0.68973017879E+02  0.19286811574E+03  0.21130072641E+03  0.47000000000E+01 0. -1.
        -11    1    1    2    0    0  0.87926572800E+01  0.23106463451E+02  0.20911895341E+02  0.32380964192E+02  0.00000000000E+00 0.  1.
         11    1    1    2    0    0  0.81304892468E+02  0.41455606869E+02  0.44616728251E+03  0.45540563991E+03  0.00000000000E+00 0. -1.
<mgrwt>
<rscale>  0 0.16002233E+03</rscale>
<asrwt>0</asrwt>
<pdfrwt beam="1">  1        2 0.18102588E+00 0.16706906E+03</pdfrwt>
<pdfrwt beam="2">  1       -2 0.31281865E-02 0.16706906E+03</pdfrwt>
<totfact> 0.80410017E+03</totfact>
</mgrwt>
</event>
<event>
 6    1  0.5206756E-006  0.2187051E+03  0.7546771E-02  0.1141608E+00
          2   -1    0    0  501    0  0.00000000000E+00  0.00000000000E+00  0.49698600504E+03  0.49698600504E+03  0.00000000000E+00 0. -1.
         -2   -1    0    0    0  501 -0.00000000000E+00 -0.00000000000E+00 -0.92483058403E+02  0.92483058403E+02  0.00000000000E+00 0.  1.
          5    1    1    2  502    0 -0.12490189260E+03  0.17991256137E+02  0.26812609444E+03  0.29637452757E+03  0.47000000000E+01 0. -1.
         -5    1    1    2    0  502 -0.58532823200E+01  0.72879491690E+02  0.46420465362E+02  0.86733101106E+02  0.47000000000E+01 0.  1.
        -11    1    1    2    0    0 -0.62440545061E+01 -0.37777421988E+02  0.24908120542E+02  0.45678619699E+02  0.00000000000E+00 0. -1.
         11    1    1    2    0    0  0.13699922943E+03 -0.53093325839E+02  0.65048266300E+02  0.16068281508E+03  0.00000000000E+00 0.  1.
<mgrwt>
<rscale>  0 0.20994734E+03</rscale>
<asrwt>0</asrwt>
<pdfrwt beam="1">  1        2 0.76459384E-01 0.21870509E+03</pdfrwt>
<pdfrwt beam="2">  1       -2 0.14228163E-01 0.21870509E+03</pdfrwt>
<totfact> 0.23249295E+03</totfact>
</mgrwt>
</event>
<event>
 7    1  0.5206756E-006  0.1315767E+03  0.7546771E-02  0.1240486E+00
          1   -1    0    0  501    0  0.00000000000E+00  0.00000000000E+00  0.13280172909E+03  0.13280172909E+03  0.00000000000E+00 0. -1.
         -1   -1    0    0    0  501 -0.00000000000E+00 -0.00000000000E+00 -0.14153096599E+03  0.14153096599E+03  0.00000000000E+00 0.  1.
         23    2    1    2    0    0 -0.33101247352E+02 -0.24459633656E+02  0.71045987457E+02  0.14953248607E+03  0.12497386048E+03 0.  0.
          5    1    3    3  502    0  0.28339681626E+02  0.35307088657E+02  0.20579198319E+02  0.49953192766E+02  0.47000000000E+01 0. -1.
         -5    1    3    3    0  502 -0.61440928978E+02 -0.59766722313E+02  0.50466789138E+02  0.99579293307E+02  0.47000000000E+01 0. -1.
        -11    1    1    2    0    0  0.13592777265E+02 -0.96202373467E-01  0.17749644015E+02  0.22356715129E+02  0.00000000000E+00 0. -1.
         11    1    1    2    0    0  0.19508470087E+02  0.24555836030E+02 -0.97524868371E+02  0.10244349388E+03  0.00000000000E+00 0.  1.
<mgrwt>
<rscale>  0 0.12159694E+03</rscale>
<asrwt>0</asrwt>
<pdfrwt beam="1">  1        1 0.20431035E-01 0.13157672E+03</pdfrwt>
<pdfrwt beam="2">  1       -1 0.21773995E-01 0.13157672E+03</pdfrwt>
<totfact> 0.41670900E+03</totfact>
</mgrwt>
</event>
<event>
 7    1  0.5206756E-006  0.1748215E+03  0.7546771E-02  0.1178950E+00
          1   -1    0    0  501    0  0.00000000000E+00  0.00000000000E+00  0.17507603108E+04  0.17507603108E+04  0.00000000000E+00 0. -1.
         -1   -1    0    0    0  501 -0.00000000000E+00 -0.00000000000E+00 -0.16735378151E+02  0.16735378151E+02  0.00000000000E+00 0.  1.
         23    2    1    2    0    0  0.10876678143E+03 -0.55747458025E+02  0.11796140064E+04  0.11924981149E+04  0.12499823233E+03 0.  0.
          5    1    3    3  502    0  0.90776765034E+02  0.80521966001E+01  0.91996992892E+03  0.92448473165E+03  0.47000000000E+01 0.  1.
         -5    1    3    3    0  502  0.17990016394E+02 -0.63799654625E+02  0.25964407746E+03  0.26801338321E+03  0.47000000000E+01 0.  1.
        -11    1    1    2    0    0 -0.64496684096E+02  0.78428952515E+02  0.40445130935E+03  0.41700333870E+03  0.00000000000E+00 0. -1.
         11    1    1    2    0    0 -0.44270097333E+02 -0.22681494490E+02  0.14995961696E+03  0.15799423543E+03  0.00000000000E+00 0.  1.
<mgrwt>
<rscale>  0 0.16894708E+03</rscale>
<asrwt>0</asrwt>
<pdfrwt beam="1">  1        1 0.26934760E+00 0.17482148E+03</pdfrwt>
<pdfrwt beam="2">  1       -1 0.25746749E-02 0.17482148E+03</pdfrwt>
<totfact> 0.23157777E+03</totfact>
</mgrwt>
</event>
<event>
 7    1  0.5206756E-006  0.1954577E+03  0.7546771E-02  0.1154731E+00
          2   -1    0    0  501    0  0.00000000000E+00  0.00000000000E+00  0.10291888650E+04  0.10291888650E+04  0.00000000000E+00 0. -1.
         -2   -1    0    0    0  501 -0.00000000000E+00 -0.00000000000E+00 -0.47747664733E+02  0.47747664733E+02  0.00000000000E+00 0.  1.
         23    2    1    2    0    0 -0.11775364429E+03 -0.93342039732E+02  0.76060428285E+03  0.78531687798E+03  0.12500026649E+03 0.  0.
          5    1    3    3  502    0 -0.82163158822E+02 -0.59140563986E+01  0.19299072111E+03  0.20988870662E+03  0.47000000000E+01 0.  1.
         -5    1    3    3    0  502 -0.35590485471E+02 -0.87427983334E+02  0.56761356174E+03  0.57542817136E+03  0.47000000000E+01 0.  1.
        -11    1    1    2    0    0 -0.21710285371E+02  0.20164473551E+02  0.17467785901E+02  0.34395726897E+02  0.00000000000E+00 0. -1.
         11    1    1    2    0    0  0.13946392966E+03  0.73177566182E+02  0.20336913154E+03  0.25722392489E+03  0.00000000000E+00 0.  1.
<mgrwt>
<rscale>  0 0.19419484E+03</rscale>
<asrwt>0</asrwt>
<pdfrwt beam="1">  1        2 0.15833673E+00 0.19545773E+03</pdfrwt>
<pdfrwt beam="2">  1       -2 0.73457954E-02 0.19545773E+03</pdfrwt>
<totfact> 0.27077498E+03</totfact>
</mgrwt>
</event>
<event>
 7    1  0.5206756E-006  0.1411259E+03  0.7546771E-02  0.1222485E+00
          1   -1    0    0  501    0  0.00000000000E+00  0.00000000000E+00  0.18155038370E+02  0.18155038370E+02  0.00000000000E+00 0. -1.
         -1   -1    0    0    0  501 -0.00000000000E+00 -0.00000000000E+00 -0.92630954686E+03  0.92630954686E+03  0.00000000000E+00 0.  1.
         23    2    1    2    0    0 -0.65399397031E+02 -0.39987714623E+01 -0.40627467390E+03  0.43008793715E+03  0.12499380675E+03 0.  0.
          5    1    3    3  502    0 -0.26598791403E+01  0.32861137756E+02 -0.29611276728E+03  0.29797951319E+03  0.47000000000E+01 0. -1.
         -5    1    3    3    0  502 -0.62739517891E+02 -0.36859909218E+02 -0.11016190662E+03  0.13210842396E+03  0.47000000000E+01 0. -1.
        -11    1    1    2    0    0  0.88320194726E+02  0.91505586182E+01 -0.41365134434E+03  0.42307401740E+03  0.00000000000E+00 0. -1.
         11    1    1    2    0    0 -0.22920797695E+02 -0.51517871559E+01 -0.88228490250E+02  0.91302630684E+02  0.00000000000E+00 0.  1.
<mgrwt>
<rscale>  0 0.13340755E+03</rscale>
<asrwt>0</asrwt>
<pdfrwt beam="1">  1        1 0.27930826E-02 0.14112591E+03</pdfrwt>
<pdfrwt beam="2">  1       -1 0.14250917E+00 0.14112591E+03</pdfrwt>
<totfact> 0.15885769E+03</totfact>
</mgrwt>
</event>
<event>
 7    1  0.5206756E-006  0.1611667E+03  0.7546771E-02  0.1194380E+00
         -1   -1    0    0    0  501 -0.00000000000E+00  0.00000000000E+00  0.51302856055E+02  0.51302856055E+02  0.00000000000E+00 0.  1.
          1   -1    0    0  501    0  0.00000000000E+00 -0.00000000000E+00 -0.46208630388E+03  0.46208630388E+03  0.00000000000E+00 0. -1.
         23    2    1    2    0    0 -0.10133162021E+03  0.90475512219E+01 -0.28057189141E+03  0.32356651853E+03  0.12499900089E+03 0.  0.
          5    1    3    3  502    0 -0.25276765700E+01 -0.45469151136E+02 -0.57209675534E+02  0.73272572144E+02  0.47000000000E+01 0. -1.
         -5    1    3    3    0  502 -0.98803943640E+02  0.54516702358E+02 -0.22336221588E+03  0.25029394638E+03  0.47000000000E+01 0. -1.
        -11    1    1    2    0    0  0.38844374304E+02  0.41620065914E+02 -0.44392827119E+02  0.72193063389E+02  0.00000000000E+00 0.  1.
         11    1    1    2    0    0  0.62487245905E+02 -0.50667617136E+02 -0.85818729290E+02  0.11762957801E+03  0.00000000000E+00 0. -1.
<mgrwt>
<rscale>  0 0.15506790E+03</rscale>
<asrwt>0</asrwt>
<pdfrwt beam="2">  1        1 0.71090200E-01 0.16116670E+03</pdfrwt>
<pdfrwt beam="1">  1       -1 0.78927472E-02 0.16116670E+03</pdfrwt>
<totfact> 0.42954334E+03</totfact>
</mgrwt>
</event>
<event>
 7    1  0.5206756E-006  0.1284451E+03  0.7546771E-02  0.1240678E+00
          2   -1    0    0  501    0  0.00000000000E+00  0.00000000000E+00  0.15765105132E+03  0.15765105132E+03  0.00000000000E+00 0.  1.
         -2   -1    0    0    0  501 -0.00000000000E+00 -0.00000000000E+00 -0.86946488393E+02  0.86946488393E+02  0.00000000000E+00 0. -1.
         23    2    1    2    0    0  0.17373160714E+02 -0.23939644946E+02  0.19960645130E+02  0.12998685327E+03  0.12499288522E+03 0.  0.
          5    1    3    3  502    0  0.69588852096E+02 -0.83743735274E+01  0.26131432319E+02  0.74951185602E+02  0.47000000000E+01 0.  1.
         -5    1    3    3    0  502 -0.52215691382E+02 -0.15565271419E+02 -0.61707871887E+01  0.55035667665E+02  0.47000000000E+01 0.  1.
        -11    1    1    2    0    0 -0.33422486864E+02 -0.12534328547E+02  0.63435986300E+02  0.72789397429E+02  0.00000000000E+00 0.  1.
         11    1    1    2    0    0  0.16049326149E+02  0.36473973493E+02 -0.12692068502E+02  0.41821289018E+02  0.00000000000E+00 0. -1.
<mgrwt>
<rscale>  0 0.12147857E+03</rscale>
<asrwt>0</asrwt>
<pdfrwt beam="1">  1        2 0.24254008E-01 0.12844514E+03</pdfrwt>
<pdfrwt beam="2">  1       -2 0.13376383E-01 0.12844514E+03</pdfrwt>
<totfact> 0.86630480E+03</totfact>
</mgrwt>
</event>
<event>
 7    1  0.8544822E-006  0.2957521E+03  0.7546771E-02  0.1088985E+00
          2   -1    0    0  501    0  0.00000000000E+00  0.00000000000E+00  0.24074540541E+03  0.24074540541E+03  0.00000000000E+00 0. -1.
         -2   -1    0    0    0  501 -0.00000000000E+00 -0.00000000000E+00 -0.34842491584E+03  0.34842491584E+03  0.00000000000E+00 0.  1.
         23    2    1    2    0    0  0.24385618497E+03  0.11125777747E+03 -0.51314100457E+02  0.30017071132E+03  0.12500074814E+03 0.  0.
          5    1    3    3  502    0  0.17472142256E+03  0.26242162949E+02 -0.67717873782E+02  0.18927236208E+03  0.47000000000E+01 0. -1.
         -5    1    3    3    0  502  0.69134762408E+02  0.85015614523E+02  0.16403773325E+02  0.11089834925E+03  0.47000000000E+01 0. -1.
        -11    1    1    2    0    0 -0.23062814450E+03 -0.10059077738E+03 -0.24390832419E+02  0.25278994884E+03  0.00000000000E+00 0. -1.
         11    1    1    2    0    0 -0.13228040465E+02 -0.10667000093E+02 -0.31974577553E+02  0.36209661075E+02  0.00000000000E+00 0.  1.
<mgrwt>
<rscale>  0 0.29262734E+03</rscale>
<asrwt>0</asrwt>
<pdfrwt beam="1">  1        2 0.37037755E-01 0.29575212E+03</pdfrwt>
<pdfrwt beam="2">  1       -2 0.53603833E-01 0.29575212E+03</pdfrwt>
<totfact> 0.46565357E+02</totfact>
</mgrwt>
</event>
<event>
 7    1  0.5206756E-006  0.1325963E+03  0.7546771E-02  0.1236826E+00
         -2   -1    0    0    0  501 -0.00000000000E+00  0.00000000000E+00  0.69356624864E+02  0.69356624864E+02  0.00000000000E+00 0. -1.
          2   -1    0    0  501    0  0.00000000000E+00 -0.00000000000E+00 -0.20271759073E+03  0.20271759073E+03  0.00000000000E+00 0.  1.
         23    2    1    2    0    0 -0.34905418765E+02 -0.27152747941E+02 -0.98579985308E+02  0.16522651912E+03  0.12500451646E+03 0.  0.
          5    1    3    3  502    0 -0.36370565193E+02  0.31514152378E+02  0.23175662660E+01  0.48408893046E+02  0.47000000000E+01 0.  1.
         -5    1    3    3    0  502  0.14651464278E+01 -0.58666900318E+02 -0.10089755157E+03  0.11681762607E+03  0.47000000000E+01 0.  1.
        -11    1    1    2    0    0 -0.14458522721E+02 -0.20185550587E+02  0.81066177446E+01  0.26119390939E+02  0.00000000000E+00 0.  1.
         11    1    1    2    0    0  0.49363941486E+02  0.47338298528E+02 -0.42887598299E+02  0.80728305534E+02  0.00000000000E+00 0. -1.
<mgrwt>
<rscale>  0 0.12388234E+03</rscale>
<asrwt>0</asrwt>
<pdfrwt beam="2">  1        2 0.31187322E-01 0.13259634E+03</pdfrwt>
<pdfrwt beam="1">  1       -2 0.10670250E-01 0.13259634E+03</pdfrwt>
<totfact> 0.94660723E+03</totfact>
</mgrwt>
</event>
<event>
 7    1  0.5206756E-006  0.1904218E+03  0.7546771E-02  0.1163266E+00
         -1   -1    0    0    0  501 -0.00000000000E+00  0.00000000000E+00  0.58517497318E+02  0.58517497318E+02  0.00000000000E+00 0.  1.
          1   -1    0    0  501    0  0.00000000000E+00 -0.00000000000E+00 -0.55468004191E+03  0.55468004191E+03  0.00000000000E+00 0. -1.
         23    2    1    2    0    0  0.11892434124E+03  0.80575791815E+02 -0.28687185497E+03  0.34431948197E+03  0.12499994932E+03 0.  0.
          5    1    3    3  502    0  0.10778573503E+03  0.10550387579E+03 -0.18495100081E+03  0.23870022033E+03  0.47000000000E+01 0.  1.
         -5    1    3    3    0  502  0.11138606203E+02 -0.24928083975E+02 -0.10192085416E+03  0.10561926165E+03  0.47000000000E+01 0.  1.
        -11    1    1    2    0    0 -0.12390641466E+03 -0.45436924798E+02 -0.17782474255E+03  0.22144740413E+03  0.00000000000E+00 0.  1.
         11    1    1    2    0    0  0.49820734269E+01 -0.35138867017E+02 -0.31465947071E+02  0.47430653126E+02  0.00000000000E+00 0. -1.
<mgrwt>
<rscale>  0 0.18476910E+03</rscale>
<asrwt>0</asrwt>
<pdfrwt beam="2">  1        1 0.85335390E-01 0.19042175E+03</pdfrwt>
<pdfrwt beam="1">  1       -1 0.90026920E-02 0.19042175E+03</pdfrwt>
<totfact> 0.27799594E+03</totfact>
</mgrwt>
</event>
<event>
 7    1  0.5206756E-006  0.1299535E+03  0.7546771E-02  0.1241062E+00
          2   -1    0    0  501    0  0.00000000000E+00  0.00000000000E+00  0.92882337644E+03  0.92882337644E+03  0.00000000000E+00 0.  1.
         -2   -1    0    0    0  501 -0.00000000000E+00 -0.00000000000E+00 -0.17231838162E+02  0.17231838162E+02  0.00000000000E+00 0. -1.
         23    2    1    2    0    0 -0.31375614521E+02  0.16685434087E+02  0.70893801306E+03  0.72075031277E+03  0.12500029644E+03 0.  0.
          5    1    3    3  502    0  0.31000951520E+01 -0.14531666857E+02  0.67088473699E+01  0.16966984548E+02  0.47000000000E+01 0. -1.
         -5    1    3    3    0  502 -0.34475709673E+02  0.31217100944E+02  0.70222916569E+03  0.70378332823E+03  0.47000000000E+01 0. -1.
        -11    1    1    2    0    0  0.58865598366E+02 -0.31944925052E+02  0.13484149451E+03  0.15055851204E+03  0.00000000000E+00 0.  1.
         11    1    1    2    0    0 -0.27489983845E+02  0.15259490965E+02  0.67812030715E+02  0.74746389786E+02  0.00000000000E+00 0. -1.
<mgrwt>
<rscale>  0 0.12124196E+03</rscale>
<asrwt>0</asrwt>
<pdfrwt beam="1">  1        2 0.14289586E+00 0.12995348E+03</pdfrwt>
<pdfrwt beam="2">  1       -2 0.26510528E-02 0.12995348E+03</pdfrwt>
<totfact> 0.14148363E+04</totfact>
</mgrwt>
</event>
<event>
 7    1  0.5206756E-006  0.1408172E+03  0.7546771E-02  0.1223715E+00
         -2   -1    0    0    0  501 -0.00000000000E+00  0.00000000000E+00  0.10206667433E+03  0.10206667433E+03  0.00000000000E+00 0.  1.
          2   -1    0    0  501    0  0.00000000000E+00 -0.00000000000E+00 -0.15607398219E+03  0.15607398219E+03  0.00000000000E+00 0. -1.
         23    2    1    2    0    0  0.48587627847E+02 -0.42925410789E+02 -0.41903335614E+02  0.14691965598E+03  0.12500458915E+03 0.  0.
          5    1    3    3  502    0  0.31093104690E+02 -0.85553590226E+02 -0.12364359164E+02  0.91984592934E+02  0.47000000000E+01 0. -1.
         -5    1    3    3    0  502  0.17494523157E+02  0.42628179437E+02 -0.29538976449E+02  0.54935063050E+02  0.47000000000E+01 0. -1.
        -11    1    1    2    0    0 -0.42670287959E+02 -0.15802717445E+02  0.12629853109E+02  0.47222796854E+02  0.00000000000E+00 0.  1.
         11    1    1    2    0    0 -0.59173398881E+01  0.58728128234E+02 -0.24733825360E+02  0.63998203679E+02  0.00000000000E+00 0. -1.
<mgrwt>
<rscale>  0 0.13255368E+03</rscale>
<asrwt>0</asrwt>
<pdfrwt beam="2">  1        2 0.24011382E-01 0.14081724E+03</pdfrwt>
<pdfrwt beam="1">  1       -2 0.15702565E-01 0.14081724E+03</pdfrwt>
<totfact> 0.67932951E+03</totfact>
</mgrwt>
</event>
<event>
 7    1  0.5206756E-006  0.2095427E+03  0.7546771E-02  0.1145895E+00
          4   -1    0    0  501    0  0.00000000000E+00  0.00000000000E+00  0.97625390557E+03  0.97625390557E+03  0.00000000000E+00 0. -1.
         -4   -1    0    0    0  501 -0.00000000000E+00 -0.00000000000E+00 -0.41284165882E+02  0.41284165882E+02  0.00000000000E+00 0.  1.
         23    2    1    2    0    0 -0.44830732439E+01  0.16811594178E+03  0.53228258412E+03  0.57204272490E+03  0.12500024771E+03 0.  0.
          5    1    3    3  502    0 -0.35423922593E+01  0.15435796798E+03  0.53531940266E+03  0.55716055468E+03  0.47000000000E+01 0. -1.
         -5    1    3    3    0  502 -0.94068098458E+00  0.13757973801E+02 -0.30368185383E+01  0.14882170227E+02  0.47000000000E+01 0. -1.
        -11    1    1    2    0    0 -0.13062340516E+02 -0.28018554113E+02  0.18130478902E+02  0.35838225117E+02  0.00000000000E+00 0.  1.
         11    1    1    2    0    0  0.17545413759E+02 -0.14009738766E+03  0.38455667666E+03  0.40965712143E+03  0.00000000000E+00 0. -1.
<mgrwt>
<rscale>  0 0.20462391E+03</rscale>
<asrwt>0</asrwt>
<pdfrwt beam="1">  1        4 0.15019289E+00 0.20954267E+03</pdfrwt>
<pdfrwt beam="2">  1       -4 0.63514109E-02 0.20954267E+03</pdfrwt>
<totfact> 0.91574681E+01</totfact>
</mgrwt>
</event>
<event>
 7    1  0.5206756E-006  0.2704677E+03  0.7546771E-02  0.1102787E+00
         -2   -1    0    0    0  501 -0.00000000000E+00  0.00000000000E+00  0.73599873493E+02  0.73599873493E+02  0.00000000000E+00 0. -1.
          2   -1    0    0  501    0  0.00000000000E+00 -0.00000000000E+00 -0.99745483366E+03  0.99745483366E+03  0.00000000000E+00 0.  1.
         23    2    1    2    0    0 -0.19566054655E+03 -0.13867416086E+03 -0.58897067987E+03  0.64810434460E+03  0.12505681659E+03 0.  0.
          5    1    3    3  502    0 -0.50264675370E+02 -0.11442851323E+02 -0.27185181453E+03  0.27673629234E+03  0.47000000000E+01 0. -1.
         -5    1    3    3    0  502 -0.14539587118E+03 -0.12723130954E+03 -0.31711886534E+03  0.37136805226E+03  0.47000000000E+01 0. -1.
        -11    1    1    2    0    0  0.24339867693E+02  0.27129894274E+02 -0.12398116614E+03  0.12922766685E+03  0.00000000000E+00 0.  1.
         11    1    1    2    0    0  0.17132067885E+03  0.11154426659E+03 -0.21090311417E+03  0.29372269571E+03  0.00000000000E+00 0. -1.
<mgrwt>
<rscale>  0 0.26738341E+03</rscale>
<asrwt>0</asrwt>
<pdfrwt beam="2">  1        2 0.15345460E+00 0.27046771E+03</pdfrwt>
<pdfrwt beam="1">  1       -2 0.11323057E-01 0.27046771E+03</pdfrwt>
<totfact> 0.14320470E+03</totfact>
</mgrwt>
</event>
<event>
 7    1  0.5206756E-006  0.1874228E+03  0.7546771E-02  0.1165646E+00
         -2   -1    0    0    0  501 -0.00000000000E+00  0.00000000000E+00  0.41713443455E+02  0.41713443455E+02  0.00000000000E+00 0.  1.
          2   -1    0    0  501    0  0.00000000000E+00 -0.00000000000E+00 -0.90681478557E+03  0.90681478557E+03  0.00000000000E+00 0. -1.
         23    2    1    2    0    0 -0.11254737037E+03  0.82681728438E+02 -0.64635259173E+03  0.67297770661E+03  0.12499656784E+03 0.  0.
          5    1    3    3  502    0 -0.85537669851E+02  0.10140122484E+03 -0.60768640703E+03  0.62201588456E+03  0.47000000000E+01 0. -1.
         -5    1    3    3    0  502 -0.27009700521E+02 -0.18719496398E+02 -0.38666184697E+02  0.50961822050E+02  0.47000000000E+01 0. -1.
        -11    1    1    2    0    0  0.11005316787E+03 -0.64100801188E+02 -0.11983017209E+03  0.17487104567E+03  0.00000000000E+00 0.  1.
         11    1    1    2    0    0  0.24942025001E+01 -0.18580927250E+02 -0.98918578304E+02  0.10067947674E+03  0.00000000000E+00 0. -1.
<mgrwt>
<rscale>  0 0.18224720E+03</rscale>
<asrwt>0</asrwt>
<pdfrwt beam="2">  1        2 0.13950997E+00 0.18742284E+03</pdfrwt>
<pdfrwt beam="1">  1       -2 0.64174525E-02 0.18742284E+03</pdfrwt>
<totfact> 0.39637294E+03</totfact>
</mgrwt>
</event>
<event>
 7    1  0.5206756E-006  0.1729343E+03  0.7546771E-02  0.1180831E+00
         -2   -1    0    0    0  501 -0.00000000000E+00  0.00000000000E+00  0.79443832227E+02  0.79443832227E+02  0.00000000000E+00 0.  1.
          2   -1    0    0  501    0  0.00000000000E+00 -0.00000000000E+00 -0.33375205687E+03  0.33375205687E+03  0.00000000000E+00 0. -1.
         23    2    1    2    0    0  0.67605606444E+02  0.98570379489E+02 -0.15685320420E+03  0.23347204723E+03  0.12497852390E+03 0.  0.
          5    1    3    3  502    0  0.10277290577E+03  0.70769211298E+02 -0.94816704502E+02  0.15678918611E+03  0.47000000000E+01 0.  1.
         -5    1    3    3    0  502 -0.35167299331E+02  0.27801168191E+02 -0.62036499693E+02  0.76682861118E+02  0.47000000000E+01 0.  1.
        -11    1    1    2    0    0 -0.46670380646E+02 -0.11483654482E+03 -0.85847227063E+02  0.15078230284E+03  0.00000000000E+00 0.  1.
         11    1    1    2    0    0 -0.20935225798E+02  0.16266165335E+02 -0.11607793389E+02  0.28941539027E+02  0.00000000000E+00 0. -1.
<mgrwt>
<rscale>  0 0.16717074E+03</rscale>
<asrwt>0</asrwt>
<pdfrwt beam="2">  1        2 0.51346470E-01 0.17293429E+03</pdfrwt>
<pdfrwt beam="1">  1       -2 0.12222128E-01 0.17293429E+03</pdfrwt>
<totfact> 0.45485891E+03</totfact>
</mgrwt>
</event>
<event>
 7    1  0.5206756E-006  0.1284373E+03  0.7546771E-02  0.1243615E+00
          2   -1    0    0  501    0  0.00000000000E+00  0.00000000000E+00  0.84864083563E+03  0.84864083563E+03  0.00000000000E+00 0. -1.
         -2   -1    0    0    0  501 -0.00000000000E+00 -0.00000000000E+00 -0.16422087454E+02  0.16422087454E+02  0.00000000000E+00 0.  1.
         23    2    1    2    0    0  0.51495602134E+01  0.28957356938E+02  0.59748189201E+03  0.61113072529E+03  0.12502442013E+03 0.  0.
          5    1    3    3  502    0  0.39547295186E+02 -0.25185465839E+02  0.41458887340E+03  0.41725809781E+03  0.47000000000E+01 0.  1.
         -5    1    3    3    0  502 -0.34397734973E+02  0.54142822777E+02  0.18289301861E+03  0.19387262748E+03  0.47000000000E+01 0.  1.
        -11    1    1    2    0    0  0.41486599597E+02 -0.24943783671E+02  0.96047710094E+02  0.10755692867E+03  0.00000000000E+00 0. -1.
         11    1    1    2    0    0 -0.46636159810E+02 -0.40135732670E+01  0.13868914608E+03  0.14637526913E+03  0.00000000000E+00 0.  1.
<mgrwt>
<rscale>  0 0.11968641E+03</rscale>
<asrwt>0</asrwt>
<pdfrwt beam="1">  1        2 0.13056009E+00 0.12843735E+03</pdfrwt>
<pdfrwt beam="2">  1       -2 0.25264757E-02 0.12843735E+03</pdfrwt>
<totfact> 0.17048922E+04</totfact>
</mgrwt>
</event>
<event>
 7    1  0.5206756E-006  0.2122917E+03  0.7546771E-02  0.1143341E+00
          2   -1    0    0  501    0  0.00000000000E+00  0.00000000000E+00  0.59831179230E+03  0.59831179230E+03  0.00000000000E+00 0.  1.
         -2   -1    0    0    0  501 -0.00000000000E+00 -0.00000000000E+00 -0.72585517621E+02  0.72585517621E+02  0.00000000000E+00 0. -1.
         23    2    1    2    0    0  0.12951585858E+03  0.11254224738E+03  0.34557515217E+03  0.40557358374E+03  0.12501052339E+03 0.  0.
          5    1    3    3  502    0  0.11127947792E+03  0.63727067231E+02  0.12595996955E+03  0.17981174943E+03  0.47000000000E+01 0.  1.
         -5    1    3    3    0  502  0.18236380662E+02  0.48815180147E+02  0.21961518262E+03  0.22576183430E+03  0.47000000000E+01 0.  1.
        -11    1    1    2    0    0 -0.12133698881E+03 -0.52551530749E+02  0.10518996226E+03  0.16896525205E+03  0.00000000000E+00 0. -1.
         11    1    1    2    0    0 -0.81788697674E+01 -0.59990716629E+02  0.74961160248E+02  0.96358474138E+02  0.00000000000E+00 0.  1.
<mgrwt>
<rscale>  0 0.20777346E+03</rscale>
<asrwt>0</asrwt>
<pdfrwt beam="1">  1        2 0.92047965E-01 0.21229165E+03</pdfrwt>
<pdfrwt beam="2">  1       -2 0.11167003E-01 0.21229165E+03</pdfrwt>
<totfact> 0.27877793E+03</totfact>
</mgrwt>
</event>
<event>
 7    1  0.5206756E-006  0.1322617E+03  0.7546771E-02  0.1239690E+00
          4   -1    0    0  501    0  0.00000000000E+00  0.00000000000E+00  0.18139948090E+04  0.18139948090E+04  0.00000000000E+00 0. -1.
         -4   -1    0    0    0  501 -0.00000000000E+00 -0.00000000000E+00 -0.81900677474E+01  0.81900677474E+01  0.00000000000E+00 0.  1.
         23    2    1    2    0    0  0.98908943568E+01  0.42093022880E+02  0.13445633845E+04  0.13510528668E+04  0.12499400691E+03 0.  0.
          5    1    3    3  502    0  0.37260089776E+02  0.43090562459E+02  0.26331906256E+03  0.26945153474E+03  0.47000000000E+01 0.  1.
         -5    1    3    3    0  502 -0.27369195419E+02 -0.99753957951E+00  0.10812443219E+04  0.10816013321E+04  0.47000000000E+01 0.  1.
        -11    1    1    2    0    0 -0.47893675200E+02 -0.25988073674E+02  0.27960715038E+03  0.28486723687E+03  0.00000000000E+00 0.  1.
         11    1    1    2    0    0  0.38002780843E+02 -0.16104949206E+02  0.18163420637E+03  0.18626477301E+03  0.00000000000E+00 0. -1.
<mgrwt>
<rscale>  0 0.12208924E+03</rscale>
<asrwt>0</asrwt>
<pdfrwt beam="1">  1        4 0.27907580E+00 0.13226169E+03</pdfrwt>
<pdfrwt beam="2">  1       -4 0.12600119E-02 0.13226169E+03</pdfrwt>
<totfact> 0.17234277E+02</totfact>
</mgrwt>
</event>
<event>
 7    1  0.5206756E-006  0.1295914E+03  0.7546771E-02  0.1242457E+00
          2   -1    0    0  501    0  0.00000000000E+00  0.00000000000E+00  0.31990629337E+02  0.31990629337E+02  0.00000000000E+00 0. -1.
         -2   -1    0    0    0  501 -0.00000000000E+00 -0.00000000000E+00 -0.39958596798E+03  0.39958596798E+03  0.00000000000E+00 0.  1.
         23    2    1    2    0    0  0.20705042226E+01  0.34137483936E+02 -0.20840181673E+03  0.24540833642E+03  0.12499711824E+03 0.  0.
          5    1    3    3  502    0 -0.14874656540E+02 -0.44904765014E+02 -0.92808459385E+02  0.10427460602E+03  0.47000000000E+01 0. -1.
         -5    1    3    3    0  502  0.16945160763E+02  0.79042248949E+02 -0.11559335735E+03  0.14113373039E+03  0.47000000000E+01 0. -1.
        -11    1    1    2    0    0  0.96033473953E+01 -0.63840782581E+02 -0.10919853057E+03  0.12685499155E+03  0.00000000000E+00 0.  1.
         11    1    1    2    0    0 -0.11673851618E+02  0.29703298646E+02 -0.49994991343E+02  0.59313269354E+02  0.00000000000E+00 0. -1.
<mgrwt>
<rscale>  0 0.12038881E+03</rscale>
<asrwt>0</asrwt>
<pdfrwt beam="1">  1        2 0.49216356E-02 0.12959141E+03</pdfrwt>
<pdfrwt beam="2">  1       -2 0.61474760E-01 0.12959141E+03</pdfrwt>
<totfact> 0.38289693E+03</totfact>
</mgrwt>
</event>
<event>
 7    1  0.5206756E-006  0.1599156E+03  0.7546771E-02  0.1195966E+00
          1   -1    0    0  501    0  0.00000000000E+00  0.00000000000E+00  0.15348498675E+03  0.15348498675E+03  0.00000000000E+00 0. -1.
         -1   -1    0    0    0  501 -0.00000000000E+00 -0.00000000000E+00 -0.15985980369E+03  0.15985980369E+03  0.00000000000E+00 0.  1.
         23    2    1    2    0    0  0.25916020403E+02 -0.96319510135E+02  0.47063297744E+02  0.16669720506E+03  0.12499566406E+03 0.  0.
          5    1    3    3  502    0  0.61659809732E+02 -0.41901792988E+02  0.64980787507E+02  0.99006490378E+02  0.47000000000E+01 0.  1.
         -5    1    3    3    0  502 -0.35743789329E+02 -0.54417717147E+02 -0.17917489763E+02  0.67690714685E+02  0.47000000000E+01 0.  1.
        -11    1    1    2    0    0  0.20657889909E+02  0.97471910308E+01 -0.41828917317E+02  0.47659358707E+02  0.00000000000E+00 0.  1.
         11    1    1    2    0    0 -0.46573910312E+02  0.86572319105E+02 -0.11609197372E+02  0.98988226676E+02  0.00000000000E+00 0. -1.
<mgrwt>
<rscale>  0 0.15372789E+03</rscale>
<asrwt>0</asrwt>
<pdfrwt beam="1">  1        1 0.23613075E-01 0.15991562E+03</pdfrwt>
<pdfrwt beam="2">  1       -1 0.24593816E-01 0.15991562E+03</pdfrwt>
<totfact> 0.28724695E+03</totfact>
</mgrwt>
</event>
<event>
 7    1  0.5206756E-006  0.1310517E+03  0.7546771E-02  0.1239355E+00
         -1   -1    0    0    0  501 -0.00000000000E+00  0.00000000000E+00  0.71478461857E+02  0.71478461857E+02  0.00000000000E+00 0.  1.
          1   -1    0    0  501    0  0.00000000000E+00 -0.00000000000E+00 -0.19824997337E+03  0.19824997337E+03  0.00000000000E+00 0. -1.
         23    2    1    2    0    0 -0.21471120488E+02  0.32985789933E+02 -0.37955206829E+02  0.13643735698E+03  0.12500193319E+03 0.  0.
          5    1    3    3  502    0  0.14837554941E+02 -0.39003669571E+02 -0.36531482241E+02  0.55660385116E+02  0.47000000000E+01 0.  1.
         -5    1    3    3    0  502 -0.36308675429E+02  0.71989459504E+02 -0.14237245882E+01  0.80776971860E+02  0.47000000000E+01 0.  1.
        -11    1    1    2    0    0  0.26812792394E+01 -0.10816941272E+02  0.18780936887E+02  0.21838476760E+02  0.00000000000E+00 0.  1.
         11    1    1    2    0    0  0.18789841249E+02 -0.22168848661E+02 -0.10759724157E+03  0.11145260149E+03  0.00000000000E+00 0. -1.
<mgrwt>
<rscale>  0 0.12229724E+03</rscale>
<asrwt>0</asrwt>
<pdfrwt beam="2">  1        1 0.30499995E-01 0.13105173E+03</pdfrwt>
<pdfrwt beam="1">  1       -1 0.10996687E-01 0.13105173E+03</pdfrwt>
<totfact> 0.73733751E+03</totfact>
</mgrwt>
</event>
<event>
 7    1  0.5206756E-006  0.1250961E+03  0.7546771E-02  0.1249263E+00
          2   -1    0    0  501    0  0.00000000000E+00  0.00000000000E+00  0.37431801398E+03  0.37431801398E+03  0.00000000000E+00 0. -1.
         -2   -1    0    0    0  501 -0.00000000000E+00 -0.00000000000E+00 -0.73294348657E+02  0.73294348657E+02  0.00000000000E+00 0.  1.
         23    2    1    2    0    0 -0.49296544825E+01  0.10163645664E+01  0.32732146982E+03  0.35041172429E+03  0.12499478958E+03 0.  0.
          5    1    3    3  502    0 -0.33746409433E+02  0.51863551457E+02  0.21406035915E+03  0.22287345172E+03  0.47000000000E+01 0.  1.
         -5    1    3    3    0  502  0.28816754951E+02 -0.50847186891E+02  0.11326111067E+03  0.12753827257E+03  0.47000000000E+01 0.  1.
        -11    1    1    2    0    0  0.36006843640E+02 -0.23800150959E+01 -0.47428414547E+02  0.59595400554E+02  0.00000000000E+00 0.  1.
         11    1    1    2    0    0 -0.31077189157E+02  0.13636505295E+01  0.21130610052E+02  0.37605237798E+02  0.00000000000E+00 0. -1.
<mgrwt>
<rscale>  0 0.11633849E+03</rscale>
<asrwt>0</asrwt>
<pdfrwt beam="1">  1        2 0.57587386E-01 0.12509609E+03</pdfrwt>
<pdfrwt beam="2">  1       -2 0.11276054E-01 0.12509609E+03</pdfrwt>
<totfact> 0.45016207E+03</totfact>
</mgrwt>
</event>
<event>
 7    1  0.5206756E-006  0.1191210E+03  0.7546771E-02  0.1251741E+00
         -3   -1    0    0    0  501 -0.00000000000E+00  0.00000000000E+00  0.26416762919E+03  0.26416762919E+03  0.00000000000E+00 0.  1.
          3   -1    0    0  501    0  0.00000000000E+00 -0.00000000000E+00 -0.79896818699E+02  0.79896818699E+02  0.00000000000E+00 0. -1.
         23    2    1    2    0    0  0.32592886130E+02  0.20795175408E+02 -0.14624725689E+02  0.12001541747E+03  0.11267245574E+03 0.  0.
          5    1    3    3  502    0  0.36330130177E+02  0.56865422550E+02 -0.37044537322E+02  0.77122904418E+02  0.47000000000E+01 0. -1.
         -5    1    3    3    0  502 -0.37372440472E+01 -0.36070247142E+02  0.22419811632E+02  0.42892513048E+02  0.47000000000E+01 0.  1.
        -11    1    1    2    0    0  0.30021236412E+02  0.37336916369E+01  0.31614379741E+02  0.43757103371E+02  0.00000000000E+00 0. -1.
         11    1    1    2    0    0 -0.62614122543E+02 -0.24528867045E+02  0.16728115643E+03  0.18029192705E+03  0.00000000000E+00 0.  1.
<mgrwt>
<rscale>  0 0.11490833E+03</rscale>
<asrwt>0</asrwt>
<pdfrwt beam="2">  1        3 0.12291818E-01 0.11912102E+03</pdfrwt>
<pdfrwt beam="1">  1       -3 0.40641173E-01 0.11912102E+03</pdfrwt>
<totfact> 0.71169861E+02</totfact>
</mgrwt>
</event>
<event>
 7    1  0.5206756E-006  0.2281538E+03  0.7546771E-02  0.1130925E+00
         -1   -1    0    0    0  501 -0.00000000000E+00  0.00000000000E+00  0.21763225991E+03  0.21763225991E+03  0.00000000000E+00 0.  1.
          1   -1    0    0  501    0  0.00000000000E+00 -0.00000000000E+00 -0.38154459405E+03  0.38154459405E+03  0.00000000000E+00 0. -1.
         23    2    1    2    0    0  0.17534906236E+03  0.75364506451E+02 -0.27699842602E+03  0.35886246848E+03  0.12500816279E+03 0.  0.
          5    1    3    3  502    0  0.97886665988E+02  0.59748858721E+02 -0.63523927744E+02  0.13118347797E+03  0.47000000000E+01 0.  1.
         -5    1    3    3    0  502  0.77462396375E+02  0.15615647730E+02 -0.21347449827E+03  0.22767899051E+03  0.47000000000E+01 0.  1.
        -11    1    1    2    0    0 -0.12636403986E+03 -0.25294135587E+02  0.11124336158E+03  0.17024320650E+03  0.00000000000E+00 0.  1.
         11    1    1    2    0    0 -0.48985022499E+02 -0.50070370864E+02  0.18427302992E+01  0.70071178973E+02  0.00000000000E+00 0. -1.
<mgrwt>
<rscale>  0 0.22401500E+03</rscale>
<asrwt>0</asrwt>
<pdfrwt beam="2">  1        1 0.58699168E-01 0.22815377E+03</pdfrwt>
<pdfrwt beam="1">  1       -1 0.33481886E-01 0.22815377E+03</pdfrwt>
<totfact> 0.54759152E+02</totfact>
</mgrwt>
</event>
<event>
 7    1  0.5206756E-006  0.1534775E+03  0.7546771E-02  0.1203215E+00
          1   -1    0    0  501    0  0.00000000000E+00  0.00000000000E+00  0.92465604587E+02  0.92465604587E+02  0.00000000000E+00 0. -1.
         -1   -1    0    0    0  501 -0.00000000000E+00 -0.00000000000E+00 -0.25827922474E+03  0.25827922474E+03  0.00000000000E+00 0.  1.
         23    2    1    2    0    0 -0.87407783944E+02 -0.17046724904E+02 -0.21136795155E+02  0.15492608809E+03  0.12499846854E+03 0.  0.
          5    1    3    3  502    0 -0.10750125551E+03 -0.38877623851E+02  0.58258801213E+01  0.11456011719E+03  0.47000000000E+01 0. -1.
         -5    1    3    3    0  502  0.20093471564E+02  0.21830898947E+02 -0.26962675276E+02  0.40365970896E+02  0.47000000000E+01 0. -1.
        -11    1    1    2    0    0  0.50116703955E+02  0.12414623289E+02 -0.14928324924E+03  0.15795979043E+03  0.00000000000E+00 0.  1.
         11    1    1    2    0    0  0.37291079989E+02  0.46321016150E+01  0.46064242459E+01  0.37858950811E+02  0.00000000000E+00 0. -1.
<mgrwt>
<rscale>  0 0.14778981E+03</rscale>
<asrwt>0</asrwt>
<pdfrwt beam="1">  1        1 0.14225478E-01 0.15347745E+03</pdfrwt>
<pdfrwt beam="2">  1       -1 0.39735264E-01 0.15347745E+03</pdfrwt>
<totfact> 0.24343938E+03</totfact>
</mgrwt>
</event>
<event>
 7    1  0.5206756E-006  0.1466642E+03  0.7546771E-02  0.1214599E+00
         -2   -1    0    0    0  501 -0.00000000000E+00  0.00000000000E+00  0.54651126541E+02  0.54651126541E+02  0.00000000000E+00 0.  1.
          2   -1    0    0  501    0  0.00000000000E+00 -0.00000000000E+00 -0.80689596762E+03  0.80689596762E+03  0.00000000000E+00 0. -1.
         23    2    1    2    0    0  0.10615060800E+02 -0.75979941260E+02 -0.72531185549E+03  0.73999167754E+03  0.12499905648E+03 0.  0.
          5    1    3    3  502    0  0.57442357992E+02 -0.79959847269E+02 -0.52648326779E+03  0.53563039769E+03  0.47000000000E+01 0.  1.
         -5    1    3    3    0  502 -0.46827297192E+02  0.39799060092E+01 -0.19882858770E+03  0.20436127985E+03  0.47000000000E+01 0.  1.
        -11    1    1    2    0    0 -0.21261789905E+02  0.83526609750E+02  0.57314134943E+01  0.86380595893E+02  0.00000000000E+00 0.  1.
         11    1    1    2    0    0  0.10646729104E+02 -0.75466684894E+01 -0.32664399086E+02  0.35174820733E+02  0.00000000000E+00 0. -1.
<mgrwt>
<rscale>  0 0.13906056E+03</rscale>
<asrwt>0</asrwt>
<pdfrwt beam="2">  1        2 0.12413783E+00 0.14666423E+03</pdfrwt>
<pdfrwt beam="1">  1       -2 0.84078664E-02 0.14666423E+03</pdfrwt>
<totfact> 0.30156665E+03</totfact>
</mgrwt>
</event>
<event>
 7    1  0.5206756E-006  0.2630934E+03  0.7546771E-02  0.1107459E+00
          2   -1    0    0  501    0  0.00000000000E+00  0.00000000000E+00  0.16014933050E+03  0.16014933050E+03  0.00000000000E+00 0. -1.
         -2   -1    0    0    0  501 -0.00000000000E+00 -0.00000000000E+00 -0.43245267618E+03  0.43245267618E+03  0.00000000000E+00 0.  1.
         23    2    1    2    0    0 -0.19587467985E+03  0.12340048209E+03 -0.71085163252E+02  0.27252750905E+03  0.12499429413E+03 0.  0.
          5    1    3    3  502    0 -0.10020880888E+03  0.40544456039E+02 -0.94590486401E+02  0.14371885196E+03  0.47000000000E+01 0.  1.
         -5    1    3    3    0  502 -0.95665870974E+02  0.82856026055E+02  0.23505323149E+02  0.12880865708E+03  0.47000000000E+01 0.  1.
        -11    1    1    2    0    0  0.96316660496E+02 -0.85897018184E+02 -0.16099715664E+03  0.20633778439E+03  0.00000000000E+00 0.  1.
         11    1    1    2    0    0  0.99558019358E+02 -0.37503463911E+02 -0.40221025778E+02  0.11373671324E+03  0.00000000000E+00 0. -1.
<mgrwt>
<rscale>  0 0.25947497E+03</rscale>
<asrwt>0</asrwt>
<pdfrwt beam="1">  1        2 0.24638359E-01 0.26309341E+03</pdfrwt>
<pdfrwt beam="2">  1       -2 0.66531179E-01 0.26309341E+03</pdfrwt>
<totfact> 0.46644637E+02</totfact>
</mgrwt>
</event>
<event>
 7    1  0.5206756E-006  0.1417233E+03  0.7546771E-02  0.1221704E+00
         -2   -1    0    0    0  501 -0.00000000000E+00  0.00000000000E+00  0.56740052088E+02  0.56740052088E+02  0.00000000000E+00 0.  1.
          2   -1    0    0  501    0  0.00000000000E+00 -0.00000000000E+00 -0.28706662706E+03  0.28706662706E+03  0.00000000000E+00 0. -1.
         23    2    1    2    0    0 -0.36110297125E+02 -0.56178929293E+02 -0.13782091945E+03  0.19768688936E+03  0.12500189892E+03 0.  0.
          5    1    3    3  502    0  0.25453495926E+02  0.38975827296E+01 -0.10041211948E+03  0.10376779531E+03  0.47000000000E+01 0.  1.
         -5    1    3    3    0  502 -0.61563793051E+02 -0.60076512023E+02 -0.37408799969E+02  0.93919094048E+02  0.47000000000E+01 0.  1.
        -11    1    1    2    0    0  0.43644217189E+02  0.68079448110E+02 -0.37136659946E+02  0.88987417430E+02  0.00000000000E+00 0. -1.
         11    1    1    2    0    0 -0.75339200645E+01 -0.11900518816E+02 -0.55368995574E+02  0.57132372352E+02  0.00000000000E+00 0.  1.
<mgrwt>
<rscale>  0 0.13395394E+03</rscale>
<asrwt>0</asrwt>
<pdfrwt beam="2">  1        2 0.44164097E-01 0.14172332E+03</pdfrwt>
<pdfrwt beam="1">  1       -2 0.87292387E-02 0.14172332E+03</pdfrwt>
<totfact> 0.89849442E+03</totfact>
</mgrwt>
</event>
<event>
 7    1  0.5206756E-006  0.1285098E+03  0.7546771E-02  0.1243533E+00
          2   -1    0    0  501    0  0.00000000000E+00  0.00000000000E+00  0.48258572175E+03  0.48258572175E+03  0.00000000000E+00 0. -1.
         -2   -1    0    0    0  501 -0.00000000000E+00 -0.00000000000E+00 -0.33570110500E+02  0.33570110500E+02  0.00000000000E+00 0.  1.
         23    2    1    2    0    0  0.33270528288E+01 -0.29626980948E+02  0.36831769739E+03  0.39009320145E+03  0.12500380926E+03 0.  0.
          5    1    3    3  502    0 -0.35923210767E+02 -0.56231610587E+02  0.12129968827E+03  0.13852138996E+03  0.47000000000E+01 0. -1.
         -5    1    3    3    0  502  0.39250263596E+02  0.26604629639E+02  0.24701800911E+03  0.25157181149E+03  0.47000000000E+01 0. -1.
        -11    1    1    2    0    0  0.65032496426E+01  0.31702159016E+02  0.99562150127E+02  0.10468973627E+03  0.00000000000E+00 0. -1.
         11    1    1    2    0    0 -0.98303024714E+01 -0.20751780682E+01 -0.18864236265E+02  0.21372894529E+02  0.00000000000E+00 0.  1.
<mgrwt>
<rscale>  0 0.11973622E+03</rscale>
<asrwt>0</asrwt>
<pdfrwt beam="1">  1        2 0.74243952E-01 0.12850984E+03</pdfrwt>
<pdfrwt beam="2">  1       -2 0.51646327E-02 0.12850984E+03</pdfrwt>
<totfact> 0.11417458E+04</totfact>
</mgrwt>
</event>
<event>
 7    1  0.5206756E-006  0.1496148E+03  0.7546771E-02  0.1211830E+00
         -1   -1    0    0    0  501 -0.00000000000E+00  0.00000000000E+00  0.51585353564E+02  0.51585353564E+02  0.00000000000E+00 0.  1.
          1   -1    0    0  501    0  0.00000000000E+00 -0.00000000000E+00 -0.39148625885E+03  0.39148625885E+03  0.00000000000E+00 0. -1.
         23    2    1    2    0    0  0.94727561037E+01  0.81664525867E+02 -0.26077878522E+03  0.30064958417E+03  0.12500307896E+03 0.  0.
          5    1    3    3  502    0  0.40395229432E+02  0.51242644264E+01 -0.18159930274E+03  0.18616774533E+03  0.47000000000E+01 0. -1.
         -5    1    3    3    0  502 -0.30922473328E+02  0.76540261441E+02 -0.79179482478E+02  0.11448183884E+03  0.47000000000E+01 0. -1.
        -11    1    1    2    0    0 -0.11711912294E+02 -0.67102227574E+02 -0.66194877539E+01  0.68437529566E+02  0.00000000000E+00 0.  1.
         11    1    1    2    0    0  0.22391561898E+01 -0.14562298293E+02 -0.72502632312E+02  0.73984498675E+02  0.00000000000E+00 0. -1.
<mgrwt>
<rscale>  0 0.14112011E+03</rscale>
<asrwt>0</asrwt>
<pdfrwt beam="2">  1        1 0.60228653E-01 0.14961483E+03</pdfrwt>
<pdfrwt beam="1">  1       -1 0.79362085E-02 0.14961483E+03</pdfrwt>
<totfact> 0.52443438E+03</totfact>
</mgrwt>
</event>
<event>
 7    1  0.5206756E-006  0.1229147E+03  0.7546771E-02  0.1246054E+00
          1   -1    0    0  501    0  0.00000000000E+00  0.00000000000E+00  0.10306027751E+03  0.10306027751E+03  0.00000000000E+00 0. -1.
         -1   -1    0    0    0  501 -0.00000000000E+00 -0.00000000000E+00 -0.13830742948E+03  0.13830742948E+03  0.00000000000E+00 0.  1.
         23    2    1    2    0    0 -0.10683374581E+02 -0.52143549885E+02  0.16691088842E+02  0.12404281387E+03  0.11079234152E+03 0.  0.
          5    1    3    3  502    0 -0.49994869566E+02 -0.44037869080E+02  0.39541541132E+02  0.77617294279E+02  0.47000000000E+01 0. -1.
         -5    1    3    3    0  502  0.39311494985E+02 -0.81056808049E+01 -0.22850452290E+02  0.46425519589E+02  0.47000000000E+01 0.  1.
        -11    1    1    2    0    0 -0.18661023001E+02  0.68563322001E+02 -0.29724295683E+02  0.77024000527E+02  0.00000000000E+00 0. -1.
         11    1    1    2    0    0  0.29344397582E+02 -0.16419772116E+02 -0.22213945129E+02  0.40300892595E+02  0.00000000000E+00 0.  1.
<mgrwt>
<rscale>  0 0.11822501E+03</rscale>
<asrwt>0</asrwt>
<pdfrwt beam="1">  1        1 0.15855427E-01 0.12291472E+03</pdfrwt>
<pdfrwt beam="2">  1       -1 0.21278066E-01 0.12291472E+03</pdfrwt>
<totfact> 0.59521891E+03</totfact>
</mgrwt>
</event>
<event>
 7    1  0.5206756E-006  0.1269705E+03  0.7546771E-02  0.1245714E+00
         -1   -1    0    0    0  501 -0.00000000000E+00  0.00000000000E+00  0.19937091376E+02  0.19937091376E+02  0.00000000000E+00 0.  1.
          1   -1    0    0  501    0  0.00000000000E+00 -0.00000000000E+00 -0.80268008794E+03  0.80268008794E+03  0.00000000000E+00 0. -1.
         23    2    1    2    0    0 -0.19793923344E+02  0.10207135527E+02 -0.62612309970E+03  0.63886746494E+03  0.12500206701E+03 0.  0.
          5    1    3    3  502    0 -0.61738004917E+02 -0.29076724543E+02 -0.30139198998E+03  0.30905704779E+03  0.47000000000E+01 0. -1.
         -5    1    3    3    0  502  0.41944081573E+02  0.39283860069E+02 -0.32473110972E+03  0.32981041715E+03  0.47000000000E+01 0. -1.
        -11    1    1    2    0    0  0.48402830112E+02 -0.27337614518E+02 -0.61232746000E+02  0.82702045398E+02  0.00000000000E+00 0.  1.
         11    1    1    2    0    0 -0.28608906768E+02  0.17130478991E+02 -0.95387150860E+02  0.10104766898E+03  0.00000000000E+00 0. -1.
<mgrwt>
<rscale>  0 0.11842728E+03</rscale>
<asrwt>0</asrwt>
<pdfrwt beam="2">  1        1 0.12348924E+00 0.12697048E+03</pdfrwt>
<pdfrwt beam="1">  1       -1 0.30672448E-02 0.12697048E+03</pdfrwt>
<totfact> 0.80349094E+03</totfact>
</mgrwt>
</event>
<event>
 7    1  0.5206756E-006  0.2382544E+03  0.7546771E-02  0.1123876E+00
         -1   -1    0    0    0  501 -0.00000000000E+00  0.00000000000E+00  0.32081945557E+03  0.32081945557E+03  0.00000000000E+00 0.  1.
          1   -1    0    0  501    0  0.00000000000E+00 -0.00000000000E+00 -0.30829115977E+03  0.30829115977E+03  0.00000000000E+00 0. -1.
         23    2    1    2    0    0  0.20257555798E+03  0.10191036030E+02 -0.20816306022E+03  0.31638112241E+03  0.12499776426E+03 0.  0.
          5    1    3    3  502    0  0.47454798844E+02 -0.49688109152E+02 -0.85036596012E+02  0.10942659085E+03  0.47000000000E+01 0. -1.
         -5    1    3    3    0  502  0.15512075913E+03  0.59879145182E+02 -0.12312646421E+03  0.20695453155E+03  0.47000000000E+01 0. -1.
        -11    1    1    2    0    0 -0.11750321613E+03 -0.13687533350E+02  0.64251865478E+02  0.13462041668E+03  0.00000000000E+00 0. -1.
         11    1    1    2    0    0 -0.85072341850E+02  0.34964973199E+01  0.15643949055E+03  0.17810907625E+03  0.00000000000E+00 0.  1.
<mgrwt>
<rscale>  0 0.23397013E+03</rscale>
<asrwt>0</asrwt>
<pdfrwt beam="2">  1        1 0.47429409E-01 0.23825439E+03</pdfrwt>
<pdfrwt beam="1">  1       -1 0.49356840E-01 0.23825439E+03</pdfrwt>
<totfact> 0.35911113E+02</totfact>
</mgrwt>
</event>
<event>
 7    1  0.5206756E-006  0.2540945E+03  0.7546771E-02  0.1114779E+00
         -1   -1    0    0    0  501 -0.00000000000E+00  0.00000000000E+00  0.17667927237E+02  0.17667927237E+02  0.00000000000E+00 0.  1.
          1   -1    0    0  501    0  0.00000000000E+00 -0.00000000000E+00 -0.36580404202E+04  0.36580404202E+04  0.00000000000E+00 0. -1.
         23    2    1    2    0    0 -0.19267675343E+03  0.10860668998E+03 -0.24723560530E+04  0.24853789430E+04  0.12507714755E+03 0.  0.
          5    1    3    3  502    0 -0.68235910281E+01  0.61813690606E+02 -0.59454405498E+03  0.59780617013E+03  0.47000000000E+01 0.  1.
         -5    1    3    3    0  502 -0.18585316240E+03  0.46792999375E+02 -0.18778119981E+04  0.18875727729E+04  0.47000000000E+01 0.  1.
        -11    1    1    2    0    0  0.15792865683E+03 -0.11141989856E+03 -0.10300835058E+04  0.10480591030E+04  0.00000000000E+00 0.  1.
         11    1    1    2    0    0  0.34748096603E+02  0.28132085766E+01 -0.13793293411E+03  0.14227030144E+03  0.00000000000E+00 0. -1.
<mgrwt>
<rscale>  0 0.24768066E+03</rscale>
<asrwt>0</asrwt>
<pdfrwt beam="2">  1        1 0.56277531E+00 0.25409454E+03</pdfrwt>
<pdfrwt beam="1">  1       -1 0.27181433E-02 0.25409454E+03</pdfrwt>
<totfact> 0.10408928E+02</totfact>
</mgrwt>
</event>
<event>
 7    1  0.5206756E-006  0.1646479E+03  0.7546771E-02  0.1187461E+00
         -2   -1    0    0    0  501 -0.00000000000E+00  0.00000000000E+00  0.10524755782E+03  0.10524755782E+03  0.00000000000E+00 0.  1.
          2   -1    0    0  501    0  0.00000000000E+00 -0.00000000000E+00 -0.37966957754E+03  0.37966957754E+03  0.00000000000E+00 0. -1.
         23    2    1    2    0    0 -0.79335122561E+02  0.86876785917E+02 -0.28971945938E+03  0.33323611711E+03  0.11518379659E+03 0.  0.
          5    1    3    3  502    0 -0.68825573748E+02  0.83346545794E+02 -0.29903887067E+03  0.31800934337E+03  0.47000000000E+01 0. -1.
         -5    1    3    3    0  502 -0.10509548813E+02  0.35302401229E+01  0.93194112908E+01  0.15226773735E+02  0.47000000000E+01 0.  1.
        -11    1    1    2    0    0  0.81272533195E+02 -0.51110802872E+02  0.44163703542E+02  0.10567862382E+03  0.00000000000E+00 0.  1.
         11    1    1    2    0    0 -0.19374106340E+01 -0.35765983045E+02 -0.28866263878E+02  0.46002394431E+02  0.00000000000E+00 0. -1.
<mgrwt>
<rscale>  0 0.16109982E+03</rscale>
<asrwt>0</asrwt>
<pdfrwt beam="2">  1        2 0.58410703E-01 0.16464794E+03</pdfrwt>
<pdfrwt beam="1">  1       -2 0.16191932E-01 0.16464794E+03</pdfrwt>
<totfact> 0.24990693E+03</totfact>
</mgrwt>
</event>
<event>
 7    1  0.5206756E-006  0.1389981E+03  0.7546771E-02  0.1226176E+00
         -2   -1    0    0    0  501 -0.00000000000E+00  0.00000000000E+00  0.33770615796E+02  0.33770615796E+02  0.00000000000E+00 0.  1.
          2   -1    0    0  501    0  0.00000000000E+00 -0.00000000000E+00 -0.51825919698E+03  0.51825919698E+03  0.00000000000E+00 0. -1.
         23    2    1    2    0    0 -0.21869779778E+02 -0.56708181057E+02 -0.36281050533E+03  0.38852531721E+03  0.12500541696E+03 0.  0.
          5    1    3    3  502    0 -0.31981363431E+01  0.39706798578E+02 -0.12167680845E+03  0.12811788963E+03  0.47000000000E+01 0. -1.
         -5    1    3    3    0  502 -0.18671643435E+02 -0.96414979635E+02 -0.24113369688E+03  0.26040742757E+03  0.47000000000E+01 0. -1.
        -11    1    1    2    0    0 -0.54865014054E+01  0.70199737447E+02 -0.52283532796E+02  0.87702181484E+02  0.00000000000E+00 0.  1.
         11    1    1    2    0    0  0.27356281184E+02 -0.13491556391E+02 -0.69394543060E+02  0.75802314084E+02  0.00000000000E+00 0. -1.
<mgrwt>
<rscale>  0 0.13086643E+03</rscale>
<asrwt>0</asrwt>
<pdfrwt beam="2">  1        2 0.79732173E-01 0.13899806E+03</pdfrwt>
<pdfrwt beam="1">  1       -2 0.51954801E-02 0.13899806E+03</pdfrwt>
<totfact> 0.10522481E+04</totfact>
</mgrwt>
</event>
<event>
 6    1  0.5206756E-006  0.4516716E+03  0.7546771E-02  0.1030171E+00
         -1   -1    0    0    0  501 -0.00000000000E+00  0.00000000000E+00  0.25398468429E+03  0.25398468429E+03  0.00000000000E+00 0.  1.
          1   -1    0    0  501    0  0.00000000000E+00 -0.00000000000E+00 -0.78198121531E+03  0.78198121531E+03  0.00000000000E+00 0. -1.
          5    1    1    2  502    0 -0.52156975244E+02  0.12180989751E+03 -0.54543077737E+02  0.14337028467E+03  0.47000000000E+01 0. -1.
         -5    1    1    2    0  502 -0.28919958034E+03  0.93106008473E+02 -0.34416250450E+03  0.45910243474E+03  0.47000000000E+01 0.  1.
        -11    1    1    2    0    0  0.11409665619E+03 -0.11584698025E+03 -0.77948248912E+02  0.18031777310E+03  0.00000000000E+00 0. -1.
         11    1    1    2    0    0  0.22725989939E+03 -0.99068925739E+02 -0.51342699872E+02  0.25317540708E+03  0.00000000000E+00 0.  1.
<mgrwt>
<rscale>  0 0.44188079E+03</rscale>
<asrwt>0</asrwt>
<pdfrwt beam="2">  1        1 0.12030480E+00 0.45167160E+03</pdfrwt>
<pdfrwt beam="1">  1       -1 0.39074568E-01 0.45167160E+03</pdfrwt>
<totfact> 0.15171818E+02</totfact>
</mgrwt>
</event>
<event>
 7    1  0.5206756E-006  0.1922639E+03  0.7546771E-02  0.1161079E+00
         -2   -1    0    0    0  501 -0.00000000000E+00  0.00000000000E+00  0.25410760132E+02  0.25410760132E+02  0.00000000000E+00 0.  1.
          2   -1    0    0  501    0  0.00000000000E+00 -0.00000000000E+00 -0.13168602060E+04  0.13168602060E+04  0.00000000000E+00 0. -1.
         23    2    1    2    0    0 -0.10454348266E+03 -0.10203315606E+03 -0.73166788265E+03  0.75650729465E+03  0.12500116662E+03 0.  0.
          5    1    3    3  502    0 -0.95967829334E+00  0.37132709543E+01 -0.30145348286E+03  0.30151451324E+03  0.47000000000E+01 0. -1.
         -5    1    3    3    0  502 -0.10358380436E+03 -0.10574642702E+03 -0.43021439979E+03  0.45499278141E+03  0.47000000000E+01 0. -1.
        -11    1    1    2    0    0  0.84544767517E+00  0.56462353989E+02 -0.13975032714E+03  0.15072778819E+03  0.00000000000E+00 0.  1.
         11    1    1    2    0    0  0.10369803498E+03  0.45570802075E+02 -0.42003123610E+03  0.43503588330E+03  0.00000000000E+00 0. -1.
<mgrwt>
<rscale>  0 0.18712598E+03</rscale>
<asrwt>0</asrwt>
<pdfrwt beam="2">  1        2 0.20259391E+00 0.19226387E+03</pdfrwt>
<pdfrwt beam="1">  1       -2 0.39093470E-02 0.19226387E+03</pdfrwt>
<totfact> 0.48481791E+03</totfact>
</mgrwt>
</event>
<event>
 6    1  0.5206756E-006  0.1636128E+03  0.7546771E-02  0.1209692E+00
          2   -1    0    0  501    0  0.00000000000E+00  0.00000000000E+00  0.15447190398E+04  0.15447190398E+04  0.00000000000E+00 0. -1.
         -2   -1    0    0    0  501 -0.00000000000E+00 -0.00000000000E+00 -0.12450351196E+02  0.12450351196E+02  0.00000000000E+00 0.  1.
          5    1    1    2  502    0 -0.81874815734E+02 -0.33379245107E+02  0.89550682303E+03  0.89987344641E+03  0.47000000000E+01 0. -1.
         -5    1    1    2    0  502  0.64255490064E+02  0.11299950451E+02  0.32190355032E+03  0.32848202781E+03  0.47000000000E+01 0.  1.
        -11    1    1    2    0    0 -0.12583061475E+02 -0.30386634289E+02  0.85702185659E+02  0.91796217821E+02  0.00000000000E+00 0. -1.
         11    1    1    2    0    0  0.30202387144E+02  0.52465928945E+02  0.22915612955E+03  0.23701769892E+03  0.00000000000E+00 0.  1.
<mgrwt>
<rscale>  0 0.14273802E+03</rscale>
<asrwt>0</asrwt>
<pdfrwt beam="1">  1        2 0.23764893E+00 0.16361282E+03</pdfrwt>
<pdfrwt beam="2">  1       -2 0.19154399E-02 0.16361282E+03</pdfrwt>
<totfact> 0.10453829E+04</totfact>
</mgrwt>
</event>
<event>
 7    1  0.5206756E-006  0.1798641E+03  0.7546771E-02  0.1173725E+00
          2   -1    0    0  501    0  0.00000000000E+00  0.00000000000E+00  0.36793010893E+03  0.36793010893E+03  0.00000000000E+00 0. -1.
         -2   -1    0    0    0  501 -0.00000000000E+00 -0.00000000000E+00 -0.85816079207E+02  0.85816079207E+02  0.00000000000E+00 0.  1.
         23    2    1    2    0    0 -0.12863353730E+03 -0.13446109008E+02  0.22047875456E+03  0.28453818569E+03  0.12499485245E+03 0.  0.
          5    1    3    3  502    0 -0.93216547115E+02 -0.23095936778E+02  0.46752927258E+02  0.10691432626E+03  0.47000000000E+01 0.  1.
         -5    1    3    3    0  502 -0.35416990187E+02  0.96498277698E+01  0.17372582730E+03  0.17762385944E+03  0.47000000000E+01 0.  1.
        -11    1    1    2    0    0  0.41033930605E+02  0.61472788986E+01 -0.22781352190E+02  0.47334580450E+02  0.00000000000E+00 0.  1.
         11    1    1    2    0    0  0.87599606697E+02  0.72988301092E+01  0.84416627352E+02  0.12187342199E+03  0.00000000000E+00 0. -1.
<mgrwt>
<rscale>  0 0.17401465E+03</rscale>
<asrwt>0</asrwt>
<pdfrwt beam="1">  1        2 0.56604631E-01 0.17986411E+03</pdfrwt>
<pdfrwt beam="2">  1       -2 0.13202474E-01 0.17986411E+03</pdfrwt>
<totfact> 0.36235488E+03</totfact>
</mgrwt>
</event>
<event>
 7    1  0.5206756E-006  0.1369343E+03  0.7546771E-02  0.1243072E+00
         -1   -1    0    0    0  501 -0.00000000000E+00  0.00000000000E+00  0.82188860265E+02  0.82188860265E+02  0.00000000000E+00 0.  1.
          1   -1    0    0  501    0  0.00000000000E+00 -0.00000000000E+00 -0.14485154897E+03  0.14485154897E+03  0.00000000000E+00 0. -1.
         23    2    1    2    0    0  0.16692449201E+02  0.53349425842E+02 -0.32042585318E+02  0.14063328965E+03  0.12500478305E+03 0.  0.
          5    1    3    3  502    0  0.69773301214E+01  0.10995166737E+02  0.47716043457E+02  0.49683876966E+02  0.47000000000E+01 0. -1.
         -5    1    3    3    0  502  0.97151190792E+01  0.42354259105E+02 -0.79758628774E+02  0.90949412681E+02  0.47000000000E+01 0. -1.
        -11    1    1    2    0    0 -0.24709258626E+02  0.60620127052E+00 -0.19755496891E+01  0.24795518515E+02  0.00000000000E+00 0.  1.
         11    1    1    2    0    0  0.80168094257E+01 -0.53955627113E+02 -0.28644553702E+02  0.61611601077E+02  0.00000000000E+00 0. -1.
<mgrwt>
<rscale>  0 0.12001530E+03</rscale>
<asrwt>0</asrwt>
<pdfrwt beam="2">  1        1 0.22284853E-01 0.13693427E+03</pdfrwt>
<pdfrwt beam="1">  1       -1 0.12644440E-01 0.13693427E+03</pdfrwt>
<totfact> 0.88362378E+03</totfact>
</mgrwt>
</event>
<event>
 7    1  0.5206756E-006  0.1516093E+03  0.7546771E-02  0.1207073E+00
         -4   -1    0    0    0  501 -0.00000000000E+00  0.00000000000E+00  0.56656910208E+02  0.56656910208E+02  0.00000000000E+00 0.  1.
          4   -1    0    0  501    0  0.00000000000E+00 -0.00000000000E+00 -0.35165489455E+03  0.35165489455E+03  0.00000000000E+00 0. -1.
         23    2    1    2    0    0 -0.82428256734E+02  0.23805986582E+02 -0.19762669689E+03  0.24908166905E+03  0.12499689608E+03 0.  0.
          5    1    3    3  502    0 -0.96650278495E+02  0.21661658342E+01 -0.71749275100E+02  0.12048243476E+03  0.47000000000E+01 0. -1.
         -5    1    3    3    0  502  0.14222021760E+02  0.21639820747E+02 -0.12587742179E+03  0.12859923430E+03  0.47000000000E+01 0. -1.
        -11    1    1    2    0    0  0.96033765720E+02 -0.26559364622E+02 -0.10384324461E+03  0.14391422258E+03  0.00000000000E+00 0. -1.
         11    1    1    2    0    0 -0.13605508986E+02  0.27533780405E+01  0.64719571638E+01  0.15315913128E+02  0.00000000000E+00 0.  1.
<mgrwt>
<rscale>  0 0.14475278E+03</rscale>
<asrwt>0</asrwt>
<pdfrwt beam="2">  1        4 0.54100753E-01 0.15160926E+03</pdfrwt>
<pdfrwt beam="1">  1       -4 0.87164477E-02 0.15160926E+03</pdfrwt>
<totfact> 0.53437355E+02</totfact>
</mgrwt>
</event>
<event>
 7    1  0.5206756E-006  0.2139544E+03  0.7546771E-02  0.1145002E+00
         -2   -1    0    0    0  501 -0.00000000000E+00  0.00000000000E+00  0.46461176024E+02  0.46461176024E+02  0.00000000000E+00 0.  1.
          2   -1    0    0  501    0  0.00000000000E+00 -0.00000000000E+00 -0.10849636690E+04  0.10849636690E+04  0.00000000000E+00 0. -1.
         23    2    1    2    0    0 -0.47846446535E+01 -0.17357561330E+03 -0.81515976060E+03  0.84277038249E+03  0.12500038376E+03 0.  0.
          5    1    3    3  502    0  0.33579795288E+02 -0.60833561769E+01 -0.69691305804E+02  0.77740452653E+02  0.47000000000E+01 0.  1.
         -5    1    3    3    0  502 -0.38364439942E+02 -0.16749225713E+03 -0.74546845479E+03  0.76502992983E+03  0.47000000000E+01 0.  1.
        -11    1    1    2    0    0  0.16845747242E+01  0.11500211384E+03 -0.10136854190E+03  0.15330983421E+03  0.00000000000E+00 0.  1.
         11    1    1    2    0    0  0.31000699292E+01  0.58573499463E+02 -0.12197419047E+03  0.13534462832E+03  0.00000000000E+00 0. -1.
<mgrwt>
<rscale>  0 0.20571845E+03</rscale>
<asrwt>0</asrwt>
<pdfrwt beam="2">  1        2 0.16691747E+00 0.21395439E+03</pdfrwt>
<pdfrwt beam="1">  1       -2 0.71478741E-02 0.21395439E+03</pdfrwt>
<totfact> 0.26209367E+03</totfact>
</mgrwt>
</event>
<event>
 7    1  0.5206756E-006  0.1313288E+03  0.7546771E-02  0.1264446E+00
         -1   -1    0    0    0  501 -0.00000000000E+00  0.00000000000E+00  0.12948223616E+02  0.12948223616E+02  0.00000000000E+00 0.  1.
          1   -1    0    0  501    0  0.00000000000E+00 -0.00000000000E+00 -0.70622614523E+03  0.70622614523E+03  0.00000000000E+00 0. -1.
         23    2    1    2    0    0  0.56033640872E+02 -0.23937729467E+01 -0.47919575666E+03  0.49686600868E+03  0.11875082450E+03 0.  0.
          5    1    3    3  502    0  0.67121869823E+02  0.70196132801E+01 -0.47658061679E+03  0.48135828099E+03  0.47000000000E+01 0. -1.
         -5    1    3    3    0  502 -0.11088228951E+02 -0.94133862268E+01 -0.26151398725E+01  0.15507727689E+02  0.47000000000E+01 0.  1.
        -11    1    1    2    0    0 -0.41521707245E+02 -0.75528392640E+01 -0.15729528745E+03  0.16285854294E+03  0.00000000000E+00 0.  1.
         11    1    1    2    0    0 -0.14511933627E+02  0.99466122107E+01 -0.56786877501E+02  0.59449817227E+02  0.00000000000E+00 0. -1.
<mgrwt>
<rscale>  0 0.10793301E+03</rscale>
<asrwt>0</asrwt>
<pdfrwt beam="2">  1        1 0.10865016E+00 0.13132881E+03</pdfrwt>
<pdfrwt beam="1">  1       -1 0.19920348E-02 0.13132881E+03</pdfrwt>
<totfact> 0.18150571E+04</totfact>
</mgrwt>
</event>
<event>
 7    1  0.5206756E-006  0.1906976E+03  0.7546771E-02  0.1162618E+00
          2   -1    0    0  501    0  0.00000000000E+00  0.00000000000E+00  0.66234570925E+03  0.66234570925E+03  0.00000000000E+00 0. -1.
         -2   -1    0    0    0  501 -0.00000000000E+00 -0.00000000000E+00 -0.52087769784E+02  0.52087769784E+02  0.00000000000E+00 0.  1.
         23    2    1    2    0    0  0.28763792589E+02 -0.14122415034E+03  0.40411793025E+03  0.44685220365E+03  0.12487583413E+03 0.  0.
          5    1    3    3  502    0 -0.70817139750E+01  0.21789955050E+02  0.41488186726E+02  0.47626803921E+02  0.47000000000E+01 0. -1.
         -5    1    3    3    0  502  0.35845506564E+02 -0.16301410539E+03  0.36262974353E+03  0.39922539973E+03  0.47000000000E+01 0.  1.
        -11    1    1    2    0    0  0.14965423908E+02  0.12119291961E+03  0.13950849825E+03  0.18540309803E+03  0.00000000000E+00 0. -1.
         11    1    1    2    0    0 -0.43729216497E+02  0.20031230733E+02  0.66631510964E+02  0.82178177356E+02  0.00000000000E+00 0.  1.
<mgrwt>
<rscale>  0 0.18546283E+03</rscale>
<asrwt>0</asrwt>
<pdfrwt beam="1">  1        2 0.10189933E+00 0.19069764E+03</pdfrwt>
<pdfrwt beam="2">  1       -2 0.80135035E-02 0.19069764E+03</pdfrwt>
<totfact> 0.41662331E+03</totfact>
</mgrwt>
</event>
<event>
 7    1  0.5206756E-006  0.1382208E+03  0.7546771E-02  0.1227886E+00
          1   -1    0    0  501    0  0.00000000000E+00  0.00000000000E+00  0.40120116731E+03  0.40120116731E+03  0.00000000000E+00 0. -1.
         -1   -1    0    0    0  501 -0.00000000000E+00 -0.00000000000E+00 -0.38838052014E+02  0.38838052014E+02  0.00000000000E+00 0.  1.
         23    2    1    2    0    0  0.97271110222E+01  0.58177520089E+02  0.24337062641E+03  0.27988258741E+03  0.12500304158E+03 0.  0.
          5    1    3    3  502    0  0.24788045413E+02  0.33575174410E+02  0.80606530334E+01  0.42764514020E+02  0.47000000000E+01 0. -1.
         -5    1    3    3    0  502 -0.15060934390E+02  0.24602345679E+02  0.23530997338E+03  0.23711807339E+03  0.47000000000E+01 0. -1.
        -11    1    1    2    0    0  0.25455688955E+02 -0.50380268252E+02  0.29519168045E+02  0.63698860362E+02  0.00000000000E+00 0.  1.
         11    1    1    2    0    0 -0.35182799977E+02 -0.77972518374E+01  0.89473320836E+02  0.96457771547E+02  0.00000000000E+00 0. -1.
<mgrwt>
<rscale>  0 0.12971033E+03</rscale>
<asrwt>0</asrwt>
<pdfrwt beam="1">  1        1 0.61723254E-01 0.13822084E+03</pdfrwt>
<pdfrwt beam="2">  1       -1 0.59750852E-02 0.13822084E+03</pdfrwt>
<totfact> 0.77479316E+03</totfact>
</mgrwt>
</event>
<event>
 7    1  0.5206756E-006  0.2094180E+03  0.7546771E-02  0.1144076E+00
          2   -1    0    0  501    0  0.00000000000E+00  0.00000000000E+00  0.17191569008E+03  0.17191569008E+03  0.00000000000E+00 0. -1.
         -2   -1    0    0    0  501 -0.00000000000E+00 -0.00000000000E+00 -0.34425758999E+03  0.34425758999E+03  0.00000000000E+00 0.  1.
         23    2    1    2    0    0 -0.13776663242E+03 -0.96154531082E+02  0.52266256288E+02  0.21584170248E+03  0.12502215856E+03 0.  0.
          5    1    3    3  502    0 -0.27397551188E+02  0.89707363678E+01 -0.30585828200E+02  0.42292822190E+02  0.47000000000E+01 0.  1.
         -5    1    3    3    0  502 -0.11036908123E+03 -0.10512526745E+03  0.82852084489E+02  0.17354888030E+03  0.47000000000E+01 0.  1.
        -11    1    1    2    0    0  0.91983475015E+02  0.81727053564E+01 -0.15029703481E+03  0.17639997579E+03  0.00000000000E+00 0.  1.
         11    1    1    2    0    0  0.45783157402E+02  0.87981825725E+02 -0.74311121389E+02  0.12393160179E+03  0.00000000000E+00 0. -1.
<mgrwt>
<rscale>  0 0.20686065E+03</rscale>
<asrwt>0</asrwt>
<pdfrwt beam="1">  1        2 0.26448568E-01 0.20941795E+03</pdfrwt>
<pdfrwt beam="2">  1       -2 0.52962706E-01 0.20941795E+03</pdfrwt>
<totfact> 0.68939031E+02</totfact>
</mgrwt>
</event>
<event>
 7    1  0.5206756E-006  0.1765777E+03  0.7546771E-02  0.1177201E+00
         -2   -1    0    0    0  501 -0.00000000000E+00  0.00000000000E+00  0.14730955815E+02  0.14730955815E+02  0.00000000000E+00 0.  1.
          2   -1    0    0  501    0  0.00000000000E+00 -0.00000000000E+00 -0.18914792065E+04  0.18914792065E+04  0.00000000000E+00 0. -1.
         23    2    1    2    0    0 -0.12379444192E+03 -0.15146252207E+02 -0.11355121924E+04  0.11491595250E+04  0.12500080747E+03 0.  0.
          5    1    3    3  502    0 -0.13346483912E+03  0.16236463973E+02 -0.10245478031E+04  0.10333425264E+04  0.47000000000E+01 0.  1.
         -5    1    3    3    0  502  0.96703972000E+01 -0.31382716180E+02 -0.11096438931E+03  0.11581699855E+03  0.47000000000E+01 0.  1.
        -11    1    1    2    0    0  0.13751938585E+03  0.10549414228E+02 -0.69672014676E+03  0.71024068775E+03  0.00000000000E+00 0. -1.
         11    1    1    2    0    0 -0.13724943927E+02  0.45968379786E+01 -0.44515911463E+02  0.46809949568E+02  0.00000000000E+00 0.  1.
<mgrwt>
<rscale>  0 0.17062137E+03</rscale>
<asrwt>0</asrwt>
<pdfrwt beam="2">  1        2 0.29099691E+00 0.17657767E+03</pdfrwt>
<pdfrwt beam="1">  1       -2 0.22663001E-02 0.17657767E+03</pdfrwt>
<totfact> 0.54177824E+03</totfact>
</mgrwt>
</event>
<event>
 7    1  0.5206756E-006  0.2220247E+03  0.7546771E-02  0.1134894E+00
          2   -1    0    0  501    0  0.00000000000E+00  0.00000000000E+00  0.58139546576E+03  0.58139546576E+03  0.00000000000E+00 0. -1.
         -2   -1    0    0    0  501 -0.00000000000E+00 -0.00000000000E+00 -0.12209351342E+03  0.12209351342E+03  0.00000000000E+00 0.  1.
         23    2    1    2    0    0  0.16975839119E+03 -0.78859983032E+02  0.44115451147E+03  0.49387475728E+03  0.11940755666E+03 0.  0.
          5    1    3    3  502    0  0.16227956907E+03 -0.10544061925E+03  0.39500451775E+03  0.43988980639E+03  0.47000000000E+01 0. -1.
         -5    1    3    3    0  502  0.74788221156E+01  0.26580636217E+02  0.46149993714E+02  0.53984950882E+02  0.47000000000E+01 0.  1.
        -11    1    1    2    0    0 -0.23269901751E+02  0.54904766437E+02 -0.28591471408E+01  0.59700891345E+02  0.00000000000E+00 0. -1.
         11    1    1    2    0    0 -0.14648848943E+03  0.23955216595E+02  0.21006588013E+02  0.14991333056E+03  0.00000000000E+00 0.  1.
<mgrwt>
<rscale>  0 0.21864913E+03</rscale>
<asrwt>0</asrwt>
<pdfrwt beam="1">  1        2 0.89445455E-01 0.22202471E+03</pdfrwt>
<pdfrwt beam="2">  1       -2 0.18783618E-01 0.22202471E+03</pdfrwt>
<totfact> 0.12249870E+03</totfact>
</mgrwt>
</event>
<event>
 7    1  0.5206756E-006  0.1292479E+03  0.7546771E-02  0.1242711E+00
         -2   -1    0    0    0  501 -0.00000000000E+00  0.00000000000E+00  0.40351453610E+02  0.40351453610E+02  0.00000000000E+00 0.  1.
          2   -1    0    0  501    0  0.00000000000E+00 -0.00000000000E+00 -0.35457075008E+03  0.35457075008E+03  0.00000000000E+00 0. -1.
         23    2    1    2    0    0  0.29602426900E+01 -0.32731910370E+02 -0.24130405085E+03  0.27373829541E+03  0.12499947370E+03 0.  0.
          5    1    3    3  502    0  0.40781157436E+02 -0.26958562101E+02 -0.22758397604E+03  0.23282272875E+03  0.47000000000E+01 0.  1.
         -5    1    3    3    0  502 -0.37820914746E+02 -0.57733482693E+01 -0.13720074811E+02  0.40915566662E+02  0.47000000000E+01 0.  1.
        -11    1    1    2    0    0  0.84707745616E+01 -0.28734694871E+02 -0.78916738639E+01  0.30979270930E+02  0.00000000000E+00 0. -1.
         11    1    1    2    0    0 -0.11431017252E+02  0.61466605241E+02 -0.65023571752E+02  0.90204637345E+02  0.00000000000E+00 0.  1.
<mgrwt>
<rscale>  0 0.12023437E+03</rscale>
<asrwt>0</asrwt>
<pdfrwt beam="2">  1        2 0.54549345E-01 0.12924786E+03</pdfrwt>
<pdfrwt beam="1">  1       -2 0.62079161E-02 0.12924786E+03</pdfrwt>
<totfact> 0.12040253E+04</totfact>
</mgrwt>
</event>
<event>
 7    1  0.5206756E-006  0.1689882E+03  0.7546771E-02  0.1185511E+00
          1   -1    0    0  501    0  0.00000000000E+00  0.00000000000E+00  0.64217808411E+03  0.64217808411E+03  0.00000000000E+00 0. -1.
         -1   -1    0    0    0  501 -0.00000000000E+00 -0.00000000000E+00 -0.38585353955E+02  0.38585353955E+02  0.00000000000E+00 0.  1.
         23    2    1    2    0    0  0.98354282600E+02  0.57077412131E+02  0.33161882128E+03  0.37219358104E+03  0.12500249301E+03 0.  0.
          5    1    3    3  502    0  0.47482709637E+02  0.90062457522E+00  0.20495598570E+02  0.51938217141E+02  0.47000000000E+01 0. -1.
         -5    1    3    3    0  502  0.50871572963E+02  0.56176787556E+02  0.31112322271E+03  0.32025536390E+03  0.47000000000E+01 0. -1.
        -11    1    1    2    0    0 -0.50765335488E+02  0.13681160194E+02  0.15599144255E+03  0.16461355831E+03  0.00000000000E+00 0. -1.
         11    1    1    2    0    0 -0.47588947112E+02 -0.70758572325E+02  0.11598246633E+03  0.14395629872E+03  0.00000000000E+00 0.  1.
<mgrwt>
<rscale>  0 0.16285490E+03</rscale>
<asrwt>0</asrwt>
<pdfrwt beam="1">  1        1 0.98796621E-01 0.16898822E+03</pdfrwt>
<pdfrwt beam="2">  1       -1 0.59362087E-02 0.16898822E+03</pdfrwt>
<totfact> 0.42511243E+03</totfact>
</mgrwt>
</event>
<event>
 7    1  0.5206756E-006  0.1391142E+03  0.7546771E-02  0.1241948E+00
          1   -1    0    0  501    0  0.00000000000E+00  0.00000000000E+00  0.10017420460E+03  0.10017420460E+03  0.00000000000E+00 0. -1.
         -1   -1    0    0    0  501 -0.00000000000E+00 -0.00000000000E+00 -0.12045839366E+03  0.12045839366E+03  0.00000000000E+00 0.  1.
         23    2    1    2    0    0 -0.20884591948E+02 -0.57385934051E+02  0.46672758749E+00  0.13911495010E+03  0.12499375944E+03 0.  0.
          5    1    3    3  502    0 -0.67702948756E+02 -0.49239804040E+02  0.22068508339E+02  0.86702691033E+02  0.47000000000E+01 0. -1.
         -5    1    3    3    0  502  0.46818356808E+02 -0.81461300114E+01 -0.21601780752E+02  0.52412259063E+02  0.47000000000E+01 0. -1.
        -11    1    1    2    0    0  0.37452408422E+02  0.39509115535E+02 -0.13499918452E+02  0.56088331275E+02  0.00000000000E+00 0.  1.
         11    1    1    2    0    0 -0.16567816474E+02  0.17876818516E+02 -0.72509981961E+01  0.25429316897E+02  0.00000000000E+00 0. -1.
<mgrwt>
<rscale>  0 0.12069924E+03</rscale>
<asrwt>0</asrwt>
<pdfrwt beam="1">  1        1 0.15411416E-01 0.13911417E+03</pdfrwt>
<pdfrwt beam="2">  1       -1 0.18532060E-01 0.13911417E+03</pdfrwt>
<totfact> 0.77748622E+03</totfact>
</mgrwt>
</event>
<event>
 7    1  0.5206756E-006  0.1323060E+03  0.7546771E-02  0.1237969E+00
         -2   -1    0    0    0  501 -0.00000000000E+00  0.00000000000E+00  0.16003321200E+02  0.16003321200E+02  0.00000000000E+00 0.  1.
          2   -1    0    0  501    0  0.00000000000E+00 -0.00000000000E+00 -0.84546506141E+03  0.84546506141E+03  0.00000000000E+00 0. -1.
         23    2    1    2    0    0  0.16304061622E+02  0.40147003671E+02 -0.51235662449E+03  0.52916368015E+03  0.12500914128E+03 0.  0.
          5    1    3    3  502    0  0.21463959450E+02 -0.34860222742E+02 -0.31900596185E+03  0.32165638557E+03  0.47000000000E+01 0. -1.
         -5    1    3    3    0  502 -0.51598978279E+01  0.75007226412E+02 -0.19335066264E+03  0.20750729458E+03  0.47000000000E+01 0. -1.
        -11    1    1    2    0    0  0.27941442515E+02 -0.39763515922E+02 -0.22412138506E+03  0.22933001690E+03  0.00000000000E+00 0. -1.
         11    1    1    2    0    0 -0.44245504137E+02 -0.38348774811E+00 -0.92983730668E+02  0.10297468557E+03  0.00000000000E+00 0.  1.
<mgrwt>
<rscale>  0 0.12316253E+03</rscale>
<asrwt>0</asrwt>
<pdfrwt beam="2">  1        2 0.13007160E+00 0.13230605E+03</pdfrwt>
<pdfrwt beam="1">  1       -2 0.24620484E-02 0.13230605E+03</pdfrwt>
<totfact> 0.17828242E+04</totfact>
</mgrwt>
</event>
<event>
 7    1  0.5206756E-006  0.1352204E+03  0.7546771E-02  0.1232684E+00
          1   -1    0    0  501    0  0.00000000000E+00  0.00000000000E+00  0.22885132765E+03  0.22885132765E+03  0.00000000000E+00 0. -1.
         -1   -1    0    0    0  501 -0.00000000000E+00 -0.00000000000E+00 -0.81811653726E+02  0.81811653726E+02  0.00000000000E+00 0.  1.
         23    2    1    2    0    0 -0.30962817973E+02  0.63588453535E+02  0.15615670787E+03  0.20656591641E+03  0.11524917740E+03 0.  0.
          5    1    3    3  502    0 -0.70643496839E+02  0.35569192890E+02  0.62347640722E+02  0.10082157226E+03  0.47000000000E+01 0. -1.
         -5    1    3    3    0  502  0.39680678867E+02  0.28019260645E+02  0.93809067144E+02  0.10574434416E+03  0.47000000000E+01 0.  1.
        -11    1    1    2    0    0  0.29303194924E+02 -0.50976678909E+02  0.27807584402E+02  0.65042761131E+02  0.00000000000E+00 0.  1.
         11    1    1    2    0    0  0.16596230489E+01 -0.12611774626E+02 -0.36924618345E+02  0.39054303832E+02  0.00000000000E+00 0. -1.
<mgrwt>
<rscale>  0 0.12653868E+03</rscale>
<asrwt>0</asrwt>
<pdfrwt beam="1">  1        1 0.35207896E-01 0.13522041E+03</pdfrwt>
<pdfrwt beam="2">  1       -1 0.12586408E-01 0.13522041E+03</pdfrwt>
<totfact> 0.50229074E+03</totfact>
</mgrwt>
</event>
<event>
 7    1  0.5206756E-006  0.1278460E+03  0.7546771E-02  0.1246047E+00
          1   -1    0    0  501    0  0.00000000000E+00  0.00000000000E+00  0.42894359005E+02  0.42894359005E+02  0.00000000000E+00 0. -1.
         -1   -1    0    0    0  501 -0.00000000000E+00 -0.00000000000E+00 -0.40498108301E+03  0.40498108301E+03  0.00000000000E+00 0.  1.
         23    2    1    2    0    0  0.26775972483E+02 -0.10082759281E+01 -0.80283030589E+02  0.15096343680E+03  0.12500649953E+03 0.  0.
          5    1    3    3  502    0  0.62536829096E+02 -0.27872801944E+02 -0.12714524342E+02  0.69796111718E+02  0.47000000000E+01 0. -1.
         -5    1    3    3    0  502 -0.35760856614E+02  0.26864526016E+02 -0.67568506247E+02  0.81167325078E+02  0.47000000000E+01 0. -1.
        -11    1    1    2    0    0 -0.39847765535E+02  0.36366019103E+02 -0.13587153887E+03  0.14618962630E+03  0.00000000000E+00 0. -1.
         11    1    1    2    0    0  0.13071793052E+02 -0.35357743175E+02 -0.14593215455E+03  0.15072237892E+03  0.00000000000E+00 0.  1.
<mgrwt>
<rscale>  0 0.11822939E+03</rscale>
<asrwt>0</asrwt>
<pdfrwt beam="1">  1        1 0.65991323E-02 0.12784598E+03</pdfrwt>
<pdfrwt beam="2">  1       -1 0.62304780E-01 0.12784598E+03</pdfrwt>
<totfact> 0.29404236E+03</totfact>
</mgrwt>
</event>
<event>
 7    1  0.5206756E-006  0.1284421E+03  0.7546771E-02  0.1243542E+00
          2   -1    0    0  501    0  0.00000000000E+00  0.00000000000E+00  0.14450108539E+04  0.14450108539E+04  0.00000000000E+00 0. -1.
         -2   -1    0    0    0  501 -0.00000000000E+00 -0.00000000000E+00 -0.12135996734E+02  0.12135996734E+02  0.00000000000E+00 0.  1.
         23    2    1    2    0    0  0.10288546028E+02 -0.27676886936E+02  0.11686217721E+04  0.11756590615E+04  0.12500207365E+03 0.  0.
          5    1    3    3  502    0  0.16335995231E+01  0.31692048589E+01  0.10974697122E+04  0.10974855679E+04  0.47000000000E+01 0.  1.
         -5    1    3    3    0  502  0.86549465053E+01 -0.30846091795E+02  0.71152059959E+02  0.78173493682E+02  0.47000000000E+01 0.  1.
        -11    1    1    2    0    0 -0.41205491738E+02  0.26948677963E+02  0.23054016171E+03  0.23573902934E+03  0.00000000000E+00 0. -1.
         11    1    1    2    0    0  0.30916945709E+02  0.72820897325E+00  0.33712923319E+02  0.45748759754E+02  0.00000000000E+00 0.  1.
<mgrwt>
<rscale>  0 0.11973040E+03</rscale>
<asrwt>0</asrwt>
<pdfrwt beam="1">  1        2 0.22230923E+00 0.12844214E+03</pdfrwt>
<pdfrwt beam="2">  1       -2 0.18670776E-02 0.12844214E+03</pdfrwt>
<totfact> 0.12102527E+04</totfact>
</mgrwt>
</event>
<event>
 7    1  0.5206756E-006  0.1361957E+03  0.7546771E-02  0.1230085E+00
          1   -1    0    0  501    0  0.00000000000E+00  0.00000000000E+00  0.28788960650E+03  0.28788960650E+03  0.00000000000E+00 0. -1.
         -1   -1    0    0    0  501 -0.00000000000E+00 -0.00000000000E+00 -0.51696600646E+02  0.51696600646E+02  0.00000000000E+00 0.  1.
         23    2    1    2    0    0 -0.53819403635E+02 -0.51551483165E+01  0.11913381964E+03  0.18094784503E+03  0.12500460742E+03 0.  0.
          5    1    3    3  502    0 -0.94435041599E+02  0.23916761541E+01  0.80823093485E+02  0.12441125205E+03  0.47000000000E+01 0. -1.
         -5    1    3    3    0  502  0.40615637964E+02 -0.75468244706E+01  0.38310726159E+02  0.56536592979E+02  0.47000000000E+01 0. -1.
        -11    1    1    2    0    0  0.71839189692E+02 -0.13157816827E+02  0.10992301682E+03  0.13197373582E+03  0.00000000000E+00 0. -1.
         11    1    1    2    0    0 -0.18019786058E+02  0.18312965144E+02  0.71361693895E+01  0.26664626295E+02  0.00000000000E+00 0.  1.
<mgrwt>
<rscale>  0 0.12824370E+03</rscale>
<asrwt>0</asrwt>
<pdfrwt beam="1">  1        1 0.44290708E-01 0.13619565E+03</pdfrwt>
<pdfrwt beam="2">  1       -1 0.79533233E-02 0.13619565E+03</pdfrwt>
<totfact> 0.76256745E+03</totfact>
</mgrwt>
</event>
<event>
 7    1  0.5206756E-006  0.1295708E+03  0.7546771E-02  0.1242168E+00
          1   -1    0    0  501    0  0.00000000000E+00  0.00000000000E+00  0.29753200634E+02  0.29753200634E+02  0.00000000000E+00 0. -1.
         -1   -1    0    0    0  501 -0.00000000000E+00 -0.00000000000E+00 -0.47147840950E+03  0.47147840950E+03  0.00000000000E+00 0.  1.
         23    2    1    2    0    0  0.34008666426E+02  0.27444171009E+01 -0.17782558482E+03  0.22002396078E+03  0.12499793391E+03 0.  0.
          5    1    3    3  502    0 -0.29632255803E+01 -0.34124826259E+02  0.59903868446E-01  0.34574239855E+02  0.47000000000E+01 0. -1.
         -5    1    3    3    0  502  0.36971892006E+02  0.36869243360E+02 -0.17788548869E+03  0.18544972092E+03  0.47000000000E+01 0. -1.
        -11    1    1    2    0    0  0.11311107420E+02 -0.35579312356E+02 -0.14602842635E+03  0.15072534598E+03  0.00000000000E+00 0.  1.
         11    1    1    2    0    0 -0.45319773846E+02  0.32834895255E+02 -0.11787119770E+03  0.13048230338E+03  0.00000000000E+00 0. -1.
<mgrwt>
<rscale>  0 0.12056511E+03</rscale>
<asrwt>0</asrwt>
<pdfrwt beam="1">  1        1 0.45774156E-02 0.12957085E+03</pdfrwt>
<pdfrwt beam="2">  1       -1 0.72535139E-01 0.12957085E+03</pdfrwt>
<totfact> 0.35977812E+03</totfact>
</mgrwt>
</event>
<event>
 7    1  0.5206756E-006  0.1709924E+03  0.7546771E-02  0.1183133E+00
          1   -1    0    0  501    0  0.00000000000E+00  0.00000000000E+00  0.81885677987E+03  0.81885677987E+03  0.00000000000E+00 0. -1.
         -1   -1    0    0    0  501 -0.00000000000E+00 -0.00000000000E+00 -0.32386632162E+02  0.32386632162E+02  0.00000000000E+00 0.  1.
         23    2    1    2    0    0 -0.60482019992E+02  0.99771395609E+02  0.50345571913E+03  0.53170111367E+03  0.12500402802E+03 0.  0.
          5    1    3    3  502    0 -0.79104810424E+02  0.11283752585E+03  0.47683320609E+03  0.49636868827E+03  0.47000000000E+01 0.  1.
         -5    1    3    3    0  502  0.18622790432E+02 -0.13066130244E+02  0.26622513047E+02  0.35332425391E+02  0.47000000000E+01 0.  1.
        -11    1    1    2    0    0 -0.21065989081E+02 -0.31477084315E+02  0.44845194282E+02  0.58699865273E+02  0.00000000000E+00 0.  1.
         11    1    1    2    0    0  0.81548009073E+02 -0.68294311294E+02  0.23816923429E+03  0.26084243309E+03  0.00000000000E+00 0. -1.
<mgrwt>
<rscale>  0 0.16502907E+03</rscale>
<asrwt>0</asrwt>
<pdfrwt beam="1">  1        1 0.12597795E+00 0.17099244E+03</pdfrwt>
<pdfrwt beam="2">  1       -1 0.49825594E-02 0.17099244E+03</pdfrwt>
<totfact> 0.38708014E+03</totfact>
</mgrwt>
</event>
<event>
 6    1  0.5206756E-006  0.1413599E+03  0.7546771E-02  0.1225541E+00
          4   -1    0    0  501    0  0.00000000000E+00  0.00000000000E+00  0.21230626631E+03  0.21230626631E+03  0.00000000000E+00 0. -1.
         -4   -1    0    0    0  501 -0.00000000000E+00 -0.00000000000E+00 -0.18768408671E+03  0.18768408671E+03  0.00000000000E+00 0.  1.
          5    1    1    2  502    0 -0.28595562672E+02 -0.36790684003E+02  0.55908691343E+02  0.72932382394E+02  0.47000000000E+01 0. -1.
         -5    1    1    2    0  502  0.27307692542E+02  0.90373542334E+02  0.11373649632E+03  0.14788903888E+03  0.47000000000E+01 0.  1.
        -11    1    1    2    0    0  0.15512874947E+02 -0.56819168543E+02 -0.15198929715E+03  0.16300249585E+03  0.00000000000E+00 0.  1.
         11    1    1    2    0    0 -0.14225004818E+02  0.32363102119E+01  0.69662890986E+01  0.16166435898E+02  0.00000000000E+00 0. -1.
<mgrwt>
<rscale>  0 0.13129924E+03</rscale>
<asrwt>0</asrwt>
<pdfrwt beam="1">  1        4 0.32662502E-01 0.14135986E+03</pdfrwt>
<pdfrwt beam="2">  1       -4 0.28874475E-01 0.14135986E+03</pdfrwt>
<totfact> 0.17382943E+02</totfact>
</mgrwt>
</event>
<event>
 6    1  0.5206756E-006  0.2009352E+03  0.7546771E-02  0.1161767E+00
          1   -1    0    0  501    0  0.00000000000E+00  0.00000000000E+00  0.10815890165E+04  0.10815890165E+04  0.00000000000E+00 0. -1.
         -1   -1    0    0    0  501 -0.00000000000E+00 -0.00000000000E+00 -0.28651242560E+02  0.28651242560E+02  0.00000000000E+00 0.  1.
          5    1    1    2  502    0  0.10159818133E+03  0.94948240629E+02  0.48546413492E+03  0.50500977727E+03  0.47000000000E+01 0. -1.
         -5    1    1    2    0  502 -0.59140597952E+02  0.15449233570E+02  0.18244037855E+03  0.19246524588E+03  0.47000000000E+01 0.  1.
        -11    1    1    2    0    0 -0.23467282511E+02 -0.11559326704E+03  0.36894129500E+03  0.38733731538E+03  0.00000000000E+00 0.  1.
         11    1    1    2    0    0 -0.18990300862E+02  0.51957928402E+01  0.16091965488E+02  0.25427920546E+02  0.00000000000E+00 0. -1.
<mgrwt>
<rscale>  0 0.18638087E+03</rscale>
<asrwt>0</asrwt>
<pdfrwt beam="1">  1        1 0.16639828E+00 0.20093524E+03</pdfrwt>
<pdfrwt beam="2">  1       -1 0.44078843E-02 0.20093524E+03</pdfrwt>
<totfact> 0.29435542E+03</totfact>
</mgrwt>
</event>
<event>
 7    1  0.5206756E-006  0.2437921E+03  0.7546771E-02  0.1120546E+00
         -2   -1    0    0    0  501 -0.00000000000E+00  0.00000000000E+00  0.26296319288E+03  0.26296319288E+03  0.00000000000E+00 0.  1.
          2   -1    0    0  501    0  0.00000000000E+00 -0.00000000000E+00 -0.20872740857E+03  0.20872740857E+03  0.00000000000E+00 0. -1.
         23    2    1    2    0    0 -0.20930201815E+03  0.13715497363E+01  0.24288959177E+02  0.24499902468E+03  0.12500141042E+03 0.  0.
          5    1    3    3  502    0 -0.16390971834E+03 -0.52241913549E+02  0.57522476356E+01  0.17219405231E+03  0.47000000000E+01 0. -1.
         -5    1    3    3    0  502 -0.45392299813E+02  0.53613463285E+02  0.18536711541E+02  0.72804972375E+02  0.47000000000E+01 0. -1.
        -11    1    1    2    0    0  0.15237974308E+03  0.35151696585E+02  0.12708450321E+02  0.15689720388E+03  0.00000000000E+00 0. -1.
         11    1    1    2    0    0  0.56922275068E+02 -0.36523246322E+02  0.17238374806E+02  0.69794372887E+02  0.00000000000E+00 0.  1.
<mgrwt>
<rscale>  0 0.23887339E+03</rscale>
<asrwt>0</asrwt>
<pdfrwt beam="2">  1        2 0.32111909E-01 0.24379206E+03</pdfrwt>
<pdfrwt beam="1">  1       -2 0.40455876E-01 0.24379206E+03</pdfrwt>
<totfact> 0.94751195E+02</totfact>
</mgrwt>
</event>
<event>
 7    1  0.5206756E-006  0.1466132E+03  0.7546771E-02  0.1214392E+00
          1   -1    0    0  501    0  0.00000000000E+00  0.00000000000E+00  0.89581843616E+03  0.89581843616E+03  0.00000000000E+00 0. -1.
         -1   -1    0    0    0  501 -0.00000000000E+00 -0.00000000000E+00 -0.21280034688E+02  0.21280034688E+02  0.00000000000E+00 0.  1.
         23    2    1    2    0    0  0.74432425257E+02  0.18205302583E+02  0.60280363193E+03  0.62037702120E+03  0.12499524307E+03 0.  0.
          5    1    3    3  502    0  0.46833266032E+02 -0.73358920053E+01  0.61708317819E+02  0.77956248029E+02  0.47000000000E+01 0.  1.
         -5    1    3    3    0  502  0.27599159225E+02  0.25541194589E+02  0.54109531411E+03  0.54242077317E+03  0.47000000000E+01 0.  1.
        -11    1    1    2    0    0 -0.82395615746E+02  0.12242968388E+02  0.22876237875E+03  0.24345667725E+03  0.00000000000E+00 0.  1.
         11    1    1    2    0    0  0.79631904895E+01 -0.30448270972E+02  0.42972390798E+02  0.53264772400E+02  0.00000000000E+00 0. -1.
<mgrwt>
<rscale>  0 0.13921323E+03</rscale>
<asrwt>0</asrwt>
<pdfrwt beam="1">  1        1 0.13781819E+00 0.14661320E+03</pdfrwt>
<pdfrwt beam="2">  1       -1 0.32738522E-02 0.14661320E+03</pdfrwt>
<totfact> 0.62107757E+03</totfact>
</mgrwt>
</event>
<event>
 7    1  0.5206756E-006  0.1297130E+03  0.7546771E-02  0.1241516E+00
          1   -1    0    0  501    0  0.00000000000E+00  0.00000000000E+00  0.10934655924E+04  0.10934655924E+04  0.00000000000E+00 0. -1.
         -1   -1    0    0    0  501 -0.00000000000E+00 -0.00000000000E+00 -0.14810795215E+02  0.14810795215E+02  0.00000000000E+00 0.  1.
         23    2    1    2    0    0  0.33504347814E+02 -0.86256272723E+01  0.84447719247E+03  0.85438116994E+03  0.12501404789E+03 0.  0.
          5    1    3    3  502    0 -0.16493274894E+01  0.46037496976E+02  0.58564702683E+03  0.58747485175E+03  0.47000000000E+01 0. -1.
         -5    1    3    3    0  502  0.35153675303E+02 -0.54663124248E+02  0.25883016565E+03  0.26690631819E+03  0.47000000000E+01 0. -1.
        -11    1    1    2    0    0 -0.42710000326E+02 -0.25215346608E+02  0.19546318039E+03  0.20165766219E+03  0.00000000000E+00 0.  1.
         11    1    1    2    0    0  0.92056525126E+01  0.33840973880E+02  0.38714424280E+02  0.52237555443E+02  0.00000000000E+00 0. -1.
<mgrwt>
<rscale>  0 0.12096366E+03</rscale>
<asrwt>0</asrwt>
<pdfrwt beam="1">  1        1 0.16822541E+00 0.12971297E+03</pdfrwt>
<pdfrwt beam="2">  1       -1 0.22785847E-02 0.12971297E+03</pdfrwt>
<totfact> 0.74815947E+03</totfact>
</mgrwt>
</event>
<event>
 7    1  0.5206756E-006  0.1266766E+03  0.7546771E-02  0.1247132E+00
          2   -1    0    0  501    0  0.00000000000E+00  0.00000000000E+00  0.12666963436E+03  0.12666963436E+03  0.00000000000E+00 0. -1.
         -2   -1    0    0    0  501 -0.00000000000E+00 -0.00000000000E+00 -0.98719939058E+02  0.98719939058E+02  0.00000000000E+00 0.  1.
         23    2    1    2    0    0  0.13076850248E+02 -0.15870173065E+02  0.33960532725E+02  0.13114978603E+03  0.12499632869E+03 0.  0.
          5    1    3    3  502    0  0.68934572223E+02 -0.12747783600E+02  0.23151049799E+02  0.73976633751E+02  0.47000000000E+01 0.  1.
         -5    1    3    3    0  502 -0.55857721975E+02 -0.31223894656E+01  0.10809482926E+02  0.57173152278E+02  0.47000000000E+01 0.  1.
        -11    1    1    2    0    0  0.28457196055E+02  0.36280150233E+02 -0.11816140697E+02  0.47599185805E+02  0.00000000000E+00 0. -1.
         11    1    1    2    0    0 -0.41534046304E+02 -0.20409977168E+02  0.58053032769E+01  0.46640601588E+02  0.00000000000E+00 0.  1.
<mgrwt>
<rscale>  0 0.11758704E+03</rscale>
<asrwt>0</asrwt>
<pdfrwt beam="1">  1        2 0.19487636E-01 0.12667655E+03</pdfrwt>
<pdfrwt beam="2">  1       -2 0.15187683E-01 0.12667655E+03</pdfrwt>
<totfact> 0.89934068E+03</totfact>
</mgrwt>
</event>
<event>
 7    1  0.5206756E-006  0.1370438E+03  0.7546771E-02  0.1227926E+00
          3   -1    0    0  501    0  0.00000000000E+00  0.00000000000E+00  0.19501734783E+03  0.19501734783E+03  0.00000000000E+00 0. -1.
         -3   -1    0    0    0  501 -0.00000000000E+00 -0.00000000000E+00 -0.87036075194E+02  0.87036075194E+02  0.00000000000E+00 0.  1.
         23    2    1    2    0    0  0.28284793380E+02 -0.48536714901E+02  0.10409404603E+03  0.17209465705E+03  0.12500063335E+03 0.  0.
          5    1    3    3  502    0  0.35769662764E+02  0.23575259351E+02  0.87550978880E+02  0.97583428565E+02  0.47000000000E+01 0. -1.
         -5    1    3    3    0  502 -0.74848693836E+01 -0.72111974252E+02  0.16543067154E+02  0.74511228490E+02  0.47000000000E+01 0. -1.
        -11    1    1    2    0    0 -0.47547153536E+02  0.60984943533E+02 -0.16730648074E+02  0.79118959373E+02  0.00000000000E+00 0.  1.
         11    1    1    2    0    0  0.19262360156E+02 -0.12448228632E+02  0.20617874681E+02  0.30839806602E+02  0.00000000000E+00 0. -1.
<mgrwt>
<rscale>  0 0.12968331E+03</rscale>
<asrwt>0</asrwt>
<pdfrwt beam="1">  1        3 0.30002669E-01 0.13704379E+03</pdfrwt>
<pdfrwt beam="2">  1       -3 0.13390165E-01 0.13704379E+03</pdfrwt>
<totfact> 0.11171895E+03</totfact>
</mgrwt>
</event>
<event>
 7    1  0.5206756E-006  0.2971374E+03  0.7546771E-02  0.1088211E+00
         -2   -1    0    0    0  501 -0.00000000000E+00  0.00000000000E+00  0.11519162294E+04  0.11519162294E+04  0.00000000000E+00 0.  1.
          2   -1    0    0  501    0  0.00000000000E+00 -0.00000000000E+00 -0.10399901076E+03  0.10399901076E+03  0.00000000000E+00 0. -1.
         23    2    1    2    0    0  0.25232677788E+03  0.94877477023E+02  0.19217500626E+03  0.35386699014E+03  0.12498029922E+03 0.  0.
          5    1    3    3  502    0  0.22920139313E+03  0.11400473820E+03  0.19707754166E+03  0.32309751836E+03  0.47000000000E+01 0. -1.
         -5    1    3    3    0  502  0.23125384755E+02 -0.19127261176E+02 -0.49025353965E+01  0.30769471777E+02  0.47000000000E+01 0. -1.
        -11    1    1    2    0    0 -0.13299264216E+03 -0.98811475516E+02  0.47980617028E+03  0.50760684748E+03  0.00000000000E+00 0. -1.
         11    1    1    2    0    0 -0.11933413572E+03  0.39339984929E+01  0.37593604211E+03  0.39444140256E+03  0.00000000000E+00 0.  1.
<mgrwt>
<rscale>  0 0.29413286E+03</rscale>
<asrwt>0</asrwt>
<pdfrwt beam="2">  1        2 0.15999849E-01 0.29713736E+03</pdfrwt>
<pdfrwt beam="1">  1       -2 0.17721787E+00 0.29713736E+03</pdfrwt>
<totfact> 0.73325815E+01</totfact>
</mgrwt>
</event>
<event>
 6    1  0.5206756E-006  0.1863394E+03  0.7546771E-02  0.1186845E+00
          1   -1    0    0  501    0  0.00000000000E+00  0.00000000000E+00  0.11631287681E+03  0.11631287681E+03  0.00000000000E+00 0. -1.
         -1   -1    0    0    0  501 -0.00000000000E+00 -0.00000000000E+00 -0.53217359499E+03  0.53217359499E+03  0.00000000000E+00 0.  1.
          5    1    1    2  502    0 -0.71537235253E+02  0.47987456171E+02  0.81641338911E+02  0.11877613479E+03  0.47000000000E+01 0. -1.
         -5    1    1    2    0  502  0.17769286098E+02 -0.45410335477E+02 -0.50262034673E+02  0.70186951964E+02  0.47000000000E+01 0.  1.
        -11    1    1    2    0    0  0.39045112075E+02 -0.41102585258E+02 -0.33870007326E+03  0.34341182699E+03  0.00000000000E+00 0. -1.
         11    1    1    2    0    0  0.14722837080E+02  0.38525464564E+02 -0.10853994916E+03  0.11611155806E+03  0.00000000000E+00 0.  1.
<mgrwt>
<rscale>  0 0.16165160E+03</rscale>
<asrwt>0</asrwt>
<pdfrwt beam="1">  1        1 0.17894289E-01 0.18633944E+03</pdfrwt>
<pdfrwt beam="2">  1       -1 0.81872860E-01 0.18633944E+03</pdfrwt>
<totfact> 0.46060064E+02</totfact>
</mgrwt>
</event>
<event>
 7    1  0.5206756E-006  0.1681257E+03  0.7546771E-02  0.1186548E+00
         -2   -1    0    0    0  501 -0.00000000000E+00  0.00000000000E+00  0.31535487441E+02  0.31535487441E+02  0.00000000000E+00 0.  1.
          2   -1    0    0  501    0  0.00000000000E+00 -0.00000000000E+00 -0.85040690588E+03  0.85040690588E+03  0.00000000000E+00 0. -1.
         23    2    1    2    0    0 -0.34592418971E+02  0.10697908606E+03 -0.56803324173E+03  0.59239177376E+03  0.12500035841E+03 0.  0.
          5    1    3    3  502    0  0.15300337670E+02  0.97016647690E+02 -0.22462948651E+03  0.24520772107E+03  0.47000000000E+01 0.  1.
         -5    1    3    3    0  502 -0.49892756641E+02  0.99624383693E+01 -0.34340375522E+03  0.34718405269E+03  0.47000000000E+01 0.  1.
        -11    1    1    2    0    0  0.40966777341E+01 -0.31783650302E+02 -0.17687867875E+03  0.17975831049E+03  0.00000000000E+00 0. -1.
         11    1    1    2    0    0  0.30495741237E+02 -0.75195435758E+02 -0.73959497961E+02  0.10979230907E+03  0.00000000000E+00 0.  1.
<mgrwt>
<rscale>  0 0.16191802E+03</rscale>
<asrwt>0</asrwt>
<pdfrwt beam="2">  1        2 0.13083182E+00 0.16812570E+03</pdfrwt>
<pdfrwt beam="1">  1       -2 0.48516138E-02 0.16812570E+03</pdfrwt>
<totfact> 0.65695563E+03</totfact>
</mgrwt>
</event>
<event>
 6    1  0.5206756E-006  0.1408659E+03  0.7546771E-02  0.1230323E+00
         -1   -1    0    0    0  501 -0.00000000000E+00  0.00000000000E+00  0.11221041289E+03  0.11221041289E+03  0.00000000000E+00 0.  1.
          1   -1    0    0  501    0  0.00000000000E+00 -0.00000000000E+00 -0.18500880489E+03  0.18500880489E+03  0.00000000000E+00 0. -1.
          5    1    1    2  502    0 -0.43975083693E+02  0.85330877414E+01 -0.13236334598E+03  0.13981690503E+03  0.47000000000E+01 0. -1.
         -5    1    1    2    0  502  0.28431704752E+02  0.37735738202E+02  0.79286548793E+01  0.48138356234E+02  0.47000000000E+01 0.  1.
        -11    1    1    2    0    0  0.10883882138E+01  0.24210587611E+02  0.15321421033E+02  0.28671991278E+02  0.00000000000E+00 0. -1.
         11    1    1    2    0    0  0.14454990728E+02 -0.70479413554E+02  0.36314878073E+02  0.80591965240E+02  0.00000000000E+00 0.  1.
<mgrwt>
<rscale>  0 0.12808632E+03</rscale>
<asrwt>0</asrwt>
<pdfrwt beam="2">  1        1 0.28462893E-01 0.14086585E+03</pdfrwt>
<pdfrwt beam="1">  1       -1 0.17263140E-01 0.14086585E+03</pdfrwt>
<totfact> 0.39976618E+03</totfact>
</mgrwt>
</event>
<event>
 7    1  0.5206756E-006  0.1360547E+03  0.7546771E-02  0.1232832E+00
          1   -1    0    0  501    0  0.00000000000E+00  0.00000000000E+00  0.58507361006E+02  0.58507361006E+02  0.00000000000E+00 0. -1.
         -1   -1    0    0    0  501 -0.00000000000E+00 -0.00000000000E+00 -0.25807196785E+03  0.25807196785E+03  0.00000000000E+00 0.  1.
         23    2    1    2    0    0  0.47383371903E+02 -0.25255730292E+02 -0.73175950814E+02  0.15448498838E+03  0.12501142353E+03 0.  0.
          5    1    3    3  502    0  0.75837364481E+02 -0.22692617423E+02 -0.90828865230E+02  0.12057459722E+03  0.47000000000E+01 0.  1.
         -5    1    3    3    0  502 -0.28453992578E+02 -0.25631128690E+01  0.17652914416E+02  0.33910391160E+02  0.47000000000E+01 0.  1.
        -11    1    1    2    0    0 -0.20635842387E+02  0.11805690654E+02 -0.12980227709E+03  0.13196152265E+03  0.00000000000E+00 0.  1.
         11    1    1    2    0    0 -0.26747529516E+02  0.13450039637E+02  0.34136210539E+01  0.30132817826E+02  0.00000000000E+00 0. -1.
<mgrwt>
<rscale>  0 0.12644232E+03</rscale>
<asrwt>0</asrwt>
<pdfrwt beam="1">  1        1 0.90011322E-02 0.13605474E+03</pdfrwt>
<pdfrwt beam="2">  1       -1 0.39703381E-01 0.13605474E+03</pdfrwt>
<totfact> 0.44294948E+03</totfact>
</mgrwt>
</event>
<event>
 7    1  0.5206756E-006  0.1302285E+03  0.7546771E-02  0.1240658E+00
         -2   -1    0    0    0  501 -0.00000000000E+00  0.00000000000E+00  0.57470608928E+02  0.57470608928E+02  0.00000000000E+00 0.  1.
          2   -1    0    0  501    0  0.00000000000E+00 -0.00000000000E+00 -0.30613187268E+03  0.30613187268E+03  0.00000000000E+00 0. -1.
         23    2    1    2    0    0 -0.62245556693E+00  0.36514001356E+02 -0.22837576178E+03  0.26289721043E+03  0.12500317972E+03 0.  0.
          5    1    3    3  502    0 -0.31792053366E+02  0.45852137358E+02 -0.22257909127E+03  0.22951404102E+03  0.47000000000E+01 0. -1.
         -5    1    3    3    0  502  0.31169597799E+02 -0.93381360015E+01 -0.57966705111E+01  0.33383169412E+02  0.47000000000E+01 0. -1.
        -11    1    1    2    0    0  0.10858743290E+02 -0.58108471312E+02 -0.38596524187E+02  0.70598855680E+02  0.00000000000E+00 0. -1.
         11    1    1    2    0    0 -0.10236287723E+02  0.21594469956E+02  0.18311022216E+02  0.30106415490E+02  0.00000000000E+00 0.  1.
<mgrwt>
<rscale>  0 0.12149093E+03</rscale>
<asrwt>0</asrwt>
<pdfrwt beam="2">  1        2 0.47097211E-01 0.13022847E+03</pdfrwt>
<pdfrwt beam="1">  1       -2 0.88416322E-02 0.13022847E+03</pdfrwt>
<totfact> 0.81792015E+03</totfact>
</mgrwt>
</event>
<event>
 7    1  0.5206756E-006  0.1508211E+03  0.7546771E-02  0.1207373E+00
          1   -1    0    0  501    0  0.00000000000E+00  0.00000000000E+00  0.41363692984E+03  0.41363692984E+03  0.00000000000E+00 0. -1.
         -1   -1    0    0    0  501 -0.00000000000E+00 -0.00000000000E+00 -0.48043892360E+02  0.48043892360E+02  0.00000000000E+00 0.  1.
         23    2    1    2    0    0 -0.47379314279E+02 -0.69820451145E+02  0.23637526272E+03  0.28039307163E+03  0.12500925954E+03 0.  0.
          5    1    3    3  502    0  0.14540963371E+02 -0.80487840895E+02  0.93951144026E+02  0.12465407980E+03  0.47000000000E+01 0. -1.
         -5    1    3    3    0  502 -0.61920277650E+02  0.10667389750E+02  0.14242411869E+03  0.15573899182E+03  0.47000000000E+01 0. -1.
        -11    1    1    2    0    0  0.12952960646E+02  0.67310639355E+02  0.12977526412E+03  0.14676552912E+03  0.00000000000E+00 0. -1.
         11    1    1    2    0    0  0.34426353633E+02  0.25098117904E+01 -0.55748936273E+00  0.34522221454E+02  0.00000000000E+00 0.  1.
<mgrwt>
<rscale>  0 0.14452025E+03</rscale>
<asrwt>0</asrwt>
<pdfrwt beam="1">  1        1 0.63636448E-01 0.15082112E+03</pdfrwt>
<pdfrwt beam="2">  1       -1 0.73913683E-02 0.15082112E+03</pdfrwt>
<totfact> 0.54480527E+03</totfact>
</mgrwt>
</event>
<event>
 7    1  0.5206756E-006  0.1846096E+03  0.7546771E-02  0.1167942E+00
          1   -1    0    0  501    0  0.00000000000E+00  0.00000000000E+00  0.63931473888E+03  0.63931473888E+03  0.00000000000E+00 0. -1.
         -1   -1    0    0    0  501 -0.00000000000E+00 -0.00000000000E+00 -0.60940510469E+02  0.60940510469E+02  0.00000000000E+00 0.  1.
         23    2    1    2    0    0  0.90632065061E+02 -0.10120421126E+03  0.46128201451E+03  0.49685190818E+03  0.12499703259E+03 0.  0.
          5    1    3    3  502    0  0.11694396588E+03 -0.50864556290E+02  0.31951227777E+03  0.34405418162E+03  0.47000000000E+01 0. -1.
         -5    1    3    3    0  502 -0.26311900820E+02 -0.50339654968E+02  0.14176973674E+03  0.15279772656E+03  0.47000000000E+01 0. -1.
        -11    1    1    2    0    0 -0.69267408428E+02  0.50776688877E+02  0.12112993671E+03  0.14848807215E+03  0.00000000000E+00 0. -1.
         11    1    1    2    0    0 -0.21364656632E+02  0.50427522382E+02 -0.40377228030E+01  0.54915269024E+02  0.00000000000E+00 0.  1.
<mgrwt>
<rscale>  0 0.17985681E+03</rscale>
<asrwt>0</asrwt>
<pdfrwt beam="1">  1        1 0.98356109E-01 0.18460965E+03</pdfrwt>
<pdfrwt beam="2">  1       -1 0.93754636E-02 0.18460965E+03</pdfrwt>
<totfact> 0.21473171E+03</totfact>
</mgrwt>
</event>
<event>
 7    1  0.5206756E-006  0.1322770E+03  0.7546771E-02  0.1237189E+00
         -4   -1    0    0    0  501 -0.00000000000E+00  0.00000000000E+00  0.20930609320E+03  0.20930609320E+03  0.00000000000E+00 0. -1.
          4   -1    0    0  501    0  0.00000000000E+00 -0.00000000000E+00 -0.65020671081E+02  0.65020671081E+02  0.00000000000E+00 0.  1.
         23    2    1    2    0    0  0.66307920279E+01  0.42755322744E+02  0.79665036576E+02  0.15441409465E+03  0.12500083818E+03 0.  0.
          5    1    3    3  502    0  0.46835958849E+02  0.22197614152E+02 -0.10840712200E+02  0.53159685442E+02  0.47000000000E+01 0. -1.
         -5    1    3    3    0  502 -0.40205166821E+02  0.20557708592E+02  0.90505748777E+02  0.10125440920E+03  0.47000000000E+01 0. -1.
        -11    1    1    2    0    0 -0.41151499024E+02 -0.26734314999E+02  0.51974913550E+01  0.49347577314E+02  0.00000000000E+00 0.  1.
         11    1    1    2    0    0  0.34520706996E+02 -0.16021007745E+02  0.59422894185E+02  0.70565092319E+02  0.00000000000E+00 0. -1.
<mgrwt>
<rscale>  0 0.12365324E+03</rscale>
<asrwt>0</asrwt>
<pdfrwt beam="2">  1        4 0.10003180E-01 0.13227696E+03</pdfrwt>
<pdfrwt beam="1">  1       -4 0.32200937E-01 0.13227696E+03</pdfrwt>
<totfact> 0.11554273E+03</totfact>
</mgrwt>
</event>
<event>
 7    1  0.5206756E-006  0.1308810E+03  0.7546771E-02  0.1239461E+00
         -1   -1    0    0    0  501 -0.00000000000E+00  0.00000000000E+00  0.11727614413E+04  0.11727614413E+04  0.00000000000E+00 0.  1.
          1   -1    0    0  501    0  0.00000000000E+00 -0.00000000000E+00 -0.11349958299E+02  0.11349958299E+02  0.00000000000E+00 0. -1.
         23    2    1    2    0    0  0.15229064733E+02  0.35685503055E+02  0.62944962277E+03  0.64291264331E+03  0.12499783911E+03 0.  0.
          5    1    3    3  502    0 -0.32209362899E+02  0.63269374299E+02  0.43631892860E+03  0.44208229352E+03  0.47000000000E+01 0. -1.
         -5    1    3    3    0  502  0.47438427633E+02 -0.27583871244E+02  0.19313069417E+03  0.20083034980E+03  0.47000000000E+01 0. -1.
        -11    1    1    2    0    0 -0.35557020836E+02  0.19513218765E+02  0.20128353617E+03  0.20532931932E+03  0.00000000000E+00 0. -1.
         11    1    1    2    0    0  0.20327956102E+02 -0.55198721820E+02  0.33067832407E+03  0.33586943699E+03  0.00000000000E+00 0.  1.
<mgrwt>
<rscale>  0 0.12223099E+03</rscale>
<asrwt>0</asrwt>
<pdfrwt beam="2">  1        1 0.17461484E-02 0.13088101E+03</pdfrwt>
<pdfrwt beam="1">  1       -1 0.18042474E+00 0.13088101E+03</pdfrwt>
<totfact> 0.16180525E+03</totfact>
</mgrwt>
</event>
<event>
 7    1  0.5206756E-006  0.1255782E+03  0.7546771E-02  0.1249459E+00
         -2   -1    0    0    0  501 -0.00000000000E+00  0.00000000000E+00  0.99147308552E+02  0.99147308552E+02  0.00000000000E+00 0. -1.
          2   -1    0    0  501    0  0.00000000000E+00 -0.00000000000E+00 -0.12226460915E+03  0.12226460915E+03  0.00000000000E+00 0.  1.
         23    2    1    2    0    0 -0.73683595204E+01 -0.95387005694E+01 -0.29684939460E+02  0.12903906609E+03  0.12499842166E+03 0.  0.
          5    1    3    3  502    0  0.27157364215E+02  0.12396688111E+02 -0.66982185386E+02  0.73484035452E+02  0.47000000000E+01 0. -1.
         -5    1    3    3    0  502 -0.34525723735E+02 -0.21935388680E+02  0.37297245925E+02  0.55555030642E+02  0.47000000000E+01 0. -1.
        -11    1    1    2    0    0  0.39900357076E+02  0.28131310330E+02  0.19732561343E+02  0.52657222609E+02  0.00000000000E+00 0. -1.
         11    1    1    2    0    0 -0.32531997556E+02 -0.18592609761E+02 -0.13164922477E+02  0.39715628996E+02  0.00000000000E+00 0.  1.
<mgrwt>
<rscale>  0 0.11622423E+03</rscale>
<asrwt>0</asrwt>
<pdfrwt beam="2">  1        2 0.18809940E-01 0.12557820E+03</pdfrwt>
<pdfrwt beam="1">  1       -2 0.15253432E-01 0.12557820E+03</pdfrwt>
<totfact> 0.92892254E+03</totfact>
</mgrwt>
</event>
<event>
 7    1  0.5206756E-006  0.1414786E+03  0.7546771E-02  0.1222530E+00
         -2   -1    0    0    0  501 -0.00000000000E+00  0.00000000000E+00  0.22871898305E+03  0.22871898305E+03  0.00000000000E+00 0.  1.
          2   -1    0    0  501    0  0.00000000000E+00 -0.00000000000E+00 -0.78305683174E+02  0.78305683174E+02  0.00000000000E+00 0. -1.
         23    2    1    2    0    0 -0.64166920921E+02 -0.16644260507E+02  0.33695002610E+02  0.14543573619E+03  0.12498709938E+03 0.  0.
          5    1    3    3  502    0 -0.30451440599E+02  0.40783494779E+02  0.55264752175E+02  0.75278592667E+02  0.47000000000E+01 0.  1.
         -5    1    3    3    0  502 -0.33715480322E+02 -0.57427755286E+02 -0.21569749565E+02  0.70157143520E+02  0.47000000000E+01 0.  1.
        -11    1    1    2    0    0  0.73468488431E+02 -0.11066410935E+02  0.10799673326E+03  0.13108538682E+03  0.00000000000E+00 0.  1.
         11    1    1    2    0    0 -0.93015675094E+01  0.27710671442E+02  0.87215640051E+01  0.30503543214E+02  0.00000000000E+00 0. -1.
<mgrwt>
<rscale>  0 0.13337639E+03</rscale>
<asrwt>0</asrwt>
<pdfrwt beam="2">  1        2 0.12047028E-01 0.14147862E+03</pdfrwt>
<pdfrwt beam="1">  1       -2 0.35187536E-01 0.14147862E+03</pdfrwt>
<totfact> 0.37106809E+03</totfact>
</mgrwt>
</event>
<event>
 7    1  0.5206756E-006  0.1323067E+03  0.7546771E-02  0.1237004E+00
          2   -1    0    0  501    0  0.00000000000E+00  0.00000000000E+00  0.83546181958E+03  0.83546181958E+03  0.00000000000E+00 0. -1.
         -2   -1    0    0    0  501 -0.00000000000E+00 -0.00000000000E+00 -0.19454975086E+02  0.19454975086E+02  0.00000000000E+00 0.  1.
         23    2    1    2    0    0 -0.37190285741E+02  0.22269382917E+02  0.62338350122E+03  0.63726920814E+03  0.12500404507E+03 0.  0.
          5    1    3    3  502    0 -0.12286794950E+02  0.34996934956E+02  0.46397387631E+02  0.59586561954E+02  0.47000000000E+01 0. -1.
         -5    1    3    3    0  502 -0.24903490792E+02 -0.12727552038E+02  0.57698611359E+03  0.57768264619E+03  0.47000000000E+01 0. -1.
        -11    1    1    2    0    0  0.94895262517E+01 -0.56448459132E+02  0.10435744082E+03  0.11902501881E+03  0.00000000000E+00 0.  1.
         11    1    1    2    0    0  0.27700759489E+02  0.34179076215E+02  0.88265902447E+02  0.98622567712E+02  0.00000000000E+00 0. -1.
<mgrwt>
<rscale>  0 0.12376996E+03</rscale>
<asrwt>0</asrwt>
<pdfrwt beam="1">  1        2 0.12853256E+00 0.13230667E+03</pdfrwt>
<pdfrwt beam="2">  1       -2 0.29930737E-02 0.13230667E+03</pdfrwt>
<totfact> 0.13598604E+04</totfact>
</mgrwt>
</event>
<event>
 7    1  0.5206756E-006  0.1345158E+03  0.7546771E-02  0.1233705E+00
         -3   -1    0    0    0  501 -0.00000000000E+00  0.00000000000E+00  0.11912495196E+03  0.11912495196E+03  0.00000000000E+00 0. -1.
          3   -1    0    0  501    0  0.00000000000E+00 -0.00000000000E+00 -0.12409217381E+03  0.12409217381E+03  0.00000000000E+00 0.  1.
         23    2    1    2    0    0  0.37590083618E+02 -0.32509886941E+02 -0.28302361888E+02  0.13746103225E+03  0.12499841824E+03 0.  0.
          5    1    3    3  502    0  0.16821743833E+02 -0.38570049800E+02 -0.74805521201E+02  0.85956825263E+02  0.47000000000E+01 0.  1.
         -5    1    3    3    0  502  0.20768339785E+02  0.60601628586E+01  0.46503159313E+02  0.51504206988E+02  0.47000000000E+01 0.  1.
        -11    1    1    2    0    0 -0.43378934892E+02 -0.57538231730E+01 -0.19605571961E+02  0.47950150421E+02  0.00000000000E+00 0.  1.
         11    1    1    2    0    0  0.57888512737E+01  0.38263710114E+02  0.42940711995E+02  0.57805943097E+02  0.00000000000E+00 0. -1.
<mgrwt>
<rscale>  0 0.12587714E+03</rscale>
<asrwt>0</asrwt>
<pdfrwt beam="2">  1        3 0.19091104E-01 0.13451584E+03</pdfrwt>
<pdfrwt beam="1">  1       -3 0.18326916E-01 0.13451584E+03</pdfrwt>
<totfact> 0.14646573E+03</totfact>
</mgrwt>
</event>
<event>
 7    1  0.5206756E-006  0.1548058E+03  0.7546771E-02  0.1204974E+00
         -1   -1    0    0    0  501 -0.00000000000E+00  0.00000000000E+00  0.15551675805E+03  0.15551675805E+03  0.00000000000E+00 0.  1.
          1   -1    0    0  501    0  0.00000000000E+00 -0.00000000000E+00 -0.13919667060E+03  0.13919667060E+03  0.00000000000E+00 0. -1.
         23    2    1    2    0    0  0.55749350310E+01  0.91151363928E+02 -0.38175620744E+02  0.15944342181E+03  0.12500070277E+03 0.  0.
          5    1    3    3  502    0  0.74566565661E+01 -0.26593577694E+02  0.13088692132E+02  0.30922871203E+02  0.47000000000E+01 0.  1.
         -5    1    3    3    0  502 -0.18817215351E+01  0.11774494162E+03 -0.51264312875E+02  0.12852055061E+03  0.47000000000E+01 0.  1.
        -11    1    1    2    0    0  0.22264542207E+02 -0.36883277648E+02  0.60181967144E+02  0.74013209490E+02  0.00000000000E+00 0.  1.
         11    1    1    2    0    0 -0.27839477238E+02 -0.54268086279E+02 -0.56862589489E+01  0.61256797355E+02  0.00000000000E+00 0. -1.
<mgrwt>
<rscale>  0 0.14639516E+03</rscale>
<asrwt>0</asrwt>
<pdfrwt beam="2">  1        1 0.21414872E-01 0.15480577E+03</pdfrwt>
<pdfrwt beam="1">  1       -1 0.23925655E-01 0.15480577E+03</pdfrwt>
<totfact> 0.33965266E+03</totfact>
</mgrwt>
</event>
<event>
 7    1  0.5206756E-006  0.1261289E+03  0.7546771E-02  0.1248299E+00
         -1   -1    0    0    0  501 -0.00000000000E+00  0.00000000000E+00  0.87388712527E+02  0.87388712527E+02  0.00000000000E+00 0.  1.
          1   -1    0    0  501    0  0.00000000000E+00 -0.00000000000E+00 -0.18971304532E+03  0.18971304532E+03  0.00000000000E+00 0. -1.
         23    2    1    2    0    0 -0.86292122269E+01 -0.14429631361E+02 -0.12886378670E+03  0.18031742066E+03  0.12500327638E+03 0.  0.
          5    1    3    3  502    0  0.85514374803E+01  0.25857489566E+02 -0.13321714682E+03  0.13605379472E+03  0.47000000000E+01 0. -1.
         -5    1    3    3    0  502 -0.17180649707E+02 -0.40287120928E+02  0.43533601277E+01  0.44263625940E+02  0.47000000000E+01 0. -1.
        -11    1    1    2    0    0  0.37220979277E+02  0.40025349911E+02  0.14154344494E+02  0.56460387901E+02  0.00000000000E+00 0.  1.
         11    1    1    2    0    0 -0.28591767050E+02 -0.25595718550E+02  0.12385109407E+02  0.40323949288E+02  0.00000000000E+00 0. -1.
<mgrwt>
<rscale>  0 0.11690111E+03</rscale>
<asrwt>0</asrwt>
<pdfrwt beam="2">  1        1 0.29186622E-01 0.12612889E+03</pdfrwt>
<pdfrwt beam="1">  1       -1 0.13444418E-01 0.12612889E+03</pdfrwt>
<totfact> 0.56970371E+03</totfact>
</mgrwt>
</event>
<event>
 6    1  0.5206756E-006  0.1570179E+03  0.7546771E-02  0.1269110E+00
         -2   -1    0    0    0  501 -0.00000000000E+00  0.00000000000E+00  0.57177567199E+01  0.57177567199E+01  0.00000000000E+00 0. -1.
          2   -1    0    0  501    0  0.00000000000E+00 -0.00000000000E+00 -0.17616136115E+04  0.17616136115E+04  0.00000000000E+00 0.  1.
          5    1    1    2  502    0 -0.31808879054E+02  0.61390311099E+02 -0.12186186415E+04  0.12205875874E+04  0.47000000000E+01 0.  1.
         -5    1    1    2    0  502  0.33030386778E+02 -0.58921578217E+02 -0.40671414058E+03  0.41231206746E+03  0.47000000000E+01 0. -1.
        -11    1    1    2    0    0  0.83769151102E+01  0.11958791567E+02 -0.64717366120E+02  0.66343973954E+02  0.00000000000E+00 0. -1.
         11    1    1    2    0    0 -0.95984228337E+01 -0.14427524449E+02 -0.65845706566E+02  0.68087739394E+02  0.00000000000E+00 0.  1.
<mgrwt>
<rscale>  0 0.10551432E+03</rscale>
<asrwt>0</asrwt>
<pdfrwt beam="2">  1        2 0.27101780E+00 0.15701793E+03</pdfrwt>
<pdfrwt beam="1">  1       -2 0.87965383E-03 0.15701793E+03</pdfrwt>
<totfact> 0.24781225E+04</totfact>
</mgrwt>
</event>
<event>
 7    1  0.5206756E-006  0.1455099E+03  0.7546771E-02  0.1216188E+00
         -2   -1    0    0    0  501 -0.00000000000E+00  0.00000000000E+00  0.17065620967E+03  0.17065620967E+03  0.00000000000E+00 0.  1.
          2   -1    0    0  501    0  0.00000000000E+00 -0.00000000000E+00 -0.16526092463E+03  0.16526092463E+03  0.00000000000E+00 0. -1.
         23    2    1    2    0    0  0.52841387445E+02  0.52482258945E+02 -0.10130471822E+03  0.17730136968E+03  0.12500611994E+03 0.  0.
          5    1    3    3  502    0  0.41380799246E+02 -0.31019247918E+02 -0.70239969194E+02  0.87351631697E+02  0.47000000000E+01 0.  1.
         -5    1    3    3    0  502  0.11460588199E+02  0.83501506863E+02 -0.31064749030E+02  0.89949737979E+02  0.47000000000E+01 0.  1.
        -11    1    1    2    0    0 -0.67604043764E+02 -0.29925374837E+02  0.10883743698E+03  0.13157287897E+03  0.00000000000E+00 0.  1.
         11    1    1    2    0    0  0.14762656319E+02 -0.22556884108E+02 -0.21374337110E+01  0.27042885665E+02  0.00000000000E+00 0. -1.
<mgrwt>
<rscale>  0 0.13789616E+03</rscale>
<asrwt>0</asrwt>
<pdfrwt beam="2">  1        2 0.25424757E-01 0.14550990E+03</pdfrwt>
<pdfrwt beam="1">  1       -2 0.26254802E-01 0.14550990E+03</pdfrwt>
<totfact> 0.26674270E+03</totfact>
</mgrwt>
</event>
<event>
 7    1  0.5206756E-006  0.1370124E+03  0.7546771E-02  0.1229327E+00
         -3   -1    0    0    0  501 -0.00000000000E+00  0.00000000000E+00  0.20547501745E+03  0.20547501745E+03  0.00000000000E+00 0.  1.
          3   -1    0    0  501    0  0.00000000000E+00 -0.00000000000E+00 -0.75282503421E+02  0.75282503421E+02  0.00000000000E+00 0. -1.
         23    2    1    2    0    0 -0.47766841198E+01 -0.56478818361E+02  0.45293923126E+02  0.14430498545E+03  0.12473858953E+03 0.  0.
          5    1    3    3  502    0  0.57238519454E+02 -0.77812179932E+01  0.16952408798E+02  0.60384349187E+02  0.47000000000E+01 0. -1.
         -5    1    3    3    0  502 -0.62015203574E+02 -0.48697600368E+02  0.28341514328E+02  0.83920636260E+02  0.47000000000E+01 0. -1.
        -11    1    1    2    0    0  0.57271092164E+00  0.77567618856E+02  0.84830045524E+02  0.11494868471E+03  0.00000000000E+00 0.  1.
         11    1    1    2    0    0  0.42039731982E+01 -0.21088800495E+02  0.68545374977E-01  0.21503850711E+02  0.00000000000E+00 0. -1.
<mgrwt>
<rscale>  0 0.12874720E+03</rscale>
<asrwt>0</asrwt>
<pdfrwt beam="2">  1        3 0.11581924E-01 0.13701237E+03</pdfrwt>
<pdfrwt beam="1">  1       -3 0.31611541E-01 0.13701237E+03</pdfrwt>
<totfact> 0.12939781E+03</totfact>
</mgrwt>
</event>
<event>
 7    1  0.5206756E-006  0.1266322E+03  0.7546771E-02  0.1247042E+00
         -1   -1    0    0    0  501 -0.00000000000E+00  0.00000000000E+00  0.85041913859E+01  0.85041913859E+01  0.00000000000E+00 0.  1.
          1   -1    0    0  501    0  0.00000000000E+00 -0.00000000000E+00 -0.19502843269E+04  0.19502843269E+04  0.00000000000E+00 0. -1.
         23    2    1    2    0    0  0.20203744866E+02  0.14229362945E+01 -0.15747646952E+04  0.15798479510E+04  0.12500194816E+03 0.  0.
          5    1    3    3  502    0 -0.51890584226E+02 -0.35035469951E+01 -0.80171764198E+03  0.80341656383E+03  0.47000000000E+01 0.  1.
         -5    1    3    3    0  502  0.72094329092E+02  0.49264832895E+01 -0.77304705322E+03  0.77643138719E+03  0.47000000000E+01 0.  1.
        -11    1    1    2    0    0  0.16040578899E+02 -0.35381847111E+02 -0.98760459649E+02  0.10612635708E+03  0.00000000000E+00 0.  1.
         11    1    1    2    0    0 -0.36244323765E+02  0.33958910816E+02 -0.26825498070E+03  0.27281421022E+03  0.00000000000E+00 0. -1.
<mgrwt>
<rscale>  0 0.11764000E+03</rscale>
<asrwt>0</asrwt>
<pdfrwt beam="2">  1        1 0.30004383E+00 0.12663216E+03</pdfrwt>
<pdfrwt beam="1">  1       -1 0.13083368E-02 0.12663216E+03</pdfrwt>
<totfact> 0.45729369E+03</totfact>
</mgrwt>
</event>
<event>
 7    1  0.5206756E-006  0.1303096E+03  0.7546771E-02  0.1239744E+00
          4   -1    0    0  501    0  0.00000000000E+00  0.00000000000E+00  0.71217242362E+03  0.71217242362E+03  0.00000000000E+00 0. -1.
         -4   -1    0    0    0  501 -0.00000000000E+00 -0.00000000000E+00 -0.19364433986E+02  0.19364433986E+02  0.00000000000E+00 0.  1.
         23    2    1    2    0    0  0.85325650525E+01  0.35794452612E+02  0.45862804018E+03  0.47678115885E+03  0.12500618661E+03 0.  0.
          5    1    3    3  502    0  0.40226682974E+02  0.64223869613E+02  0.18749519897E+03  0.20228551873E+03  0.47000000000E+01 0. -1.
         -5    1    3    3    0  502 -0.31694117921E+02 -0.28429417000E+02  0.27113284121E+03  0.27449564012E+03  0.47000000000E+01 0. -1.
        -11    1    1    2    0    0  0.36992963858E+02  0.60389694435E+01  0.10627619820E+03  0.11269240804E+03  0.00000000000E+00 0. -1.
         11    1    1    2    0    0 -0.45525528910E+02 -0.41833422056E+02  0.12790375126E+03  0.14206329072E+03  0.00000000000E+00 0.  1.
<mgrwt>
<rscale>  0 0.12205575E+03</rscale>
<asrwt>0</asrwt>
<pdfrwt beam="1">  1        4 0.10956497E+00 0.13030961E+03</pdfrwt>
<pdfrwt beam="2">  1       -4 0.29791442E-02 0.13030961E+03</pdfrwt>
<totfact> 0.62002086E+02</totfact>
</mgrwt>
</event>
<event>
 7    1  0.5206756E-006  0.1572019E+03  0.7546771E-02  0.1199977E+00
         -3   -1    0    0    0  501 -0.00000000000E+00  0.00000000000E+00  0.33521460148E+02  0.33521460148E+02  0.00000000000E+00 0.  1.
          3   -1    0    0  501    0  0.00000000000E+00 -0.00000000000E+00 -0.87648396979E+03  0.87648396979E+03  0.00000000000E+00 0. -1.
         23    2    1    2    0    0 -0.34453470369E+02 -0.88803172517E+02 -0.69209847267E+03  0.70972723480E+03  0.12505761426E+03 0.  0.
          5    1    3    3  502    0  0.10290158802E+01 -0.86903044209E+02 -0.64340044342E+03  0.64926067073E+03  0.47000000000E+01 0. -1.
         -5    1    3    3    0  502 -0.35482486249E+02 -0.19001283083E+01 -0.48698029245E+02  0.60466564069E+02  0.47000000000E+01 0. -1.
        -11    1    1    2    0    0  0.45457725571E+01 -0.14414602036E+02 -0.75491786910E-01  0.15114579022E+02  0.00000000000E+00 0.  1.
         11    1    1    2    0    0  0.29907697812E+02  0.10321777455E+03 -0.15078854519E+03  0.18516361611E+03  0.00000000000E+00 0. -1.
<mgrwt>
<rscale>  0 0.15040430E+03</rscale>
<asrwt>0</asrwt>
<pdfrwt beam="2">  1        3 0.13484368E+00 0.15720195E+03</pdfrwt>
<pdfrwt beam="1">  1       -3 0.51571478E-02 0.15720195E+03</pdfrwt>
<totfact> 0.23115828E+02</totfact>
</mgrwt>
</event>
<event>
 7    1  0.5206756E-006  0.2304045E+03  0.7546771E-02  0.1129323E+00
          2   -1    0    0  501    0  0.00000000000E+00  0.00000000000E+00  0.71481466434E+03  0.71481466434E+03  0.00000000000E+00 0. -1.
         -2   -1    0    0    0  501 -0.00000000000E+00 -0.00000000000E+00 -0.70826522752E+02  0.70826522752E+02  0.00000000000E+00 0.  1.
         23    2    1    2    0    0  0.84554565677E+02 -0.17404974452E+03  0.39444294459E+03  0.45680570916E+03  0.12507370324E+03 0.  0.
          5    1    3    3  502    0  0.43124431303E+02  0.75453749488E+01  0.79299737718E+02  0.90703845897E+02  0.47000000000E+01 0. -1.
         -5    1    3    3    0  502  0.41430134375E+02 -0.18159511946E+03  0.31514320687E+03  0.36610186326E+03  0.47000000000E+01 0. -1.
        -11    1    1    2    0    0 -0.10071532584E+03  0.15427113862E+03  0.23753989531E+03  0.30061331131E+03  0.00000000000E+00 0. -1.
         11    1    1    2    0    0  0.16160760164E+02  0.19778605891E+02  0.12005301680E+02  0.28222166616E+02  0.00000000000E+00 0.  1.
<mgrwt>
<rscale>  0 0.22622854E+03</rscale>
<asrwt>0</asrwt>
<pdfrwt beam="1">  1        2 0.10997148E+00 0.23040447E+03</pdfrwt>
<pdfrwt beam="2">  1       -2 0.10896389E-01 0.23040447E+03</pdfrwt>
<totfact> 0.23519945E+03</totfact>
</mgrwt>
</event>
<event>
 7    1  0.5206756E-006  0.1561736E+03  0.7546771E-02  0.1197781E+00
         -1   -1    0    0    0  501 -0.00000000000E+00  0.00000000000E+00  0.15404298016E+03  0.15404298016E+03  0.00000000000E+00 0.  1.
          1   -1    0    0  501    0  0.00000000000E+00 -0.00000000000E+00 -0.18569629311E+03  0.18569629311E+03  0.00000000000E+00 0. -1.
         23    2    1    2    0    0 -0.32930603366E+02 -0.87597083324E+02 -0.97589597295E+02  0.18415735649E+03  0.12503011159E+03 0.  0.
          5    1    3    3  502    0 -0.75151909421E+02 -0.65056623761E+02 -0.35569457781E+02  0.10567615678E+03  0.47000000000E+01 0.  1.
         -5    1    3    3    0  502  0.42221306055E+02 -0.22540459563E+02 -0.62020139513E+02  0.78481199708E+02  0.47000000000E+01 0.  1.
        -11    1    1    2    0    0 -0.39442646597E+01  0.67300260290E+02 -0.10591084696E+02  0.68242606441E+02  0.00000000000E+00 0. -1.
         11    1    1    2    0    0  0.36874868026E+02  0.20296823034E+02  0.76527369045E+02  0.87339310337E+02  0.00000000000E+00 0.  1.
<mgrwt>
<rscale>  0 0.15221172E+03</rscale>
<asrwt>0</asrwt>
<pdfrwt beam="2">  1        1 0.28568660E-01 0.15617363E+03</pdfrwt>
<pdfrwt beam="1">  1       -1 0.23698920E-01 0.15617363E+03</pdfrwt>
<totfact> 0.23996789E+03</totfact>
</mgrwt>
</event>
<event>
 7    1  0.5206756E-006  0.1785633E+03  0.7546771E-02  0.1174876E+00
          2   -1    0    0  501    0  0.00000000000E+00  0.00000000000E+00  0.73454093570E+03  0.73454093570E+03  0.00000000000E+00 0. -1.
         -2   -1    0    0    0  501 -0.00000000000E+00 -0.00000000000E+00 -0.38474786871E+02  0.38474786871E+02  0.00000000000E+00 0.  1.
         23    2    1    2    0    0 -0.12750585596E+03  0.15577279660E+01  0.39638269363E+03  0.43474601804E+03  0.12499876228E+03 0.  0.
          5    1    3    3  502    0 -0.76095975589E+02 -0.62676216699E+01  0.36688608633E+03  0.37477642792E+03  0.47000000000E+01 0. -1.
         -5    1    3    3    0  502 -0.51409880368E+02  0.78253496359E+01  0.29496607291E+02  0.59969590111E+02  0.47000000000E+01 0. -1.
        -11    1    1    2    0    0  0.12517756038E+03 -0.22430417213E+02  0.20465882274E+03  0.24095181876E+03  0.00000000000E+00 0.  1.
         11    1    1    2    0    0  0.23282955758E+01  0.20872689247E+02  0.95024632458E+02  0.97317885769E+02  0.00000000000E+00 0. -1.
<mgrwt>
<rscale>  0 0.17288084E+03</rscale>
<asrwt>0</asrwt>
<pdfrwt beam="1">  1        2 0.11300629E+00 0.17856332E+03</pdfrwt>
<pdfrwt beam="2">  1       -2 0.59191985E-02 0.17856332E+03</pdfrwt>
<totfact> 0.58523316E+03</totfact>
</mgrwt>
</event>
<event>
 7    1  0.5206756E-006  0.1383541E+03  0.7546771E-02  0.1228460E+00
         -1   -1    0    0    0  501 -0.00000000000E+00  0.00000000000E+00  0.36049882784E+02  0.36049882784E+02  0.00000000000E+00 0.  1.
          1   -1    0    0  501    0  0.00000000000E+00 -0.00000000000E+00 -0.44091542539E+03  0.44091542539E+03  0.00000000000E+00 0. -1.
         23    2    1    2    0    0  0.52342846811E+02 -0.27869800300E+02 -0.28757086566E+03  0.31912201291E+03  0.12500142784E+03 0.  0.
          5    1    3    3  502    0  0.24380989522E+02  0.47124049638E+02 -0.75471114056E+02  0.92374713863E+02  0.47000000000E+01 0.  1.
         -5    1    3    3    0  502  0.27961857289E+02 -0.74993849938E+02 -0.21209975161E+03  0.22674729904E+03  0.47000000000E+01 0.  1.
        -11    1    1    2    0    0 -0.17143150547E+02  0.11430328861E+02 -0.11719633378E+03  0.11899378420E+03  0.00000000000E+00 0. -1.
         11    1    1    2    0    0 -0.35199696264E+02  0.16439471439E+02 -0.98343162818E-01  0.38849511061E+02  0.00000000000E+00 0.  1.
<mgrwt>
<rscale>  0 0.12932570E+03</rscale>
<asrwt>0</asrwt>
<pdfrwt beam="2">  1        1 0.67833144E-01 0.13835410E+03</pdfrwt>
<pdfrwt beam="1">  1       -1 0.55461357E-02 0.13835410E+03</pdfrwt>
<totfact> 0.76792108E+03</totfact>
</mgrwt>
</event>
<event>
 7    1  0.5206756E-006  0.2025334E+03  0.7546771E-02  0.1151789E+00
         -1   -1    0    0    0  501 -0.00000000000E+00  0.00000000000E+00  0.30733028894E+02  0.30733028894E+02  0.00000000000E+00 0.  1.
          1   -1    0    0  501    0  0.00000000000E+00 -0.00000000000E+00 -0.15417911572E+04  0.15417911572E+04  0.00000000000E+00 0. -1.
         23    2    1    2    0    0  0.15374713166E+03  0.41911578648E+02 -0.11481413211E+04  0.11658680338E+04  0.12500007290E+03 0.  0.
          5    1    3    3  502    0  0.10463742399E+03  0.72072205934E+02 -0.97663863603E+03  0.98487994637E+03  0.47000000000E+01 0. -1.
         -5    1    3    3    0  502  0.49109707665E+02 -0.30160627286E+02 -0.17150268503E+03  0.18098808745E+03  0.47000000000E+01 0. -1.
        -11    1    1    2    0    0 -0.68971366375E+02 -0.33972905979E+02 -0.26952191413E+03  0.28027356264E+03  0.00000000000E+00 0.  1.
         11    1    1    2    0    0 -0.84775765282E+02 -0.79386726692E+01 -0.93394893107E+02  0.12638258963E+03  0.00000000000E+00 0. -1.
<mgrwt>
<rscale>  0 0.19758900E+03</rscale>
<asrwt>0</asrwt>
<pdfrwt beam="2">  1        1 0.23719861E+00 0.20253340E+03</pdfrwt>
<pdfrwt beam="1">  1       -1 0.47281589E-02 0.20253340E+03</pdfrwt>
<totfact> 0.12899022E+03</totfact>
</mgrwt>
</event>
<event>
 7    1  0.5206756E-006  0.1387324E+03  0.7546771E-02  0.1227111E+00
         -2   -1    0    0    0  501 -0.00000000000E+00  0.00000000000E+00  0.37041577045E+02  0.37041577045E+02  0.00000000000E+00 0. -1.
          2   -1    0    0  501    0  0.00000000000E+00 -0.00000000000E+00 -0.50688982349E+03  0.50688982349E+03  0.00000000000E+00 0.  1.
         23    2    1    2    0    0 -0.14795385233E+02  0.58331709792E+02 -0.37697664202E+03  0.40169401176E+03  0.12500079467E+03 0.  0.
          5    1    3    3  502    0  0.30611747388E+02  0.81707217159E+02 -0.23152069216E+03  0.24746124810E+03  0.47000000000E+01 0.  1.
         -5    1    3    3    0  502 -0.45407132621E+02 -0.23375507367E+02 -0.14545594985E+03  0.15423276366E+03  0.47000000000E+01 0.  1.
        -11    1    1    2    0    0  0.35285058481E+01 -0.55794126424E+02 -0.10894103330E+03  0.12244828963E+03  0.00000000000E+00 0.  1.
         11    1    1    2    0    0  0.11266879385E+02 -0.25375833683E+01  0.16069428874E+02  0.19789099140E+02  0.00000000000E+00 0. -1.
<mgrwt>
<rscale>  0 0.13023282E+03</rscale>
<asrwt>0</asrwt>
<pdfrwt beam="2">  1        2 0.77983044E-01 0.13873244E+03</pdfrwt>
<pdfrwt beam="1">  1       -2 0.56987046E-02 0.13873244E+03</pdfrwt>
<totfact> 0.93780413E+03</totfact>
</mgrwt>
</event>
<event>
 6    1  0.5206756E-006  0.2207909E+03  0.7546771E-02  0.1146765E+00
         -3   -1    0    0    0  501 -0.00000000000E+00  0.00000000000E+00  0.94933470988E+03  0.94933470988E+03  0.00000000000E+00 0.  1.
          3   -1    0    0  501    0  0.00000000000E+00 -0.00000000000E+00 -0.38192540578E+02  0.38192540578E+02  0.00000000000E+00 0. -1.
          5    1    1    2  502    0  0.96909528735E+01  0.42596579140E+02  0.18377230580E+03  0.18895166975E+03  0.47000000000E+01 0. -1.
         -5    1    1    2    0  502  0.80282668457E+02 -0.14667655221E+03  0.32011406332E+03  0.36118474685E+03  0.47000000000E+01 0.  1.
        -11    1    1    2    0    0 -0.66836609538E+02  0.78775013232E+02  0.37940045213E+03  0.39321411236E+03  0.00000000000E+00 0. -1.
         11    1    1    2    0    0 -0.23137011793E+02  0.25304959840E+02  0.27855348064E+02  0.44176721505E+02  0.00000000000E+00 0.  1.
<mgrwt>
<rscale>  0 0.20356549E+03</rscale>
<asrwt>0</asrwt>
<pdfrwt beam="2">  1        3 0.58757762E-02 0.22079086E+03</pdfrwt>
<pdfrwt beam="1">  1       -3 0.14605148E+00 0.22079086E+03</pdfrwt>
<totfact> 0.15898656E+02</totfact>
</mgrwt>
</event>
<event>
 7    1  0.5206756E-006  0.1501200E+03  0.7546771E-02  0.1204589E+00
          1   -1    0    0  501    0  0.00000000000E+00  0.00000000000E+00  0.47043164202E+03  0.47043164202E+03  0.00000000000E+00 0. -1.
         -1   -1    0    0    0  501 -0.00000000000E+00 -0.00000000000E+00 -0.58526929360E+02  0.58526929360E+02  0.00000000000E+00 0.  1.
         23    2    1    2    0    0  0.70609866500E+02 -0.57915034935E+02  0.34571393656E+03  0.37690068670E+03  0.11914737589E+03 0.  0.
          5    1    3    3  502    0  0.32949329314E+02  0.33305311846E+02  0.15671092305E+03  0.16363161523E+03  0.47000000000E+01 0. -1.
         -5    1    3    3    0  502  0.37660537186E+02 -0.91220346781E+02  0.18900301351E+03  0.21326907147E+03  0.47000000000E+01 0.  1.
        -11    1    1    2    0    0  0.25904942681E+02  0.21751921426E+02  0.16005576556E+02  0.37421793409E+02  0.00000000000E+00 0.  1.
         11    1    1    2    0    0 -0.96514809182E+02  0.36163113509E+02  0.50185199545E+02  0.11463609128E+03  0.00000000000E+00 0. -1.
<mgrwt>
<rscale>  0 0.14669865E+03</rscale>
<asrwt>0</asrwt>
<pdfrwt beam="1">  1        1 0.72374096E-01 0.15011996E+03</pdfrwt>
<pdfrwt beam="2">  1       -1 0.90041433E-02 0.15011996E+03</pdfrwt>
<totfact> 0.34258125E+03</totfact>
</mgrwt>
</event>
<event>
 7    1  0.5206756E-006  0.1260188E+03  0.7546771E-02  0.1249584E+00
          2   -1    0    0  501    0  0.00000000000E+00  0.00000000000E+00  0.66731885466E+03  0.66731885466E+03  0.00000000000E+00 0. -1.
         -2   -1    0    0    0  501 -0.00000000000E+00 -0.00000000000E+00 -0.22029593897E+02  0.22029593897E+02  0.00000000000E+00 0.  1.
         23    2    1    2    0    0 -0.92187285423E+01 -0.13040595497E+02  0.51670641571E+03  0.53185172093E+03  0.12500276371E+03 0.  0.
          5    1    3    3  502    0 -0.61488326966E+02  0.14887070668E+02  0.20745235017E+03  0.21693548999E+03  0.47000000000E+01 0.  1.
         -5    1    3    3    0  502  0.52269598424E+02 -0.27927666165E+02  0.30925406554E+03  0.31491623094E+03  0.47000000000E+01 0.  1.
        -11    1    1    2    0    0 -0.19577529128E+02 -0.25482486011E+02  0.17826332816E+02  0.36747991534E+02  0.00000000000E+00 0.  1.
         11    1    1    2    0    0  0.28796257671E+02  0.38523081509E+02  0.11075651224E+03  0.12074873609E+03  0.00000000000E+00 0. -1.
<mgrwt>
<rscale>  0 0.11615171E+03</rscale>
<asrwt>0</asrwt>
<pdfrwt beam="1">  1        2 0.10266442E+00 0.12601878E+03</pdfrwt>
<pdfrwt beam="2">  1       -2 0.33891688E-02 0.12601878E+03</pdfrwt>
<totfact> 0.14818874E+04</totfact>
</mgrwt>
</event>
<event>
 7    1  0.5206756E-006  0.1683408E+03  0.7546771E-02  0.1185582E+00
         -2   -1    0    0    0  501 -0.00000000000E+00  0.00000000000E+00  0.41084305405E+03  0.41084305405E+03  0.00000000000E+00 0. -1.
          2   -1    0    0  501    0  0.00000000000E+00 -0.00000000000E+00 -0.64558186945E+02  0.64558186945E+02  0.00000000000E+00 0.  1.
         23    2    1    2    0    0 -0.41774410755E+02 -0.10473405980E+03  0.12522632802E+03  0.20981008412E+03  0.12499725394E+03 0.  0.
          5    1    3    3  502    0 -0.42484777138E+02 -0.32800517069E+02 -0.11637206344E+02  0.55121182679E+02  0.47000000000E+01 0.  1.
         -5    1    3    3    0  502  0.71036638363E+00 -0.71933542733E+02  0.13686353437E+03  0.15468890144E+03  0.47000000000E+01 0.  1.
        -11    1    1    2    0    0 -0.26293169043E+02  0.20419192957E+02  0.87395676778E+02  0.93521540293E+02  0.00000000000E+00 0. -1.
         11    1    1    2    0    0  0.68067579798E+02  0.84314866844E+02  0.13366286231E+03  0.17206961658E+03  0.00000000000E+00 0.  1.
<mgrwt>
<rscale>  0 0.16279046E+03</rscale>
<asrwt>0</asrwt>
<pdfrwt beam="2">  1        2 0.99320290E-02 0.16834084E+03</pdfrwt>
<pdfrwt beam="1">  1       -2 0.63206622E-01 0.16834084E+03</pdfrwt>
<totfact> 0.15015756E+03</totfact>
</mgrwt>
</event>
<event>
 7    1  0.5206756E-006  0.1317765E+03  0.7546771E-02  0.1237313E+00
          3   -1    0    0  501    0  0.00000000000E+00  0.00000000000E+00  0.23206328660E+03  0.23206328660E+03  0.00000000000E+00 0. -1.
         -3   -1    0    0    0  501 -0.00000000000E+00 -0.00000000000E+00 -0.60922796030E+02  0.60922796030E+02  0.00000000000E+00 0.  1.
         23    2    1    2    0    0 -0.31961725995E+02  0.26796565001E+02  0.12306775898E+03  0.18030728313E+03  0.12500174089E+03 0.  0.
          5    1    3    3  502    0  0.28443882282E+02  0.30190837967E+02 -0.14710843858E+01  0.41770746051E+02  0.47000000000E+01 0.  1.
         -5    1    3    3    0  502 -0.60405608277E+02 -0.33942729664E+01  0.12453884337E+03  0.13853653708E+03  0.47000000000E+01 0.  1.
        -11    1    1    2    0    0 -0.67530382538E+01  0.24715165813E+02  0.40325546424E+02  0.47776486280E+02  0.00000000000E+00 0.  1.
         11    1    1    2    0    0  0.38714764249E+02 -0.51511730814E+02  0.77471851629E+01  0.64902313212E+02  0.00000000000E+00 0. -1.
<mgrwt>
<rscale>  0 0.12357539E+03</rscale>
<asrwt>0</asrwt>
<pdfrwt beam="1">  1        3 0.35702043E-01 0.13177649E+03</pdfrwt>
<pdfrwt beam="2">  1       -3 0.93727380E-02 0.13177649E+03</pdfrwt>
<totfact> 0.14534143E+03</totfact>
</mgrwt>
</event>
<event>
 7    1  0.5206756E-006  0.1266728E+03  0.7546771E-02  0.1241478E+00
         -1   -1    0    0    0  501 -0.00000000000E+00  0.00000000000E+00  0.18726675981E+02  0.18726675981E+02  0.00000000000E+00 0.  1.
          1   -1    0    0  501    0  0.00000000000E+00 -0.00000000000E+00 -0.75935702336E+03  0.75935702336E+03  0.00000000000E+00 0. -1.
         23    2    1    2    0    0 -0.10505412462E+02  0.17596611944E+02 -0.49167283603E+03  0.50772844213E+03  0.12500395523E+03 0.  0.
          5    1    3    3  502    0 -0.30512086345E+01 -0.23394425250E+02 -0.44230551176E+03  0.44295921340E+03  0.47000000000E+01 0. -1.
         -5    1    3    3    0  502 -0.74542038277E+01  0.40991037195E+02 -0.49367324268E+02  0.64769228731E+02  0.47000000000E+01 0. -1.
        -11    1    1    2    0    0  0.15815472169E+02  0.40561513999E+02 -0.14159921119E+03  0.14814081878E+03  0.00000000000E+00 0. -1.
         11    1    1    2    0    0 -0.53100597066E+01 -0.58158125943E+02 -0.10735830016E+03  0.12221443843E+03  0.00000000000E+00 0.  1.
<mgrwt>
<rscale>  0 0.12098655E+03</rscale>
<asrwt>0</asrwt>
<pdfrwt beam="2">  1        1 0.11682416E+00 0.12667278E+03</pdfrwt>
<pdfrwt beam="1">  1       -1 0.28810271E-02 0.12667278E+03</pdfrwt>
<totfact> 0.95562486E+03</totfact>
</mgrwt>
</event>
<event>
 7    1  0.5206756E-006  0.1619037E+03  0.7546771E-02  0.1194105E+00
         -1   -1    0    0    0  501 -0.00000000000E+00  0.00000000000E+00  0.50504247542E+03  0.50504247542E+03  0.00000000000E+00 0.  1.
          1   -1    0    0  501    0  0.00000000000E+00 -0.00000000000E+00 -0.44268099229E+02  0.44268099229E+02  0.00000000000E+00 0. -1.
         23    2    1    2    0    0  0.56488314083E+02  0.86028775239E+02  0.25557950737E+03  0.30254537489E+03  0.12498375687E+03 0.  0.
          5    1    3    3  502    0  0.85563172724E+02  0.75057465844E+02  0.24358321849E+03  0.26890435853E+03  0.47000000000E+01 0.  1.
         -5    1    3    3    0  502 -0.29074858640E+02  0.10971309395E+02  0.11996288883E+02  0.33641016360E+02  0.47000000000E+01 0.  1.
        -11    1    1    2    0    0 -0.70327865389E+02 -0.30965543368E+02  0.14445447869E+03  0.16362142262E+03  0.00000000000E+00 0.  1.
         11    1    1    2    0    0  0.13839551306E+02 -0.55063231871E+02  0.60740390128E+02  0.83143777141E+02  0.00000000000E+00 0. -1.
<mgrwt>
<rscale>  0 0.15530237E+03</rscale>
<asrwt>0</asrwt>
<pdfrwt beam="2">  1        1 0.68104772E-02 0.16190373E+03</pdfrwt>
<pdfrwt beam="1">  1       -1 0.77698838E-01 0.16190373E+03</pdfrwt>
<totfact> 0.18428128E+03</totfact>
</mgrwt>
</event>
<event>
 7    1  0.5206756E-006  0.1322090E+03  0.7546771E-02  0.1238586E+00
          2   -1    0    0  501    0  0.00000000000E+00  0.00000000000E+00  0.60158446960E+03  0.60158446960E+03  0.00000000000E+00 0. -1.
         -2   -1    0    0    0  501 -0.00000000000E+00 -0.00000000000E+00 -0.22676227915E+02  0.22676227915E+02  0.00000000000E+00 0.  1.
         23    2    1    2    0    0  0.39460098811E+02 -0.17235324927E+02  0.38069530582E+03  0.40299893032E+03  0.12500026457E+03 0.  0.
          5    1    3    3  502    0  0.12589664346E+02  0.23676680231E+02  0.99173727094E+01  0.28974628843E+02  0.47000000000E+01 0. -1.
         -5    1    3    3    0  502  0.26870434465E+02 -0.40912005158E+02  0.37077793311E+03  0.37402430148E+03  0.47000000000E+01 0. -1.
        -11    1    1    2    0    0 -0.45685704641E+02  0.46070475245E+02  0.16228734693E+03  0.17477658674E+03  0.00000000000E+00 0. -1.
         11    1    1    2    0    0  0.62256058302E+01 -0.28835150317E+02  0.35925588935E+02  0.46485180456E+02  0.00000000000E+00 0.  1.
<mgrwt>
<rscale>  0 0.12277646E+03</rscale>
<asrwt>0</asrwt>
<pdfrwt beam="1">  1        2 0.92551445E-01 0.13220901E+03</pdfrwt>
<pdfrwt beam="2">  1       -2 0.34886509E-02 0.13220901E+03</pdfrwt>
<totfact> 0.16061192E+04</totfact>
</mgrwt>
</event>
<event>
 7    1  0.5351725E-006  0.2104111E+03  0.7546771E-02  0.1145094E+00
         -1   -1    0    0    0  501 -0.00000000000E+00  0.00000000000E+00  0.17175822740E+03  0.17175822740E+03  0.00000000000E+00 0.  1.
          1   -1    0    0  501    0  0.00000000000E+00 -0.00000000000E+00 -0.24515228834E+03  0.24515228834E+03  0.00000000000E+00 0. -1.
         23    2    1    2    0    0  0.16670517750E+03  0.29272770774E+02 -0.79619078213E+02  0.22497118580E+03  0.12500130203E+03 0.  0.
          5    1    3    3  502    0  0.16731232176E+03 -0.94842570254E+01 -0.47046581461E+02  0.17412304549E+03  0.47000000000E+01 0.  1.
         -5    1    3    3    0  502 -0.60714426181E+00  0.38757027799E+02 -0.32572496752E+02  0.50848140307E+02  0.47000000000E+01 0.  1.
        -11    1    1    2    0    0 -0.11943907024E+03 -0.48660034666E+02 -0.25961388946E+02  0.13155791192E+03  0.00000000000E+00 0. -1.
         11    1    1    2    0    0 -0.47266107262E+02  0.19387263892E+02  0.32186406217E+02  0.60381418020E+02  0.00000000000E+00 0.  1.
<mgrwt>
<rscale>  0 0.20560580E+03</rscale>
<asrwt>0</asrwt>
<pdfrwt beam="2">  1        1 0.37715736E-01 0.21041111E+03</pdfrwt>
<pdfrwt beam="1">  1       -1 0.26424343E-01 0.21041111E+03</pdfrwt>
<totfact> 0.14281379E+03</totfact>
</mgrwt>
</event>
<event>
 7    1  0.5206756E-006  0.1299584E+03  0.7546771E-02  0.1241587E+00
          2   -1    0    0  501    0  0.00000000000E+00  0.00000000000E+00  0.18941722094E+03  0.18941722094E+03  0.00000000000E+00 0.  1.
         -2   -1    0    0    0  501 -0.00000000000E+00 -0.00000000000E+00 -0.72494878392E+02  0.72494878392E+02  0.00000000000E+00 0. -1.
         23    2    1    2    0    0  0.18788524861E+02 -0.30184659156E+02  0.97803223864E+02  0.16264889679E+03  0.12500028285E+03 0.  0.
          5    1    3    3  502    0 -0.48283121147E+02  0.73162753896E+01  0.19370029842E+02  0.52745385858E+02  0.47000000000E+01 0. -1.
         -5    1    3    3    0  502  0.67071646008E+02 -0.37500934545E+02  0.78433194022E+02  0.10990351093E+03  0.47000000000E+01 0. -1.
        -11    1    1    2    0    0 -0.26673180948E+02  0.48302555114E+02 -0.17302412536E+02  0.57827060205E+02  0.00000000000E+00 0. -1.
         11    1    1    2    0    0  0.78846560867E+01 -0.18117895958E+02  0.36421531219E+02  0.41436142339E+02  0.00000000000E+00 0.  1.
<mgrwt>
<rscale>  0 0.12092000E+03</rscale>
<asrwt>0</asrwt>
<pdfrwt beam="1">  1        2 0.29141111E-01 0.12995843E+03</pdfrwt>
<pdfrwt beam="2">  1       -2 0.11153058E-01 0.12995843E+03</pdfrwt>
<totfact> 0.94832109E+03</totfact>
</mgrwt>
</event>
<event>
 7    1  0.5206756E-006  0.1325595E+03  0.7546771E-02  0.1237069E+00
          1   -1    0    0  501    0  0.00000000000E+00  0.00000000000E+00  0.49008619650E+03  0.49008619650E+03  0.00000000000E+00 0. -1.
         -1   -1    0    0    0  501 -0.00000000000E+00 -0.00000000000E+00 -0.27898274124E+02  0.27898274124E+02  0.00000000000E+00 0.  1.
         23    2    1    2    0    0 -0.41990134454E+02  0.13514074548E+02  0.28222570003E+03  0.31180661255E+03  0.12500486498E+03 0.  0.
          5    1    3    3  502    0  0.23171205995E+02  0.40965071806E+02  0.49215357135E+02  0.68258942808E+02  0.47000000000E+01 0. -1.
         -5    1    3    3    0  502 -0.65161340449E+02 -0.27450997258E+02  0.23301034290E+03  0.24354766974E+03  0.47000000000E+01 0. -1.
        -11    1    1    2    0    0  0.11866865703E+02 -0.31287178441E+02  0.13502905879E+02  0.36083770640E+02  0.00000000000E+00 0.  1.
         11    1    1    2    0    0  0.30123268750E+02  0.17773103893E+02  0.16645931647E+03  0.17009408743E+03  0.00000000000E+00 0. -1.
<mgrwt>
<rscale>  0 0.12372893E+03</rscale>
<asrwt>0</asrwt>
<pdfrwt beam="1">  1        1 0.75397870E-01 0.13255949E+03</pdfrwt>
<pdfrwt beam="2">  1       -1 0.42920425E-02 0.13255949E+03</pdfrwt>
<totfact> 0.97618241E+03</totfact>
</mgrwt>
</event>
<event>
 7    1  0.5206756E-006  0.1364089E+03  0.7546771E-02  0.1230076E+00
         -1   -1    0    0    0  501 -0.00000000000E+00  0.00000000000E+00  0.49400033759E+03  0.49400033759E+03  0.00000000000E+00 0.  1.
          1   -1    0    0  501    0  0.00000000000E+00 -0.00000000000E+00 -0.37926376142E+02  0.37926376142E+02  0.00000000000E+00 0. -1.
         23    2    1    2    0    0 -0.49085980750E+02  0.23893540542E+02  0.12832513954E+03  0.18728247348E+03  0.12500819433E+03 0.  0.
          5    1    3    3  502    0 -0.76475073126E+02 -0.16457090766E+02  0.44312913317E+02  0.90027756457E+02  0.47000000000E+01 0. -1.
         -5    1    3    3    0  502  0.27389092376E+02  0.40350631308E+02  0.84012226220E+02  0.97254717019E+02  0.47000000000E+01 0. -1.
        -11    1    1    2    0    0 -0.14393655649E+02  0.10307561204E+02  0.13595096822E+02  0.22321509772E+02  0.00000000000E+00 0. -1.
         11    1    1    2    0    0  0.63479636399E+02 -0.34201101746E+02  0.31415372509E+03  0.32232273049E+03  0.00000000000E+00 0.  1.
<mgrwt>
<rscale>  0 0.12824960E+03</rscale>
<asrwt>0</asrwt>
<pdfrwt beam="2">  1        1 0.58348274E-02 0.13640888E+03</pdfrwt>
<pdfrwt beam="1">  1       -1 0.76000047E-01 0.13640888E+03</pdfrwt>
<totfact> 0.23598070E+03</totfact>
</mgrwt>
</event>
<event>
 7    1  0.5206756E-006  0.1493807E+03  0.7546771E-02  0.1209960E+00
          1   -1    0    0  501    0  0.00000000000E+00  0.00000000000E+00  0.25418944305E+03  0.25418944305E+03  0.00000000000E+00 0. -1.
         -1   -1    0    0    0  501 -0.00000000000E+00 -0.00000000000E+00 -0.77417225550E+02  0.77417225550E+02  0.00000000000E+00 0.  1.
         23    2    1    2    0    0  0.35202239317E+02  0.73751735187E+02  0.13380560240E+03  0.20054558392E+03  0.12504429576E+03 0.  0.
          5    1    3    3  502    0  0.34530704925E+01  0.99577935342E+02  0.61083465863E+02  0.11696567319E+03  0.47000000000E+01 0. -1.
         -5    1    3    3    0  502  0.31749168824E+02 -0.25826200155E+02  0.72722136540E+02  0.83579910734E+02  0.47000000000E+01 0. -1.
        -11    1    1    2    0    0  0.27009794611E+02 -0.38625137005E+00  0.41351946954E+01  0.27327239711E+02  0.00000000000E+00 0.  1.
         11    1    1    2    0    0 -0.62212033928E+02 -0.73365483817E+02  0.38831420404E+02  0.10373384497E+03  0.00000000000E+00 0. -1.
<mgrwt>
<rscale>  0 0.14253343E+03</rscale>
<asrwt>0</asrwt>
<pdfrwt beam="1">  1        1 0.39106068E-01 0.14938069E+03</pdfrwt>
<pdfrwt beam="2">  1       -1 0.11910342E-01 0.14938069E+03</pdfrwt>
<totfact> 0.48306199E+03</totfact>
</mgrwt>
</event>
<event>
 7    1  0.5206756E-006  0.1530509E+03  0.7546771E-02  0.1205840E+00
         -2   -1    0    0    0  501 -0.00000000000E+00  0.00000000000E+00  0.43333568011E+02  0.43333568011E+02  0.00000000000E+00 0.  1.
          2   -1    0    0  501    0  0.00000000000E+00 -0.00000000000E+00 -0.45469506776E+03  0.45469506776E+03  0.00000000000E+00 0. -1.
         23    2    1    2    0    0 -0.47607354423E+02 -0.74392417809E+02 -0.25462752348E+03  0.29708544718E+03  0.12499558069E+03 0.  0.
          5    1    3    3  502    0 -0.22955705530E+02 -0.50592591555E+01  0.72348928896E+01  0.25039852130E+02  0.47000000000E+01 0. -1.
         -5    1    3    3    0  502 -0.24651648893E+02 -0.69333158653E+02 -0.26186241637E+03  0.27204559505E+03  0.47000000000E+01 0. -1.
        -11    1    1    2    0    0  0.23226019588E+02  0.92484489810E+02 -0.12077932962E+03  0.15388461686E+03  0.00000000000E+00 0.  1.
         11    1    1    2    0    0  0.24381334835E+02 -0.18092072001E+02 -0.35954646646E+02  0.47058571728E+02  0.00000000000E+00 0. -1.
<mgrwt>
<rscale>  0 0.14571440E+03</rscale>
<asrwt>0</asrwt>
<pdfrwt beam="2">  1        2 0.69953089E-01 0.15305093E+03</pdfrwt>
<pdfrwt beam="1">  1       -2 0.66667026E-02 0.15305093E+03</pdfrwt>
<totfact> 0.83724810E+03</totfact>
</mgrwt>
</event>
<event>
 7    1  0.5206756E-006  0.1410018E+03  0.7546771E-02  0.1222723E+00
          3   -1    0    0  501    0  0.00000000000E+00  0.00000000000E+00  0.36435897033E+03  0.36435897033E+03  0.00000000000E+00 0. -1.
         -3   -1    0    0    0  501 -0.00000000000E+00 -0.00000000000E+00 -0.44680777877E+02  0.44680777877E+02  0.00000000000E+00 0.  1.
         23    2    1    2    0    0  0.65135525995E+02 -0.19207686811E+01  0.20138770748E+03  0.24584245936E+03  0.12504071336E+03 0.  0.
          5    1    3    3  502    0  0.63481080125E+02 -0.33070162437E+02  0.20192984501E+03  0.21429240650E+03  0.47000000000E+01 0.  1.
         -5    1    3    3    0  502  0.16544458703E+01  0.31149393755E+02 -0.54213752229E+00  0.31550052861E+02  0.47000000000E+01 0.  1.
        -11    1    1    2    0    0 -0.43802435141E+02  0.94645430407E+01  0.21411837440E+01  0.44864413147E+02  0.00000000000E+00 0.  1.
         11    1    1    2    0    0 -0.21333090855E+02 -0.75437743596E+01  0.11614930122E+03  0.11833287570E+03  0.00000000000E+00 0. -1.
<mgrwt>
<rscale>  0 0.13324163E+03</rscale>
<asrwt>0</asrwt>
<pdfrwt beam="1">  1        3 0.56055224E-01 0.14100179E+03</pdfrwt>
<pdfrwt beam="2">  1       -3 0.68739661E-02 0.14100179E+03</pdfrwt>
<totfact> 0.10047567E+03</totfact>
</mgrwt>
</event>
<event>
 7    1  0.5206756E-006  0.1472629E+03  0.7546771E-02  0.1207804E+00
         -1   -1    0    0    0  501 -0.00000000000E+00  0.00000000000E+00  0.23921999180E+03  0.23921999180E+03  0.00000000000E+00 0.  1.
          1   -1    0    0  501    0  0.00000000000E+00 -0.00000000000E+00 -0.11228079302E+03  0.11228079302E+03  0.00000000000E+00 0. -1.
         23    2    1    2    0    0  0.45610529158E+01 -0.77716536026E+02 -0.23519741678E+02  0.14912922465E+03  0.12500273685E+03 0.  0.
          5    1    3    3  502    0  0.23180622847E+02  0.12059276640E+02  0.32202327871E+02  0.41735444756E+02  0.47000000000E+01 0.  1.
         -5    1    3    3    0  502 -0.18619569931E+02 -0.89775812666E+02 -0.55722069549E+02  0.10739377989E+03  0.47000000000E+01 0.  1.
        -11    1    1    2    0    0  0.41448035591E+02  0.50316039470E+02  0.12927893014E+03  0.14478496214E+03  0.00000000000E+00 0.  1.
         11    1    1    2    0    0 -0.46009088507E+02  0.27400496556E+02  0.21180010316E+02  0.57586598039E+02  0.00000000000E+00 0. -1.
<mgrwt>
<rscale>  0 0.14418656E+03</rscale>
<asrwt>0</asrwt>
<pdfrwt beam="2">  1        1 0.17273968E-01 0.14726285E+03</pdfrwt>
<pdfrwt beam="1">  1       -1 0.36803076E-01 0.14726285E+03</pdfrwt>
<totfact> 0.21603397E+03</totfact>
</mgrwt>
</event>
<event>
 7    1  0.5206756E-006  0.1347681E+03  0.7546771E-02  0.1233996E+00
          4   -1    0    0  501    0  0.00000000000E+00  0.00000000000E+00  0.31172287658E+03  0.31172287658E+03  0.00000000000E+00 0. -1.
         -4   -1    0    0    0  501 -0.00000000000E+00 -0.00000000000E+00 -0.57736992421E+02  0.57736992421E+02  0.00000000000E+00 0.  1.
         23    2    1    2    0    0  0.16661107383E+02  0.47537994550E+02  0.22699543968E+03  0.26398745276E+03  0.12499996860E+03 0.  0.
          5    1    3    3  502    0  0.52018430497E+02  0.53644908416E+02  0.21197034401E+03  0.22480482657E+03  0.47000000000E+01 0.  1.
         -5    1    3    3    0  502 -0.35357323114E+02 -0.61069138657E+01  0.15025095673E+02  0.39182626185E+02  0.47000000000E+01 0.  1.
        -11    1    1    2    0    0 -0.18189030744E+02 -0.37188967111E+02 -0.27686544686E+02  0.49803663227E+02  0.00000000000E+00 0.  1.
         11    1    1    2    0    0  0.15279233611E+01 -0.10349027439E+02  0.54676989159E+02  0.55668753015E+02  0.00000000000E+00 0. -1.
<mgrwt>
<rscale>  0 0.12568932E+03</rscale>
<asrwt>0</asrwt>
<pdfrwt beam="1">  1        4 0.47957365E-01 0.13476812E+03</pdfrwt>
<pdfrwt beam="2">  1       -4 0.88826144E-02 0.13476812E+03</pdfrwt>
<totfact> 0.64766329E+02</totfact>
</mgrwt>
</event>
<event>
 7    1  0.5206756E-006  0.1816312E+03  0.7546771E-02  0.1171725E+00
          1   -1    0    0  501    0  0.00000000000E+00  0.00000000000E+00  0.20221307126E+04  0.20221307126E+04  0.00000000000E+00 0.  1.
         -1   -1    0    0    0  501 -0.00000000000E+00 -0.00000000000E+00 -0.17221767027E+02  0.17221767027E+02  0.00000000000E+00 0. -1.
         23    2    1    2    0    0  0.31210128430E+02 -0.12801326023E+03  0.14642134586E+04  0.14754358442E+04  0.12501364263E+03 0.  0.
          5    1    3    3  502    0 -0.24853746100E+02 -0.44985347946E+02  0.95762991437E+03  0.95901956869E+03  0.47000000000E+01 0. -1.
         -5    1    3    3    0  502  0.56063874530E+02 -0.83027912281E+02  0.50658354427E+03  0.51641627547E+03  0.47000000000E+01 0. -1.
        -11    1    1    2    0    0 -0.44462520314E+02  0.16740403991E+02  0.13968625976E+03  0.14754459666E+03  0.00000000000E+00 0.  1.
         11    1    1    2    0    0  0.13252391884E+02  0.11127285624E+03  0.40100922721E+03  0.41637203885E+03  0.00000000000E+00 0. -1.
<mgrwt>
<rscale>  0 0.17600680E+03</rscale>
<asrwt>0</asrwt>
<pdfrwt beam="1">  1        1 0.31109684E+00 0.18163116E+03</pdfrwt>
<pdfrwt beam="2">  1       -1 0.26495042E-02 0.18163116E+03</pdfrwt>
<totfact> 0.14871305E+03</totfact>
</mgrwt>
</event>
<event>
 6    1  0.5206756E-006  0.1384575E+03  0.7546771E-02  0.1231874E+00
         -2   -1    0    0    0  501 -0.00000000000E+00  0.00000000000E+00  0.24726151750E+02  0.24726151750E+02  0.00000000000E+00 0.  1.
          2   -1    0    0  501    0  0.00000000000E+00 -0.00000000000E+00 -0.68627015677E+03  0.68627015677E+03  0.00000000000E+00 0. -1.
          5    1    1    2  502    0 -0.46148567652E+02  0.54493895597E+02 -0.18089186260E+03  0.19453336708E+03  0.47000000000E+01 0. -1.
         -5    1    1    2    0  502  0.17017577660E+02 -0.51834603621E+02 -0.34311661535E+03  0.34745866777E+03  0.47000000000E+01 0. -1.
        -11    1    1    2    0    0  0.37875519620E+02 -0.24155500022E+02 -0.19954722172E+02  0.49155204249E+02  0.00000000000E+00 0.  1.
         11    1    1    2    0    0 -0.87445296282E+01  0.21496208046E+02 -0.11758080490E+03  0.11984906942E+03  0.00000000000E+00 0. -1.
<mgrwt>
<rscale>  0 0.12706711E+03</rscale>
<asrwt>0</asrwt>
<pdfrwt beam="2">  1        2 0.10558002E+00 0.13845751E+03</pdfrwt>
<pdfrwt beam="1">  1       -2 0.38040234E-02 0.13845751E+03</pdfrwt>
<totfact> 0.12171548E+04</totfact>
</mgrwt>
</event>
<event>
 7    1  0.5206756E-006  0.1385860E+03  0.7546771E-02  0.1226901E+00
          2   -1    0    0  501    0  0.00000000000E+00  0.00000000000E+00  0.23553766818E+03  0.23553766818E+03  0.00000000000E+00 0. -1.
         -2   -1    0    0    0  501 -0.00000000000E+00 -0.00000000000E+00 -0.70110494811E+02  0.70110494811E+02  0.00000000000E+00 0.  1.
         23    2    1    2    0    0  0.45808368522E+02 -0.38476355913E+02  0.13368585086E+03  0.19255647647E+03  0.12500901295E+03 0.  0.
          5    1    3    3  502    0  0.87487936199E+01  0.45554344005E+02  0.44541197035E+02  0.64480600810E+02  0.47000000000E+01 0. -1.
         -5    1    3    3    0  502  0.37059574902E+02 -0.84030699917E+02  0.89144653828E+02  0.12807587566E+03  0.47000000000E+01 0. -1.
        -11    1    1    2    0    0 -0.62676808703E+02  0.31145893317E+02 -0.68682563916E+01  0.70325116179E+02  0.00000000000E+00 0.  1.
         11    1    1    2    0    0  0.16868440182E+02  0.73304625963E+01  0.38609578899E+02  0.42766570342E+02  0.00000000000E+00 0. -1.
<mgrwt>
<rscale>  0 0.13037460E+03</rscale>
<asrwt>0</asrwt>
<pdfrwt beam="1">  1        2 0.36236564E-01 0.13858604E+03</pdfrwt>
<pdfrwt beam="2">  1       -2 0.10786230E-01 0.13858604E+03</pdfrwt>
<totfact> 0.79459075E+03</totfact>
</mgrwt>
</event>
<event>
 7    1  0.5206756E-006  0.1429178E+03  0.7546771E-02  0.1220582E+00
         -1   -1    0    0    0  501 -0.00000000000E+00  0.00000000000E+00  0.15325238820E+02  0.15325238820E+02  0.00000000000E+00 0.  1.
          1   -1    0    0  501    0  0.00000000000E+00 -0.00000000000E+00 -0.11032964948E+04  0.11032964948E+04  0.00000000000E+00 0. -1.
         23    2    1    2    0    0  0.67829659522E+02 -0.14033943856E+02 -0.70544433647E+03  0.71977580454E+03  0.12501073017E+03 0.  0.
          5    1    3    3  502    0  0.46769030725E+02 -0.63632818133E+02 -0.28185574514E+03  0.29274772219E+03  0.47000000000E+01 0. -1.
         -5    1    3    3    0  502  0.21060628797E+02  0.49598874277E+02 -0.42358859133E+03  0.42702808236E+03  0.47000000000E+01 0. -1.
        -11    1    1    2    0    0  0.32923714321E+01  0.32448649403E+02 -0.18997669205E+03  0.19275605847E+03  0.00000000000E+00 0. -1.
         11    1    1    2    0    0 -0.71122030954E+02 -0.18414705547E+02 -0.19255022743E+03  0.20608987056E+03  0.00000000000E+00 0.  1.
<mgrwt>
<rscale>  0 0.13474379E+03</rscale>
<asrwt>0</asrwt>
<pdfrwt beam="2">  1        1 0.16973783E+00 0.14291780E+03</pdfrwt>
<pdfrwt beam="1">  1       -1 0.23577303E-02 0.14291780E+03</pdfrwt>
<totfact> 0.70402153E+03</totfact>
</mgrwt>
</event>
<event>
 7    1  0.5206756E-006  0.1698123E+03  0.7546771E-02  0.1184864E+00
          2   -1    0    0  501    0  0.00000000000E+00  0.00000000000E+00  0.59322636569E+03  0.59322636569E+03  0.00000000000E+00 0. -1.
         -2   -1    0    0    0  501 -0.00000000000E+00 -0.00000000000E+00 -0.49516988177E+02  0.49516988177E+02  0.00000000000E+00 0.  1.
         23    2    1    2    0    0 -0.83739895335E+02  0.78776836578E+02  0.41466763148E+03  0.44809090039E+03  0.12497219838E+03 0.  0.
          5    1    3    3  502    0 -0.18108417839E+02  0.39076135541E+02  0.33354703338E+03  0.33634888530E+03  0.47000000000E+01 0.  1.
         -5    1    3    3    0  502 -0.65631477496E+02  0.39700701037E+02  0.81120598092E+02  0.11174201509E+03  0.47000000000E+01 0.  1.
        -11    1    1    2    0    0  0.24146656966E+02 -0.57847805170E+01 -0.99340004999E+01  0.26743393468E+02  0.00000000000E+00 0.  1.
         11    1    1    2    0    0  0.59593238369E+02 -0.72992056061E+02  0.13897574654E+03  0.16790906001E+03  0.00000000000E+00 0. -1.
<mgrwt>
<rscale>  0 0.16344270E+03</rscale>
<asrwt>0</asrwt>
<pdfrwt beam="1">  1        2 0.91265590E-01 0.16981228E+03</pdfrwt>
<pdfrwt beam="2">  1       -2 0.76179986E-02 0.16981228E+03</pdfrwt>
<totfact> 0.50994141E+03</totfact>
</mgrwt>
</event>
<event>
 7    1  0.5206756E-006  0.1481688E+03  0.7546771E-02  0.1212131E+00
          2   -1    0    0  501    0  0.00000000000E+00  0.00000000000E+00  0.71799185937E+03  0.71799185937E+03  0.00000000000E+00 0. -1.
         -2   -1    0    0    0  501 -0.00000000000E+00 -0.00000000000E+00 -0.32192872192E+02  0.32192872192E+02  0.00000000000E+00 0.  1.
         23    2    1    2    0    0 -0.47492152422E+02  0.63814946114E+02  0.54334167912E+03  0.56318218987E+03  0.12500458725E+03 0.  0.
          5    1    3    3  502    0  0.33768394457E+02  0.51058305918E+02  0.30161987818E+03  0.30780496419E+03  0.47000000000E+01 0.  1.
         -5    1    3    3    0  502 -0.81260546880E+02  0.12756640196E+02  0.24172180094E+03  0.25537722568E+03  0.47000000000E+01 0.  1.
        -11    1    1    2    0    0 -0.22783795673E+01  0.19036638270E+02  0.48741094125E+02  0.52376319712E+02  0.00000000000E+00 0. -1.
         11    1    1    2    0    0  0.49770531990E+02 -0.82851584384E+02  0.93716213933E+02  0.13462622198E+03  0.00000000000E+00 0.  1.
<mgrwt>
<rscale>  0 0.14089419E+03</rscale>
<asrwt>0</asrwt>
<pdfrwt beam="1">  1        2 0.11046027E+00 0.14816882E+03</pdfrwt>
<pdfrwt beam="2">  1       -2 0.49527501E-02 0.14816882E+03</pdfrwt>
<totfact> 0.78091368E+03</totfact>
</mgrwt>
</event>
<event>
 7    1  0.5206756E-006  0.1300699E+03  0.7546771E-02  0.1241600E+00
         -4   -1    0    0    0  501 -0.00000000000E+00  0.00000000000E+00  0.25672015067E+02  0.25672015067E+02  0.00000000000E+00 0.  1.
          4   -1    0    0  501    0  0.00000000000E+00 -0.00000000000E+00 -0.50271579449E+03  0.50271579449E+03  0.00000000000E+00 0. -1.
         23    2    1    2    0    0  0.23881487735E+02  0.26902252271E+02 -0.27088985901E+03  0.30049874933E+03  0.12499650395E+03 0.  0.
          5    1    3    3  502    0  0.13692955317E+02  0.76252287298E+02 -0.13849271787E+03  0.15875840528E+03  0.47000000000E+01 0.  1.
         -5    1    3    3    0  502  0.10188532418E+02 -0.49350035026E+02 -0.13239714114E+03  0.14174034405E+03  0.47000000000E+01 0.  1.
        -11    1    1    2    0    0 -0.44015319841E+02 -0.19596046955E+02 -0.19983030803E+03  0.20555657481E+03  0.00000000000E+00 0. -1.
         11    1    1    2    0    0  0.20133832106E+02 -0.73062053165E+01 -0.63236123732E+01  0.22332485416E+02  0.00000000000E+00 0.  1.
<mgrwt>
<rscale>  0 0.12091204E+03</rscale>
<asrwt>0</asrwt>
<pdfrwt beam="2">  1        4 0.77340889E-01 0.13006991E+03</pdfrwt>
<pdfrwt beam="1">  1       -4 0.39495409E-02 0.13006991E+03</pdfrwt>
<totfact> 0.87688161E+02</totfact>
</mgrwt>
</event>
<event>
 7    1  0.5206756E-006  0.1310576E+03  0.7546771E-02  0.1241279E+00
          2   -1    0    0  501    0  0.00000000000E+00  0.00000000000E+00  0.50355952177E+02  0.50355952177E+02  0.00000000000E+00 0. -1.
         -2   -1    0    0    0  501 -0.00000000000E+00 -0.00000000000E+00 -0.25499030329E+03  0.25499030329E+03  0.00000000000E+00 0.  1.
         23    2    1    2    0    0  0.37862270295E+02 -0.14336515575E+02 -0.11926305778E+03  0.17719982338E+03  0.12464755618E+03 0.  0.
          5    1    3    3  502    0 -0.22824617218E+02  0.38699940610E+01  0.15470787256E+02  0.28237833903E+02  0.47000000000E+01 0. -1.
         -5    1    3    3    0  502  0.60686887514E+02 -0.18206509636E+02 -0.13473384504E+03  0.14896198947E+03  0.47000000000E+01 0.  1.
        -11    1    1    2    0    0 -0.34839117167E+02 -0.26231843182E+02 -0.13659885655E+02  0.45699739144E+02  0.00000000000E+00 0.  1.
         11    1    1    2    0    0 -0.30231531282E+01  0.40568358757E+02 -0.71711407674E+02  0.82446692945E+02  0.00000000000E+00 0. -1.
<mgrwt>
<rscale>  0 0.12110857E+03</rscale>
<asrwt>0</asrwt>
<pdfrwt beam="1">  1        2 0.77470697E-02 0.13105762E+03</pdfrwt>
<pdfrwt beam="2">  1       -2 0.39229277E-01 0.13105762E+03</pdfrwt>
<totfact> 0.51896694E+03</totfact>
</mgrwt>
</event>
<event>
 7    1  0.5206756E-006  0.1439618E+03  0.7546771E-02  0.1217492E+00
          2   -1    0    0  501    0  0.00000000000E+00  0.00000000000E+00  0.11379887023E+03  0.11379887023E+03  0.00000000000E+00 0. -1.
         -2   -1    0    0    0  501 -0.00000000000E+00 -0.00000000000E+00 -0.27843748651E+03  0.27843748651E+03  0.00000000000E+00 0.  1.
         23    2    1    2    0    0  0.62507237513E+02  0.34536477488E+02  0.45757014479E+02  0.15105862954E+03  0.12500032867E+03 0.  0.
          5    1    3    3  502    0  0.16053339548E+02 -0.46137806343E+02  0.50150184234E+01  0.49332010851E+02  0.47000000000E+01 0. -1.
         -5    1    3    3    0  502  0.46453897966E+02  0.80674283831E+02  0.40741996056E+02  0.10172661869E+03  0.47000000000E+01 0. -1.
        -11    1    1    2    0    0  0.75735817742E+01 -0.41634923482E+02 -0.11540937227E+03  0.12292334686E+03  0.00000000000E+00 0.  1.
         11    1    1    2    0    0 -0.70080819288E+02  0.70984459940E+01 -0.94986258490E+02  0.11825438034E+03  0.00000000000E+00 0. -1.
<mgrwt>
<rscale>  0 0.13695056E+03</rscale>
<asrwt>0</asrwt>
<pdfrwt beam="1">  1        2 0.17507518E-01 0.14396182E+03</pdfrwt>
<pdfrwt beam="2">  1       -2 0.42836537E-01 0.14396182E+03</pdfrwt>
<totfact> 0.16513016E+03</totfact>
</mgrwt>
</event>
<event>
 7    1  0.5206756E-006  0.1262327E+03  0.7546771E-02  0.1249125E+00
         -1   -1    0    0    0  501 -0.00000000000E+00  0.00000000000E+00  0.17992350427E+02  0.17992350427E+02  0.00000000000E+00 0. -1.
          1   -1    0    0  501    0  0.00000000000E+00 -0.00000000000E+00 -0.66269005454E+03  0.66269005454E+03  0.00000000000E+00 0.  1.
         23    2    1    2    0    0 -0.78062527118E+01 -0.15756756066E+02 -0.40301737687E+03  0.42232417824E+03  0.12500197009E+03 0.  0.
          5    1    3    3  502    0  0.16967254047E+02 -0.47553831816E+02 -0.67830320931E+02  0.84689415324E+02  0.47000000000E+01 0.  1.
         -5    1    3    3    0  502 -0.24773506759E+02  0.31797075750E+02 -0.33518705594E+03  0.33763476292E+03  0.47000000000E+01 0.  1.
        -11    1    1    2    0    0  0.38974919052E+02  0.25651872612E+02 -0.73727623745E+02  0.87251506501E+02  0.00000000000E+00 0. -1.
         11    1    1    2    0    0 -0.31168666340E+02 -0.98951165458E+01 -0.16795270349E+03  0.17110672022E+03  0.00000000000E+00 0.  1.
<mgrwt>
<rscale>  0 0.11641853E+03</rscale>
<asrwt>0</asrwt>
<pdfrwt beam="2">  1        1 0.10195231E+00 0.12623274E+03</pdfrwt>
<pdfrwt beam="1">  1       -1 0.27680540E-02 0.12623274E+03</pdfrwt>
<totfact> 0.12306111E+04</totfact>
</mgrwt>
</event>
<event>
 7    1  0.5206756E-006  0.1718428E+03  0.7546771E-02  0.1182496E+00
         -2   -1    0    0    0  501 -0.00000000000E+00  0.00000000000E+00  0.20433971542E+02  0.20433971542E+02  0.00000000000E+00 0.  1.
          2   -1    0    0  501    0  0.00000000000E+00 -0.00000000000E+00 -0.13994328247E+04  0.13994328247E+04  0.00000000000E+00 0. -1.
         23    2    1    2    0    0 -0.69444769437E+02 -0.95292659099E+02 -0.96356256712E+03  0.97876593840E+03  0.12500669797E+03 0.  0.
          5    1    3    3  502    0 -0.83687651006E+02 -0.73948342737E+02 -0.42128795500E+03  0.43586421206E+03  0.47000000000E+01 0.  1.
         -5    1    3    3    0  502  0.14242881568E+02 -0.21344316362E+02 -0.54227461212E+03  0.54290172634E+03  0.47000000000E+01 0.  1.
        -11    1    1    2    0    0  0.48851973467E+02  0.99373774640E+02 -0.39999758909E+03  0.41504184570E+03  0.00000000000E+00 0. -1.
         11    1    1    2    0    0  0.20592795970E+02 -0.40811155407E+01 -0.15438696907E+02  0.26059012110E+02  0.00000000000E+00 0.  1.
<mgrwt>
<rscale>  0 0.16561837E+03</rscale>
<asrwt>0</asrwt>
<pdfrwt beam="2">  1        2 0.21529736E+00 0.17184278E+03</pdfrwt>
<pdfrwt beam="1">  1       -2 0.31436879E-02 0.17184278E+03</pdfrwt>
<totfact> 0.60359532E+03</totfact>
</mgrwt>
</event>
<event>
 7    1  0.5206756E-006  0.1323661E+03  0.7546771E-02  0.1237376E+00
         -2   -1    0    0    0  501 -0.00000000000E+00  0.00000000000E+00  0.28177059670E+02  0.28177059670E+02  0.00000000000E+00 0.  1.
          2   -1    0    0  501    0  0.00000000000E+00 -0.00000000000E+00 -0.48447471210E+03  0.48447471210E+03  0.00000000000E+00 0. -1.
         23    2    1    2    0    0  0.22499975264E+02  0.37276639263E+02 -0.28130123552E+03  0.31088772302E+03  0.12499997800E+03 0.  0.
          5    1    3    3  502    0  0.73548254031E+02  0.22959402029E+02 -0.19187518102E+03  0.20682034451E+03  0.47000000000E+01 0. -1.
         -5    1    3    3    0  502 -0.51048278766E+02  0.14317237234E+02 -0.89426054500E+02  0.10406737851E+03  0.47000000000E+01 0. -1.
        -11    1    1    2    0    0 -0.55778426356E+02 -0.98692767420E+01 -0.11071736749E+03  0.12436627732E+03  0.00000000000E+00 0. -1.
         11    1    1    2    0    0  0.33278451092E+02 -0.27407362521E+02 -0.64279049416E+02  0.77397771423E+02  0.00000000000E+00 0.  1.
<mgrwt>
<rscale>  0 0.12353558E+03</rscale>
<asrwt>0</asrwt>
<pdfrwt beam="2">  1        2 0.74534572E-01 0.13236613E+03</pdfrwt>
<pdfrwt beam="1">  1       -2 0.43349322E-02 0.13236613E+03</pdfrwt>
<totfact> 0.14808364E+04</totfact>
</mgrwt>
</event>
<event>
 7    1  0.5206756E-006  0.1623075E+03  0.7546771E-02  0.1190505E+00
          2   -1    0    0  501    0  0.00000000000E+00  0.00000000000E+00  0.28660154412E+03  0.28660154412E+03  0.00000000000E+00 0. -1.
         -2   -1    0    0    0  501 -0.00000000000E+00 -0.00000000000E+00 -0.83795100592E+02  0.83795100592E+02  0.00000000000E+00 0.  1.
         23    2    1    2    0    0  0.64459467327E+02  0.81017446191E+02  0.97315010915E+02  0.18924573837E+03  0.12499955451E+03 0.  0.
          5    1    3    3  502    0 -0.86497580947E+01  0.80633499815E+02  0.79903391682E+02  0.11394394064E+03  0.47000000000E+01 0. -1.
         -5    1    3    3    0  502  0.73109225422E+02  0.38394637575E+00  0.17411619233E+02  0.75301797727E+02  0.47000000000E+01 0. -1.
        -11    1    1    2    0    0 -0.14557232392E+02  0.24522720750E+02  0.96512377977E+01  0.30106863651E+02  0.00000000000E+00 0.  1.
         11    1    1    2    0    0 -0.49902234935E+02 -0.10554016694E+03  0.95840194813E+02  0.15104404269E+03  0.00000000000E+00 0. -1.
<mgrwt>
<rscale>  0 0.15840886E+03</rscale>
<asrwt>0</asrwt>
<pdfrwt beam="1">  1        2 0.44092545E-01 0.16230754E+03</pdfrwt>
<pdfrwt beam="2">  1       -2 0.12891554E-01 0.16230754E+03</pdfrwt>
<totfact> 0.48949230E+03</totfact>
</mgrwt>
</event>
<event>
 7    1  0.5206756E-006  0.1347793E+03  0.7546771E-02  0.1233141E+00
         -2   -1    0    0    0  501 -0.00000000000E+00  0.00000000000E+00  0.29606348716E+03  0.29606348716E+03  0.00000000000E+00 0.  1.
          2   -1    0    0  501    0  0.00000000000E+00 -0.00000000000E+00 -0.50268934853E+02  0.50268934853E+02  0.00000000000E+00 0. -1.
         23    2    1    2    0    0 -0.35785395624E+02 -0.35459069308E+02  0.10201054166E+03  0.16903138408E+03  0.12501007183E+03 0.  0.
          5    1    3    3  502    0  0.35439102511E+02  0.19237282001E+02  0.52536827725E+02  0.66394361756E+02  0.47000000000E+01 0.  1.
         -5    1    3    3    0  502 -0.71224498135E+02 -0.54696351309E+02  0.49473713939E+02  0.10263702233E+03  0.47000000000E+01 0.  1.
        -11    1    1    2    0    0  0.43115751640E+02 -0.14510623869E+02  0.10224386748E+03  0.11190770609E+03  0.00000000000E+00 0.  1.
         11    1    1    2    0    0 -0.73303560161E+01  0.49969693177E+02  0.41540143162E+02  0.65393331843E+02  0.00000000000E+00 0. -1.
<mgrwt>
<rscale>  0 0.12624177E+03</rscale>
<asrwt>0</asrwt>
<pdfrwt beam="2">  1        2 0.77336825E-02 0.13477929E+03</pdfrwt>
<pdfrwt beam="1">  1       -2 0.45548228E-01 0.13477929E+03</pdfrwt>
<totfact> 0.39169007E+03</totfact>
</mgrwt>
</event>
<event>
 7    1  0.5206756E-006  0.1839424E+03  0.7546771E-02  0.1169315E+00
         -2   -1    0    0    0  501 -0.00000000000E+00  0.00000000000E+00  0.25262798874E+02  0.25262798874E+02  0.00000000000E+00 0.  1.
          2   -1    0    0  501    0  0.00000000000E+00 -0.00000000000E+00 -0.12083520744E+04  0.12083520744E+04  0.00000000000E+00 0. -1.
         23    2    1    2    0    0  0.19214366315E+02 -0.13356165549E+03 -0.70135444685E+03  0.72507438178E+03  0.12500756505E+03 0.  0.
          5    1    3    3  502    0  0.14459319090E+02  0.95675993758E+01 -0.13543477022E+02  0.22497258415E+02  0.47000000000E+01 0.  1.
         -5    1    3    3    0  502  0.47550472257E+01 -0.14312925486E+03 -0.68781096982E+03  0.70257712337E+03  0.47000000000E+01 0.  1.
        -11    1    1    2    0    0  0.26984759195E+02  0.62677523039E+02 -0.30574919502E+03  0.31327179793E+03  0.00000000000E+00 0. -1.
         11    1    1    2    0    0 -0.46199125510E+02  0.70884132447E+02 -0.17598563369E+03  0.19526869359E+03  0.00000000000E+00 0.  1.
<mgrwt>
<rscale>  0 0.17844696E+03</rscale>
<asrwt>0</asrwt>
<pdfrwt beam="2">  1        2 0.18590029E+00 0.18394238E+03</pdfrwt>
<pdfrwt beam="1">  1       -2 0.38865850E-02 0.18394238E+03</pdfrwt>
<totfact> 0.56075992E+03</totfact>
</mgrwt>
</event>
<event>
 7    1  0.5206756E-006  0.1473686E+03  0.7546771E-02  0.1212943E+00
          2   -1    0    0  501    0  0.00000000000E+00  0.00000000000E+00  0.22602693538E+03  0.22602693538E+03  0.00000000000E+00 0. -1.
         -2   -1    0    0    0  501 -0.00000000000E+00 -0.00000000000E+00 -0.82067724649E+02  0.82067724649E+02  0.00000000000E+00 0.  1.
         23    2    1    2    0    0 -0.19733983454E+02  0.75518240473E+02  0.10503630527E+03  0.18096996749E+03  0.12500027584E+03 0.  0.
          5    1    3    3  502    0  0.48475025501E+02  0.14747383622E+02  0.16062220209E+02  0.53361018910E+02  0.47000000000E+01 0. -1.
         -5    1    3    3    0  502 -0.68209008955E+02  0.60770856851E+02  0.88974085065E+02  0.12760894858E+03  0.47000000000E+01 0. -1.
        -11    1    1    2    0    0  0.53578674686E+02 -0.31144081999E+02  0.35013733699E+02  0.71179981541E+02  0.00000000000E+00 0.  1.
         11    1    1    2    0    0 -0.33844691232E+02 -0.44374158473E+02  0.39091717590E+01  0.55944710998E+02  0.00000000000E+00 0. -1.
<mgrwt>
<rscale>  0 0.14028701E+03</rscale>
<asrwt>0</asrwt>
<pdfrwt beam="1">  1        2 0.34773374E-01 0.14736860E+03</pdfrwt>
<pdfrwt beam="2">  1       -2 0.12625804E-01 0.14736860E+03</pdfrwt>
<totfact> 0.64873030E+03</totfact>
</mgrwt>
</event>
<event>
 6    1  0.5206756E-006  0.2474789E+03  0.7546771E-02  0.1145792E+00
         -2   -1    0    0    0  501 -0.00000000000E+00  0.00000000000E+00  0.42202894585E+02  0.42202894585E+02  0.00000000000E+00 0.  1.
          2   -1    0    0  501    0  0.00000000000E+00 -0.00000000000E+00 -0.80429289196E+03  0.80429289196E+03  0.00000000000E+00 0. -1.
          5    1    1    2  502    0  0.88520475131E+02  0.42739166932E+02 -0.22594934232E+03  0.24645021039E+03  0.47000000000E+01 0. -1.
         -5    1    1    2    0  502 -0.91703990578E+02 -0.11739026886E+03 -0.35444069242E+03  0.38450018407E+03  0.47000000000E+01 0.  1.
        -11    1    1    2    0    0  0.50835145921E+01  0.95116406547E+02 -0.15345043386E+03  0.18061010095E+03  0.00000000000E+00 0.  1.
         11    1    1    2    0    0 -0.18999991454E+01 -0.20465304617E+02 -0.28249528789E+02  0.34935291134E+02  0.00000000000E+00 0. -1.
<mgrwt>
<rscale>  0 0.20474980E+03</rscale>
<asrwt>0</asrwt>
<pdfrwt beam="2">  1        2 0.12373736E+00 0.24747890E+03</pdfrwt>
<pdfrwt beam="1">  1       -2 0.64927535E-02 0.24747890E+03</pdfrwt>
<totfact> 0.45883253E+03</totfact>
</mgrwt>
</event>
<event>
 6    1  0.5206756E-006  0.1556218E+03  0.7546771E-02  0.1241934E+00
         -2   -1    0    0    0  501 -0.00000000000E+00  0.00000000000E+00  0.62196690547E+02  0.62196690547E+02  0.00000000000E+00 0.  1.
          2   -1    0    0  501    0  0.00000000000E+00 -0.00000000000E+00 -0.32016280882E+03  0.32016280882E+03  0.00000000000E+00 0. -1.
          5    1    1    2  502    0  0.27532043227E+01  0.40995929388E+02 -0.27702511189E+03  0.28009507133E+03  0.47000000000E+01 0. -1.
         -5    1    1    2    0  502 -0.28159649968E+02 -0.29574911551E+02 -0.42043434081E+01  0.41320791172E+02  0.47000000000E+01 0.  1.
        -11    1    1    2    0    0 -0.94799906761E+01  0.10059774657E+02  0.12373021984E+02  0.18551575739E+02  0.00000000000E+00 0. -1.
         11    1    1    2    0    0  0.34886436321E+02 -0.21480792494E+02  0.10890315043E+02  0.42392061133E+02  0.00000000000E+00 0.  1.
<mgrwt>
<rscale>  0 0.12070789E+03</rscale>
<asrwt>0</asrwt>
<pdfrwt beam="2">  1        2 0.49255817E-01 0.15562182E+03</pdfrwt>
<pdfrwt beam="1">  1       -2 0.95687216E-02 0.15562182E+03</pdfrwt>
<totfact> 0.69748029E+03</totfact>
</mgrwt>
</event>
<event>
 7    1  0.5206756E-006  0.1288181E+03  0.7546771E-02  0.1243635E+00
         -1   -1    0    0    0  501 -0.00000000000E+00  0.00000000000E+00  0.85395661154E+02  0.85395661154E+02  0.00000000000E+00 0.  1.
          1   -1    0    0  501    0  0.00000000000E+00 -0.00000000000E+00 -0.14792756605E+03  0.14792756605E+03  0.00000000000E+00 0. -1.
         23    2    1    2    0    0  0.13961432700E+02  0.27810866828E+02 -0.34650466230E+02  0.13339702111E+03  0.12500297802E+03 0.  0.
          5    1    3    3  502    0  0.65444687104E+02 -0.64110008513E+01 -0.10007237433E+02  0.66680902837E+02  0.47000000000E+01 0. -1.
         -5    1    3    3    0  502 -0.51483254405E+02  0.34221867679E+02 -0.24643228797E+02  0.66716118271E+02  0.47000000000E+01 0. -1.
        -11    1    1    2    0    0 -0.14519471567E+02 -0.21571389587E+01  0.31766044178E+02  0.34993568920E+02  0.00000000000E+00 0.  1.
         11    1    1    2    0    0  0.55803886711E+00 -0.25653727869E+02 -0.59647482849E+02  0.64932637181E+02  0.00000000000E+00 0. -1.
<mgrwt>
<rscale>  0 0.11967478E+03</rscale>
<asrwt>0</asrwt>
<pdfrwt beam="2">  1        1 0.22758087E-01 0.12881813E+03</pdfrwt>
<pdfrwt beam="1">  1       -1 0.13137794E-01 0.12881813E+03</pdfrwt>
<totfact> 0.80721344E+03</totfact>
</mgrwt>
</event>
<event>
 7    1  0.5206756E-006  0.1277041E+03  0.7546771E-02  0.1245144E+00
          2   -1    0    0  501    0  0.00000000000E+00  0.00000000000E+00  0.45919970823E+03  0.45919970823E+03  0.00000000000E+00 0. -1.
         -2   -1    0    0    0  501 -0.00000000000E+00 -0.00000000000E+00 -0.32530926805E+02  0.32530926805E+02  0.00000000000E+00 0.  1.
         23    2    1    2    0    0 -0.14782398249E+02  0.21543229991E+02  0.33825735266E+03  0.36156102348E+03  0.12500282804E+03 0.  0.
          5    1    3    3  502    0  0.41652122980E+02  0.46093093081E+02  0.12679112812E+03  0.14127120283E+03  0.47000000000E+01 0.  1.
         -5    1    3    3    0  502 -0.56434521229E+02 -0.24549863090E+02  0.21146622453E+03  0.22028982065E+03  0.47000000000E+01 0.  1.
        -11    1    1    2    0    0  0.21022613606E+02  0.18237874584E+02 -0.51565564480E+01  0.28304777452E+02  0.00000000000E+00 0.  1.
         11    1    1    2    0    0 -0.62402153568E+01 -0.39781104576E+02  0.93567985214E+02  0.10186483410E+03  0.00000000000E+00 0. -1.
<mgrwt>
<rscale>  0 0.11876758E+03</rscale>
<asrwt>0</asrwt>
<pdfrwt beam="1">  1        2 0.70646104E-01 0.12770410E+03</pdfrwt>
<pdfrwt beam="2">  1       -2 0.50047583E-02 0.12770410E+03</pdfrwt>
<totfact> 0.12626290E+04</totfact>
</mgrwt>
</event>
<event>
 6    1  0.5206756E-006  0.1492300E+03  0.7546771E-02  0.1209645E+00
         -1   -1    0    0    0  501 -0.00000000000E+00  0.00000000000E+00  0.25662816150E+03  0.25662816150E+03  0.00000000000E+00 0.  1.
          1   -1    0    0  501    0  0.00000000000E+00 -0.00000000000E+00 -0.25760258431E+03  0.25760258431E+03  0.00000000000E+00 0. -1.
          5    1    1    2  502    0 -0.50607524518E+02 -0.48378157382E+02 -0.13264583677E+03  0.15006190610E+03  0.47000000000E+01 0. -1.
         -5    1    1    2    0  502  0.35374782008E+02  0.66789585283E+02 -0.85106106999E+02  0.11391823099E+03  0.47000000000E+01 0.  1.
        -11    1    1    2    0    0  0.68673871820E+02 -0.85321352682E+00  0.12414927960E+03  0.14187978104E+03  0.00000000000E+00 0.  1.
         11    1    1    2    0    0 -0.53441129310E+02 -0.17558214374E+02  0.92628241362E+02  0.10837082768E+03  0.00000000000E+00 0. -1.
<mgrwt>
<rscale>  0 0.14277331E+03</rscale>
<asrwt>0</asrwt>
<pdfrwt beam="2">  1        1 0.39631167E-01 0.14923004E+03</pdfrwt>
<pdfrwt beam="1">  1       -1 0.39481256E-01 0.14923004E+03</pdfrwt>
<totfact> 0.67285398E+02</totfact>
</mgrwt>
</event>
<event>
 7    1  0.5206756E-006  0.1507660E+03  0.7546771E-02  0.1208694E+00
         -2   -1    0    0    0  501 -0.00000000000E+00  0.00000000000E+00  0.22606415461E+02  0.22606415461E+02  0.00000000000E+00 0.  1.
          2   -1    0    0  501    0  0.00000000000E+00 -0.00000000000E+00 -0.83891335802E+03  0.83891335802E+03  0.00000000000E+00 0. -1.
         23    2    1    2    0    0 -0.83783113846E+02 -0.93125315767E+01 -0.48305973162E+03  0.50604059273E+03  0.12499617500E+03 0.  0.
          5    1    3    3  502    0  0.11642478740E+02 -0.43263419276E+02 -0.98052965253E+02  0.10790618496E+03  0.47000000000E+01 0.  1.
         -5    1    3    3    0  502 -0.95425592586E+02  0.33950887699E+02 -0.38500676637E+03  0.39813440777E+03  0.47000000000E+01 0.  1.
        -11    1    1    2    0    0 -0.19458512058E+02  0.63072961480E+01 -0.54951974425E+02  0.58635613491E+02  0.00000000000E+00 0. -1.
         11    1    1    2    0    0  0.10324162590E+03  0.30052354287E+01 -0.27829523651E+03  0.29684356726E+03  0.00000000000E+00 0.  1.
<mgrwt>
<rscale>  0 0.14350121E+03</rscale>
<asrwt>0</asrwt>
<pdfrwt beam="2">  1        2 0.12906357E+00 0.15076597E+03</pdfrwt>
<pdfrwt beam="1">  1       -2 0.34779106E-02 0.15076597E+03</pdfrwt>
<totfact> 0.10930319E+04</totfact>
</mgrwt>
</event>
<event>
 6    1  0.5206756E-006  0.1812071E+03  0.7546771E-02  0.1197983E+00
         -1   -1    0    0    0  501 -0.00000000000E+00  0.00000000000E+00  0.53997329435E+02  0.53997329435E+02  0.00000000000E+00 0.  1.
          1   -1    0    0  501    0  0.00000000000E+00 -0.00000000000E+00 -0.37599546144E+03  0.37599546144E+03  0.00000000000E+00 0. -1.
          5    1    1    2  502    0  0.90128802808E+02 -0.67274966438E+01 -0.17683847005E+03  0.19865144046E+03  0.47000000000E+01 0. -1.
         -5    1    1    2    0  502 -0.84693389349E+02  0.14269630547E+02 -0.96203862903E+02  0.12904985778E+03  0.47000000000E+01 0.  1.
        -11    1    1    2    0    0 -0.41469818586E+02  0.52019252281E+01 -0.21329223674E+01  0.41849196378E+02  0.00000000000E+00 0.  1.
         11    1    1    2    0    0  0.36034405128E+02 -0.12744059132E+02 -0.46822876685E+02  0.60442296259E+02  0.00000000000E+00 0. -1.
<mgrwt>
<rscale>  0 0.15204413E+03</rscale>
<asrwt>0</asrwt>
<pdfrwt beam="2">  1        1 0.57845457E-01 0.18120713E+03</pdfrwt>
<pdfrwt beam="1">  1       -1 0.83072813E-02 0.18120713E+03</pdfrwt>
<totfact> 0.52007971E+03</totfact>
</mgrwt>
</event>
<event>
 6    1  0.5206756E-006  0.1651884E+03  0.7546771E-02  0.1206723E+00
          1   -1    0    0  501    0  0.00000000000E+00  0.00000000000E+00  0.10394198993E+04  0.10394198993E+04  0.00000000000E+00 0. -1.
         -1   -1    0    0    0  501 -0.00000000000E+00 -0.00000000000E+00 -0.16739278065E+02  0.16739278065E+02  0.00000000000E+00 0.  1.
          5    1    1    2  502    0 -0.60406152910E+02 -0.61131426451E+02  0.24147691858E+03  0.25635745906E+03  0.47000000000E+01 0. -1.
         -5    1    1    2    0  502  0.24510998134E+02  0.68209743379E+02  0.36858484105E+03  0.37567304026E+03  0.47000000000E+01 0.  1.
        -11    1    1    2    0    0  0.29192950414E+02  0.38102253766E+02  0.14777804891E+03  0.15537812535E+03  0.00000000000E+00 0.  1.
         11    1    1    2    0    0  0.67022043621E+01 -0.45180570693E+02  0.26484081272E+03  0.26875055273E+03  0.00000000000E+00 0. -1.
<mgrwt>
<rscale>  0 0.14502487E+03</rscale>
<asrwt>0</asrwt>
<pdfrwt beam="1">  1        1 0.15991070E+00 0.16518838E+03</pdfrwt>
<pdfrwt beam="2">  1       -1 0.25752744E-02 0.16518838E+03</pdfrwt>
<totfact> 0.69235151E+03</totfact>
</mgrwt>
</event>
<event>
 7    1  0.5206756E-006  0.1265455E+03  0.7546771E-02  0.1248293E+00
          2   -1    0    0  501    0  0.00000000000E+00  0.00000000000E+00  0.10151679579E+04  0.10151679579E+04  0.00000000000E+00 0.  1.
         -2   -1    0    0    0  501 -0.00000000000E+00 -0.00000000000E+00 -0.13558106441E+02  0.13558106441E+02  0.00000000000E+00 0. -1.
         23    2    1    2    0    0  0.19707295521E+02 -0.24910184930E+00  0.75345103035E+03  0.76400406946E+03  0.12500129389E+03 0.  0.
          5    1    3    3  502    0  0.29661154394E+02 -0.27534196840E+02  0.78782896794E+02  0.88694706171E+02  0.47000000000E+01 0.  1.
         -5    1    3    3    0  502 -0.99538588730E+01  0.27285094990E+02  0.67466813356E+03  0.67530936329E+03  0.47000000000E+01 0.  1.
        -11    1    1    2    0    0 -0.38384301682E+02  0.19095843071E+02  0.22635451153E+03  0.23037875494E+03  0.00000000000E+00 0.  1.
         11    1    1    2    0    0  0.18677006161E+02 -0.18846741222E+02  0.21804309613E+02  0.34343239969E+02  0.00000000000E+00 0. -1.
<mgrwt>
<rscale>  0 0.11690418E+03</rscale>
<asrwt>0</asrwt>
<pdfrwt beam="1">  1        2 0.15617963E+00 0.12654550E+03</pdfrwt>
<pdfrwt beam="2">  1       -2 0.20858633E-02 0.12654550E+03</pdfrwt>
<totfact> 0.17756668E+04</totfact>
</mgrwt>
</event>
<event>
 7    1  0.5206756E-006  0.1645317E+03  0.7546771E-02  0.1191104E+00
         -1   -1    0    0    0  501 -0.00000000000E+00  0.00000000000E+00  0.24594326378E+03  0.24594326378E+03  0.00000000000E+00 0.  1.
          1   -1    0    0  501    0  0.00000000000E+00 -0.00000000000E+00 -0.13965603589E+03  0.13965603589E+03  0.00000000000E+00 0. -1.
         23    2    1    2    0    0  0.90854059109E+02  0.56505152170E+02 -0.53935413472E+02  0.17314653135E+03  0.12499360069E+03 0.  0.
          5    1    3    3  502    0  0.87205660251E+02  0.83139465669E+02 -0.94381308285E+01  0.12094695633E+03  0.47000000000E+01 0. -1.
         -5    1    3    3    0  502  0.36483988577E+01 -0.26634313499E+02 -0.44497282644E+02  0.52199575022E+02  0.47000000000E+01 0. -1.
        -11    1    1    2    0    0 -0.64995631030E+02  0.38611935491E+01  0.42813426292E+02  0.77925158578E+02  0.00000000000E+00 0. -1.
         11    1    1    2    0    0 -0.25858428078E+02 -0.60366345719E+02  0.11740921507E+03  0.13452760974E+03  0.00000000000E+00 0.  1.
<mgrwt>
<rscale>  0 0.15788604E+03</rscale>
<asrwt>0</asrwt>
<pdfrwt beam="2">  1        1 0.21485544E-01 0.16453174E+03</pdfrwt>
<pdfrwt beam="1">  1       -1 0.37837425E-01 0.16453174E+03</pdfrwt>
<totfact> 0.15633925E+03</totfact>
</mgrwt>
</event>
<event>
 6    1  0.5206756E-006  0.1991247E+03  0.7546771E-02  0.1174462E+00
         -1   -1    0    0    0  501 -0.00000000000E+00  0.00000000000E+00  0.26385410533E+03  0.26385410533E+03  0.00000000000E+00 0.  1.
          1   -1    0    0  501    0  0.00000000000E+00 -0.00000000000E+00 -0.10068506116E+03  0.10068506116E+03  0.00000000000E+00 0. -1.
          5    1    1    2  502    0 -0.12132797398E+03  0.85554169091E+01  0.69283891513E+01  0.12191704149E+03  0.47000000000E+01 0. -1.
         -5    1    1    2    0  502  0.57690222894E+02 -0.39797853022E+02  0.46537342923E+02  0.84260579212E+02  0.47000000000E+01 0.  1.
        -11    1    1    2    0    0  0.18278835584E+02  0.18990349093E+01 -0.14179690380E+02  0.23211759588E+02  0.00000000000E+00 0. -1.
         11    1    1    2    0    0  0.45358915504E+02  0.29343401204E+02  0.12388300247E+03  0.13514978621E+03  0.00000000000E+00 0.  1.
<mgrwt>
<rscale>  0 0.17328792E+03</rscale>
<asrwt>0</asrwt>
<pdfrwt beam="2">  1        1 0.15490010E-01 0.19912465E+03</pdfrwt>
<pdfrwt beam="1">  1       -1 0.40592939E-01 0.19912465E+03</pdfrwt>
<totfact> 0.21192479E+03</totfact>
</mgrwt>
</event>
<event>
 7    1  0.5206756E-006  0.1613434E+03  0.7546771E-02  0.1194761E+00
         -1   -1    0    0    0  501 -0.00000000000E+00  0.00000000000E+00  0.70889157466E+02  0.70889157466E+02  0.00000000000E+00 0.  1.
          1   -1    0    0  501    0  0.00000000000E+00 -0.00000000000E+00 -0.32837603991E+03  0.32837603991E+03  0.00000000000E+00 0. -1.
         23    2    1    2    0    0 -0.94857430610E+02 -0.37525902386E+02 -0.18216320890E+03  0.24334157667E+03  0.12500225106E+03 0.  0.
          5    1    3    3  502    0 -0.48160228736E+02  0.45166140117E+02 -0.71302091395E+02  0.97290626898E+02  0.47000000000E+01 0.  1.
         -5    1    3    3    0  502 -0.46697201874E+02 -0.82692042503E+02 -0.11086111750E+03  0.14605094977E+03  0.47000000000E+01 0.  1.
        -11    1    1    2    0    0  0.75707585003E+02 -0.46755776905E+01 -0.11001527136E+02  0.76645502497E+02  0.00000000000E+00 0.  1.
         11    1    1    2    0    0  0.19149845607E+02  0.42201480076E+02 -0.64322146415E+02  0.79278118210E+02  0.00000000000E+00 0. -1.
<mgrwt>
<rscale>  0 0.15474435E+03</rscale>
<asrwt>0</asrwt>
<pdfrwt beam="2">  1        1 0.50519390E-01 0.16134339E+03</pdfrwt>
<pdfrwt beam="1">  1       -1 0.10906024E-01 0.16134339E+03</pdfrwt>
<totfact> 0.40419077E+03</totfact>
</mgrwt>
</event>
<event>
 7    1  0.6269159E-006  0.1406082E+03  0.7546771E-02  0.1223799E+00
         -2   -1    0    0    0  501 -0.00000000000E+00  0.00000000000E+00  0.34413339156E+02  0.34413339156E+02  0.00000000000E+00 0.  1.
          2   -1    0    0  501    0  0.00000000000E+00 -0.00000000000E+00 -0.46064488963E+03  0.46064488963E+03  0.00000000000E+00 0. -1.
         23    2    1    2    0    0 -0.62080081666E+02  0.17075621324E+02 -0.25111354596E+03  0.28779971778E+03  0.12500060483E+03 0.  0.
          5    1    3    3  502    0 -0.81797323929E+02 -0.14113987732E+02 -0.90317634781E+02  0.12275737047E+03  0.47000000000E+01 0. -1.
         -5    1    3    3    0  502  0.19717242263E+02  0.31189609056E+02 -0.16079591118E+03  0.16504234731E+03  0.47000000000E+01 0. -1.
        -11    1    1    2    0    0  0.52725533227E+02  0.48804362422E+01 -0.17557752233E+03  0.18338829532E+03  0.00000000000E+00 0. -1.
         11    1    1    2    0    0  0.93545484391E+01 -0.21956057566E+02  0.45951781403E+00  0.23870215688E+02  0.00000000000E+00 0.  1.
<mgrwt>
<rscale>  0 0.13249545E+03</rscale>
<asrwt>0</asrwt>
<pdfrwt beam="2">  1        2 0.70868447E-01 0.14060820E+03</pdfrwt>
<pdfrwt beam="1">  1       -2 0.52943597E-02 0.14060820E+03</pdfrwt>
<totfact> 0.11646863E+04</totfact>
</mgrwt>
</event>
<event>
 6    1  0.5206756E-006  0.1541103E+03  0.7546771E-02  0.1211479E+00
          1   -1    0    0  501    0  0.00000000000E+00  0.00000000000E+00  0.27269796955E+03  0.27269796955E+03  0.00000000000E+00 0. -1.
         -1   -1    0    0    0  501 -0.00000000000E+00 -0.00000000000E+00 -0.86246188849E+02  0.86246188849E+02  0.00000000000E+00 0.  1.
          5    1    1    2  502    0 -0.75678895353E+02  0.71701092599E+02  0.16682037817E+03  0.19677263645E+03  0.47000000000E+01 0. -1.
         -5    1    1    2    0  502  0.38060138598E+02 -0.20999780604E+02  0.29209245382E+02  0.52581697874E+02  0.47000000000E+01 0.  1.
        -11    1    1    2    0    0  0.29089406365E+02 -0.90515830977E+01 -0.44938819327E+02  0.54292008636E+02  0.00000000000E+00 0.  1.
         11    1    1    2    0    0  0.85293503896E+01 -0.41649728897E+02  0.35360976479E+02  0.55297815443E+02  0.00000000000E+00 0. -1.
<mgrwt>
<rscale>  0 0.14138390E+03</rscale>
<asrwt>0</asrwt>
<pdfrwt beam="1">  1        1 0.41953533E-01 0.15411026E+03</pdfrwt>
<pdfrwt beam="2">  1       -1 0.13268645E-01 0.15411026E+03</pdfrwt>
<totfact> 0.37504492E+03</totfact>
</mgrwt>
</event>
<event>
 7    1  0.5206756E-006  0.1377981E+03  0.7546771E-02  0.1227860E+00
         -2   -1    0    0    0  501 -0.00000000000E+00  0.00000000000E+00  0.14608525239E+03  0.14608525239E+03  0.00000000000E+00 0.  1.
          2   -1    0    0  501    0  0.00000000000E+00 -0.00000000000E+00 -0.16887223851E+03  0.16887223851E+03  0.00000000000E+00 0. -1.
         23    2    1    2    0    0  0.52383513318E+02  0.24835451850E+02 -0.10970524032E+03  0.17613504907E+03  0.12500993408E+03 0.  0.
          5    1    3    3  502    0  0.24387350747E+02  0.27852199167E+02 -0.13372019294E+03  0.13882963615E+03  0.47000000000E+01 0. -1.
         -5    1    3    3    0  502  0.27996162571E+02 -0.30167473169E+01  0.24014952621E+02  0.37305412911E+02  0.47000000000E+01 0. -1.
        -11    1    1    2    0    0 -0.48032433795E+02 -0.95547894090E+01  0.10432921125E+03  0.11525186774E+03  0.00000000000E+00 0.  1.
         11    1    1    2    0    0 -0.43510795224E+01 -0.15280662441E+02 -0.17410957048E+02  0.23570574091E+02  0.00000000000E+00 0. -1.
<mgrwt>
<rscale>  0 0.12972807E+03</rscale>
<asrwt>0</asrwt>
<pdfrwt beam="2">  1        2 0.25980344E-01 0.13779810E+03</pdfrwt>
<pdfrwt beam="1">  1       -2 0.22474654E-01 0.13779810E+03</pdfrwt>
<totfact> 0.34048502E+03</totfact>
</mgrwt>
</event>
<event>
 7    1  0.5206756E-006  0.1333156E+03  0.7546771E-02  0.1235912E+00
         -2   -1    0    0    0  501 -0.00000000000E+00  0.00000000000E+00  0.42701148776E+02  0.42701148776E+02  0.00000000000E+00 0.  1.
          2   -1    0    0  501    0  0.00000000000E+00 -0.00000000000E+00 -0.33078530627E+03  0.33078530627E+03  0.00000000000E+00 0. -1.
         23    2    1    2    0    0 -0.45014247994E+02 -0.10859935511E+02 -0.19301761367E+03  0.23458228324E+03  0.12501530987E+03 0.  0.
          5    1    3    3  502    0 -0.21804247831E+02  0.37512628289E+02 -0.17085745371E+03  0.17634336390E+03  0.47000000000E+01 0. -1.
         -5    1    3    3    0  502 -0.23210000164E+02 -0.48372563799E+02 -0.22160159962E+02  0.58238919338E+02  0.47000000000E+01 0. -1.
        -11    1    1    2    0    0  0.19291598047E+02  0.45531900386E+02 -0.22191469476E+02  0.54201300957E+02  0.00000000000E+00 0.  1.
         11    1    1    2    0    0  0.25722649948E+02 -0.34671964875E+02 -0.72875074341E+02  0.84702870842E+02  0.00000000000E+00 0. -1.
<mgrwt>
<rscale>  0 0.12446200E+03</rscale>
<asrwt>0</asrwt>
<pdfrwt beam="2">  1        2 0.50890048E-01 0.13331560E+03</pdfrwt>
<pdfrwt beam="1">  1       -2 0.65694074E-02 0.13331560E+03</pdfrwt>
<totfact> 0.11920935E+04</totfact>
</mgrwt>
</event>
<event>
 7    1  0.5206756E-006  0.1909466E+03  0.7546771E-02  0.1162702E+00
          2   -1    0    0  501    0  0.00000000000E+00  0.00000000000E+00  0.12677545055E+04  0.12677545055E+04  0.00000000000E+00 0. -1.
         -2   -1    0    0    0  501 -0.00000000000E+00 -0.00000000000E+00 -0.30186607181E+02  0.30186607181E+02  0.00000000000E+00 0.  1.
         23    2    1    2    0    0  0.93860683713E+02 -0.10964870545E+03  0.90147391577E+03  0.92147480558E+03  0.12501171925E+03 0.  0.
          5    1    3    3  502    0 -0.12888809511E+02 -0.14540907123E+02  0.38608261701E+03  0.38659984034E+03  0.47000000000E+01 0.  1.
         -5    1    3    3    0  502  0.10674949322E+03 -0.95107798330E+02  0.51539129876E+03  0.53487496524E+03  0.47000000000E+01 0.  1.
        -11    1    1    2    0    0  0.17245791211E+02  0.10240367722E+02  0.31495712599E+02  0.37339822679E+02  0.00000000000E+00 0. -1.
         11    1    1    2    0    0 -0.11110647492E+03  0.99408337730E+02  0.30459826995E+03  0.33912648442E+03  0.00000000000E+00 0.  1.
<mgrwt>
<rscale>  0 0.18537326E+03</rscale>
<asrwt>0</asrwt>
<pdfrwt beam="1">  1        2 0.19503911E+00 0.19094658E+03</pdfrwt>
<pdfrwt beam="2">  1       -2 0.46440944E-02 0.19094658E+03</pdfrwt>
<totfact> 0.39813959E+03</totfact>
</mgrwt>
</event>
<event>
 7    1  0.5206756E-006  0.1298865E+03  0.7546771E-02  0.1241371E+00
         -1   -1    0    0    0  501 -0.00000000000E+00  0.00000000000E+00  0.81647475413E+02  0.81647475413E+02  0.00000000000E+00 0.  1.
          1   -1    0    0  501    0  0.00000000000E+00 -0.00000000000E+00 -0.15909415866E+03  0.15909415866E+03  0.00000000000E+00 0. -1.
         23    2    1    2    0    0  0.26360432844E+02 -0.23459384900E+02 -0.41352552275E+02  0.13631039730E+03  0.12500110269E+03 0.  0.
          5    1    3    3  502    0 -0.42947782690E+02 -0.29234425477E+02 -0.41409563486E+02  0.66603345404E+02  0.47000000000E+01 0.  1.
         -5    1    3    3    0  502  0.69308215533E+02  0.57750405764E+01  0.57011211168E-01  0.69707051898E+02  0.47000000000E+01 0.  1.
        -11    1    1    2    0    0  0.30448139136E+02  0.21458437332E+02 -0.28874964468E+02  0.47130852767E+02  0.00000000000E+00 0. -1.
         11    1    1    2    0    0 -0.56808571979E+02  0.20009475682E+01 -0.72191665007E+01  0.57300383999E+02  0.00000000000E+00 0.  1.
<mgrwt>
<rscale>  0 0.12105265E+03</rscale>
<asrwt>0</asrwt>
<pdfrwt beam="2">  1        1 0.24476024E-01 0.12988645E+03</pdfrwt>
<pdfrwt beam="1">  1       -1 0.12561150E-01 0.12988645E+03</pdfrwt>
<totfact> 0.79013631E+03</totfact>
</mgrwt>
</event>
<event>
 6    1  0.5206756E-006  0.2117097E+03  0.7546771E-02  0.1172166E+00
          1   -1    0    0  501    0  0.00000000000E+00  0.00000000000E+00  0.33999853458E+03  0.33999853458E+03  0.00000000000E+00 0. -1.
         -1   -1    0    0    0  501 -0.00000000000E+00 -0.00000000000E+00 -0.13642769239E+03  0.13642769239E+03  0.00000000000E+00 0.  1.
          5    1    1    2  502    0 -0.85232335009E+02 -0.15397976956E+02  0.19852096003E+03  0.21664327868E+03  0.47000000000E+01 0. -1.
         -5    1    1    2    0  502  0.95075646951E+02  0.48358134692E+02  0.81079667316E+02  0.13406673818E+03  0.47000000000E+01 0.  1.
        -11    1    1    2    0    0 -0.81521833804E+01 -0.51820022667E+02 -0.88616574353E+02  0.10297897889E+03  0.00000000000E+00 0.  1.
         11    1    1    2    0    0 -0.16911285620E+01  0.18859864931E+02  0.12586789199E+02  0.22737231216E+02  0.00000000000E+00 0. -1.
<mgrwt>
<rscale>  0 0.17556419E+03</rscale>
<asrwt>0</asrwt>
<pdfrwt beam="1">  1        1 0.52307466E-01 0.21170972E+03</pdfrwt>
<pdfrwt beam="2">  1       -1 0.20988876E-01 0.21170972E+03</pdfrwt>
<totfact> 0.13854637E+03</totfact>
</mgrwt>
</event>
<event>
 7    1  0.5206756E-006  0.1162989E+03  0.7546771E-02  0.1260039E+00
         -2   -1    0    0    0  501 -0.00000000000E+00  0.00000000000E+00  0.79455755373E+01  0.79455755373E+01  0.00000000000E+00 0.  1.
          2   -1    0    0  501    0  0.00000000000E+00 -0.00000000000E+00 -0.21686074653E+04  0.21686074653E+04  0.00000000000E+00 0. -1.
         23    2    1    2    0    0  0.34314056598E+01  0.22170813014E+02 -0.18024983653E+04  0.18062463235E+04  0.11411443654E+03 0.  0.
          5    1    3    3  502    0 -0.53493696542E+02  0.19307614011E+02 -0.10688331361E+04  0.10703554188E+04  0.47000000000E+01 0. -1.
         -5    1    3    3    0  502  0.56925102202E+02  0.28631990034E+01 -0.73366522920E+03  0.73589090476E+03  0.47000000000E+01 0.  1.
        -11    1    1    2    0    0  0.31693838893E+02 -0.42813041741E+02 -0.20850027115E+03  0.21519716317E+03  0.00000000000E+00 0.  1.
         11    1    1    2    0    0 -0.35125244553E+02  0.20642228727E+02 -0.14966325322E+03  0.15510955411E+03  0.00000000000E+00 0. -1.
<mgrwt>
<rscale>  0 0.11028709E+03</rscale>
<asrwt>0</asrwt>
<pdfrwt beam="2">  1        2 0.33363243E+00 0.11629886E+03</pdfrwt>
<pdfrwt beam="1">  1       -2 0.12223944E-02 0.11629886E+03</pdfrwt>
<totfact> 0.94535807E+03</totfact>
</mgrwt>
</event>
<event>
 7    1  0.5206756E-006  0.2734651E+03  0.7546771E-02  0.1101417E+00
          2   -1    0    0  501    0  0.00000000000E+00  0.00000000000E+00  0.38479405642E+03  0.38479405642E+03  0.00000000000E+00 0. -1.
         -2   -1    0    0    0  501 -0.00000000000E+00 -0.00000000000E+00 -0.18835586426E+03  0.18835586426E+03  0.00000000000E+00 0.  1.
         23    2    1    2    0    0 -0.19590179037E+03  0.14415775333E+03  0.14357961921E+03  0.30886606265E+03  0.12499667310E+03 0.  0.
          5    1    3    3  502    0 -0.79387076200E+02  0.21927897099E+02 -0.66988565208E+01  0.82765362426E+02  0.47000000000E+01 0. -1.
         -5    1    3    3    0  502 -0.11651471417E+03  0.12222985623E+03  0.15027847573E+03  0.22610070022E+03  0.47000000000E+01 0. -1.
        -11    1    1    2    0    0  0.72656652874E+02 -0.10785631064E+03  0.19086934519E+02  0.13143927884E+03  0.00000000000E+00 0.  1.
         11    1    1    2    0    0  0.12324513749E+03 -0.36301442692E+02  0.33771638433E+02  0.13284457919E+03  0.00000000000E+00 0. -1.
<mgrwt>
<rscale>  0 0.26976015E+03</rscale>
<asrwt>0</asrwt>
<pdfrwt beam="1">  1        2 0.59199085E-01 0.27346506E+03</pdfrwt>
<pdfrwt beam="2">  1       -2 0.28977825E-01 0.27346506E+03</pdfrwt>
<totfact> 0.90947570E+02</totfact>
</mgrwt>
</event>
<event>
 7    1  0.5206756E-006  0.1144668E+03  0.7546771E-02  0.1262077E+00
         -1   -1    0    0    0  501 -0.00000000000E+00  0.00000000000E+00  0.89859361343E+02  0.89859361343E+02  0.00000000000E+00 0.  1.
          1   -1    0    0  501    0  0.00000000000E+00 -0.00000000000E+00 -0.36553588546E+03  0.36553588546E+03  0.00000000000E+00 0. -1.
         23    2    1    2    0    0 -0.83715697786E+01 -0.24747413616E+02 -0.32781530472E+03  0.34722545102E+03  0.11144560183E+03 0.  0.
          5    1    3    3  502    0 -0.54289893461E+02  0.52688261890E+01 -0.11444554570E+03  0.12686617356E+03  0.47000000000E+01 0. -1.
         -5    1    3    3    0  502  0.45918323682E+02 -0.30016239805E+02 -0.21336975901E+03  0.22035927746E+03  0.47000000000E+01 0.  1.
        -11    1    1    2    0    0  0.10840328070E+02 -0.31083416358E+02  0.38479127259E+02  0.50639260656E+02  0.00000000000E+00 0.  1.
         11    1    1    2    0    0 -0.24687582910E+01  0.55830829974E+02  0.13659653340E+02  0.57530535131E+02  0.00000000000E+00 0. -1.
<mgrwt>
<rscale>  0 0.10918996E+03</rscale>
<asrwt>0</asrwt>
<pdfrwt beam="2">  1        1 0.56236289E-01 0.11446676E+03</pdfrwt>
<pdfrwt beam="1">  1       -1 0.13824517E-01 0.11446676E+03</pdfrwt>
<totfact> 0.24144931E+03</totfact>
</mgrwt>
</event>
<event>
 7    1  0.5206756E-006  0.1984955E+03  0.7546771E-02  0.1155745E+00
         -1   -1    0    0    0  501 -0.00000000000E+00  0.00000000000E+00  0.30964857932E+02  0.30964857932E+02  0.00000000000E+00 0.  1.
          1   -1    0    0  501    0  0.00000000000E+00 -0.00000000000E+00 -0.11549655486E+04  0.11549655486E+04  0.00000000000E+00 0. -1.
         23    2    1    2    0    0  0.59592922809E+02 -0.14220964460E+03 -0.65613581015E+03  0.68550321529E+03  0.12500222937E+03 0.  0.
          5    1    3    3  502    0  0.43125680078E+02 -0.46304745763E+02 -0.48038281967E+03  0.48455515393E+03  0.47000000000E+01 0. -1.
         -5    1    3    3    0  502  0.16467242732E+02 -0.95904898836E+02 -0.17575299048E+03  0.20094806137E+03  0.47000000000E+01 0. -1.
        -11    1    1    2    0    0 -0.15258469574E+02  0.12438902854E+03 -0.28336799968E+03  0.30984330645E+03  0.00000000000E+00 0. -1.
         11    1    1    2    0    0 -0.44334453236E+02  0.17820616064E+02 -0.18449688088E+03  0.19058388482E+03  0.00000000000E+00 0.  1.
<mgrwt>
<rscale>  0 0.19304261E+03</rscale>
<asrwt>0</asrwt>
<pdfrwt beam="2">  1        1 0.17768699E+00 0.19849548E+03</pdfrwt>
<pdfrwt beam="1">  1       -1 0.47638247E-02 0.19849548E+03</pdfrwt>
<totfact> 0.23250112E+03</totfact>
</mgrwt>
</event>
<event>
 7    1  0.5206756E-006  0.1227648E+03  0.7546771E-02  0.1251586E+00
          1   -1    0    0  501    0  0.00000000000E+00  0.00000000000E+00  0.55502937444E+03  0.55502937444E+03  0.00000000000E+00 0. -1.
         -1   -1    0    0    0  501 -0.00000000000E+00 -0.00000000000E+00 -0.24978874798E+02  0.24978874798E+02  0.00000000000E+00 0.  1.
         23    2    1    2    0    0 -0.73672134920E+01  0.21987832596E+02  0.40535551439E+03  0.42353782209E+03  0.12055477211E+03 0.  0.
          5    1    3    3  502    0 -0.43765768313E+02  0.15718405274E+02  0.36743006971E+03  0.37039095138E+03  0.47000000000E+01 0. -1.
         -5    1    3    3    0  502  0.36398554821E+02  0.62694273216E+01  0.37925444684E+02  0.53146870712E+02  0.47000000000E+01 0.  1.
        -11    1    1    2    0    0  0.43370688146E+02 -0.12602483342E+02  0.10515710842E+03  0.11444586767E+03  0.00000000000E+00 0.  1.
         11    1    1    2    0    0 -0.36003474654E+02 -0.93853492540E+01  0.19537876837E+02  0.42024559475E+02  0.00000000000E+00 0. -1.
<mgrwt>
<rscale>  0 0.11499714E+03</rscale>
<asrwt>0</asrwt>
<pdfrwt beam="1">  1        1 0.85389125E-01 0.12276479E+03</pdfrwt>
<pdfrwt beam="2">  1       -1 0.38429042E-02 0.12276479E+03</pdfrwt>
<totfact> 0.96964098E+03</totfact>
</mgrwt>
</event>
<event>
 7    1  0.5206756E-006  0.1712568E+03  0.7546771E-02  0.1182935E+00
         -1   -1    0    0    0  501 -0.00000000000E+00  0.00000000000E+00  0.10088539291E+04  0.10088539291E+04  0.00000000000E+00 0.  1.
          1   -1    0    0  501    0  0.00000000000E+00 -0.00000000000E+00 -0.25523695978E+02  0.25523695978E+02  0.00000000000E+00 0. -1.
         23    2    1    2    0    0 -0.59754675322E+02  0.10067776794E+03  0.47939154045E+03  0.50906301787E+03  0.12498909122E+03 0.  0.
          5    1    3    3  502    0  0.22382327142E+02 -0.16379088025E+02  0.83406537938E+02  0.88022631542E+02  0.47000000000E+01 0. -1.
         -5    1    3    3    0  502 -0.82137002464E+02  0.11705685597E+03  0.39598500251E+03  0.42104038633E+03  0.47000000000E+01 0. -1.
        -11    1    1    2    0    0  0.10071236925E+02 -0.85132306122E+02  0.21037578169E+03  0.22717154065E+03  0.00000000000E+00 0.  1.
         11    1    1    2    0    0  0.49683438398E+02 -0.15545461822E+02  0.29356291099E+03  0.29814306656E+03  0.00000000000E+00 0. -1.
<mgrwt>
<rscale>  0 0.16521209E+03</rscale>
<asrwt>0</asrwt>
<pdfrwt beam="2">  1        1 0.39267232E-02 0.17125685E+03</pdfrwt>
<pdfrwt beam="1">  1       -1 0.15520827E+00 0.17125685E+03</pdfrwt>
<totfact> 0.79907009E+02</totfact>
</mgrwt>
</event>
<event>
 7    1  0.5206756E-006  0.1727411E+03  0.7546771E-02  0.1180673E+00
         -2   -1    0    0    0  501 -0.00000000000E+00  0.00000000000E+00  0.23239693836E+02  0.23239693836E+02  0.00000000000E+00 0.  1.
          2   -1    0    0  501    0  0.00000000000E+00 -0.00000000000E+00 -0.11847898934E+04  0.11847898934E+04  0.00000000000E+00 0. -1.
         23    2    1    2    0    0  0.88846799771E+02  0.79529819632E+02 -0.74002753215E+03  0.75992121119E+03  0.12498301023E+03 0.  0.
          5    1    3    3  502    0  0.27001557090E+02  0.60878353345E+02 -0.61956033601E+03  0.62314713989E+03  0.47000000000E+01 0.  1.
         -5    1    3    3    0  502  0.61845242680E+02  0.18651466287E+02 -0.12046719613E+03  0.13677407130E+03  0.47000000000E+01 0.  1.
        -11    1    1    2    0    0 -0.76112117704E+02 -0.72156863137E+01 -0.25262037313E+03  0.26393592690E+03  0.00000000000E+00 0. -1.
         11    1    1    2    0    0 -0.12734682066E+02 -0.72314133318E+02 -0.16890229425E+03  0.18417244910E+03  0.00000000000E+00 0.  1.
<mgrwt>
<rscale>  0 0.16731880E+03</rscale>
<asrwt>0</asrwt>
<pdfrwt beam="2">  1        2 0.18227545E+00 0.17274113E+03</pdfrwt>
<pdfrwt beam="1">  1       -2 0.35753358E-02 0.17274113E+03</pdfrwt>
<totfact> 0.65341590E+03</totfact>
</mgrwt>
</event>
<event>
 7    1  0.5206756E-006  0.1683210E+03  0.7546771E-02  0.1185911E+00
         -1   -1    0    0    0  501 -0.00000000000E+00  0.00000000000E+00  0.85240269916E+02  0.85240269916E+02  0.00000000000E+00 0.  1.
          1   -1    0    0  501    0  0.00000000000E+00 -0.00000000000E+00 -0.30997724701E+03  0.30997724701E+03  0.00000000000E+00 0. -1.
         23    2    1    2    0    0 -0.94915677678E+02 -0.60810744940E+02 -0.16967082658E+03  0.23899820155E+03  0.12500007353E+03 0.  0.
          5    1    3    3  502    0 -0.36811183657E+02 -0.39326381078E+02 -0.16838921138E+03  0.17685769420E+03  0.47000000000E+01 0. -1.
         -5    1    3    3    0  502 -0.58104494021E+02 -0.21484363862E+02 -0.12816152045E+01  0.62140507348E+02  0.47000000000E+01 0. -1.
        -11    1    1    2    0    0  0.40352288383E+02 -0.56927815651E+01 -0.57126229671E+02  0.70172081743E+02  0.00000000000E+00 0.  1.
         11    1    1    2    0    0  0.54563389295E+02  0.66503526505E+02  0.20600791604E+01  0.86047233628E+02  0.00000000000E+00 0. -1.
<mgrwt>
<rscale>  0 0.16249306E+03</rscale>
<asrwt>0</asrwt>
<pdfrwt beam="2">  1        1 0.47688807E-01 0.16832098E+03</pdfrwt>
<pdfrwt beam="1">  1       -1 0.13113888E-01 0.16832098E+03</pdfrwt>
<totfact> 0.32699492E+03</totfact>
</mgrwt>
</event>
<event>
 7    1  0.8490615E-006  0.1809146E+03  0.7546771E-02  0.1172374E+00
         -1   -1    0    0    0  501 -0.00000000000E+00  0.00000000000E+00  0.42133400620E+03  0.42133400620E+03  0.00000000000E+00 0.  1.
          1   -1    0    0  501    0  0.00000000000E+00 -0.00000000000E+00 -0.69743970345E+02  0.69743970345E+02  0.00000000000E+00 0. -1.
         23    2    1    2    0    0 -0.97317395811E+02  0.87372891595E+02  0.15861735542E+03  0.24060252163E+03  0.12500164104E+03 0.  0.
          5    1    3    3  502    0  0.17202818496E+02  0.13497862502E+02  0.80287751631E+02  0.83344719798E+02  0.47000000000E+01 0. -1.
         -5    1    3    3    0  502 -0.11452021431E+03  0.73875029093E+02  0.78329603790E+02  0.15725780184E+03  0.47000000000E+01 0. -1.
        -11    1    1    2    0    0  0.22647562393E+01 -0.57324480029E+02  0.93151945332E+02  0.10940068579E+03  0.00000000000E+00 0.  1.
         11    1    1    2    0    0  0.95052639572E+02 -0.30048411566E+02  0.99820735102E+02  0.14107476912E+03  0.00000000000E+00 0. -1.
<mgrwt>
<rscale>  0 0.17535645E+03</rscale>
<asrwt>0</asrwt>
<pdfrwt beam="2">  1        1 0.10729842E-01 0.18091464E+03</pdfrwt>
<pdfrwt beam="1">  1       -1 0.64820615E-01 0.18091464E+03</pdfrwt>
<totfact> 0.14398723E+03</totfact>
</mgrwt>
</event>
<event>
 7    1  0.5206756E-006  0.1684422E+03  0.7546771E-02  0.1185865E+00
          2   -1    0    0  501    0  0.00000000000E+00  0.00000000000E+00  0.19295091909E+03  0.19295091909E+03  0.00000000000E+00 0. -1.
         -2   -1    0    0    0  501 -0.00000000000E+00 -0.00000000000E+00 -0.13857918132E+03  0.13857918132E+03  0.00000000000E+00 0.  1.
         23    2    1    2    0    0 -0.11153434445E+03 -0.17562385045E+02  0.74393950919E+02  0.18413916148E+03  0.12499769397E+03 0.  0.
          5    1    3    3  502    0 -0.44973550735E+02  0.30160676580E+02  0.85541112858E+02  0.10134919174E+03  0.47000000000E+01 0.  1.
         -5    1    3    3    0  502 -0.66560793712E+02 -0.47723061625E+02 -0.11147161939E+02  0.82789969741E+02  0.47000000000E+01 0.  1.
        -11    1    1    2    0    0  0.35643681830E+02  0.20451808372E+02 -0.50891171429E+02  0.65411465734E+02  0.00000000000E+00 0.  1.
         11    1    1    2    0    0  0.75890662617E+02 -0.28894233272E+01  0.30868958277E+02  0.81979473191E+02  0.00000000000E+00 0. -1.
<mgrwt>
<rscale>  0 0.16253418E+03</rscale>
<asrwt>0</asrwt>
<pdfrwt beam="1">  1        2 0.29684757E-01 0.16844219E+03</pdfrwt>
<pdfrwt beam="2">  1       -2 0.21319874E-01 0.16844219E+03</pdfrwt>
<totfact> 0.32540562E+03</totfact>
</mgrwt>
</event>
<event>
 7    1  0.5206756E-006  0.1415985E+03  0.7546771E-02  0.1225291E+00
         -1   -1    0    0    0  501 -0.00000000000E+00  0.00000000000E+00  0.11751371998E+03  0.11751371998E+03  0.00000000000E+00 0.  1.
          1   -1    0    0  501    0  0.00000000000E+00 -0.00000000000E+00 -0.15305304528E+03  0.15305304528E+03  0.00000000000E+00 0. -1.
         23    2    1    2    0    0  0.65962365415E+02 -0.85896752730E+01 -0.72444649879E+02  0.15905459168E+03  0.12500127866E+03 0.  0.
          5    1    3    3  502    0  0.72207033103E+02 -0.31720468564E+02  0.36975372074E+01  0.79093650420E+02  0.47000000000E+01 0.  1.
         -5    1    3    3    0  502 -0.62446676872E+01  0.23130793291E+02 -0.76142187086E+02  0.79960941259E+02  0.47000000000E+01 0.  1.
        -11    1    1    2    0    0 -0.12091350309E+02 -0.18067738467E+02 -0.19411536984E+02  0.29145354581E+02  0.00000000000E+00 0. -1.
         11    1    1    2    0    0 -0.53871015106E+02  0.26657413739E+02  0.56316861559E+02  0.82366818997E+02  0.00000000000E+00 0.  1.
<mgrwt>
<rscale>  0 0.13147009E+03</rscale>
<asrwt>0</asrwt>
<pdfrwt beam="2">  1        1 0.23546622E-01 0.14159850E+03</pdfrwt>
<pdfrwt beam="1">  1       -1 0.18079034E-01 0.14159850E+03</pdfrwt>
<totfact> 0.47135850E+03</totfact>
</mgrwt>
</event>
<event>
 7    1  0.5206756E-006  0.1811712E+03  0.7546771E-02  0.1172083E+00
         -1   -1    0    0    0  501 -0.00000000000E+00  0.00000000000E+00  0.41255465659E+03  0.41255465659E+03  0.00000000000E+00 0.  1.
          1   -1    0    0  501    0  0.00000000000E+00 -0.00000000000E+00 -0.10415337959E+03  0.10415337959E+03  0.00000000000E+00 0. -1.
         23    2    1    2    0    0  0.13109796778E+03 -0.33399399881E+01  0.14132738701E+02  0.18172161317E+03  0.12500071213E+03 0.  0.
          5    1    3    3  502    0  0.31886126884E+02  0.56015670137E+02  0.13456017846E+02  0.66012383723E+02  0.47000000000E+01 0. -1.
         -5    1    3    3    0  502  0.99211840901E+02 -0.59355610125E+02  0.67672085548E+00  0.11570922945E+03  0.47000000000E+01 0. -1.
        -11    1    1    2    0    0 -0.29469308112E+02  0.28466334898E+02  0.30131165711E+02  0.50859212442E+02  0.00000000000E+00 0. -1.
         11    1    1    2    0    0 -0.10162865967E+03 -0.25126394910E+02  0.26413737258E+03  0.28412721056E+03  0.00000000000E+00 0.  1.
<mgrwt>
<rscale>  0 0.17564807E+03</rscale>
<asrwt>0</asrwt>
<pdfrwt beam="2">  1        1 0.16023597E-01 0.18117122E+03</pdfrwt>
<pdfrwt beam="1">  1       -1 0.63469947E-01 0.18117122E+03</pdfrwt>
<totfact> 0.88505188E+02</totfact>
</mgrwt>
</event>
<event>
 7    1  0.5206756E-006  0.1401405E+03  0.7546771E-02  0.1224472E+00
          2   -1    0    0  501    0  0.00000000000E+00  0.00000000000E+00  0.82125121343E+02  0.82125121343E+02  0.00000000000E+00 0. -1.
         -2   -1    0    0    0  501 -0.00000000000E+00 -0.00000000000E+00 -0.19478371698E+03  0.19478371698E+03  0.00000000000E+00 0.  1.
         23    2    1    2    0    0 -0.12733490386E+02 -0.62058505337E+02 -0.43984286403E+02  0.14688077937E+03  0.12500378409E+03 0.  0.
          5    1    3    3  502    0 -0.28751424346E+02 -0.72771483675E+02  0.19160322330E+02  0.80694121161E+02  0.47000000000E+01 0. -1.
         -5    1    3    3    0  502  0.16017933960E+02  0.10712978338E+02 -0.63144608733E+02  0.66186658212E+02  0.47000000000E+01 0. -1.
        -11    1    1    2    0    0  0.40688435090E+02  0.33108283177E+02 -0.72627128434E+02  0.89590216818E+02  0.00000000000E+00 0.  1.
         11    1    1    2    0    0 -0.27954944704E+02  0.28950222161E+02  0.39528192009E+01  0.40437842131E+02  0.00000000000E+00 0. -1.
<mgrwt>
<rscale>  0 0.13203168E+03</rscale>
<asrwt>0</asrwt>
<pdfrwt beam="1">  1        2 0.12634634E-01 0.14014045E+03</pdfrwt>
<pdfrwt beam="2">  1       -2 0.29966725E-01 0.14014045E+03</pdfrwt>
<totfact> 0.46946637E+03</totfact>
</mgrwt>
</event>
<event>
 6    1  0.5206756E-006  0.2313250E+03  0.7546771E-02  0.1204473E+00
          1   -1    0    0  501    0  0.00000000000E+00  0.00000000000E+00  0.30029115469E+02  0.30029115469E+02  0.00000000000E+00 0. -1.
         -1   -1    0    0    0  501 -0.00000000000E+00 -0.00000000000E+00 -0.61310004758E+03  0.61310004758E+03  0.00000000000E+00 0.  1.
          5    1    1    2  502    0  0.48998285173E+02  0.78284095623E+02 -0.73584227800E+02  0.11817766353E+03  0.47000000000E+01 0. -1.
         -5    1    1    2    0  502 -0.71686893611E+02 -0.49463901841E+02 -0.39349635125E+03  0.40304733809E+03  0.47000000000E+01 0.  1.
        -11    1    1    2    0    0  0.11895758246E+02 -0.20232703932E+02 -0.79583081603E+02  0.82971912417E+02  0.00000000000E+00 0.  1.
         11    1    1    2    0    0  0.10792850192E+02 -0.85874898501E+01 -0.36407271462E+02  0.38932249004E+02  0.00000000000E+00 0. -1.
<mgrwt>
<rscale>  0 0.14679063E+03</rscale>
<asrwt>0</asrwt>
<pdfrwt beam="1">  1        1 0.46198644E-02 0.23132496E+03</pdfrwt>
<pdfrwt beam="2">  1       -1 0.94323074E-01 0.23132496E+03</pdfrwt>
<totfact> 0.21165466E+03</totfact>
</mgrwt>
</event>
<event>
 7    1  0.5206756E-006  0.1566772E+03  0.7546771E-02  0.1200462E+00
         -1   -1    0    0    0  501 -0.00000000000E+00  0.00000000000E+00  0.56803756148E+02  0.56803756148E+02  0.00000000000E+00 0.  1.
          1   -1    0    0  501    0  0.00000000000E+00 -0.00000000000E+00 -0.40047177726E+03  0.40047177726E+03  0.00000000000E+00 0. -1.
         23    2    1    2    0    0  0.31598457434E+02  0.89011808942E+02 -0.11850780000E+03  0.19644810442E+03  0.12500477762E+03 0.  0.
          5    1    3    3  502    0  0.57390976772E+02  0.78313884864E+02 -0.13292337354E+03  0.16467392632E+03  0.47000000000E+01 0.  1.
         -5    1    3    3    0  502 -0.25792519338E+02  0.10697924078E+02  0.14415573544E+02  0.31774178101E+02  0.47000000000E+01 0.  1.
        -11    1    1    2    0    0 -0.36486458742E+02 -0.42029723098E+02 -0.37012117214E+02  0.66840527496E+02  0.00000000000E+00 0.  1.
         11    1    1    2    0    0  0.48880013086E+01 -0.46982085844E+02 -0.18814810390E+03  0.19398690149E+03  0.00000000000E+00 0. -1.
<mgrwt>
<rscale>  0 0.15000863E+03</rscale>
<asrwt>0</asrwt>
<pdfrwt beam="2">  1        1 0.61611042E-01 0.15667724E+03</pdfrwt>
<pdfrwt beam="1">  1       -1 0.87390396E-02 0.15667724E+03</pdfrwt>
<totfact> 0.44138830E+03</totfact>
</mgrwt>
</event>
<event>
 7    1  0.5206756E-006  0.1385929E+03  0.7546771E-02  0.1226364E+00
         -2   -1    0    0    0  501 -0.00000000000E+00  0.00000000000E+00  0.33243895068E+03  0.33243895068E+03  0.00000000000E+00 0.  1.
          2   -1    0    0  501    0  0.00000000000E+00 -0.00000000000E+00 -0.57633390604E+02  0.57633390604E+02  0.00000000000E+00 0. -1.
         23    2    1    2    0    0 -0.39313818447E+02  0.45127113461E+02  0.64528408520E+02  0.15287869896E+03  0.12500379354E+03 0.  0.
          5    1    3    3  502    0 -0.60570688682E+02  0.24731595993E+01  0.81842048339E+02  0.10195653840E+03  0.47000000000E+01 0.  1.
         -5    1    3    3    0  502  0.21256870234E+02  0.42653953862E+02 -0.17313639819E+02  0.50922160559E+02  0.47000000000E+01 0.  1.
        -11    1    1    2    0    0 -0.20802001557E+02 -0.25695991165E+02  0.25022924931E+02  0.41462682050E+02  0.00000000000E+00 0. -1.
         11    1    1    2    0    0  0.60115820004E+02 -0.19431122296E+02  0.18525422662E+03  0.19573096028E+03  0.00000000000E+00 0.  1.
<mgrwt>
<rscale>  0 0.13073851E+03</rscale>
<asrwt>0</asrwt>
<pdfrwt beam="2">  1        2 0.88666757E-02 0.13859286E+03</pdfrwt>
<pdfrwt beam="1">  1       -2 0.51144453E-01 0.13859286E+03</pdfrwt>
<totfact> 0.26337392E+03</totfact>
</mgrwt>
</event>
<event>
 7    1  0.5206756E-006  0.1263922E+03  0.7546771E-02  0.1246037E+00
          1   -1    0    0  501    0  0.00000000000E+00  0.00000000000E+00  0.19756227599E+02  0.19756227599E+02  0.00000000000E+00 0. -1.
         -1   -1    0    0    0  501 -0.00000000000E+00 -0.00000000000E+00 -0.63473120248E+03  0.63473120248E+03  0.00000000000E+00 0.  1.
         23    2    1    2    0    0 -0.17028207324E+02  0.77246149874E+01 -0.32091533749E+03  0.34490817801E+03  0.12500147159E+03 0.  0.
          5    1    3    3  502    0  0.31159083460E+02  0.40945545216E+02 -0.68770860622E+02  0.86017134490E+02  0.47000000000E+01 0.  1.
         -5    1    3    3    0  502 -0.48187290785E+02 -0.33220930229E+02 -0.25214447687E+03  0.25889104352E+03  0.47000000000E+01 0.  1.
        -11    1    1    2    0    0  0.20823233331E+02 -0.47668327108E+02 -0.11719829096E+03  0.12822369461E+03  0.00000000000E+00 0. -1.
         11    1    1    2    0    0 -0.37950260065E+01  0.39943712121E+02 -0.17686134642E+03  0.18135555745E+03  0.00000000000E+00 0.  1.
<mgrwt>
<rscale>  0 0.11823541E+03</rscale>
<asrwt>0</asrwt>
<pdfrwt beam="1">  1        1 0.30394201E-02 0.12639224E+03</pdfrwt>
<pdfrwt beam="2">  1       -1 0.97650938E-01 0.12639224E+03</pdfrwt>
<totfact> 0.34026015E+03</totfact>
</mgrwt>
</event>
<event>
 7    1  0.5206756E-006  0.1461546E+03  0.7546771E-02  0.1214935E+00
          4   -1    0    0  501    0  0.00000000000E+00  0.00000000000E+00  0.10376456999E+03  0.10376456999E+03  0.00000000000E+00 0. -1.
         -4   -1    0    0    0  501 -0.00000000000E+00 -0.00000000000E+00 -0.17015214207E+03  0.17015214207E+03  0.00000000000E+00 0.  1.
         23    2    1    2    0    0  0.27757182483E+02  0.70469357154E+02 -0.26938144143E+02  0.14861640416E+03  0.12499912200E+03 0.  0.
          5    1    3    3  502    0 -0.16016142690E+02  0.60407829023E+02  0.35139193153E+02  0.71850369027E+02  0.47000000000E+01 0. -1.
         -5    1    3    3    0  502  0.43773325174E+02  0.10061528132E+02 -0.62077337295E+02  0.76766035138E+02  0.47000000000E+01 0. -1.
        -11    1    1    2    0    0 -0.42099599801E+02 -0.69900026376E+02  0.18062647352E+01  0.81618947451E+02  0.00000000000E+00 0. -1.
         11    1    1    2    0    0  0.14342417318E+02 -0.56933077812E+00 -0.41255692670E+02  0.43681360439E+02  0.00000000000E+00 0.  1.
<mgrwt>
<rscale>  0 0.13881314E+03</rscale>
<asrwt>0</asrwt>
<pdfrwt beam="1">  1        4 0.15963780E-01 0.14615462E+03</pdfrwt>
<pdfrwt beam="2">  1       -4 0.26177253E-01 0.14615462E+03</pdfrwt>
<totfact> 0.77941357E+02</totfact>
</mgrwt>
</event>
<event>
 7    1  0.5206756E-006  0.1439154E+03  0.7546771E-02  0.1218813E+00
          1   -1    0    0  501    0  0.00000000000E+00  0.00000000000E+00  0.17033086788E+04  0.17033086788E+04  0.00000000000E+00 0. -1.
         -1   -1    0    0    0  501 -0.00000000000E+00 -0.00000000000E+00 -0.11420509992E+02  0.11420509992E+02  0.00000000000E+00 0.  1.
         23    2    1    2    0    0  0.71281062517E+02 -0.26044865246E+01  0.12468815393E+04  0.12551594375E+04  0.12499546950E+03 0.  0.
          5    1    3    3  502    0  0.39240598990E+02  0.54740558049E+02  0.86585943934E+03  0.86848777309E+03  0.47000000000E+01 0. -1.
         -5    1    3    3    0  502  0.32040463528E+02 -0.57345044574E+02  0.38102209994E+03  0.38667166444E+03  0.47000000000E+01 0. -1.
        -11    1    1    2    0    0 -0.29409832013E+01 -0.22924049158E+02  0.28361448018E+02  0.36585969246E+02  0.00000000000E+00 0.  1.
         11    1    1    2    0    0 -0.68340079316E+02  0.25528535683E+02  0.41664518149E+03  0.42298378200E+03  0.00000000000E+00 0. -1.
<mgrwt>
<rscale>  0 0.13600125E+03</rscale>
<asrwt>0</asrwt>
<pdfrwt beam="1">  1        1 0.26204729E+00 0.14391539E+03</pdfrwt>
<pdfrwt beam="2">  1       -1 0.17570029E-02 0.14391539E+03</pdfrwt>
<totfact> 0.43127008E+03</totfact>
</mgrwt>
</event>
<event>
 6    1  0.5206756E-006  0.2609032E+03  0.7546771E-02  0.1125751E+00
         -2   -1    0    0    0  501 -0.00000000000E+00  0.00000000000E+00  0.67283802708E+03  0.67283802708E+03  0.00000000000E+00 0.  1.
          2   -1    0    0  501    0  0.00000000000E+00 -0.00000000000E+00 -0.15559260862E+03  0.15559260862E+03  0.00000000000E+00 0. -1.
          5    1    1    2  502    0 -0.14260991752E+03  0.58993328403E+02 -0.84111621154E+02  0.17582564143E+03  0.47000000000E+01 0. -1.
         -5    1    1    2    0  502  0.51874163329E+02  0.36345648408E+02  0.58476604480E+02  0.86333876612E+02  0.47000000000E+01 0.  1.
        -11    1    1    2    0    0  0.21841904237E+02 -0.68470230226E+02  0.38852742939E+03  0.39511872216E+03  0.00000000000E+00 0.  1.
         11    1    1    2    0    0  0.68893849954E+02 -0.26868746584E+02  0.15435300574E+03  0.17115239550E+03  0.00000000000E+00 0. -1.
<mgrwt>
<rscale>  0 0.23126703E+03</rscale>
<asrwt>0</asrwt>
<pdfrwt beam="2">  1        2 0.23937325E-01 0.26090316E+03</pdfrwt>
<pdfrwt beam="1">  1       -2 0.10351354E+00 0.26090316E+03</pdfrwt>
<totfact> 0.17965023E+02</totfact>
</mgrwt>
</event>
<event>
 7    1  0.5206756E-006  0.1307586E+03  0.7546771E-02  0.1239337E+00
         -2   -1    0    0    0  501 -0.00000000000E+00  0.00000000000E+00  0.21760292038E+02  0.21760292038E+02  0.00000000000E+00 0.  1.
          2   -1    0    0  501    0  0.00000000000E+00 -0.00000000000E+00 -0.66720563757E+03  0.66720563757E+03  0.00000000000E+00 0. -1.
         23    2    1    2    0    0  0.30943312026E+02  0.22682738724E+02 -0.46010211410E+03  0.47832183125E+03  0.12500329457E+03 0.  0.
          5    1    3    3  502    0 -0.44402739158E+02  0.31321645712E+02 -0.20644640541E+03  0.21352952264E+03  0.47000000000E+01 0. -1.
         -5    1    3    3    0  502  0.75346051184E+02 -0.86389069885E+01 -0.25365570870E+03  0.26479230861E+03  0.47000000000E+01 0. -1.
        -11    1    1    2    0    0  0.22657795099E+02 -0.34521243576E+02 -0.10944542542E+03  0.11697603636E+03  0.00000000000E+00 0.  1.
         11    1    1    2    0    0 -0.53601107125E+02  0.11838504852E+02 -0.75897806014E+02  0.93668062005E+02  0.00000000000E+00 0. -1.
<mgrwt>
<rscale>  0 0.12230800E+03</rscale>
<asrwt>0</asrwt>
<pdfrwt beam="2">  1        2 0.10264701E+00 0.13075863E+03</pdfrwt>
<pdfrwt beam="1">  1       -2 0.33477375E-02 0.13075863E+03</pdfrwt>
<totfact> 0.15135816E+04</totfact>
</mgrwt>
</event>
<event>
 7    1  0.5206756E-006  0.1266419E+03  0.7546771E-02  0.1247487E+00
         -1   -1    0    0    0  501 -0.00000000000E+00  0.00000000000E+00  0.47600197049E+03  0.47600197049E+03  0.00000000000E+00 0.  1.
          1   -1    0    0  501    0  0.00000000000E+00 -0.00000000000E+00 -0.25972037595E+02  0.25972037595E+02  0.00000000000E+00 0. -1.
         23    2    1    2    0    0 -0.18757625453E+02  0.78301894739E+01  0.22282185314E+03  0.25629623703E+03  0.12500009001E+03 0.  0.
          5    1    3    3  502    0 -0.63968797973E+02  0.22946324458E+02  0.17841151115E+03  0.19097460101E+03  0.47000000000E+01 0. -1.
         -5    1    3    3    0  502  0.45211172519E+02 -0.15116134984E+02  0.44410341985E+02  0.65321636022E+02  0.47000000000E+01 0. -1.
        -11    1    1    2    0    0 -0.31393526670E+01  0.23236087493E+02  0.10550358905E+02  0.25711502682E+02  0.00000000000E+00 0. -1.
         11    1    1    2    0    0  0.21896978120E+02 -0.31066276967E+02  0.21665772086E+03  0.21996626837E+03  0.00000000000E+00 0.  1.
<mgrwt>
<rscale>  0 0.11737759E+03</rscale>
<asrwt>0</asrwt>
<pdfrwt beam="2">  1        1 0.39956985E-02 0.12664195E+03</pdfrwt>
<pdfrwt beam="1">  1       -1 0.73231066E-01 0.12664195E+03</pdfrwt>
<totfact> 0.42467473E+03</totfact>
</mgrwt>
</event>
<event>
 7    1  0.5206756E-006  0.1451341E+03  0.7546771E-02  0.1216462E+00
         -3   -1    0    0    0  501 -0.00000000000E+00  0.00000000000E+00  0.50719353820E+02  0.50719353820E+02  0.00000000000E+00 0.  1.
          3   -1    0    0  501    0  0.00000000000E+00 -0.00000000000E+00 -0.38802619533E+03  0.38802619533E+03  0.00000000000E+00 0. -1.
         23    2    1    2    0    0 -0.43011676847E+02  0.59896976062E+02 -0.26076847532E+03  0.29843609628E+03  0.12500501492E+03 0.  0.
          5    1    3    3  502    0 -0.39281723123E+02  0.15823100185E+02 -0.24873301424E+03  0.25235615039E+03  0.47000000000E+01 0.  1.
         -5    1    3    3    0  502 -0.37299537238E+01  0.44073875877E+02 -0.12035461088E+02  0.46079945890E+02  0.47000000000E+01 0.  1.
        -11    1    1    2    0    0  0.18071284138E+02 -0.81131559605E+02 -0.43617399172E+02  0.93868944731E+02  0.00000000000E+00 0.  1.
         11    1    1    2    0    0  0.24940392709E+02  0.21234583543E+02 -0.32920967014E+02  0.46440508135E+02  0.00000000000E+00 0. -1.
<mgrwt>
<rscale>  0 0.13769699E+03</rscale>
<asrwt>0</asrwt>
<pdfrwt beam="2">  1        3 0.59696337E-01 0.14513410E+03</pdfrwt>
<pdfrwt beam="1">  1       -3 0.78029776E-02 0.14513410E+03</pdfrwt>
<totfact> 0.72257599E+02</totfact>
</mgrwt>
</event>
<event>
 7    1  0.5206756E-006  0.1543972E+03  0.7546771E-02  0.1202600E+00
          2   -1    0    0  501    0  0.00000000000E+00  0.00000000000E+00  0.35919077065E+03  0.35919077065E+03  0.00000000000E+00 0.  1.
         -2   -1    0    0    0  501 -0.00000000000E+00 -0.00000000000E+00 -0.60007234669E+02  0.60007234669E+02  0.00000000000E+00 0. -1.
         23    2    1    2    0    0 -0.89370378780E+02  0.15042992095E+02  0.20909150181E+03  0.25991876742E+03  0.12500061324E+03 0.  0.
          5    1    3    3  502    0 -0.13365730929E+02  0.62848354617E+02  0.83727303630E+02  0.10564520725E+03  0.47000000000E+01 0.  1.
         -5    1    3    3    0  502 -0.76004647850E+02 -0.47805362522E+02  0.12536419818E+03  0.15427356017E+03  0.47000000000E+01 0.  1.
        -11    1    1    2    0    0  0.44256695126E+02 -0.21368789604E+02 -0.92333105291E+01  0.50005342275E+02  0.00000000000E+00 0.  1.
         11    1    1    2    0    0  0.45113683653E+02  0.63257975089E+01  0.99325344701E+02  0.10927389563E+03  0.00000000000E+00 0. -1.
<mgrwt>
<rscale>  0 0.14828209E+03</rscale>
<asrwt>0</asrwt>
<pdfrwt beam="1">  1        2 0.55260117E-01 0.15439725E+03</pdfrwt>
<pdfrwt beam="2">  1       -2 0.92318825E-02 0.15439725E+03</pdfrwt>
<totfact> 0.65233425E+03</totfact>
</mgrwt>
</event>
<event>
 7    1  0.5206756E-006  0.1608403E+03  0.7546771E-02  0.1195233E+00
          2   -1    0    0  501    0  0.00000000000E+00  0.00000000000E+00  0.19482549614E+04  0.19482549614E+04  0.00000000000E+00 0. -1.
         -2   -1    0    0    0  501 -0.00000000000E+00 -0.00000000000E+00 -0.11613489042E+02  0.11613489042E+02  0.00000000000E+00 0.  1.
         23    2    1    2    0    0 -0.89963270447E+02  0.46382253185E+02  0.11968556605E+04  0.12076146224E+04  0.12499960265E+03 0.  0.
          5    1    3    3  502    0 -0.89939387791E+02 -0.85689897645E+01  0.46726749523E+03  0.47594487408E+03  0.47000000000E+01 0. -1.
         -5    1    3    3    0  502 -0.23882656163E-01  0.54951242949E+02  0.72958816528E+03  0.73166974830E+03  0.47000000000E+01 0. -1.
        -11    1    1    2    0    0  0.83734613628E+02 -0.70938420184E+02  0.63752045616E+03  0.64689726927E+03  0.00000000000E+00 0. -1.
         11    1    1    2    0    0  0.62286568189E+01  0.24556167000E+02  0.10226535564E+03  0.10535655873E+03  0.00000000000E+00 0.  1.
<mgrwt>
<rscale>  0 0.15434529E+03</rscale>
<asrwt>0</asrwt>
<pdfrwt beam="1">  1        2 0.29973127E+00 0.16084031E+03</pdfrwt>
<pdfrwt beam="2">  1       -2 0.17866922E-02 0.16084031E+03</pdfrwt>
<totfact> 0.71550217E+03</totfact>
</mgrwt>
</event>
<event>
 7    1  0.5206756E-006  0.1335570E+03  0.7546771E-02  0.1234710E+00
          2   -1    0    0  501    0  0.00000000000E+00  0.00000000000E+00  0.65880846519E+03  0.65880846519E+03  0.00000000000E+00 0. -1.
         -2   -1    0    0    0  501 -0.00000000000E+00 -0.00000000000E+00 -0.31035194915E+02  0.31035194915E+02  0.00000000000E+00 0.  1.
         23    2    1    2    0    0  0.46850222425E+02  0.42362931449E+01  0.53375266202E+03  0.55020849158E+03  0.12499836187E+03 0.  0.
          5    1    3    3  502    0  0.14276535707E+02 -0.57399450965E+02  0.31593148326E+03  0.32145498683E+03  0.47000000000E+01 0. -1.
         -5    1    3    3    0  502  0.32573686719E+02  0.61635744110E+02  0.21782117876E+03  0.22875350475E+03  0.47000000000E+01 0. -1.
        -11    1    1    2    0    0 -0.20488200609E+02  0.42963647290E+02  0.56242611760E+02  0.73680884429E+02  0.00000000000E+00 0.  1.
         11    1    1    2    0    0 -0.26362021817E+02 -0.47199940435E+02  0.37777996490E+02  0.65954284092E+02  0.00000000000E+00 0. -1.
<mgrwt>
<rscale>  0 0.12523049E+03</rscale>
<asrwt>0</asrwt>
<pdfrwt beam="1">  1        2 0.10135514E+00 0.13355703E+03</pdfrwt>
<pdfrwt beam="2">  1       -2 0.47746459E-02 0.13355703E+03</pdfrwt>
<totfact> 0.90792679E+03</totfact>
</mgrwt>
</event>
<event>
 7    1  0.5206756E-006  0.1271330E+03  0.7546771E-02  0.1245065E+00
         -1   -1    0    0    0  501 -0.00000000000E+00  0.00000000000E+00  0.16083942663E+02  0.16083942663E+02  0.00000000000E+00 0.  1.
          1   -1    0    0  501    0  0.00000000000E+00 -0.00000000000E+00 -0.81105675284E+03  0.81105675284E+03  0.00000000000E+00 0. -1.
         23    2    1    2    0    0  0.22480788350E+02  0.56779852435E+01 -0.52821030690E+03  0.54329450504E+03  0.12500066214E+03 0.  0.
          5    1    3    3  502    0  0.56534598889E+02 -0.40391500638E+02 -0.29296103369E+03  0.30112437872E+03  0.47000000000E+01 0. -1.
         -5    1    3    3    0  502 -0.34053810539E+02  0.46069485882E+02 -0.23524927321E+03  0.24217012633E+03  0.47000000000E+01 0. -1.
        -11    1    1    2    0    0 -0.29518912329E+02  0.36274478430E+02 -0.19403559897E+03  0.19959212820E+03  0.00000000000E+00 0. -1.
         11    1    1    2    0    0  0.70381239790E+01 -0.41952463674E+02 -0.72726904307E+02  0.84254062261E+02  0.00000000000E+00 0.  1.
<mgrwt>
<rscale>  0 0.11881512E+03</rscale>
<asrwt>0</asrwt>
<pdfrwt beam="2">  1        1 0.12477796E+00 0.12713297E+03</pdfrwt>
<pdfrwt beam="1">  1       -1 0.24744528E-02 0.12713297E+03</pdfrwt>
<totfact> 0.10801827E+04</totfact>
</mgrwt>
</event>
<event>
 7    1  0.5206756E-006  0.1321760E+03  0.7546771E-02  0.1237586E+00
          2   -1    0    0  501    0  0.00000000000E+00  0.00000000000E+00  0.84470762341E+03  0.84470762341E+03  0.00000000000E+00 0. -1.
         -2   -1    0    0    0  501 -0.00000000000E+00 -0.00000000000E+00 -0.21893547484E+02  0.21893547484E+02  0.00000000000E+00 0.  1.
         23    2    1    2    0    0  0.23100544893E+02 -0.36224175519E+02  0.67551280432E+03  0.68832262156E+03  0.12499862591E+03 0.  0.
          5    1    3    3  502    0  0.45525347177E+02 -0.44854573533E+02  0.64929761450E+03  0.65245227580E+03  0.47000000000E+01 0.  1.
         -5    1    3    3    0  502 -0.22424802284E+02  0.86303980134E+01  0.26215189820E+02  0.35870345756E+02  0.47000000000E+01 0.  1.
        -11    1    1    2    0    0  0.27609689792E+02  0.30859261706E+02  0.32423416217E+02  0.52591509986E+02  0.00000000000E+00 0.  1.
         11    1    1    2    0    0 -0.50710234685E+02  0.53649138134E+01  0.11487785538E+03  0.12568703935E+03  0.00000000000E+00 0. -1.
<mgrwt>
<rscale>  0 0.12340334E+03</rscale>
<asrwt>0</asrwt>
<pdfrwt beam="1">  1        2 0.12995499E+00 0.13217595E+03</pdfrwt>
<pdfrwt beam="2">  1       -2 0.33682387E-02 0.13217595E+03</pdfrwt>
<totfact> 0.11270184E+04</totfact>
</mgrwt>
</event>
<event>
 7    1  0.5206756E-006  0.1252992E+03  0.7546771E-02  0.1251060E+00
          2   -1    0    0  501    0  0.00000000000E+00  0.00000000000E+00  0.95387481483E+02  0.95387481483E+02  0.00000000000E+00 0.  1.
         -2   -1    0    0    0  501 -0.00000000000E+00 -0.00000000000E+00 -0.12682899374E+03  0.12682899374E+03  0.00000000000E+00 0. -1.
         23    2    1    2    0    0 -0.67592316590E+01  0.54860657608E+01  0.46845707386E+01  0.12538674068E+03  0.12499642157E+03 0.  0.
          5    1    3    3  502    0 -0.58694820569E+02  0.27454376268E+02 -0.12683555213E+02  0.66195070139E+02  0.47000000000E+01 0.  1.
         -5    1    3    3    0  502  0.51935588910E+02 -0.21968310507E+02  0.17368125952E+02  0.59191670537E+02  0.47000000000E+01 0.  1.
        -11    1    1    2    0    0 -0.17639835198E+02  0.21258821029E+01  0.24945152155E+02  0.30625867768E+02  0.00000000000E+00 0.  1.
         11    1    1    2    0    0  0.24399066857E+02 -0.76119478637E+01 -0.61071235147E+02  0.66203866777E+02  0.00000000000E+00 0. -1.
<mgrwt>
<rscale>  0 0.11529925E+03</rscale>
<asrwt>0</asrwt>
<pdfrwt beam="1">  1        2 0.14674997E-01 0.12529920E+03</pdfrwt>
<pdfrwt beam="2">  1       -2 0.19512153E-01 0.12529920E+03</pdfrwt>
<totfact> 0.82228192E+03</totfact>
</mgrwt>
</event>
<event>
 7    1  0.5206756E-006  0.1493911E+03  0.7546771E-02  0.1210791E+00
          4   -1    0    0  501    0  0.00000000000E+00  0.00000000000E+00  0.49385320167E+02  0.49385320167E+02  0.00000000000E+00 0. -1.
         -4   -1    0    0    0  501 -0.00000000000E+00 -0.00000000000E+00 -0.37653906420E+03  0.37653906420E+03  0.00000000000E+00 0.  1.
         23    2    1    2    0    0  0.82110018634E+02 -0.13715180316E+02 -0.15635659467E+03  0.21625239316E+03  0.12404656996E+03 0.  0.
          5    1    3    3  502    0 -0.68199439514E+01  0.33579895850E+02 -0.58307173412E+01  0.35074325446E+02  0.47000000000E+01 0.  1.
         -5    1    3    3    0  502  0.88929962585E+02 -0.47295076166E+02 -0.15052587733E+03  0.18117806772E+03  0.47000000000E+01 0.  1.
        -11    1    1    2    0    0 -0.19533646759E+02  0.41016823257E+02 -0.10693938368E+03  0.11618939249E+03  0.00000000000E+00 0.  1.
         11    1    1    2    0    0 -0.62576371875E+02 -0.27301642941E+02 -0.63857765675E+02  0.93482598708E+02  0.00000000000E+00 0. -1.
<mgrwt>
<rscale>  0 0.14190318E+03</rscale>
<asrwt>0</asrwt>
<pdfrwt beam="1">  1        4 0.75977417E-02 0.14939114E+03</pdfrwt>
<pdfrwt beam="2">  1       -4 0.57929086E-01 0.14939114E+03</pdfrwt>
<totfact> 0.58080438E+02</totfact>
</mgrwt>
</event>
<event>
 7    1  0.5206756E-006  0.2884356E+03  0.7546771E-02  0.1093034E+00
          2   -1    0    0  501    0  0.00000000000E+00  0.00000000000E+00  0.18814645801E+04  0.18814645801E+04  0.00000000000E+00 0. -1.
         -2   -1    0    0    0  501 -0.00000000000E+00 -0.00000000000E+00 -0.42124766620E+02  0.42124766620E+02  0.00000000000E+00 0.  1.
         23    2    1    2    0    0 -0.19973436949E+03  0.16636623053E+03  0.93872155188E+03  0.98203525497E+03  0.12499419592E+03 0.  0.
          5    1    3    3  502    0 -0.10201303875E+02  0.69579148457E+02  0.16189287242E+03  0.17656929699E+03  0.47000000000E+01 0. -1.
         -5    1    3    3    0  502 -0.18953306562E+03  0.96787082073E+02  0.77682867946E+03  0.80546595797E+03  0.47000000000E+01 0. -1.
        -11    1    1    2    0    0  0.13496570547E+03 -0.10829594703E+03  0.72765699898E+03  0.74794950495E+03  0.00000000000E+00 0.  1.
         11    1    1    2    0    0  0.64768664021E+02 -0.58070283501E+02  0.17296126266E+03  0.19360458684E+03  0.00000000000E+00 0. -1.
<mgrwt>
<rscale>  0 0.28491536E+03</rscale>
<asrwt>0</asrwt>
<pdfrwt beam="1">  1        2 0.28945602E+00 0.28843559E+03</pdfrwt>
<pdfrwt beam="2">  1       -2 0.64807348E-02 0.28843559E+03</pdfrwt>
<totfact> 0.11250050E+03</totfact>
</mgrwt>
</event>
<event>
 7    1  0.5206756E-006  0.1522246E+03  0.7546771E-02  0.1205691E+00
          3   -1    0    0  501    0  0.00000000000E+00  0.00000000000E+00  0.23053994516E+03  0.23053994516E+03  0.00000000000E+00 0. -1.
         -3   -1    0    0    0  501 -0.00000000000E+00 -0.00000000000E+00 -0.11006560163E+03  0.11006560163E+03  0.00000000000E+00 0.  1.
         23    2    1    2    0    0 -0.83067818133E+02  0.25446733232E+02  0.14480854607E+03  0.21009960261E+03  0.12499811743E+03 0.  0.
          5    1    3    3  502    0  0.18904406141E+02  0.41283934082E+02  0.65627492922E+02  0.79942464385E+02  0.47000000000E+01 0.  1.
         -5    1    3    3    0  502 -0.10197222427E+03 -0.15837200849E+02  0.79181053149E+02  0.13015713823E+03  0.47000000000E+01 0.  1.
        -11    1    1    2    0    0  0.10208818515E+03 -0.32564719897E+02 -0.25552749322E+02  0.11016079851E+03  0.00000000000E+00 0.  1.
         11    1    1    2    0    0 -0.19020367020E+02  0.71179866648E+01  0.12185467821E+01  0.20345145662E+02  0.00000000000E+00 0. -1.
<mgrwt>
<rscale>  0 0.14583111E+03</rscale>
<asrwt>0</asrwt>
<pdfrwt beam="1">  1        3 0.35467684E-01 0.15222460E+03</pdfrwt>
<pdfrwt beam="2">  1       -3 0.16933169E-01 0.15222460E+03</pdfrwt>
<totfact> 0.55478892E+02</totfact>
</mgrwt>
</event>
<event>
 7    1  0.5206756E-006  0.1503794E+03  0.7546771E-02  0.1208868E+00
          1   -1    0    0  501    0  0.00000000000E+00  0.00000000000E+00  0.10708836959E+03  0.10708836959E+03  0.00000000000E+00 0. -1.
         -1   -1    0    0    0  501 -0.00000000000E+00 -0.00000000000E+00 -0.18063346525E+03  0.18063346525E+03  0.00000000000E+00 0.  1.
         23    2    1    2    0    0  0.83340904334E+02 -0.66079116743E+01 -0.62992884109E+02  0.16304009092E+03  0.12499838785E+03 0.  0.
          5    1    3    3  502    0 -0.12092990271E+02 -0.55972924771E+01 -0.65942765708E+02  0.67439665228E+02  0.47000000000E+01 0. -1.
         -5    1    3    3    0  502  0.95433894606E+02 -0.10106191973E+01  0.29498815986E+01  0.95600425690E+02  0.47000000000E+01 0. -1.
        -11    1    1    2    0    0  0.13640553447E+02  0.19977833633E+02  0.70856899225E+01  0.25206854954E+02  0.00000000000E+00 0. -1.
         11    1    1    2    0    0 -0.96981457781E+02 -0.13369921959E+02 -0.17637901479E+02  0.99474888968E+02  0.00000000000E+00 0.  1.
<mgrwt>
<rscale>  0 0.14336785E+03</rscale>
<asrwt>0</asrwt>
<pdfrwt beam="1">  1        1 0.16475134E-01 0.15037941E+03</pdfrwt>
<pdfrwt beam="2">  1       -1 0.27789764E-01 0.15037941E+03</pdfrwt>
<totfact> 0.37042250E+03</totfact>
</mgrwt>
</event>
<event>
 7    1  0.5206756E-006  0.1252750E+03  0.7546771E-02  0.1249810E+00
         -2   -1    0    0    0  501 -0.00000000000E+00  0.00000000000E+00  0.20709363594E+02  0.20709363594E+02  0.00000000000E+00 0.  1.
          2   -1    0    0  501    0  0.00000000000E+00 -0.00000000000E+00 -0.67854811468E+03  0.67854811468E+03  0.00000000000E+00 0. -1.
         23    2    1    2    0    0  0.89473660460E+01  0.33900149032E+01 -0.50905143905E+03  0.52423962797E+03  0.12490905645E+03 0.  0.
          5    1    3    3  502    0  0.63703602048E+02 -0.54706519168E+01 -0.34754782580E+03  0.35341145732E+03  0.47000000000E+01 0. -1.
         -5    1    3    3    0  502 -0.54756236002E+02  0.88606668200E+01 -0.16150361324E+03  0.17082817065E+03  0.47000000000E+01 0. -1.
        -11    1    1    2    0    0  0.20206512507E+02 -0.25462184822E+02 -0.12981377441E+03  0.13382167997E+03  0.00000000000E+00 0.  1.
         11    1    1    2    0    0 -0.29153878553E+02  0.22072169919E+02 -0.18973537629E+02  0.41196170329E+02  0.00000000000E+00 0. -1.
<mgrwt>
<rscale>  0 0.11602047E+03</rscale>
<asrwt>0</asrwt>
<pdfrwt beam="2">  1        2 0.10439201E+00 0.12527498E+03</pdfrwt>
<pdfrwt beam="1">  1       -2 0.31860563E-02 0.12527498E+03</pdfrwt>
<totfact> 0.15908861E+04</totfact>
</mgrwt>
</event>
<event>
 6    1  0.5206756E-006  0.1989537E+03  0.7546771E-02  0.1197334E+00
         -2   -1    0    0    0  501 -0.00000000000E+00  0.00000000000E+00  0.19482706854E+03  0.19482706854E+03  0.00000000000E+00 0.  1.
          2   -1    0    0  501    0  0.00000000000E+00 -0.00000000000E+00 -0.12151814052E+03  0.12151814052E+03  0.00000000000E+00 0. -1.
          5    1    1    2  502    0 -0.43136394911E+01  0.10954021127E+03 -0.33856101881E+02  0.11483027042E+03  0.47000000000E+01 0. -1.
         -5    1    1    2    0  502 -0.16606184805E+02 -0.82329977312E+02  0.13370057671E+02  0.85175342559E+02  0.47000000000E+01 0.  1.
        -11    1    1    2    0    0 -0.17474766675E+02  0.54963809263E+01  0.22663563956E+02  0.29141290377E+02  0.00000000000E+00 0. -1.
         11    1    1    2    0    0  0.38394590972E+02 -0.32706614887E+02  0.71131408276E+02  0.87198305697E+02  0.00000000000E+00 0.  1.
<mgrwt>
<rscale>  0 0.15258314E+03</rscale>
<asrwt>0</asrwt>
<pdfrwt beam="2">  1        2 0.18695099E-01 0.19895368E+03</pdfrwt>
<pdfrwt beam="1">  1       -2 0.29973395E-01 0.19895368E+03</pdfrwt>
<totfact> 0.30206419E+03</totfact>
</mgrwt>
</event>
<event>
 7    1  0.5206756E-006  0.1339127E+03  0.7546771E-02  0.1234716E+00
         -2   -1    0    0    0  501 -0.00000000000E+00  0.00000000000E+00  0.88078788511E+02  0.88078788511E+02  0.00000000000E+00 0.  1.
          2   -1    0    0  501    0  0.00000000000E+00 -0.00000000000E+00 -0.16071068273E+03  0.16071068273E+03  0.00000000000E+00 0. -1.
         23    2    1    2    0    0  0.38272400866E+02  0.29063422962E+02 -0.55515439147E+02  0.14496406173E+03  0.12499262373E+03 0.  0.
          5    1    3    3  502    0  0.77885393113E+02  0.45503562129E+02 -0.32005245960E+02  0.95828672096E+02  0.47000000000E+01 0.  1.
         -5    1    3    3    0  502 -0.39612992247E+02 -0.16440139166E+02 -0.23510193188E+02  0.49135389632E+02  0.47000000000E+01 0.  1.
        -11    1    1    2    0    0 -0.10735252641E+02 -0.78947255922E+01  0.37109359090E+02  0.39429390986E+02  0.00000000000E+00 0.  1.
         11    1    1    2    0    0 -0.27537148224E+02 -0.21168697370E+02 -0.54225814161E+02  0.64396018527E+02  0.00000000000E+00 0. -1.
<mgrwt>
<rscale>  0 0.12522656E+03</rscale>
<asrwt>0</asrwt>
<pdfrwt beam="2">  1        2 0.24724720E-01 0.13391271E+03</pdfrwt>
<pdfrwt beam="1">  1       -2 0.13550583E-01 0.13391271E+03</pdfrwt>
<totfact> 0.83325149E+03</totfact>
</mgrwt>
</event>
<event>
 7    1  0.5206756E-006  0.1315661E+03  0.7546771E-02  0.1238581E+00
         -1   -1    0    0    0  501 -0.00000000000E+00  0.00000000000E+00  0.44620473359E+02  0.44620473359E+02  0.00000000000E+00 0.  1.
          1   -1    0    0  501    0  0.00000000000E+00 -0.00000000000E+00 -0.32147158372E+03  0.32147158372E+03  0.00000000000E+00 0. -1.
         23    2    1    2    0    0 -0.12079687820E+02 -0.39218876019E+02 -0.20317685054E+03  0.24205466783E+03  0.12500236209E+03 0.  0.
          5    1    3    3  502    0  0.47459014931E+02  0.63442833090E+01 -0.12354544889E+03  0.13258271369E+03  0.47000000000E+01 0. -1.
         -5    1    3    3    0  502 -0.59538702750E+02 -0.45563159328E+02 -0.79631401649E+02  0.10947195413E+03  0.47000000000E+01 0. -1.
        -11    1    1    2    0    0  0.32872681442E+02  0.15848506890E+02  0.73126951221E+01  0.37219133061E+02  0.00000000000E+00 0.  1.
         11    1    1    2    0    0 -0.20792993622E+02  0.23370369129E+02 -0.80986954942E+02  0.86818256189E+02  0.00000000000E+00 0. -1.
<mgrwt>
<rscale>  0 0.12277955E+03</rscale>
<asrwt>0</asrwt>
<pdfrwt beam="2">  1        1 0.49457167E-01 0.13156607E+03</pdfrwt>
<pdfrwt beam="1">  1       -1 0.68646882E-02 0.13156607E+03</pdfrwt>
<totfact> 0.82788847E+03</totfact>
</mgrwt>
</event>
<event>
 7    1  0.5206756E-006  0.2134866E+03  0.7546771E-02  0.1142338E+00
          2   -1    0    0  501    0  0.00000000000E+00  0.00000000000E+00  0.17174938241E+03  0.17174938241E+03  0.00000000000E+00 0. -1.
         -2   -1    0    0    0  501 -0.00000000000E+00 -0.00000000000E+00 -0.24621033676E+03  0.24621033676E+03  0.00000000000E+00 0.  1.
         23    2    1    2    0    0  0.16131223924E+03  0.62690237115E+02 -0.20477683879E+02  0.21446641869E+03  0.12499921940E+03 0.  0.
          5    1    3    3  502    0  0.10009330190E+03 -0.11154467403E+01 -0.60753312086E+02  0.11718774781E+03  0.47000000000E+01 0.  1.
         -5    1    3    3    0  502  0.61218937339E+02  0.63805683855E+02  0.40275628207E+02  0.97278670882E+02  0.47000000000E+01 0.  1.
        -11    1    1    2    0    0 -0.97792979423E+02 -0.68299872159E+02  0.10126681258E+01  0.11928690145E+03  0.00000000000E+00 0. -1.
         11    1    1    2    0    0 -0.63519259820E+02  0.56096350435E+01 -0.54995938602E+02  0.84206399021E+02  0.00000000000E+00 0.  1.
<mgrwt>
<rscale>  0 0.20902773E+03</rscale>
<asrwt>0</asrwt>
<pdfrwt beam="1">  1        2 0.26422982E-01 0.21348656E+03</pdfrwt>
<pdfrwt beam="2">  1       -2 0.37878513E-01 0.21348656E+03</pdfrwt>
<totfact> 0.13280019E+03</totfact>
</mgrwt>
</event>
<event>
 7    1  0.5206756E-006  0.1896143E+03  0.7546771E-02  0.1163374E+00
          1   -1    0    0  501    0  0.00000000000E+00  0.00000000000E+00  0.79183388085E+03  0.79183388085E+03  0.00000000000E+00 0. -1.
         -1   -1    0    0    0  501 -0.00000000000E+00 -0.00000000000E+00 -0.47232678671E+02  0.47232678671E+02  0.00000000000E+00 0.  1.
         23    2    1    2    0    0 -0.53479163114E+02  0.13219997224E+03  0.54220105480E+03  0.57440016560E+03  0.12496684710E+03 0.  0.
          5    1    3    3  502    0 -0.39296849608E+02  0.15591235326E+03  0.44231156452E+03  0.47065328470E+03  0.47000000000E+01 0. -1.
         -5    1    3    3    0  502 -0.14182313506E+02 -0.23712381020E+02  0.99889490273E+02  0.10374688090E+03  0.47000000000E+01 0. -1.
        -11    1    1    2    0    0  0.73379790955E+02 -0.87823726447E+02  0.17425183618E+03  0.20847374669E+03  0.00000000000E+00 0. -1.
         11    1    1    2    0    0 -0.19900627840E+02 -0.44376245792E+02  0.28148311207E+02  0.56192647232E+02  0.00000000000E+00 0.  1.
<mgrwt>
<rscale>  0 0.18465334E+03</rscale>
<asrwt>0</asrwt>
<pdfrwt beam="1">  1        1 0.12182059E+00 0.18961426E+03</pdfrwt>
<pdfrwt beam="2">  1       -1 0.72665665E-02 0.18961426E+03</pdfrwt>
<totfact> 0.23191393E+03</totfact>
</mgrwt>
</event>
<event>
 7    1  0.5206756E-006  0.1144348E+03  0.7546771E-02  0.1263836E+00
         -2   -1    0    0    0  501 -0.00000000000E+00  0.00000000000E+00  0.26876829932E+03  0.26876829932E+03  0.00000000000E+00 0.  1.
          2   -1    0    0  501    0  0.00000000000E+00 -0.00000000000E+00 -0.13928016745E+03  0.13928016745E+03  0.00000000000E+00 0. -1.
         23    2    1    2    0    0  0.23015011885E+02  0.34509824682E+00 -0.10560918181E+03  0.15571969246E+03  0.11209600114E+03 0.  0.
          5    1    3    3  502    0  0.63548474484E+02 -0.16840074141E+02 -0.83056797112E+02  0.10603074202E+03  0.47000000000E+01 0. -1.
         -5    1    3    3    0  502 -0.40533462599E+02  0.17185172388E+02 -0.22552384697E+02  0.49688950440E+02  0.47000000000E+01 0.  1.
        -11    1    1    2    0    0 -0.24431943571E+02  0.42295952863E+02  0.11859745041E+03  0.12826232003E+03  0.00000000000E+00 0. -1.
         11    1    1    2    0    0  0.14169316866E+01 -0.42641051110E+02  0.11649986327E+03  0.12406645428E+03  0.00000000000E+00 0.  1.
<mgrwt>
<rscale>  0 0.10825487E+03</rscale>
<asrwt>0</asrwt>
<pdfrwt beam="2">  1        2 0.21427718E-01 0.11443480E+03</pdfrwt>
<pdfrwt beam="1">  1       -2 0.41348969E-01 0.11443480E+03</pdfrwt>
<totfact> 0.13921669E+03</totfact>
</mgrwt>
</event>
<event>
 7    1  0.5206756E-006  0.1660577E+03  0.7546771E-02  0.1188965E+00
          2   -1    0    0  501    0  0.00000000000E+00  0.00000000000E+00  0.23128769530E+03  0.23128769530E+03  0.00000000000E+00 0.  1.
         -2   -1    0    0    0  501 -0.00000000000E+00 -0.00000000000E+00 -0.10422809259E+03  0.10422809259E+03  0.00000000000E+00 0. -1.
         23    2    1    2    0    0  0.10275294997E+03 -0.37428189552E+02  0.88219453894E+02  0.18803677165E+03  0.12496446434E+03 0.  0.
          5    1    3    3  502    0  0.49874824953E+01 -0.44796611657E+02  0.76861300802E+02  0.89226458848E+02  0.47000000000E+01 0. -1.
         -5    1    3    3    0  502  0.97765467471E+02  0.73684221053E+01  0.11358153092E+02  0.98810312801E+02  0.47000000000E+01 0. -1.
        -11    1    1    2    0    0 -0.78237037832E+02  0.10275012349E+02 -0.17002923554E+02  0.80719944108E+02  0.00000000000E+00 0. -1.
         11    1    1    2    0    0 -0.24515912134E+02  0.27153177203E+02  0.55843072373E+02  0.66759072133E+02  0.00000000000E+00 0.  1.
<mgrwt>
<rscale>  0 0.15976240E+03</rscale>
<asrwt>0</asrwt>
<pdfrwt beam="1">  1        2 0.35582722E-01 0.16605769E+03</pdfrwt>
<pdfrwt beam="2">  1       -2 0.16035091E-01 0.16605769E+03</pdfrwt>
<totfact> 0.43161491E+03</totfact>
</mgrwt>
</event>
<event>
 7    1  0.5206756E-006  0.1573108E+03  0.7546771E-02  0.1199779E+00
          2   -1    0    0  501    0  0.00000000000E+00  0.00000000000E+00  0.11414646062E+04  0.11414646062E+04  0.00000000000E+00 0. -1.
         -2   -1    0    0    0  501 -0.00000000000E+00 -0.00000000000E+00 -0.26853250087E+02  0.26853250087E+02  0.00000000000E+00 0.  1.
         23    2    1    2    0    0  0.30994719925E+01  0.95460057830E+02  0.91873207118E+03  0.93210262564E+03  0.12499782700E+03 0.  0.
          5    1    3    3  502    0 -0.50900460580E+02  0.21521914963E+02  0.20002929696E+03  0.20757615314E+03  0.47000000000E+01 0. -1.
         -5    1    3    3    0  502  0.53999932572E+02  0.73938142867E+02  0.71870277422E+03  0.72452647251E+03  0.47000000000E+01 0. -1.
        -11    1    1    2    0    0 -0.41924752869E+02 -0.71924667882E+02  0.99918353962E+02  0.13005583498E+03  0.00000000000E+00 0.  1.
         11    1    1    2    0    0  0.38825280877E+02 -0.23535389948E+02  0.95960930983E+02  0.10615939568E+03  0.00000000000E+00 0. -1.
<mgrwt>
<rscale>  0 0.15056630E+03</rscale>
<asrwt>0</asrwt>
<pdfrwt beam="1">  1        2 0.17560990E+00 0.15731079E+03</pdfrwt>
<pdfrwt beam="2">  1       -2 0.41312701E-02 0.15731079E+03</pdfrwt>
<totfact> 0.55552872E+03</totfact>
</mgrwt>
</event>
<event>
 6    1  0.5206756E-006  0.1946690E+03  0.7546771E-02  0.1176303E+00
          1   -1    0    0  501    0  0.00000000000E+00  0.00000000000E+00  0.65618599394E+03  0.65618599394E+03  0.00000000000E+00 0. -1.
         -1   -1    0    0    0  501 -0.00000000000E+00 -0.00000000000E+00 -0.57889986224E+02  0.57889986224E+02  0.00000000000E+00 0.  1.
          5    1    1    2  502    0 -0.32824849852E+02 -0.37649248200E+02  0.49853930545E+03  0.50105734775E+03  0.47000000000E+01 0. -1.
         -5    1    1    2    0  502 -0.39955165763E+02  0.53476352044E+02  0.58036093161E+02  0.88579984243E+02  0.47000000000E+01 0.  1.
        -11    1    1    2    0    0  0.71519404802E+02 -0.46167541394E+02  0.21006067181E+02  0.87679655565E+02  0.00000000000E+00 0.  1.
         11    1    1    2    0    0  0.12606108130E+01  0.30340437550E+02  0.20714541933E+02  0.36758992612E+02  0.00000000000E+00 0. -1.
<mgrwt>
<rscale>  0 0.17148974E+03</rscale>
<asrwt>0</asrwt>
<pdfrwt beam="1">  1        1 0.10095169E+00 0.19466897E+03</pdfrwt>
<pdfrwt beam="2">  1       -1 0.89061522E-02 0.19466897E+03</pdfrwt>
<totfact> 0.22418702E+03</totfact>
</mgrwt>
</event>
<event>
 7    1  0.5206756E-006  0.1308202E+03  0.7546771E-02  0.1242050E+00
          2   -1    0    0  501    0  0.00000000000E+00  0.00000000000E+00  0.38700085286E+03  0.38700085286E+03  0.00000000000E+00 0. -1.
         -2   -1    0    0    0  501 -0.00000000000E+00 -0.00000000000E+00 -0.32864482949E+02  0.32864482949E+02  0.00000000000E+00 0.  1.
         23    2    1    2    0    0 -0.20096466788E+02 -0.32922129984E+02  0.19838625793E+03  0.23763635448E+03  0.12500477996E+03 0.  0.
          5    1    3    3  502    0  0.51869945200E+01  0.46180759952E+02  0.85347169215E+02  0.97292326495E+02  0.47000000000E+01 0. -1.
         -5    1    3    3    0  502 -0.25283461308E+02 -0.79102889936E+02  0.11303908872E+03  0.14034402798E+03  0.47000000000E+01 0. -1.
        -11    1    1    2    0    0  0.17313989049E+02 -0.22204887675E+02  0.16972021497E+02  0.32876751164E+02  0.00000000000E+00 0.  1.
         11    1    1    2    0    0  0.27824777382E+01  0.55127017659E+02  0.13877809048E+03  0.14935223017E+03  0.00000000000E+00 0. -1.
<mgrwt>
<rscale>  0 0.12063680E+03</rscale>
<asrwt>0</asrwt>
<pdfrwt beam="1">  1        2 0.59538590E-01 0.13082022E+03</pdfrwt>
<pdfrwt beam="2">  1       -2 0.50560746E-02 0.13082022E+03</pdfrwt>
<totfact> 0.14967711E+04</totfact>
</mgrwt>
</event>
<event>
 7    1  0.5206756E-006  0.1373962E+03  0.7546771E-02  0.1230318E+00
         -3   -1    0    0    0  501 -0.00000000000E+00  0.00000000000E+00  0.13289916319E+03  0.13289916319E+03  0.00000000000E+00 0.  1.
          3   -1    0    0  501    0  0.00000000000E+00 -0.00000000000E+00 -0.10953977109E+03  0.10953977109E+03  0.00000000000E+00 0. -1.
         23    2    1    2    0    0  0.17408019443E+02  0.54317387050E+02  0.93660987919E+01  0.13771502408E+03  0.12499714547E+03 0.  0.
          5    1    3    3  502    0  0.45897865161E+02 -0.22888996674E+02 -0.11313186629E+02  0.52731379527E+02  0.47000000000E+01 0. -1.
         -5    1    3    3    0  502 -0.28489845718E+02  0.77206383724E+02  0.20679285420E+02  0.84983644558E+02  0.47000000000E+01 0. -1.
        -11    1    1    2    0    0 -0.38151811931E+02 -0.23791678852E+02 -0.24659730189E+02  0.51280669157E+02  0.00000000000E+00 0.  1.
         11    1    1    2    0    0  0.20743792488E+02 -0.30525708199E+02  0.38653023497E+02  0.53443241044E+02  0.00000000000E+00 0. -1.
<mgrwt>
<rscale>  0 0.12808975E+03</rscale>
<asrwt>0</asrwt>
<pdfrwt beam="2">  1        3 0.16852272E-01 0.13739616E+03</pdfrwt>
<pdfrwt beam="1">  1       -3 0.20446025E-01 0.13739616E+03</pdfrwt>
<totfact> 0.15070693E+03</totfact>
</mgrwt>
</event>
<event>
 7    1  0.8068006E-006  0.3062270E+03  0.7546771E-02  0.1083680E+00
          1   -1    0    0  501    0  0.00000000000E+00  0.00000000000E+00  0.59106016063E+03  0.59106016063E+03  0.00000000000E+00 0. -1.
         -1   -1    0    0    0  501 -0.00000000000E+00 -0.00000000000E+00 -0.15252569742E+03  0.15252569742E+03  0.00000000000E+00 0.  1.
         23    2    1    2    0    0 -0.21635972631E+03  0.17702604433E+03  0.23330931004E+03  0.38497820365E+03  0.12500092637E+03 0.  0.
          5    1    3    3  502    0 -0.11732220672E+03  0.15078840554E+03  0.20122225198E+03  0.27751419446E+03  0.47000000000E+01 0. -1.
         -5    1    3    3    0  502 -0.99037519588E+02  0.26237638784E+02  0.32087058058E+02  0.10746400918E+03  0.47000000000E+01 0. -1.
        -11    1    1    2    0    0  0.12030368107E+03 -0.10003230612E+03  0.58400481725E+02  0.16700315630E+03  0.00000000000E+00 0.  1.
         11    1    1    2    0    0  0.96056045238E+02 -0.76993738202E+02  0.14682467145E+03  0.19160449811E+03  0.00000000000E+00 0. -1.
<mgrwt>
<rscale>  0 0.30314359E+03</rscale>
<asrwt>0</asrwt>
<pdfrwt beam="1">  1        1 0.90932331E-01 0.30622701E+03</pdfrwt>
<pdfrwt beam="2">  1       -1 0.23465492E-01 0.30622701E+03</pdfrwt>
<totfact> 0.55785476E+02</totfact>
</mgrwt>
</event>
<event>
 7    1  0.5206756E-006  0.1652562E+03  0.7546771E-02  0.1189775E+00
          1   -1    0    0  501    0  0.00000000000E+00  0.00000000000E+00  0.72781196170E+03  0.72781196170E+03  0.00000000000E+00 0. -1.
         -1   -1    0    0    0  501 -0.00000000000E+00 -0.00000000000E+00 -0.38647533491E+02  0.38647533491E+02  0.00000000000E+00 0.  1.
         23    2    1    2    0    0  0.19670094339E+01  0.10808563474E+03  0.52054903790E+03  0.54615100697E+03  0.12499299178E+03 0.  0.
          5    1    3    3  502    0 -0.16332106484E+01 -0.71990123166E+01  0.27159319126E+03  0.27173414340E+03  0.47000000000E+01 0.  1.
         -5    1    3    3    0  502  0.36002200822E+01  0.11528464706E+03  0.24895584664E+03  0.27441686357E+03  0.47000000000E+01 0.  1.
        -11    1    1    2    0    0  0.10392500992E+02  0.67454044831E+01  0.61675078821E+02  0.62907232542E+02  0.00000000000E+00 0. -1.
         11    1    1    2    0    0 -0.12359510426E+02 -0.11483103923E+03  0.10694031149E+03  0.15740125568E+03  0.00000000000E+00 0.  1.
<mgrwt>
<rscale>  0 0.15904885E+03</rscale>
<asrwt>0</asrwt>
<pdfrwt beam="1">  1        1 0.11197106E+00 0.16525623E+03</pdfrwt>
<pdfrwt beam="2">  1       -1 0.59457749E-02 0.16525623E+03</pdfrwt>
<totfact> 0.35432988E+03</totfact>
</mgrwt>
</event>
<event>
 6    1  0.5206756E-006  0.3114445E+03  0.7546771E-02  0.1107819E+00
          1   -1    0    0  501    0  0.00000000000E+00  0.00000000000E+00  0.49650587531E+03  0.49650587531E+03  0.00000000000E+00 0. -1.
         -1   -1    0    0    0  501 -0.00000000000E+00 -0.00000000000E+00 -0.16917703659E+03  0.16917703659E+03  0.00000000000E+00 0.  1.
          5    1    1    2  502    0  0.11607363482E+03 -0.50404383055E+02  0.42280888750E+03  0.44136508230E+03  0.47000000000E+01 0. -1.
         -5    1    1    2    0  502  0.20138323459E+01  0.53979820140E+02 -0.28380461407E+02  0.61199812848E+02  0.47000000000E+01 0.  1.
        -11    1    1    2    0    0  0.71423610304E+01 -0.21051795940E+02 -0.96005396341E+01  0.24214908521E+02  0.00000000000E+00 0. -1.
         11    1    1    2    0    0 -0.12522982819E+03  0.17476358856E+02 -0.57499047734E+02  0.13890310824E+03  0.00000000000E+00 0.  1.
<mgrwt>
<rscale>  0 0.25887920E+03</rscale>
<asrwt>0</asrwt>
<pdfrwt beam="1">  1        1 0.76385519E-01 0.31144452E+03</pdfrwt>
<pdfrwt beam="2">  1       -1 0.26027237E-01 0.31144452E+03</pdfrwt>
<totfact> 0.59497025E+02</totfact>
</mgrwt>
</event>
<event>
 7    1  0.5206756E-006  0.2567115E+03  0.7546771E-02  0.1111272E+00
          2   -1    0    0  501    0  0.00000000000E+00  0.00000000000E+00  0.12612414337E+04  0.12612414337E+04  0.00000000000E+00 0.  1.
         -2   -1    0    0    0  501 -0.00000000000E+00 -0.00000000000E+00 -0.49543010963E+02  0.49543010963E+02  0.00000000000E+00 0. -1.
         23    2    1    2    0    0 -0.22373118541E+03 -0.14829723814E+02  0.60830994620E+03  0.66025887067E+03  0.12500088647E+03 0.  0.
          5    1    3    3  502    0 -0.54722700563E+01  0.23534711550E+02  0.13993195611E+03  0.14208050791E+03  0.47000000000E+01 0.  1.
         -5    1    3    3    0  502 -0.21825891535E+03 -0.38364435364E+02  0.46837799010E+03  0.51817836277E+03  0.47000000000E+01 0.  1.
        -11    1    1    2    0    0  0.15077564541E+03  0.78116014367E+01  0.50960828618E+03  0.53150251337E+03  0.00000000000E+00 0.  1.
         11    1    1    2    0    0  0.72955539992E+02  0.70181223775E+01  0.93780190329E+02  0.11902306060E+03  0.00000000000E+00 0. -1.
<mgrwt>
<rscale>  0 0.25324320E+03</rscale>
<asrwt>0</asrwt>
<pdfrwt beam="1">  1        2 0.19403712E+00 0.25671148E+03</pdfrwt>
<pdfrwt beam="2">  1       -2 0.76220026E-02 0.25671148E+03</pdfrwt>
<totfact> 0.18820573E+03</totfact>
</mgrwt>
</event>
<event>
 7    1  0.5206756E-006  0.3911481E+03  0.7546771E-02  0.1046889E+00
         -2   -1    0    0    0  501 -0.00000000000E+00  0.00000000000E+00  0.14195008774E+03  0.14195008774E+03  0.00000000000E+00 0.  1.
          2   -1    0    0  501    0  0.00000000000E+00 -0.00000000000E+00 -0.26945536428E+03  0.26945536428E+03  0.00000000000E+00 0. -1.
         23    2    1    2    0    0  0.56635812156E+02 -0.95706074720E+02 -0.82447453508E+02  0.18654493840E+03  0.12503664861E+03 0.  0.
          5    1    3    3  502    0 -0.18262790155E+02 -0.38431464962E+02  0.19985208746E+02  0.47244106215E+02  0.47000000000E+01 0. -1.
         -5    1    3    3    0  502  0.74898602311E+02 -0.57274609758E+02 -0.10243266225E+03  0.13930083218E+03  0.47000000000E+01 0. -1.
        -11    1    1    2    0    0 -0.73264343305E+02 -0.26102881164E+02  0.27038038937E+02  0.82341240909E+02  0.00000000000E+00 0.  1.
         11    1    1    2    0    0  0.16628531149E+02  0.12180895588E+03 -0.72095861964E+02  0.14251927271E+03  0.00000000000E+00 0. -1.
<mgrwt>
<rscale>  0 0.39114812E+03</rscale>
<asrwt>0</asrwt>
<pdfrwt beam="2">  1        2 0.41454671E-01 0.39114812E+03</pdfrwt>
<pdfrwt beam="1">  1       -2 0.21838475E-01 0.39114812E+03</pdfrwt>
<totfact> 0.22312522E+03</totfact>
</mgrwt>
</event>
<event>
 7    1  0.5206756E-006  0.1768821E+03  0.7546771E-02  0.1177253E+00
          2   -1    0    0  501    0  0.00000000000E+00  0.00000000000E+00  0.90356826041E+03  0.90356826041E+03  0.00000000000E+00 0. -1.
         -2   -1    0    0    0  501 -0.00000000000E+00 -0.00000000000E+00 -0.30360259809E+02  0.30360259809E+02  0.00000000000E+00 0.  1.
         23    2    1    2    0    0  0.12275266662E+03  0.24366652164E+02  0.51100018308E+03  0.54074805708E+03  0.12500129290E+03 0.  0.
          5    1    3    3  502    0  0.13717671997E+03  0.37588292178E+02  0.49496453848E+03  0.51501681192E+03  0.47000000000E+01 0. -1.
         -5    1    3    3    0  502 -0.14424053349E+02 -0.13221640014E+02  0.16035644607E+02  0.25731245163E+02  0.47000000000E+01 0. -1.
        -11    1    1    2    0    0 -0.41841375855E+02  0.27067685667E+02  0.72141150483E+02  0.87679563946E+02  0.00000000000E+00 0.  1.
         11    1    1    2    0    0 -0.80911290766E+02 -0.51434337831E+02  0.29006666704E+03  0.30550089919E+03  0.00000000000E+00 0. -1.
<mgrwt>
<rscale>  0 0.17057150E+03</rscale>
<asrwt>0</asrwt>
<pdfrwt beam="1">  1        2 0.13901048E+00 0.17688209E+03</pdfrwt>
<pdfrwt beam="2">  1       -2 0.46708099E-02 0.17688209E+03</pdfrwt>
<totfact> 0.64411316E+03</totfact>
</mgrwt>
</event>
<event>
 6    1  0.5206756E-006  0.3994028E+03  0.7546771E-02  0.1089218E+00
         -2   -1    0    0    0  501 -0.00000000000E+00  0.00000000000E+00  0.89579689617E+02  0.89579689617E+02  0.00000000000E+00 0.  1.
          2   -1    0    0  501    0  0.00000000000E+00 -0.00000000000E+00 -0.75915212942E+03  0.75915212942E+03  0.00000000000E+00 0. -1.
          5    1    1    2  502    0 -0.18257607065E+03  0.23666312623E+02 -0.36495791211E+03  0.40879149152E+03  0.47000000000E+01 0. -1.
         -5    1    1    2    0  502  0.19719703863E+03  0.43628935853E+02 -0.21117797336E+03  0.29224712577E+03  0.47000000000E+01 0.  1.
        -11    1    1    2    0    0 -0.86072677585E+01 -0.84716243894E+02 -0.96838591047E+02  0.12895208317E+03  0.00000000000E+00 0.  1.
         11    1    1    2    0    0 -0.60137002259E+01  0.17420995418E+02  0.34020367139E+01  0.18741118578E+02  0.00000000000E+00 0. -1.
<mgrwt>
<rscale>  0 0.29217718E+03</rscale>
<asrwt>0</asrwt>
<pdfrwt beam="2">  1        2 0.11679264E+00 0.39940278E+03</pdfrwt>
<pdfrwt beam="1">  1       -2 0.13781491E-01 0.39940278E+03</pdfrwt>
<totfact> 0.14959724E+03</totfact>
</mgrwt>
</event>
<event>
 7    1  0.5206756E-006  0.1693315E+03  0.7546771E-02  0.1185267E+00
          2   -1    0    0  501    0  0.00000000000E+00  0.00000000000E+00  0.37344880170E+03  0.37344880170E+03  0.00000000000E+00 0. -1.
         -2   -1    0    0    0  501 -0.00000000000E+00 -0.00000000000E+00 -0.76956815484E+02  0.76956815484E+02  0.00000000000E+00 0.  1.
         23    2    1    2    0    0 -0.22212698504E+02 -0.11187993417E+03  0.24098210766E+03  0.29452594926E+03  0.12515044919E+03 0.  0.
          5    1    3    3  502    0  0.37550836726E+02  0.66987025753E+00  0.31312532103E+02  0.49123097741E+02  0.47000000000E+01 0. -1.
         -5    1    3    3    0  502 -0.59763535231E+02 -0.11254980443E+03  0.20966957556E+03  0.24540285152E+03  0.47000000000E+01 0. -1.
        -11    1    1    2    0    0  0.38054250369E+01  0.61714206858E+02 -0.18550361579E+02  0.64554167197E+02  0.00000000000E+00 0.  1.
         11    1    1    2    0    0  0.18407273468E+02  0.50165727316E+02  0.74060240135E+02  0.91325500724E+02  0.00000000000E+00 0. -1.
<mgrwt>
<rscale>  0 0.16307566E+03</rscale>
<asrwt>0</asrwt>
<pdfrwt beam="1">  1        2 0.57453661E-01 0.16933150E+03</pdfrwt>
<pdfrwt beam="2">  1       -2 0.11839510E-01 0.16933150E+03</pdfrwt>
<totfact> 0.42397368E+03</totfact>
</mgrwt>
</event>
<event>
 7    1  0.5206756E-006  0.1466774E+03  0.7546771E-02  0.1214207E+00
         -2   -1    0    0    0  501 -0.00000000000E+00  0.00000000000E+00  0.41359256178E+03  0.41359256178E+03  0.00000000000E+00 0.  1.
          2   -1    0    0  501    0  0.00000000000E+00 -0.00000000000E+00 -0.47028237916E+02  0.47028237916E+02  0.00000000000E+00 0. -1.
         23    2    1    2    0    0 -0.70989267630E+02 -0.29194537708E+02  0.13178887533E+03  0.19718663924E+03  0.12498986312E+03 0.  0.
          5    1    3    3  502    0 -0.60308972977E+02 -0.73764653980E+02  0.62742060747E+02  0.11417991323E+03  0.47000000000E+01 0.  1.
         -5    1    3    3    0  502 -0.10680294653E+02  0.44570116272E+02  0.69046814587E+02  0.83006726010E+02  0.47000000000E+01 0.  1.
        -11    1    1    2    0    0  0.43970635279E+02  0.50125775601E+02  0.76364907428E+02  0.10137854424E+03  0.00000000000E+00 0. -1.
         11    1    1    2    0    0  0.27018632350E+02 -0.20931237893E+02  0.15841054110E+03  0.16205561621E+03  0.00000000000E+00 0.  1.
<mgrwt>
<rscale>  0 0.13934970E+03</rscale>
<asrwt>0</asrwt>
<pdfrwt beam="2">  1        2 0.72351138E-02 0.14667741E+03</pdfrwt>
<pdfrwt beam="1">  1       -2 0.63629623E-01 0.14667741E+03</pdfrwt>
<totfact> 0.21876538E+03</totfact>
</mgrwt>
</event>
<event>
 7    1  0.5206756E-006  0.1382085E+03  0.7546771E-02  0.1227915E+00
          1   -1    0    0  501    0  0.00000000000E+00  0.00000000000E+00  0.13289189864E+03  0.13289189864E+03  0.00000000000E+00 0. -1.
         -1   -1    0    0    0  501 -0.00000000000E+00 -0.00000000000E+00 -0.11350000590E+03  0.11350000590E+03  0.00000000000E+00 0.  1.
         23    2    1    2    0    0 -0.54178712518E+02  0.23261397077E+02  0.16537170301E+02  0.13919439915E+03  0.12500070907E+03 0.  0.
          5    1    3    3  502    0 -0.62746842142E+02  0.24613114752E+02 -0.42182387681E+02  0.79651838944E+02  0.47000000000E+01 0.  1.
         -5    1    3    3    0  502  0.85681296242E+01 -0.13517176756E+01  0.58719557983E+02  0.59542560204E+02  0.47000000000E+01 0.  1.
        -11    1    1    2    0    0  0.43052958119E+02  0.14668914754E+02  0.34071089280E+02  0.56829335625E+02  0.00000000000E+00 0. -1.
         11    1    1    2    0    0  0.11125754399E+02 -0.37930311831E+02 -0.31216366840E+02  0.50368169762E+02  0.00000000000E+00 0.  1.
<mgrwt>
<rscale>  0 0.12969070E+03</rscale>
<asrwt>0</asrwt>
<pdfrwt beam="1">  1        1 0.20444908E-01 0.13820855E+03</pdfrwt>
<pdfrwt beam="2">  1       -1 0.17461539E-01 0.13820855E+03</pdfrwt>
<totfact> 0.59471018E+03</totfact>
</mgrwt>
</event>
<event>
 7    1  0.5206756E-006  0.1469278E+03  0.7546771E-02  0.1219232E+00
         -1   -1    0    0    0  501 -0.00000000000E+00  0.00000000000E+00  0.45856009400E+03  0.45856009400E+03  0.00000000000E+00 0.  1.
          1   -1    0    0  501    0  0.00000000000E+00 -0.00000000000E+00 -0.37923480761E+02  0.37923480761E+02  0.00000000000E+00 0. -1.
         23    2    1    2    0    0 -0.76198857384E+02 -0.12459938707E+02  0.30762782432E+03  0.34091444665E+03  0.12500506270E+03 0.  0.
          5    1    3    3  502    0  0.29761258145E+01 -0.56067883295E+02  0.11284932448E+03  0.12613296515E+03  0.47000000000E+01 0. -1.
         -5    1    3    3    0  502 -0.79174983199E+02  0.43607944588E+02  0.19477849984E+03  0.21478148150E+03  0.47000000000E+01 0. -1.
        -11    1    1    2    0    0  0.23107268230E+02 -0.13790771709E+02  0.86667004243E+02  0.90748558412E+02  0.00000000000E+00 0.  1.
         11    1    1    2    0    0  0.53091589154E+02  0.26250710417E+02  0.26341784679E+02  0.64820569701E+02  0.00000000000E+00 0. -1.
<mgrwt>
<rscale>  0 0.13570237E+03</rscale>
<asrwt>0</asrwt>
<pdfrwt beam="2">  1        1 0.58343820E-02 0.14692781E+03</pdfrwt>
<pdfrwt beam="1">  1       -1 0.70547703E-01 0.14692781E+03</pdfrwt>
<totfact> 0.27489090E+03</totfact>
</mgrwt>
</event>
<event>
 7    1  0.5206756E-006  0.3406760E+03  0.7546771E-02  0.1067716E+00
          1   -1    0    0  501    0  0.00000000000E+00  0.00000000000E+00  0.27728751031E+03  0.27728751031E+03  0.00000000000E+00 0. -1.
         -1   -1    0    0    0  501 -0.00000000000E+00 -0.00000000000E+00 -0.41162512017E+03  0.41162512017E+03  0.00000000000E+00 0.  1.
         23    2    1    2    0    0  0.64872102415E+02  0.31020538806E+03 -0.24392217710E+02  0.34154809647E+03  0.12499739783E+03 0.  0.
          5    1    3    3  502    0  0.13095995612E+02 -0.84681937500E+01  0.57132137034E+01  0.17261118657E+02  0.47000000000E+01 0.  1.
         -5    1    3    3    0  502  0.51776106803E+02  0.31867358181E+03 -0.30105431413E+02  0.32428697781E+03  0.47000000000E+01 0.  1.
        -11    1    1    2    0    0  0.21114267749E+02 -0.10000643385E+03 -0.39584563241E+02  0.10960856153E+03  0.00000000000E+00 0. -1.
         11    1    1    2    0    0 -0.85986370163E+02 -0.21019895421E+03 -0.70360828902E+02  0.23775597248E+03  0.00000000000E+00 0.  1.
<mgrwt>
<rscale>  0 0.33784845E+03</rscale>
<asrwt>0</asrwt>
<pdfrwt beam="1">  1        1 0.42659617E-01 0.34067598E+03</pdfrwt>
<pdfrwt beam="2">  1       -1 0.63326941E-01 0.34067598E+03</pdfrwt>
<totfact> 0.25379133E+02</totfact>
</mgrwt>
</event>
<event>
 7    1  0.5206756E-006  0.1316791E+03  0.7546771E-02  0.1237925E+00
         -1   -1    0    0    0  501 -0.00000000000E+00  0.00000000000E+00  0.26720338066E+03  0.26720338066E+03  0.00000000000E+00 0.  1.
          1   -1    0    0  501    0  0.00000000000E+00 -0.00000000000E+00 -0.51614502722E+02  0.51614502722E+02  0.00000000000E+00 0. -1.
         23    2    1    2    0    0 -0.16074931437E+02  0.38202535414E+02  0.99603622674E+02  0.16510683464E+03  0.12498619148E+03 0.  0.
          5    1    3    3  502    0  0.15012826587E+02 -0.34137810109E+02  0.72567330290E+02  0.81724430047E+02  0.47000000000E+01 0.  1.
         -5    1    3    3    0  502 -0.31087758024E+02  0.72340345522E+02  0.27036292384E+02  0.83382404590E+02  0.47000000000E+01 0.  1.
        -11    1    1    2    0    0  0.32709464260E+02 -0.43001768927E+02  0.22316715583E+02  0.58455940481E+02  0.00000000000E+00 0. -1.
         11    1    1    2    0    0 -0.16634532823E+02  0.47992335138E+01  0.93668539683E+02  0.95255108267E+02  0.00000000000E+00 0.  1.
<mgrwt>
<rscale>  0 0.12319038E+03</rscale>
<asrwt>0</asrwt>
<pdfrwt beam="2">  1        1 0.79406928E-02 0.13167910E+03</pdfrwt>
<pdfrwt beam="1">  1       -1 0.41108212E-01 0.13167910E+03</pdfrwt>
<totfact> 0.49170858E+03</totfact>
</mgrwt>
</event>
<event>
 7    1  0.5206756E-006  0.1471775E+03  0.7546771E-02  0.1213968E+00
          1   -1    0    0  501    0  0.00000000000E+00  0.00000000000E+00  0.63097576078E+03  0.63097576078E+03  0.00000000000E+00 0. -1.
         -1   -1    0    0    0  501 -0.00000000000E+00 -0.00000000000E+00 -0.37021325295E+02  0.37021325295E+02  0.00000000000E+00 0.  1.
         23    2    1    2    0    0  0.51680475330E+02  0.57959195158E+02  0.48465814387E+03  0.50651231377E+03  0.12502426866E+03 0.  0.
          5    1    3    3  502    0  0.61284945543E+02 -0.22908185118E+02  0.21911822765E+03  0.22872585596E+03  0.47000000000E+01 0. -1.
         -5    1    3    3    0  502 -0.96044702135E+01  0.80867380276E+02  0.26553991622E+03  0.27778645781E+03  0.47000000000E+01 0.  1.
        -11    1    1    2    0    0 -0.33108861610E+02 -0.35791493072E+02  0.12087182811E+03  0.13033505486E+03  0.00000000000E+00 0.  1.
         11    1    1    2    0    0 -0.18571613720E+02 -0.22167702086E+02 -0.11575536491E+02  0.31149717446E+02  0.00000000000E+00 0. -1.
<mgrwt>
<rscale>  0 0.13952599E+03</rscale>
<asrwt>0</asrwt>
<pdfrwt beam="1">  1        1 0.97073186E-01 0.14717747E+03</pdfrwt>
<pdfrwt beam="2">  1       -1 0.56955890E-02 0.14717747E+03</pdfrwt>
<totfact> 0.46072931E+03</totfact>
</mgrwt>
</event>
<event>
 7    1  0.5206756E-006  0.1401043E+03  0.7546771E-02  0.1223970E+00
         -2   -1    0    0    0  501 -0.00000000000E+00  0.00000000000E+00  0.59099141383E+02  0.59099141383E+02  0.00000000000E+00 0. -1.
          2   -1    0    0  501    0  0.00000000000E+00 -0.00000000000E+00 -0.47122079344E+03  0.47122079344E+03  0.00000000000E+00 0.  1.
         23    2    1    2    0    0 -0.38990113297E+02 -0.49836972170E+02 -0.39274965250E+03  0.41699101435E+03  0.12500105513E+03 0.  0.
          5    1    3    3  502    0  0.20561716939E+02  0.32276560509E+02 -0.10939037672E+03  0.11598665906E+03  0.47000000000E+01 0. -1.
         -5    1    3    3    0  502 -0.59551830236E+02 -0.82113532678E+02 -0.28335927578E+03  0.30100435529E+03  0.47000000000E+01 0. -1.
        -11    1    1    2    0    0  0.17874889998E+02  0.55485064102E+02 -0.49247521367E+02  0.76311351656E+02  0.00000000000E+00 0.  1.
         11    1    1    2    0    0  0.21115223299E+02 -0.56480919320E+01  0.29875521810E+02  0.37017568813E+02  0.00000000000E+00 0. -1.
<mgrwt>
<rscale>  0 0.13237743E+03</rscale>
<asrwt>0</asrwt>
<pdfrwt beam="2">  1        2 0.72495508E-01 0.14010431E+03</pdfrwt>
<pdfrwt beam="1">  1       -2 0.90921754E-02 0.14010431E+03</pdfrwt>
<totfact> 0.49617186E+03</totfact>
</mgrwt>
</event>
<event>
 7    1  0.5206756E-006  0.1350618E+03  0.7546771E-02  0.1235475E+00
          1   -1    0    0  501    0  0.00000000000E+00  0.00000000000E+00  0.82963429410E+03  0.82963429410E+03  0.00000000000E+00 0.  1.
         -1   -1    0    0    0  501 -0.00000000000E+00 -0.00000000000E+00 -0.17958769726E+02  0.17958769726E+02  0.00000000000E+00 0. -1.
         23    2    1    2    0    0 -0.35596249626E+01  0.51044691230E+02  0.58747117462E+03  0.60279686277E+03  0.12499378116E+03 0.  0.
          5    1    3    3  502    0  0.17308085260E+02  0.61373391844E+02  0.13163790512E+03  0.14634510960E+03  0.47000000000E+01 0.  1.
         -5    1    3    3    0  502 -0.20867710222E+02 -0.10328700614E+02  0.45583326950E+03  0.45645175317E+03  0.47000000000E+01 0.  1.
        -11    1    1    2    0    0 -0.23117534883E+02 -0.23164231074E+02  0.23184832119E+02  0.40106588745E+02  0.00000000000E+00 0. -1.
         11    1    1    2    0    0  0.26677159846E+02 -0.27880460156E+02  0.20101951763E+03  0.20468961231E+03  0.00000000000E+00 0.  1.
<mgrwt>
<rscale>  0 0.12474061E+03</rscale>
<asrwt>0</asrwt>
<pdfrwt beam="1">  1        1 0.12763602E+00 0.13506175E+03</pdfrwt>
<pdfrwt beam="2">  1       -1 0.27628883E-02 0.13506175E+03</pdfrwt>
<totfact> 0.89280483E+03</totfact>
</mgrwt>
</event>
<event>
 7    1  0.5206756E-006  0.1306333E+03  0.7546771E-02  0.1234667E+00
          3   -1    0    0  501    0  0.00000000000E+00  0.00000000000E+00  0.19920938234E+03  0.19920938234E+03  0.00000000000E+00 0. -1.
         -3   -1    0    0    0  501 -0.00000000000E+00 -0.00000000000E+00 -0.76729447028E+02  0.76729447028E+02  0.00000000000E+00 0.  1.
         23    2    1    2    0    0 -0.37023759719E+02 -0.82981063704E+01  0.96746178884E+02  0.16255732420E+03  0.12500177267E+03 0.  0.
          5    1    3    3  502    0 -0.59499062749E+02  0.22096351720E+02  0.10574151454E+03  0.12341695639E+03  0.47000000000E+01 0.  1.
         -5    1    3    3    0  502  0.22475303030E+02 -0.30394458091E+02 -0.89953356581E+01  0.39140367813E+02  0.47000000000E+01 0.  1.
        -11    1    1    2    0    0 -0.11253073832E+02  0.39353923253E+02 -0.14344122077E+02  0.43371843219E+02  0.00000000000E+00 0.  1.
         11    1    1    2    0    0  0.48276833550E+02 -0.31055816882E+02  0.40077878502E+02  0.70009661941E+02  0.00000000000E+00 0. -1.
<mgrwt>
<rscale>  0 0.12525783E+03</rscale>
<asrwt>0</asrwt>
<pdfrwt beam="1">  1        3 0.30647597E-01 0.13063331E+03</pdfrwt>
<pdfrwt beam="2">  1       -3 0.11804530E-01 0.13063331E+03</pdfrwt>
<totfact> 0.13175548E+03</totfact>
</mgrwt>
</event>
<event>
 7    1  0.5206756E-006  0.2292669E+03  0.7546771E-02  0.1130045E+00
          2   -1    0    0  501    0  0.00000000000E+00  0.00000000000E+00  0.18598929443E+03  0.18598929443E+03  0.00000000000E+00 0. -1.
         -2   -1    0    0    0  501 -0.00000000000E+00 -0.00000000000E+00 -0.26536198099E+03  0.26536198099E+03  0.00000000000E+00 0.  1.
         23    2    1    2    0    0  0.18588524987E+03  0.48858289254E+02 -0.22447643301E+02  0.23036317405E+03  0.12499134658E+03 0.  0.
          5    1    3    3  502    0  0.72817600207E+02 -0.19338936470E+02 -0.56061402119E+02  0.94028549767E+02  0.47000000000E+01 0. -1.
         -5    1    3    3    0  502  0.11306764966E+03  0.68197225724E+02  0.33613758818E+02  0.13633462428E+03  0.47000000000E+01 0. -1.
        -11    1    1    2    0    0 -0.48357774347E+02 -0.47651709631E+02  0.89761499300E+01  0.68481610949E+02  0.00000000000E+00 0. -1.
         11    1    1    2    0    0 -0.13752747552E+03 -0.12065796227E+01 -0.65901193192E+02  0.15250649042E+03  0.00000000000E+00 0.  1.
<mgrwt>
<rscale>  0 0.22522726E+03</rscale>
<asrwt>0</asrwt>
<pdfrwt beam="1">  1        2 0.28613738E-01 0.22926686E+03</pdfrwt>
<pdfrwt beam="2">  1       -2 0.40824920E-01 0.22926686E+03</pdfrwt>
<totfact> 0.10559729E+03</totfact>
</mgrwt>
</event>
<event>
 7    1  0.5206756E-006  0.1338126E+03  0.7546771E-02  0.1234259E+00
          1   -1    0    0  501    0  0.00000000000E+00  0.00000000000E+00  0.74358704877E+03  0.74358704877E+03  0.00000000000E+00 0. -1.
         -1   -1    0    0    0  501 -0.00000000000E+00 -0.00000000000E+00 -0.19123417335E+02  0.19123417335E+02  0.00000000000E+00 0.  1.
         23    2    1    2    0    0  0.94263244906E+00  0.47750737234E+02  0.44390591652E+03  0.46363593556E+03  0.12499918626E+03 0.  0.
          5    1    3    3  502    0  0.20188637020E+02 -0.32279040497E+02  0.61811658166E+02  0.72748117538E+02  0.47000000000E+01 0.  1.
         -5    1    3    3    0  502 -0.19246004571E+02  0.80029777731E+02  0.38209425835E+03  0.39088781803E+03  0.47000000000E+01 0.  1.
        -11    1    1    2    0    0  0.20644416519E+02 -0.56761572766E+02  0.26294580898E+03  0.26979356282E+03  0.00000000000E+00 0. -1.
         11    1    1    2    0    0 -0.21587048968E+02  0.90108355321E+01  0.17611905936E+02  0.29280967724E+02  0.00000000000E+00 0.  1.
<mgrwt>
<rscale>  0 0.12551992E+03</rscale>
<asrwt>0</asrwt>
<pdfrwt beam="1">  1        1 0.11439799E+00 0.13381262E+03</pdfrwt>
<pdfrwt beam="2">  1       -1 0.29420648E-02 0.13381262E+03</pdfrwt>
<totfact> 0.95924096E+03</totfact>
</mgrwt>
</event>
<event>
 7    1  0.5206756E-006  0.1320749E+03  0.7546771E-02  0.1238414E+00
          1   -1    0    0  501    0  0.00000000000E+00  0.00000000000E+00  0.61740781326E+03  0.61740781326E+03  0.00000000000E+00 0. -1.
         -1   -1    0    0    0  501 -0.00000000000E+00 -0.00000000000E+00 -0.21676403814E+02  0.21676403814E+02  0.00000000000E+00 0.  1.
         23    2    1    2    0    0 -0.43186711600E+02 -0.19024601410E+01  0.35714206462E+03  0.38078107485E+03  0.12480008503E+03 0.  0.
          5    1    3    3  502    0  0.72849454188E+01 -0.41210481916E+00  0.31422923569E+03  0.31434907798E+03  0.47000000000E+01 0. -1.
         -5    1    3    3    0  502 -0.50471657019E+02 -0.14903553218E+01  0.42912828931E+02  0.66431996870E+02  0.47000000000E+01 0. -1.
        -11    1    1    2    0    0 -0.44799019695E+01 -0.37108217192E+02  0.90412090977E+02  0.97833713513E+02  0.00000000000E+00 0.  1.
         11    1    1    2    0    0  0.47666613570E+02  0.39010677333E+02  0.14817725385E+03  0.16046942872E+03  0.00000000000E+00 0. -1.
<mgrwt>
<rscale>  0 0.12288369E+03</rscale>
<asrwt>0</asrwt>
<pdfrwt beam="1">  1        1 0.94985804E-01 0.13207488E+03</pdfrwt>
<pdfrwt beam="2">  1       -1 0.33348318E-02 0.13207488E+03</pdfrwt>
<totfact> 0.10384800E+04</totfact>
</mgrwt>
</event>
<event>
 7    1  0.5206756E-006  0.1257099E+03  0.7546771E-02  0.1249828E+00
         -3   -1    0    0    0  501 -0.00000000000E+00  0.00000000000E+00  0.35392871320E+03  0.35392871320E+03  0.00000000000E+00 0.  1.
          3   -1    0    0  501    0  0.00000000000E+00 -0.00000000000E+00 -0.38572405775E+02  0.38572405775E+02  0.00000000000E+00 0. -1.
         23    2    1    2    0    0  0.20182753110E+01 -0.13229989544E+02  0.10704768335E+03  0.16511264410E+03  0.12499549060E+03 0.  0.
          5    1    3    3  502    0  0.32632905846E+02  0.47215837343E+02  0.44459093478E+02  0.72752613925E+02  0.47000000000E+01 0. -1.
         -5    1    3    3    0  502 -0.30614630535E+02 -0.60445826888E+02  0.62588589876E+02  0.92360030173E+02  0.47000000000E+01 0. -1.
        -11    1    1    2    0    0 -0.36605556159E+02  0.16992093767E+02  0.45132244228E+02  0.60544342935E+02  0.00000000000E+00 0. -1.
         11    1    1    2    0    0  0.34587280848E+02 -0.37621042233E+01  0.16317637984E+03  0.16684413194E+03  0.00000000000E+00 0.  1.
<mgrwt>
<rscale>  0 0.11601044E+03</rscale>
<asrwt>0</asrwt>
<pdfrwt beam="2">  1        3 0.59342165E-02 0.12570990E+03</pdfrwt>
<pdfrwt beam="1">  1       -3 0.54450569E-01 0.12570990E+03</pdfrwt>
<totfact> 0.13230654E+03</totfact>
</mgrwt>
</event>
<event>
 7    1  0.5206756E-006  0.1991092E+03  0.7546771E-02  0.1155181E+00
          2   -1    0    0  501    0  0.00000000000E+00  0.00000000000E+00  0.56626345743E+03  0.56626345743E+03  0.00000000000E+00 0. -1.
         -2   -1    0    0    0  501 -0.00000000000E+00 -0.00000000000E+00 -0.62914673289E+02  0.62914673289E+02  0.00000000000E+00 0.  1.
         23    2    1    2    0    0 -0.10590199245E+02  0.15461898338E+03  0.25781316627E+03  0.32574852169E+03  0.12500115335E+03 0.  0.
          5    1    3    3  502    0  0.39620995399E+02  0.57575179312E+02  0.17520947956E+03  0.18869333925E+03  0.47000000000E+01 0.  1.
         -5    1    3    3    0  502 -0.50211194644E+02  0.97043804072E+02  0.82603686713E+02  0.13705518244E+03  0.47000000000E+01 0.  1.
        -11    1    1    2    0    0  0.23268380978E+02 -0.33407757195E+02  0.16384689707E+02  0.43885690731E+02  0.00000000000E+00 0.  1.
         11    1    1    2    0    0 -0.12678181732E+02 -0.12121122619E+03  0.22915092816E+03  0.25954391829E+03  0.00000000000E+00 0. -1.
<mgrwt>
<rscale>  0 0.19368268E+03</rscale>
<asrwt>0</asrwt>
<pdfrwt beam="1">  1        2 0.87117452E-01 0.19910919E+03</pdfrwt>
<pdfrwt beam="2">  1       -2 0.96791809E-02 0.19910919E+03</pdfrwt>
<totfact> 0.37214656E+03</totfact>
</mgrwt>
</event>
<event>
 7    1  0.5206756E-006  0.2322285E+03  0.7546771E-02  0.1127981E+00
          1   -1    0    0  501    0  0.00000000000E+00  0.00000000000E+00  0.99711977076E+02  0.99711977076E+02  0.00000000000E+00 0. -1.
         -1   -1    0    0    0  501 -0.00000000000E+00 -0.00000000000E+00 -0.51721398478E+03  0.51721398478E+03  0.00000000000E+00 0.  1.
         23    2    1    2    0    0  0.98862837404E+02  0.16891377098E+03 -0.26512381800E+03  0.35244961426E+03  0.12499747626E+03 0.  0.
          5    1    3    3  502    0  0.69843401581E+02  0.12607038507E+03 -0.90471784385E+02  0.17023241908E+03  0.47000000000E+01 0. -1.
         -5    1    3    3    0  502  0.29019435824E+02  0.42843385909E+02 -0.17465203361E+03  0.18221719517E+03  0.47000000000E+01 0. -1.
        -11    1    1    2    0    0 -0.72874176086E+02 -0.58440121266E+02 -0.10755274743E+03  0.14245520978E+03  0.00000000000E+00 0. -1.
         11    1    1    2    0    0 -0.25988661318E+02 -0.11047364972E+03 -0.44825442269E+02  0.12202113781E+03  0.00000000000E+00 0.  1.
<mgrwt>
<rscale>  0 0.22810487E+03</rscale>
<asrwt>0</asrwt>
<pdfrwt beam="1">  1        1 0.15340304E-01 0.23222853E+03</pdfrwt>
<pdfrwt beam="2">  1       -1 0.79571381E-01 0.23222853E+03</pdfrwt>
<totfact> 0.59730383E+02</totfact>
</mgrwt>
</event>
<event>
 7    1  0.5206756E-006  0.2593409E+03  0.7546771E-02  0.1109149E+00
          2   -1    0    0  501    0  0.00000000000E+00  0.00000000000E+00  0.12012337110E+04  0.12012337110E+04  0.00000000000E+00 0. -1.
         -2   -1    0    0    0  501 -0.00000000000E+00 -0.00000000000E+00 -0.95396261977E+02  0.95396261977E+02  0.00000000000E+00 0.  1.
         23    2    1    2    0    0 -0.11288577035E+03  0.19720145373E+03  0.98758714942E+03  0.10210710379E+04  0.12500430520E+03 0.  0.
          5    1    3    3  502    0 -0.88684992289E+02  0.72554876009E+02  0.28715674463E+03  0.30920919113E+03  0.47000000000E+01 0.  1.
         -5    1    3    3    0  502 -0.24200778064E+02  0.12464657773E+03  0.70043040479E+03  0.71186184682E+03  0.47000000000E+01 0.  1.
        -11    1    1    2    0    0  0.13011572457E+03 -0.17025940675E+03  0.11557581390E+03  0.24346690971E+03  0.00000000000E+00 0. -1.
         11    1    1    2    0    0 -0.17229954216E+02 -0.26942046988E+02  0.26744857430E+01  0.32092025368E+02  0.00000000000E+00 0.  1.
<mgrwt>
<rscale>  0 0.25668946E+03</rscale>
<asrwt>0</asrwt>
<pdfrwt beam="1">  1        2 0.18480518E+00 0.25934087E+03</pdfrwt>
<pdfrwt beam="2">  1       -2 0.14676349E-01 0.25934087E+03</pdfrwt>
<totfact> 0.71119889E+02</totfact>
</mgrwt>
</event>
<event>
 7    1  0.5206756E-006  0.1584528E+03  0.7546771E-02  0.1198182E+00
          2   -1    0    0  501    0  0.00000000000E+00  0.00000000000E+00  0.71004898272E+03  0.71004898272E+03  0.00000000000E+00 0. -1.
         -2   -1    0    0    0  501 -0.00000000000E+00 -0.00000000000E+00 -0.30100770179E+02  0.30100770179E+02  0.00000000000E+00 0.  1.
         23    2    1    2    0    0  0.26942657142E+02 -0.93582405136E+02  0.38180204903E+03  0.41337646812E+03  0.12499490560E+03 0.  0.
          5    1    3    3  502    0  0.62790169217E+02 -0.99157741125E+02  0.32727370145E+03  0.34771400409E+03  0.47000000000E+01 0. -1.
         -5    1    3    3    0  502 -0.35847512075E+02  0.55753359891E+01  0.54528347571E+02  0.65662464028E+02  0.47000000000E+01 0. -1.
        -11    1    1    2    0    0 -0.55170877122E+02  0.71927196376E+02  0.15776278129E+03  0.18195175850E+03  0.00000000000E+00 0.  1.
         11    1    1    2    0    0  0.28228219980E+02  0.21655208760E+02  0.14038338223E+03  0.14482152629E+03  0.00000000000E+00 0. -1.
<mgrwt>
<rscale>  0 0.15187987E+03</rscale>
<asrwt>0</asrwt>
<pdfrwt beam="1">  1        2 0.10923829E+00 0.15845283E+03</pdfrwt>
<pdfrwt beam="2">  1       -2 0.46308883E-02 0.15845283E+03</pdfrwt>
<totfact> 0.87880038E+03</totfact>
</mgrwt>
</event>
<event>
 7    1  0.5206756E-006  0.1211185E+03  0.7546771E-02  0.1250632E+00
          1   -1    0    0  501    0  0.00000000000E+00  0.00000000000E+00  0.43531218800E+03  0.43531218800E+03  0.00000000000E+00 0. -1.
         -1   -1    0    0    0  501 -0.00000000000E+00 -0.00000000000E+00 -0.31932329883E+02  0.31932329883E+02  0.00000000000E+00 0.  1.
         23    2    1    2    0    0  0.33477006133E+02 -0.26858390299E+02  0.29837703403E+03  0.32202256742E+03  0.11325897944E+03 0.  0.
          5    1    3    3  502    0  0.41124013450E+02 -0.20880773600E+02  0.30556534352E+03  0.30906222731E+03  0.47000000000E+01 0. -1.
         -5    1    3    3    0  502 -0.76470073164E+01 -0.59776166983E+01 -0.71883094965E+01  0.12960340108E+02  0.47000000000E+01 0.  1.
        -11    1    1    2    0    0 -0.35696831541E+02 -0.11347496121E+02  0.99802358534E+02  0.10659990722E+03  0.00000000000E+00 0.  1.
         11    1    1    2    0    0  0.22198254074E+01  0.38205886420E+02  0.52004655500E+01  0.38622043238E+02  0.00000000000E+00 0. -1.
<mgrwt>
<rscale>  0 0.11554552E+03</rscale>
<asrwt>0</asrwt>
<pdfrwt beam="1">  1        1 0.66971102E-01 0.12111845E+03</pdfrwt>
<pdfrwt beam="2">  1       -1 0.49126664E-02 0.12111845E+03</pdfrwt>
<totfact> 0.92548510E+03</totfact>
</mgrwt>
</event>
<event>
 7    1  0.5206756E-006  0.1368116E+03  0.7546771E-02  0.1229834E+00
          1   -1    0    0  501    0  0.00000000000E+00  0.00000000000E+00  0.11367179026E+04  0.11367179026E+04  0.00000000000E+00 0. -1.
         -1   -1    0    0    0  501 -0.00000000000E+00 -0.00000000000E+00 -0.13362929913E+02  0.13362929913E+02  0.00000000000E+00 0.  1.
         23    2    1    2    0    0  0.61653993180E+01 -0.55261931440E+02  0.72638031844E+03  0.73915206669E+03  0.12500206981E+03 0.  0.
          5    1    3    3  502    0  0.60424184217E+02 -0.45219329951E+02  0.52005312756E+03  0.52552185047E+03  0.47000000000E+01 0. -1.
         -5    1    3    3    0  502 -0.54258784899E+02 -0.10042601489E+02  0.20632719088E+03  0.21363021622E+03  0.47000000000E+01 0. -1.
        -11    1    1    2    0    0 -0.58302251335E+01 -0.20337852518E+02  0.33103394701E+02  0.39286823629E+02  0.00000000000E+00 0.  1.
         11    1    1    2    0    0 -0.33517418455E+00  0.75599783957E+02  0.36387125954E+03  0.37164194219E+03  0.00000000000E+00 0. -1.
<mgrwt>
<rscale>  0 0.12841030E+03</rscale>
<asrwt>0</asrwt>
<pdfrwt beam="1">  1        1 0.17487960E+00 0.13681159E+03</pdfrwt>
<pdfrwt beam="2">  1       -1 0.20558363E-02 0.13681159E+03</pdfrwt>
<totfact> 0.81161876E+03</totfact>
</mgrwt>
</event>
<event>
 7    1  0.5206756E-006  0.1285572E+03  0.7546771E-02  0.1259258E+00
         -1   -1    0    0    0  501 -0.00000000000E+00  0.00000000000E+00  0.67220409482E+02  0.67220409482E+02  0.00000000000E+00 0.  1.
          1   -1    0    0  501    0  0.00000000000E+00 -0.00000000000E+00 -0.15432673266E+03  0.15432673266E+03  0.00000000000E+00 0. -1.
         23    2    1    2    0    0 -0.13183578744E+02 -0.26965314541E+02 -0.77701806898E+02  0.15021495922E+03  0.12500411289E+03 0.  0.
          5    1    3    3  502    0 -0.28192730514E+02 -0.51880708389E+02  0.78321512093E+01  0.59748393696E+02  0.47000000000E+01 0. -1.
         -5    1    3    3    0  502  0.15009151770E+02  0.24915393848E+02 -0.85533958107E+02  0.90466565520E+02  0.47000000000E+01 0. -1.
        -11    1    1    2    0    0 -0.17588860165E+02  0.34595708318E+02 -0.25401301590E+01  0.38893229451E+02  0.00000000000E+00 0. -1.
         11    1    1    2    0    0  0.30772438908E+02 -0.76303937774E+01 -0.68643861179E+01  0.32438953472E+02  0.00000000000E+00 0.  1.
<mgrwt>
<rscale>  0 0.11071128E+03</rscale>
<asrwt>0</asrwt>
<pdfrwt beam="2">  1        1 0.23742574E-01 0.12855724E+03</pdfrwt>
<pdfrwt beam="1">  1       -1 0.10341602E-01 0.12855724E+03</pdfrwt>
<totfact> 0.11057078E+04</totfact>
</mgrwt>
</event>
<event>
 7    1  0.5206756E-006  0.1384948E+03  0.7546771E-02  0.1226729E+00
         -2   -1    0    0    0  501 -0.00000000000E+00  0.00000000000E+00  0.63241604065E+03  0.63241604065E+03  0.00000000000E+00 0.  1.
          2   -1    0    0  501    0  0.00000000000E+00 -0.00000000000E+00 -0.24972041442E+02  0.24972041442E+02  0.00000000000E+00 0. -1.
         23    2    1    2    0    0 -0.54398695919E+02 -0.24441922259E+02  0.39441907146E+03  0.41802778280E+03  0.12499679028E+03 0.  0.
          5    1    3    3  502    0 -0.17458884574E+02 -0.43646465080E+02  0.42263849155E+02  0.63388875285E+02  0.47000000000E+01 0.  1.
         -5    1    3    3    0  502 -0.36939811346E+02  0.19204542821E+02  0.35215522231E+03  0.35463890752E+03  0.47000000000E+01 0.  1.
        -11    1    1    2    0    0  0.42935049151E+02  0.58569700622E+02  0.15314260783E+03  0.16948889819E+03  0.00000000000E+00 0.  1.
         11    1    1    2    0    0  0.11463646768E+02 -0.34127778363E+02  0.59882319921E+02  0.69871401104E+02  0.00000000000E+00 0. -1.
<mgrwt>
<rscale>  0 0.13049119E+03</rscale>
<asrwt>0</asrwt>
<pdfrwt beam="2">  1        2 0.38418530E-02 0.13849485E+03</pdfrwt>
<pdfrwt beam="1">  1       -2 0.97294764E-01 0.13849485E+03</pdfrwt>
<totfact> 0.19667172E+03</totfact>
</mgrwt>
</event>
<event>
 7    1  0.5206756E-006  0.1659705E+03  0.7546771E-02  0.1189049E+00
          1   -1    0    0  501    0  0.00000000000E+00  0.00000000000E+00  0.16678701673E+03  0.16678701673E+03  0.00000000000E+00 0. -1.
         -1   -1    0    0    0  501 -0.00000000000E+00 -0.00000000000E+00 -0.16252440856E+03  0.16252440856E+03  0.00000000000E+00 0.  1.
         23    2    1    2    0    0 -0.49250266723E+02 -0.97446972915E+02  0.60089029331E+02  0.17651313087E+03  0.12499877048E+03 0.  0.
          5    1    3    3  502    0 -0.22130919083E+01 -0.66351130598E+02 -0.27684576968E+02  0.72082564531E+02  0.47000000000E+01 0. -1.
         -5    1    3    3    0  502 -0.47037174815E+02 -0.31095842317E+02  0.87773606299E+02  0.10443056634E+03  0.47000000000E+01 0. -1.
        -11    1    1    2    0    0 -0.24004278468E+02  0.95639250336E+01 -0.82102079171E+00  0.25852429711E+02  0.00000000000E+00 0.  1.
         11    1    1    2    0    0  0.73254545191E+02  0.87883047882E+02 -0.55005400363E+02  0.12694586470E+03  0.00000000000E+00 0. -1.
<mgrwt>
<rscale>  0 0.15968883E+03</rscale>
<asrwt>0</asrwt>
<pdfrwt beam="1">  1        1 0.25659541E-01 0.16597046E+03</pdfrwt>
<pdfrwt beam="2">  1       -1 0.25003755E-01 0.16597046E+03</pdfrwt>
<totfact> 0.25205201E+03</totfact>
</mgrwt>
</event>
<event>
 7    1  0.5206756E-006  0.1284716E+03  0.7546771E-02  0.1243855E+00
          1   -1    0    0  501    0  0.00000000000E+00  0.00000000000E+00  0.76519974483E+03  0.76519974483E+03  0.00000000000E+00 0. -1.
         -1   -1    0    0    0  501 -0.00000000000E+00 -0.00000000000E+00 -0.16657625704E+02  0.16657625704E+02  0.00000000000E+00 0.  1.
         23    2    1    2    0    0  0.15200532364E+02  0.25505041488E+02  0.46411490176E+03  0.48156784385E+03  0.12499353132E+03 0.  0.
          5    1    3    3  502    0 -0.23655648474E+02 -0.28886811305E+02  0.32482246064E+03  0.32699504355E+03  0.47000000000E+01 0.  1.
         -5    1    3    3    0  502  0.38856180838E+02  0.54391852793E+02  0.13929244113E+03  0.15457280031E+03  0.47000000000E+01 0.  1.
        -11    1    1    2    0    0 -0.43035719653E+02  0.13124995898E+02  0.17969485563E+03  0.18524194941E+03  0.00000000000E+00 0.  1.
         11    1    1    2    0    0  0.27835187288E+02 -0.38630037386E+02  0.10473236174E+03  0.11504757727E+03  0.00000000000E+00 0. -1.
<mgrwt>
<rscale>  0 0.11954166E+03</rscale>
<asrwt>0</asrwt>
<pdfrwt beam="1">  1        1 0.11772301E+00 0.12847158E+03</pdfrwt>
<pdfrwt beam="2">  1       -1 0.25627122E-02 0.12847158E+03</pdfrwt>
<totfact> 0.11207893E+04</totfact>
</mgrwt>
</event>
<event>
 7    1  0.5206756E-006  0.1275924E+03  0.7546771E-02  0.1245754E+00
          2   -1    0    0  501    0  0.00000000000E+00  0.00000000000E+00  0.60582759693E+03  0.60582759693E+03  0.00000000000E+00 0. -1.
         -2   -1    0    0    0  501 -0.00000000000E+00 -0.00000000000E+00 -0.22141296343E+02  0.22141296343E+02  0.00000000000E+00 0.  1.
         23    2    1    2    0    0  0.25056350988E+02 -0.49204404284E+01  0.41943155168E+03  0.43840922216E+03  0.12501115179E+03 0.  0.
          5    1    3    3  502    0  0.50081375963E+02 -0.41598431160E+02  0.34875073784E+03  0.35480662456E+03  0.47000000000E+01 0.  1.
         -5    1    3    3    0  502 -0.25025024975E+02  0.36677990732E+02  0.70680813843E+02  0.83602597595E+02  0.47000000000E+01 0.  1.
        -11    1    1    2    0    0 -0.59465957460E+02  0.74797806557E+01  0.98490804934E+02  0.11529347714E+03  0.00000000000E+00 0. -1.
         11    1    1    2    0    0  0.34409606471E+02 -0.25593402273E+01  0.65763943972E+02  0.74266193969E+02  0.00000000000E+00 0.  1.
<mgrwt>
<rscale>  0 0.11840394E+03</rscale>
<asrwt>0</asrwt>
<pdfrwt beam="1">  1        2 0.93204233E-01 0.12759240E+03</pdfrwt>
<pdfrwt beam="2">  1       -2 0.34063537E-02 0.12759240E+03</pdfrwt>
<totfact> 0.16457295E+04</totfact>
</mgrwt>
</event>
<event>
 6    1  0.5206756E-006  0.1643469E+03  0.7546771E-02  0.1278360E+00
         -2   -1    0    0    0  501 -0.00000000000E+00  0.00000000000E+00  0.23584392308E+02  0.23584392308E+02  0.00000000000E+00 0.  1.
          2   -1    0    0  501    0  0.00000000000E+00 -0.00000000000E+00 -0.40774737020E+03  0.40774737020E+03  0.00000000000E+00 0. -1.
          5    1    1    2  502    0  0.50078016900E+02 -0.63544420440E+02 -0.20732438335E+03  0.22260096827E+03  0.47000000000E+01 0. -1.
         -5    1    1    2    0  502 -0.31060082180E+02  0.75820014180E+02 -0.16033106969E+03  0.18011536626E+03  0.47000000000E+01 0.  1.
        -11    1    1    2    0    0 -0.96840107471E+01 -0.35953930623E+01 -0.51468853326E+01  0.11541115373E+02  0.00000000000E+00 0. -1.
         11    1    1    2    0    0 -0.93339239736E+01 -0.86802006780E+01 -0.11360639530E+02  0.17074312609E+02  0.00000000000E+00 0.  1.
<mgrwt>
<rscale>  0 0.10092634E+03</rscale>
<asrwt>0</asrwt>
<pdfrwt beam="2">  1        2 0.62730359E-01 0.16434693E+03</pdfrwt>
<pdfrwt beam="1">  1       -2 0.36283684E-02 0.16434693E+03</pdfrwt>
<totfact> 0.23689746E+04</totfact>
</mgrwt>
</event>
<event>
 7    1  0.5206756E-006  0.1413097E+03  0.7546771E-02  0.1221759E+00
          2   -1    0    0  501    0  0.00000000000E+00  0.00000000000E+00  0.42593835224E+03  0.42593835224E+03  0.00000000000E+00 0. -1.
         -2   -1    0    0    0  501 -0.00000000000E+00 -0.00000000000E+00 -0.50653722019E+02  0.50653722019E+02  0.00000000000E+00 0.  1.
         23    2    1    2    0    0 -0.33220810664E+02 -0.56913679007E+02  0.32022111549E+03  0.35001426951E+03  0.12500254771E+03 0.  0.
          5    1    3    3  502    0 -0.74025194913E+02 -0.55968196661E+02  0.26747201026E+03  0.28315284705E+03  0.47000000000E+01 0.  1.
         -5    1    3    3    0  502  0.40804384248E+02 -0.94548234608E+00  0.52749105227E+02  0.66861422457E+02  0.47000000000E+01 0.  1.
        -11    1    1    2    0    0  0.53586008904E+02  0.14857300666E+02  0.57234503170E+02  0.79799674727E+02  0.00000000000E+00 0. -1.
         11    1    1    2    0    0 -0.20365198240E+02  0.42056378341E+02 -0.21709884305E+01  0.46778130032E+02  0.00000000000E+00 0.  1.
<mgrwt>
<rscale>  0 0.13391520E+03</rscale>
<asrwt>0</asrwt>
<pdfrwt beam="1">  1        2 0.65528975E-01 0.14130968E+03</pdfrwt>
<pdfrwt beam="2">  1       -2 0.77928806E-02 0.14130968E+03</pdfrwt>
<totfact> 0.70346868E+03</totfact>
</mgrwt>
</event>
<event>
 7    1  0.5206756E-006  0.1416734E+03  0.7546771E-02  0.1221191E+00
          1   -1    0    0  501    0  0.00000000000E+00  0.00000000000E+00  0.15476805114E+03  0.15476805114E+03  0.00000000000E+00 0. -1.
         -1   -1    0    0    0  501 -0.00000000000E+00 -0.00000000000E+00 -0.10779334081E+03  0.10779334081E+03  0.00000000000E+00 0.  1.
         23    2    1    2    0    0 -0.59683775715E+02  0.29736827023E+02  0.89366865061E+01  0.14195495539E+03  0.12499965212E+03 0.  0.
          5    1    3    3  502    0  0.28655215048E+02 -0.16978625754E+02  0.23256382392E+02  0.40894307720E+02  0.47000000000E+01 0. -1.
         -5    1    3    3    0  502 -0.88338990763E+02  0.46715452777E+02 -0.14319695885E+02  0.10106064767E+03  0.47000000000E+01 0. -1.
        -11    1    1    2    0    0 -0.14586887273E+02  0.19818302309E+02  0.13230387186E+02  0.27938960822E+02  0.00000000000E+00 0.  1.
         11    1    1    2    0    0  0.74270662989E+02 -0.49555129333E+02  0.24807636645E+02  0.92667475739E+02  0.00000000000E+00 0. -1.
<mgrwt>
<rscale>  0 0.13431392E+03</rscale>
<asrwt>0</asrwt>
<pdfrwt beam="1">  1        1 0.23810469E-01 0.14167337E+03</pdfrwt>
<pdfrwt beam="2">  1       -1 0.16583591E-01 0.14167337E+03</pdfrwt>
<totfact> 0.53303957E+03</totfact>
</mgrwt>
</event>
<event>
 7    1  0.5206756E-006  0.1534170E+03  0.7546771E-02  0.1216246E+00
         -2   -1    0    0    0  501 -0.00000000000E+00  0.00000000000E+00  0.37176858819E+02  0.37176858819E+02  0.00000000000E+00 0.  1.
          2   -1    0    0  501    0  0.00000000000E+00 -0.00000000000E+00 -0.44292463718E+03  0.44292463718E+03  0.00000000000E+00 0. -1.
         23    2    1    2    0    0 -0.42571556734E+02 -0.78082812486E+02 -0.28160558495E+03  0.32068438961E+03  0.12501003646E+03 0.  0.
          5    1    3    3  502    0 -0.60313391061E+02 -0.61848668905E+02 -0.80768144316E+02  0.11835770411E+03  0.47000000000E+01 0. -1.
         -5    1    3    3    0  502  0.17741834327E+02 -0.16234143581E+02 -0.20083744064E+03  0.20232668550E+03  0.47000000000E+01 0. -1.
        -11    1    1    2    0    0 -0.17360367875E+01  0.35019076625E+02 -0.65174986318E+02  0.74007623884E+02  0.00000000000E+00 0. -1.
         11    1    1    2    0    0  0.44307593522E+02  0.43063735860E+02 -0.58967207095E+02  0.85409482509E+02  0.00000000000E+00 0.  1.
<mgrwt>
<rscale>  0 0.13785382E+03</rscale>
<asrwt>0</asrwt>
<pdfrwt beam="2">  1        2 0.68142252E-01 0.15341699E+03</pdfrwt>
<pdfrwt beam="1">  1       -2 0.57195168E-02 0.15341699E+03</pdfrwt>
<totfact> 0.10881322E+04</totfact>
</mgrwt>
</event>
<event>
 7    1  0.5206756E-006  0.1585975E+03  0.7546771E-02  0.1198568E+00
         -1   -1    0    0    0  501 -0.00000000000E+00  0.00000000000E+00  0.15750007202E+02  0.15750007202E+02  0.00000000000E+00 0.  1.
          1   -1    0    0  501    0  0.00000000000E+00 -0.00000000000E+00 -0.13482460824E+04  0.13482460824E+04  0.00000000000E+00 0. -1.
         23    2    1    2    0    0 -0.75228046924E+02  0.62184687334E+02 -0.76898651529E+03  0.78517095355E+03  0.12500788463E+03 0.  0.
          5    1    3    3  502    0 -0.65577717715E+01  0.43949986583E+02 -0.60174846411E+03  0.60340526162E+03  0.47000000000E+01 0. -1.
         -5    1    3    3    0  502 -0.68670275153E+02  0.18234700751E+02 -0.16723805117E+03  0.18176569193E+03  0.47000000000E+01 0. -1.
        -11    1    1    2    0    0  0.85290148287E+01 -0.63905195159E+02 -0.24014103504E+03  0.24864499748E+03  0.00000000000E+00 0. -1.
         11    1    1    2    0    0  0.66699032096E+02  0.17205078245E+01 -0.32336852483E+03  0.33018013853E+03  0.00000000000E+00 0.  1.
<mgrwt>
<rscale>  0 0.15156122E+03</rscale>
<asrwt>0</asrwt>
<pdfrwt beam="2">  1        1 0.20742257E+00 0.15859750E+03</pdfrwt>
<pdfrwt beam="1">  1       -1 0.24230770E-02 0.15859750E+03</pdfrwt>
<totfact> 0.46195829E+03</totfact>
</mgrwt>
</event>
<event>
 7    1  0.5206756E-006  0.1277411E+03  0.7546771E-02  0.1247423E+00
         -1   -1    0    0    0  501 -0.00000000000E+00  0.00000000000E+00  0.57053215861E+02  0.57053215861E+02  0.00000000000E+00 0.  1.
          1   -1    0    0  501    0  0.00000000000E+00 -0.00000000000E+00 -0.24101339858E+03  0.24101339858E+03  0.00000000000E+00 0. -1.
         23    2    1    2    0    0 -0.18302331875E+02  0.18908011236E+02 -0.15816440391E+03  0.20330705443E+03  0.12500116590E+03 0.  0.
          5    1    3    3  502    0  0.42779830375E+02 -0.16637620377E+02 -0.25001463320E+02  0.52479400405E+02  0.47000000000E+01 0. -1.
         -5    1    3    3    0  502 -0.61082162250E+02  0.35545631612E+02 -0.13316294059E+03  0.15082765402E+03  0.47000000000E+01 0. -1.
        -11    1    1    2    0    0 -0.19779841271E+02  0.35243602982E+01  0.21909438276E+02  0.29726868685E+02  0.00000000000E+00 0.  1.
         11    1    1    2    0    0  0.38082173146E+02 -0.22432371534E+02 -0.47705217086E+02  0.65032691328E+02  0.00000000000E+00 0. -1.
<mgrwt>
<rscale>  0 0.11741507E+03</rscale>
<asrwt>0</asrwt>
<pdfrwt beam="2">  1        1 0.37078985E-01 0.12774107E+03</pdfrwt>
<pdfrwt beam="1">  1       -1 0.87774177E-02 0.12774107E+03</pdfrwt>
<totfact> 0.81458156E+03</totfact>
</mgrwt>
</event>
<event>
 7    1  0.5206756E-006  0.2106249E+03  0.7546771E-02  0.1144942E+00
          2   -1    0    0  501    0  0.00000000000E+00  0.00000000000E+00  0.11915503247E+04  0.11915503247E+04  0.00000000000E+00 0. -1.
         -2   -1    0    0    0  501 -0.00000000000E+00 -0.00000000000E+00 -0.43253282055E+02  0.43253282055E+02  0.00000000000E+00 0.  1.
         23    2    1    2    0    0  0.16028561886E+03 -0.55210527108E+02  0.88036603686E+03  0.90521113133E+03  0.12499260587E+03 0.  0.
          5    1    3    3  502    0  0.13869461743E+03 -0.34644027533E+02  0.85154873112E+03  0.86347769920E+03  0.47000000000E+01 0. -1.
         -5    1    3    3    0  502  0.21591001430E+02 -0.20566499575E+02  0.28817305735E+02  0.41733432130E+02  0.47000000000E+01 0. -1.
        -11    1    1    2    0    0 -0.14216122821E+03  0.51636315366E+02  0.16031329992E+03  0.22040072142E+03  0.00000000000E+00 0.  1.
         11    1    1    2    0    0 -0.18124390652E+02  0.35742117418E+01  0.10761770588E+03  0.10919175402E+03  0.00000000000E+00 0. -1.
<mgrwt>
<rscale>  0 0.20579193E+03</rscale>
<asrwt>0</asrwt>
<pdfrwt beam="1">  1        2 0.18331541E+00 0.21062486E+03</pdfrwt>
<pdfrwt beam="2">  1       -2 0.66543520E-02 0.21062486E+03</pdfrwt>
<totfact> 0.25411808E+03</totfact>
</mgrwt>
</event>
<event>
 7    1  0.5206756E-006  0.1327958E+03  0.7546771E-02  0.1234930E+00
          1   -1    0    0  501    0  0.00000000000E+00  0.00000000000E+00  0.70126443470E+03  0.70126443470E+03  0.00000000000E+00 0. -1.
         -1   -1    0    0    0  501 -0.00000000000E+00 -0.00000000000E+00 -0.20739933453E+02  0.20739933453E+02  0.00000000000E+00 0.  1.
         23    2    1    2    0    0 -0.43475604072E+02 -0.10883359461E+02  0.44329207650E+03  0.46275542047E+03  0.12500455359E+03 0.  0.
          5    1    3    3  502    0 -0.70245528876E+02  0.19837641096E+02  0.15305946039E+03  0.16963860040E+03  0.47000000000E+01 0. -1.
         -5    1    3    3    0  502  0.26769924804E+02 -0.30721000557E+02  0.29023261611E+03  0.29311682006E+03  0.47000000000E+01 0. -1.
        -11    1    1    2    0    0  0.28144525531E+02  0.46418106077E+02  0.75741435565E+02  0.93185406317E+02  0.00000000000E+00 0.  1.
         11    1    1    2    0    0  0.15331078541E+02 -0.35534746615E+02  0.16149098918E+03  0.16606354137E+03  0.00000000000E+00 0. -1.
<mgrwt>
<rscale>  0 0.12508914E+03</rscale>
<asrwt>0</asrwt>
<pdfrwt beam="1">  1        1 0.10788682E+00 0.13279576E+03</pdfrwt>
<pdfrwt beam="2">  1       -1 0.31907595E-02 0.13279576E+03</pdfrwt>
<totfact> 0.92716474E+03</totfact>
</mgrwt>
</event>
<event>
 7    1  0.5206756E-006  0.1504012E+03  0.7546771E-02  0.1208846E+00
         -1   -1    0    0    0  501 -0.00000000000E+00  0.00000000000E+00  0.67000312255E+02  0.67000312255E+02  0.00000000000E+00 0.  1.
          1   -1    0    0  501    0  0.00000000000E+00 -0.00000000000E+00 -0.39339971529E+03  0.39339971529E+03  0.00000000000E+00 0. -1.
         23    2    1    2    0    0 -0.31566830562E+02 -0.77460137686E+02 -0.29672730986E+03  0.33266741697E+03  0.12499590463E+03 0.  0.
          5    1    3    3  502    0  0.13721329379E+02 -0.43589428018E+02 -0.19866739777E+02  0.50050878756E+02  0.47000000000E+01 0. -1.
         -5    1    3    3    0  502 -0.45288159941E+02 -0.33870709668E+02 -0.27686057009E+03  0.28261653821E+03  0.47000000000E+01 0. -1.
        -11    1    1    2    0    0  0.46969760762E+02  0.17064249159E+02  0.13676944558E+02  0.51811252039E+02  0.00000000000E+00 0.  1.
         11    1    1    2    0    0 -0.15402930201E+02  0.60395888527E+02 -0.43349037729E+02  0.75921358535E+02  0.00000000000E+00 0. -1.
<mgrwt>
<rscale>  0 0.14338457E+03</rscale>
<asrwt>0</asrwt>
<pdfrwt beam="2">  1        1 0.60523031E-01 0.15040118E+03</pdfrwt>
<pdfrwt beam="1">  1       -1 0.10307741E-01 0.15040118E+03</pdfrwt>
<totfact> 0.35019938E+03</totfact>
</mgrwt>
</event>
<event>
 7    1  0.5206756E-006  0.1308366E+03  0.7546771E-02  0.1239612E+00
         -3   -1    0    0    0  501 -0.00000000000E+00  0.00000000000E+00  0.73321952344E+02  0.73321952344E+02  0.00000000000E+00 0.  1.
          3   -1    0    0  501    0  0.00000000000E+00 -0.00000000000E+00 -0.18198124292E+03  0.18198124292E+03  0.00000000000E+00 0. -1.
         23    2    1    2    0    0  0.33852541579E+02 -0.18638019446E+02 -0.72408654075E+02  0.14953667554E+03  0.12499933522E+03 0.  0.
          5    1    3    3  502    0  0.87669871845E+01  0.19894314671E+02 -0.95369794538E+02  0.97929216941E+02  0.47000000000E+01 0.  1.
         -5    1    3    3    0  502  0.25085554394E+02 -0.38532334117E+02  0.22961140462E+02  0.51607458599E+02  0.47000000000E+01 0.  1.
        -11    1    1    2    0    0  0.17946979012E+02 -0.12226715770E+02  0.15195172852E+02  0.26504337611E+02  0.00000000000E+00 0.  1.
         11    1    1    2    0    0 -0.51799520591E+02  0.30864735215E+02 -0.51445809350E+02  0.79262182111E+02  0.00000000000E+00 0. -1.
<mgrwt>
<rscale>  0 0.12213775E+03</rscale>
<asrwt>0</asrwt>
<pdfrwt beam="2">  1        3 0.27997114E-01 0.13083656E+03</pdfrwt>
<pdfrwt beam="1">  1       -3 0.11280300E-01 0.13083656E+03</pdfrwt>
<totfact> 0.16794700E+03</totfact>
</mgrwt>
</event>
<event>
 7    1  0.5206756E-006  0.1288348E+03  0.7546771E-02  0.1248753E+00
         -2   -1    0    0    0  501 -0.00000000000E+00  0.00000000000E+00  0.35654553581E+02  0.35654553581E+02  0.00000000000E+00 0.  1.
          2   -1    0    0  501    0  0.00000000000E+00 -0.00000000000E+00 -0.32767510100E+03  0.32767510100E+03  0.00000000000E+00 0. -1.
         23    2    1    2    0    0 -0.39536455997E+01  0.30939677853E+02 -0.15915159406E+03  0.20476239471E+03  0.12500205365E+03 0.  0.
          5    1    3    3  502    0  0.10247478617E+02  0.23235117399E+02 -0.17778795185E+03  0.17965390984E+03  0.47000000000E+01 0.  1.
         -5    1    3    3    0  502 -0.14201124217E+02  0.77045604548E+01  0.18636357790E+02  0.25108484871E+02  0.47000000000E+01 0.  1.
        -11    1    1    2    0    0 -0.28411387344E+02 -0.43325116697E+02 -0.76304099836E+02  0.92231167831E+02  0.00000000000E+00 0.  1.
         11    1    1    2    0    0  0.32365032944E+02  0.12385438843E+02 -0.56564853521E+02  0.66336092037E+02  0.00000000000E+00 0. -1.
<mgrwt>
<rscale>  0 0.11663554E+03</rscale>
<asrwt>0</asrwt>
<pdfrwt beam="2">  1        2 0.50411554E-01 0.12883481E+03</pdfrwt>
<pdfrwt beam="1">  1       -2 0.54853159E-02 0.12883481E+03</pdfrwt>
<totfact> 0.15778847E+04</totfact>
</mgrwt>
</event>
<event>
 7    1  0.5206756E-006  0.1737296E+03  0.7546771E-02  0.1179137E+00
         -2   -1    0    0    0  501 -0.00000000000E+00  0.00000000000E+00  0.40927407739E+02  0.40927407739E+02  0.00000000000E+00 0.  1.
          2   -1    0    0  501    0  0.00000000000E+00 -0.00000000000E+00 -0.67300830744E+03  0.67300830744E+03  0.00000000000E+00 0. -1.
         23    2    1    2    0    0 -0.11061021043E+03  0.48187660765E+02 -0.38540714832E+03  0.42275364065E+03  0.12500120562E+03 0.  0.
          5    1    3    3  502    0 -0.20665369815E+01  0.28245366738E+02 -0.23170348587E+03  0.23347519500E+03  0.47000000000E+01 0. -1.
         -5    1    3    3    0  502 -0.10854367345E+03  0.19942294027E+02 -0.15370366245E+03  0.18927844565E+03  0.47000000000E+01 0. -1.
        -11    1    1    2    0    0  0.29441442252E+02  0.17285937091E+02 -0.13128510392E+03  0.13565168872E+03  0.00000000000E+00 0. -1.
         11    1    1    2    0    0  0.81168768182E+02 -0.65473597856E+02 -0.11538864747E+03  0.15553038580E+03  0.00000000000E+00 0.  1.
<mgrwt>
<rscale>  0 0.16876941E+03</rscale>
<asrwt>0</asrwt>
<pdfrwt beam="2">  1        2 0.10353974E+00 0.17372959E+03</pdfrwt>
<pdfrwt beam="1">  1       -2 0.62965241E-02 0.17372959E+03</pdfrwt>
<totfact> 0.59083546E+03</totfact>
</mgrwt>
</event>
<event>
 7    1  0.5206756E-006  0.2935051E+03  0.7546771E-02  0.1090302E+00
         -3   -1    0    0    0  501 -0.00000000000E+00  0.00000000000E+00  0.35968569405E+03  0.35968569405E+03  0.00000000000E+00 0.  1.
          3   -1    0    0  501    0  0.00000000000E+00 -0.00000000000E+00 -0.23354476378E+03  0.23354476378E+03  0.00000000000E+00 0. -1.
         23    2    1    2    0    0 -0.18373243136E+03 -0.19174078829E+03  0.21695338530E+02  0.29430586887E+03  0.12499248180E+03 0.  0.
          5    1    3    3  502    0  0.13182100429E+01 -0.68905891000E+01  0.31408588051E+02  0.32523949625E+02  0.47000000000E+01 0. -1.
         -5    1    3    3    0  502 -0.18505064140E+03 -0.18485019919E+03 -0.97132495213E+01  0.26178191924E+03  0.47000000000E+01 0. -1.
        -11    1    1    2    0    0  0.11808679276E+03  0.15673316999E+03  0.10883424506E+03  0.22439846278E+03  0.00000000000E+00 0.  1.
         11    1    1    2    0    0  0.65645638606E+02  0.35007618301E+02 -0.43886533236E+01  0.74526126192E+02  0.00000000000E+00 0. -1.
<mgrwt>
<rscale>  0 0.29009071E+03</rscale>
<asrwt>0</asrwt>
<pdfrwt beam="2">  1        3 0.35929964E-01 0.29350512E+03</pdfrwt>
<pdfrwt beam="1">  1       -3 0.55336260E-01 0.29350512E+03</pdfrwt>
<totfact> 0.62370708E+01</totfact>
</mgrwt>
</event>
<event>
 7    1  0.5206756E-006  0.2112203E+03  0.7546771E-02  0.1144567E+00
          1   -1    0    0  501    0  0.00000000000E+00  0.00000000000E+00  0.22868509948E+03  0.22868509948E+03  0.00000000000E+00 0. -1.
         -1   -1    0    0    0  501 -0.00000000000E+00 -0.00000000000E+00 -0.18289270964E+03  0.18289270964E+03  0.00000000000E+00 0.  1.
         23    2    1    2    0    0  0.59684281767E+02 -0.15946095579E+03  0.58325704542E+02  0.21912533834E+03  0.12499606466E+03 0.  0.
          5    1    3    3  502    0  0.23049913102E+01 -0.61464031832E+02 -0.36002377722E+02  0.71424095343E+02  0.47000000000E+01 0. -1.
         -5    1    3    3    0  502  0.57379290457E+02 -0.97996923955E+02  0.94328082265E+02  0.14770124299E+03  0.47000000000E+01 0. -1.
        -11    1    1    2    0    0 -0.68866231741E+02  0.12614283911E+03  0.19862084690E+02  0.14508299742E+03  0.00000000000E+00 0.  1.
         11    1    1    2    0    0  0.91819499741E+01  0.33318116675E+02 -0.32395399392E+02  0.47369473354E+02  0.00000000000E+00 0. -1.
<mgrwt>
<rscale>  0 0.20625378E+03</rscale>
<asrwt>0</asrwt>
<pdfrwt beam="1">  1        1 0.35182323E-01 0.21122033E+03</pdfrwt>
<pdfrwt beam="2">  1       -1 0.28137340E-01 0.21122033E+03</pdfrwt>
<totfact> 0.14025058E+03</totfact>
</mgrwt>
</event>
<event>
 6    1  0.5206756E-006  0.1366665E+03  0.7546771E-02  0.1233897E+00
         -2   -1    0    0    0  501 -0.00000000000E+00  0.00000000000E+00  0.29045008963E+03  0.29045008963E+03  0.00000000000E+00 0.  1.
          2   -1    0    0  501    0  0.00000000000E+00 -0.00000000000E+00 -0.53753293226E+02  0.53753293226E+02  0.00000000000E+00 0. -1.
          5    1    1    2  502    0 -0.61041671913E+01  0.80788118399E+02  0.19765292652E+02  0.83526868283E+02  0.47000000000E+01 0. -1.
         -5    1    1    2    0  502 -0.57674658099E+01 -0.45228432777E+02  0.57275981393E+02  0.73358727073E+02  0.47000000000E+01 0.  1.
        -11    1    1    2    0    0 -0.39966459974E+01 -0.62563208782E+02  0.79390121204E+02  0.10115789449E+03  0.00000000000E+00 0.  1.
         11    1    1    2    0    0  0.15868278999E+02  0.27003523160E+02  0.80265401157E+02  0.86159893015E+02  0.00000000000E+00 0. -1.
<mgrwt>
<rscale>  0 0.12575334E+03</rscale>
<asrwt>0</asrwt>
<pdfrwt beam="2">  1        2 0.82697376E-02 0.13666650E+03</pdfrwt>
<pdfrwt beam="1">  1       -2 0.44684628E-01 0.13666650E+03</pdfrwt>
<totfact> 0.37403157E+03</totfact>
</mgrwt>
</event>
<event>
 7    1  0.5206756E-006  0.1582607E+03  0.7546771E-02  0.1198513E+00
          2   -1    0    0  501    0  0.00000000000E+00  0.00000000000E+00  0.37403363883E+03  0.37403363883E+03  0.00000000000E+00 0.  1.
         -2   -1    0    0    0  501 -0.00000000000E+00 -0.00000000000E+00 -0.58984604186E+02  0.58984604186E+02  0.00000000000E+00 0. -1.
         23    2    1    2    0    0 -0.78338055878E+02  0.57306417034E+02  0.21196821175E+03  0.26453159453E+03  0.12500226111E+03 0.  0.
          5    1    3    3  502    0 -0.41080881382E+01  0.72728072129E+02  0.14879083200E+03  0.16573186342E+03  0.47000000000E+01 0.  1.
         -5    1    3    3    0  502 -0.74229967740E+02 -0.15421655095E+02  0.63177379743E+02  0.98799731112E+02  0.47000000000E+01 0.  1.
        -11    1    1    2    0    0  0.45100372930E+02 -0.66006216807E+02  0.10737002114E+03  0.13386256286E+03  0.00000000000E+00 0.  1.
         11    1    1    2    0    0  0.33237682947E+02  0.86997997734E+01 -0.42891982430E+01  0.34624085625E+02  0.00000000000E+00 0. -1.
<mgrwt>
<rscale>  0 0.15160605E+03</rscale>
<asrwt>0</asrwt>
<pdfrwt beam="1">  1        2 0.57543635E-01 0.15826068E+03</pdfrwt>
<pdfrwt beam="2">  1       -2 0.90745547E-02 0.15826068E+03</pdfrwt>
<totfact> 0.64267063E+03</totfact>
</mgrwt>
</event>
<event>
 7    1  0.5206756E-006  0.1643329E+03  0.7546771E-02  0.1191119E+00
         -1   -1    0    0    0  501 -0.00000000000E+00  0.00000000000E+00  0.54821869982E+02  0.54821869982E+02  0.00000000000E+00 0.  1.
          1   -1    0    0  501    0  0.00000000000E+00 -0.00000000000E+00 -0.43831944270E+03  0.43831944270E+03  0.00000000000E+00 0. -1.
         23    2    1    2    0    0 -0.84331424201E+02  0.65295131469E+02 -0.25353090125E+03  0.30213112944E+03  0.12502023110E+03 0.  0.
          5    1    3    3  502    0 -0.57939340083E+02  0.10235858744E+03 -0.16796749250E+03  0.20510830331E+03  0.47000000000E+01 0.  1.
         -5    1    3    3    0  502 -0.26392084117E+02 -0.37063455967E+02 -0.85563408749E+02  0.97022826124E+02  0.47000000000E+01 0.  1.
        -11    1    1    2    0    0  0.17517963015E+02 -0.50321712126E+02 -0.10569222013E+03  0.11836384218E+03  0.00000000000E+00 0.  1.
         11    1    1    2    0    0  0.66813461186E+02 -0.14973419343E+02 -0.24274451340E+02  0.72646341066E+02  0.00000000000E+00 0. -1.
<mgrwt>
<rscale>  0 0.15787288E+03</rscale>
<asrwt>0</asrwt>
<pdfrwt beam="2">  1        1 0.67433760E-01 0.16433290E+03</pdfrwt>
<pdfrwt beam="1">  1       -1 0.84341339E-02 0.16433290E+03</pdfrwt>
<totfact> 0.41612536E+03</totfact>
</mgrwt>
</event>
<event>
 7    1  0.5206756E-006  0.1410383E+03  0.7546771E-02  0.1213368E+00
          1   -1    0    0  501    0  0.00000000000E+00  0.00000000000E+00  0.19436531966E+03  0.19436531966E+03  0.00000000000E+00 0. -1.
         -1   -1    0    0    0  501 -0.00000000000E+00 -0.00000000000E+00 -0.10323940681E+03  0.10323940681E+03  0.00000000000E+00 0.  1.
         23    2    1    2    0    0 -0.26968597772E+02 -0.59494200837E+02  0.75288033439E+02  0.15987524414E+03  0.12499976205E+03 0.  0.
          5    1    3    3  502    0  0.17329353973E+02  0.22241222843E+02  0.58745022701E+02  0.65330285434E+02  0.47000000000E+01 0.  1.
         -5    1    3    3    0  502 -0.44297951745E+02 -0.81735423680E+02  0.16543010738E+02  0.94544958709E+02  0.47000000000E+01 0.  1.
        -11    1    1    2    0    0 -0.37429690120E+02 -0.67714213402E+01  0.23985513664E+02  0.44968196708E+02  0.00000000000E+00 0. -1.
         11    1    1    2    0    0  0.64398287892E+02  0.66265622178E+02 -0.81476342553E+01  0.92761285620E+02  0.00000000000E+00 0.  1.
<mgrwt>
<rscale>  0 0.13997063E+03</rscale>
<asrwt>0</asrwt>
<pdfrwt beam="1">  1        1 0.29902357E-01 0.14103831E+03</pdfrwt>
<pdfrwt beam="2">  1       -1 0.15882986E-01 0.14103831E+03</pdfrwt>
<totfact> 0.42887005E+03</totfact>
</mgrwt>
</event>
<event>
 7    1  0.5206756E-006  0.1562305E+03  0.7546771E-02  0.1200413E+00
          2   -1    0    0  501    0  0.00000000000E+00  0.00000000000E+00  0.34864003573E+03  0.34864003573E+03  0.00000000000E+00 0.  1.
         -2   -1    0    0    0  501 -0.00000000000E+00 -0.00000000000E+00 -0.79748620565E+02  0.79748620565E+02  0.00000000000E+00 0. -1.
         23    2    1    2    0    0 -0.73994534799E+02 -0.57512784005E+02  0.24903032453E+03  0.29397969716E+03  0.12500019322E+03 0.  0.
          5    1    3    3  502    0 -0.75583268094E+02 -0.30937925053E+02  0.56167458668E+02  0.99231340995E+02  0.47000000000E+01 0.  1.
         -5    1    3    3    0  502  0.15887332946E+01 -0.26574858952E+02  0.19286286586E+03  0.19474835617E+03  0.47000000000E+01 0.  1.
        -11    1    1    2    0    0 -0.18435677869E+02  0.11910984851E+02 -0.13868265457E+02  0.25962946008E+02  0.00000000000E+00 0.  1.
         11    1    1    2    0    0  0.92430212668E+02  0.45601799154E+02  0.33729356092E+02  0.10844601312E+03  0.00000000000E+00 0. -1.
<mgrwt>
<rscale>  0 0.15004892E+03</rscale>
<asrwt>0</asrwt>
<pdfrwt beam="1">  1        2 0.53636928E-01 0.15623047E+03</pdfrwt>
<pdfrwt beam="2">  1       -2 0.12269019E-01 0.15623047E+03</pdfrwt>
<totfact> 0.42933965E+03</totfact>
</mgrwt>
</event>
<event>
 7    1  0.5206756E-006  0.1401399E+03  0.7546771E-02  0.1225008E+00
         -2   -1    0    0    0  501 -0.00000000000E+00  0.00000000000E+00  0.67933483718E+02  0.67933483718E+02  0.00000000000E+00 0.  1.
          2   -1    0    0  501    0  0.00000000000E+00 -0.00000000000E+00 -0.34076197933E+03  0.34076197933E+03  0.00000000000E+00 0. -1.
         23    2    1    2    0    0  0.59769825008E+02  0.21001034099E+02 -0.26432539508E+03  0.29917740287E+03  0.12500291392E+03 0.  0.
          5    1    3    3  502    0 -0.16018453610E+02  0.38210056231E+01 -0.19247692144E+03  0.19323727960E+03  0.47000000000E+01 0. -1.
         -5    1    3    3    0  502  0.75788278618E+02  0.17180028476E+02 -0.71848473642E+02  0.10594012327E+03  0.47000000000E+01 0. -1.
        -11    1    1    2    0    0  0.22969103102E+01 -0.40676381870E+02 -0.16424496599E+02  0.43927302757E+02  0.00000000000E+00 0. -1.
         11    1    1    2    0    0 -0.62066735318E+02  0.19675347771E+02  0.79213960700E+01  0.65590757418E+02  0.00000000000E+00 0.  1.
<mgrwt>
<rscale>  0 0.13166327E+03</rscale>
<asrwt>0</asrwt>
<pdfrwt beam="2">  1        2 0.52424920E-01 0.14013994E+03</pdfrwt>
<pdfrwt beam="1">  1       -2 0.10451305E-01 0.14013994E+03</pdfrwt>
<totfact> 0.56448550E+03</totfact>
</mgrwt>
</event>
<event>
 7    1  0.5206756E-006  0.1251985E+03  0.7546771E-02  0.1249903E+00
         -1   -1    0    0    0  501 -0.00000000000E+00  0.00000000000E+00  0.31579962774E+02  0.31579962774E+02  0.00000000000E+00 0.  1.
          1   -1    0    0  501    0  0.00000000000E+00 -0.00000000000E+00 -0.45953342500E+03  0.45953342500E+03  0.00000000000E+00 0. -1.
         23    2    1    2    0    0 -0.41452712080E+01  0.68548736711E+01 -0.34538661608E+03  0.36737797276E+03  0.12494193746E+03 0.  0.
          5    1    3    3  502    0  0.75381861640E+01  0.62902869915E+02 -0.22806587590E+03  0.23674823979E+03  0.47000000000E+01 0.  1.
         -5    1    3    3    0  502 -0.11683457372E+02 -0.56047996244E+02 -0.11732074018E+03  0.13062973297E+03  0.47000000000E+01 0.  1.
        -11    1    1    2    0    0 -0.70621140436E+01  0.19459053425E+02  0.12687610967E+02  0.24279697012E+02  0.00000000000E+00 0.  1.
         11    1    1    2    0    0  0.11207385252E+02 -0.26313927096E+02 -0.95254457111E+02  0.99455718000E+02  0.00000000000E+00 0. -1.
<mgrwt>
<rscale>  0 0.11596663E+03</rscale>
<asrwt>0</asrwt>
<pdfrwt beam="2">  1        1 0.70697447E-01 0.12519848E+03</pdfrwt>
<pdfrwt beam="1">  1       -1 0.48584560E-02 0.12519848E+03</pdfrwt>
<totfact> 0.88008794E+03</totfact>
</mgrwt>
</event>
<event>
 7    1  0.5206756E-006  0.1538555E+03  0.7546771E-02  0.1204511E+00
         -1   -1    0    0    0  501 -0.00000000000E+00  0.00000000000E+00  0.45594731800E+02  0.45594731800E+02  0.00000000000E+00 0.  1.
          1   -1    0    0  501    0  0.00000000000E+00 -0.00000000000E+00 -0.53456138425E+03  0.53456138425E+03  0.00000000000E+00 0. -1.
         23    2    1    2    0    0  0.14070069959E+02  0.88610864993E+02 -0.38872255419E+03  0.41806308359E+03  0.12498666113E+03 0.  0.
          5    1    3    3  502    0 -0.37068147034E+02  0.46968633271E+02 -0.30764812348E+03  0.31344785518E+03  0.47000000000E+01 0. -1.
         -5    1    3    3    0  502  0.51138216992E+02  0.41642231722E+02 -0.81074430711E+02  0.10461522841E+03  0.47000000000E+01 0. -1.
        -11    1    1    2    0    0 -0.45221404948E+02 -0.63757748845E+02 -0.35007912957E+02  0.85648000402E+02  0.00000000000E+00 0.  1.
         11    1    1    2    0    0  0.31151334989E+02 -0.24853116148E+02 -0.65236185300E+02  0.76445032059E+02  0.00000000000E+00 0. -1.
<mgrwt>
<rscale>  0 0.14676037E+03</rscale>
<asrwt>0</asrwt>
<pdfrwt beam="2">  1        1 0.82240213E-01 0.15385551E+03</pdfrwt>
<pdfrwt beam="1">  1       -1 0.70145741E-02 0.15385551E+03</pdfrwt>
<totfact> 0.42316699E+03</totfact>
</mgrwt>
</event>
<event>
 6    1  0.5206756E-006  0.3214649E+03  0.7546771E-02  0.1080539E+00
         -2   -1    0    0    0  501 -0.00000000000E+00  0.00000000000E+00  0.13697995293E+03  0.13697995293E+03  0.00000000000E+00 0.  1.
          2   -1    0    0  501    0  0.00000000000E+00 -0.00000000000E+00 -0.72423979871E+03  0.72423979871E+03  0.00000000000E+00 0. -1.
          5    1    1    2  502    0  0.11667919412E+03  0.13247079137E+03 -0.16483328838E+03  0.24156706702E+03  0.47000000000E+01 0. -1.
         -5    1    1    2    0  502 -0.50014014870E+02  0.11515116026E+03 -0.28365548462E+03  0.31023171235E+03  0.47000000000E+01 0.  1.
        -11    1    1    2    0    0 -0.85232936620E+01 -0.20150242515E+03 -0.11078551948E+03  0.23010716026E+03  0.00000000000E+00 0. -1.
         11    1    1    2    0    0 -0.58141885592E+02 -0.46119526483E+02 -0.27985553305E+02  0.79313812019E+02  0.00000000000E+00 0.  1.
<mgrwt>
<rscale>  0 0.30959682E+03</rscale>
<asrwt>0</asrwt>
<pdfrwt beam="2">  1        2 0.11142151E+00 0.32146495E+03</pdfrwt>
<pdfrwt beam="1">  1       -2 0.21073839E-01 0.32146495E+03</pdfrwt>
<totfact> 0.77360515E+02</totfact>
</mgrwt>
</event>
<event>
 7    1  0.5206756E-006  0.1543379E+03  0.7546771E-02  0.1205200E+00
         -2   -1    0    0    0  501 -0.00000000000E+00  0.00000000000E+00  0.24680433824E+03  0.24680433824E+03  0.00000000000E+00 0. -1.
          2   -1    0    0  501    0  0.00000000000E+00 -0.00000000000E+00 -0.10151976269E+03  0.10151976269E+03  0.00000000000E+00 0.  1.
         23    2    1    2    0    0 -0.49058973014E+02 -0.76092197497E+02 -0.35679659816E+01  0.15437916618E+03  0.12499356470E+03 0.  0.
          5    1    3    3  502    0  0.38159023248E+02 -0.12556725306E+01  0.61213856452E+01  0.38951882252E+02  0.47000000000E+01 0. -1.
         -5    1    3    3    0  502 -0.87217996262E+02 -0.74836524967E+02 -0.96893516267E+01  0.11542728393E+03  0.47000000000E+01 0. -1.
        -11    1    1    2    0    0  0.40236336471E+02  0.73727769114E+01  0.10309814498E+03  0.11091685224E+03  0.00000000000E+00 0. -1.
         11    1    1    2    0    0  0.88226365429E+01  0.68719420586E+02  0.45754396542E+02  0.83028082503E+02  0.00000000000E+00 0.  1.
<mgrwt>
<rscale>  0 0.14621675E+03</rscale>
<asrwt>0</asrwt>
<pdfrwt beam="2">  1        2 0.15618425E-01 0.15433793E+03</pdfrwt>
<pdfrwt beam="1">  1       -2 0.37969898E-01 0.15433793E+03</pdfrwt>
<totfact> 0.23777421E+03</totfact>
</mgrwt>
</event>
<event>
 7    1  0.5206756E-006  0.1267425E+03  0.7546771E-02  0.1247421E+00
          1   -1    0    0  501    0  0.00000000000E+00  0.00000000000E+00  0.87387677544E+02  0.87387677544E+02  0.00000000000E+00 0. -1.
         -1   -1    0    0    0  501 -0.00000000000E+00 -0.00000000000E+00 -0.18067326957E+03  0.18067326957E+03  0.00000000000E+00 0.  1.
         23    2    1    2    0    0  0.20804291130E+02  0.12779589487E+01  0.12043750343E+02  0.12731343893E+03  0.12501683128E+03 0.  0.
          5    1    3    3  502    0  0.56454040315E+02  0.25220881938E+02 -0.28338138054E+02  0.68178380899E+02  0.47000000000E+01 0.  1.
         -5    1    3    3    0  502 -0.35649749186E+02 -0.23942922990E+02  0.40381888397E+02  0.59135058035E+02  0.47000000000E+01 0.  1.
        -11    1    1    2    0    0 -0.23814516340E+02 -0.38783756135E+02 -0.24726452382E+02  0.51794868239E+02  0.00000000000E+00 0. -1.
         11    1    1    2    0    0  0.30102252109E+01  0.37505797186E+02 -0.80602889988E+02  0.88952639943E+02  0.00000000000E+00 0.  1.
<mgrwt>
<rscale>  0 0.11741641E+03</rscale>
<asrwt>0</asrwt>
<pdfrwt beam="1">  1        1 0.13444258E-01 0.12674249E+03</pdfrwt>
<pdfrwt beam="2">  1       -1 0.27795888E-01 0.12674249E+03</pdfrwt>
<totfact> 0.47702565E+03</totfact>
</mgrwt>
</event>
<event>
 7    1  0.5206756E-006  0.1336654E+03  0.7546771E-02  0.1234605E+00
         -2   -1    0    0    0  501 -0.00000000000E+00  0.00000000000E+00  0.24018744428E+02  0.24018744428E+02  0.00000000000E+00 0.  1.
          2   -1    0    0  501    0  0.00000000000E+00 -0.00000000000E+00 -0.64219107267E+03  0.64219107267E+03  0.00000000000E+00 0. -1.
         23    2    1    2    0    0 -0.71990752297E+02 -0.13006488089E+02 -0.44473704668E+03  0.46438936866E+03  0.11186870827E+03 0.  0.
          5    1    3    3  502    0  0.27897670966E+02 -0.17831570178E+02 -0.11965068857E+03  0.12423615503E+03  0.47000000000E+01 0. -1.
         -5    1    3    3    0  502 -0.99888423263E+02  0.48250820891E+01 -0.32508635811E+03  0.34015321363E+03  0.47000000000E+01 0.  1.
        -11    1    1    2    0    0  0.79745051132E+02 -0.65199269081E+01 -0.15219305533E+03  0.17194332996E+03  0.00000000000E+00 0. -1.
         11    1    1    2    0    0 -0.77542988347E+01  0.19526414997E+02 -0.21242226235E+02  0.29877118477E+02  0.00000000000E+00 0.  1.
<mgrwt>
<rscale>  0 0.12529728E+03</rscale>
<asrwt>0</asrwt>
<pdfrwt beam="2">  1        2 0.98798631E-01 0.13366542E+03</pdfrwt>
<pdfrwt beam="1">  1       -2 0.36951913E-02 0.13366542E+03</pdfrwt>
<totfact> 0.13698094E+04</totfact>
</mgrwt>
</event>
<event>
 7    1  0.5206756E-006  0.1665476E+03  0.7546771E-02  0.1187962E+00
         -1   -1    0    0    0  501 -0.00000000000E+00  0.00000000000E+00  0.36263974839E+02  0.36263974839E+02  0.00000000000E+00 0.  1.
          1   -1    0    0  501    0  0.00000000000E+00 -0.00000000000E+00 -0.72779274894E+03  0.72779274894E+03  0.00000000000E+00 0. -1.
         23    2    1    2    0    0  0.25696581436E+02 -0.10704262824E+03 -0.47987043228E+03  0.50795053683E+03  0.12497870830E+03 0.  0.
          5    1    3    3  502    0  0.63914165039E+02 -0.10874337052E+03 -0.39639885442E+03  0.41600995530E+03  0.47000000000E+01 0. -1.
         -5    1    3    3    0  502 -0.38217583603E+02  0.17007422818E+01 -0.83471577869E+02  0.91940581534E+02  0.47000000000E+01 0. -1.
        -11    1    1    2    0    0  0.41630158313E+01  0.53602570885E+02 -0.24299635994E+02  0.59000327251E+02  0.00000000000E+00 0.  1.
         11    1    1    2    0    0 -0.29859597267E+02  0.53440057355E+02 -0.18735870583E+03  0.19710585970E+03  0.00000000000E+00 0. -1.
<mgrwt>
<rscale>  0 0.16065291E+03</rscale>
<asrwt>0</asrwt>
<pdfrwt beam="2">  1        1 0.11196810E+00 0.16654764E+03</pdfrwt>
<pdfrwt beam="1">  1       -1 0.55790736E-02 0.16654764E+03</pdfrwt>
<totfact> 0.38981784E+03</totfact>
</mgrwt>
</event>
<event>
 7    1  0.5206756E-006  0.1364263E+03  0.7546771E-02  0.1229599E+00
         -2   -1    0    0    0  501 -0.00000000000E+00  0.00000000000E+00  0.56812841862E+02  0.56812841862E+02  0.00000000000E+00 0.  1.
          2   -1    0    0  501    0  0.00000000000E+00 -0.00000000000E+00 -0.46554897737E+03  0.46554897737E+03  0.00000000000E+00 0. -1.
         23    2    1    2    0    0 -0.53558870663E+02  0.10878624634E+02 -0.38996088020E+03  0.41313632497E+03  0.12500095131E+03 0.  0.
          5    1    3    3  502    0 -0.93734100383E+02  0.15156694706E+02 -0.29127034570E+03  0.30639241383E+03  0.47000000000E+01 0. -1.
         -5    1    3    3    0  502  0.40175229720E+02 -0.42780700716E+01 -0.98690534494E+02  0.10674391114E+03  0.47000000000E+01 0. -1.
        -11    1    1    2    0    0  0.87624414326E+00 -0.15491502721E+02  0.32218757339E+02  0.35760352135E+02  0.00000000000E+00 0.  1.
         11    1    1    2    0    0  0.52682626520E+02  0.46128780872E+01 -0.50994012652E+02  0.73465142126E+02  0.00000000000E+00 0. -1.
<mgrwt>
<rscale>  0 0.12856606E+03</rscale>
<asrwt>0</asrwt>
<pdfrwt beam="2">  1        2 0.71622918E-01 0.13642630E+03</pdfrwt>
<pdfrwt beam="1">  1       -2 0.87404374E-02 0.13642630E+03</pdfrwt>
<totfact> 0.53387846E+03</totfact>
</mgrwt>
</event>
<event>
 7    1  0.5206756E-006  0.2182427E+03  0.7546771E-02  0.1138643E+00
         -2   -1    0    0    0  501 -0.00000000000E+00  0.00000000000E+00  0.38960413230E+02  0.38960413230E+02  0.00000000000E+00 0.  1.
          2   -1    0    0  501    0  0.00000000000E+00 -0.00000000000E+00 -0.11358960449E+04  0.11358960449E+04  0.00000000000E+00 0. -1.
         23    2    1    2    0    0 -0.17088176516E+03  0.52949096643E+02 -0.51786673733E+03  0.56197492248E+03  0.12500268543E+03 0.  0.
          5    1    3    3  502    0 -0.28871312712E+02 -0.99839381314E+01 -0.25303335911E+03  0.25491410816E+03  0.47000000000E+01 0. -1.
         -5    1    3    3    0  502 -0.14201045245E+03  0.62933034774E+02 -0.26483337822E+03  0.30706081432E+03  0.47000000000E+01 0. -1.
        -11    1    1    2    0    0  0.96094773010E+02  0.13323693940E+02 -0.34487415258E+03  0.35825955303E+03  0.00000000000E+00 0. -1.
         11    1    1    2    0    0  0.74786992149E+02 -0.66272790583E+02 -0.23419474181E+03  0.25462198267E+03  0.00000000000E+00 0.  1.
<mgrwt>
<rscale>  0 0.21373315E+03</rscale>
<asrwt>0</asrwt>
<pdfrwt beam="2">  1        2 0.17475325E+00 0.21824265E+03</pdfrwt>
<pdfrwt beam="1">  1       -2 0.59939093E-02 0.21824265E+03</pdfrwt>
<totfact> 0.32122009E+03</totfact>
</mgrwt>
</event>
<event>
 7    1  0.5340230E-006  0.1260113E+03  0.7546771E-02  0.1250695E+00
          1   -1    0    0  501    0  0.00000000000E+00  0.00000000000E+00  0.68009885574E+02  0.68009885574E+02  0.00000000000E+00 0. -1.
         -1   -1    0    0    0  501 -0.00000000000E+00 -0.00000000000E+00 -0.18510812578E+03  0.18510812578E+03  0.00000000000E+00 0.  1.
         23    2    1    2    0    0  0.13401263631E+02  0.86095649869E+01 -0.32017001455E+02  0.13001515840E+03  0.12500053822E+03 0.  0.
          5    1    3    3  502    0  0.61009907432E+02  0.19787972125E+02 -0.45843644596E+02  0.78977860160E+02  0.47000000000E+01 0. -1.
         -5    1    3    3    0  502 -0.47608643802E+02 -0.11178407138E+02  0.13826643141E+02  0.51037298237E+02  0.47000000000E+01 0. -1.
        -11    1    1    2    0    0 -0.92785944027E+01  0.31127943546E+02 -0.75248814420E+02  0.81959900288E+02  0.00000000000E+00 0.  1.
         11    1    1    2    0    0 -0.41226692279E+01 -0.39737508533E+02 -0.98324243274E+01  0.41142952666E+02  0.00000000000E+00 0. -1.
<mgrwt>
<rscale>  0 0.11550930E+03</rscale>
<asrwt>0</asrwt>
<pdfrwt beam="1">  1        1 0.10463059E-01 0.12601132E+03</pdfrwt>
<pdfrwt beam="2">  1       -1 0.28478173E-01 0.12601132E+03</pdfrwt>
<totfact> 0.63606771E+03</totfact>
</mgrwt>
</event>
<event>
 7    1  0.5206756E-006  0.1346299E+03  0.7546771E-02  0.1233593E+00
          3   -1    0    0  501    0  0.00000000000E+00  0.00000000000E+00  0.10519674110E+03  0.10519674110E+03  0.00000000000E+00 0. -1.
         -3   -1    0    0    0  501 -0.00000000000E+00 -0.00000000000E+00 -0.15104143985E+03  0.15104143985E+03  0.00000000000E+00 0.  1.
         23    2    1    2    0    0 -0.32546155845E+02 -0.37946009227E+02  0.16651282845E+02  0.13565571820E+03  0.12500422706E+03 0.  0.
          5    1    3    3  502    0  0.17500943648E+02  0.38110236317E+02 -0.33122738472E+01  0.42328882560E+02  0.47000000000E+01 0. -1.
         -5    1    3    3    0  502 -0.50047099493E+02 -0.76056245544E+02  0.19963556692E+02  0.93326835636E+02  0.47000000000E+01 0. -1.
        -11    1    1    2    0    0  0.56384126489E+02  0.17748575927E+02 -0.10669784152E+02  0.60066845774E+02  0.00000000000E+00 0. -1.
         11    1    1    2    0    0 -0.23837970643E+02  0.20197433300E+02 -0.51826197445E+02  0.60515616975E+02  0.00000000000E+00 0.  1.
<mgrwt>
<rscale>  0 0.12594913E+03</rscale>
<asrwt>0</asrwt>
<pdfrwt beam="1">  1        3 0.16184114E-01 0.13462990E+03</pdfrwt>
<pdfrwt beam="2">  1       -3 0.23237145E-01 0.13462990E+03</pdfrwt>
<totfact> 0.12829800E+03</totfact>
</mgrwt>
</event>
<event>
 7    1  0.5206756E-006  0.1253700E+03  0.7546771E-02  0.1253807E+00
         -1   -1    0    0    0  501 -0.00000000000E+00  0.00000000000E+00  0.93423019235E+01  0.93423019235E+01  0.00000000000E+00 0.  1.
          1   -1    0    0  501    0  0.00000000000E+00 -0.00000000000E+00 -0.12181378189E+04  0.12181378189E+04  0.00000000000E+00 0. -1.
         23    2    1    2    0    0 -0.42298889079E+01 -0.85372441769E+01 -0.81923577198E+03  0.82877311754E+03  0.12500741488E+03 0.  0.
          5    1    3    3  502    0  0.33355442657E+02 -0.26715416419E+02 -0.71635748198E+03  0.71764645266E+03  0.47000000000E+01 0. -1.
         -5    1    3    3    0  502 -0.37585331565E+02  0.18178172242E+02 -0.10287829000E+03  0.11112666488E+03  0.47000000000E+01 0. -1.
        -11    1    1    2    0    0  0.70255902220E+01 -0.37785198772E+02 -0.16816467084E+03  0.17250054111E+03  0.00000000000E+00 0.  1.
         11    1    1    2    0    0 -0.27957013141E+01  0.46322442949E+02 -0.22139507420E+03  0.22620646221E+03  0.00000000000E+00 0. -1.
<mgrwt>
<rscale>  0 0.11373409E+03</rscale>
<asrwt>0</asrwt>
<pdfrwt beam="2">  1        1 0.18740560E+00 0.12536997E+03</pdfrwt>
<pdfrwt beam="1">  1       -1 0.14372789E-02 0.12536997E+03</pdfrwt>
<totfact> 0.11876943E+04</totfact>
</mgrwt>
</event>
<event>
 7    1  0.5206756E-006  0.1320378E+03  0.7546771E-02  0.1237420E+00
          1   -1    0    0  501    0  0.00000000000E+00  0.00000000000E+00  0.23409379879E+03  0.23409379879E+03  0.00000000000E+00 0. -1.
         -1   -1    0    0    0  501 -0.00000000000E+00 -0.00000000000E+00 -0.59011711811E+02  0.59011711811E+02  0.00000000000E+00 0.  1.
         23    2    1    2    0    0 -0.38551154015E+02  0.17913492270E+02  0.11763516627E+03  0.17683897915E+03  0.12500762986E+03 0.  0.
          5    1    3    3  502    0 -0.69473230743E+02 -0.17802502738E+02  0.10581321906E+03  0.12791397977E+03  0.47000000000E+01 0. -1.
         -5    1    3    3    0  502  0.30922076728E+02  0.35715995008E+02  0.11821947215E+02  0.48924999382E+02  0.47000000000E+01 0. -1.
        -11    1    1    2    0    0  0.30547079620E+02 -0.23939577079E+02  0.81467871472E+02  0.90239910828E+02  0.00000000000E+00 0. -1.
         11    1    1    2    0    0  0.80040743950E+01  0.60260848091E+01 -0.24020950768E+02  0.26026620619E+02  0.00000000000E+00 0.  1.
<mgrwt>
<rscale>  0 0.12350748E+03</rscale>
<asrwt>0</asrwt>
<pdfrwt beam="1">  1        1 0.36014430E-01 0.13203784E+03</pdfrwt>
<pdfrwt beam="2">  1       -1 0.90787250E-02 0.13203784E+03</pdfrwt>
<totfact> 0.80431590E+03</totfact>
</mgrwt>
</event>
<event>
 7    1  0.5206756E-006  0.1528229E+03  0.7546771E-02  0.1205894E+00
         -1   -1    0    0    0  501 -0.00000000000E+00  0.00000000000E+00  0.95294248367E+02  0.95294248367E+02  0.00000000000E+00 0.  1.
          1   -1    0    0  501    0  0.00000000000E+00 -0.00000000000E+00 -0.28830001258E+03  0.28830001258E+03  0.00000000000E+00 0. -1.
         23    2    1    2    0    0 -0.72986222288E+02  0.49026734497E+02 -0.20629160610E+03  0.25673153111E+03  0.12499697188E+03 0.  0.
          5    1    3    3  502    0 -0.50913792854E+02  0.72891112747E+02 -0.20540803897E+03  0.22387469954E+03  0.47000000000E+01 0. -1.
         -5    1    3    3    0  502 -0.22072429434E+02 -0.23864378249E+02 -0.88356713375E+00  0.32856831576E+02  0.47000000000E+01 0. -1.
        -11    1    1    2    0    0 -0.12228414805E+02 -0.15680660901E+01 -0.20260053485E+02  0.23716296656E+02  0.00000000000E+00 0. -1.
         11    1    1    2    0    0  0.85214637093E+02 -0.47458668407E+02  0.33545895370E+02  0.10314643318E+03  0.00000000000E+00 0.  1.
<mgrwt>
<rscale>  0 0.14567206E+03</rscale>
<asrwt>0</asrwt>
<pdfrwt beam="2">  1        1 0.44353848E-01 0.15282294E+03</pdfrwt>
<pdfrwt beam="1">  1       -1 0.14660654E-01 0.15282294E+03</pdfrwt>
<totfact> 0.29935646E+03</totfact>
</mgrwt>
</event>
<event>
 7    1  0.5206756E-006  0.1306518E+03  0.7546771E-02  0.1241047E+00
         -1   -1    0    0    0  501 -0.00000000000E+00  0.00000000000E+00  0.16143828089E+03  0.16143828089E+03  0.00000000000E+00 0.  1.
          1   -1    0    0  501    0  0.00000000000E+00 -0.00000000000E+00 -0.11095081793E+03  0.11095081793E+03  0.00000000000E+00 0. -1.
         23    2    1    2    0    0  0.20839836791E+02  0.31777350831E+02 -0.43183622672E+02  0.13760352225E+03  0.12500322094E+03 0.  0.
          5    1    3    3  502    0  0.57266810925E+02  0.37299268658E+02  0.13513200575E+02  0.69824205443E+02  0.47000000000E+01 0. -1.
         -5    1    3    3    0  502 -0.36426974134E+02 -0.55219178264E+01 -0.56696823247E+02  0.67779316811E+02  0.47000000000E+01 0. -1.
        -11    1    1    2    0    0  0.33360140276E+02 -0.49186913628E+01  0.49459744273E+02  0.59861162597E+02  0.00000000000E+00 0. -1.
         11    1    1    2    0    0 -0.54199977066E+02 -0.26858659469E+02  0.44211341360E+02  0.74924413960E+02  0.00000000000E+00 0.  1.
<mgrwt>
<rscale>  0 0.12125133E+03</rscale>
<asrwt>0</asrwt>
<pdfrwt beam="2">  1        1 0.17069357E-01 0.13065184E+03</pdfrwt>
<pdfrwt beam="1">  1       -1 0.24836659E-01 0.13065184E+03</pdfrwt>
<totfact> 0.42280456E+03</totfact>
</mgrwt>
</event>
<event>
 7    1  0.5206756E-006  0.1451565E+03  0.7546771E-02  0.1216802E+00
          1   -1    0    0  501    0  0.00000000000E+00  0.00000000000E+00  0.52199626896E+03  0.52199626896E+03  0.00000000000E+00 0. -1.
         -1   -1    0    0    0  501 -0.00000000000E+00 -0.00000000000E+00 -0.32871881891E+02  0.32871881891E+02  0.00000000000E+00 0.  1.
         23    2    1    2    0    0 -0.13427014519E+02 -0.72561324943E+02  0.26248932819E+03  0.29995174929E+03  0.12499989557E+03 0.  0.
          5    1    3    3  502    0 -0.11587456044E+02  0.34846984889E+02  0.79741333915E+02  0.87916732355E+02  0.47000000000E+01 0.  1.
         -5    1    3    3    0  502 -0.18395584749E+01 -0.10740830983E+03  0.18274799427E+03  0.21203501694E+03  0.47000000000E+01 0.  1.
        -11    1    1    2    0    0 -0.34871037731E+02  0.27487436590E+02  0.13379696226E+03  0.14097225100E+03  0.00000000000E+00 0.  1.
         11    1    1    2    0    0  0.48298052250E+02  0.45073888353E+02  0.92838096625E+02  0.11394415056E+03  0.00000000000E+00 0. -1.
<mgrwt>
<rscale>  0 0.13745013E+03</rscale>
<asrwt>0</asrwt>
<pdfrwt beam="1">  1        1 0.80307112E-01 0.14515648E+03</pdfrwt>
<pdfrwt beam="2">  1       -1 0.50572130E-02 0.14515648E+03</pdfrwt>
<totfact> 0.70959451E+03</totfact>
</mgrwt>
</event>
<event>
 7    1  0.5206756E-006  0.1818418E+03  0.7546771E-02  0.1169169E+00
          1   -1    0    0  501    0  0.00000000000E+00  0.00000000000E+00  0.22222877410E+04  0.22222877410E+04  0.00000000000E+00 0. -1.
         -1   -1    0    0    0  501 -0.00000000000E+00 -0.00000000000E+00 -0.16083892236E+02  0.16083892236E+02  0.00000000000E+00 0.  1.
         23    2    1    2    0    0 -0.88782303800E+01  0.13959191576E+03  0.15529762278E+04  0.15635861401E+04  0.11619693355E+03 0.  0.
          5    1    3    3  502    0  0.31070026944E+02  0.85664422846E+02  0.12453990259E+04  0.12487371876E+04  0.47000000000E+01 0. -1.
         -5    1    3    3    0  502 -0.39948257324E+02  0.53927492917E+02  0.30757720191E+03  0.31484895250E+03  0.47000000000E+01 0.  1.
        -11    1    1    2    0    0 -0.69021815051E+01 -0.12393333096E+03  0.63190911772E+03  0.64398466107E+03  0.00000000000E+00 0.  1.
         11    1    1    2    0    0  0.15780411885E+02 -0.15658584806E+02  0.21318503221E+02  0.30800832082E+02  0.00000000000E+00 0. -1.
<mgrwt>
<rscale>  0 0.17859586E+03</rscale>
<asrwt>0</asrwt>
<pdfrwt beam="1">  1        1 0.34189018E+00 0.18184184E+03</pdfrwt>
<pdfrwt beam="2">  1       -1 0.24744467E-02 0.18184184E+03</pdfrwt>
<totfact> 0.12213467E+03</totfact>
</mgrwt>
</event>
<event>
 7    1  0.5206756E-006  0.1457312E+03  0.7546771E-02  0.1214924E+00
         -1   -1    0    0    0  501 -0.00000000000E+00  0.00000000000E+00  0.71438816477E+02  0.71438816477E+02  0.00000000000E+00 0.  1.
          1   -1    0    0  501    0  0.00000000000E+00 -0.00000000000E+00 -0.16739944388E+04  0.16739944388E+04  0.00000000000E+00 0. -1.
         23    2    1    2    0    0 -0.77555931385E+02  0.12764652290E+02 -0.16179081481E+04  0.16244581705E+04  0.12271802388E+03 0.  0.
          5    1    3    3  502    0 -0.43420757789E+02  0.20977802141E+02 -0.15121393950E+04  0.15129154207E+04  0.47000000000E+01 0. -1.
         -5    1    3    3    0  502 -0.34135173596E+02 -0.82131498510E+01 -0.10576875309E+03  0.11154274982E+03  0.47000000000E+01 0.  1.
        -11    1    1    2    0    0  0.57499413539E+02  0.90527928110E+01  0.49036592580E+02  0.76109940394E+02  0.00000000000E+00 0.  1.
         11    1    1    2    0    0  0.20056517846E+02 -0.21817445101E+02 -0.33684066822E+02  0.44865144338E+02  0.00000000000E+00 0. -1.
<mgrwt>
<rscale>  0 0.13882155E+03</rscale>
<asrwt>0</asrwt>
<pdfrwt beam="2">  1        1 0.25753760E+00 0.14573116E+03</pdfrwt>
<pdfrwt beam="1">  1       -1 0.10990588E-01 0.14573116E+03</pdfrwt>
<totfact> 0.29869375E+02</totfact>
</mgrwt>
</event>
<event>
 6    1  0.5206756E-006  0.2074440E+03  0.7546771E-02  0.1161323E+00
         -2   -1    0    0    0  501 -0.00000000000E+00  0.00000000000E+00  0.23928897682E+02  0.23928897682E+02  0.00000000000E+00 0.  1.
          2   -1    0    0  501    0  0.00000000000E+00 -0.00000000000E+00 -0.12672354314E+04  0.12672354314E+04  0.00000000000E+00 0. -1.
          5    1    1    2  502    0  0.17799589467E+02 -0.27247274492E+02 -0.51088025967E+03  0.51193746597E+03  0.47000000000E+01 0. -1.
         -5    1    1    2    0  502 -0.76131508724E+02 -0.61356369367E+02 -0.13726265337E+03  0.16859340644E+03  0.47000000000E+01 0.  1.
        -11    1    1    2    0    0  0.29908859478E+02  0.10114233675E+03 -0.45345614970E+03  0.46556072843E+03  0.00000000000E+00 0.  1.
         11    1    1    2    0    0  0.28423059778E+02 -0.12538692895E+02 -0.14170747094E+03  0.14507272820E+03  0.00000000000E+00 0. -1.
<mgrwt>
<rscale>  0 0.18686188E+03</rscale>
<asrwt>0</asrwt>
<pdfrwt beam="2">  1        2 0.19495932E+00 0.20744405E+03</pdfrwt>
<pdfrwt beam="1">  1       -2 0.36813685E-02 0.20744405E+03</pdfrwt>
<totfact> 0.56583547E+03</totfact>
</mgrwt>
</event>
<event>
 7    1  0.5206756E-006  0.1687580E+03  0.7546771E-02  0.1185874E+00
          3   -1    0    0  501    0  0.00000000000E+00  0.00000000000E+00  0.10571732345E+04  0.10571732345E+04  0.00000000000E+00 0. -1.
         -3   -1    0    0    0  501 -0.00000000000E+00 -0.00000000000E+00 -0.25743888368E+02  0.25743888368E+02  0.00000000000E+00 0.  1.
         23    2    1    2    0    0 -0.30981043990E+02  0.10906187793E+03  0.71695855248E+03  0.73655197694E+03  0.12499972185E+03 0.  0.
          5    1    3    3  502    0  0.44388646102E+02  0.28681939460E+02  0.15377317119E+03  0.16266924643E+03  0.47000000000E+01 0.  1.
         -5    1    3    3    0  502 -0.75369690092E+02  0.80379938472E+02  0.56318538129E+03  0.57388273052E+03  0.47000000000E+01 0.  1.
        -11    1    1    2    0    0  0.56512762986E+01 -0.11787713135E+03  0.24645981880E+03  0.27325701693E+03  0.00000000000E+00 0.  1.
         11    1    1    2    0    0  0.25329767691E+02  0.88152534166E+01  0.68010974801E+02  0.73108128942E+02  0.00000000000E+00 0. -1.
<mgrwt>
<rscale>  0 0.16252648E+03</rscale>
<asrwt>0</asrwt>
<pdfrwt beam="1">  1        3 0.16264200E+00 0.16875796E+03</pdfrwt>
<pdfrwt beam="2">  1       -3 0.39605990E-02 0.16875796E+03</pdfrwt>
<totfact> 0.22166186E+02</totfact>
</mgrwt>
</event>
<event>
 7    1  0.5206756E-006  0.1420348E+03  0.7546771E-02  0.1222021E+00
         -3   -1    0    0    0  501 -0.00000000000E+00  0.00000000000E+00  0.56569565302E+02  0.56569565302E+02  0.00000000000E+00 0.  1.
          3   -1    0    0  501    0  0.00000000000E+00 -0.00000000000E+00 -0.45787121947E+03  0.45787121947E+03  0.00000000000E+00 0. -1.
         23    2    1    2    0    0  0.21924655702E+02  0.63866366443E+02 -0.37322757286E+03  0.39934032717E+03  0.12495708253E+03 0.  0.
          5    1    3    3  502    0  0.33404395616E+02  0.91308825879E+02 -0.18825365700E+03  0.21193084887E+03  0.47000000000E+01 0.  1.
         -5    1    3    3    0  502 -0.11479739914E+02 -0.27442459435E+02 -0.18497391586E+03  0.18740947831E+03  0.47000000000E+01 0.  1.
        -11    1    1    2    0    0 -0.15837452408E+02  0.14404038211E+01  0.25742132742E+02  0.30258173442E+02  0.00000000000E+00 0.  1.
         11    1    1    2    0    0 -0.60872032940E+01 -0.65306770264E+02 -0.53816214051E+02  0.84842284158E+02  0.00000000000E+00 0. -1.
<mgrwt>
<rscale>  0 0.13373208E+03</rscale>
<asrwt>0</asrwt>
<pdfrwt beam="2">  1        3 0.70441724E-01 0.14203477E+03</pdfrwt>
<pdfrwt beam="1">  1       -3 0.87030103E-02 0.14203477E+03</pdfrwt>
<totfact> 0.42663627E+02</totfact>
</mgrwt>
</event>
<event>
 7    1  0.5206756E-006  0.1264815E+03  0.7546771E-02  0.1247479E+00
          1   -1    0    0  501    0  0.00000000000E+00  0.00000000000E+00  0.33127969141E+03  0.33127969141E+03  0.00000000000E+00 0. -1.
         -1   -1    0    0    0  501 -0.00000000000E+00 -0.00000000000E+00 -0.53183089080E+02  0.53183089080E+02  0.00000000000E+00 0.  1.
         23    2    1    2    0    0  0.18260641221E+02 -0.61644976638E+01  0.25967935207E+03  0.28884413846E+03  0.12500447344E+03 0.  0.
          5    1    3    3  502    0 -0.49385927216E+02 -0.19385308678E+02  0.77796199422E+02  0.94282016546E+02  0.47000000000E+01 0. -1.
         -5    1    3    3    0  502  0.67646568437E+02  0.13220811014E+02  0.18188315265E+03  0.19456212191E+03  0.47000000000E+01 0. -1.
        -11    1    1    2    0    0  0.11976245012E+02  0.20349014411E+02  0.46389965739E+02  0.52053258816E+02  0.00000000000E+00 0. -1.
         11    1    1    2    0    0 -0.30236886233E+02 -0.14184516748E+02 -0.27972715474E+02  0.43565383223E+02  0.00000000000E+00 0.  1.
<mgrwt>
<rscale>  0 0.11738257E+03</rscale>
<asrwt>0</asrwt>
<pdfrwt beam="1">  1        1 0.50966105E-01 0.12648150E+03</pdfrwt>
<pdfrwt beam="2">  1       -1 0.81820139E-02 0.12648150E+03</pdfrwt>
<totfact> 0.61109354E+03</totfact>
</mgrwt>
</event>
<event>
 7    1  0.5206756E-006  0.1653802E+03  0.7546771E-02  0.1193723E+00
          1   -1    0    0  501    0  0.00000000000E+00  0.00000000000E+00  0.68624832340E+03  0.68624832340E+03  0.00000000000E+00 0. -1.
         -1   -1    0    0    0  501 -0.00000000000E+00 -0.00000000000E+00 -0.32926636766E+02  0.32926636766E+02  0.00000000000E+00 0.  1.
         23    2    1    2    0    0 -0.10240095755E+03  0.35167614799E+02  0.43314218245E+03  0.46364076706E+03  0.12501157316E+03 0.  0.
          5    1    3    3  502    0 -0.77913052251E+02 -0.27181958218E+02  0.33274533449E+03  0.34285689462E+03  0.47000000000E+01 0.  1.
         -5    1    3    3    0  502 -0.24487905302E+02  0.62349573017E+02  0.10039684796E+03  0.12078387244E+03  0.47000000000E+01 0.  1.
        -11    1    1    2    0    0  0.33730696652E+02 -0.48666390684E+02  0.11203322141E+03  0.12671866547E+03  0.00000000000E+00 0. -1.
         11    1    1    2    0    0  0.68670260900E+02  0.13498775884E+02  0.10814628277E+03  0.12881552764E+03  0.00000000000E+00 0.  1.
<mgrwt>
<rscale>  0 0.15562764E+03</rscale>
<asrwt>0</asrwt>
<pdfrwt beam="1">  1        1 0.10557665E+00 0.16538020E+03</pdfrwt>
<pdfrwt beam="2">  1       -1 0.50656369E-02 0.16538020E+03</pdfrwt>
<totfact> 0.48990562E+03</totfact>
</mgrwt>
</event>
<event>
 7    1  0.5206756E-006  0.1476978E+03  0.7546771E-02  0.1213340E+00
          2   -1    0    0  501    0  0.00000000000E+00  0.00000000000E+00  0.58840708052E+03  0.58840708052E+03  0.00000000000E+00 0. -1.
         -2   -1    0    0    0  501 -0.00000000000E+00 -0.00000000000E+00 -0.40719848047E+02  0.40719848047E+02  0.00000000000E+00 0.  1.
         23    2    1    2    0    0 -0.63421518251E+02 -0.46552405736E+02  0.45427621711E+03  0.47768349213E+03  0.12500088703E+03 0.  0.
          5    1    3    3  502    0 -0.96678829045E+02 -0.88697676505E+01  0.29521703695E+03  0.31080646336E+03  0.47000000000E+01 0.  1.
         -5    1    3    3    0  502  0.33257310794E+02 -0.37682638085E+02  0.15905918017E+03  0.16687702877E+03  0.47000000000E+01 0.  1.
        -11    1    1    2    0    0  0.26038956120E+02  0.19135911296E+02 -0.13418002555E+02  0.34989328795E+02  0.00000000000E+00 0. -1.
         11    1    1    2    0    0  0.37382562131E+02  0.27416494440E+02  0.10682901791E+03  0.11645410764E+03  0.00000000000E+00 0.  1.
<mgrwt>
<rscale>  0 0.13999188E+03</rscale>
<asrwt>0</asrwt>
<pdfrwt beam="1">  1        2 0.90524160E-01 0.14769779E+03</pdfrwt>
<pdfrwt beam="2">  1       -2 0.62645924E-02 0.14769779E+03</pdfrwt>
<totfact> 0.69016638E+03</totfact>
</mgrwt>
</event>
<event>
 7    1  0.5206756E-006  0.1258480E+03  0.7546771E-02  0.1249302E+00
          1   -1    0    0  501    0  0.00000000000E+00  0.00000000000E+00  0.51795312189E+03  0.51795312189E+03  0.00000000000E+00 0. -1.
         -1   -1    0    0    0  501 -0.00000000000E+00 -0.00000000000E+00 -0.25510422918E+02  0.25510422918E+02  0.00000000000E+00 0.  1.
         23    2    1    2    0    0 -0.13040233922E+02  0.65759125883E+01  0.36714076137E+03  0.38811089926E+03  0.12499776455E+03 0.  0.
          5    1    3    3  502    0 -0.19659288455E+02  0.63316842771E+02  0.16178165326E+03  0.17490255440E+03  0.47000000000E+01 0.  1.
         -5    1    3    3    0  502  0.66190545330E+01 -0.56740930183E+02  0.20535910810E+03  0.21320834487E+03  0.47000000000E+01 0.  1.
        -11    1    1    2    0    0  0.39486679567E+02  0.27002757851E+02  0.78865012270E+02  0.92239020784E+02  0.00000000000E+00 0.  1.
         11    1    1    2    0    0 -0.26446445645E+02 -0.33578670439E+02  0.46436925330E+02  0.63113624756E+02  0.00000000000E+00 0. -1.
<mgrwt>
<rscale>  0 0.11631567E+03</rscale>
<asrwt>0</asrwt>
<pdfrwt beam="1">  1        1 0.79685088E-01 0.12584805E+03</pdfrwt>
<pdfrwt beam="2">  1       -1 0.39246808E-02 0.12584805E+03</pdfrwt>
<totfact> 0.10318366E+04</totfact>
</mgrwt>
</event>
<event>
 7    1  0.5206756E-006  0.1319072E+03  0.7546771E-02  0.1237602E+00
          2   -1    0    0  501    0  0.00000000000E+00  0.00000000000E+00  0.34908454436E+03  0.34908454436E+03  0.00000000000E+00 0. -1.
         -2   -1    0    0    0  501 -0.00000000000E+00 -0.00000000000E+00 -0.47574737014E+02  0.47574737014E+02  0.00000000000E+00 0.  1.
         23    2    1    2    0    0 -0.42036525728E+02  0.30700543757E+01  0.25140168774E+03  0.28390548213E+03  0.12499207758E+03 0.  0.
          5    1    3    3  502    0  0.27078896026E+02  0.11512756299E+02  0.82235853245E+01  0.30911608227E+02  0.47000000000E+01 0. -1.
         -5    1    3    3    0  502 -0.69115421754E+02 -0.84427019231E+01  0.24317810241E+03  0.25299387391E+03  0.47000000000E+01 0. -1.
        -11    1    1    2    0    0  0.66454942727E+02 -0.21970213335E+02  0.37449158047E+02  0.79381289517E+02  0.00000000000E+00 0. -1.
         11    1    1    2    0    0 -0.24418417000E+02  0.18900158960E+02  0.12658961559E+02  0.33372509723E+02  0.00000000000E+00 0.  1.
<mgrwt>
<rscale>  0 0.12339292E+03</rscale>
<asrwt>0</asrwt>
<pdfrwt beam="1">  1        2 0.53705313E-01 0.13190722E+03</pdfrwt>
<pdfrwt beam="2">  1       -2 0.73191905E-02 0.13190722E+03</pdfrwt>
<totfact> 0.95368533E+03</totfact>
</mgrwt>
</event>
<event>
 7    1  0.5206756E-006  0.1340655E+03  0.7546771E-02  0.1234371E+00
         -1   -1    0    0    0  501 -0.00000000000E+00  0.00000000000E+00  0.21562320597E+02  0.21562320597E+02  0.00000000000E+00 0.  1.
          1   -1    0    0  501    0  0.00000000000E+00 -0.00000000000E+00 -0.65765766960E+03  0.65765766960E+03  0.00000000000E+00 0. -1.
         23    2    1    2    0    0  0.97573512062E+01 -0.47470431773E+02 -0.39500654419E+03  0.41713755184E+03  0.12499967761E+03 0.  0.
          5    1    3    3  502    0  0.48480523080E+02 -0.72173974667E+02 -0.23543015533E+03  0.25101572017E+03  0.47000000000E+01 0. -1.
         -5    1    3    3    0  502 -0.38723171874E+02  0.24703542894E+02 -0.15957638886E+03  0.16612183166E+03  0.47000000000E+01 0. -1.
        -11    1    1    2    0    0 -0.50177485389E+02  0.22494265616E+02 -0.11972708765E+03  0.13175108175E+03  0.00000000000E+00 0.  1.
         11    1    1    2    0    0  0.40420134183E+02  0.24976166157E+02 -0.12136171716E+03  0.13033135661E+03  0.00000000000E+00 0. -1.
<mgrwt>
<rscale>  0 0.12544787E+03</rscale>
<asrwt>0</asrwt>
<pdfrwt beam="2">  1        1 0.10117810E+00 0.13406553E+03</pdfrwt>
<pdfrwt beam="1">  1       -1 0.33172802E-02 0.13406553E+03</pdfrwt>
<totfact> 0.95984349E+03</totfact>
</mgrwt>
</event>
<event>
 7    1  0.5206756E-006  0.1273669E+03  0.7546771E-02  0.1246828E+00
          2   -1    0    0  501    0  0.00000000000E+00  0.00000000000E+00  0.79967098484E+03  0.79967098484E+03  0.00000000000E+00 0. -1.
         -2   -1    0    0    0  501 -0.00000000000E+00 -0.00000000000E+00 -0.16884900813E+02  0.16884900813E+02  0.00000000000E+00 0.  1.
         23    2    1    2    0    0 -0.18802852738E+02 -0.15661720595E+02  0.57392554895E+03  0.58788848279E+03  0.12499398265E+03 0.  0.
          5    1    3    3  502    0 -0.22313784470E+02 -0.66087249989E+02  0.42077931470E+03  0.42654747833E+03  0.47000000000E+01 0.  1.
         -5    1    3    3    0  502  0.35109317326E+01  0.50425529395E+02  0.15314623425E+03  0.16134100446E+03  0.47000000000E+01 0.  1.
        -11    1    1    2    0    0 -0.19560986188E+02 -0.40683064307E+00  0.44457163656E+01  0.20063949906E+02  0.00000000000E+00 0.  1.
         11    1    1    2    0    0  0.38363838925E+02  0.16068551238E+02  0.20441481871E+03  0.20860345295E+03  0.00000000000E+00 0. -1.
<mgrwt>
<rscale>  0 0.11776607E+03</rscale>
<asrwt>0</asrwt>
<pdfrwt beam="1">  1        2 0.12302628E+00 0.12736692E+03</pdfrwt>
<pdfrwt beam="2">  1       -2 0.25976777E-02 0.12736692E+03</pdfrwt>
<totfact> 0.17627650E+04</totfact>
</mgrwt>
</event>
<event>
 7    1  0.5206756E-006  0.1426791E+03  0.7546771E-02  0.1221951E+00
          1   -1    0    0  501    0  0.00000000000E+00  0.00000000000E+00  0.54497345505E+03  0.54497345505E+03  0.00000000000E+00 0. -1.
         -1   -1    0    0    0  501 -0.00000000000E+00 -0.00000000000E+00 -0.35374886170E+02  0.35374886170E+02  0.00000000000E+00 0.  1.
         23    2    1    2    0    0 -0.61601415067E+02  0.30598018653E+02  0.40077583551E+03  0.42541579584E+03  0.12500542361E+03 0.  0.
          5    1    3    3  502    0 -0.35671256688E+02  0.46427818040E+02  0.38750616675E+03  0.39193251984E+03  0.47000000000E+01 0. -1.
         -5    1    3    3    0  502 -0.25930158379E+02 -0.15829799387E+02  0.13269668764E+02  0.33483275994E+02  0.47000000000E+01 0. -1.
        -11    1    1    2    0    0  0.72101304480E+01 -0.44480067207E+02  0.80031129735E+02  0.91844673697E+02  0.00000000000E+00 0. -1.
         11    1    1    2    0    0  0.54391284619E+02  0.13882048555E+02  0.28791603636E+02  0.63087871691E+02  0.00000000000E+00 0.  1.
<mgrwt>
<rscale>  0 0.13378105E+03</rscale>
<asrwt>0</asrwt>
<pdfrwt beam="1">  1        1 0.83842064E-01 0.14267911E+03</pdfrwt>
<pdfrwt beam="2">  1       -1 0.54422906E-02 0.14267911E+03</pdfrwt>
<totfact> 0.60049166E+03</totfact>
</mgrwt>
</event>
<event>
 7    1  0.5206756E-006  0.1485412E+03  0.7546771E-02  0.1211636E+00
          1   -1    0    0  501    0  0.00000000000E+00  0.00000000000E+00  0.80943252412E+03  0.80943252412E+03  0.00000000000E+00 0. -1.
         -1   -1    0    0    0  501 -0.00000000000E+00 -0.00000000000E+00 -0.55186329440E+02  0.55186329440E+02  0.00000000000E+00 0.  1.
         23    2    1    2    0    0 -0.34486257147E+02  0.72465668037E+02  0.72443551607E+03  0.73950747780E+03  0.12499567113E+03 0.  0.
          5    1    3    3  502    0 -0.28152937647E+02  0.95862823289E+02  0.68956104752E+03  0.69677743723E+03  0.47000000000E+01 0. -1.
         -5    1    3    3    0  502 -0.63333195001E+01 -0.23397155252E+02  0.34874468556E+02  0.42730040567E+02  0.47000000000E+01 0. -1.
        -11    1    1    2    0    0  0.54371621035E+02 -0.64140589741E+02 -0.49257694670E+01  0.84229161405E+02  0.00000000000E+00 0.  1.
         11    1    1    2    0    0 -0.19885363887E+02 -0.83250782964E+01  0.34736448074E+02  0.40882214352E+02  0.00000000000E+00 0. -1.
<mgrwt>
<rscale>  0 0.14126559E+03</rscale>
<asrwt>0</asrwt>
<pdfrwt beam="1">  1        1 0.12452807E+00 0.14854122E+03</pdfrwt>
<pdfrwt beam="2">  1       -1 0.84902051E-02 0.14854122E+03</pdfrwt>
<totfact> 0.17641336E+03</totfact>
</mgrwt>
</event>
<event>
 7    1  0.5206756E-006  0.2051212E+03  0.7546771E-02  0.1149448E+00
          3   -1    0    0  501    0  0.00000000000E+00  0.00000000000E+00  0.41755042378E+03  0.41755042378E+03  0.00000000000E+00 0. -1.
         -3   -1    0    0    0  501 -0.00000000000E+00 -0.00000000000E+00 -0.12288799884E+03  0.12288799884E+03  0.00000000000E+00 0.  1.
         23    2    1    2    0    0 -0.58580668198E+02 -0.15171415522E+03  0.28808467943E+03  0.35364881789E+03  0.12500329712E+03 0.  0.
          5    1    3    3  502    0  0.11074135800E+02 -0.49548475638E+02  0.13921157078E+02  0.52854295343E+02  0.47000000000E+01 0.  1.
         -5    1    3    3    0  502 -0.69654803998E+02 -0.10216567959E+03  0.27416352235E+03  0.30079452254E+03  0.47000000000E+01 0.  1.
        -11    1    1    2    0    0  0.24115863776E+02  0.13422553183E+03 -0.22768757556E+02  0.13826237595E+03  0.00000000000E+00 0.  1.
         11    1    1    2    0    0  0.34464804422E+02  0.17488623392E+02  0.29346503072E+02  0.48527228795E+02  0.00000000000E+00 0. -1.
<mgrwt>
<rscale>  0 0.20034510E+03</rscale>
<asrwt>0</asrwt>
<pdfrwt beam="1">  1        3 0.64238526E-01 0.20512119E+03</pdfrwt>
<pdfrwt beam="2">  1       -3 0.18905846E-01 0.20512119E+03</pdfrwt>
<totfact> 0.14498062E+02</totfact>
</mgrwt>
</event>
<event>
 7    1  0.5206756E-006  0.1368042E+03  0.7546771E-02  0.1233864E+00
          1   -1    0    0  501    0  0.00000000000E+00  0.00000000000E+00  0.62761949091E+03  0.62761949091E+03  0.00000000000E+00 0. -1.
         -1   -1    0    0    0  501 -0.00000000000E+00 -0.00000000000E+00 -0.22190700271E+02  0.22190700271E+02  0.00000000000E+00 0.  1.
         23    2    1    2    0    0  0.26682880175E+02  0.48766352431E+02  0.38839044636E+03  0.41177971370E+03  0.12500104226E+03 0.  0.
          5    1    3    3  502    0  0.75322444641E+02  0.43627434312E+02  0.26483269936E+03  0.27881045953E+03  0.47000000000E+01 0. -1.
         -5    1    3    3    0  502 -0.48639564466E+02  0.51389181192E+01  0.12355774700E+03  0.13296925417E+03  0.47000000000E+01 0. -1.
        -11    1    1    2    0    0 -0.48337632195E+02 -0.56604835623E+02  0.17300316915E+03  0.18833674797E+03  0.00000000000E+00 0.  1.
         11    1    1    2    0    0  0.21654752020E+02  0.78384831915E+01  0.44035175130E+02  0.49693729509E+02  0.00000000000E+00 0. -1.
<mgrwt>
<rscale>  0 0.12577413E+03</rscale>
<asrwt>0</asrwt>
<pdfrwt beam="1">  1        1 0.96556831E-01 0.13680422E+03</pdfrwt>
<pdfrwt beam="2">  1       -1 0.34139544E-02 0.13680422E+03</pdfrwt>
<totfact> 0.98343453E+03</totfact>
</mgrwt>
</event>
<event>
 7    1  0.5206756E-006  0.1279776E+03  0.7546771E-02  0.1246610E+00
          3   -1    0    0  501    0  0.00000000000E+00  0.00000000000E+00  0.70240124672E+02  0.70240124672E+02  0.00000000000E+00 0. -1.
         -3   -1    0    0    0  501 -0.00000000000E+00 -0.00000000000E+00 -0.17777936539E+03  0.17777936539E+03  0.00000000000E+00 0.  1.
         23    2    1    2    0    0  0.10874431106E+02  0.25088312742E+02 -0.41152620597E+02  0.13443144427E+03  0.12502239134E+03 0.  0.
          5    1    3    3  502    0 -0.11456362064E+02  0.38283520558E+02  0.35322277593E+02  0.53540914004E+02  0.47000000000E+01 0.  1.
         -5    1    3    3    0  502  0.22330793169E+02 -0.13195207816E+02 -0.76474898190E+02  0.80890530262E+02  0.47000000000E+01 0.  1.
        -11    1    1    2    0    0 -0.22327262569E+01  0.33174609335E+02 -0.22859208724E+02  0.40349512941E+02  0.00000000000E+00 0.  1.
         11    1    1    2    0    0 -0.86417048487E+01 -0.58262922077E+02 -0.43527411394E+02  0.73238532852E+02  0.00000000000E+00 0. -1.
<mgrwt>
<rscale>  0 0.11789527E+03</rscale>
<asrwt>0</asrwt>
<pdfrwt beam="1">  1        3 0.10806173E-01 0.12797763E+03</pdfrwt>
<pdfrwt beam="2">  1       -3 0.27350672E-01 0.12797763E+03</pdfrwt>
<totfact> 0.18749550E+03</totfact>
</mgrwt>
</event>
<event>
 7    1  0.5206756E-006  0.1291669E+03  0.7546771E-02  0.1243385E+00
         -1   -1    0    0    0  501 -0.00000000000E+00  0.00000000000E+00  0.22719447882E+02  0.22719447882E+02  0.00000000000E+00 0.  1.
          1   -1    0    0  501    0  0.00000000000E+00 -0.00000000000E+00 -0.56872889928E+03  0.56872889928E+03  0.00000000000E+00 0. -1.
         23    2    1    2    0    0  0.32346822054E+02  0.36381854729E+01 -0.35616177032E+03  0.37886051018E+03  0.12499810496E+03 0.  0.
          5    1    3    3  502    0  0.56688208196E+01  0.10885233926E+02  0.68137652653E+01  0.14803420017E+02  0.47000000000E+01 0.  1.
         -5    1    3    3    0  502  0.26678001235E+02 -0.72470484530E+01 -0.36297553559E+03  0.36405709016E+03  0.47000000000E+01 0.  1.
        -11    1    1    2    0    0 -0.49268017897E+02 -0.33618806187E+02 -0.10090550564E+03  0.11721553986E+03  0.00000000000E+00 0.  1.
         11    1    1    2    0    0  0.16921195843E+02  0.29980620714E+02 -0.88942175437E+02  0.95372297124E+02  0.00000000000E+00 0. -1.
<mgrwt>
<rscale>  0 0.11982559E+03</rscale>
<asrwt>0</asrwt>
<pdfrwt beam="2">  1        1 0.87496745E-01 0.12916687E+03</pdfrwt>
<pdfrwt beam="1">  1       -1 0.34953000E-02 0.12916687E+03</pdfrwt>
<totfact> 0.10820222E+04</totfact>
</mgrwt>
</event>
<event>
 7    1  0.5206756E-006  0.1792666E+03  0.7546771E-02  0.1174102E+00
         -1   -1    0    0    0  501 -0.00000000000E+00  0.00000000000E+00  0.26173557691E+03  0.26173557691E+03  0.00000000000E+00 0.  1.
          1   -1    0    0  501    0  0.00000000000E+00 -0.00000000000E+00 -0.11121381426E+03  0.11121381426E+03  0.00000000000E+00 0. -1.
         23    2    1    2    0    0 -0.60598973080E+02 -0.11332067804E+03  0.10887960452E+03  0.20974096772E+03  0.12499077425E+03 0.  0.
          5    1    3    3  502    0 -0.39050236133E+02  0.41471248103E+01 -0.10388728788E+02  0.40891750660E+02  0.47000000000E+01 0.  1.
         -5    1    3    3    0  502 -0.21548736946E+02 -0.11746780285E+03  0.11926833331E+03  0.16884921706E+03  0.47000000000E+01 0.  1.
        -11    1    1    2    0    0  0.94448004946E+01  0.99964811568E+02  0.84081542770E+01  0.10076142549E+03  0.00000000000E+00 0. -1.
         11    1    1    2    0    0  0.51154172585E+02  0.13355866474E+02  0.33234003861E+02  0.62446997965E+02  0.00000000000E+00 0.  1.
<mgrwt>
<rscale>  0 0.17364240E+03</rscale>
<asrwt>0</asrwt>
<pdfrwt beam="2">  1        1 0.17109818E-01 0.17926658E+03</pdfrwt>
<pdfrwt beam="1">  1       -1 0.40267012E-01 0.17926658E+03</pdfrwt>
<totfact> 0.18822300E+03</totfact>
</mgrwt>
</event>
<event>
 7    1  0.5206756E-006  0.1322535E+03  0.7546771E-02  0.1235796E+00
          2   -1    0    0  501    0  0.00000000000E+00  0.00000000000E+00  0.16932002616E+03  0.16932002616E+03  0.00000000000E+00 0. -1.
         -2   -1    0    0    0  501 -0.00000000000E+00 -0.00000000000E+00 -0.94664845943E+02  0.94664845943E+02  0.00000000000E+00 0.  1.
         23    2    1    2    0    0 -0.43949044929E+02 -0.20356217838E+01  0.88430351045E+02  0.15909407448E+03  0.12472102967E+03 0.  0.
          5    1    3    3  502    0 -0.83407072388E+02 -0.33715318908E+01  0.30843691679E+02  0.89115263945E+02  0.47000000000E+01 0.  1.
         -5    1    3    3    0  502  0.39458027459E+02  0.13359101070E+01  0.57586659366E+02  0.69978810533E+02  0.47000000000E+01 0.  1.
        -11    1    1    2    0    0 -0.10273054100E+02 -0.35723601133E+02  0.99993736350E+00  0.37184824770E+02  0.00000000000E+00 0.  1.
         11    1    1    2    0    0  0.54222099028E+02  0.37759222916E+02 -0.14775108191E+02  0.67705972856E+02  0.00000000000E+00 0. -1.
<mgrwt>
<rscale>  0 0.12453613E+03</rscale>
<asrwt>0</asrwt>
<pdfrwt beam="1">  1        2 0.26049235E-01 0.13225354E+03</pdfrwt>
<pdfrwt beam="2">  1       -2 0.14563822E-01 0.13225354E+03</pdfrwt>
<totfact> 0.69927790E+03</totfact>
</mgrwt>
</event>
<event>
 7    1  0.5206756E-006  0.1491146E+03  0.7546771E-02  0.1210266E+00
         -1   -1    0    0    0  501 -0.00000000000E+00  0.00000000000E+00  0.21631200879E+02  0.21631200879E+02  0.00000000000E+00 0.  1.
          1   -1    0    0  501    0  0.00000000000E+00 -0.00000000000E+00 -0.10526414404E+04  0.10526414404E+04  0.00000000000E+00 0. -1.
         23    2    1    2    0    0  0.31622831320E+02  0.74817949647E+02 -0.78374067068E+03  0.79779985154E+03  0.12504973086E+03 0.  0.
          5    1    3    3  502    0  0.80581222803E+01  0.17732371840E+02 -0.65112972132E+03  0.65143792823E+03  0.47000000000E+01 0. -1.
         -5    1    3    3    0  502  0.23564709040E+02  0.57085577807E+02 -0.13261094936E+03  0.14636192331E+03  0.47000000000E+01 0. -1.
        -11    1    1    2    0    0  0.17461036921E+02 -0.72367776297E+02 -0.14394303437E+03  0.16205425017E+03  0.00000000000E+00 0.  1.
         11    1    1    2    0    0 -0.49083868241E+02 -0.24501733499E+01 -0.10332653452E+03  0.11441853961E+03  0.00000000000E+00 0. -1.
<mgrwt>
<rscale>  0 0.14230124E+03</rscale>
<asrwt>0</asrwt>
<pdfrwt beam="2">  1        1 0.16194478E+00 0.14911460E+03</pdfrwt>
<pdfrwt beam="1">  1       -1 0.33278782E-02 0.14911460E+03</pdfrwt>
<totfact> 0.46387610E+03</totfact>
</mgrwt>
</event>
<event>
 7    1  0.5206756E-006  0.1497996E+03  0.7546771E-02  0.1208137E+00
         -1   -1    0    0    0  501 -0.00000000000E+00  0.00000000000E+00  0.60562285139E+02  0.60562285139E+02  0.00000000000E+00 0.  1.
          1   -1    0    0  501    0  0.00000000000E+00 -0.00000000000E+00 -0.41728587262E+03  0.41728587262E+03  0.00000000000E+00 0. -1.
         23    2    1    2    0    0 -0.49827935870E+01  0.82385896399E+02 -0.30557961944E+03  0.34032165032E+03  0.12501063037E+03 0.  0.
          5    1    3    3  502    0  0.46852255376E+02  0.41538262505E+02 -0.23639848450E+03  0.24459536905E+03  0.47000000000E+01 0.  1.
         -5    1    3    3    0  502 -0.51835048963E+02  0.40847633894E+02 -0.69181134939E+02  0.95726281277E+02  0.47000000000E+01 0.  1.
        -11    1    1    2    0    0  0.40075447544E+02 -0.27702613106E+01 -0.21798593068E+02  0.45704425424E+02  0.00000000000E+00 0.  1.
         11    1    1    2    0    0 -0.35092653957E+02 -0.79615635088E+02 -0.29345374973E+02  0.91822082010E+02  0.00000000000E+00 0. -1.
<mgrwt>
<rscale>  0 0.14392931E+03</rscale>
<asrwt>0</asrwt>
<pdfrwt beam="2">  1        1 0.64197827E-01 0.14979961E+03</pdfrwt>
<pdfrwt beam="1">  1       -1 0.93172746E-02 0.14979961E+03</pdfrwt>
<totfact> 0.37919664E+03</totfact>
</mgrwt>
</event>
<event>
 7    1  0.5206756E-006  0.2926739E+03  0.7546771E-02  0.1090645E+00
          2   -1    0    0  501    0  0.00000000000E+00  0.00000000000E+00  0.12117163977E+04  0.12117163977E+04  0.00000000000E+00 0. -1.
         -2   -1    0    0    0  501 -0.00000000000E+00 -0.00000000000E+00 -0.21755251843E+03  0.21755251843E+03  0.00000000000E+00 0.  1.
         23    2    1    2    0    0 -0.12848891930E+03  0.23135308141E+03  0.10936893933E+04  0.11321724815E+04  0.12499755210E+03 0.  0.
          5    1    3    3  502    0 -0.34225184570E+02  0.30393601540E+02  0.64027799762E+02  0.78846581510E+02  0.47000000000E+01 0. -1.
         -5    1    3    3    0  502 -0.94263734726E+02  0.20095947987E+03  0.10296615936E+04  0.10533259000E+04  0.47000000000E+01 0. -1.
        -11    1    1    2    0    0  0.12166038068E+03 -0.14131458640E+03 -0.45752997228E+02  0.19200103467E+03  0.00000000000E+00 0. -1.
         11    1    1    2    0    0  0.68285386128E+01 -0.90038495004E+02 -0.53772516873E+02  0.10509539996E+03  0.00000000000E+00 0.  1.
<mgrwt>
<rscale>  0 0.28943465E+03</rscale>
<asrwt>0</asrwt>
<pdfrwt beam="1">  1        2 0.18641790E+00 0.29267395E+03</pdfrwt>
<pdfrwt beam="2">  1       -2 0.33469619E-01 0.29267395E+03</pdfrwt>
<totfact> 0.16545945E+02</totfact>
</mgrwt>
</event>
<event>
 6    1  0.5206756E-006  0.3291633E+03  0.7546771E-02  0.1118376E+00
         -1   -1    0    0    0  501 -0.00000000000E+00  0.00000000000E+00  0.24633871397E+03  0.24633871397E+03  0.00000000000E+00 0.  1.
          1   -1    0    0  501    0  0.00000000000E+00 -0.00000000000E+00 -0.18410597347E+03  0.18410597347E+03  0.00000000000E+00 0. -1.
          5    1    1    2  502    0  0.47413691306E+02 -0.16569906561E+03  0.50306660476E+02  0.17960258505E+03  0.47000000000E+01 0. -1.
         -5    1    1    2    0  502 -0.45572435750E+02  0.14466429664E+03 -0.97041598994E+01  0.15205547126E+03  0.47000000000E+01 0.  1.
        -11    1    1    2    0    0  0.40894245417E+02  0.26857554982E+02  0.26054099734E+02  0.55429989002E+02  0.00000000000E+00 0. -1.
         11    1    1    2    0    0 -0.42735500972E+02 -0.58227860084E+01 -0.44238598076E+01  0.43356642119E+02  0.00000000000E+00 0.  1.
<mgrwt>
<rscale>  0 0.24213970E+03</rscale>
<asrwt>0</asrwt>
<pdfrwt beam="2">  1        1 0.28323996E-01 0.32916334E+03</pdfrwt>
<pdfrwt beam="1">  1       -1 0.37898264E-01 0.32916334E+03</pdfrwt>
<totfact> 0.11107357E+03</totfact>
</mgrwt>
</event>
<event>
 7    1  0.5206756E-006  0.1803368E+03  0.7546771E-02  0.1173123E+00
          1   -1    0    0  501    0  0.00000000000E+00  0.00000000000E+00  0.11103914500E+04  0.11103914500E+04  0.00000000000E+00 0. -1.
         -1   -1    0    0    0  501 -0.00000000000E+00 -0.00000000000E+00 -0.29196012991E+02  0.29196012991E+02  0.00000000000E+00 0.  1.
         23    2    1    2    0    0  0.82468486075E+02 -0.10047848420E+03  0.76400585251E+03  0.78500083243E+03  0.12499754900E+03 0.  0.
          5    1    3    3  502    0  0.41428181827E+02 -0.73457348142E+02  0.17912492141E+03  0.19804066177E+03  0.47000000000E+01 0. -1.
         -5    1    3    3    0  502  0.41040304248E+02 -0.27021136062E+02  0.58488093110E+03  0.58696017066E+03  0.47000000000E+01 0. -1.
        -11    1    1    2    0    0 -0.64385030443E+02  0.11413150737E+03  0.23215195732E+03  0.26658200315E+03  0.00000000000E+00 0.  1.
         11    1    1    2    0    0 -0.18083455632E+02 -0.13653023165E+02  0.85037627171E+02  0.88004627402E+02  0.00000000000E+00 0. -1.
<mgrwt>
<rscale>  0 0.17461077E+03</rscale>
<asrwt>0</asrwt>
<pdfrwt beam="1">  1        1 0.17082942E+00 0.18033681E+03</pdfrwt>
<pdfrwt beam="2">  1       -1 0.44916952E-02 0.18033681E+03</pdfrwt>
<totfact> 0.27246954E+03</totfact>
</mgrwt>
</event>
<event>
 7    1  0.5206756E-006  0.1519782E+03  0.7546771E-02  0.1206780E+00
          1   -1    0    0  501    0  0.00000000000E+00  0.00000000000E+00  0.37029436741E+03  0.37029436741E+03  0.00000000000E+00 0. -1.
         -1   -1    0    0    0  501 -0.00000000000E+00 -0.00000000000E+00 -0.57524743631E+02  0.57524743631E+02  0.00000000000E+00 0.  1.
         23    2    1    2    0    0  0.80414312939E+02 -0.31717172038E+02  0.23502039639E+03  0.27987849883E+03  0.12499978666E+03 0.  0.
          5    1    3    3  502    0  0.19909281281E+02 -0.68282969041E+02  0.68273653368E+02  0.98703217204E+02  0.47000000000E+01 0.  1.
         -5    1    3    3    0  502  0.60505031658E+02  0.36565797003E+02  0.16674674302E+03  0.18117528163E+03  0.47000000000E+01 0.  1.
        -11    1    1    2    0    0 -0.87487357411E+02  0.24105946844E+02  0.24930835947E+02  0.94109940820E+02  0.00000000000E+00 0.  1.
         11    1    1    2    0    0  0.70730444728E+01  0.76112251943E+01  0.52818391445E+02  0.53830671387E+02  0.00000000000E+00 0. -1.
<mgrwt>
<rscale>  0 0.14498082E+03</rscale>
<asrwt>0</asrwt>
<pdfrwt beam="1">  1        1 0.56968363E-01 0.15197825E+03</pdfrwt>
<pdfrwt beam="2">  1       -1 0.88499608E-02 0.15197825E+03</pdfrwt>
<totfact> 0.47723914E+03</totfact>
</mgrwt>
</event>
<event>
 7    1  0.5206756E-006  0.1914576E+03  0.7546771E-02  0.1161686E+00
          1   -1    0    0  501    0  0.00000000000E+00  0.00000000000E+00  0.41653567585E+03  0.41653567585E+03  0.00000000000E+00 0. -1.
         -1   -1    0    0    0  501 -0.00000000000E+00 -0.00000000000E+00 -0.87619378180E+02  0.87619378180E+02  0.00000000000E+00 0.  1.
         23    2    1    2    0    0  0.14179759592E+03 -0.30404482345E+02  0.24942366891E+03  0.31443311229E+03  0.12500009895E+03 0.  0.
          5    1    3    3  502    0  0.16735936334E+02 -0.43748610947E+02  0.16872500950E+02  0.50008037484E+02  0.47000000000E+01 0. -1.
         -5    1    3    3    0  502  0.12506165959E+03  0.13344128602E+02  0.23255116796E+03  0.26442507481E+03  0.47000000000E+01 0. -1.
        -11    1    1    2    0    0 -0.10746034582E+03  0.60486315515E+02  0.73818571448E+02  0.14372022050E+03  0.00000000000E+00 0. -1.
         11    1    1    2    0    0 -0.34337250099E+02 -0.30081833170E+02  0.56740573166E+01  0.46001721247E+02  0.00000000000E+00 0.  1.
<mgrwt>
<rscale>  0 0.18646784E+03</rscale>
<asrwt>0</asrwt>
<pdfrwt beam="1">  1        1 0.64082410E-01 0.19145761E+03</pdfrwt>
<pdfrwt beam="2">  1       -1 0.13479905E-01 0.19145761E+03</pdfrwt>
<totfact> 0.21668961E+03</totfact>
</mgrwt>
</event>
<event>
 7    1  0.5206756E-006  0.1251329E+03  0.7546771E-02  0.1249750E+00
         -1   -1    0    0    0  501 -0.00000000000E+00  0.00000000000E+00  0.25529987709E+02  0.25529987709E+02  0.00000000000E+00 0.  1.
          1   -1    0    0  501    0  0.00000000000E+00 -0.00000000000E+00 -0.47627965644E+03  0.47627965644E+03  0.00000000000E+00 0. -1.
         23    2    1    2    0    0 -0.28016268648E+01 -0.51423446516E+01 -0.29776902493E+03  0.32299325054E+03  0.12499581940E+03 0.  0.
          5    1    3    3  502    0  0.26810759716E+02  0.43732310744E+02 -0.63277990237E+02  0.81593663283E+02  0.47000000000E+01 0.  1.
         -5    1    3    3    0  502 -0.29612386581E+02 -0.48874655395E+02 -0.23449103469E+03  0.24139958726E+03  0.47000000000E+01 0.  1.
        -11    1    1    2    0    0 -0.41176134595E+02 -0.13704478398E+02 -0.88025763709E+02  0.98141845636E+02  0.00000000000E+00 0.  1.
         11    1    1    2    0    0  0.43977761460E+02  0.18846823049E+02 -0.64954880094E+02  0.80674547970E+02  0.00000000000E+00 0. -1.
<mgrwt>
<rscale>  0 0.11605541E+03</rscale>
<asrwt>0</asrwt>
<pdfrwt beam="2">  1        1 0.73273788E-01 0.12513292E+03</pdfrwt>
<pdfrwt beam="1">  1       -1 0.39276907E-02 0.12513292E+03</pdfrwt>
<totfact> 0.11488199E+04</totfact>
</mgrwt>
</event>
<event>
 7    1  0.5206756E-006  0.2075405E+03  0.7546771E-02  0.1147186E+00
         -1   -1    0    0    0  501 -0.00000000000E+00  0.00000000000E+00  0.32813083548E+02  0.32813083548E+02  0.00000000000E+00 0.  1.
          1   -1    0    0  501    0  0.00000000000E+00 -0.00000000000E+00 -0.13314464786E+04  0.13314464786E+04  0.00000000000E+00 0. -1.
         23    2    1    2    0    0  0.16420208424E+03 -0.22072873659E+02 -0.88489256846E+03  0.90890478838E+03  0.12499408153E+03 0.  0.
          5    1    3    3  502    0 -0.46989012546E+01  0.82589259686E+00 -0.28950105905E+03  0.28957851261E+03  0.47000000000E+01 0.  1.
         -5    1    3    3    0  502  0.16890098549E+03 -0.22898766256E+02 -0.59539150941E+03  0.61932627578E+03  0.47000000000E+01 0.  1.
        -11    1    1    2    0    0 -0.11285976483E+03 -0.84353600197E+01 -0.35073150514E+03  0.36853910310E+03  0.00000000000E+00 0. -1.
         11    1    1    2    0    0 -0.51342319406E+02  0.30508233679E+02 -0.63009321490E+02  0.86815670698E+02  0.00000000000E+00 0.  1.
<mgrwt>
<rscale>  0 0.20305582E+03</rscale>
<asrwt>0</asrwt>
<pdfrwt beam="2">  1        1 0.20483787E+00 0.20754049E+03</pdfrwt>
<pdfrwt beam="1">  1       -1 0.50481680E-02 0.20754049E+03</pdfrwt>
<totfact> 0.16128772E+03</totfact>
</mgrwt>
</event>
<event>
 7    1  0.5206756E-006  0.3422363E+03  0.7546771E-02  0.1067041E+00
          2   -1    0    0  501    0  0.00000000000E+00  0.00000000000E+00  0.13055578600E+03  0.13055578600E+03  0.00000000000E+00 0. -1.
         -2   -1    0    0    0  501 -0.00000000000E+00 -0.00000000000E+00 -0.95300737517E+03  0.95300737517E+03  0.00000000000E+00 0.  1.
         23    2    1    2    0    0  0.29383703025E+03 -0.12311659101E+03 -0.25584974104E+03  0.42729940860E+03  0.12501119662E+03 0.  0.
          5    1    3    3  502    0  0.20435419746E+03 -0.67628742021E+02 -0.23706363950E+03  0.32024294519E+03  0.47000000000E+01 0.  1.
         -5    1    3    3    0  502  0.89482832786E+02 -0.55487848988E+02 -0.18786101531E+02  0.10705646342E+03  0.47000000000E+01 0.  1.
        -11    1    1    2    0    0 -0.97286446267E+02  0.68744808424E+02 -0.14291101076E+03  0.18604853751E+03  0.00000000000E+00 0.  1.
         11    1    1    2    0    0 -0.19655058398E+03  0.54371782585E+02 -0.42369083737E+03  0.47021521506E+03  0.00000000000E+00 0. -1.
<mgrwt>
<rscale>  0 0.33942428E+03</rscale>
<asrwt>0</asrwt>
<pdfrwt beam="1">  1        2 0.20085506E-01 0.34223631E+03</pdfrwt>
<pdfrwt beam="2">  1       -2 0.14661652E+00 0.34223631E+03</pdfrwt>
<totfact> 0.92856446E+01</totfact>
</mgrwt>
</event>
<event>
 7    1  0.5206756E-006  0.1462598E+03  0.7546771E-02  0.1215550E+00
          2   -1    0    0  501    0  0.00000000000E+00  0.00000000000E+00  0.95477684410E+03  0.95477684410E+03  0.00000000000E+00 0. -1.
         -2   -1    0    0    0  501 -0.00000000000E+00 -0.00000000000E+00 -0.19359297299E+02  0.19359297299E+02  0.00000000000E+00 0.  1.
         23    2    1    2    0    0  0.75922957426E+02 -0.15952503872E+01  0.63646935028E+03  0.65305831112E+03  0.12500033434E+03 0.  0.
          5    1    3    3  502    0  0.10758284137E+03 -0.19646628927E+02  0.46895507944E+03  0.48156101828E+03  0.47000000000E+01 0. -1.
         -5    1    3    3    0  502 -0.31659883944E+02  0.18051378540E+02  0.16751427084E+03  0.17149729284E+03  0.47000000000E+01 0. -1.
        -11    1    1    2    0    0 -0.91634418702E+02 -0.60360560400E+01  0.28262781227E+03  0.29717298150E+03  0.00000000000E+00 0. -1.
         11    1    1    2    0    0  0.15711461275E+02  0.76313064272E+01  0.16320384240E+02  0.23904848774E+02  0.00000000000E+00 0.  1.
<mgrwt>
<rscale>  0 0.13836196E+03</rscale>
<asrwt>0</asrwt>
<pdfrwt beam="1">  1        2 0.14688871E+00 0.14625978E+03</pdfrwt>
<pdfrwt beam="2">  1       -2 0.29783542E-02 0.14625978E+03</pdfrwt>
<totfact> 0.11581258E+04</totfact>
</mgrwt>
</event>
<event>
 7    1  0.5206756E-006  0.1787694E+03  0.7546771E-02  0.1174403E+00
          1   -1    0    0  501    0  0.00000000000E+00  0.00000000000E+00  0.43600132726E+03  0.43600132726E+03  0.00000000000E+00 0. -1.
         -1   -1    0    0    0  501 -0.00000000000E+00 -0.00000000000E+00 -0.74285708364E+02  0.74285708364E+02  0.00000000000E+00 0.  1.
         23    2    1    2    0    0 -0.15569781468E+02 -0.12685311026E+03  0.28043536080E+03  0.33256951173E+03  0.12499743546E+03 0.  0.
          5    1    3    3  502    0  0.34249738943E+02 -0.90223931133E+02  0.23952043143E+03  0.25827413622E+03  0.47000000000E+01 0. -1.
         -5    1    3    3    0  502 -0.49819520411E+02 -0.36629179126E+02  0.40914929365E+02  0.74295375512E+02  0.47000000000E+01 0. -1.
        -11    1    1    2    0    0  0.21381198876E+02  0.10804815898E+03  0.18198762898E+02  0.11163671123E+03  0.00000000000E+00 0.  1.
         11    1    1    2    0    0 -0.58114174084E+01  0.18804951281E+02  0.63081495196E+02  0.66080812655E+02  0.00000000000E+00 0. -1.
<mgrwt>
<rscale>  0 0.17334545E+03</rscale>
<asrwt>0</asrwt>
<pdfrwt beam="1">  1        1 0.67077125E-01 0.17876937E+03</pdfrwt>
<pdfrwt beam="2">  1       -1 0.11428571E-01 0.17876937E+03</pdfrwt>
<totfact> 0.26374982E+03</totfact>
</mgrwt>
</event>
<event>
 7    1  0.5206756E-006  0.1446527E+03  0.7546771E-02  0.1217376E+00
         -2   -1    0    0    0  501 -0.00000000000E+00  0.00000000000E+00  0.24302781730E+02  0.24302781730E+02  0.00000000000E+00 0.  1.
          2   -1    0    0  501    0  0.00000000000E+00 -0.00000000000E+00 -0.83184350642E+03  0.83184350642E+03  0.00000000000E+00 0. -1.
         23    2    1    2    0    0  0.18517141791E+01  0.72780140189E+02 -0.60903763282E+03  0.62598022284E+03  0.12499609411E+03 0.  0.
          5    1    3    3  502    0  0.56209062370E+02  0.59217205113E+02 -0.44819055514E+03  0.45559082496E+03  0.47000000000E+01 0. -1.
         -5    1    3    3    0  502 -0.54357348191E+02  0.13562935076E+02 -0.16084707768E+03  0.17038939788E+03  0.47000000000E+01 0. -1.
        -11    1    1    2    0    0  0.11886831343E+02 -0.20605370101E+02  0.68721035966E+00  0.23798115356E+02  0.00000000000E+00 0.  1.
         11    1    1    2    0    0 -0.13738545523E+02 -0.52174770087E+02 -0.19919030223E+03  0.20636794995E+03  0.00000000000E+00 0. -1.
<mgrwt>
<rscale>  0 0.13703425E+03</rscale>
<asrwt>0</asrwt>
<pdfrwt beam="2">  1        2 0.12797592E+00 0.14465269E+03</pdfrwt>
<pdfrwt beam="1">  1       -2 0.37388896E-02 0.14465269E+03</pdfrwt>
<totfact> 0.99002699E+03</totfact>
</mgrwt>
</event>
<event>
 7    1  0.5206756E-006  0.1338584E+03  0.7546771E-02  0.1234606E+00
          2   -1    0    0  501    0  0.00000000000E+00  0.00000000000E+00  0.14448276631E+03  0.14448276631E+03  0.00000000000E+00 0. -1.
         -2   -1    0    0    0  501 -0.00000000000E+00 -0.00000000000E+00 -0.10488578616E+03  0.10488578616E+03  0.00000000000E+00 0.  1.
         23    2    1    2    0    0 -0.38811599868E+01  0.47740803445E+02  0.56379047099E+02  0.14524696391E+03  0.12499534334E+03 0.  0.
          5    1    3    3  502    0 -0.12019660715E+02 -0.41136571951E+02  0.28279734906E+02  0.51560868902E+02  0.47000000000E+01 0. -1.
         -5    1    3    3    0  502  0.81385007282E+01  0.88877375396E+02  0.28099312193E+02  0.93686095004E+02  0.47000000000E+01 0. -1.
        -11    1    1    2    0    0 -0.13187952258E+02  0.22831007927E+02  0.77513773687E+01  0.27482009730E+02  0.00000000000E+00 0.  1.
         11    1    1    2    0    0  0.17069112244E+02 -0.70571811372E+02 -0.24533444321E+02  0.76639578831E+02  0.00000000000E+00 0. -1.
<mgrwt>
<rscale>  0 0.12529698E+03</rscale>
<asrwt>0</asrwt>
<pdfrwt beam="1">  1        2 0.22228118E-01 0.13385845E+03</pdfrwt>
<pdfrwt beam="2">  1       -2 0.16136275E-01 0.13385845E+03</pdfrwt>
<totfact> 0.70531567E+03</totfact>
</mgrwt>
</event>
<event>
 7    1  0.5206756E-006  0.1408598E+03  0.7546771E-02  0.1218058E+00
         -2   -1    0    0    0  501 -0.00000000000E+00  0.00000000000E+00  0.14310618586E+03  0.14310618586E+03  0.00000000000E+00 0.  1.
          2   -1    0    0  501    0  0.00000000000E+00 -0.00000000000E+00 -0.18388083991E+03  0.18388083991E+03  0.00000000000E+00 0. -1.
         23    2    1    2    0    0 -0.97583379318E+01  0.64198419863E+02 -0.11527043613E+03  0.18201305510E+03  0.12499926603E+03 0.  0.
          5    1    3    3  502    0  0.59454349242E+01  0.89368647212E+02 -0.12181450219E+03  0.15127116792E+03  0.47000000000E+01 0. -1.
         -5    1    3    3    0  502 -0.15703772856E+02 -0.25170227349E+02  0.65440660582E+01  0.30741887178E+02  0.47000000000E+01 0. -1.
        -11    1    1    2    0    0  0.22013253201E+01  0.24390794183E+02  0.45116561780E+02  0.51334791525E+02  0.00000000000E+00 0.  1.
         11    1    1    2    0    0  0.75570126118E+01 -0.88589214046E+02  0.29379220301E+02  0.93639179142E+02  0.00000000000E+00 0. -1.
<mgrwt>
<rscale>  0 0.13654284E+03</rscale>
<asrwt>0</asrwt>
<pdfrwt beam="2">  1        2 0.28289360E-01 0.14085978E+03</pdfrwt>
<pdfrwt beam="1">  1       -2 0.22016336E-01 0.14085978E+03</pdfrwt>
<totfact> 0.32172375E+03</totfact>
</mgrwt>
</event>
<event>
 7    1  0.5206756E-006  0.1328374E+03  0.7546771E-02  0.1265479E+00
          2   -1    0    0  501    0  0.00000000000E+00  0.00000000000E+00  0.26393145225E+03  0.26393145225E+03  0.00000000000E+00 0. -1.
         -2   -1    0    0    0  501 -0.00000000000E+00 -0.00000000000E+00 -0.34548607481E+02  0.34548607481E+02  0.00000000000E+00 0.  1.
         23    2    1    2    0    0  0.28076366203E+02  0.36244244889E+02  0.17660136787E+03  0.22098376348E+03  0.12467498932E+03 0.  0.
          5    1    3    3  502    0  0.65457901388E+02 -0.16218413915E+02  0.79401881260E+02  0.10428097886E+03  0.47000000000E+01 0. -1.
         -5    1    3    3    0  502 -0.37381535185E+02  0.52462658803E+02  0.97199486610E+02  0.11670278462E+03  0.47000000000E+01 0.  1.
        -11    1    1    2    0    0 -0.16048303583E+02 -0.40334713618E+02  0.35676928920E+02  0.56189682573E+02  0.00000000000E+00 0. -1.
         11    1    1    2    0    0 -0.12028062620E+02  0.40904687289E+01  0.17104547977E+02  0.21306613676E+02  0.00000000000E+00 0.  1.
<mgrwt>
<rscale>  0 0.10739123E+03</rscale>
<asrwt>0</asrwt>
<pdfrwt beam="1">  1        2 0.40604837E-01 0.13283742E+03</pdfrwt>
<pdfrwt beam="2">  1       -2 0.53151706E-02 0.13283742E+03</pdfrwt>
<totfact> 0.20862657E+04</totfact>
</mgrwt>
</event>
<event>
 7    1  0.5206756E-006  0.1422657E+03  0.7546771E-02  0.1220101E+00
          1   -1    0    0  501    0  0.00000000000E+00  0.00000000000E+00  0.12457746593E+04  0.12457746593E+04  0.00000000000E+00 0. -1.
         -1   -1    0    0    0  501 -0.00000000000E+00 -0.00000000000E+00 -0.27676201501E+02  0.27676201501E+02  0.00000000000E+00 0.  1.
         23    2    1    2    0    0 -0.45398549785E+02  0.50529502150E+02  0.10963253414E+04  0.11055174256E+04  0.12500106056E+03 0.  0.
          5    1    3    3  502    0 -0.48853766294E+02 -0.19535990199E+02  0.21508482263E+03  0.22147667218E+03  0.47000000000E+01 0.  1.
         -5    1    3    3    0  502  0.34552165088E+01  0.70065492349E+02  0.88124051875E+03  0.88404075338E+03  0.47000000000E+01 0.  1.
        -11    1    1    2    0    0  0.49511094845E+01 -0.54588079664E+02  0.11407530923E+03  0.12656045236E+03  0.00000000000E+00 0. -1.
         11    1    1    2    0    0  0.40447440300E+02  0.40585775141E+01  0.76978072055E+01  0.41372982900E+02  0.00000000000E+00 0.  1.
<mgrwt>
<rscale>  0 0.13508387E+03</rscale>
<asrwt>0</asrwt>
<pdfrwt beam="1">  1        1 0.19165760E+00 0.14226568E+03</pdfrwt>
<pdfrwt beam="2">  1       -1 0.42578781E-02 0.14226568E+03</pdfrwt>
<totfact> 0.23672943E+03</totfact>
</mgrwt>
</event>
<event>
 7    1  0.5206756E-006  0.1725886E+03  0.7546771E-02  0.1181671E+00
         -3   -1    0    0    0  501 -0.00000000000E+00  0.00000000000E+00  0.19190531623E+03  0.19190531623E+03  0.00000000000E+00 0.  1.
          3   -1    0    0  501    0  0.00000000000E+00 -0.00000000000E+00 -0.13480963943E+03  0.13480963943E+03  0.00000000000E+00 0. -1.
         23    2    1    2    0    0  0.95862359230E+02  0.70513569702E+02  0.32302903845E+02  0.17558564138E+03  0.12500033773E+03 0.  0.
          5    1    3    3  502    0  0.11034166538E+03  0.93704554585E+02  0.27807152315E+02  0.14748272573E+03  0.47000000000E+01 0. -1.
         -5    1    3    3    0  502 -0.14479306146E+02 -0.23190984883E+02  0.44957515298E+01  0.28102915652E+02  0.47000000000E+01 0. -1.
        -11    1    1    2    0    0 -0.99837426527E+02 -0.59304519142E+02 -0.78495169992E+01  0.11638794028E+03  0.00000000000E+00 0. -1.
         11    1    1    2    0    0  0.39750672971E+01 -0.11209050559E+02  0.32642289950E+02  0.34741374003E+02  0.00000000000E+00 0.  1.
<mgrwt>
<rscale>  0 0.16638544E+03</rscale>
<asrwt>0</asrwt>
<pdfrwt beam="2">  1        3 0.20739945E-01 0.17258864E+03</pdfrwt>
<pdfrwt beam="1">  1       -3 0.29523895E-01 0.17258864E+03</pdfrwt>
<totfact> 0.55743334E+02</totfact>
</mgrwt>
</event>
<event>
 7    1  0.5206756E-006  0.1298692E+03  0.7546771E-02  0.1241211E+00
          1   -1    0    0  501    0  0.00000000000E+00  0.00000000000E+00  0.32664151061E+03  0.32664151061E+03  0.00000000000E+00 0. -1.
         -1   -1    0    0    0  501 -0.00000000000E+00 -0.00000000000E+00 -0.48652725526E+02  0.48652725526E+02  0.00000000000E+00 0.  1.
         23    2    1    2    0    0 -0.10418051697E+02  0.33653998230E+02  0.23385105305E+03  0.26749267455E+03  0.12499955412E+03 0.  0.
          5    1    3    3  502    0  0.14926116720E+02  0.55826750341E+02  0.39417870161E+02  0.70109011561E+02  0.47000000000E+01 0.  1.
         -5    1    3    3    0  502 -0.25344168417E+02 -0.22172752111E+02  0.19443318289E+03  0.19738366299E+03  0.47000000000E+01 0.  1.
        -11    1    1    2    0    0  0.23701811545E+02 -0.98590752504E+01  0.67304276491E+02  0.72033623186E+02  0.00000000000E+00 0. -1.
         11    1    1    2    0    0 -0.13283759849E+02 -0.23794922980E+02 -0.23166544453E+02  0.35767938398E+02  0.00000000000E+00 0.  1.
<mgrwt>
<rscale>  0 0.12115045E+03</rscale>
<asrwt>0</asrwt>
<pdfrwt beam="1">  1        1 0.50252539E-01 0.12986923E+03</pdfrwt>
<pdfrwt beam="2">  1       -1 0.74850349E-02 0.12986923E+03</pdfrwt>
<totfact> 0.71226995E+03</totfact>
</mgrwt>
</event>
<event>
 7    1  0.5206756E-006  0.1258330E+03  0.7546771E-02  0.1278533E+00
         -1   -1    0    0    0  501 -0.00000000000E+00  0.00000000000E+00  0.50895446836E+02  0.50895446836E+02  0.00000000000E+00 0.  1.
          1   -1    0    0  501    0  0.00000000000E+00 -0.00000000000E+00 -0.19153627033E+03  0.19153627033E+03  0.00000000000E+00 0. -1.
         23    2    1    2    0    0  0.11055934223E+01  0.14439918689E+02 -0.14299195989E+03  0.19047477871E+03  0.12499682853E+03 0.  0.
          5    1    3    3  502    0 -0.12778801448E+02  0.36223068427E+02  0.60238448502E+01  0.39163569290E+02  0.47000000000E+01 0. -1.
         -5    1    3    3    0  502  0.13884394870E+02 -0.21783149738E+02 -0.14901580474E+03  0.15131120942E+03  0.47000000000E+01 0. -1.
        -11    1    1    2    0    0  0.14551641616E+02  0.12033692080E+02  0.83056591602E+01  0.20628717674E+02  0.00000000000E+00 0.  1.
         11    1    1    2    0    0 -0.15657235038E+02 -0.26473610769E+02 -0.59545227654E+01  0.31328220785E+02  0.00000000000E+00 0. -1.
<mgrwt>
<rscale>  0 0.10084294E+03</rscale>
<asrwt>0</asrwt>
<pdfrwt beam="2">  1        1 0.29467118E-01 0.12583299E+03</pdfrwt>
<pdfrwt beam="1">  1       -1 0.78300688E-02 0.12583299E+03</pdfrwt>
<totfact> 0.12844893E+04</totfact>
</mgrwt>
</event>
<event>
 7    1  0.5206756E-006  0.1276041E+03  0.7546771E-02  0.1244129E+00
         -2   -1    0    0    0  501 -0.00000000000E+00  0.00000000000E+00  0.76867770864E+01  0.76867770864E+01  0.00000000000E+00 0.  1.
          2   -1    0    0  501    0  0.00000000000E+00 -0.00000000000E+00 -0.25129210256E+04  0.25129210256E+04  0.00000000000E+00 0. -1.
         23    2    1    2    0    0  0.14114876614E+02 -0.21358799799E+02 -0.20952965783E+04  0.20991785413E+04  0.12500947729E+03 0.  0.
          5    1    3    3  502    0 -0.17902182919E+02 -0.19396460984E+02 -0.97501715515E+02  0.10112064765E+03  0.47000000000E+01 0. -1.
         -5    1    3    3    0  502  0.32017059533E+02 -0.19623388151E+01 -0.19977948627E+04  0.19980578937E+04  0.47000000000E+01 0. -1.
        -11    1    1    2    0    0  0.71900493361E+01  0.52377398584E+02 -0.31319013163E+03  0.31762107493E+03  0.00000000000E+00 0.  1.
         11    1    1    2    0    0 -0.21304925950E+02 -0.31018598785E+02 -0.96747538648E+02  0.10380818645E+03  0.00000000000E+00 0. -1.
<mgrwt>
<rscale>  0 0.11937682E+03</rscale>
<asrwt>0</asrwt>
<pdfrwt beam="2">  1        2 0.38660325E+00 0.12760407E+03</pdfrwt>
<pdfrwt beam="1">  1       -2 0.11825810E-02 0.12760407E+03</pdfrwt>
<totfact> 0.65634526E+03</totfact>
</mgrwt>
</event>
<event>
 7    1  0.5206756E-006  0.1513610E+03  0.7546771E-02  0.1207712E+00
          1   -1    0    0  501    0  0.00000000000E+00  0.00000000000E+00  0.46814513756E+03  0.46814513756E+03  0.00000000000E+00 0. -1.
         -1   -1    0    0    0  501 -0.00000000000E+00 -0.00000000000E+00 -0.44149976693E+02  0.44149976693E+02  0.00000000000E+00 0.  1.
         23    2    1    2    0    0  0.18471012297E+02 -0.83329187765E+02  0.30150859921E+03  0.33736861084E+03  0.12500084942E+03 0.  0.
          5    1    3    3  502    0 -0.12389281549E+02 -0.27365208612E+02  0.13379238576E+01  0.30434010250E+02  0.47000000000E+01 0. -1.
         -5    1    3    3    0  502  0.30860293846E+02 -0.55963979153E+02  0.30017067535E+03  0.30693460059E+03  0.47000000000E+01 0. -1.
        -11    1    1    2    0    0  0.26680655922E+01  0.47766907941E+02  0.23866960015E+01  0.47900859972E+02  0.00000000000E+00 0.  1.
         11    1    1    2    0    0 -0.21139077890E+02  0.35562279824E+02  0.12009986565E+03  0.12702564344E+03  0.00000000000E+00 0. -1.
<mgrwt>
<rscale>  0 0.14425744E+03</rscale>
<asrwt>0</asrwt>
<pdfrwt beam="1">  1        1 0.72022325E-01 0.15136097E+03</pdfrwt>
<pdfrwt beam="2">  1       -1 0.67923044E-02 0.15136097E+03</pdfrwt>
<totfact> 0.52803664E+03</totfact>
</mgrwt>
</event>
<event>
 7    1  0.5206756E-006  0.1713596E+03  0.7546771E-02  0.1182869E+00
         -1   -1    0    0    0  501 -0.00000000000E+00  0.00000000000E+00  0.11292853013E+03  0.11292853013E+03  0.00000000000E+00 0.  1.
          1   -1    0    0  501    0  0.00000000000E+00 -0.00000000000E+00 -0.30323468050E+03  0.30323468050E+03  0.00000000000E+00 0. -1.
         23    2    1    2    0    0 -0.99622772037E+02 -0.61760343060E+02 -0.20496596282E+03  0.26716129483E+03  0.12500029942E+03 0.  0.
          5    1    3    3  502    0 -0.82809938014E+02  0.21990324315E+02 -0.10257507286E+03  0.13373404866E+03  0.47000000000E+01 0. -1.
         -5    1    3    3    0  502 -0.16812834022E+02 -0.83750667374E+02 -0.10239088996E+03  0.13342724617E+03  0.47000000000E+01 0. -1.
        -11    1    1    2    0    0  0.11297485186E+03  0.48337083536E+02  0.27760898009E+02  0.12597800703E+03  0.00000000000E+00 0.  1.
         11    1    1    2    0    0 -0.13352079825E+02  0.13423259524E+02 -0.13101085558E+02  0.23023908762E+02  0.00000000000E+00 0. -1.
<mgrwt>
<rscale>  0 0.16527274E+03</rscale>
<asrwt>0</asrwt>
<pdfrwt beam="2">  1        1 0.46651489E-01 0.17135960E+03</pdfrwt>
<pdfrwt beam="1">  1       -1 0.17373620E-01 0.17135960E+03</pdfrwt>
<totfact> 0.21582599E+03</totfact>
</mgrwt>
</event>
<event>
 7    1  0.5206756E-006  0.1511240E+03  0.7546771E-02  0.1208552E+00
          2   -1    0    0  501    0  0.00000000000E+00  0.00000000000E+00  0.14660292691E+04  0.14660292691E+04  0.00000000000E+00 0.  1.
         -2   -1    0    0    0  501 -0.00000000000E+00 -0.00000000000E+00 -0.20793415097E+02  0.20793415097E+02  0.00000000000E+00 0. -1.
         23    2    1    2    0    0  0.66508024282E+02  0.52825843287E+02  0.12263648446E+04  0.12356412069E+04  0.12499829273E+03 0.  0.
          5    1    3    3  502    0  0.68236225582E+02 -0.25113693432E+02  0.56345433621E+03  0.56814589594E+03  0.47000000000E+01 0.  1.
         -5    1    3    3    0  502 -0.17282012997E+01  0.77939536719E+02  0.66291050840E+03  0.66749531100E+03  0.47000000000E+01 0.  1.
        -11    1    1    2    0    0 -0.43581120751E+02 -0.40297815303E+02  0.21701840511E+03  0.22498936899E+03  0.00000000000E+00 0.  1.
         11    1    1    2    0    0 -0.22926903532E+02 -0.12528027984E+02  0.18526042483E+01  0.26192108224E+02  0.00000000000E+00 0. -1.
<mgrwt>
<rscale>  0 0.14361052E+03</rscale>
<asrwt>0</asrwt>
<pdfrwt beam="1">  1        2 0.22554288E+00 0.15112399E+03</pdfrwt>
<pdfrwt beam="2">  1       -2 0.31989881E-02 0.15112399E+03</pdfrwt>
<totfact> 0.54047607E+03</totfact>
</mgrwt>
</event>
<event>
 7    1  0.5206756E-006  0.1725487E+03  0.7546771E-02  0.1181377E+00
          2   -1    0    0  501    0  0.00000000000E+00  0.00000000000E+00  0.35526248248E+03  0.35526248248E+03  0.00000000000E+00 0. -1.
         -2   -1    0    0    0  501 -0.00000000000E+00 -0.00000000000E+00 -0.82394133069E+02  0.82394133069E+02  0.00000000000E+00 0.  1.
         23    2    1    2    0    0 -0.92435860971E+02 -0.74861360994E+02  0.21744087544E+03  0.27758530309E+03  0.12499781764E+03 0.  0.
          5    1    3    3  502    0 -0.11385548459E+03 -0.23836547236E+02  0.13619765800E+03  0.17917350362E+03  0.47000000000E+01 0. -1.
         -5    1    3    3    0  502  0.21419623614E+02 -0.51024813758E+02  0.81243217448E+02  0.98411799476E+02  0.47000000000E+01 0. -1.
        -11    1    1    2    0    0  0.64794294417E+02  0.70723223763E+02  0.78408528796E+02  0.12388693376E+03  0.00000000000E+00 0. -1.
         11    1    1    2    0    0  0.27641566554E+02  0.41381372307E+01 -0.22981054823E+02  0.36184378702E+02  0.00000000000E+00 0.  1.
<mgrwt>
<rscale>  0 0.16665895E+03</rscale>
<asrwt>0</asrwt>
<pdfrwt beam="1">  1        2 0.54655766E-01 0.17254874E+03</pdfrwt>
<pdfrwt beam="2">  1       -2 0.12676021E-01 0.17254874E+03</pdfrwt>
<totfact> 0.40112299E+03</totfact>
</mgrwt>
</event>
<event>
 7    1  0.5206756E-006  0.1539504E+03  0.7546771E-02  0.1198106E+00
          3   -1    0    0  501    0  0.00000000000E+00  0.00000000000E+00  0.47443180916E+03  0.47443180916E+03  0.00000000000E+00 0. -1.
         -3   -1    0    0    0  501 -0.00000000000E+00 -0.00000000000E+00 -0.62911284012E+02  0.62911284012E+02  0.00000000000E+00 0.  1.
         23    2    1    2    0    0  0.87529869646E+02  0.20380765467E+02  0.34306019303E+03  0.37601997917E+03  0.12499549998E+03 0.  0.
          5    1    3    3  502    0 -0.12026278118E+02  0.35320866396E+02  0.18337682703E+03  0.18719333765E+03  0.47000000000E+01 0.  1.
         -5    1    3    3    0  502  0.99556147764E+02 -0.14940100928E+02  0.15968336600E+03  0.18882664152E+03  0.47000000000E+01 0.  1.
        -11    1    1    2    0    0 -0.72752744248E+02  0.25103499511E+02  0.81152503236E+02  0.11184308769E+03  0.00000000000E+00 0. -1.
         11    1    1    2    0    0 -0.14777125397E+02 -0.45484264979E+02 -0.12692171114E+02  0.49480026306E+02  0.00000000000E+00 0.  1.
<mgrwt>
<rscale>  0 0.15194300E+03</rscale>
<asrwt>0</asrwt>
<pdfrwt beam="1">  1        3 0.72989507E-01 0.15395041E+03</pdfrwt>
<pdfrwt beam="2">  1       -3 0.96786594E-02 0.15395041E+03</pdfrwt>
<totfact> 0.33568618E+02</totfact>
</mgrwt>
</event>
<event>
 7    1  0.5206756E-006  0.1463653E+03  0.7546771E-02  0.1215630E+00
         -1   -1    0    0    0  501 -0.00000000000E+00  0.00000000000E+00  0.10436295160E+03  0.10436295160E+03  0.00000000000E+00 0.  1.
          1   -1    0    0  501    0  0.00000000000E+00 -0.00000000000E+00 -0.16585297026E+03  0.16585297026E+03  0.00000000000E+00 0. -1.
         23    2    1    2    0    0  0.98407862497E+01  0.75503518607E+02 -0.37424647111E+02  0.15107413916E+03  0.12500067566E+03 0.  0.
          5    1    3    3  502    0 -0.31283840467E+02 -0.12356528422E+02  0.18833247555E+02  0.38834825640E+02  0.47000000000E+01 0. -1.
         -5    1    3    3    0  502  0.41124626717E+02  0.87860047029E+02 -0.56257894666E+02  0.11223931352E+03  0.47000000000E+01 0. -1.
        -11    1    1    2    0    0  0.38104178315E+02 -0.47982522644E+02 -0.15476787580E+02  0.63196375197E+02  0.00000000000E+00 0.  1.
         11    1    1    2    0    0 -0.47944964564E+02 -0.27520995963E+02 -0.85885839753E+01  0.55945407502E+02  0.00000000000E+00 0. -1.
<mgrwt>
<rscale>  0 0.13830351E+03</rscale>
<asrwt>0</asrwt>
<pdfrwt beam="2">  1        1 0.25515841E-01 0.14636527E+03</pdfrwt>
<pdfrwt beam="1">  1       -1 0.16055839E-01 0.14636527E+03</pdfrwt>
<totfact> 0.51523831E+03</totfact>
</mgrwt>
</event>
<event>
 7    1  0.5206756E-006  0.2249116E+03  0.7546771E-02  0.1133991E+00
         -2   -1    0    0    0  501 -0.00000000000E+00  0.00000000000E+00  0.32345322361E+03  0.32345322361E+03  0.00000000000E+00 0.  1.
          2   -1    0    0  501    0  0.00000000000E+00 -0.00000000000E+00 -0.14392003456E+03  0.14392003456E+03  0.00000000000E+00 0. -1.
         23    2    1    2    0    0  0.17782111834E+03 -0.57801968816E+02  0.11153339342E+03  0.25104769370E+03  0.12499531565E+03 0.  0.
          5    1    3    3  502    0  0.25957206435E+02  0.27053538762E+02 -0.96334412570E+01  0.38994406213E+02  0.47000000000E+01 0.  1.
         -5    1    3    3    0  502  0.15186391191E+03 -0.84855507578E+02  0.12116683468E+03  0.21205328748E+03  0.47000000000E+01 0.  1.
        -11    1    1    2    0    0 -0.42156950726E+02  0.44328754520E+02  0.49605233809E+02  0.78758657893E+02  0.00000000000E+00 0. -1.
         11    1    1    2    0    0 -0.13566416762E+03  0.13473214295E+02  0.18394561818E+02  0.13756690657E+03  0.00000000000E+00 0.  1.
<mgrwt>
<rscale>  0 0.21985583E+03</rscale>
<asrwt>0</asrwt>
<pdfrwt beam="2">  1        2 0.22141544E-01 0.22491164E+03</pdfrwt>
<pdfrwt beam="1">  1       -2 0.49762034E-01 0.22491164E+03</pdfrwt>
<totfact> 0.95477760E+02</totfact>
</mgrwt>
</event>
<event>
 7    1  0.5206756E-006  0.1410898E+03  0.7546771E-02  0.1222908E+00
         -2   -1    0    0    0  501 -0.00000000000E+00  0.00000000000E+00  0.62458269824E+03  0.62458269824E+03  0.00000000000E+00 0.  1.
          2   -1    0    0  501    0  0.00000000000E+00 -0.00000000000E+00 -0.26040887570E+02  0.26040887570E+02  0.00000000000E+00 0. -1.
         23    2    1    2    0    0  0.58271422980E+02 -0.29655667863E+02  0.29111257954E+03  0.32350094063E+03  0.12502522645E+03 0.  0.
          5    1    3    3  502    0 -0.30911274282E+02  0.17681620737E+02  0.45979217945E+02  0.58346594352E+02  0.47000000000E+01 0.  1.
         -5    1    3    3    0  502  0.89182697262E+02 -0.47337288600E+02  0.24513336159E+03  0.26515434628E+03  0.47000000000E+01 0.  1.
        -11    1    1    2    0    0  0.23753260570E+02  0.13215067631E+02  0.58358418931E+02  0.64378260775E+02  0.00000000000E+00 0.  1.
         11    1    1    2    0    0 -0.82024683551E+02  0.16440600232E+02  0.24907081220E+03  0.26274438440E+03  0.00000000000E+00 0. -1.
<mgrwt>
<rscale>  0 0.13311291E+03</rscale>
<asrwt>0</asrwt>
<pdfrwt beam="2">  1        2 0.40062909E-02 0.14108978E+03</pdfrwt>
<pdfrwt beam="1">  1       -2 0.96089635E-01 0.14108978E+03</pdfrwt>
<totfact> 0.19162906E+03</totfact>
</mgrwt>
</event>
<event>
 7    1  0.5206756E-006  0.1346744E+03  0.7546771E-02  0.1232162E+00
         -2   -1    0    0    0  501 -0.00000000000E+00  0.00000000000E+00  0.73789723227E+02  0.73789723227E+02  0.00000000000E+00 0.  1.
          2   -1    0    0  501    0  0.00000000000E+00 -0.00000000000E+00 -0.26073918171E+03  0.26073918171E+03  0.00000000000E+00 0. -1.
         23    2    1    2    0    0  0.43122319689E+02  0.24047113080E+02 -0.18447390909E+03  0.22840277032E+03  0.12529726355E+03 0.  0.
          5    1    3    3  502    0 -0.39753093730E+00 -0.46196737068E+02 -0.37340422039E+02  0.59587697259E+02  0.47000000000E+01 0.  1.
         -5    1    3    3    0  502  0.43519850626E+02  0.70243850148E+02 -0.14713348705E+03  0.16881507306E+03  0.47000000000E+01 0.  1.
        -11    1    1    2    0    0 -0.14395800558E+02 -0.57587297340E+02 -0.12915645779E+02  0.60748249313E+02  0.00000000000E+00 0.  1.
         11    1    1    2    0    0 -0.28726519131E+02  0.33540184261E+02  0.10440096386E+02  0.45377885299E+02  0.00000000000E+00 0. -1.
<mgrwt>
<rscale>  0 0.12687905E+03</rscale>
<asrwt>0</asrwt>
<pdfrwt beam="2">  1        2 0.40113720E-01 0.13467443E+03</pdfrwt>
<pdfrwt beam="1">  1       -2 0.11352265E-01 0.13467443E+03</pdfrwt>
<totfact> 0.65619396E+03</totfact>
</mgrwt>
</event>
<event>
 7    1  0.5206756E-006  0.2004002E+03  0.7546771E-02  0.1153698E+00
          1   -1    0    0  501    0  0.00000000000E+00  0.00000000000E+00  0.64022979963E+03  0.64022979963E+03  0.00000000000E+00 0. -1.
         -1   -1    0    0    0  501 -0.00000000000E+00 -0.00000000000E+00 -0.59870338307E+02  0.59870338307E+02  0.00000000000E+00 0.  1.
         23    2    1    2    0    0  0.12349288528E+03  0.96360830216E+02  0.38308247156E+03  0.43233371104E+03  0.12499742145E+03 0.  0.
          5    1    3    3  502    0  0.10706902975E+03  0.99139923122E+02  0.19572205690E+03  0.24417558241E+03  0.47000000000E+01 0.  1.
         -5    1    3    3    0  502  0.16423855536E+02 -0.27790929057E+01  0.18736041466E+03  0.18815812863E+03  0.47000000000E+01 0.  1.
        -11    1    1    2    0    0 -0.39514031657E+02 -0.26510266458E+02  0.66279664284E+01  0.48042511013E+02  0.00000000000E+00 0.  1.
         11    1    1    2    0    0 -0.83978853625E+02 -0.69850563758E+02  0.19064902333E+03  0.21972391588E+03  0.00000000000E+00 0. -1.
<mgrwt>
<rscale>  0 0.19537810E+03</rscale>
<asrwt>0</asrwt>
<pdfrwt beam="1">  1        1 0.98496888E-01 0.20040024E+03</pdfrwt>
<pdfrwt beam="2">  1       -1 0.92108217E-02 0.20040024E+03</pdfrwt>
<totfact> 0.22058720E+03</totfact>
</mgrwt>
</event>
<event>
 7    1  0.5206756E-006  0.1327389E+03  0.7546771E-02  0.1236384E+00
          2   -1    0    0  501    0  0.00000000000E+00  0.00000000000E+00  0.73468688480E+03  0.73468688480E+03  0.00000000000E+00 0.  1.
         -2   -1    0    0    0  501 -0.00000000000E+00 -0.00000000000E+00 -0.19031939978E+02  0.19031939978E+02  0.00000000000E+00 0. -1.
         23    2    1    2    0    0 -0.44536200945E+02 -0.34339043573E+01  0.45463595891E+03  0.47361741735E+03  0.12499735195E+03 0.  0.
          5    1    3    3  502    0 -0.43835397502E+02  0.44399895793E+02  0.11796108460E+03  0.13352827528E+03  0.47000000000E+01 0. -1.
         -5    1    3    3    0  502 -0.70080344288E+00 -0.47833800151E+02  0.33667487431E+03  0.34008914207E+03  0.47000000000E+01 0. -1.
        -11    1    1    2    0    0 -0.14765672737E+02  0.23753825978E+02  0.15019294655E+03  0.15277496698E+03  0.00000000000E+00 0.  1.
         11    1    1    2    0    0  0.59301873682E+02 -0.20319921620E+02  0.11082603936E+03  0.12732644045E+03  0.00000000000E+00 0. -1.
<mgrwt>
<rscale>  0 0.12416222E+03</rscale>
<asrwt>0</asrwt>
<pdfrwt beam="1">  1        2 0.11302873E+00 0.13273885E+03</pdfrwt>
<pdfrwt beam="2">  1       -2 0.29279913E-02 0.13273885E+03</pdfrwt>
<totfact> 0.16461041E+04</totfact>
</mgrwt>
</event>
<event>
 7    1  0.5206756E-006  0.4386181E+03  0.7546771E-02  0.1031852E+00
         -1   -1    0    0    0  501 -0.00000000000E+00  0.00000000000E+00  0.26748748477E+03  0.26748748477E+03  0.00000000000E+00 0.  1.
          1   -1    0    0  501    0  0.00000000000E+00 -0.00000000000E+00 -0.70996831412E+03  0.70996831412E+03  0.00000000000E+00 0. -1.
         23    2    1    2    0    0 -0.18731504221E+01  0.42042436743E+03 -0.18249109885E+03  0.47506719965E+03  0.12500274237E+03 0.  0.
          5    1    3    3  502    0 -0.35790414813E+02  0.33262713114E+03 -0.18189416326E+03  0.38082717706E+03  0.47000000000E+01 0. -1.
         -5    1    3    3    0  502  0.33917264390E+02  0.87797236293E+02 -0.59693558632E+00  0.94240022584E+02  0.47000000000E+01 0. -1.
        -11    1    1    2    0    0 -0.41164037485E+02 -0.27796969556E+03 -0.17422572513E+03  0.33063005448E+03  0.00000000000E+00 0. -1.
         11    1    1    2    0    0  0.43037187907E+02 -0.14245467187E+03 -0.85764005363E+02  0.17175854476E+03  0.00000000000E+00 0.  1.
<mgrwt>
<rscale>  0 0.43641790E+03</rscale>
<asrwt>0</asrwt>
<pdfrwt beam="2">  1        1 0.10922589E+00 0.43861811E+03</pdfrwt>
<pdfrwt beam="1">  1       -1 0.41151921E-01 0.43861811E+03</pdfrwt>
<totfact> 0.16034752E+02</totfact>
</mgrwt>
</event>
<event>
 7    1  0.5206756E-006  0.2145027E+03  0.7546771E-02  0.1140985E+00
         -2   -1    0    0    0  501 -0.00000000000E+00  0.00000000000E+00  0.32725604527E+02  0.32725604527E+02  0.00000000000E+00 0.  1.
          2   -1    0    0  501    0  0.00000000000E+00 -0.00000000000E+00 -0.17240009454E+04  0.17240009454E+04  0.00000000000E+00 0. -1.
         23    2    1    2    0    0 -0.74616003265E+02  0.15754241864E+03 -0.12979199959E+04  0.13155256406E+04  0.12499693519E+03 0.  0.
          5    1    3    3  502    0 -0.62720463022E+02  0.52766694401E+02 -0.90361631236E+03  0.90733825582E+03  0.47000000000E+01 0. -1.
         -5    1    3    3    0  502 -0.11895540242E+02  0.10477572424E+03 -0.39430368349E+03  0.40818738477E+03  0.47000000000E+01 0. -1.
        -11    1    1    2    0    0 -0.14942865058E+02 -0.42412875040E+02 -0.45356775782E+02  0.63870010918E+02  0.00000000000E+00 0. -1.
         11    1    1    2    0    0  0.89558868323E+02 -0.11512954360E+03 -0.34799856920E+03  0.37733089838E+03  0.00000000000E+00 0.  1.
<mgrwt>
<rscale>  0 0.21073501E+03</rscale>
<asrwt>0</asrwt>
<pdfrwt beam="2">  1        2 0.26523085E+00 0.21450267E+03</pdfrwt>
<pdfrwt beam="1">  1       -2 0.50347097E-02 0.21450267E+03</pdfrwt>
<totfact> 0.20150288E+03</totfact>
</mgrwt>
</event>
<event>
 7    1  0.5206756E-006  0.1552398E+03  0.7546771E-02  0.1202729E+00
          2   -1    0    0  501    0  0.00000000000E+00  0.00000000000E+00  0.48598864428E+03  0.48598864428E+03  0.00000000000E+00 0. -1.
         -2   -1    0    0    0  501 -0.00000000000E+00 -0.00000000000E+00 -0.41658175050E+02  0.41658175050E+02  0.00000000000E+00 0.  1.
         23    2    1    2    0    0 -0.13108186383E+02 -0.91121797805E+02  0.25777289892E+03  0.30090903698E+03  0.12499749812E+03 0.  0.
          5    1    3    3  502    0  0.84781887075E+01 -0.57036325846E+02  0.22371583479E+02  0.62029024635E+02  0.47000000000E+01 0. -1.
         -5    1    3    3    0  502 -0.21586375090E+02 -0.34085471959E+02  0.23540131544E+03  0.23888001235E+03  0.47000000000E+01 0. -1.
        -11    1    1    2    0    0  0.17591588213E+02  0.56911527901E+02  0.18252588942E+03  0.19200022472E+03  0.00000000000E+00 0. -1.
         11    1    1    2    0    0 -0.44834018299E+01  0.34210269903E+02  0.40316808854E+01  0.34737557623E+02  0.00000000000E+00 0.  1.
<mgrwt>
<rscale>  0 0.14817888E+03</rscale>
<asrwt>0</asrwt>
<pdfrwt beam="1">  1        2 0.74767480E-01 0.15523975E+03</pdfrwt>
<pdfrwt beam="2">  1       -2 0.64089503E-02 0.15523975E+03</pdfrwt>
<totfact> 0.82760814E+03</totfact>
</mgrwt>
</event>
<event>
 7    1  0.5206756E-006  0.1351787E+03  0.7546771E-02  0.1232239E+00
         -3   -1    0    0    0  501 -0.00000000000E+00  0.00000000000E+00  0.96658414643E+02  0.96658414643E+02  0.00000000000E+00 0.  1.
          3   -1    0    0  501    0  0.00000000000E+00 -0.00000000000E+00 -0.14888927067E+03  0.14888927067E+03  0.00000000000E+00 0. -1.
         23    2    1    2    0    0 -0.39103502469E+02  0.33461263589E+02 -0.29882700697E+02  0.13844224911E+03  0.12499816187E+03 0.  0.
          5    1    3    3  502    0  0.22839892456E+02  0.13828194753E+02 -0.60619539181E+02  0.66405558413E+02  0.47000000000E+01 0. -1.
         -5    1    3    3    0  502 -0.61943394925E+02  0.19633068836E+02  0.30736838484E+02  0.72036690699E+02  0.47000000000E+01 0. -1.
        -11    1    1    2    0    0 -0.68999922113E+01 -0.10124241102E+02 -0.47968942181E+02  0.49508883692E+02  0.00000000000E+00 0. -1.
         11    1    1    2    0    0  0.46003494680E+02 -0.23337022487E+02  0.25620786856E+02  0.57596552505E+02  0.00000000000E+00 0.  1.
<mgrwt>
<rscale>  0 0.12682871E+03</rscale>
<asrwt>0</asrwt>
<pdfrwt beam="2">  1        3 0.22906042E-01 0.13517870E+03</pdfrwt>
<pdfrwt beam="1">  1       -3 0.14870525E-01 0.13517870E+03</pdfrwt>
<totfact> 0.15231488E+03</totfact>
</mgrwt>
</event>
<event>
 6    1  0.5206756E-006  0.1415720E+03  0.7546771E-02  0.1225778E+00
          1   -1    0    0  501    0  0.00000000000E+00  0.00000000000E+00  0.47375273324E+02  0.47375273324E+02  0.00000000000E+00 0. -1.
         -1   -1    0    0    0  501 -0.00000000000E+00 -0.00000000000E+00 -0.32385123805E+03  0.32385123805E+03  0.00000000000E+00 0.  1.
          5    1    1    2  502    0  0.95080099198E+02 -0.10868941602E+02 -0.11309423565E+03  0.14822535307E+03  0.47000000000E+01 0. -1.
         -5    1    1    2    0  502 -0.41227293381E+02  0.81635745808E+01 -0.22940326987E+02  0.48111144984E+02  0.47000000000E+01 0.  1.
        -11    1    1    2    0    0 -0.23575145887E+02 -0.57460567252E+01 -0.14137380050E+03  0.14344112429E+03  0.00000000000E+00 0.  1.
         11    1    1    2    0    0 -0.30277659931E+02  0.84514237460E+01  0.93239841103E+00  0.31448889027E+02  0.00000000000E+00 0. -1.
<mgrwt>
<rscale>  0 0.13113701E+03</rscale>
<asrwt>0</asrwt>
<pdfrwt beam="1">  1        1 0.72885039E-02 0.14157195E+03</pdfrwt>
<pdfrwt beam="2">  1       -1 0.49823265E-01 0.14157195E+03</pdfrwt>
<totfact> 0.39272610E+03</totfact>
</mgrwt>
</event>
<event>
 7    1  0.5206756E-006  0.1803945E+03  0.7546771E-02  0.1172685E+00
          1   -1    0    0  501    0  0.00000000000E+00  0.00000000000E+00  0.22749255603E+03  0.22749255603E+03  0.00000000000E+00 0. -1.
         -1   -1    0    0    0  501 -0.00000000000E+00 -0.00000000000E+00 -0.12823850922E+03  0.12823850922E+03  0.00000000000E+00 0.  1.
         23    2    1    2    0    0 -0.23408819110E+02 -0.12793996708E+03  0.37273479892E+02  0.18420501590E+03  0.12500227033E+03 0.  0.
          5    1    3    3  502    0 -0.60346766156E+02 -0.23558840211E+02  0.34044956126E+02  0.73334167856E+02  0.47000000000E+01 0. -1.
         -5    1    3    3    0  502  0.36937947046E+02 -0.10438112687E+03  0.32285237654E+01  0.11087084804E+03  0.47000000000E+01 0. -1.
        -11    1    1    2    0    0  0.33911054131E+02  0.13421511086E+03  0.71701720371E+02  0.15589994317E+03  0.00000000000E+00 0. -1.
         11    1    1    2    0    0 -0.10502235021E+02 -0.62751437798E+01 -0.97211534620E+01  0.15626106185E+02  0.00000000000E+00 0.  1.
<mgrwt>
<rscale>  0 0.17504680E+03</rscale>
<asrwt>0</asrwt>
<pdfrwt beam="1">  1        1 0.34998855E-01 0.18039450E+03</pdfrwt>
<pdfrwt beam="2">  1       -1 0.19729001E-01 0.18039450E+03</pdfrwt>
<totfact> 0.25225867E+03</totfact>
</mgrwt>
</event>
<event>
 7    1  0.5206756E-006  0.2505923E+03  0.7546771E-02  0.1115323E+00
         -2   -1    0    0    0  501 -0.00000000000E+00  0.00000000000E+00  0.49286475866E+02  0.49286475866E+02  0.00000000000E+00 0.  1.
          2   -1    0    0  501    0  0.00000000000E+00 -0.00000000000E+00 -0.12441447232E+04  0.12441447232E+04  0.00000000000E+00 0. -1.
         23    2    1    2    0    0  0.99234682440E+02 -0.19319120157E+03 -0.73600356531E+03  0.77749452420E+03  0.12500449771E+03 0.  0.
          5    1    3    3  502    0  0.11272345938E+03 -0.16928882591E+03 -0.49924056737E+03  0.53909973009E+03  0.47000000000E+01 0. -1.
         -5    1    3    3    0  502 -0.13488776942E+02 -0.23902375657E+02 -0.23676299794E+03  0.23839479412E+03  0.47000000000E+01 0. -1.
        -11    1    1    2    0    0 -0.92236462754E+02  0.10324003480E+03 -0.21287744067E+03  0.25393478413E+03  0.00000000000E+00 0.  1.
         11    1    1    2    0    0 -0.69982196853E+01  0.89951166767E+02 -0.24597724130E+03  0.26200189068E+03  0.00000000000E+00 0. -1.
<mgrwt>
<rscale>  0 0.24683237E+03</rscale>
<asrwt>0</asrwt>
<pdfrwt beam="2">  1        2 0.19140688E+00 0.25059227E+03</pdfrwt>
<pdfrwt beam="1">  1       -2 0.75825347E-02 0.25059227E+03</pdfrwt>
<totfact> 0.19397512E+03</totfact>
</mgrwt>
</event>
<event>
 7    1  0.5206756E-006  0.1269387E+03  0.7546771E-02  0.1247191E+00
          2   -1    0    0  501    0  0.00000000000E+00  0.00000000000E+00  0.37907566681E+03  0.37907566681E+03  0.00000000000E+00 0. -1.
         -2   -1    0    0    0  501 -0.00000000000E+00 -0.00000000000E+00 -0.37629295121E+02  0.37629295121E+02  0.00000000000E+00 0.  1.
         23    2    1    2    0    0  0.20755209962E+02 -0.73443822877E+01  0.27261106759E+03  0.30071621210E+03  0.12501490853E+03 0.  0.
          5    1    3    3  502    0 -0.33072114669E+02  0.38722421896E+02  0.75351644252E+02  0.91066739360E+02  0.47000000000E+01 0.  1.
         -5    1    3    3    0  502  0.53827324631E+02 -0.46066804184E+02  0.19725942334E+03  0.20964947274E+03  0.47000000000E+01 0.  1.
        -11    1    1    2    0    0 -0.26439305073E+02 -0.14199143892E+02 -0.11863454996E+02  0.32270638426E+02  0.00000000000E+00 0.  1.
         11    1    1    2    0    0  0.56840951110E+01  0.21543526180E+02  0.80698759094E+02  0.83718111403E+02  0.00000000000E+00 0. -1.
<mgrwt>
<rscale>  0 0.11755190E+03</rscale>
<asrwt>0</asrwt>
<pdfrwt beam="1">  1        2 0.58319331E-01 0.12693875E+03</pdfrwt>
<pdfrwt beam="2">  1       -2 0.57891226E-02 0.12693875E+03</pdfrwt>
<totfact> 0.12448080E+04</totfact>
</mgrwt>
</event>
<event>
 7    1  0.5206756E-006  0.1471961E+03  0.7546771E-02  0.1213245E+00
          2   -1    0    0  501    0  0.00000000000E+00  0.00000000000E+00  0.19615687903E+04  0.19615687903E+04  0.00000000000E+00 0. -1.
         -2   -1    0    0    0  501 -0.00000000000E+00 -0.00000000000E+00 -0.12639121862E+02  0.12639121862E+02  0.00000000000E+00 0.  1.
         23    2    1    2    0    0 -0.45399291677E+02  0.63099755046E+02  0.15614751654E+04  0.15683977170E+04  0.12499612651E+03 0.  0.
          5    1    3    3  502    0 -0.71904282210E+02  0.31517711782E+02  0.50319980025E+03  0.50930906228E+03  0.47000000000E+01 0. -1.
         -5    1    3    3    0  502  0.26504990533E+02  0.31582043264E+02  0.10582753652E+04  0.10590886547E+04  0.47000000000E+01 0. -1.
        -11    1    1    2    0    0  0.50935677046E+02  0.29995511467E+01  0.12298318127E+03  0.13314767508E+03  0.00000000000E+00 0.  1.
         11    1    1    2    0    0 -0.55363853690E+01 -0.66099306193E+02  0.26447132179E+03  0.27266252014E+03  0.00000000000E+00 0. -1.
<mgrwt>
<rscale>  0 0.14006220E+03</rscale>
<asrwt>0</asrwt>
<pdfrwt beam="1">  1        2 0.30177957E+00 0.14719615E+03</pdfrwt>
<pdfrwt beam="2">  1       -2 0.19444818E-02 0.14719615E+03</pdfrwt>
<totfact> 0.62171942E+03</totfact>
</mgrwt>
</event>
<event>
 7    1  0.5206756E-006  0.1398558E+03  0.7546771E-02  0.1224348E+00
         -3   -1    0    0    0  501 -0.00000000000E+00  0.00000000000E+00  0.80358271222E+03  0.80358271222E+03  0.00000000000E+00 0.  1.
          3   -1    0    0  501    0  0.00000000000E+00 -0.00000000000E+00 -0.19863093764E+02  0.19863093764E+02  0.00000000000E+00 0. -1.
         23    2    1    2    0    0  0.61025448663E+02 -0.14494421615E+02  0.39204800145E+03  0.41624666218E+03  0.12500181876E+03 0.  0.
          5    1    3    3  502    0  0.69767697723E+02 -0.23788595377E+02  0.39540186615E+03  0.40224141342E+03  0.47000000000E+01 0.  1.
         -5    1    3    3    0  502 -0.87422490605E+01  0.92941737612E+01 -0.33538646965E+01  0.14005248764E+02  0.47000000000E+01 0.  1.
        -11    1    1    2    0    0 -0.79802052235E+02 -0.77739702517E+00  0.35023013131E+03  0.35920762348E+03  0.00000000000E+00 0.  1.
         11    1    1    2    0    0  0.18776603573E+02  0.15271818641E+02  0.41441485690E+02  0.47991520319E+02  0.00000000000E+00 0. -1.
<mgrwt>
<rscale>  0 0.13211671E+03</rscale>
<asrwt>0</asrwt>
<pdfrwt beam="2">  1        3 0.30558612E-02 0.13985581E+03</pdfrwt>
<pdfrwt beam="1">  1       -3 0.12362808E+00 0.13985581E+03</pdfrwt>
<totfact> 0.63484189E+02</totfact>
</mgrwt>
</event>
<event>
 7    1  0.5206756E-006  0.2672756E+03  0.7546771E-02  0.1105019E+00
          2   -1    0    0  501    0  0.00000000000E+00  0.00000000000E+00  0.27497825248E+03  0.27497825248E+03  0.00000000000E+00 0. -1.
         -2   -1    0    0    0  501 -0.00000000000E+00 -0.00000000000E+00 -0.26469010892E+03  0.26469010892E+03  0.00000000000E+00 0.  1.
         23    2    1    2    0    0 -0.17688364375E+03  0.15659935967E+03 -0.66673658860E+02  0.27546622329E+03  0.12500032205E+03 0.  0.
          5    1    3    3  502    0 -0.17095237280E+03  0.11070488044E+03 -0.12558828645E+02  0.20410805593E+03  0.47000000000E+01 0.  1.
         -5    1    3    3    0  502 -0.59312709459E+01  0.45894479234E+02 -0.54114830215E+02  0.71358167356E+02  0.47000000000E+01 0.  1.
        -11    1    1    2    0    0  0.90662435791E+02 -0.35743427676E+02  0.10485064189E+01  0.97459577525E+02  0.00000000000E+00 0. -1.
         11    1    1    2    0    0  0.86221207958E+02 -0.12085593200E+03  0.75913296009E+02  0.16674256059E+03  0.00000000000E+00 0.  1.
<mgrwt>
<rscale>  0 0.26356628E+03</rscale>
<asrwt>0</asrwt>
<pdfrwt beam="1">  1        2 0.42304347E-01 0.26727563E+03</pdfrwt>
<pdfrwt beam="2">  1       -2 0.40721555E-01 0.26727563E+03</pdfrwt>
<totfact> 0.69381224E+02</totfact>
</mgrwt>
</event>
<event>
 7    1  0.5206756E-006  0.1342194E+03  0.7546771E-02  0.1232818E+00
          2   -1    0    0  501    0  0.00000000000E+00  0.00000000000E+00  0.17377542282E+04  0.17377542282E+04  0.00000000000E+00 0. -1.
         -2   -1    0    0    0  501 -0.00000000000E+00 -0.00000000000E+00 -0.11133974704E+02  0.11133974704E+02  0.00000000000E+00 0.  1.
         23    2    1    2    0    0  0.15771669381E+02 -0.46288757050E+02  0.13796275854E+04  0.13861410867E+04  0.12499377359E+03 0.  0.
          5    1    3    3  502    0  0.47713977984E+02 -0.64660208152E+02  0.12008533925E+04  0.12035483067E+04  0.47000000000E+01 0.  1.
         -5    1    3    3    0  502 -0.31942308604E+02  0.18371451102E+02  0.17877419284E+03  0.18259278003E+03  0.47000000000E+01 0.  1.
        -11    1    1    2    0    0 -0.12806314836E+02  0.62133116770E+02  0.33875642028E+03  0.34464538033E+03  0.00000000000E+00 0. -1.
         11    1    1    2    0    0 -0.29653545451E+01 -0.15844359720E+02  0.82362478722E+01  0.18101735871E+02  0.00000000000E+00 0.  1.
<mgrwt>
<rscale>  0 0.12645156E+03</rscale>
<asrwt>0</asrwt>
<pdfrwt beam="1">  1        2 0.26734659E+00 0.13421937E+03</pdfrwt>
<pdfrwt beam="2">  1       -2 0.17129206E-02 0.13421937E+03</pdfrwt>
<totfact> 0.97010344E+03</totfact>
</mgrwt>
</event>
<event>
 7    1  0.5206756E-006  0.1817443E+03  0.7546771E-02  0.1171553E+00
          2   -1    0    0  501    0  0.00000000000E+00  0.00000000000E+00  0.62522373478E+03  0.62522373478E+03  0.00000000000E+00 0. -1.
         -2   -1    0    0    0  501 -0.00000000000E+00 -0.00000000000E+00 -0.85865994027E+02  0.85865994027E+02  0.00000000000E+00 0.  1.
         23    2    1    2    0    0 -0.10492293107E+02  0.13150253542E+03  0.51828495197E+03  0.54922699725E+03  0.12501199158E+03 0.  0.
          5    1    3    3  502    0 -0.47544707666E+02  0.13465720747E+03  0.43580700573E+03  0.45863155037E+03  0.47000000000E+01 0.  1.
         -5    1    3    3    0  502  0.37052414559E+02 -0.31546720536E+01  0.82477946239E+02  0.90595446884E+02  0.47000000000E+01 0.  1.
        -11    1    1    2    0    0  0.22686903731E+02 -0.69732647845E+02  0.53755892983E+02  0.90923230292E+02  0.00000000000E+00 0. -1.
         11    1    1    2    0    0 -0.12194610624E+02 -0.61769887576E+02 -0.32683104196E+02  0.70939501262E+02  0.00000000000E+00 0.  1.
<mgrwt>
<rscale>  0 0.17617909E+03</rscale>
<asrwt>0</asrwt>
<pdfrwt beam="1">  1        2 0.96188264E-01 0.18174433E+03</pdfrwt>
<pdfrwt beam="2">  1       -2 0.13210153E-01 0.18174433E+03</pdfrwt>
<totfact> 0.20129307E+03</totfact>
</mgrwt>
</event>
<event>
 7    1  0.5206756E-006  0.3214309E+03  0.7546771E-02  0.1076620E+00
         -1   -1    0    0    0  501 -0.00000000000E+00  0.00000000000E+00  0.63596285993E+02  0.63596285993E+02  0.00000000000E+00 0.  1.
          1   -1    0    0  501    0  0.00000000000E+00 -0.00000000000E+00 -0.16662857642E+04  0.16662857642E+04  0.00000000000E+00 0. -1.
         23    2    1    2    0    0 -0.17262130042E+03 -0.24059170135E+03 -0.10411931876E+04  0.10896793487E+04  0.12504138911E+03 0.  0.
          5    1    3    3  502    0 -0.18855304732E+03 -0.21747833755E+03 -0.99113647298E+03  0.10320962538E+04  0.47000000000E+01 0.  1.
         -5    1    3    3    0  502  0.15931746902E+02 -0.23113363800E+02 -0.50056714598E+02  0.57583094932E+02  0.47000000000E+01 0.  1.
        -11    1    1    2    0    0  0.39580511713E+02  0.22296398792E+02 -0.14056302467E+03  0.14772173236E+03  0.00000000000E+00 0.  1.
         11    1    1    2    0    0  0.13304078871E+03  0.21829530256E+03 -0.42093326598E+03  0.49248096916E+03  0.00000000000E+00 0. -1.
<mgrwt>
<rscale>  0 0.31790068E+03</rscale>
<asrwt>0</asrwt>
<pdfrwt beam="2">  1        1 0.25635162E+00 0.32143091E+03</pdfrwt>
<pdfrwt beam="1">  1       -1 0.97840455E-02 0.32143091E+03</pdfrwt>
<totfact> 0.34888093E+02</totfact>
</mgrwt>
</event>
<event>
 7    1  0.5206756E-006  0.1256804E+03  0.7546771E-02  0.1249292E+00
          3   -1    0    0  501    0  0.00000000000E+00  0.00000000000E+00  0.73004695608E+02  0.73004695608E+02  0.00000000000E+00 0. -1.
         -3   -1    0    0    0  501 -0.00000000000E+00 -0.00000000000E+00 -0.18403237245E+03  0.18403237245E+03  0.00000000000E+00 0.  1.
         23    2    1    2    0    0 -0.13089878565E+02  0.19898280907E+01 -0.19644295183E+02  0.12720633714E+03  0.12498099671E+03 0.  0.
          5    1    3    3  502    0  0.22378465292E+01 -0.16841130909E+02  0.50151140540E+02  0.53158804961E+02  0.47000000000E+01 0.  1.
         -5    1    3    3    0  502 -0.15327725094E+02  0.18830958999E+02 -0.69795435724E+02  0.74047532175E+02  0.47000000000E+01 0.  1.
        -11    1    1    2    0    0  0.51560525172E+02  0.30386582305E+01 -0.39384812710E+02  0.64952941981E+02  0.00000000000E+00 0. -1.
         11    1    1    2    0    0 -0.38470646607E+02 -0.50284863212E+01 -0.51998568945E+02  0.64877788937E+02  0.00000000000E+00 0.  1.
<mgrwt>
<rscale>  0 0.11632163E+03</rscale>
<asrwt>0</asrwt>
<pdfrwt beam="1">  1        3 0.11231492E-01 0.12568036E+03</pdfrwt>
<pdfrwt beam="2">  1       -3 0.28312672E-01 0.12568036E+03</pdfrwt>
<totfact> 0.16454068E+03</totfact>
</mgrwt>
</event>
<event>
 7    1  0.5206756E-006  0.1500379E+03  0.7546771E-02  0.1209157E+00
          2   -1    0    0  501    0  0.00000000000E+00  0.00000000000E+00  0.44937894825E+02  0.44937894825E+02  0.00000000000E+00 0. -1.
         -2   -1    0    0    0  501 -0.00000000000E+00 -0.00000000000E+00 -0.43077244435E+03  0.43077244435E+03  0.00000000000E+00 0.  1.
         23    2    1    2    0    0  0.82757699050E+02 -0.61283657520E+01 -0.17090807520E+03  0.22742237625E+03  0.12499989373E+03 0.  0.
          5    1    3    3  502    0  0.82474614205E+02 -0.59893040650E+01 -0.32561970415E+02  0.88996099177E+02  0.47000000000E+01 0. -1.
         -5    1    3    3    0  502  0.28308484532E+00 -0.13906168701E+00 -0.13834610479E+03  0.13842627707E+03  0.47000000000E+01 0. -1.
        -11    1    1    2    0    0 -0.31000037837E+02  0.19590672452E+02 -0.12233087488E+02  0.38658055079E+02  0.00000000000E+00 0. -1.
         11    1    1    2    0    0 -0.51757661213E+02 -0.13462306700E+02 -0.20269338684E+03  0.20962990785E+03  0.00000000000E+00 0.  1.
<mgrwt>
<rscale>  0 0.14314597E+03</rscale>
<asrwt>0</asrwt>
<pdfrwt beam="1">  1        2 0.69135226E-02 0.15003789E+03</pdfrwt>
<pdfrwt beam="2">  1       -2 0.66272681E-01 0.15003789E+03</pdfrwt>
<totfact> 0.21314899E+03</totfact>
</mgrwt>
</event>
<event>
 6    1  0.5206756E-006  0.2146499E+03  0.7546771E-02  0.1160281E+00
         -2   -1    0    0    0  501 -0.00000000000E+00  0.00000000000E+00  0.34211579553E+02  0.34211579553E+02  0.00000000000E+00 0.  1.
          2   -1    0    0  501    0  0.00000000000E+00 -0.00000000000E+00 -0.35906769249E+04  0.35906769249E+04  0.00000000000E+00 0. -1.
          5    1    1    2  502    0  0.92948669919E+02 -0.56419309216E+02 -0.28181090164E+04  0.28202097639E+04  0.47000000000E+01 0. -1.
         -5    1    1    2    0  502 -0.68077550481E+01  0.76046334707E+02 -0.64011462358E+03  0.64466907160E+03  0.47000000000E+01 0.  1.
        -11    1    1    2    0    0 -0.45219648447E+02 -0.68093084301E+00 -0.10508086240E+03  0.11439959753E+03  0.00000000000E+00 0. -1.
         11    1    1    2    0    0 -0.40921266425E+02 -0.18946094647E+02  0.68391570787E+01  0.45610071451E+02  0.00000000000E+00 0.  1.
<mgrwt>
<rscale>  0 0.18799610E+03</rscale>
<asrwt>0</asrwt>
<pdfrwt beam="2">  1        2 0.55241135E+00 0.21464995E+03</pdfrwt>
<pdfrwt beam="1">  1       -2 0.52633246E-02 0.21464995E+03</pdfrwt>
<totfact> 0.16346368E+02</totfact>
</mgrwt>
</event>
<event>
 7    1  0.5206756E-006  0.1450949E+03  0.7546771E-02  0.1216540E+00
         -1   -1    0    0    0  501 -0.00000000000E+00  0.00000000000E+00  0.29526232700E+02  0.29526232700E+02  0.00000000000E+00 0.  1.
          1   -1    0    0  501    0  0.00000000000E+00 -0.00000000000E+00 -0.67376972664E+03  0.67376972664E+03  0.00000000000E+00 0. -1.
         23    2    1    2    0    0 -0.70246890235E+02 -0.22233288807E+02 -0.47931271437E+03  0.50079258395E+03  0.12499435693E+03 0.  0.
          5    1    3    3  502    0 -0.86444356813E+02  0.27598611849E+02 -0.26612879407E+03  0.28121332691E+03  0.47000000000E+01 0.  1.
         -5    1    3    3    0  502  0.16197466578E+02 -0.49831900656E+02 -0.21318392030E+03  0.21957925704E+03  0.47000000000E+01 0.  1.
        -11    1    1    2    0    0  0.31947037292E+02 -0.30843945931E+02 -0.33326909749E+02  0.55521573337E+02  0.00000000000E+00 0.  1.
         11    1    1    2    0    0  0.38299852942E+02  0.53077234738E+02 -0.13160386983E+03  0.14698180206E+03  0.00000000000E+00 0. -1.
<mgrwt>
<rscale>  0 0.13764026E+03</rscale>
<asrwt>0</asrwt>
<pdfrwt beam="2">  1        1 0.10365687E+00 0.14509491E+03</pdfrwt>
<pdfrwt beam="1">  1       -1 0.45424978E-02 0.14509491E+03</pdfrwt>
<totfact> 0.58745141E+03</totfact>
</mgrwt>
</event>
<event>
 7    1  0.5206756E-006  0.1370080E+03  0.7546771E-02  0.1229888E+00
          2   -1    0    0  501    0  0.00000000000E+00  0.00000000000E+00  0.35889269044E+03  0.35889269044E+03  0.00000000000E+00 0. -1.
         -2   -1    0    0    0  501 -0.00000000000E+00 -0.00000000000E+00 -0.41590707207E+02  0.41590707207E+02  0.00000000000E+00 0.  1.
         23    2    1    2    0    0  0.49194417986E+02 -0.26935317974E+02  0.15525579158E+03  0.20706414413E+03  0.12500238738E+03 0.  0.
          5    1    3    3  502    0  0.12802229553E+02  0.49411665245E+02  0.46464541157E+02  0.69184198548E+02  0.47000000000E+01 0. -1.
         -5    1    3    3    0  502  0.36392188433E+02 -0.76346983218E+02  0.10879125043E+03  0.13787994558E+03  0.47000000000E+01 0. -1.
        -11    1    1    2    0    0 -0.41809454335E+02 -0.23633102114E+02  0.11212694773E+03  0.12197953268E+03  0.00000000000E+00 0. -1.
         11    1    1    2    0    0 -0.73849636506E+01  0.50568420088E+02  0.49919243927E+02  0.71439720832E+02  0.00000000000E+00 0.  1.
<mgrwt>
<rscale>  0 0.12837451E+03</rscale>
<asrwt>0</asrwt>
<pdfrwt beam="1">  1        2 0.55214258E-01 0.13700803E+03</pdfrwt>
<pdfrwt beam="2">  1       -2 0.63985705E-02 0.13700803E+03</pdfrwt>
<totfact> 0.11403369E+04</totfact>
</mgrwt>
</event>
<event>
 6    1  0.5206756E-006  0.2789628E+03  0.7546771E-02  0.1188019E+00
         -2   -1    0    0    0  501 -0.00000000000E+00  0.00000000000E+00  0.19806442681E+03  0.19806442681E+03  0.00000000000E+00 0.  1.
          2   -1    0    0  501    0  0.00000000000E+00 -0.00000000000E+00 -0.14306410592E+03  0.14306410592E+03  0.00000000000E+00 0. -1.
          5    1    1    2  502    0  0.11061135253E+03  0.74003546452E+02 -0.41065828702E+02  0.13935525998E+03  0.47000000000E+01 0. -1.
         -5    1    1    2    0  502 -0.12346942813E+03 -0.49613951492E+02  0.41980385236E+02  0.13960904917E+03  0.47000000000E+01 0.  1.
        -11    1    1    2    0    0  0.10279104054E+02 -0.56573646272E+01  0.21137143729E+02  0.24175289030E+02  0.00000000000E+00 0. -1.
         11    1    1    2    0    0  0.25789715406E+01 -0.18732230333E+02  0.32948620630E+02  0.37988934559E+02  0.00000000000E+00 0.  1.
<mgrwt>
<rscale>  0 0.16060162E+03</rscale>
<asrwt>0</asrwt>
<pdfrwt beam="2">  1        2 0.22009862E-01 0.27896281E+03</pdfrwt>
<pdfrwt beam="1">  1       -2 0.30471450E-01 0.27896281E+03</pdfrwt>
<totfact> 0.24643492E+03</totfact>
</mgrwt>
</event>
<event>
 7    1  0.5206756E-006  0.1557493E+03  0.7546771E-02  0.1201909E+00
          1   -1    0    0  501    0  0.00000000000E+00  0.00000000000E+00  0.33741140029E+03  0.33741140029E+03  0.00000000000E+00 0. -1.
         -1   -1    0    0    0  501 -0.00000000000E+00 -0.00000000000E+00 -0.66076024034E+02  0.66076024034E+02  0.00000000000E+00 0.  1.
         23    2    1    2    0    0 -0.63184076943E+02  0.68136298508E+02  0.20554299039E+03  0.25788711939E+03  0.12499225055E+03 0.  0.
          5    1    3    3  502    0  0.26951796600E+02 -0.49161297420E+01  0.83114971313E+01  0.29012732656E+02  0.47000000000E+01 0. -1.
         -5    1    3    3    0  502 -0.90135873542E+02  0.73052428250E+02  0.19723149326E+03  0.22887438674E+03  0.47000000000E+01 0. -1.
        -11    1    1    2    0    0  0.31174513840E+02 -0.60897726303E+02  0.83789644996E+02  0.10817156739E+03  0.00000000000E+00 0. -1.
         11    1    1    2    0    0  0.32009563102E+02 -0.72385722049E+01 -0.17997259133E+02  0.37428737540E+02  0.00000000000E+00 0.  1.
<mgrwt>
<rscale>  0 0.14883723E+03</rscale>
<asrwt>0</asrwt>
<pdfrwt beam="1">  1        1 0.51909445E-01 0.15574930E+03</pdfrwt>
<pdfrwt beam="2">  1       -1 0.10165542E-01 0.15574930E+03</pdfrwt>
<totfact> 0.43453355E+03</totfact>
</mgrwt>
</event>
<event>
 7    1  0.5206756E-006  0.1320918E+03  0.7546771E-02  0.1235344E+00
         -1   -1    0    0    0  501 -0.00000000000E+00  0.00000000000E+00  0.24898861629E+02  0.24898861629E+02  0.00000000000E+00 0.  1.
          1   -1    0    0  501    0  0.00000000000E+00 -0.00000000000E+00 -0.85549099869E+03  0.85549099869E+03  0.00000000000E+00 0. -1.
         23    2    1    2    0    0 -0.27177059205E+01  0.42615241722E+02 -0.70124739372E+03  0.71357980492E+03  0.12499914417E+03 0.  0.
          5    1    3    3  502    0  0.58413537441E+02  0.53282251449E+01 -0.26357804071E+03  0.27006666748E+03  0.47000000000E+01 0.  1.
         -5    1    3    3    0  502 -0.61131243362E+02  0.37287016577E+02 -0.43766935301E+03  0.44351313744E+03  0.47000000000E+01 0.  1.
        -11    1    1    2    0    0  0.36218309453E+01 -0.24017752125E+02 -0.14215132708E+03  0.14421154554E+03  0.00000000000E+00 0. -1.
         11    1    1    2    0    0 -0.90412502477E+00 -0.18597489597E+02  0.12806583728E+02  0.22598509866E+02  0.00000000000E+00 0.  1.
<mgrwt>
<rscale>  0 0.12482463E+03</rscale>
<asrwt>0</asrwt>
<pdfrwt beam="2">  1        1 0.13161401E+00 0.13209175E+03</pdfrwt>
<pdfrwt beam="1">  1       -1 0.38305938E-02 0.13209175E+03</pdfrwt>
<totfact> 0.52808503E+03</totfact>
</mgrwt>
</event>
<event>
 7    1  0.5206756E-006  0.1264353E+03  0.7546771E-02  0.1247392E+00
         -4   -1    0    0    0  501 -0.00000000000E+00  0.00000000000E+00  0.51174588215E+03  0.51174588215E+03  0.00000000000E+00 0.  1.
          4   -1    0    0  501    0  0.00000000000E+00 -0.00000000000E+00 -0.24805913893E+02  0.24805913893E+02  0.00000000000E+00 0. -1.
         23    2    1    2    0    0 -0.81064510088E+00  0.18980486381E+02  0.22311571079E+03  0.25644981990E+03  0.12499989486E+03 0.  0.
          5    1    3    3  502    0 -0.47363120013E+02  0.13023483347E+02  0.30203413253E+02  0.57855098548E+02  0.47000000000E+01 0.  1.
         -5    1    3    3    0  502  0.46552474913E+02  0.59570030344E+01  0.19291229754E+03  0.19859472135E+03  0.47000000000E+01 0.  1.
        -11    1    1    2    0    0 -0.16850207168E+02 -0.38571149987E+02  0.24266275497E+03  0.24628616636E+03  0.00000000000E+00 0.  1.
         11    1    1    2    0    0  0.17660852269E+02  0.19590663606E+02  0.21161502497E+02  0.33815809783E+02  0.00000000000E+00 0. -1.
<mgrwt>
<rscale>  0 0.11743377E+03</rscale>
<asrwt>0</asrwt>
<pdfrwt beam="2">  1        4 0.38162948E-02 0.12643532E+03</pdfrwt>
<pdfrwt beam="1">  1       -4 0.78730128E-01 0.12643532E+03</pdfrwt>
<totfact> 0.88494911E+02</totfact>
</mgrwt>
</event>
<event>
 6    1  0.5206756E-006  0.1759006E+03  0.7546771E-02  0.1187982E+00
          1   -1    0    0  501    0  0.00000000000E+00  0.00000000000E+00  0.46969895907E+03  0.46969895907E+03  0.00000000000E+00 0. -1.
         -1   -1    0    0    0  501 -0.00000000000E+00 -0.00000000000E+00 -0.50414296097E+02  0.50414296097E+02  0.00000000000E+00 0.  1.
          5    1    1    2  502    0 -0.50612154272E+02  0.12346285841E+02  0.92917666354E+02  0.10662928141E+03  0.47000000000E+01 0. -1.
         -5    1    1    2    0  502  0.11727808910E+03  0.38699167801E+02  0.21530795976E+03  0.24825668835E+03  0.47000000000E+01 0.  1.
        -11    1    1    2    0    0 -0.17749987654E+02  0.13999715250E+02 -0.53105788331E+01  0.23221893470E+02  0.00000000000E+00 0.  1.
         11    1    1    2    0    0 -0.48915947171E+02 -0.65045168891E+02  0.11636961569E+03  0.14200539194E+03  0.00000000000E+00 0. -1.
<mgrwt>
<rscale>  0 0.16063437E+03</rscale>
<asrwt>0</asrwt>
<pdfrwt beam="1">  1        1 0.72261375E-01 0.17590058E+03</pdfrwt>
<pdfrwt beam="2">  1       -1 0.77560459E-02 0.17590058E+03</pdfrwt>
<totfact> 0.43348400E+03</totfact>
</mgrwt>
</event>
<event>
 7    1  0.5206756E-006  0.1348057E+03  0.7546771E-02  0.1232546E+00
          2   -1    0    0  501    0  0.00000000000E+00  0.00000000000E+00  0.76526067666E+03  0.76526067666E+03  0.00000000000E+00 0. -1.
         -2   -1    0    0    0  501 -0.00000000000E+00 -0.00000000000E+00 -0.18996112983E+02  0.18996112983E+02  0.00000000000E+00 0.  1.
         23    2    1    2    0    0 -0.42100941560E+02 -0.27860318691E+02  0.46061086750E+03  0.47993223056E+03  0.12499555203E+03 0.  0.
          5    1    3    3  502    0  0.37395575488E+02 -0.22905865720E+02  0.26547972113E+03  0.26911833844E+03  0.47000000000E+01 0. -1.
         -5    1    3    3    0  502 -0.79496517048E+02 -0.49544529710E+01  0.19513114637E+03  0.21081389212E+03  0.47000000000E+01 0. -1.
        -11    1    1    2    0    0  0.63223230391E+01  0.56175098266E+02  0.19197615706E+03  0.20012610602E+03  0.00000000000E+00 0. -1.
         11    1    1    2    0    0  0.35778618521E+02 -0.28314779575E+02  0.93677539119E+02  0.10419845306E+03  0.00000000000E+00 0.  1.
<mgrwt>
<rscale>  0 0.12662843E+03</rscale>
<asrwt>0</asrwt>
<pdfrwt beam="1">  1        2 0.11773239E+00 0.13480569E+03</pdfrwt>
<pdfrwt beam="2">  1       -2 0.29224795E-02 0.13480569E+03</pdfrwt>
<totfact> 0.15727500E+04</totfact>
</mgrwt>
</event>
<event>
 7    1  0.5206756E-006  0.1642822E+03  0.7546771E-02  0.1190991E+00
         -1   -1    0    0    0  501 -0.00000000000E+00  0.00000000000E+00  0.16482262961E+03  0.16482262961E+03  0.00000000000E+00 0.  1.
          1   -1    0    0  501    0  0.00000000000E+00 -0.00000000000E+00 -0.19953089667E+03  0.19953089667E+03  0.00000000000E+00 0. -1.
         23    2    1    2    0    0  0.10648136670E+03  0.52185038565E+01 -0.11685077975E+03  0.20160047916E+03  0.12499253670E+03 0.  0.
          5    1    3    3  502    0 -0.91569155880E+01  0.14002859783E+02 -0.76917448329E+02  0.78856280933E+02  0.47000000000E+01 0.  1.
         -5    1    3    3    0  502  0.11563828228E+03 -0.87843559263E+01 -0.39933331423E+02  0.12274419822E+03  0.47000000000E+01 0.  1.
        -11    1    1    2    0    0 -0.13637834600E+02  0.19232268195E+02 -0.13555017649E+02  0.27195756580E+02  0.00000000000E+00 0. -1.
         11    1    1    2    0    0 -0.92843532096E+02 -0.24450772052E+02  0.95697530341E+02  0.13555729054E+03  0.00000000000E+00 0.  1.
<mgrwt>
<rscale>  0 0.15798451E+03</rscale>
<asrwt>0</asrwt>
<pdfrwt beam="2">  1        1 0.30697061E-01 0.16428222E+03</pdfrwt>
<pdfrwt beam="1">  1       -1 0.25357328E-01 0.16428222E+03</pdfrwt>
<totfact> 0.19659316E+03</totfact>
</mgrwt>
</event>
<event>
 7    1  0.5206756E-006  0.1422013E+03  0.7546771E-02  0.1221213E+00
         -1   -1    0    0    0  501 -0.00000000000E+00  0.00000000000E+00  0.12769976862E+03  0.12769976862E+03  0.00000000000E+00 0.  1.
          1   -1    0    0  501    0  0.00000000000E+00 -0.00000000000E+00 -0.12996649413E+03  0.12996649413E+03  0.00000000000E+00 0. -1.
         23    2    1    2    0    0 -0.16927096880E+02  0.65644096826E+02 -0.18414486101E+02  0.14338866499E+03  0.12500216755E+03 0.  0.
          5    1    3    3  502    0  0.29908474754E+02 -0.25351073930E+01  0.33808228342E+02  0.45453602005E+02  0.47000000000E+01 0. -1.
         -5    1    3    3    0  502 -0.46835571635E+02  0.68179204219E+02 -0.52222714443E+02  0.97935062986E+02  0.47000000000E+01 0. -1.
        -11    1    1    2    0    0 -0.15270241700E+02 -0.77296444151E+02  0.90467124804E+01  0.79308029648E+02  0.00000000000E+00 0.  1.
         11    1    1    2    0    0  0.32197338580E+02  0.11652347326E+02  0.71010481032E+01  0.34969568113E+02  0.00000000000E+00 0. -1.
<mgrwt>
<rscale>  0 0.13429910E+03</rscale>
<asrwt>0</asrwt>
<pdfrwt beam="2">  1        1 0.19994845E-01 0.14220132E+03</pdfrwt>
<pdfrwt beam="1">  1       -1 0.19646118E-01 0.14220132E+03</pdfrwt>
<totfact> 0.50780006E+03</totfact>
</mgrwt>
</event>
<event>
 7    1  0.5206756E-006  0.1470296E+03  0.7546771E-02  0.1214028E+00
          2   -1    0    0  501    0  0.00000000000E+00  0.00000000000E+00  0.46577377576E+03  0.46577377576E+03  0.00000000000E+00 0. -1.
         -2   -1    0    0    0  501 -0.00000000000E+00 -0.00000000000E+00 -0.76520307967E+02  0.76520307967E+02  0.00000000000E+00 0.  1.
         23    2    1    2    0    0  0.77376237191E+02 -0.24549004510E+01  0.39660601688E+03  0.42298231761E+03  0.12499839906E+03 0.  0.
          5    1    3    3  502    0  0.15439022583E+02 -0.15652846051E+02  0.12053212657E+01  0.22514835269E+02  0.47000000000E+01 0. -1.
         -5    1    3    3    0  502  0.61937214609E+02  0.13197945600E+02  0.39540069562E+03  0.40046748234E+03  0.47000000000E+01 0. -1.
        -11    1    1    2    0    0 -0.53082842326E+02  0.45317760611E+02 -0.32230223060E+01  0.69870418984E+02  0.00000000000E+00 0. -1.
         11    1    1    2    0    0 -0.24293394865E+02 -0.42862860160E+02 -0.41295267788E+01  0.49441347135E+02  0.00000000000E+00 0.  1.
<mgrwt>
<rscale>  0 0.13948191E+03</rscale>
<asrwt>0</asrwt>
<pdfrwt beam="1">  1        2 0.71657502E-01 0.14702962E+03</pdfrwt>
<pdfrwt beam="2">  1       -2 0.11772355E-01 0.14702962E+03</pdfrwt>
<totfact> 0.33499561E+03</totfact>
</mgrwt>
</event>
<event>
 6    1  0.5206756E-006  0.3349835E+03  0.7546771E-02  0.1101494E+00
          4   -1    0    0  501    0  0.00000000000E+00  0.00000000000E+00  0.61846296337E+03  0.61846296337E+03  0.00000000000E+00 0. -1.
         -4   -1    0    0    0  501 -0.00000000000E+00 -0.00000000000E+00 -0.11050099986E+03  0.11050099986E+03  0.00000000000E+00 0.  1.
          5    1    1    2  502    0 -0.12071680732E+03 -0.21688084087E+02  0.52483004085E+03  0.53899126369E+03  0.47000000000E+01 0. -1.
         -5    1    1    2    0  502  0.10822318490E+02  0.85616693111E+01 -0.44378454640E+02  0.46711476054E+02  0.47000000000E+01 0.  1.
        -11    1    1    2    0    0  0.60089385786E+02  0.31227788407E+02 -0.21529470357E+02  0.71059321323E+02  0.00000000000E+00 0. -1.
         11    1    1    2    0    0  0.49805103046E+02 -0.18101373631E+02  0.49039847663E+02  0.72201902160E+02  0.00000000000E+00 0.  1.
<mgrwt>
<rscale>  0 0.26962495E+03</rscale>
<asrwt>0</asrwt>
<pdfrwt beam="1">  1        4 0.95148146E-01 0.33498354E+03</pdfrwt>
<pdfrwt beam="2">  1       -4 0.17000154E-01 0.33498354E+03</pdfrwt>
<totfact> 0.54409449E+01</totfact>
</mgrwt>
</event>
<event>
 6    1  0.5206756E-006  0.1892316E+03  0.7546771E-02  0.1191271E+00
          1   -1    0    0  501    0  0.00000000000E+00  0.00000000000E+00  0.33066215831E+03  0.33066215831E+03  0.00000000000E+00 0. -1.
         -1   -1    0    0    0  501 -0.00000000000E+00 -0.00000000000E+00 -0.62111369836E+02  0.62111369836E+02  0.00000000000E+00 0.  1.
          5    1    1    2  502    0 -0.57039309018E+01 -0.83056179711E+02  0.83970165869E+02  0.11833825490E+03  0.47000000000E+01 0. -1.
         -5    1    1    2    0  502 -0.20404321372E+01  0.10505593209E+03  0.13282213861E+03  0.16942468160E+03  0.47000000000E+01 0.  1.
        -11    1    1    2    0    0  0.37111348292E+02 -0.34610863897E+02  0.88574027463E+01  0.51513276494E+02  0.00000000000E+00 0.  1.
         11    1    1    2    0    0 -0.29366985253E+02  0.12611111519E+02  0.42901081250E+02  0.53497315157E+02  0.00000000000E+00 0. -1.
<mgrwt>
<rscale>  0 0.15774112E+03</rscale>
<asrwt>0</asrwt>
<pdfrwt beam="1">  1        1 0.50871100E-01 0.18923162E+03</pdfrwt>
<pdfrwt beam="2">  1       -1 0.95555956E-02 0.18923162E+03</pdfrwt>
<totfact> 0.49480408E+03</totfact>
</mgrwt>
</event>
<event>
 7    1  0.5206756E-006  0.1394986E+03  0.7546771E-02  0.1224331E+00
         -1   -1    0    0    0  501 -0.00000000000E+00  0.00000000000E+00  0.83127797063E+02  0.83127797063E+02  0.00000000000E+00 0.  1.
          1   -1    0    0  501    0  0.00000000000E+00 -0.00000000000E+00 -0.19737533736E+03  0.19737533736E+03  0.00000000000E+00 0. -1.
         23    2    1    2    0    0  0.12885636579E+02 -0.60580401053E+02 -0.88853299848E+02  0.16539276457E+03  0.12499533214E+03 0.  0.
          5    1    3    3  502    0 -0.50187161782E+02 -0.53624582297E+02 -0.32719290075E+02  0.80541846125E+02  0.47000000000E+01 0.  1.
         -5    1    3    3    0  502  0.63072798361E+02 -0.69558187560E+01 -0.56134009773E+02  0.84850918444E+02  0.47000000000E+01 0.  1.
        -11    1    1    2    0    0 -0.11128806395E+02  0.29433583999E+02 -0.60470743742E+02  0.68168152737E+02  0.00000000000E+00 0. -1.
         11    1    1    2    0    0 -0.17568301836E+01  0.31146817053E+02  0.35076503291E+02  0.46942217118E+02  0.00000000000E+00 0.  1.
<mgrwt>
<rscale>  0 0.13212881E+03</rscale>
<asrwt>0</asrwt>
<pdfrwt beam="2">  1        1 0.30365436E-01 0.13949859E+03</pdfrwt>
<pdfrwt beam="1">  1       -1 0.12788892E-01 0.13949859E+03</pdfrwt>
<totfact> 0.58990137E+03</totfact>
</mgrwt>
</event>
<event>
 7    1  0.5206756E-006  0.2153877E+03  0.7546771E-02  0.1141236E+00
         -2   -1    0    0    0  501 -0.00000000000E+00  0.00000000000E+00  0.58858945005E+02  0.58858945005E+02  0.00000000000E+00 0.  1.
          2   -1    0    0  501    0  0.00000000000E+00 -0.00000000000E+00 -0.71990226596E+03  0.71990226596E+03  0.00000000000E+00 0. -1.
         23    2    1    2    0    0  0.64138517882E+02 -0.16325682520E+03 -0.33650957048E+03  0.39953791794E+03  0.12500126559E+03 0.  0.
          5    1    3    3  502    0 -0.36520618187E+02 -0.26798336018E+02 -0.78687358889E+02  0.90915877684E+02  0.47000000000E+01 0.  1.
         -5    1    3    3    0  502  0.10065913607E+03 -0.13645848918E+03 -0.25782221159E+03  0.30862204026E+03  0.47000000000E+01 0.  1.
        -11    1    1    2    0    0 -0.48007541039E+02  0.29250141686E+02 -0.59851434597E+02  0.82112660465E+02  0.00000000000E+00 0.  1.
         11    1    1    2    0    0 -0.16130976843E+02  0.13400668351E+03 -0.26468231588E+03  0.29711063256E+03  0.00000000000E+00 0. -1.
<mgrwt>
<rscale>  0 0.21041735E+03</rscale>
<asrwt>0</asrwt>
<pdfrwt beam="2">  1        2 0.11075419E+00 0.21538769E+03</pdfrwt>
<pdfrwt beam="1">  1       -2 0.90552225E-02 0.21538769E+03</pdfrwt>
<totfact> 0.31241723E+03</totfact>
</mgrwt>
</event>
<event>
 7    1  0.5206756E-006  0.1993373E+03  0.7546771E-02  0.1154231E+00
          2   -1    0    0  501    0  0.00000000000E+00  0.00000000000E+00  0.86630651033E+03  0.86630651033E+03  0.00000000000E+00 0. -1.
         -2   -1    0    0    0  501 -0.00000000000E+00 -0.00000000000E+00 -0.41918110086E+02  0.41918110086E+02  0.00000000000E+00 0.  1.
         23    2    1    2    0    0  0.11198028360E+03  0.10749932102E+03  0.44241297901E+03  0.48524695445E+03  0.12505868571E+03 0.  0.
          5    1    3    3  502    0  0.69501312901E+02 -0.11138972183E+02  0.12223119822E+03  0.14112783217E+03  0.47000000000E+01 0. -1.
         -5    1    3    3    0  502  0.42478970703E+02  0.11863829320E+03  0.32018178079E+03  0.34411912228E+03  0.47000000000E+01 0. -1.
        -11    1    1    2    0    0 -0.73396871950E+02 -0.69172008043E+01  0.16554389330E+03  0.18121735317E+03  0.00000000000E+00 0.  1.
         11    1    1    2    0    0 -0.38583411653E+02 -0.10058212021E+03  0.21643152793E+03  0.24176031280E+03  0.00000000000E+00 0. -1.
<mgrwt>
<rscale>  0 0.19476626E+03</rscale>
<asrwt>0</asrwt>
<pdfrwt beam="1">  1        2 0.13327791E+00 0.19933731E+03</pdfrwt>
<pdfrwt beam="2">  1       -2 0.64489407E-02 0.19933731E+03</pdfrwt>
<totfact> 0.41856254E+03</totfact>
</mgrwt>
</event>
<event>
 7    1  0.5206756E-006  0.1570738E+03  0.7546771E-02  0.1195303E+00
          1   -1    0    0  501    0  0.00000000000E+00  0.00000000000E+00  0.85295555872E+02  0.85295555872E+02  0.00000000000E+00 0. -1.
         -1   -1    0    0    0  501 -0.00000000000E+00 -0.00000000000E+00 -0.27976558495E+03  0.27976558495E+03  0.00000000000E+00 0.  1.
         23    2    1    2    0    0 -0.53970535508E+02  0.78330395193E+02 -0.65830061993E+02  0.17031084839E+03  0.12499487390E+03 0.  0.
          5    1    3    3  502    0  0.12685677701E+02  0.69920681145E+02  0.64595848784E+01  0.71509749736E+02  0.47000000000E+01 0. -1.
         -5    1    3    3    0  502 -0.66656213209E+02  0.84097140483E+01 -0.72289646871E+02  0.98801098650E+02  0.47000000000E+01 0. -1.
        -11    1    1    2    0    0  0.67103642025E+01 -0.42243092695E+02 -0.12834726187E+03  0.13528683416E+03  0.00000000000E+00 0.  1.
         11    1    1    2    0    0  0.47260171305E+02 -0.36087302498E+02 -0.29270521469E+00  0.59463458272E+02  0.00000000000E+00 0. -1.
<mgrwt>
<rscale>  0 0.15428631E+03</rscale>
<asrwt>0</asrwt>
<pdfrwt beam="1">  1        1 0.13122393E-01 0.15707383E+03</pdfrwt>
<pdfrwt beam="2">  1       -1 0.43040859E-01 0.15707383E+03</pdfrwt>
<totfact> 0.23509778E+03</totfact>
</mgrwt>
</event>
<event>
 6    1  0.5206756E-006  0.1347727E+03  0.7546771E-02  0.1290109E+00
         -2   -1    0    0    0  501 -0.00000000000E+00  0.00000000000E+00  0.53447959328E+02  0.53447959328E+02  0.00000000000E+00 0.  1.
          2   -1    0    0  501    0  0.00000000000E+00 -0.00000000000E+00 -0.36908287348E+03  0.36908287348E+03  0.00000000000E+00 0. -1.
          5    1    1    2  502    0 -0.29003113046E+02  0.89717934839E+01 -0.33490616840E+03  0.33631221399E+03  0.47000000000E+01 0. -1.
         -5    1    1    2    0  502  0.10411019034E+02 -0.33485711414E+02 -0.14592513113E+02  0.38271577249E+02  0.47000000000E+01 0.  1.
        -11    1    1    2    0    0  0.13558730344E+02  0.61501286504E+01  0.15546555518E+02  0.21525766872E+02  0.00000000000E+00 0.  1.
         11    1    1    2    0    0  0.50333636686E+01  0.18363789280E+02  0.18317211848E+02  0.26421274693E+02  0.00000000000E+00 0. -1.
<mgrwt>
<rscale>  0 0.95475250E+02</rscale>
<asrwt>0</asrwt>
<pdfrwt beam="2">  1        2 0.56781982E-01 0.13477273E+03</pdfrwt>
<pdfrwt beam="1">  1       -2 0.82227628E-02 0.13477273E+03</pdfrwt>
<totfact> 0.75240957E+03</totfact>
</mgrwt>
</event>
<event>
 7    1  0.5206756E-006  0.1390213E+03  0.7546771E-02  0.1228420E+00
         -1   -1    0    0    0  501 -0.00000000000E+00  0.00000000000E+00  0.26955308443E+03  0.26955308443E+03  0.00000000000E+00 0.  1.
          1   -1    0    0  501    0  0.00000000000E+00 -0.00000000000E+00 -0.55841602472E+02  0.55841602472E+02  0.00000000000E+00 0. -1.
         23    2    1    2    0    0  0.28943357693E+02 -0.53521231598E+02  0.10057379180E+03  0.17158674493E+03  0.12499873300E+03 0.  0.
          5    1    3    3  502    0 -0.41601037829E+02 -0.53934824984E+02  0.51534525673E+02  0.85542439940E+02  0.47000000000E+01 0.  1.
         -5    1    3    3    0  502  0.70544395522E+02  0.41359338653E+00  0.49039266122E+02  0.86044304988E+02  0.47000000000E+01 0.  1.
        -11    1    1    2    0    0  0.17500815240E+02  0.34313465253E+02  0.91140012873E+02  0.98945411102E+02  0.00000000000E+00 0.  1.
         11    1    1    2    0    0 -0.46444172933E+02  0.19207766345E+02  0.21997677286E+02  0.54862530869E+02  0.00000000000E+00 0. -1.
<mgrwt>
<rscale>  0 0.12935210E+03</rscale>
<asrwt>0</asrwt>
<pdfrwt beam="2">  1        1 0.85910159E-02 0.13902131E+03</pdfrwt>
<pdfrwt beam="1">  1       -1 0.41469705E-01 0.13902131E+03</pdfrwt>
<totfact> 0.43726357E+03</totfact>
</mgrwt>
</event>
<event>
 7    1  0.5206756E-006  0.1423859E+03  0.7546771E-02  0.1220582E+00
          1   -1    0    0  501    0  0.00000000000E+00  0.00000000000E+00  0.20403631178E+03  0.20403631178E+03  0.00000000000E+00 0. -1.
         -1   -1    0    0    0  501 -0.00000000000E+00 -0.00000000000E+00 -0.11113369681E+03  0.11113369681E+03  0.00000000000E+00 0.  1.
         23    2    1    2    0    0  0.11372116310E+02 -0.67228106599E+02  0.13231094453E+03  0.19437060221E+03  0.12499920645E+03 0.  0.
          5    1    3    3  502    0 -0.18495392848E+02  0.28353699236E+01 -0.17626132196E+02  0.26132152904E+02  0.47000000000E+01 0.  1.
         -5    1    3    3    0  502  0.29867509158E+02 -0.70063476522E+02  0.14993707673E+03  0.16823844930E+03  0.47000000000E+01 0.  1.
        -11    1    1    2    0    0 -0.41470233481E+02  0.19055485381E+02 -0.44533773724E+02  0.63766360960E+02  0.00000000000E+00 0.  1.
         11    1    1    2    0    0  0.30098117171E+02  0.48172621218E+02  0.51254441659E+01  0.57033045422E+02  0.00000000000E+00 0. -1.
<mgrwt>
<rscale>  0 0.13474349E+03</rscale>
<asrwt>0</asrwt>
<pdfrwt beam="1">  1        1 0.31390202E-01 0.14238590E+03</pdfrwt>
<pdfrwt beam="2">  1       -1 0.17097492E-01 0.14238590E+03</pdfrwt>
<totfact> 0.35952658E+03</totfact>
</mgrwt>
</event>
<event>
 7    1  0.5206756E-006  0.1274741E+03  0.7546771E-02  0.1249139E+00
         -2   -1    0    0    0  501 -0.00000000000E+00  0.00000000000E+00  0.64815869231E+02  0.64815869231E+02  0.00000000000E+00 0. -1.
          2   -1    0    0  501    0  0.00000000000E+00 -0.00000000000E+00 -0.28101824796E+03  0.28101824796E+03  0.00000000000E+00 0.  1.
         23    2    1    2    0    0 -0.21854052269E+02 -0.12167036108E+02 -0.22305940996E+03  0.25691466146E+03  0.12499602608E+03 0.  0.
          5    1    3    3  502    0 -0.30633636999E+02 -0.49885126738E+02 -0.43284986227E+02  0.72956326787E+02  0.47000000000E+01 0.  1.
         -5    1    3    3    0  502  0.87795847309E+01  0.37718090631E+02 -0.17977442373E+03  0.18395833467E+03  0.47000000000E+01 0.  1.
        -11    1    1    2    0    0 -0.29501833471E+02 -0.43544638120E+01 -0.11458557590E+02  0.31947113724E+02  0.00000000000E+00 0.  1.
         11    1    1    2    0    0  0.51355885740E+02  0.16521499920E+02  0.18315588820E+02  0.56972342005E+02  0.00000000000E+00 0. -1.
<mgrwt>
<rscale>  0 0.11641042E+03</rscale>
<asrwt>0</asrwt>
<pdfrwt beam="2">  1        2 0.43233577E-01 0.12747409E+03</pdfrwt>
<pdfrwt beam="1">  1       -2 0.99716722E-02 0.12747409E+03</pdfrwt>
<totfact> 0.74099141E+03</totfact>
</mgrwt>
</event>
<event>
 7    1  0.5206756E-006  0.1764842E+03  0.7546771E-02  0.1177208E+00
          1   -1    0    0  501    0  0.00000000000E+00  0.00000000000E+00  0.33331257196E+03  0.33331257196E+03  0.00000000000E+00 0. -1.
         -1   -1    0    0    0  501 -0.00000000000E+00 -0.00000000000E+00 -0.12491519595E+03  0.12491519595E+03  0.00000000000E+00 0.  1.
         23    2    1    2    0    0 -0.52517353352E+02 -0.11296878276E+03  0.24291376946E+03  0.30025615523E+03  0.12500656414E+03 0.  0.
          5    1    3    3  502    0 -0.89027599630E+02 -0.64140329712E+02  0.18967926724E+03  0.21918076971E+03  0.47000000000E+01 0.  1.
         -5    1    3    3    0  502  0.36510246277E+02 -0.48828453046E+02  0.53234502223E+02  0.81075385519E+02  0.47000000000E+01 0.  1.
        -11    1    1    2    0    0  0.75636166660E+02  0.61269068312E+02 -0.25521106730E+02  0.10062830282E+03  0.00000000000E+00 0.  1.
         11    1    1    2    0    0 -0.23118813308E+02  0.51699714446E+02 -0.89952867182E+01  0.57343309860E+02  0.00000000000E+00 0. -1.
<mgrwt>
<rscale>  0 0.17061548E+03</rscale>
<asrwt>0</asrwt>
<pdfrwt beam="1">  1        1 0.51278857E-01 0.17648416E+03</pdfrwt>
<pdfrwt beam="2">  1       -1 0.19217723E-01 0.17648416E+03</pdfrwt>
<totfact> 0.16326673E+03</totfact>
</mgrwt>
</event>
<event>
 7    1  0.5206756E-006  0.1380966E+03  0.7546771E-02  0.1227536E+00
         -1   -1    0    0    0  501 -0.00000000000E+00  0.00000000000E+00  0.24900888188E+02  0.24900888188E+02  0.00000000000E+00 0. -1.
          1   -1    0    0  501    0  0.00000000000E+00 -0.00000000000E+00 -0.13333312147E+04  0.13333312147E+04  0.00000000000E+00 0.  1.
         23    2    1    2    0    0  0.57480205713E+02 -0.11920252365E+02 -0.11891541621E+04  0.11971458938E+04  0.12499841326E+03 0.  0.
          5    1    3    3  502    0 -0.45611926733E+01  0.40577057146E+02 -0.70485235141E+03  0.70604973573E+03  0.47000000000E+01 0. -1.
         -5    1    3    3    0  502  0.62041398386E+02 -0.52497309511E+02 -0.48430181070E+03  0.49109615807E+03  0.47000000000E+01 0. -1.
        -11    1    1    2    0    0 -0.58940829532E+02 -0.30087951061E+02 -0.70357781300E+02  0.96589458920E+02  0.00000000000E+00 0. -1.
         11    1    1    2    0    0  0.14606238189E+01  0.42008203426E+02 -0.48918383114E+02  0.64496750178E+02  0.00000000000E+00 0.  1.
<mgrwt>
<rscale>  0 0.12994581E+03</rscale>
<asrwt>0</asrwt>
<pdfrwt beam="2">  1        1 0.20512791E+00 0.13809660E+03</pdfrwt>
<pdfrwt beam="1">  1       -1 0.38309054E-02 0.13809660E+03</pdfrwt>
<totfact> 0.24143380E+03</totfact>
</mgrwt>
</event>
<event>
 6    1  0.5206756E-006  0.1321033E+03  0.7546771E-02  0.1239983E+00
         -2   -1    0    0    0  501 -0.00000000000E+00  0.00000000000E+00  0.24309002853E+02  0.24309002853E+02  0.00000000000E+00 0.  1.
          2   -1    0    0  501    0  0.00000000000E+00 -0.00000000000E+00 -0.12836969347E+04  0.12836969347E+04  0.00000000000E+00 0. -1.
          5    1    1    2  502    0 -0.37047704777E+02 -0.58602701369E+02 -0.10169670196E+04  0.10193384217E+04  0.47000000000E+01 0. -1.
         -5    1    1    2    0  502  0.27264178358E+02  0.28243700525E+02 -0.15155389842E+03  0.15662603923E+03  0.47000000000E+01 0.  1.
        -11    1    1    2    0    0 -0.30693016947E+02 -0.63111987639E+01 -0.63811813224E+02  0.71090365213E+02  0.00000000000E+00 0. -1.
         11    1    1    2    0    0  0.40476543366E+02  0.36670199608E+02 -0.27055200645E+02  0.60951111427E+02  0.00000000000E+00 0.  1.
<mgrwt>
<rscale>  0 0.12190725E+03</rscale>
<asrwt>0</asrwt>
<pdfrwt beam="2">  1        2 0.19749185E+00 0.13210328E+03</pdfrwt>
<pdfrwt beam="1">  1       -2 0.37398464E-02 0.13210328E+03</pdfrwt>
<totfact> 0.53432485E+03</totfact>
</mgrwt>
</event>
<event>
 7    1  0.5206756E-006  0.1872064E+03  0.7546771E-02  0.1164735E+00
          1   -1    0    0  501    0  0.00000000000E+00  0.00000000000E+00  0.62294966430E+03  0.62294966430E+03  0.00000000000E+00 0. -1.
         -1   -1    0    0    0  501 -0.00000000000E+00 -0.00000000000E+00 -0.51825525643E+02  0.51825525643E+02  0.00000000000E+00 0.  1.
         23    2    1    2    0    0 -0.92020974998E+02 -0.10465871224E+03  0.28121319195E+03  0.33782702521E+03  0.12499973499E+03 0.  0.
          5    1    3    3  502    0 -0.12217928150E+03 -0.92089294028E+02  0.21603455289E+03  0.26476637428E+03  0.47000000000E+01 0.  1.
         -5    1    3    3    0  502  0.30158306506E+02 -0.12569418212E+02  0.65178639056E+02  0.73060650933E+02  0.47000000000E+01 0.  1.
        -11    1    1    2    0    0  0.94567359658E+02  0.74180726799E+02  0.28015044712E+03  0.30484428609E+03  0.00000000000E+00 0. -1.
         11    1    1    2    0    0 -0.25463846602E+01  0.30477985441E+02  0.97604995806E+01  0.32103878636E+02  0.00000000000E+00 0.  1.
<mgrwt>
<rscale>  0 0.18320697E+03</rscale>
<asrwt>0</asrwt>
<pdfrwt beam="1">  1        1 0.95838404E-01 0.18720641E+03</pdfrwt>
<pdfrwt beam="2">  1       -1 0.79731583E-02 0.18720641E+03</pdfrwt>
<totfact> 0.28522189E+03</totfact>
</mgrwt>
</event>
<event>
 7    1  0.5206756E-006  0.1321511E+03  0.7546771E-02  0.1235955E+00
         -2   -1    0    0    0  501 -0.00000000000E+00  0.00000000000E+00  0.88903866637E+01  0.88903866637E+01  0.00000000000E+00 0.  1.
          2   -1    0    0  501    0  0.00000000000E+00 -0.00000000000E+00 -0.17410405335E+04  0.17410405335E+04  0.00000000000E+00 0. -1.
         23    2    1    2    0    0 -0.37257439622E+02  0.36785992375E+02 -0.12344886059E+04  0.12415417923E+04  0.12133663078E+03 0.  0.
          5    1    3    3  502    0 -0.83854249243E+01  0.40765664887E+02 -0.11685022747E+04  0.11692526719E+04  0.47000000000E+01 0. -1.
         -5    1    3    3    0  502 -0.28872014698E+02 -0.39796725121E+01 -0.65986331163E+02  0.72289120387E+02  0.47000000000E+01 0.  1.
        -11    1    1    2    0    0 -0.10169116883E+00  0.25684488968E+02 -0.69705283565E+02  0.74286808193E+02  0.00000000000E+00 0. -1.
         11    1    1    2    0    0  0.37359130791E+02 -0.62470481343E+02 -0.42795625741E+03  0.43410231968E+03  0.00000000000E+00 0.  1.
<mgrwt>
<rscale>  0 0.12443520E+03</rscale>
<asrwt>0</asrwt>
<pdfrwt beam="2">  1        2 0.26785250E+00 0.13215107E+03</pdfrwt>
<pdfrwt beam="1">  1       -2 0.13677512E-02 0.13215107E+03</pdfrwt>
<totfact> 0.13359078E+04</totfact>
</mgrwt>
</event>
<event>
 7    1  0.5206756E-006  0.2513414E+03  0.7546771E-02  0.1114521E+00
         -1   -1    0    0    0  501 -0.00000000000E+00  0.00000000000E+00  0.23033497498E+02  0.23033497498E+02  0.00000000000E+00 0.  1.
          1   -1    0    0  501    0  0.00000000000E+00 -0.00000000000E+00 -0.26648521415E+04  0.26648521415E+04  0.00000000000E+00 0. -1.
         23    2    1    2    0    0  0.15233958462E+03 -0.15601852875E+03 -0.15558914159E+04  0.15760617352E+04  0.12499345823E+03 0.  0.
          5    1    3    3  502    0  0.13205155853E+02 -0.16634700149E+02 -0.58404892855E+03  0.58445387357E+03  0.47000000000E+01 0. -1.
         -5    1    3    3    0  502  0.13913442877E+03 -0.13938382860E+03 -0.97184248735E+03  0.99160786158E+03  0.47000000000E+01 0. -1.
        -11    1    1    2    0    0 -0.28527578520E+02  0.94435555625E+02 -0.51745766325E+03  0.52677730604E+03  0.00000000000E+00 0. -1.
         11    1    1    2    0    0 -0.12381200610E+03  0.61582973128E+02 -0.56846956489E+03  0.58504659783E+03  0.00000000000E+00 0.  1.
<mgrwt>
<rscale>  0 0.24808518E+03</rscale>
<asrwt>0</asrwt>
<pdfrwt beam="2">  1        1 0.40997699E+00 0.25134139E+03</pdfrwt>
<pdfrwt beam="1">  1       -1 0.35436173E-02 0.25134139E+03</pdfrwt>
<totfact> 0.36353416E+02</totfact>
</mgrwt>
</event>
<event>
 7    1  0.5206756E-006  0.1266193E+03  0.7546771E-02  0.1251275E+00
         -2   -1    0    0    0  501 -0.00000000000E+00  0.00000000000E+00  0.29058425731E+02  0.29058425731E+02  0.00000000000E+00 0.  1.
          2   -1    0    0  501    0  0.00000000000E+00 -0.00000000000E+00 -0.40692619431E+03  0.40692619431E+03  0.00000000000E+00 0. -1.
         23    2    1    2    0    0 -0.19217842408E+02 -0.60100053600E+01 -0.26475960951E+03  0.29347929576E+03  0.12500800207E+03 0.  0.
          5    1    3    3  502    0 -0.65476277927E+02  0.17784911695E+02 -0.19366785865E+03  0.20526269883E+03  0.47000000000E+01 0. -1.
         -5    1    3    3    0  502  0.46258435519E+02 -0.23794917055E+02 -0.71091750855E+02  0.88216596930E+02  0.47000000000E+01 0. -1.
        -11    1    1    2    0    0 -0.14981485468E+02 -0.18299376457E+02 -0.19949675928E+01  0.23733773009E+02  0.00000000000E+00 0.  1.
         11    1    1    2    0    0  0.34199327875E+02  0.24309381817E+02 -0.11111319148E+03  0.11877155127E+03  0.00000000000E+00 0. -1.
<mgrwt>
<rscale>  0 0.11517576E+03</rscale>
<asrwt>0</asrwt>
<pdfrwt beam="2">  1        2 0.62604030E-01 0.12661930E+03</pdfrwt>
<pdfrwt beam="1">  1       -2 0.44705270E-02 0.12661930E+03</pdfrwt>
<totfact> 0.17007703E+04</totfact>
</mgrwt>
</event>
<event>
 7    1  0.5206756E-006  0.1268385E+03  0.7546771E-02  0.1247970E+00
         -2   -1    0    0    0  501 -0.00000000000E+00  0.00000000000E+00  0.62188914265E+02  0.62188914265E+02  0.00000000000E+00 0.  1.
          2   -1    0    0  501    0  0.00000000000E+00 -0.00000000000E+00 -0.22472099528E+03  0.22472099528E+03  0.00000000000E+00 0. -1.
         23    2    1    2    0    0  0.21431681535E+02 -0.19266509936E+01 -0.14584787201E+03  0.19328635472E+03  0.12499993678E+03 0.  0.
          5    1    3    3  502    0 -0.69829235231E+01 -0.48029871001E+02 -0.14092363310E+02  0.50757407666E+02  0.47000000000E+01 0.  1.
         -5    1    3    3    0  502  0.28414605059E+02  0.46103220007E+02 -0.13175550870E+03  0.14252894706E+03  0.47000000000E+01 0.  1.
        -11    1    1    2    0    0 -0.26810814589E+02 -0.26586669967E+02  0.23188864276E+02  0.44310204528E+02  0.00000000000E+00 0.  1.
         11    1    1    2    0    0  0.53791330537E+01  0.28513320961E+02 -0.39873073273E+02  0.49313350291E+02  0.00000000000E+00 0. -1.
<mgrwt>
<rscale>  0 0.11709348E+03</rscale>
<asrwt>0</asrwt>
<pdfrwt beam="2">  1        2 0.34572461E-01 0.12683853E+03</pdfrwt>
<pdfrwt beam="1">  1       -2 0.95675252E-02 0.12683853E+03</pdfrwt>
<totfact> 0.10022859E+04</totfact>
</mgrwt>
</event>
<event>
 7    1  0.5206756E-006  0.2108288E+03  0.7546771E-02  0.1144422E+00
         -1   -1    0    0    0  501 -0.00000000000E+00  0.00000000000E+00  0.44228351054E+02  0.44228351054E+02  0.00000000000E+00 0.  1.
          1   -1    0    0  501    0  0.00000000000E+00 -0.00000000000E+00 -0.92932726357E+03  0.92932726357E+03  0.00000000000E+00 0. -1.
         23    2    1    2    0    0  0.70676930372E+02 -0.15437397960E+03 -0.42946828023E+03  0.47842636566E+03  0.12498891781E+03 0.  0.
          5    1    3    3  502    0  0.89737008783E+00 -0.27649788104E+02 -0.23146646924E+03  0.23316117266E+03  0.47000000000E+01 0. -1.
         -5    1    3    3    0  502  0.69779560284E+02 -0.12672419149E+03 -0.19800181099E+03  0.24526519300E+03  0.47000000000E+01 0. -1.
        -11    1    1    2    0    0 -0.87644453989E+02  0.14517908907E+03 -0.36507162045E+03  0.40253671419E+03  0.00000000000E+00 0.  1.
         11    1    1    2    0    0  0.16967523617E+02  0.91948905311E+01 -0.90559011842E+02  0.92592534772E+02  0.00000000000E+00 0. -1.
<mgrwt>
<rscale>  0 0.20643296E+03</rscale>
<asrwt>0</asrwt>
<pdfrwt beam="2">  1        1 0.14297342E+00 0.21082880E+03</pdfrwt>
<pdfrwt beam="1">  1       -1 0.68043617E-02 0.21082880E+03</pdfrwt>
<totfact> 0.19924918E+03</totfact>
</mgrwt>
</event>
<event>
 7    1  0.5206756E-006  0.1265176E+03  0.7546771E-02  0.1247922E+00
          1   -1    0    0  501    0  0.00000000000E+00  0.00000000000E+00  0.59411708617E+02  0.59411708617E+02  0.00000000000E+00 0. -1.
         -1   -1    0    0    0  501 -0.00000000000E+00 -0.00000000000E+00 -0.20682501532E+03  0.20682501532E+03  0.00000000000E+00 0.  1.
         23    2    1    2    0    0  0.13755128051E+02  0.13937839865E+02 -0.65998916115E+02  0.14269745662E+03  0.12499296088E+03 0.  0.
          5    1    3    3  502    0  0.18802511787E+01  0.45423365735E+02 -0.90107613110E+02  0.10103607989E+03  0.47000000000E+01 0. -1.
         -5    1    3    3    0  502  0.11874876873E+02 -0.31485525870E+02  0.24108696995E+02  0.41661376728E+02  0.47000000000E+01 0. -1.
        -11    1    1    2    0    0  0.15955769102E+02 -0.45136321392E+02 -0.30153329485E+02  0.56578241007E+02  0.00000000000E+00 0. -1.
         11    1    1    2    0    0 -0.29710897153E+02  0.31198481528E+02 -0.51261061104E+02  0.66961026312E+02  0.00000000000E+00 0.  1.
<mgrwt>
<rscale>  0 0.11712175E+03</rscale>
<asrwt>0</asrwt>
<pdfrwt beam="1">  1        1 0.91402628E-02 0.12651762E+03</pdfrwt>
<pdfrwt beam="2">  1       -1 0.31819233E-01 0.12651762E+03</pdfrwt>
<totfact> 0.63177709E+03</totfact>
</mgrwt>
</event>
<event>
 7    1  0.5206756E-006  0.2260042E+03  0.7546771E-02  0.1132701E+00
          2   -1    0    0  501    0  0.00000000000E+00  0.00000000000E+00  0.35574350200E+03  0.35574350200E+03  0.00000000000E+00 0. -1.
         -2   -1    0    0    0  501 -0.00000000000E+00 -0.00000000000E+00 -0.15894493072E+03  0.15894493072E+03  0.00000000000E+00 0.  1.
         23    2    1    2    0    0 -0.16102454892E+03 -0.97593442949E+02  0.20574637148E+03  0.30562963724E+03  0.12499808126E+03 0.  0.
          5    1    3    3  502    0 -0.38126624443E+02 -0.95442028060E+02  0.98565401437E+02  0.14247823894E+03  0.47000000000E+01 0.  1.
         -5    1    3    3    0  502 -0.12289792448E+03 -0.21514148897E+01  0.10718097005E+03  0.16315139830E+03  0.47000000000E+01 0.  1.
        -11    1    1    2    0    0  0.77966987763E+02  0.67676589758E+02  0.36829429869E+02  0.10961468372E+03  0.00000000000E+00 0.  1.
         11    1    1    2    0    0  0.83057561157E+02  0.29916853191E+02 -0.45777230068E+02  0.99444111756E+02  0.00000000000E+00 0. -1.
<mgrwt>
<rscale>  0 0.22159246E+03</rscale>
<asrwt>0</asrwt>
<pdfrwt beam="1">  1        2 0.54729770E-01 0.22600422E+03</pdfrwt>
<pdfrwt beam="2">  1       -2 0.24453066E-01 0.22600422E+03</pdfrwt>
<totfact> 0.13381645E+03</totfact>
</mgrwt>
</event>
<event>
 7    1  0.5206756E-006  0.1452447E+03  0.7546771E-02  0.1216304E+00
         -2   -1    0    0    0  501 -0.00000000000E+00  0.00000000000E+00  0.16193303872E+02  0.16193303872E+02  0.00000000000E+00 0.  1.
          2   -1    0    0  501    0  0.00000000000E+00 -0.00000000000E+00 -0.10744673233E+04  0.10744673233E+04  0.00000000000E+00 0. -1.
         23    2    1    2    0    0  0.72368260110E+02 -0.15277109965E+02 -0.62763145538E+03  0.64421833533E+03  0.12500185850E+03 0.  0.
          5    1    3    3  502    0 -0.27585645740E+02  0.24855106426E+02 -0.15946183867E+03  0.16379533619E+03  0.47000000000E+01 0. -1.
         -5    1    3    3    0  502  0.99953905851E+02 -0.40132216391E+02 -0.46816961671E+03  0.48042299914E+03  0.47000000000E+01 0. -1.
        -11    1    1    2    0    0 -0.67477642046E+02  0.29505467676E+02 -0.42337655458E+03  0.42973423387E+03  0.00000000000E+00 0. -1.
         11    1    1    2    0    0 -0.48906180647E+01 -0.14228357711E+02 -0.72660095083E+01  0.16708058008E+02  0.00000000000E+00 0.  1.
<mgrwt>
<rscale>  0 0.13781186E+03</rscale>
<asrwt>0</asrwt>
<pdfrwt beam="2">  1        2 0.16530269E+00 0.14524469E+03</pdfrwt>
<pdfrwt beam="1">  1       -2 0.24912771E-02 0.14524469E+03</pdfrwt>
<totfact> 0.12767787E+04</totfact>
</mgrwt>
</event>
<event>
 7    1  0.5206756E-006  0.1698970E+03  0.7546771E-02  0.1184647E+00
          1   -1    0    0  501    0  0.00000000000E+00  0.00000000000E+00  0.15371950326E+03  0.15371950326E+03  0.00000000000E+00 0. -1.
         -1   -1    0    0    0  501 -0.00000000000E+00 -0.00000000000E+00 -0.19046476586E+03  0.19046476586E+03  0.00000000000E+00 0.  1.
         23    2    1    2    0    0  0.11408896193E+03  0.14992605422E+02  0.46215485177E+02  0.17607059949E+03  0.12499566185E+03 0.  0.
          5    1    3    3  502    0  0.11643656950E+03  0.39754400578E+02  0.69747828167E+02  0.14150878635E+03  0.47000000000E+01 0.  1.
         -5    1    3    3    0  502 -0.23476075641E+01 -0.24761795157E+02 -0.23532342989E+02  0.34561813136E+02  0.47000000000E+01 0.  1.
        -11    1    1    2    0    0 -0.55487472019E+02  0.15055208174E+02 -0.84541377968E+02  0.10223875700E+03  0.00000000000E+00 0.  1.
         11    1    1    2    0    0 -0.58601489914E+02 -0.30047813596E+02  0.15806301922E+01  0.65874912629E+02  0.00000000000E+00 0. -1.
<mgrwt>
<rscale>  0 0.16364001E+03</rscale>
<asrwt>0</asrwt>
<pdfrwt beam="1">  1        1 0.23649154E-01 0.16989698E+03</pdfrwt>
<pdfrwt beam="2">  1       -1 0.29302272E-01 0.16989698E+03</pdfrwt>
<totfact> 0.21468130E+03</totfact>
</mgrwt>
</event>
<event>
 7    1  0.5206756E-006  0.1346914E+03  0.7546771E-02  0.1236724E+00
          2   -1    0    0  501    0  0.00000000000E+00  0.00000000000E+00  0.43967671046E+03  0.43967671046E+03  0.00000000000E+00 0. -1.
         -2   -1    0    0    0  501 -0.00000000000E+00 -0.00000000000E+00 -0.44399070876E+02  0.44399070876E+02  0.00000000000E+00 0.  1.
         23    2    1    2    0    0 -0.39655396194E+02 -0.30802349097E+02  0.35451341466E+03  0.37923810418E+03  0.12498177199E+03 0.  0.
          5    1    3    3  502    0  0.28891869398E+02 -0.15916688667E+02  0.23329691668E+02  0.40674876875E+02  0.47000000000E+01 0. -1.
         -5    1    3    3    0  502 -0.68547265592E+02 -0.14885660430E+02  0.33118372299E+03  0.33856322730E+03  0.47000000000E+01 0. -1.
        -11    1    1    2    0    0 -0.14339045433E+02 -0.11169549825E+02 -0.89777219134E+01  0.20272310129E+02  0.00000000000E+00 0.  1.
         11    1    1    2    0    0  0.53994441627E+02  0.41971898922E+02  0.49741946838E+02  0.84565367030E+02  0.00000000000E+00 0. -1.
<mgrwt>
<rscale>  0 0.12394688E+03</rscale>
<asrwt>0</asrwt>
<pdfrwt beam="1">  1        2 0.67642568E-01 0.13469142E+03</pdfrwt>
<pdfrwt beam="2">  1       -2 0.68306266E-02 0.13469142E+03</pdfrwt>
<totfact> 0.82978058E+03</totfact>
</mgrwt>
</event>
<event>
 7    1  0.5206756E-006  0.1703441E+03  0.7546771E-02  0.1183681E+00
         -3   -1    0    0    0  501 -0.00000000000E+00  0.00000000000E+00  0.13161105434E+03  0.13161105434E+03  0.00000000000E+00 0.  1.
          3   -1    0    0  501    0  0.00000000000E+00 -0.00000000000E+00 -0.38011337873E+03  0.38011337873E+03  0.00000000000E+00 0. -1.
         23    2    1    2    0    0 -0.37461306469E+02  0.10950150440E+03 -0.30802312251E+03  0.35198773376E+03  0.12499276687E+03 0.  0.
          5    1    3    3  502    0 -0.43490628243E+02  0.63493406874E+02 -0.29302088013E+03  0.30299533603E+03  0.47000000000E+01 0.  1.
         -5    1    3    3    0  502  0.60293217738E+01  0.46008097529E+02 -0.15002242374E+02  0.48992397732E+02  0.47000000000E+01 0.  1.
        -11    1    1    2    0    0  0.51228990840E+02 -0.16890742480E+02  0.14558238647E+02  0.55871719111E+02  0.00000000000E+00 0. -1.
         11    1    1    2    0    0 -0.13767684370E+02 -0.92610761923E+02  0.44962559473E+02  0.10386498020E+03  0.00000000000E+00 0.  1.
<mgrwt>
<rscale>  0 0.16452495E+03</rscale>
<asrwt>0</asrwt>
<pdfrwt beam="2">  1        3 0.58478980E-01 0.17034412E+03</pdfrwt>
<pdfrwt beam="1">  1       -3 0.20247855E-01 0.17034412E+03</pdfrwt>
<totfact> 0.15323025E+02</totfact>
</mgrwt>
</event>
<event>
 7    1  0.5206756E-006  0.2366438E+03  0.7546771E-02  0.1124843E+00
         -1   -1    0    0    0  501 -0.00000000000E+00  0.00000000000E+00  0.38613091285E+02  0.38613091285E+02  0.00000000000E+00 0.  1.
          1   -1    0    0  501    0  0.00000000000E+00 -0.00000000000E+00 -0.13797879638E+04  0.13797879638E+04  0.00000000000E+00 0. -1.
         23    2    1    2    0    0  0.98362381955E+01  0.20069261512E+03 -0.59776622875E+03  0.64290337212E+03  0.12500401711E+03 0.  0.
          5    1    3    3  502    0  0.61998469574E+02  0.11497038236E+03 -0.40443171588E+03  0.42502835418E+03  0.47000000000E+01 0. -1.
         -5    1    3    3    0  502 -0.52162231378E+02  0.85722232760E+02 -0.19333451288E+03  0.21787501794E+03  0.47000000000E+01 0. -1.
        -11    1    1    2    0    0 -0.12623176782E+02 -0.98426658732E+02 -0.52526479800E+03  0.53455613340E+03  0.00000000000E+00 0. -1.
         11    1    1    2    0    0  0.27869385864E+01 -0.10226595639E+03 -0.21814384574E+03  0.24094154954E+03  0.00000000000E+00 0.  1.
<mgrwt>
<rscale>  0 0.23257193E+03</rscale>
<asrwt>0</asrwt>
<pdfrwt beam="2">  1        1 0.21227507E+00 0.23664379E+03</pdfrwt>
<pdfrwt beam="1">  1       -1 0.59404755E-02 0.23664379E+03</pdfrwt>
<totfact> 0.11707681E+03</totfact>
</mgrwt>
</event>
<event>
 7    1  0.5206756E-006  0.1578428E+03  0.7546771E-02  0.1198334E+00
          1   -1    0    0  501    0  0.00000000000E+00  0.00000000000E+00  0.27001176895E+03  0.27001176895E+03  0.00000000000E+00 0. -1.
         -1   -1    0    0    0  501 -0.00000000000E+00 -0.00000000000E+00 -0.79711583297E+02  0.79711583297E+02  0.00000000000E+00 0.  1.
         23    2    1    2    0    0 -0.42688085439E+02 -0.86405243797E+02  0.11470315056E+03  0.19511831497E+03  0.12500482109E+03 0.  0.
          5    1    3    3  502    0  0.69690289391E+00 -0.10811205828E+03  0.69274434711E+02  0.12849023357E+03  0.47000000000E+01 0.  1.
         -5    1    3    3    0  502 -0.43384988332E+02  0.21706814483E+02  0.45428715846E+02  0.66628081400E+02  0.47000000000E+01 0.  1.
        -11    1    1    2    0    0  0.45036117448E+01  0.79238482753E+02  0.12268682347E+02  0.80309029594E+02  0.00000000000E+00 0.  1.
         11    1    1    2    0    0  0.38184473694E+02  0.71667610438E+01  0.63328352747E+02  0.74296007677E+02  0.00000000000E+00 0. -1.
<mgrwt>
<rscale>  0 0.15175433E+03</rscale>
<asrwt>0</asrwt>
<pdfrwt beam="1">  1        1 0.41540272E-01 0.15784278E+03</pdfrwt>
<pdfrwt beam="2">  1       -1 0.12263321E-01 0.15784278E+03</pdfrwt>
<totfact> 0.42967361E+03</totfact>
</mgrwt>
</event>
<event>
 7    1  0.5206756E-006  0.1383022E+03  0.7546771E-02  0.1233389E+00
          1   -1    0    0  501    0  0.00000000000E+00  0.00000000000E+00  0.15016338987E+03  0.15016338987E+03  0.00000000000E+00 0. -1.
         -1   -1    0    0    0  501 -0.00000000000E+00 -0.00000000000E+00 -0.14515235211E+03  0.14515235211E+03  0.00000000000E+00 0.  1.
         23    2    1    2    0    0  0.58952583316E+02  0.51991263277E+01  0.92008713310E+02  0.16611172293E+03  0.12500025270E+03 0.  0.
          5    1    3    3  502    0  0.82609808360E+02  0.21270604293E+02  0.18944662311E+02  0.87508909686E+02  0.47000000000E+01 0. -1.
         -5    1    3    3    0  502 -0.23657225044E+02 -0.16071477965E+02  0.73064050999E+02  0.78602813240E+02  0.47000000000E+01 0. -1.
        -11    1    1    2    0    0 -0.31045591491E+01  0.13237644986E+02 -0.65008446705E+02  0.66415146429E+02  0.00000000000E+00 0.  1.
         11    1    1    2    0    0 -0.55848024167E+02 -0.18436771314E+02 -0.21989228853E+02  0.62788872624E+02  0.00000000000E+00 0. -1.
<mgrwt>
<rscale>  0 0.12608152E+03</rscale>
<asrwt>0</asrwt>
<pdfrwt beam="1">  1        1 0.23102060E-01 0.13830221E+03</pdfrwt>
<pdfrwt beam="2">  1       -1 0.22331131E-01 0.13830221E+03</pdfrwt>
<totfact> 0.34335417E+03</totfact>
</mgrwt>
</event>
<event>
 6    1  0.5206756E-006  0.1643261E+03  0.7546771E-02  0.1206541E+00
         -2   -1    0    0    0  501 -0.00000000000E+00  0.00000000000E+00  0.18406631957E+02  0.18406631957E+02  0.00000000000E+00 0.  1.
          2   -1    0    0  501    0  0.00000000000E+00 -0.00000000000E+00 -0.16324742870E+04  0.16324742870E+04  0.00000000000E+00 0. -1.
          5    1    1    2  502    0  0.10228351790E+02  0.43070637850E+02 -0.10344983388E+04  0.10354557460E+04  0.47000000000E+01 0. -1.
         -5    1    1    2    0  502  0.49966413832E+00 -0.83164286777E+02 -0.41123774171E+03  0.41958922587E+03  0.47000000000E+01 0.  1.
        -11    1    1    2    0    0  0.27269272181E+02  0.10409381326E+02 -0.10852972903E+02  0.31140896675E+02  0.00000000000E+00 0. -1.
         11    1    1    2    0    0 -0.37997288110E+02  0.29684267600E+02 -0.15747860167E+03  0.16469505042E+03  0.00000000000E+00 0.  1.
<mgrwt>
<rscale>  0 0.14516694E+03</rscale>
<asrwt>0</asrwt>
<pdfrwt beam="2">  1        2 0.25114988E+00 0.16432607E+03</pdfrwt>
<pdfrwt beam="1">  1       -2 0.28317897E-02 0.16432607E+03</pdfrwt>
<totfact> 0.53076837E+03</totfact>
</mgrwt>
</event>
<event>
 7    1  0.5206756E-006  0.1595641E+03  0.7546771E-02  0.1197070E+00
          2   -1    0    0  501    0  0.00000000000E+00  0.00000000000E+00  0.14182361414E+04  0.14182361414E+04  0.00000000000E+00 0. -1.
         -2   -1    0    0    0  501 -0.00000000000E+00 -0.00000000000E+00 -0.18279611367E+02  0.18279611367E+02  0.00000000000E+00 0.  1.
         23    2    1    2    0    0  0.85924894368E+02 -0.49569594440E+02  0.10436499896E+04  0.10557774431E+04  0.12498190389E+03 0.  0.
          5    1    3    3  502    0  0.71870088953E+02  0.28007175182E+02  0.62328493436E+03  0.62805725133E+03  0.47000000000E+01 0.  1.
         -5    1    3    3    0  502  0.14054805414E+02 -0.77576769622E+02  0.42036505529E+03  0.42772019177E+03  0.47000000000E+01 0.  1.
        -11    1    1    2    0    0 -0.21378209698E+02 -0.26507647874E+02  0.78874460140E+02  0.85911953232E+02  0.00000000000E+00 0. -1.
         11    1    1    2    0    0 -0.64546684670E+02  0.76077242314E+02  0.27743208024E+03  0.29482635643E+03  0.00000000000E+00 0.  1.
<mgrwt>
<rscale>  0 0.15280323E+03</rscale>
<asrwt>0</asrwt>
<pdfrwt beam="1">  1        2 0.21819009E+00 0.15956412E+03</pdfrwt>
<pdfrwt beam="2">  1       -2 0.28122490E-02 0.15956412E+03</pdfrwt>
<totfact> 0.69378683E+03</totfact>
</mgrwt>
</event>
<event>
 7    1  0.5206756E-006  0.1322555E+03  0.7546771E-02  0.1236698E+00
          2   -1    0    0  501    0  0.00000000000E+00  0.00000000000E+00  0.89217467255E+03  0.89217467255E+03  0.00000000000E+00 0. -1.
         -2   -1    0    0    0  501 -0.00000000000E+00 -0.00000000000E+00 -0.15583040200E+02  0.15583040200E+02  0.00000000000E+00 0.  1.
         23    2    1    2    0    0  0.27002364927E+00 -0.43199206098E+02  0.54446743879E+03  0.56030019276E+03  0.12500107910E+03 0.  0.
          5    1    3    3  502    0 -0.59100442259E+02 -0.92081551567E+01  0.18954896722E+03  0.19881788997E+03  0.47000000000E+01 0.  1.
         -5    1    3    3    0  502  0.59370465908E+02 -0.33991050941E+02  0.35491847158E+03  0.36148230279E+03  0.47000000000E+01 0.  1.
        -11    1    1    2    0    0 -0.11936531805E+02 -0.20558253939E+02  0.29084425122E+02  0.37563631098E+02  0.00000000000E+00 0.  1.
         11    1    1    2    0    0  0.11666508156E+02  0.63757460036E+02  0.30303976843E+03  0.30989388890E+03  0.00000000000E+00 0. -1.
<mgrwt>
<rscale>  0 0.12396384E+03</rscale>
<asrwt>0</asrwt>
<pdfrwt beam="1">  1        2 0.13725760E+00 0.13225549E+03</pdfrwt>
<pdfrwt beam="2">  1       -2 0.23973915E-02 0.13225549E+03</pdfrwt>
<totfact> 0.17296174E+04</totfact>
</mgrwt>
</event>
<event>
 7    1  0.5206756E-006  0.1404358E+03  0.7546771E-02  0.1223592E+00
         -2   -1    0    0    0  501 -0.00000000000E+00  0.00000000000E+00  0.80378373176E+02  0.80378373176E+02  0.00000000000E+00 0. -1.
          2   -1    0    0  501    0  0.00000000000E+00 -0.00000000000E+00 -0.32636713689E+03  0.32636713689E+03  0.00000000000E+00 0.  1.
         23    2    1    2    0    0  0.63978016830E+02 -0.20689836263E+01 -0.25861466445E+03  0.29428514980E+03  0.12499894955E+03 0.  0.
          5    1    3    3  502    0  0.43463916637E+02 -0.59413484161E+02 -0.18144074625E+03  0.19586196300E+03  0.47000000000E+01 0.  1.
         -5    1    3    3    0  502  0.20514100194E+02  0.57344500534E+02 -0.77173918201E+02  0.98423186795E+02  0.47000000000E+01 0.  1.
        -11    1    1    2    0    0 -0.30774246023E+02  0.31762022608E+02  0.40455313347E+02  0.59937573162E+02  0.00000000000E+00 0. -1.
         11    1    1    2    0    0 -0.33203770807E+02 -0.29693038982E+02 -0.27829412611E+02  0.52522787112E+02  0.00000000000E+00 0.  1.
<mgrwt>
<rscale>  0 0.13263849E+03</rscale>
<asrwt>0</asrwt>
<pdfrwt beam="2">  1        2 0.50210329E-01 0.14043577E+03</pdfrwt>
<pdfrwt beam="1">  1       -2 0.12365904E-01 0.14043577E+03</pdfrwt>
<totfact> 0.45231759E+03</totfact>
</mgrwt>
</event>
<event>
 7    1  0.5206756E-006  0.1356029E+03  0.7546771E-02  0.1231553E+00
         -2   -1    0    0    0  501 -0.00000000000E+00  0.00000000000E+00  0.42107395565E+02  0.42107395565E+02  0.00000000000E+00 0.  1.
          2   -1    0    0  501    0  0.00000000000E+00 -0.00000000000E+00 -0.34440584106E+03  0.34440584106E+03  0.00000000000E+00 0. -1.
         23    2    1    2    0    0  0.35705659056E+02 -0.38568455292E+02 -0.16926057380E+03  0.21688083160E+03  0.12500293373E+03 0.  0.
          5    1    3    3  502    0  0.46789168273E+02 -0.17607708227E+01 -0.40944797029E+01  0.47235382349E+02  0.47000000000E+01 0. -1.
         -5    1    3    3    0  502 -0.11083509218E+02 -0.36807684469E+02 -0.16516609409E+03  0.16964544925E+03  0.47000000000E+01 0. -1.
        -11    1    1    2    0    0 -0.22914537288E+02  0.46163156797E+02 -0.14281602151E+03  0.15183059331E+03  0.00000000000E+00 0. -1.
         11    1    1    2    0    0 -0.12791121768E+02 -0.75947015051E+01  0.97781498065E+01  0.17801811724E+02  0.00000000000E+00 0.  1.
<mgrwt>
<rscale>  0 0.12727703E+03</rscale>
<asrwt>0</asrwt>
<pdfrwt beam="2">  1        2 0.52985512E-01 0.13560293E+03</pdfrwt>
<pdfrwt beam="1">  1       -2 0.64780611E-02 0.13560293E+03</pdfrwt>
<totfact> 0.11682856E+04</totfact>
</mgrwt>
</event>
<event>
 7    1  0.5206756E-006  0.1397342E+03  0.7546771E-02  0.1224224E+00
         -2   -1    0    0    0  501 -0.00000000000E+00  0.00000000000E+00  0.19563823436E+02  0.19563823436E+02  0.00000000000E+00 0. -1.
          2   -1    0    0  501    0  0.00000000000E+00 -0.00000000000E+00 -0.88309211506E+03  0.88309211506E+03  0.00000000000E+00 0.  1.
         23    2    1    2    0    0  0.58268426787E+02 -0.22469702211E+02 -0.60500188238E+03  0.62092908795E+03  0.12500222997E+03 0.  0.
          5    1    3    3  502    0  0.52203557321E+02  0.32139047974E+02 -0.14312983712E+03  0.15577666730E+03  0.47000000000E+01 0. -1.
         -5    1    3    3    0  502  0.60648694652E+01 -0.54608750185E+02 -0.46187204526E+03  0.46515242065E+03  0.47000000000E+01 0. -1.
        -11    1    1    2    0    0  0.20658041163E+02 -0.10413325027E+02 -0.87661506547E+02  0.90662736187E+02  0.00000000000E+00 0.  1.
         11    1    1    2    0    0 -0.78926467949E+02  0.32883027238E+02 -0.17086490270E+03  0.19106411436E+03  0.00000000000E+00 0. -1.
<mgrwt>
<rscale>  0 0.13220224E+03</rscale>
<asrwt>0</asrwt>
<pdfrwt beam="2">  1        2 0.13586032E+00 0.13973423E+03</pdfrwt>
<pdfrwt beam="1">  1       -2 0.30098191E-02 0.13973423E+03</pdfrwt>
<totfact> 0.12608034E+04</totfact>
</mgrwt>
</event>
<event>
 7    1  0.5206756E-006  0.1974397E+03  0.7546771E-02  0.1156075E+00
          1   -1    0    0  501    0  0.00000000000E+00  0.00000000000E+00  0.36144602434E+03  0.36144602434E+03  0.00000000000E+00 0. -1.
         -1   -1    0    0    0  501 -0.00000000000E+00 -0.00000000000E+00 -0.11358875471E+03  0.11358875471E+03  0.00000000000E+00 0.  1.
         23    2    1    2    0    0  0.14829925231E+03  0.36788756525E+02  0.21695887473E+03  0.29334889955E+03  0.12504536257E+03 0.  0.
          5    1    3    3  502    0  0.16924269726E+03  0.27533160027E+02  0.17335825079E+03  0.24387771238E+03  0.47000000000E+01 0. -1.
         -5    1    3    3    0  502 -0.20943444946E+02  0.92555964980E+01  0.43600623937E+02  0.49471187174E+02  0.47000000000E+01 0. -1.
        -11    1    1    2    0    0  0.23294686934E+01 -0.26458365369E+02 -0.36240251940E+01  0.26806810347E+02  0.00000000000E+00 0. -1.
         11    1    1    2    0    0 -0.15062872100E+03 -0.10330391156E+02  0.34522420099E+02  0.15487906915E+03  0.00000000000E+00 0.  1.
<mgrwt>
<rscale>  0 0.19266945E+03</rscale>
<asrwt>0</asrwt>
<pdfrwt beam="1">  1        1 0.55607080E-01 0.19743967E+03</pdfrwt>
<pdfrwt beam="2">  1       -1 0.17475193E-01 0.19743967E+03</pdfrwt>
<totfact> 0.17217603E+03</totfact>
</mgrwt>
</event>
<event>
 7    1  0.5206756E-006  0.1306770E+03  0.7546771E-02  0.1241314E+00
          2   -1    0    0  501    0  0.00000000000E+00  0.00000000000E+00  0.11910929275E+04  0.11910929275E+04  0.00000000000E+00 0. -1.
         -2   -1    0    0    0  501 -0.00000000000E+00 -0.00000000000E+00 -0.15046452210E+02  0.15046452210E+02  0.00000000000E+00 0.  1.
         23    2    1    2    0    0  0.28265346351E+02 -0.25579458492E+02  0.96906690706E+03  0.97783799921E+03  0.12499297513E+03 0.  0.
          5    1    3    3  502    0  0.67083523857E+02 -0.35944278481E+02  0.81463817118E+03  0.81819901630E+03  0.47000000000E+01 0.  1.
         -5    1    3    3    0  502 -0.38818177506E+02  0.10364819989E+02  0.15442873588E+03  0.15963898291E+03  0.47000000000E+01 0.  1.
        -11    1    1    2    0    0  0.22301703802E+02  0.37798619302E+02  0.84079588814E+02  0.94844498358E+02  0.00000000000E+00 0.  1.
         11    1    1    2    0    0 -0.50567050154E+02 -0.12219160809E+02  0.12289997944E+03  0.13345688217E+03  0.00000000000E+00 0. -1.
<mgrwt>
<rscale>  0 0.12108731E+03</rscale>
<asrwt>0</asrwt>
<pdfrwt beam="1">  1        2 0.18324499E+00 0.13067702E+03</pdfrwt>
<pdfrwt beam="2">  1       -2 0.23148397E-02 0.13067702E+03</pdfrwt>
<totfact> 0.12135126E+04</totfact>
</mgrwt>
</event>
<event>
 7    1  0.5206756E-006  0.1749278E+03  0.7546771E-02  0.1173144E+00
         -2   -1    0    0    0  501 -0.00000000000E+00  0.00000000000E+00  0.11163421129E+03  0.11163421129E+03  0.00000000000E+00 0.  1.
          2   -1    0    0  501    0  0.00000000000E+00 -0.00000000000E+00 -0.29480246562E+03  0.29480246562E+03  0.00000000000E+00 0. -1.
         23    2    1    2    0    0 -0.97871476121E+02 -0.70193457604E+02 -0.14777348888E+03  0.22796387315E+03  0.12499830445E+03 0.  0.
          5    1    3    3  502    0 -0.49580273982E+02 -0.65278393846E+02 -0.15806852260E+03  0.17812136343E+03  0.47000000000E+01 0. -1.
         -5    1    3    3    0  502 -0.48291202139E+02 -0.49150637581E+01  0.10295033725E+02  0.49842509720E+02  0.47000000000E+01 0. -1.
        -11    1    1    2    0    0  0.15004601614E+02  0.60784866687E+02  0.32855573819E+02  0.70706624999E+02  0.00000000000E+00 0.  1.
         11    1    1    2    0    0  0.82866874507E+02  0.94085909175E+01 -0.68250339280E+02  0.10776617876E+03  0.00000000000E+00 0. -1.
<mgrwt>
<rscale>  0 0.17459028E+03</rscale>
<asrwt>0</asrwt>
<pdfrwt beam="2">  1        2 0.45354226E-01 0.17492785E+03</pdfrwt>
<pdfrwt beam="1">  1       -2 0.17174494E-01 0.17492785E+03</pdfrwt>
<totfact> 0.29766599E+03</totfact>
</mgrwt>
</event>
<event>
 7    1  0.5206756E-006  0.1496349E+03  0.7546771E-02  0.1208125E+00
          2   -1    0    0  501    0  0.00000000000E+00  0.00000000000E+00  0.17471792520E+03  0.17471792520E+03  0.00000000000E+00 0. -1.
         -2   -1    0    0    0  501 -0.00000000000E+00 -0.00000000000E+00 -0.13009523071E+03  0.13009523071E+03  0.00000000000E+00 0.  1.
         23    2    1    2    0    0 -0.75956461059E+02  0.31552014312E+02  0.82942739254E+02  0.17108502963E+03  0.12500270311E+03 0.  0.
          5    1    3    3  502    0 -0.67637255227E+01  0.27576325016E+02 -0.28022944661E+02  0.40169355382E+02  0.47000000000E+01 0. -1.
         -5    1    3    3    0  502 -0.69192735536E+02  0.39756892962E+01  0.11096568392E+03  0.13091567425E+03  0.47000000000E+01 0. -1.
        -11    1    1    2    0    0 -0.10522512016E+02 -0.39876414659E+02 -0.12250226470E+02  0.43022316927E+02  0.00000000000E+00 0.  1.
         11    1    1    2    0    0  0.86478973075E+02  0.83244003467E+01 -0.26069818298E+02  0.90705809358E+02  0.00000000000E+00 0. -1.
<mgrwt>
<rscale>  0 0.14393916E+03</rscale>
<asrwt>0</asrwt>
<pdfrwt beam="1">  1        2 0.26879681E-01 0.14963485E+03</pdfrwt>
<pdfrwt beam="2">  1       -2 0.20014651E-01 0.14963485E+03</pdfrwt>
<totfact> 0.40157380E+03</totfact>
</mgrwt>
</event>
<event>
 7    1  0.5206756E-006  0.1702139E+03  0.7546771E-02  0.1184156E+00
         -1   -1    0    0    0  501 -0.00000000000E+00  0.00000000000E+00  0.26457951442E+02  0.26457951442E+02  0.00000000000E+00 0.  1.
          1   -1    0    0  501    0  0.00000000000E+00 -0.00000000000E+00 -0.10501583276E+04  0.10501583276E+04  0.00000000000E+00 0. -1.
         23    2    1    2    0    0  0.67617766014E+01 -0.11532491650E+03 -0.71090833519E+03  0.73100167259E+03  0.12500890488E+03 0.  0.
          5    1    3    3  502    0 -0.45420132854E+02 -0.17399698070E+02 -0.11693284835E+03  0.12673247013E+03  0.47000000000E+01 0. -1.
         -5    1    3    3    0  502  0.52181909456E+02 -0.97925218428E+02 -0.59397548684E+03  0.60426920246E+03  0.47000000000E+01 0. -1.
        -11    1    1    2    0    0 -0.36092172613E+02  0.98047292991E+02 -0.17622252266E+03  0.20486652747E+03  0.00000000000E+00 0.  1.
         11    1    1    2    0    0  0.29330396011E+02  0.17277623507E+02 -0.13656951827E+03  0.14074807894E+03  0.00000000000E+00 0. -1.
<mgrwt>
<rscale>  0 0.16408908E+03</rscale>
<asrwt>0</asrwt>
<pdfrwt beam="2">  1        1 0.16156281E+00 0.17021394E+03</pdfrwt>
<pdfrwt beam="1">  1       -1 0.40704543E-02 0.17021394E+03</pdfrwt>
<totfact> 0.34775721E+03</totfact>
</mgrwt>
</event>
<event>
 7    1  0.5206756E-006  0.1768541E+03  0.7546771E-02  0.1176611E+00
          1   -1    0    0  501    0  0.00000000000E+00  0.00000000000E+00  0.50339712926E+03  0.50339712926E+03  0.00000000000E+00 0. -1.
         -1   -1    0    0    0  501 -0.00000000000E+00 -0.00000000000E+00 -0.73023361931E+02  0.73023361931E+02  0.00000000000E+00 0.  1.
         23    2    1    2    0    0 -0.12462540206E+03  0.10927440912E+02  0.36950131487E+03  0.40964446229E+03  0.12500585584E+03 0.  0.
          5    1    3    3  502    0 -0.10485114577E+03  0.59526041421E+02  0.29186890723E+03  0.31582694847E+03  0.47000000000E+01 0. -1.
         -5    1    3    3    0  502 -0.19774256293E+02 -0.48598600509E+02  0.77632407641E+02  0.93817513821E+02  0.47000000000E+01 0. -1.
        -11    1    1    2    0    0  0.94807906847E+02 -0.43700242877E+02  0.19589433895E+02  0.10621674232E+03  0.00000000000E+00 0.  1.
         11    1    1    2    0    0  0.29817495211E+02  0.32772801964E+02  0.41283018566E+02  0.60559286580E+02  0.00000000000E+00 0. -1.
<mgrwt>
<rscale>  0 0.17119191E+03</rscale>
<asrwt>0</asrwt>
<pdfrwt beam="1">  1        1 0.77445710E-01 0.17685407E+03</pdfrwt>
<pdfrwt beam="2">  1       -1 0.11234364E-01 0.17685407E+03</pdfrwt>
<totfact> 0.22456741E+03</totfact>
</mgrwt>
</event>
<event>
 7    1  0.5206756E-006  0.1703099E+03  0.7546771E-02  0.1185132E+00
          1   -1    0    0  501    0  0.00000000000E+00  0.00000000000E+00  0.81605998266E+03  0.81605998266E+03  0.00000000000E+00 0. -1.
         -1   -1    0    0    0  501 -0.00000000000E+00 -0.00000000000E+00 -0.36202464826E+02  0.36202464826E+02  0.00000000000E+00 0.  1.
         23    2    1    2    0    0 -0.10690627108E+03 -0.44158139333E+02  0.59077736688E+03  0.61483605490E+03  0.12500634031E+03 0.  0.
          5    1    3    3  502    0  0.20409216480E+01 -0.46864459068E+02  0.31087398405E+03  0.31442831750E+03  0.47000000000E+01 0.  1.
         -5    1    3    3    0  502 -0.10894719273E+03  0.27063197351E+01  0.27990338283E+03  0.30040773740E+03  0.47000000000E+01 0.  1.
        -11    1    1    2    0    0  0.11677231344E+03  0.34848535092E+02  0.13586203193E+03  0.18250667194E+03  0.00000000000E+00 0.  1.
         11    1    1    2    0    0 -0.98660423583E+01  0.93096042413E+01  0.53218119027E+02  0.54919720645E+02  0.00000000000E+00 0. -1.
<mgrwt>
<rscale>  0 0.16319846E+03</rscale>
<asrwt>0</asrwt>
<pdfrwt beam="1">  1        1 0.12554768E+00 0.17030994E+03</pdfrwt>
<pdfrwt beam="2">  1       -1 0.55696106E-02 0.17030994E+03</pdfrwt>
<totfact> 0.32954709E+03</totfact>
</mgrwt>
</event>
<event>
 7    1  0.5206756E-006  0.2100739E+03  0.7546771E-02  0.1145057E+00
         -1   -1    0    0    0  501 -0.00000000000E+00  0.00000000000E+00  0.64639993592E+02  0.64639993592E+02  0.00000000000E+00 0.  1.
          1   -1    0    0  501    0  0.00000000000E+00 -0.00000000000E+00 -0.73569807362E+03  0.73569807362E+03  0.00000000000E+00 0. -1.
         23    2    1    2    0    0 -0.79411730969E+02 -0.14899831250E+03 -0.50059528825E+03  0.54288736295E+03  0.12499730433E+03 0.  0.
          5    1    3    3  502    0  0.32285939189E+02 -0.34975201879E+02 -0.15438809032E+03  0.16162740810E+03  0.47000000000E+01 0.  1.
         -5    1    3    3    0  502 -0.11169767016E+03 -0.11402311063E+03 -0.34620719793E+03  0.38125995485E+03  0.47000000000E+01 0.  1.
        -11    1    1    2    0    0  0.49447281030E+02  0.85906431797E+02 -0.35139453436E+02  0.10516525003E+03  0.00000000000E+00 0.  1.
         11    1    1    2    0    0  0.29964449939E+02  0.63091880707E+02 -0.13532333834E+03  0.15228545423E+03  0.00000000000E+00 0. -1.
<mgrwt>
<rscale>  0 0.20565106E+03</rscale>
<asrwt>0</asrwt>
<pdfrwt beam="2">  1        1 0.11318431E+00 0.21007391E+03</pdfrwt>
<pdfrwt beam="1">  1       -1 0.99446149E-02 0.21007391E+03</pdfrwt>
<totfact> 0.16056491E+03</totfact>
</mgrwt>
</event>
<event>
 7    1  0.5206756E-006  0.1298333E+03  0.7546771E-02  0.1245222E+00
         -1   -1    0    0    0  501 -0.00000000000E+00  0.00000000000E+00  0.10979283232E+03  0.10979283232E+03  0.00000000000E+00 0.  1.
          1   -1    0    0  501    0  0.00000000000E+00 -0.00000000000E+00 -0.11081821691E+03  0.11081821691E+03  0.00000000000E+00 0. -1.
         23    2    1    2    0    0  0.19512403890E+01 -0.35042431525E+02 -0.12396379710E+01  0.12983926655E+03  0.12499967635E+03 0.  0.
          5    1    3    3  502    0  0.19540954126E+02 -0.39746108226E+02  0.54864924191E+02  0.70667191212E+02  0.47000000000E+01 0.  1.
         -5    1    3    3    0  502 -0.17589713737E+02  0.47036767012E+01 -0.56104562162E+02  0.59172075334E+02  0.47000000000E+01 0.  1.
        -11    1    1    2    0    0 -0.13098479627E+01  0.22262638037E+02  0.41737375634E+02  0.47321763269E+02  0.00000000000E+00 0.  1.
         11    1    1    2    0    0 -0.64139242630E+00  0.12779793488E+02 -0.41523122254E+02  0.43450019419E+02  0.00000000000E+00 0. -1.
<mgrwt>
<rscale>  0 0.11872088E+03</rscale>
<asrwt>0</asrwt>
<pdfrwt beam="2">  1        1 0.17048956E-01 0.12983335E+03</pdfrwt>
<pdfrwt beam="1">  1       -1 0.16891205E-01 0.12983335E+03</pdfrwt>
<totfact> 0.78684766E+03</totfact>
</mgrwt>
</event>
<event>
 7    1  0.5206756E-006  0.1350948E+03  0.7546771E-02  0.1229646E+00
          2   -1    0    0  501    0  0.00000000000E+00  0.00000000000E+00  0.43193673674E+03  0.43193673674E+03  0.00000000000E+00 0. -1.
         -2   -1    0    0    0  501 -0.00000000000E+00 -0.00000000000E+00 -0.41915228068E+02  0.41915228068E+02  0.00000000000E+00 0.  1.
         23    2    1    2    0    0 -0.36151329590E+01  0.51107472938E+02  0.30720702450E+03  0.33559908847E+03  0.12500219719E+03 0.  0.
          5    1    3    3  502    0 -0.28707828460E+02  0.80642380980E+02  0.14225256781E+03  0.16608797691E+03  0.47000000000E+01 0.  1.
         -5    1    3    3    0  502  0.25092695501E+02 -0.29534908042E+02  0.16495445669E+03  0.16951111156E+03  0.47000000000E+01 0.  1.
        -11    1    1    2    0    0  0.40168153216E+01  0.19860652499E+02  0.60584933482E+02  0.63883601089E+02  0.00000000000E+00 0. -1.
         11    1    1    2    0    0 -0.40168236258E+00 -0.70968125437E+02  0.22229550682E+02  0.74369275244E+02  0.00000000000E+00 0.  1.
<mgrwt>
<rscale>  0 0.12853481E+03</rscale>
<asrwt>0</asrwt>
<pdfrwt beam="1">  1        2 0.66451803E-01 0.13509475E+03</pdfrwt>
<pdfrwt beam="2">  1       -2 0.64484969E-02 0.13509475E+03</pdfrwt>
<totfact> 0.92362164E+03</totfact>
</mgrwt>
</event>
<event>
 7    1  0.5206756E-006  0.1369716E+03  0.7546771E-02  0.1228356E+00
         -2   -1    0    0    0  501 -0.00000000000E+00  0.00000000000E+00  0.42380497678E+02  0.42380497678E+02  0.00000000000E+00 0.  1.
          2   -1    0    0  501    0  0.00000000000E+00 -0.00000000000E+00 -0.36323558588E+03  0.36323558588E+03  0.00000000000E+00 0. -1.
         23    2    1    2    0    0  0.52608471240E+02 -0.19223865207E+02 -0.20437573264E+03  0.24602977715E+03  0.12499601157E+03 0.  0.
          5    1    3    3  502    0 -0.19904258915E+01  0.38562154571E+02 -0.17036498493E+02  0.42465678392E+02  0.47000000000E+01 0. -1.
         -5    1    3    3    0  502  0.54598897132E+02 -0.57786019778E+02 -0.18733923415E+03  0.20356409875E+03  0.47000000000E+01 0. -1.
        -11    1    1    2    0    0 -0.73910100022E+02  0.35705494054E+02 -0.90174442125E+02  0.12193857143E+03  0.00000000000E+00 0. -1.
         11    1    1    2    0    0  0.21301628782E+02 -0.16481628847E+02 -0.26304913436E+02  0.37647734979E+02  0.00000000000E+00 0.  1.
<mgrwt>
<rscale>  0 0.12939509E+03</rscale>
<asrwt>0</asrwt>
<pdfrwt beam="2">  1        2 0.55882400E-01 0.13697157E+03</pdfrwt>
<pdfrwt beam="1">  1       -2 0.65200763E-02 0.13697157E+03</pdfrwt>
<totfact> 0.10940069E+04</totfact>
</mgrwt>
</event>
<event>
 7    1  0.5206756E-006  0.1312194E+03  0.7546771E-02  0.1238942E+00
          2   -1    0    0  501    0  0.00000000000E+00  0.00000000000E+00  0.66263923392E+03  0.66263923392E+03  0.00000000000E+00 0. -1.
         -2   -1    0    0    0  501 -0.00000000000E+00 -0.00000000000E+00 -0.28042091268E+02  0.28042091268E+02  0.00000000000E+00 0.  1.
         23    2    1    2    0    0  0.14856990930E+02 -0.37045021395E+02  0.53031568210E+03  0.54630875749E+03  0.12500188813E+03 0.  0.
          5    1    3    3  502    0  0.58050512079E+02 -0.37059076979E+02  0.17149531503E+03  0.18486743958E+03  0.47000000000E+01 0.  1.
         -5    1    3    3    0  502 -0.43193521149E+02  0.14055583201E-01  0.35882036707E+03  0.36144131791E+03  0.47000000000E+01 0.  1.
        -11    1    1    2    0    0 -0.23209954886E+02  0.97955689755E+01 -0.96145590127E+01  0.26964697706E+02  0.00000000000E+00 0.  1.
         11    1    1    2    0    0  0.83529639562E+01  0.27249452420E+02  0.11389601956E+03  0.11740786999E+03  0.00000000000E+00 0. -1.
<mgrwt>
<rscale>  0 0.12255443E+03</rscale>
<asrwt>0</asrwt>
<pdfrwt beam="1">  1        2 0.10194449E+00 0.13121942E+03</pdfrwt>
<pdfrwt beam="2">  1       -2 0.43141684E-02 0.13121942E+03</pdfrwt>
<totfact> 0.10481063E+04</totfact>
</mgrwt>
</event>
<event>
 7    1  0.5206756E-006  0.1460136E+03  0.7546771E-02  0.1215310E+00
          2   -1    0    0  501    0  0.00000000000E+00  0.00000000000E+00  0.60205538041E+03  0.60205538041E+03  0.00000000000E+00 0. -1.
         -2   -1    0    0    0  501 -0.00000000000E+00 -0.00000000000E+00 -0.29332454965E+02  0.29332454965E+02  0.00000000000E+00 0.  1.
         23    2    1    2    0    0 -0.56800079060E+02 -0.49693313748E+02  0.34862273909E+03  0.37796531353E+03  0.12499715838E+03 0.  0.
          5    1    3    3  502    0  0.32245500620E+01  0.37900489440E+02  0.11702655636E+03  0.12314280213E+03  0.47000000000E+01 0.  1.
         -5    1    3    3    0  502 -0.60024629122E+02 -0.87593803188E+02  0.23159618273E+03  0.25482251139E+03  0.47000000000E+01 0.  1.
        -11    1    1    2    0    0  0.31555505176E+02  0.11601003425E+02  0.19792251691E+03  0.20075770443E+03  0.00000000000E+00 0. -1.
         11    1    1    2    0    0  0.25244573884E+02  0.38092310323E+02  0.26177669439E+02  0.52664817417E+02  0.00000000000E+00 0.  1.
<mgrwt>
<rscale>  0 0.13853803E+03</rscale>
<asrwt>0</asrwt>
<pdfrwt beam="1">  1        2 0.92623895E-01 0.14601357E+03</pdfrwt>
<pdfrwt beam="2">  1       -2 0.45126858E-02 0.14601357E+03</pdfrwt>
<totfact> 0.11023915E+04</totfact>
</mgrwt>
</event>
<event>
 7    1  0.5206756E-006  0.1290574E+03  0.7546771E-02  0.1241226E+00
          1   -1    0    0  501    0  0.00000000000E+00  0.00000000000E+00  0.72966736413E+03  0.72966736413E+03  0.00000000000E+00 0. -1.
         -1   -1    0    0    0  501 -0.00000000000E+00 -0.00000000000E+00 -0.18056134570E+02  0.18056134570E+02  0.00000000000E+00 0.  1.
         23    2    1    2    0    0  0.31850544097E+02  0.39275397590E+01  0.42000379782E+03  0.43938480312E+03  0.12500372916E+03 0.  0.
          5    1    3    3  502    0  0.20595330608E+02  0.60979945497E+02  0.28669171716E+03  0.29386553401E+03  0.47000000000E+01 0. -1.
         -5    1    3    3    0  502  0.11255213490E+02 -0.57052405738E+02  0.13331208066E+03  0.14551926911E+03  0.47000000000E+01 0. -1.
        -11    1    1    2    0    0 -0.29063658708E+02 -0.41763566442E+02  0.23323637883E+03  0.23872180493E+03  0.00000000000E+00 0. -1.
         11    1    1    2    0    0 -0.27868853895E+01  0.37836026683E+02  0.58371052913E+02  0.69616890648E+02  0.00000000000E+00 0.  1.
<mgrwt>
<rscale>  0 0.12114133E+03</rscale>
<asrwt>0</asrwt>
<pdfrwt beam="1">  1        1 0.11225649E+00 0.12905741E+03</pdfrwt>
<pdfrwt beam="2">  1       -1 0.27778674E-02 0.12905741E+03</pdfrwt>
<totfact> 0.10692352E+04</totfact>
</mgrwt>
</event>
<event>
 7    1  0.5206756E-006  0.1473391E+03  0.7546771E-02  0.1212863E+00
         -2   -1    0    0    0  501 -0.00000000000E+00  0.00000000000E+00  0.17832214018E+02  0.17832214018E+02  0.00000000000E+00 0. -1.
          2   -1    0    0  501    0  0.00000000000E+00 -0.00000000000E+00 -0.12734345141E+04  0.12734345141E+04  0.00000000000E+00 0.  1.
         23    2    1    2    0    0  0.57057238998E+02 -0.53176994675E+02 -0.96774324091E+03  0.97889519113E+03  0.12500197438E+03 0.  0.
          5    1    3    3  502    0  0.60153417528E+02  0.38560297683E+01 -0.19808988818E+03  0.20711107263E+03  0.47000000000E+01 0. -1.
         -5    1    3    3    0  502 -0.30961785298E+01 -0.57033024444E+02 -0.76965335273E+03  0.77178411850E+03  0.47000000000E+01 0. -1.
        -11    1    1    2    0    0 -0.74419293357E+02  0.18715111216E+02 -0.14101558395E+03  0.16054246021E+03  0.00000000000E+00 0.  1.
         11    1    1    2    0    0  0.17362054360E+02  0.34461883459E+02 -0.14684347525E+03  0.15182907682E+03  0.00000000000E+00 0. -1.
<mgrwt>
<rscale>  0 0.14034654E+03</rscale>
<asrwt>0</asrwt>
<pdfrwt beam="2">  1        2 0.19591302E+00 0.14733912E+03</pdfrwt>
<pdfrwt beam="1">  1       -2 0.27434172E-02 0.14733912E+03</pdfrwt>
<totfact> 0.85807554E+03</totfact>
</mgrwt>
</event>
<event>
 7    1  0.5206756E-006  0.1360712E+03  0.7546771E-02  0.1224663E+00
          2   -1    0    0  501    0  0.00000000000E+00  0.00000000000E+00  0.17350244821E+03  0.17350244821E+03  0.00000000000E+00 0. -1.
         -2   -1    0    0    0  501 -0.00000000000E+00 -0.00000000000E+00 -0.94904140245E+02  0.94904140245E+02  0.00000000000E+00 0.  1.
         23    2    1    2    0    0 -0.75137116858E+02 -0.13243227873E+02  0.33980810464E+02  0.14025003529E+03  0.11266946128E+03 0.  0.
          5    1    3    3  502    0 -0.37768477360E+02  0.46664889576E+01  0.73432949304E+02  0.82841547818E+02  0.47000000000E+01 0. -1.
         -5    1    3    3    0  502 -0.37368639498E+02 -0.17909716830E+02 -0.39452138840E+02  0.57408487473E+02  0.47000000000E+01 0.  1.
        -11    1    1    2    0    0  0.26209088045E+02  0.39128245747E+02  0.54391464561E+02  0.71946975812E+02  0.00000000000E+00 0.  1.
         11    1    1    2    0    0  0.48928028814E+02 -0.25885017874E+02 -0.97739670605E+01  0.56209577351E+02  0.00000000000E+00 0. -1.
<mgrwt>
<rscale>  0 0.13190028E+03</rscale>
<asrwt>0</asrwt>
<pdfrwt beam="1">  1        2 0.26692684E-01 0.13607122E+03</pdfrwt>
<pdfrwt beam="2">  1       -2 0.14600637E-01 0.13607122E+03</pdfrwt>
<totfact> 0.67934330E+03</totfact>
</mgrwt>
</event>
<event>
 7    1  0.5206756E-006  0.1253495E+03  0.7546771E-02  0.1250222E+00
         -2   -1    0    0    0  501 -0.00000000000E+00  0.00000000000E+00  0.44580103958E+02  0.44580103958E+02  0.00000000000E+00 0. -1.
          2   -1    0    0  501    0  0.00000000000E+00 -0.00000000000E+00 -0.56403176652E+03  0.56403176652E+03  0.00000000000E+00 0.  1.
         23    2    1    2    0    0  0.14396399932E+01  0.92713513388E+01 -0.49979810264E+03  0.51527724047E+03  0.12499784250E+03 0.  0.
          5    1    3    3  502    0 -0.30956612978E+02 -0.24398747003E+02 -0.54040282707E+02  0.67052612905E+02  0.47000000000E+01 0. -1.
         -5    1    3    3    0  502  0.32396252971E+02  0.33670098342E+02 -0.44575781993E+03  0.44822462757E+03  0.47000000000E+01 0. -1.
        -11    1    1    2    0    0 -0.22989990078E+02 -0.87509151992E+01  0.30240984679E+02  0.38982500112E+02  0.00000000000E+00 0. -1.
         11    1    1    2    0    0  0.21550350085E+02 -0.52043613967E+00 -0.49894544600E+02  0.54352129888E+02  0.00000000000E+00 0.  1.
<mgrwt>
<rscale>  0 0.11578186E+03</rscale>
<asrwt>0</asrwt>
<pdfrwt beam="2">  1        2 0.86774118E-01 0.12534948E+03</pdfrwt>
<pdfrwt beam="1">  1       -2 0.68584775E-02 0.12534948E+03</pdfrwt>
<totfact> 0.62476527E+03</totfact>
</mgrwt>
</event>
<event>
 7    1  0.5206756E-006  0.1378935E+03  0.7546771E-02  0.1228525E+00
          3   -1    0    0  501    0  0.00000000000E+00  0.00000000000E+00  0.42851206618E+03  0.42851206618E+03  0.00000000000E+00 0. -1.
         -3   -1    0    0    0  501 -0.00000000000E+00 -0.00000000000E+00 -0.35958951816E+02  0.35958951816E+02  0.00000000000E+00 0.  1.
         23    2    1    2    0    0 -0.56020641770E+02 -0.15800102611E+02  0.26098468065E+03  0.29517388519E+03  0.12500665349E+03 0.  0.
          5    1    3    3  502    0 -0.61113630507E+02 -0.63726337058E+02  0.18544357587E+03  0.20544423015E+03  0.47000000000E+01 0.  1.
         -5    1    3    3    0  502  0.50929887369E+01  0.47926234447E+02  0.75541104781E+02  0.89729655043E+02  0.47000000000E+01 0.  1.
        -11    1    1    2    0    0  0.40723749280E+02 -0.31900594263E+02  0.91658781325E+02  0.10524924638E+03  0.00000000000E+00 0. -1.
         11    1    1    2    0    0  0.15296892490E+02  0.47700696874E+02  0.39909652387E+02  0.64047886427E+02  0.00000000000E+00 0.  1.
<mgrwt>
<rscale>  0 0.12928210E+03</rscale>
<asrwt>0</asrwt>
<pdfrwt beam="1">  1        3 0.65924930E-01 0.13789351E+03</pdfrwt>
<pdfrwt beam="2">  1       -3 0.55321467E-02 0.13789351E+03</pdfrwt>
<totfact> 0.10144671E+03</totfact>
</mgrwt>
</event>
<event>
 7    1  0.5206756E-006  0.1285380E+03  0.7546771E-02  0.1245691E+00
         -1   -1    0    0    0  501 -0.00000000000E+00  0.00000000000E+00  0.32475043099E+03  0.32475043099E+03  0.00000000000E+00 0.  1.
          1   -1    0    0  501    0  0.00000000000E+00 -0.00000000000E+00 -0.39468722911E+02  0.39468722911E+02  0.00000000000E+00 0. -1.
         23    2    1    2    0    0 -0.27750910422E+02 -0.11295609296E+02  0.12631056478E+03  0.18021201086E+03  0.12499722503E+03 0.  0.
          5    1    3    3  502    0 -0.44382237408E+02 -0.42656492849E+02  0.15349718150E+02  0.63616532653E+02  0.47000000000E+01 0.  1.
         -5    1    3    3    0  502  0.16631326986E+02  0.31360883553E+02  0.11096084663E+03  0.11659547821E+03  0.47000000000E+01 0.  1.
        -11    1    1    2    0    0 -0.16317730980E+02  0.11389860251E+02  0.91313759020E+00  0.19920619497E+02  0.00000000000E+00 0. -1.
         11    1    1    2    0    0  0.44068641402E+02 -0.94250955011E-01  0.15805800571E+03  0.16408652354E+03  0.00000000000E+00 0.  1.
<mgrwt>
<rscale>  0 0.11844113E+03</rscale>
<asrwt>0</asrwt>
<pdfrwt beam="2">  1        1 0.60721114E-02 0.12853797E+03</pdfrwt>
<pdfrwt beam="1">  1       -1 0.49961603E-01 0.12853797E+03</pdfrwt>
<totfact> 0.49704095E+03</totfact>
</mgrwt>
</event>
<event>
 7    1  0.5206756E-006  0.1804825E+03  0.7546771E-02  0.1172739E+00
          2   -1    0    0  501    0  0.00000000000E+00  0.00000000000E+00  0.18796265431E+04  0.18796265431E+04  0.00000000000E+00 0.  1.
         -2   -1    0    0    0  501 -0.00000000000E+00 -0.00000000000E+00 -0.17125319463E+02  0.17125319463E+02  0.00000000000E+00 0. -1.
         23    2    1    2    0    0  0.11573365668E+03 -0.59624737294E+02  0.12855816080E+04  0.12981887364E+04  0.12499814360E+03 0.  0.
          5    1    3    3  502    0  0.59130101520E+01 -0.51270201238E+02  0.18567473321E+03  0.19277135103E+03  0.47000000000E+01 0.  1.
         -5    1    3    3    0  502  0.10982064653E+03 -0.83545360558E+01  0.10999068748E+04  0.11054173854E+04  0.47000000000E+01 0.  1.
        -11    1    1    2    0    0 -0.66750190683E+02  0.81633925737E+02  0.40067247245E+03  0.41431644424E+03  0.00000000000E+00 0.  1.
         11    1    1    2    0    0 -0.48983466001E+02 -0.22009188443E+02  0.17624714311E+03  0.18424668185E+03  0.00000000000E+00 0. -1.
<mgrwt>
<rscale>  0 0.17499244E+03</rscale>
<asrwt>0</asrwt>
<pdfrwt beam="1">  1        2 0.28917315E+00 0.18048248E+03</pdfrwt>
<pdfrwt beam="2">  1       -2 0.26346660E-02 0.18048248E+03</pdfrwt>
<totfact> 0.44045336E+03</totfact>
</mgrwt>
</event>
<event>
 7    1  0.5206756E-006  0.1456351E+03  0.7546771E-02  0.1216535E+00
         -2   -1    0    0    0  501 -0.00000000000E+00  0.00000000000E+00  0.30850468584E+02  0.30850468584E+02  0.00000000000E+00 0.  1.
          2   -1    0    0  501    0  0.00000000000E+00 -0.00000000000E+00 -0.60850215409E+03  0.60850215409E+03  0.00000000000E+00 0. -1.
         23    2    1    2    0    0  0.16343309242E+02 -0.72926620897E+02 -0.41218254361E+03  0.43715447379E+03  0.12499675557E+03 0.  0.
          5    1    3    3  502    0 -0.23843794236E+02 -0.48296018850E+01 -0.29302801582E+03  0.29407373163E+03  0.47000000000E+01 0. -1.
         -5    1    3    3    0  502  0.40187103478E+02 -0.68097019012E+02 -0.11915452779E+03  0.14308074216E+03  0.47000000000E+01 0. -1.
        -11    1    1    2    0    0 -0.14115947658E+02 -0.11750782097E+02 -0.25088849351E+01  0.18537404397E+02  0.00000000000E+00 0.  1.
         11    1    1    2    0    0 -0.22273615840E+01  0.84677402994E+02 -0.16296025696E+03  0.18366074449E+03  0.00000000000E+00 0. -1.
<mgrwt>
<rscale>  0 0.13764409E+03</rscale>
<asrwt>0</asrwt>
<pdfrwt beam="2">  1        2 0.93615719E-01 0.14563511E+03</pdfrwt>
<pdfrwt beam="1">  1       -2 0.47462258E-02 0.14563511E+03</pdfrwt>
<totfact> 0.10095615E+04</totfact>
</mgrwt>
</event>
<event>
 7    1  0.5206756E-006  0.1260581E+03  0.7546771E-02  0.1247745E+00
          2   -1    0    0  501    0  0.00000000000E+00  0.00000000000E+00  0.13795944878E+02  0.13795944878E+02  0.00000000000E+00 0. -1.
         -2   -1    0    0    0  501 -0.00000000000E+00 -0.00000000000E+00 -0.88044336544E+03  0.88044336544E+03  0.00000000000E+00 0.  1.
         23    2    1    2    0    0  0.11336477564E+02 -0.11671354577E+02 -0.48289894849E+03  0.49908120278E+03  0.12500366505E+03 0.  0.
          5    1    3    3  502    0  0.11939673958E+02  0.54394416311E+02 -0.16059187218E+03  0.17003866546E+03  0.47000000000E+01 0. -1.
         -5    1    3    3    0  502 -0.60319639449E+00 -0.66065770889E+02 -0.32230707631E+03  0.32904253733E+03  0.47000000000E+01 0. -1.
        -11    1    1    2    0    0 -0.52162878623E+02  0.15433476952E+01 -0.21666558618E+03  0.22286167024E+03  0.00000000000E+00 0.  1.
         11    1    1    2    0    0  0.40826401059E+02  0.10128006882E+02 -0.16708288589E+03  0.17229643730E+03  0.00000000000E+00 0. -1.
<mgrwt>
<rscale>  0 0.11722569E+03</rscale>
<asrwt>0</asrwt>
<pdfrwt beam="1">  1        2 0.21224523E-02 0.12605813E+03</pdfrwt>
<pdfrwt beam="2">  1       -2 0.13545287E+00 0.12605813E+03</pdfrwt>
<totfact> 0.19762029E+03</totfact>
</mgrwt>
</event>
<event>
 6    1  0.5206756E-006  0.1707024E+03  0.7546771E-02  0.1196317E+00
         -2   -1    0    0    0  501 -0.00000000000E+00  0.00000000000E+00  0.11773594660E+03  0.11773594660E+03  0.00000000000E+00 0.  1.
          2   -1    0    0  501    0  0.00000000000E+00 -0.00000000000E+00 -0.18387437413E+03  0.18387437413E+03  0.00000000000E+00 0. -1.
          5    1    1    2  502    0 -0.66241892660E+02 -0.70101624863E+02 -0.95989580749E+02  0.13615548378E+03  0.47000000000E+01 0. -1.
         -5    1    1    2    0  502  0.68101813609E+01  0.50280142323E+02  0.14529537756E+02  0.52987439545E+02  0.47000000000E+01 0.  1.
        -11    1    1    2    0    0  0.13639327882E+02  0.42953330053E+02  0.35468448659E+02  0.57350071298E+02  0.00000000000E+00 0. -1.
         11    1    1    2    0    0  0.45792383418E+02 -0.23131847513E+02 -0.20146833193E+02  0.55117326098E+02  0.00000000000E+00 0.  1.
<mgrwt>
<rscale>  0 0.15343322E+03</rscale>
<asrwt>0</asrwt>
<pdfrwt beam="2">  1        2 0.28288365E-01 0.17070239E+03</pdfrwt>
<pdfrwt beam="1">  1       -2 0.18113223E-01 0.17070239E+03</pdfrwt>
<totfact> 0.45259852E+03</totfact>
</mgrwt>
</event>
<event>
 7    1  0.5206756E-006  0.1462839E+03  0.7546771E-02  0.1214387E+00
          2   -1    0    0  501    0  0.00000000000E+00  0.00000000000E+00  0.78543992663E+02  0.78543992663E+02  0.00000000000E+00 0. -1.
         -2   -1    0    0    0  501 -0.00000000000E+00 -0.00000000000E+00 -0.24849398181E+03  0.24849398181E+03  0.00000000000E+00 0.  1.
         23    2    1    2    0    0  0.75607565058E+02 -0.75876121060E+01 -0.43278097268E+02  0.15255156197E+03  0.12499963842E+03 0.  0.
          5    1    3    3  502    0  0.68197625044E+02 -0.25187925948E+01 -0.85290939493E+02  0.10933386821E+03  0.47000000000E+01 0.  1.
         -5    1    3    3    0  502  0.74099400137E+01 -0.50688195112E+01  0.42012842225E+02  0.43217693762E+02  0.47000000000E+01 0.  1.
        -11    1    1    2    0    0 -0.90414485427E+02 -0.15760954343E+02 -0.89823604409E+02  0.12841910592E+03  0.00000000000E+00 0. -1.
         11    1    1    2    0    0  0.14806920369E+02  0.23348566449E+02 -0.36848287472E+02  0.46067306582E+02  0.00000000000E+00 0.  1.
<mgrwt>
<rscale>  0 0.13921684E+03</rscale>
<asrwt>0</asrwt>
<pdfrwt beam="1">  1        2 0.12083691E-01 0.14628392E+03</pdfrwt>
<pdfrwt beam="2">  1       -2 0.38229843E-01 0.14628392E+03</pdfrwt>
<totfact> 0.31738174E+03</totfact>
</mgrwt>
</event>
<event>
 7    1  0.5206756E-006  0.1353026E+03  0.7546771E-02  0.1235163E+00
          2   -1    0    0  501    0  0.00000000000E+00  0.00000000000E+00  0.88405679830E+02  0.88405679830E+02  0.00000000000E+00 0. -1.
         -2   -1    0    0    0  501 -0.00000000000E+00 -0.00000000000E+00 -0.18741206224E+03  0.18741206224E+03  0.00000000000E+00 0.  1.
         23    2    1    2    0    0  0.40785167319E+02  0.31894669656E+02  0.13168942343E+01  0.13530904783E+03  0.12500441748E+03 0.  0.
          5    1    3    3  502    0  0.81863304476E+02  0.13932448847E+02  0.21515912932E+02  0.85911223131E+02  0.47000000000E+01 0. -1.
         -5    1    3    3    0  502 -0.41078137157E+02  0.17962220809E+02 -0.20199018698E+02  0.49397824700E+02  0.47000000000E+01 0. -1.
        -11    1    1    2    0    0 -0.10000869499E+02 -0.56017588837E+02 -0.43962569068E+02  0.71907545702E+02  0.00000000000E+00 0.  1.
         11    1    1    2    0    0 -0.30784297820E+02  0.24122919181E+02 -0.56360707574E+02  0.68601148535E+02  0.00000000000E+00 0. -1.
<mgrwt>
<rscale>  0 0.12494030E+03</rscale>
<asrwt>0</asrwt>
<pdfrwt beam="1">  1        2 0.13600874E-01 0.13530264E+03</pdfrwt>
<pdfrwt beam="2">  1       -2 0.28832625E-01 0.13530264E+03</pdfrwt>
<totfact> 0.45979917E+03</totfact>
</mgrwt>
</event>
<event>
 7    1  0.5206756E-006  0.1311615E+03  0.7546771E-02  0.1236240E+00
         -2   -1    0    0    0  501 -0.00000000000E+00  0.00000000000E+00  0.49332644006E+02  0.49332644006E+02  0.00000000000E+00 0.  1.
          2   -1    0    0  501    0  0.00000000000E+00 -0.00000000000E+00 -0.33095227279E+03  0.33095227279E+03  0.00000000000E+00 0. -1.
         23    2    1    2    0    0  0.38875631949E+02  0.83518246180E+01 -0.22497957266E+03  0.26042108193E+03  0.12498905578E+03 0.  0.
          5    1    3    3  502    0  0.52246553657E+02 -0.37919504838E+01 -0.23389622818E+03  0.23973655711E+03  0.47000000000E+01 0.  1.
         -5    1    3    3    0  502 -0.13370921708E+02  0.12143775102E+02  0.89166555250E+01  0.20684524814E+02  0.47000000000E+01 0.  1.
        -11    1    1    2    0    0 -0.52121488958E+02 -0.39291056707E+02 -0.56313200204E+02  0.86206805216E+02  0.00000000000E+00 0. -1.
         11    1    1    2    0    0  0.13245857009E+02  0.30939232089E+02 -0.32685591882E+00  0.33657029652E+02  0.00000000000E+00 0.  1.
<mgrwt>
<rscale>  0 0.12425362E+03</rscale>
<asrwt>0</asrwt>
<pdfrwt beam="2">  1        2 0.50915734E-01 0.13116147E+03</pdfrwt>
<pdfrwt beam="1">  1       -2 0.75896376E-02 0.13116147E+03</pdfrwt>
<totfact> 0.95407898E+03</totfact>
</mgrwt>
</event>
<event>
 7    1  0.5206756E-006  0.1383327E+03  0.7546771E-02  0.1226841E+00
         -2   -1    0    0    0  501 -0.00000000000E+00  0.00000000000E+00  0.16153652613E+02  0.16153652613E+02  0.00000000000E+00 0.  1.
          2   -1    0    0  501    0  0.00000000000E+00 -0.00000000000E+00 -0.28297233949E+04  0.28297233949E+04  0.00000000000E+00 0. -1.
         23    2    1    2    0    0 -0.59071264272E+02 -0.44925874847E+01 -0.26195440018E+04  0.26231939926E+04  0.12500539132E+03 0.  0.
          5    1    3    3  502    0 -0.25118468960E+02  0.41083125496E+02 -0.20951132938E+04  0.20956718647E+04  0.47000000000E+01 0. -1.
         -5    1    3    3    0  502 -0.33952795312E+02 -0.45575712980E+02 -0.52443070804E+03  0.52752212793E+03  0.47000000000E+01 0. -1.
        -11    1    1    2    0    0  0.49155121586E+02  0.36230167229E+02 -0.63939030162E+02  0.88414085833E+02  0.00000000000E+00 0.  1.
         11    1    1    2    0    0  0.99161426861E+01 -0.31737579745E+02 -0.13008671033E+03  0.13426896908E+03  0.00000000000E+00 0. -1.
<mgrwt>
<rscale>  0 0.13041491E+03</rscale>
<asrwt>0</asrwt>
<pdfrwt beam="2">  1        2 0.43534170E+00 0.13833273E+03</pdfrwt>
<pdfrwt beam="1">  1       -2 0.24851794E-02 0.13833273E+03</pdfrwt>
<totfact> 0.15039181E+03</totfact>
</mgrwt>
</event>
<event>
 7    1  0.5206756E-006  0.1624018E+03  0.7546771E-02  0.1193359E+00
          1   -1    0    0  501    0  0.00000000000E+00  0.00000000000E+00  0.11870354086E+03  0.11870354086E+03  0.00000000000E+00 0. -1.
         -1   -1    0    0    0  501 -0.00000000000E+00 -0.00000000000E+00 -0.20359716617E+03  0.20359716617E+03  0.00000000000E+00 0.  1.
         23    2    1    2    0    0  0.23825339995E+02  0.10090803776E+03 -0.43299006404E+01  0.16245954550E+03  0.12499710786E+03 0.  0.
          5    1    3    3  502    0 -0.11172400189E+02  0.12103491764E+03 -0.59095953968E+01  0.12178377203E+03  0.47000000000E+01 0. -1.
         -5    1    3    3    0  502  0.34997740183E+02 -0.20126879875E+02  0.15796947564E+01  0.40675773465E+02  0.47000000000E+01 0. -1.
        -11    1    1    2    0    0  0.32382508236E+02 -0.60563119888E+02 -0.35964729527E+02  0.77524061427E+02  0.00000000000E+00 0. -1.
         11    1    1    2    0    0 -0.56207848230E+02 -0.40344917872E+02 -0.44598995147E+02  0.82317100100E+02  0.00000000000E+00 0.  1.
<mgrwt>
<rscale>  0 0.15593902E+03</rscale>
<asrwt>0</asrwt>
<pdfrwt beam="1">  1        1 0.18262083E-01 0.16240183E+03</pdfrwt>
<pdfrwt beam="2">  1       -1 0.31322641E-01 0.16240183E+03</pdfrwt>
<totfact> 0.26625677E+03</totfact>
</mgrwt>
</event>
<event>
 7    1  0.5206756E-006  0.1261095E+03  0.7546771E-02  0.1247284E+00
         -1   -1    0    0    0  501 -0.00000000000E+00  0.00000000000E+00  0.12415396829E+03  0.12415396829E+03  0.00000000000E+00 0.  1.
          1   -1    0    0  501    0  0.00000000000E+00 -0.00000000000E+00 -0.98479817574E+02  0.98479817574E+02  0.00000000000E+00 0. -1.
         23    2    1    2    0    0 -0.56903762706E+01  0.15770472466E+02  0.13671627639E+02  0.12684838204E+03  0.12499004136E+03 0.  0.
          5    1    3    3  502    0 -0.27494660418E+02  0.43264861386E+02  0.53032400912E+02  0.73907578290E+02  0.47000000000E+01 0. -1.
         -5    1    3    3    0  502  0.21804284148E+02 -0.27494388920E+02 -0.39360773273E+02  0.52940803752E+02  0.47000000000E+01 0. -1.
        -11    1    1    2    0    0 -0.77170067108E+01 -0.49704114981E+02 -0.12507039304E+02  0.51831238368E+02  0.00000000000E+00 0. -1.
         11    1    1    2    0    0  0.13407382981E+02  0.33933642515E+02  0.24509562381E+02  0.43954165455E+02  0.00000000000E+00 0.  1.
<mgrwt>
<rscale>  0 0.11749691E+03</rscale>
<asrwt>0</asrwt>
<pdfrwt beam="2">  1        1 0.15150741E-01 0.12610947E+03</pdfrwt>
<pdfrwt beam="1">  1       -1 0.19100611E-01 0.12610947E+03</pdfrwt>
<totfact> 0.75181840E+03</totfact>
</mgrwt>
</event>
<event>
 7    1  0.5206756E-006  0.1438395E+03  0.7546771E-02  0.1218355E+00
          1   -1    0    0  501    0  0.00000000000E+00  0.00000000000E+00  0.21389638718E+02  0.21389638718E+02  0.00000000000E+00 0. -1.
         -1   -1    0    0    0  501 -0.00000000000E+00 -0.00000000000E+00 -0.82096667763E+03  0.82096667763E+03  0.00000000000E+00 0.  1.
         23    2    1    2    0    0 -0.57820955580E+02 -0.41468627878E+02 -0.35894476357E+03  0.38669258824E+03  0.12500761778E+03 0.  0.
          5    1    3    3  502    0 -0.54402671142E+02  0.34721602501E+02 -0.12785980995E+03  0.14330199339E+03  0.47000000000E+01 0. -1.
         -5    1    3    3    0  502 -0.34182844380E+01 -0.76190230379E+02 -0.23108495362E+03  0.24339059485E+03  0.47000000000E+01 0. -1.
        -11    1    1    2    0    0  0.13018599623E+02 -0.17908513711E+02 -0.24859215113E+02  0.33289328252E+02  0.00000000000E+00 0. -1.
         11    1    1    2    0    0  0.44802355957E+02  0.59377141588E+02 -0.41577306023E+03  0.42237439985E+03  0.00000000000E+00 0.  1.
<mgrwt>
<rscale>  0 0.13632964E+03</rscale>
<asrwt>0</asrwt>
<pdfrwt beam="1">  1        1 0.32907130E-02 0.14383954E+03</pdfrwt>
<pdfrwt beam="2">  1       -1 0.12630259E+00 0.14383954E+03</pdfrwt>
<totfact> 0.17053732E+03</totfact>
</mgrwt>
</event>
<event>
 7    1  0.5206756E-006  0.1641340E+03  0.7546771E-02  0.1190501E+00
         -1   -1    0    0    0  501 -0.00000000000E+00  0.00000000000E+00  0.79281283965E+02  0.79281283965E+02  0.00000000000E+00 0.  1.
          1   -1    0    0  501    0  0.00000000000E+00 -0.00000000000E+00 -0.32382984274E+03  0.32382984274E+03  0.00000000000E+00 0. -1.
         23    2    1    2    0    0 -0.15732032987E+02  0.10519627035E+03 -0.71597408092E+02  0.17907021754E+03  0.12500480713E+03 0.  0.
          5    1    3    3  502    0 -0.21972214781E+02 -0.23757530446E+02 -0.26976450770E+02  0.42391241683E+02  0.47000000000E+01 0.  1.
         -5    1    3    3    0  502  0.62401817940E+01  0.12895380080E+03 -0.44620957322E+02  0.13667897585E+03  0.47000000000E+01 0.  1.
        -11    1    1    2    0    0  0.34692295065E+02 -0.46337105742E+02 -0.14510134398E+03  0.15622126209E+03  0.00000000000E+00 0. -1.
         11    1    1    2    0    0 -0.18960262078E+02 -0.58859164606E+02 -0.27849806710E+02  0.67819647080E+02  0.00000000000E+00 0.  1.
<mgrwt>
<rscale>  0 0.15841207E+03</rscale>
<asrwt>0</asrwt>
<pdfrwt beam="2">  1        1 0.49819977E-01 0.16413395E+03</pdfrwt>
<pdfrwt beam="1">  1       -1 0.12197120E-01 0.16413395E+03</pdfrwt>
<totfact> 0.34622145E+03</totfact>
</mgrwt>
</event>
<event>
 7    1  0.5206756E-006  0.1284119E+03  0.7546771E-02  0.1243785E+00
         -2   -1    0    0    0  501 -0.00000000000E+00  0.00000000000E+00  0.97222305230E+02  0.97222305230E+02  0.00000000000E+00 0.  1.
          2   -1    0    0  501    0  0.00000000000E+00 -0.00000000000E+00 -0.15281414695E+03  0.15281414695E+03  0.00000000000E+00 0. -1.
         23    2    1    2    0    0  0.50309677367E+01  0.28964443647E+02 -0.78863235373E+02  0.15069514125E+03  0.12500146427E+03 0.  0.
          5    1    3    3  502    0  0.27434228274E+02  0.43179332795E+02 -0.10262744619E+03  0.11476747959E+03  0.47000000000E+01 0.  1.
         -5    1    3    3    0  502 -0.22403260538E+02 -0.14214889148E+02  0.23764210814E+02  0.35927661653E+02  0.47000000000E+01 0.  1.
        -11    1    1    2    0    0  0.23764970845E+02 -0.24991834460E+02 -0.25275025801E+02  0.42757368467E+02  0.00000000000E+00 0. -1.
         11    1    1    2    0    0 -0.28795938582E+02 -0.39726091863E+01  0.48546419457E+02  0.56583942463E+02  0.00000000000E+00 0.  1.
<mgrwt>
<rscale>  0 0.11958384E+03</rscale>
<asrwt>0</asrwt>
<pdfrwt beam="2">  1        2 0.23509868E-01 0.12841190E+03</pdfrwt>
<pdfrwt beam="1">  1       -2 0.14957278E-01 0.12841190E+03</pdfrwt>
<totfact> 0.74811771E+03</totfact>
</mgrwt>
</event>
<event>
 7    1  0.5206756E-006  0.1425277E+03  0.7546771E-02  0.1225671E+00
          2   -1    0    0  501    0  0.00000000000E+00  0.00000000000E+00  0.44443127207E+03  0.44443127207E+03  0.00000000000E+00 0. -1.
         -2   -1    0    0    0  501 -0.00000000000E+00 -0.00000000000E+00 -0.34500760833E+02  0.34500760833E+02  0.00000000000E+00 0.  1.
         23    2    1    2    0    0 -0.62439826131E+02 -0.28131674657E+02  0.27298948312E+03  0.30795683561E+03  0.12499612674E+03 0.  0.
          5    1    3    3  502    0 -0.40312776685E+02 -0.61392575110E+02  0.25211838344E+03  0.26264031966E+03  0.47000000000E+01 0.  1.
         -5    1    3    3    0  502 -0.22127049445E+02  0.33260900453E+02  0.20871099681E+02  0.45316515952E+02  0.47000000000E+01 0.  1.
        -11    1    1    2    0    0  0.19752416786E+02  0.31413931942E+01  0.11523494228E+03  0.11695776264E+03  0.00000000000E+00 0. -1.
         11    1    1    2    0    0  0.42687409344E+02  0.24990281462E+02  0.21706085841E+02  0.54017434654E+02  0.00000000000E+00 0.  1.
<mgrwt>
<rscale>  0 0.13121032E+03</rscale>
<asrwt>0</asrwt>
<pdfrwt beam="1">  1        2 0.68374038E-01 0.14252773E+03</pdfrwt>
<pdfrwt beam="2">  1       -2 0.53078097E-02 0.14252773E+03</pdfrwt>
<totfact> 0.12073919E+04</totfact>
</mgrwt>
</event>
<event>
 7    1  0.5206756E-006  0.1268124E+03  0.7546771E-02  0.1246253E+00
         -1   -1    0    0    0  501 -0.00000000000E+00  0.00000000000E+00  0.27917344119E+02  0.27917344119E+02  0.00000000000E+00 0.  1.
          1   -1    0    0  501    0  0.00000000000E+00 -0.00000000000E+00 -0.47420195605E+03  0.47420195605E+03  0.00000000000E+00 0. -1.
         23    2    1    2    0    0 -0.12263961553E+02  0.17471595845E+02 -0.31710906428E+03  0.34152532709E+03  0.12500291588E+03 0.  0.
          5    1    3    3  502    0  0.54261245964E+02 -0.86832674230E+01 -0.14122740653E+03  0.15161448579E+03  0.47000000000E+01 0.  1.
         -5    1    3    3    0  502 -0.66525207517E+02  0.26154863268E+02 -0.17588165775E+03  0.18991084130E+03  0.47000000000E+01 0.  1.
        -11    1    1    2    0    0  0.50674989864E+02  0.43868651805E+00 -0.52393888510E+02  0.72892157307E+02  0.00000000000E+00 0.  1.
         11    1    1    2    0    0 -0.38411028310E+02 -0.17910282363E+02 -0.76781659133E+02  0.87701815770E+02  0.00000000000E+00 0. -1.
<mgrwt>
<rscale>  0 0.11810710E+03</rscale>
<asrwt>0</asrwt>
<pdfrwt beam="2">  1        1 0.72954148E-01 0.12681242E+03</pdfrwt>
<pdfrwt beam="1">  1       -1 0.42949760E-02 0.12681242E+03</pdfrwt>
<totfact> 0.10143743E+04</totfact>
</mgrwt>
</event>
<event>
 7    1  0.5206756E-006  0.1724766E+03  0.7546771E-02  0.1181285E+00
         -4   -1    0    0    0  501 -0.00000000000E+00  0.00000000000E+00  0.16968884679E+03  0.16968884679E+03  0.00000000000E+00 0.  1.
          4   -1    0    0  501    0  0.00000000000E+00 -0.00000000000E+00 -0.16770837405E+03  0.16770837405E+03  0.00000000000E+00 0. -1.
         23    2    1    2    0    0  0.29349661930E+02 -0.11515036200E+03 -0.47348648596E+02  0.17885764613E+03  0.12500861783E+03 0.  0.
          5    1    3    3  502    0  0.40637212564E+02 -0.13614688725E+02  0.28367999943E+02  0.51609846103E+02  0.47000000000E+01 0. -1.
         -5    1    3    3    0  502 -0.11287550634E+02 -0.10153567327E+03 -0.75716648539E+02  0.12724780003E+03  0.47000000000E+01 0. -1.
        -11    1    1    2    0    0 -0.24642622648E+02  0.34838088658E+02  0.63842609888E+02  0.76790820478E+02  0.00000000000E+00 0.  1.
         11    1    1    2    0    0 -0.47070392822E+01  0.80312273337E+02 -0.14513488551E+02  0.81748754224E+02  0.00000000000E+00 0. -1.
<mgrwt>
<rscale>  0 0.16674554E+03</rscale>
<asrwt>0</asrwt>
<pdfrwt beam="2">  1        4 0.25801288E-01 0.17247656E+03</pdfrwt>
<pdfrwt beam="1">  1       -4 0.26105976E-01 0.17247656E+03</pdfrwt>
<totfact> 0.33887643E+02</totfact>
</mgrwt>
</event>
<event>
 7    1  0.5206756E-006  0.1831399E+03  0.7546771E-02  0.1169897E+00
          1   -1    0    0  501    0  0.00000000000E+00  0.00000000000E+00  0.20256075974E+03  0.20256075974E+03  0.00000000000E+00 0. -1.
         -1   -1    0    0    0  501 -0.00000000000E+00 -0.00000000000E+00 -0.17854032984E+03  0.17854032984E+03  0.00000000000E+00 0.  1.
         23    2    1    2    0    0  0.11190281258E+03 -0.73438625429E+02  0.91573173790E+02  0.20475807952E+03  0.12499901521E+03 0.  0.
          5    1    3    3  502    0  0.83073108713E+02 -0.89133838226E+02  0.16960480673E+02  0.12310861226E+03  0.47000000000E+01 0. -1.
         -5    1    3    3    0  502  0.28829703867E+02  0.15695212797E+02  0.74612693117E+02  0.81649467261E+02  0.47000000000E+01 0. -1.
        -11    1    1    2    0    0 -0.23564136404E+02  0.58704826663E+02  0.14665093059E+01  0.63274606656E+02  0.00000000000E+00 0. -1.
         11    1    1    2    0    0 -0.88338676176E+02  0.14733798766E+02 -0.69019253197E+02  0.11306840340E+03  0.00000000000E+00 0.  1.
<mgrwt>
<rscale>  0 0.17785313E+03</rscale>
<asrwt>0</asrwt>
<pdfrwt beam="1">  1        1 0.31163194E-01 0.18313991E+03</pdfrwt>
<pdfrwt beam="2">  1       -1 0.27467743E-01 0.18313991E+03</pdfrwt>
<totfact> 0.16945296E+03</totfact>
</mgrwt>
</event>
<event>
 7    1  0.5206756E-006  0.1330189E+03  0.7546771E-02  0.1236004E+00
         -2   -1    0    0    0  501 -0.00000000000E+00  0.00000000000E+00  0.89258833706E+02  0.89258833706E+02  0.00000000000E+00 0.  1.
          2   -1    0    0  501    0  0.00000000000E+00 -0.00000000000E+00 -0.15457018243E+03  0.15457018243E+03  0.00000000000E+00 0. -1.
         23    2    1    2    0    0  0.44905570844E+02 -0.59560284251E+01 -0.41108021922E+02  0.13922610287E+03  0.12506819615E+03 0.  0.
          5    1    3    3  502    0  0.72597060197E+02 -0.38268620843E+02 -0.48991544326E+02  0.95692642904E+02  0.47000000000E+01 0. -1.
         -5    1    3    3    0  502 -0.27691489353E+02  0.32312592418E+02  0.78835224034E+01  0.43533459969E+02  0.47000000000E+01 0. -1.
        -11    1    1    2    0    0 -0.81363755655E+01 -0.65579362694E+01  0.33473814160E+02  0.35067126627E+02  0.00000000000E+00 0.  1.
         11    1    1    2    0    0 -0.36769195279E+02  0.12513964694E+02 -0.57677140961E+02  0.69535786637E+02  0.00000000000E+00 0. -1.
<mgrwt>
<rscale>  0 0.12440389E+03</rscale>
<asrwt>0</asrwt>
<pdfrwt beam="2">  1        2 0.23780028E-01 0.13301894E+03</pdfrwt>
<pdfrwt beam="1">  1       -2 0.13732128E-01 0.13301894E+03</pdfrwt>
<totfact> 0.85100210E+03</totfact>
</mgrwt>
</event>
<event>
 7    1  0.5206756E-006  0.1857318E+03  0.7546771E-02  0.1167634E+00
          2   -1    0    0  501    0  0.00000000000E+00  0.00000000000E+00  0.91058616614E+03  0.91058616614E+03  0.00000000000E+00 0. -1.
         -2   -1    0    0    0  501 -0.00000000000E+00 -0.00000000000E+00 -0.53643724907E+02  0.53643724907E+02  0.00000000000E+00 0.  1.
         23    2    1    2    0    0 -0.51671506972E+02  0.12729134569E+03  0.73861629510E+03  0.76161036190E+03  0.12499312235E+03 0.  0.
          5    1    3    3  502    0  0.22941097786E+02 -0.12189926332E+02  0.79799568169E+02  0.84053253069E+02  0.47000000000E+01 0.  1.
         -5    1    3    3    0  502 -0.74612604757E+02  0.13948127202E+03  0.65881672694E+03  0.67755710883E+03  0.47000000000E+01 0.  1.
        -11    1    1    2    0    0  0.27018869385E+02 -0.39739997923E+02  0.98398796673E+02  0.10950620952E+03  0.00000000000E+00 0. -1.
         11    1    1    2    0    0  0.24652637587E+02 -0.87551347765E+02  0.19927349455E+02  0.93113319626E+02  0.00000000000E+00 0.  1.
<mgrwt>
<rscale>  0 0.18017431E+03</rscale>
<asrwt>0</asrwt>
<pdfrwt beam="1">  1        2 0.14009017E+00 0.18573183E+03</pdfrwt>
<pdfrwt beam="2">  1       -2 0.82528814E-02 0.18573183E+03</pdfrwt>
<totfact> 0.26709785E+03</totfact>
</mgrwt>
</event>
<event>
 7    1  0.5206756E-006  0.1354494E+03  0.7546771E-02  0.1232251E+00
         -1   -1    0    0    0  501 -0.00000000000E+00  0.00000000000E+00  0.59664449540E+03  0.59664449540E+03  0.00000000000E+00 0.  1.
          1   -1    0    0  501    0  0.00000000000E+00 -0.00000000000E+00 -0.26258551925E+02  0.26258551925E+02  0.00000000000E+00 0. -1.
         23    2    1    2    0    0  0.50041221028E+02 -0.14725369049E+02  0.22962755104E+03  0.26659959218E+03  0.12500228022E+03 0.  0.
          5    1    3    3  502    0  0.33041614129E+02  0.36347016385E+02  0.19786069729E+03  0.20392106168E+03  0.47000000000E+01 0. -1.
         -5    1    3    3    0  502  0.16999606899E+02 -0.51072385434E+02  0.31766853747E+02  0.62678530500E+02  0.47000000000E+01 0. -1.
        -11    1    1    2    0    0 -0.14613725448E+02  0.50879779654E+02  0.15603658468E+03  0.16477174730E+03  0.00000000000E+00 0.  1.
         11    1    1    2    0    0 -0.35427495580E+02 -0.36154410606E+02  0.18472180776E+03  0.19153170785E+03  0.00000000000E+00 0. -1.
<mgrwt>
<rscale>  0 0.12682086E+03</rscale>
<asrwt>0</asrwt>
<pdfrwt beam="2">  1        1 0.40397777E-02 0.13544936E+03</pdfrwt>
<pdfrwt beam="1">  1       -1 0.91791450E-01 0.13544936E+03</pdfrwt>
<totfact> 0.26369284E+03</totfact>
</mgrwt>
</event>
<event>
 7    1  0.5206756E-006  0.1401696E+03  0.7546771E-02  0.1224463E+00
         -2   -1    0    0    0  501 -0.00000000000E+00  0.00000000000E+00  0.10770986578E+03  0.10770986578E+03  0.00000000000E+00 0.  1.
          2   -1    0    0  501    0  0.00000000000E+00 -0.00000000000E+00 -0.15217127003E+03  0.15217127003E+03  0.00000000000E+00 0. -1.
         23    2    1    2    0    0  0.53767653617E+01 -0.63202537226E+02 -0.51406896377E+02  0.14929901894E+03  0.12499623092E+03 0.  0.
          5    1    3    3  502    0  0.11316192886E+02 -0.49945495256E+02 -0.92293807716E+02  0.10565436887E+03  0.47000000000E+01 0.  1.
         -5    1    3    3    0  502 -0.59394275240E+01 -0.13257041970E+02  0.40886911338E+02  0.43644650072E+02  0.47000000000E+01 0.  1.
        -11    1    1    2    0    0 -0.63275309930E+01  0.52021845142E+02 -0.37694295483E+02  0.64553620598E+02  0.00000000000E+00 0. -1.
         11    1    1    2    0    0  0.95076563127E+00  0.11180692084E+02  0.44639787616E+02  0.46028496273E+02  0.00000000000E+00 0.  1.
<mgrwt>
<rscale>  0 0.13203745E+03</rscale>
<asrwt>0</asrwt>
<pdfrwt beam="2">  1        2 0.23410964E-01 0.14016964E+03</pdfrwt>
<pdfrwt beam="1">  1       -2 0.16570749E-01 0.14016964E+03</pdfrwt>
<totfact> 0.63918649E+03</totfact>
</mgrwt>
</event>
<event>
 7    1  0.5206756E-006  0.2514807E+03  0.7546771E-02  0.1114659E+00
          2   -1    0    0  501    0  0.00000000000E+00  0.00000000000E+00  0.92932219492E+03  0.92932219492E+03  0.00000000000E+00 0. -1.
         -2   -1    0    0    0  501 -0.00000000000E+00 -0.00000000000E+00 -0.83508778238E+02  0.83508778238E+02  0.00000000000E+00 0.  1.
         23    2    1    2    0    0  0.20152059457E+03  0.83701544404E+02  0.67524865213E+03  0.72055762447E+03  0.12500419753E+03 0.  0.
          5    1    3    3  502    0  0.21386491982E+03  0.71997158338E+02  0.65895350273E+03  0.69653686442E+03  0.47000000000E+01 0.  1.
         -5    1    3    3    0  502 -0.12344325251E+02  0.11704386066E+02  0.16295149402E+02  0.24020760045E+02  0.47000000000E+01 0.  1.
        -11    1    1    2    0    0  0.22116754878E+01 -0.22867615047E+02  0.69976715398E+01  0.24016384686E+02  0.00000000000E+00 0.  1.
         11    1    1    2    0    0 -0.20373227006E+03 -0.60833929356E+02  0.16356709301E+03  0.26825696401E+03  0.00000000000E+00 0. -1.
<mgrwt>
<rscale>  0 0.24786905E+03</rscale>
<asrwt>0</asrwt>
<pdfrwt beam="1">  1        2 0.14297264E+00 0.25148071E+03</pdfrwt>
<pdfrwt beam="2">  1       -2 0.12847505E-01 0.25148071E+03</pdfrwt>
<totfact> 0.12873169E+03</totfact>
</mgrwt>
</event>
<event>
 7    1  0.5206756E-006  0.1564165E+03  0.7546771E-02  0.1201160E+00
          1   -1    0    0  501    0  0.00000000000E+00  0.00000000000E+00  0.31197606654E+03  0.31197606654E+03  0.00000000000E+00 0. -1.
         -1   -1    0    0    0  501 -0.00000000000E+00 -0.00000000000E+00 -0.75248776631E+02  0.75248776631E+02  0.00000000000E+00 0.  1.
         23    2    1    2    0    0  0.86177860292E+02 -0.37497779456E+02  0.19582389531E+03  0.25062544748E+03  0.12503363501E+03 0.  0.
          5    1    3    3  502    0  0.11159417389E+03 -0.14191702085E+01  0.14733481939E+03  0.18489162419E+03  0.47000000000E+01 0.  1.
         -5    1    3    3    0  502 -0.25416313594E+02 -0.36078609248E+02  0.48489075910E+02  0.65733823292E+02  0.47000000000E+01 0.  1.
        -11    1    1    2    0    0 -0.49026579189E+01  0.47393164269E+02  0.77774864514E+01  0.48276675213E+02  0.00000000000E+00 0.  1.
         11    1    1    2    0    0 -0.81275202373E+02 -0.98953848127E+01  0.33125908151E+02  0.88322720475E+02  0.00000000000E+00 0. -1.
<mgrwt>
<rscale>  0 0.14944255E+03</rscale>
<asrwt>0</asrwt>
<pdfrwt beam="1">  1        1 0.47996317E-01 0.15641649E+03</pdfrwt>
<pdfrwt beam="2">  1       -1 0.11576735E-01 0.15641649E+03</pdfrwt>
<totfact> 0.39237619E+03</totfact>
</mgrwt>
</event>
<event>
 7    1  0.5206756E-006  0.1331145E+03  0.7546771E-02  0.1235948E+00
         -1   -1    0    0    0  501 -0.00000000000E+00  0.00000000000E+00  0.78005486195E+02  0.78005486195E+02  0.00000000000E+00 0.  1.
          1   -1    0    0  501    0  0.00000000000E+00 -0.00000000000E+00 -0.18008180022E+03  0.18008180022E+03  0.00000000000E+00 0. -1.
         23    2    1    2    0    0  0.45657895552E+02  0.32560402718E+01 -0.40099077554E+02  0.13902300037E+03  0.12499685351E+03 0.  0.
          5    1    3    3  502    0  0.31773592211E+02  0.40400839171E+02  0.29009734498E+02  0.59206787308E+02  0.47000000000E+01 0.  1.
         -5    1    3    3    0  502  0.13884303341E+02 -0.37144798899E+02 -0.69108812052E+02  0.79816213063E+02  0.47000000000E+01 0.  1.
        -11    1    1    2    0    0 -0.63846541343E+02 -0.66200768711E+01 -0.11377137945E+02  0.65189305312E+02  0.00000000000E+00 0.  1.
         11    1    1    2    0    0  0.18188645792E+02  0.33640365993E+01 -0.50600098525E+02  0.53874980731E+02  0.00000000000E+00 0. -1.
<mgrwt>
<rscale>  0 0.12443954E+03</rscale>
<asrwt>0</asrwt>
<pdfrwt beam="2">  1        1 0.27704892E-01 0.13311446E+03</pdfrwt>
<pdfrwt beam="1">  1       -1 0.12000844E-01 0.13311446E+03</pdfrwt>
<totfact> 0.72735374E+03</totfact>
</mgrwt>
</event>
<event>
 7    1  0.5206756E-006  0.1254866E+03  0.7546771E-02  0.1249530E+00
          2   -1    0    0  501    0  0.00000000000E+00  0.00000000000E+00  0.14820771061E+03  0.14820771061E+03  0.00000000000E+00 0.  1.
         -2   -1    0    0    0  501 -0.00000000000E+00 -0.00000000000E+00 -0.98261924610E+02  0.98261924610E+02  0.00000000000E+00 0. -1.
         23    2    1    2    0    0 -0.53833840548E+01  0.96311888096E+01  0.80781872990E+02  0.14924003895E+03  0.12500055040E+03 0.  0.
          5    1    3    3  502    0 -0.54803118875E+02  0.37811671792E+02  0.31414616802E+02  0.73770404032E+02  0.47000000000E+01 0.  1.
         -5    1    3    3    0  502  0.49419734821E+02 -0.28180482983E+02  0.49367256188E+02  0.75469634917E+02  0.47000000000E+01 0.  1.
        -11    1    1    2    0    0 -0.28297932796E+02  0.26271906778E+02  0.96027504485E+00  0.38625227694E+02  0.00000000000E+00 0.  1.
         11    1    1    2    0    0  0.33681316850E+02 -0.35903095588E+02 -0.31796362035E+02  0.58604368576E+02  0.00000000000E+00 0. -1.
<mgrwt>
<rscale>  0 0.11618304E+03</rscale>
<asrwt>0</asrwt>
<pdfrwt beam="1">  1        2 0.22801186E-01 0.12548657E+03</pdfrwt>
<pdfrwt beam="2">  1       -2 0.15117219E-01 0.12548657E+03</pdfrwt>
<totfact> 0.75932651E+03</totfact>
</mgrwt>
</event>
<event>
 7    1  0.5206756E-006  0.1396617E+03  0.7546771E-02  0.1225202E+00
          2   -1    0    0  501    0  0.00000000000E+00  0.00000000000E+00  0.15581781427E+04  0.15581781427E+04  0.00000000000E+00 0.  1.
         -2   -1    0    0    0  501 -0.00000000000E+00 -0.00000000000E+00 -0.11558846352E+02  0.11558846352E+02  0.00000000000E+00 0. -1.
         23    2    1    2    0    0  0.62251916004E+02  0.20271181334E+01  0.11404724349E+04  0.11489920670E+04  0.12500394016E+03 0.  0.
          5    1    3    3  502    0 -0.35921975990E+02 -0.15605106412E+01  0.18878195598E+03  0.19223303684E+03  0.47000000000E+01 0.  1.
         -5    1    3    3    0  502  0.98173891994E+02  0.35876287746E+01  0.95169047888E+03  0.95675903013E+03  0.47000000000E+01 0.  1.
        -11    1    1    2    0    0  0.38532772481E+01 -0.14505271240E+02  0.81025654594E+01  0.17055855485E+02  0.00000000000E+00 0. -1.
         11    1    1    2    0    0 -0.66105193252E+02  0.12478153106E+02  0.39804429605E+03  0.40368906661E+03  0.00000000000E+00 0.  1.
<mgrwt>
<rscale>  0 0.13153036E+03</rscale>
<asrwt>0</asrwt>
<pdfrwt beam="1">  1        2 0.23971955E+00 0.13966172E+03</pdfrwt>
<pdfrwt beam="2">  1       -2 0.17782853E-02 0.13966172E+03</pdfrwt>
<totfact> 0.11384542E+04</totfact>
</mgrwt>
</event>
<event>
 7    1  0.5206756E-006  0.2528133E+03  0.7546771E-02  0.1113889E+00
         -2   -1    0    0    0  501 -0.00000000000E+00  0.00000000000E+00  0.35070101289E+03  0.35070101289E+03  0.00000000000E+00 0.  1.
          2   -1    0    0  501    0  0.00000000000E+00 -0.00000000000E+00 -0.17186554429E+03  0.17186554429E+03  0.00000000000E+00 0. -1.
         23    2    1    2    0    0  0.18512397448E+03 -0.11840287033E+03  0.92310801825E+02  0.26913911483E+03  0.12499781346E+03 0.  0.
          5    1    3    3  502    0 -0.86183881211E+01 -0.25815640770E+02 -0.12303898225E+02  0.30235737691E+02  0.47000000000E+01 0. -1.
         -5    1    3    3    0  502  0.19374236260E+03 -0.92587229556E+02  0.10461470005E+03  0.23890337714E+03  0.47000000000E+01 0. -1.
        -11    1    1    2    0    0 -0.16538205349E+02  0.15503719241E+00 -0.16334533557E+02  0.23245499763E+02  0.00000000000E+00 0. -1.
         11    1    1    2    0    0 -0.16858576913E+03  0.11824783313E+03  0.10285920033E+03  0.23018194258E+03  0.00000000000E+00 0.  1.
<mgrwt>
<rscale>  0 0.24907787E+03</rscale>
<asrwt>0</asrwt>
<pdfrwt beam="2">  1        2 0.26440853E-01 0.25281333E+03</pdfrwt>
<pdfrwt beam="1">  1       -2 0.53954002E-01 0.25281333E+03</pdfrwt>
<totfact> 0.66574125E+02</totfact>
</mgrwt>
</event>
<event>
 7    1  0.5206756E-006  0.1701956E+03  0.7546771E-02  0.1184160E+00
          2   -1    0    0  501    0  0.00000000000E+00  0.00000000000E+00  0.15300875092E+04  0.15300875092E+04  0.00000000000E+00 0. -1.
         -2   -1    0    0    0  501 -0.00000000000E+00 -0.00000000000E+00 -0.17800992775E+02  0.17800992775E+02  0.00000000000E+00 0.  1.
         23    2    1    2    0    0 -0.32356224001E+01  0.11546187681E+03  0.10203504490E+04  0.10344474688E+04  0.12499845051E+03 0.  0.
          5    1    3    3  502    0  0.54982000106E+02  0.21728648083E+02  0.39306020819E+03  0.39750920963E+03  0.47000000000E+01 0. -1.
         -5    1    3    3    0  502 -0.58217622506E+02  0.93733228722E+02  0.62729024081E+03  0.63693825914E+03  0.47000000000E+01 0. -1.
        -11    1    1    2    0    0  0.26724542171E+02 -0.10769293115E+02  0.42302123659E+02  0.51182501839E+02  0.00000000000E+00 0. -1.
         11    1    1    2    0    0 -0.23488919771E+02 -0.10469258369E+03  0.44963394375E+03  0.46225853135E+03  0.00000000000E+00 0.  1.
<mgrwt>
<rscale>  0 0.16408528E+03</rscale>
<asrwt>0</asrwt>
<pdfrwt beam="1">  1        2 0.23539798E+00 0.17019555E+03</pdfrwt>
<pdfrwt beam="2">  1       -2 0.27386155E-02 0.17019555E+03</pdfrwt>
<totfact> 0.63100873E+03</totfact>
</mgrwt>
</event>
<event>
 7    1  0.5206756E-006  0.1363104E+03  0.7546771E-02  0.1230021E+00
          2   -1    0    0  501    0  0.00000000000E+00  0.00000000000E+00  0.72673824494E+03  0.72673824494E+03  0.00000000000E+00 0. -1.
         -2   -1    0    0    0  501 -0.00000000000E+00 -0.00000000000E+00 -0.20624707495E+02  0.20624707495E+02  0.00000000000E+00 0.  1.
         23    2    1    2    0    0  0.16557442759E+02  0.51773840752E+02  0.43758535077E+03  0.45832463986E+03  0.12500342714E+03 0.  0.
          5    1    3    3  502    0 -0.25366698483E+02  0.64609161750E+02  0.37714691241E+03  0.38350970876E+03  0.47000000000E+01 0. -1.
         -5    1    3    3    0  502  0.41924141242E+02 -0.12835320998E+02  0.60438438365E+02  0.74814931103E+02  0.47000000000E+01 0. -1.
        -11    1    1    2    0    0 -0.37662357715E+02 -0.43438689531E+02  0.25744228723E+03  0.26378382094E+03  0.00000000000E+00 0. -1.
         11    1    1    2    0    0  0.21104914956E+02 -0.83351512212E+01  0.11085899447E+02  0.25254491635E+02  0.00000000000E+00 0.  1.
<mgrwt>
<rscale>  0 0.12828621E+03</rscale>
<asrwt>0</asrwt>
<pdfrwt beam="1">  1        2 0.11180586E+00 0.13631044E+03</pdfrwt>
<pdfrwt beam="2">  1       -2 0.31730325E-02 0.13631044E+03</pdfrwt>
<totfact> 0.14847867E+04</totfact>
</mgrwt>
</event>
<event>
 7    1  0.5206756E-006  0.1598602E+03  0.7546771E-02  0.1196143E+00
         -3   -1    0    0    0  501 -0.00000000000E+00  0.00000000000E+00  0.17947055416E+03  0.17947055416E+03  0.00000000000E+00 0.  1.
          3   -1    0    0  501    0  0.00000000000E+00 -0.00000000000E+00 -0.14117951759E+03  0.14117951759E+03  0.00000000000E+00 0. -1.
         23    2    1    2    0    0  0.45395005761E+02  0.88708594376E+02 -0.38336446792E+02  0.16439273399E+03  0.12500146628E+03 0.  0.
          5    1    3    3  502    0  0.17422612492E+02  0.93932329052E+02 -0.72252066721E+02  0.11987193588E+03  0.47000000000E+01 0. -1.
         -5    1    3    3    0  502  0.27972393269E+02 -0.52237346767E+01  0.33915619929E+02  0.44520798110E+02  0.47000000000E+01 0. -1.
        -11    1    1    2    0    0 -0.20892453397E+02 -0.39347206256E+02 -0.16944403477E+02  0.47663508665E+02  0.00000000000E+00 0. -1.
         11    1    1    2    0    0 -0.24502552364E+02 -0.49361388120E+02  0.93571886838E+02  0.10859382909E+03  0.00000000000E+00 0.  1.
<mgrwt>
<rscale>  0 0.15357921E+03</rscale>
<asrwt>0</asrwt>
<pdfrwt beam="2">  1        3 0.21719926E-01 0.15986021E+03</pdfrwt>
<pdfrwt beam="1">  1       -3 0.27610855E-01 0.15986021E+03</pdfrwt>
<totfact> 0.57519320E+02</totfact>
</mgrwt>
</event>
<event>
 7    1  0.5206756E-006  0.1895471E+03  0.7546771E-02  0.1163742E+00
         -2   -1    0    0    0  501 -0.00000000000E+00  0.00000000000E+00  0.79853674311E+02  0.79853674311E+02  0.00000000000E+00 0.  1.
          2   -1    0    0  501    0  0.00000000000E+00 -0.00000000000E+00 -0.56923595328E+03  0.56923595328E+03  0.00000000000E+00 0. -1.
         23    2    1    2    0    0  0.12580467492E+03 -0.66900629959E+02 -0.42962529095E+03  0.46958064268E+03  0.12500231533E+03 0.  0.
          5    1    3    3  502    0  0.64361616022E+02 -0.74724141659E+02 -0.37189825629E+03  0.38478112999E+03  0.47000000000E+01 0. -1.
         -5    1    3    3    0  502  0.61443058902E+02  0.78235117006E+01 -0.57727034659E+02  0.84799512694E+02  0.47000000000E+01 0. -1.
        -11    1    1    2    0    0 -0.63814356220E+02  0.33905572376E+01  0.12438845615E+02  0.65103708177E+02  0.00000000000E+00 0.  1.
         11    1    1    2    0    0 -0.61990318704E+02  0.63510072721E+02 -0.72195833639E+02  0.11440527674E+03  0.00000000000E+00 0. -1.
<mgrwt>
<rscale>  0 0.18426093E+03</rscale>
<asrwt>0</asrwt>
<pdfrwt beam="2">  1        2 0.87574762E-01 0.18954706E+03</pdfrwt>
<pdfrwt beam="1">  1       -2 0.12285181E-01 0.18954706E+03</pdfrwt>
<totfact> 0.25243894E+03</totfact>
</mgrwt>
</event>
<event>
 6    1  0.5206756E-006  0.1712973E+03  0.7546771E-02  0.1199399E+00
          3   -1    0    0  501    0  0.00000000000E+00  0.00000000000E+00  0.46261904717E+03  0.46261904717E+03  0.00000000000E+00 0. -1.
         -3   -1    0    0    0  501 -0.00000000000E+00 -0.00000000000E+00 -0.47017587866E+02  0.47017587866E+02  0.00000000000E+00 0.  1.
          5    1    1    2  502    0  0.23784881286E+02 -0.91834645247E+02  0.26399114938E+03  0.28055790774E+03  0.47000000000E+01 0. -1.
         -5    1    1    2    0  502 -0.44318965119E+02  0.48566839668E+02  0.79468575965E+02  0.10324850193E+03  0.47000000000E+01 0.  1.
        -11    1    1    2    0    0  0.37114758157E+02  0.60497971610E+02  0.73114470675E+02  0.10189816320E+03  0.00000000000E+00 0.  1.
         11    1    1    2    0    0 -0.16580674323E+02 -0.17230166031E+02 -0.97273672032E+00  0.23932062160E+02  0.00000000000E+00 0. -1.
<mgrwt>
<rscale>  0 0.15087718E+03</rscale>
<asrwt>0</asrwt>
<pdfrwt beam="1">  1        3 0.71172158E-01 0.17129734E+03</pdfrwt>
<pdfrwt beam="2">  1       -3 0.72334754E-02 0.17129734E+03</pdfrwt>
<totfact> 0.57877102E+02</totfact>
</mgrwt>
</event>
<event>
 7    1  0.5206756E-006  0.2134449E+03  0.7546771E-02  0.1142826E+00
          1   -1    0    0  501    0  0.00000000000E+00  0.00000000000E+00  0.32778766408E+03  0.32778766408E+03  0.00000000000E+00 0. -1.
         -1   -1    0    0    0  501 -0.00000000000E+00 -0.00000000000E+00 -0.14402477937E+03  0.14402477937E+03  0.00000000000E+00 0.  1.
         23    2    1    2    0    0 -0.11566131552E+03 -0.12867768450E+03  0.17761882185E+03  0.27768176298E+03  0.12499291670E+03 0.  0.
          5    1    3    3  502    0 -0.79744668908E+02 -0.13314310424E+03  0.82552289321E+02  0.17585013193E+03  0.47000000000E+01 0.  1.
         -5    1    3    3    0  502 -0.35916646607E+02  0.44654197443E+01  0.95066532529E+02  0.10183163106E+03  0.47000000000E+01 0.  1.
        -11    1    1    2    0    0  0.71893873403E+02  0.45040898120E+02  0.40067924602E+02  0.93823505148E+02  0.00000000000E+00 0.  1.
         11    1    1    2    0    0  0.43767442112E+02  0.83636786377E+02 -0.33923861739E+02  0.10030717532E+03  0.00000000000E+00 0. -1.
<mgrwt>
<rscale>  0 0.20841714E+03</rscale>
<asrwt>0</asrwt>
<pdfrwt beam="1">  1        1 0.50428871E-01 0.21344488E+03</pdfrwt>
<pdfrwt beam="2">  1       -1 0.22157659E-01 0.21344488E+03</pdfrwt>
<totfact> 0.13280252E+03</totfact>
</mgrwt>
</event>
<event>
 7    1  0.5206756E-006  0.4659765E+03  0.7546771E-02  0.1023608E+00
         -2   -1    0    0    0  501 -0.00000000000E+00  0.00000000000E+00  0.67459032426E+03  0.67459032426E+03  0.00000000000E+00 0.  1.
          2   -1    0    0  501    0  0.00000000000E+00 -0.00000000000E+00 -0.61009449709E+03  0.61009449709E+03  0.00000000000E+00 0. -1.
         23    2    1    2    0    0  0.73974895629E+02 -0.44276023560E+03 -0.41308542737E+03  0.62271475485E+03  0.12500073674E+03 0.  0.
          5    1    3    3  502    0  0.10346392320E+03 -0.24750687315E+03 -0.23010117257E+03  0.35345873208E+03  0.47000000000E+01 0.  1.
         -5    1    3    3    0  502 -0.29489027568E+02 -0.19525336245E+03 -0.18298425480E+03  0.26925602277E+03  0.47000000000E+01 0.  1.
        -11    1    1    2    0    0 -0.55426994618E+01  0.28848917160E+03  0.32294625659E+03  0.43307159719E+03  0.00000000000E+00 0.  1.
         11    1    1    2    0    0 -0.68432196167E+02  0.15427106400E+03  0.15463499795E+03  0.22889846931E+03  0.00000000000E+00 0. -1.
<mgrwt>
<rscale>  0 0.46406794E+03</rscale>
<asrwt>0</asrwt>
<pdfrwt beam="2">  1        2 0.93860692E-01 0.46597650E+03</pdfrwt>
<pdfrwt beam="1">  1       -2 0.10378313E+00 0.46597650E+03</pdfrwt>
<totfact> 0.38238328E+01</totfact>
</mgrwt>
</event>
<event>
 7    1  0.5206756E-006  0.1322354E+03  0.7546771E-02  0.1236923E+00
         -1   -1    0    0    0  501 -0.00000000000E+00  0.00000000000E+00  0.18099733650E+03  0.18099733650E+03  0.00000000000E+00 0.  1.
          1   -1    0    0  501    0  0.00000000000E+00 -0.00000000000E+00 -0.79339624435E+02  0.79339624435E+02  0.00000000000E+00 0. -1.
         23    2    1    2    0    0 -0.52967696475E+01 -0.42822303809E+02  0.28986813735E+02  0.13537513758E+03  0.12499754811E+03 0.  0.
          5    1    3    3  502    0 -0.57764510778E+02 -0.45007091882E+02  0.36777473988E+02  0.82079532273E+02  0.47000000000E+01 0. -1.
         -5    1    3    3    0  502  0.52467741131E+02  0.21847880737E+01 -0.77906602529E+01  0.53295605311E+02  0.47000000000E+01 0. -1.
        -11    1    1    2    0    0  0.48491462804E+02  0.17737838652E+02  0.39325075822E+02  0.64903886427E+02  0.00000000000E+00 0.  1.
         11    1    1    2    0    0 -0.43194693156E+02  0.25084465157E+02  0.33345822511E+02  0.60057936928E+02  0.00000000000E+00 0. -1.
<mgrwt>
<rscale>  0 0.12382159E+03</rscale>
<asrwt>0</asrwt>
<pdfrwt beam="2">  1        1 0.12206096E-01 0.13223537E+03</pdfrwt>
<pdfrwt beam="1">  1       -1 0.27845744E-01 0.13223537E+03</pdfrwt>
<totfact> 0.54108015E+03</totfact>
</mgrwt>
</event>
<event>
 7    1  0.5206756E-006  0.1572946E+03  0.7546771E-02  0.1199757E+00
          2   -1    0    0  501    0  0.00000000000E+00  0.00000000000E+00  0.60846549040E+03  0.60846549040E+03  0.00000000000E+00 0. -1.
         -2   -1    0    0    0  501 -0.00000000000E+00 -0.00000000000E+00 -0.35397940235E+02  0.35397940235E+02  0.00000000000E+00 0.  1.
         23    2    1    2    0    0 -0.73842970486E+02 -0.60533132899E+02  0.25732373480E+03  0.30159094322E+03  0.12499819227E+03 0.  0.
          5    1    3    3  502    0  0.46388529116E+01 -0.11875985774E+02 -0.11190607937E+02  0.17603343445E+02  0.47000000000E+01 0.  1.
         -5    1    3    3    0  502 -0.78481823398E+02 -0.48657147125E+02  0.26851434273E+03  0.28398759977E+03  0.47000000000E+01 0.  1.
        -11    1    1    2    0    0  0.87992555586E+02  0.66109364497E+02  0.30320217428E+03  0.32255960132E+03  0.00000000000E+00 0. -1.
         11    1    1    2    0    0 -0.14149585100E+02 -0.55762315987E+01  0.12541641089E+02  0.19712886104E+02  0.00000000000E+00 0.  1.
<mgrwt>
<rscale>  0 0.15058419E+03</rscale>
<asrwt>0</asrwt>
<pdfrwt beam="1">  1        2 0.93610068E-01 0.15729460E+03</pdfrwt>
<pdfrwt beam="2">  1       -2 0.54458374E-02 0.15729460E+03</pdfrwt>
<totfact> 0.82457691E+03</totfact>
</mgrwt>
</event>
<event>
 7    1  0.5206756E-006  0.3402677E+03  0.7546771E-02  0.1067750E+00
         -1   -1    0    0    0  501 -0.00000000000E+00  0.00000000000E+00  0.11116171474E+03  0.11116171474E+03  0.00000000000E+00 0.  1.
          1   -1    0    0  501    0  0.00000000000E+00 -0.00000000000E+00 -0.11132556870E+04  0.11132556870E+04  0.00000000000E+00 0. -1.
         23    2    1    2    0    0 -0.14651989680E+03 -0.28051612102E+03 -0.32272082799E+03  0.46896788134E+03  0.12499906642E+03 0.  0.
          5    1    3    3  502    0 -0.34127714121E+02 -0.33728442867E+02 -0.12311273741E+03  0.13221628055E+03  0.47000000000E+01 0. -1.
         -5    1    3    3    0  502 -0.11239218268E+03 -0.24678767815E+03 -0.19960809058E+03  0.33675160080E+03  0.47000000000E+01 0. -1.
        -11    1    1    2    0    0  0.88654150040E+02  0.24556365250E+03 -0.50648023594E+03  0.56980987632E+03  0.00000000000E+00 0.  1.
         11    1    1    2    0    0  0.57865746759E+02  0.34952468516E+02 -0.17289290832E+03  0.18563964407E+03  0.00000000000E+00 0. -1.
<mgrwt>
<rscale>  0 0.33777041E+03</rscale>
<asrwt>0</asrwt>
<pdfrwt beam="2">  1        1 0.17127011E+00 0.34026775E+03</pdfrwt>
<pdfrwt beam="1">  1       -1 0.17101802E-01 0.34026775E+03</pdfrwt>
<totfact> 0.34272930E+02</totfact>
</mgrwt>
</event>
<event>
 7    1  0.5206756E-006  0.1688294E+03  0.7546771E-02  0.1185364E+00
          2   -1    0    0  501    0  0.00000000000E+00  0.00000000000E+00  0.81233083330E+03  0.81233083330E+03  0.00000000000E+00 0. -1.
         -2   -1    0    0    0  501 -0.00000000000E+00 -0.00000000000E+00 -0.40039370262E+02  0.40039370262E+02  0.00000000000E+00 0.  1.
         23    2    1    2    0    0 -0.10800513697E+03  0.34833317120E+02  0.61312949673E+03  0.63594901918E+03  0.12499962254E+03 0.  0.
          5    1    3    3  502    0 -0.11212156010E+03 -0.13690709492E+02  0.50123533324E+03  0.51382645811E+03  0.47000000000E+01 0.  1.
         -5    1    3    3    0  502  0.41164231260E+01  0.48524026612E+02  0.11189416349E+03  0.12212256107E+03  0.47000000000E+01 0.  1.
        -11    1    1    2    0    0  0.48273769432E+02  0.25134858312E+02  0.30424785953E+02  0.62352109169E+02  0.00000000000E+00 0.  1.
         11    1    1    2    0    0  0.59731367541E+02 -0.59968175432E+02  0.12873718035E+03  0.15406907521E+03  0.00000000000E+00 0. -1.
<mgrwt>
<rscale>  0 0.16298778E+03</rscale>
<asrwt>0</asrwt>
<pdfrwt beam="1">  1        2 0.12497396E+00 0.16882943E+03</pdfrwt>
<pdfrwt beam="2">  1       -2 0.61599037E-02 0.16882943E+03</pdfrwt>
<totfact> 0.48496464E+03</totfact>
</mgrwt>
</event>
<event>
 7    1  0.5206756E-006  0.1330359E+03  0.7546771E-02  0.1236418E+00
         -2   -1    0    0    0  501 -0.00000000000E+00  0.00000000000E+00  0.10391797480E+02  0.10391797480E+02  0.00000000000E+00 0.  1.
          2   -1    0    0  501    0  0.00000000000E+00 -0.00000000000E+00 -0.15868838147E+04  0.15868838147E+04  0.00000000000E+00 0. -1.
         23    2    1    2    0    0  0.28222339650E+02  0.35823617167E+02 -0.12053963787E+04  0.12127155416E+04  0.12497488999E+03 0.  0.
          5    1    3    3  502    0  0.11284171727E+02 -0.46837160012E+02 -0.46414753230E+03  0.46666484100E+03  0.47000000000E+01 0.  1.
         -5    1    3    3    0  502  0.16938167923E+02  0.82660777179E+02 -0.74124884636E+03  0.74605070058E+03  0.47000000000E+01 0.  1.
        -11    1    1    2    0    0 -0.47524980704E+02  0.11414794418E+02 -0.20811108139E+03  0.21377358004E+03  0.00000000000E+00 0.  1.
         11    1    1    2    0    0  0.19302641054E+02 -0.47238411585E+02 -0.16298455716E+03  0.17078649055E+03  0.00000000000E+00 0. -1.
<mgrwt>
<rscale>  0 0.12414113E+03</rscale>
<asrwt>0</asrwt>
<pdfrwt beam="2">  1        2 0.24413607E+00 0.13303592E+03</pdfrwt>
<pdfrwt beam="1">  1       -2 0.15987375E-02 0.13303592E+03</pdfrwt>
<totfact> 0.12804027E+04</totfact>
</mgrwt>
</event>
<event>
 7    1  0.5206756E-006  0.1356440E+03  0.7546771E-02  0.1233676E+00
         -2   -1    0    0    0  501 -0.00000000000E+00  0.00000000000E+00  0.53085402934E+02  0.53085402934E+02  0.00000000000E+00 0.  1.
          2   -1    0    0  501    0  0.00000000000E+00 -0.00000000000E+00 -0.34605012813E+03  0.34605012813E+03  0.00000000000E+00 0. -1.
         23    2    1    2    0    0  0.15140837002E+02  0.50451809234E+02 -0.25993433567E+03  0.29319813062E+03  0.12499861974E+03 0.  0.
          5    1    3    3  502    0 -0.34555729506E+02 -0.23591550926E+02 -0.12026125416E+03  0.12741867591E+03  0.47000000000E+01 0. -1.
         -5    1    3    3    0  502  0.49696566508E+02  0.74043360160E+02 -0.13967308150E+03  0.16577945471E+03  0.47000000000E+01 0. -1.
        -11    1    1    2    0    0 -0.46603854088E+02 -0.22790357515E+02  0.11170697729E+01  0.51889955255E+02  0.00000000000E+00 0.  1.
         11    1    1    2    0    0  0.31463017086E+02 -0.27661451719E+02 -0.34147459305E+02  0.54047445197E+02  0.00000000000E+00 0. -1.
<mgrwt>
<rscale>  0 0.12589567E+03</rscale>
<asrwt>0</asrwt>
<pdfrwt beam="2">  1        2 0.53238481E-01 0.13564396E+03</pdfrwt>
<pdfrwt beam="1">  1       -2 0.81669850E-02 0.13564396E+03</pdfrwt>
<totfact> 0.81464154E+03</totfact>
</mgrwt>
</event>
<event>
 7    1  0.5206756E-006  0.1327499E+03  0.7546771E-02  0.1236723E+00
          1   -1    0    0  501    0  0.00000000000E+00  0.00000000000E+00  0.44386198631E+03  0.44386198631E+03  0.00000000000E+00 0. -1.
         -1   -1    0    0    0  501 -0.00000000000E+00 -0.00000000000E+00 -0.30818188486E+02  0.30818188486E+02  0.00000000000E+00 0.  1.
         23    2    1    2    0    0  0.13394041817E+02  0.41304433652E+02  0.22323004512E+03  0.25971944141E+03  0.12544751337E+03 0.  0.
          5    1    3    3  502    0  0.39249085893E+02 -0.31129527691E+02  0.54196886070E+02  0.73952219016E+02  0.47000000000E+01 0. -1.
         -5    1    3    3    0  502 -0.25855044076E+02  0.72433961342E+02  0.16903315905E+03  0.18576722240E+03  0.47000000000E+01 0. -1.
        -11    1    1    2    0    0 -0.90860462881E+01 -0.54862198153E+01 -0.83719168421E+01  0.13518277872E+02  0.00000000000E+00 0.  1.
         11    1    1    2    0    0 -0.43079955289E+01 -0.35818213836E+02  0.19818566955E+03  0.20144245551E+03  0.00000000000E+00 0. -1.
<mgrwt>
<rscale>  0 0.12394757E+03</rscale>
<asrwt>0</asrwt>
<pdfrwt beam="1">  1        1 0.68286455E-01 0.13274990E+03</pdfrwt>
<pdfrwt beam="2">  1       -1 0.47412601E-02 0.13274990E+03</pdfrwt>
<totfact> 0.95775822E+03</totfact>
</mgrwt>
</event>
<event>
 7    1  0.5206756E-006  0.1259034E+03  0.7546771E-02  0.1248831E+00
         -2   -1    0    0    0  501 -0.00000000000E+00  0.00000000000E+00  0.13467987124E+02  0.13467987124E+02  0.00000000000E+00 0.  1.
          2   -1    0    0  501    0  0.00000000000E+00 -0.00000000000E+00 -0.95886936051E+03  0.95886936051E+03  0.00000000000E+00 0. -1.
         23    2    1    2    0    0 -0.63588249681E+00  0.15015149562E+02 -0.67179339492E+03  0.68348959304E+03  0.12500319706E+03 0.  0.
          5    1    3    3  502    0 -0.11389339387E+00  0.55869813335E+02 -0.58236092860E+03  0.58505366435E+03  0.47000000000E+01 0. -1.
         -5    1    3    3    0  502 -0.52198910295E+00 -0.40854663773E+02 -0.89432466323E+02  0.98435928691E+02  0.47000000000E+01 0. -1.
        -11    1    1    2    0    0  0.23246715124E+02  0.32480476622E+02 -0.11400288857E+03  0.12079755679E+03  0.00000000000E+00 0. -1.
         11    1    1    2    0    0 -0.22610832628E+02 -0.47495626183E+02 -0.15960508989E+03  0.16805019779E+03  0.00000000000E+00 0.  1.
<mgrwt>
<rscale>  0 0.11659002E+03</rscale>
<asrwt>0</asrwt>
<pdfrwt beam="2">  1        2 0.14751840E+00 0.12590337E+03</pdfrwt>
<pdfrwt beam="1">  1       -2 0.20719975E-02 0.12590337E+03</pdfrwt>
<totfact> 0.19370394E+04</totfact>
</mgrwt>
</event>
<event>
 7    1  0.5206756E-006  0.1705246E+03  0.7546771E-02  0.1183993E+00
         -2   -1    0    0    0  501 -0.00000000000E+00  0.00000000000E+00  0.57114422706E+02  0.57114422706E+02  0.00000000000E+00 0.  1.
          2   -1    0    0  501    0  0.00000000000E+00 -0.00000000000E+00 -0.48771116089E+03  0.48771116089E+03  0.00000000000E+00 0. -1.
         23    2    1    2    0    0  0.34797402509E+02 -0.11064303926E+03 -0.31435160981E+03  0.35762489189E+03  0.12500354934E+03 0.  0.
          5    1    3    3  502    0  0.10957495776E+02 -0.61846065725E+02 -0.33126059994E+02  0.71164797549E+02  0.47000000000E+01 0.  1.
         -5    1    3    3    0  502  0.23839906733E+02 -0.48796973537E+02 -0.28122554982E+03  0.28646009434E+03  0.47000000000E+01 0.  1.
        -11    1    1    2    0    0 -0.52644503322E+02  0.23718283117E+02 -0.51270086340E+02  0.77218018865E+02  0.00000000000E+00 0.  1.
         11    1    1    2    0    0  0.17847100812E+02  0.86924756145E+02 -0.64975042027E+02  0.10998267284E+03  0.00000000000E+00 0. -1.
<mgrwt>
<rscale>  0 0.16423801E+03</rscale>
<asrwt>0</asrwt>
<pdfrwt beam="2">  1        2 0.75032487E-01 0.17052457E+03</pdfrwt>
<pdfrwt beam="1">  1       -2 0.87868342E-02 0.17052457E+03</pdfrwt>
<totfact> 0.50891684E+03</totfact>
</mgrwt>
</event>
<event>
 7    1  0.5206756E-006  0.1709423E+03  0.7546771E-02  0.1183263E+00
         -3   -1    0    0    0  501 -0.00000000000E+00  0.00000000000E+00  0.52303721547E+02  0.52303721547E+02  0.00000000000E+00 0.  1.
          3   -1    0    0  501    0  0.00000000000E+00 -0.00000000000E+00 -0.48720625758E+03  0.48720625758E+03  0.00000000000E+00 0. -1.
         23    2    1    2    0    0 -0.33079066590E+01  0.11655598827E+03 -0.24396445993E+03  0.29789246695E+03  0.12500009403E+03 0.  0.
          5    1    3    3  502    0  0.35620562589E+02  0.34710555336E+02 -0.18015089600E+03  0.18694941150E+03  0.47000000000E+01 0. -1.
         -5    1    3    3    0  502 -0.38928469248E+02  0.81845432935E+02 -0.63813563931E+02  0.11094305545E+03  0.47000000000E+01 0. -1.
        -11    1    1    2    0    0  0.41932405419E+02 -0.30655537681E+02 -0.49943181435E+02  0.72058379018E+02  0.00000000000E+00 0.  1.
         11    1    1    2    0    0 -0.38624498760E+02 -0.85900450590E+02 -0.14099489467E+03  0.16955913316E+03  0.00000000000E+00 0. -1.
<mgrwt>
<rscale>  0 0.16490975E+03</rscale>
<asrwt>0</asrwt>
<pdfrwt beam="2">  1        3 0.74954811E-01 0.17094228E+03</pdfrwt>
<pdfrwt beam="1">  1       -3 0.80467262E-02 0.17094228E+03</pdfrwt>
<totfact> 0.43531550E+02</totfact>
</mgrwt>
</event>
<event>
 7    1  0.5206756E-006  0.1647666E+03  0.7546771E-02  0.1190335E+00
         -3   -1    0    0    0  501 -0.00000000000E+00  0.00000000000E+00  0.36811361992E+03  0.36811361992E+03  0.00000000000E+00 0.  1.
          3   -1    0    0  501    0  0.00000000000E+00 -0.00000000000E+00 -0.63744848232E+02  0.63744848232E+02  0.00000000000E+00 0. -1.
         23    2    1    2    0    0  0.29531641011E+02  0.10319892839E+03  0.15428871077E+03  0.22572776662E+03  0.12500352678E+03 0.  0.
          5    1    3    3  502    0  0.56347336620E+02  0.82072310685E+01  0.93910539919E+02  0.10992570443E+03  0.47000000000E+01 0.  1.
         -5    1    3    3    0  502 -0.26815695609E+02  0.94991697326E+02  0.60378170852E+02  0.11580206219E+03  0.47000000000E+01 0.  1.
        -11    1    1    2    0    0  0.99517246655E+01 -0.20541854339E+01 -0.89692613304E+01  0.13553750419E+02  0.00000000000E+00 0. -1.
         11    1    1    2    0    0 -0.39483365676E+02 -0.10114474296E+03  0.15904932224E+03  0.19257695111E+03  0.00000000000E+00 0.  1.
<mgrwt>
<rscale>  0 0.15855785E+03</rscale>
<asrwt>0</asrwt>
<pdfrwt beam="2">  1        3 0.98069000E-02 0.16476656E+03</pdfrwt>
<pdfrwt beam="1">  1       -3 0.56632863E-01 0.16476656E+03</pdfrwt>
<totfact> 0.56284256E+02</totfact>
</mgrwt>
</event>
<event>
 7    1  0.5206756E-006  0.1404917E+03  0.7546771E-02  0.1218817E+00
          1   -1    0    0  501    0  0.00000000000E+00  0.00000000000E+00  0.33397103951E+02  0.33397103951E+02  0.00000000000E+00 0. -1.
         -1   -1    0    0    0  501 -0.00000000000E+00 -0.00000000000E+00 -0.53049215858E+03  0.53049215858E+03  0.00000000000E+00 0.  1.
         23    2    1    2    0    0  0.23047351563E+02  0.79811865205E+02 -0.22704934847E+03  0.26700059731E+03  0.11329959436E+03 0.  0.
          5    1    3    3  502    0  0.15165430030E+02  0.10764488629E+03 -0.15652624243E+03  0.19063044453E+03  0.47000000000E+01 0. -1.
         -5    1    3    3    0  502  0.78819215331E+01 -0.27833021087E+02 -0.70523106038E+02  0.76370152777E+02  0.47000000000E+01 0.  1.
        -11    1    1    2    0    0  0.36736471632E+01  0.14579538950E+02 -0.78912988454E+01  0.16980319106E+02  0.00000000000E+00 0. -1.
         11    1    1    2    0    0 -0.26720998726E+02 -0.94391404155E+02 -0.26215440731E+03  0.27990834611E+03  0.00000000000E+00 0.  1.
<mgrwt>
<rscale>  0 0.13599826E+03</rscale>
<asrwt>0</asrwt>
<pdfrwt beam="1">  1        1 0.51380161E-02 0.14049168E+03</pdfrwt>
<pdfrwt beam="2">  1       -1 0.81614177E-01 0.14049168E+03</pdfrwt>
<totfact> 0.24305711E+03</totfact>
</mgrwt>
</event>
<event>
 6    1  0.5206756E-006  0.2056253E+03  0.7546771E-02  0.1165690E+00
         -1   -1    0    0    0  501 -0.00000000000E+00  0.00000000000E+00  0.30388445686E+02  0.30388445686E+02  0.00000000000E+00 0.  1.
          1   -1    0    0  501    0  0.00000000000E+00 -0.00000000000E+00 -0.15730025990E+04  0.15730025990E+04  0.00000000000E+00 0. -1.
          5    1    1    2  502    0 -0.46333352659E+02 -0.78286505766E+02 -0.96587824508E+03  0.97016412574E+03  0.47000000000E+01 0. -1.
         -5    1    1    2    0  502 -0.40745178282E+02  0.87316039325E+02 -0.42354988736E+03  0.43439711942E+03  0.47000000000E+01 0.  1.
        -11    1    1    2    0    0  0.58126483564E+02 -0.10859423812E+02 -0.19850807724E+02  0.62375233421E+02  0.00000000000E+00 0.  1.
         11    1    1    2    0    0  0.28952047377E+02  0.18298902527E+01 -0.13333521315E+03  0.13645456611E+03  0.00000000000E+00 0. -1.
<mgrwt>
<rscale>  0 0.18220083E+03</rscale>
<asrwt>0</asrwt>
<pdfrwt beam="2">  1        1 0.24200041E+00 0.20562528E+03</pdfrwt>
<pdfrwt beam="1">  1       -1 0.46751452E-02 0.20562528E+03</pdfrwt>
<totfact> 0.12513504E+03</totfact>
</mgrwt>
</event>
<event>
 7    1  0.5206756E-006  0.1608627E+03  0.7546771E-02  0.1195925E+00
         -2   -1    0    0    0  501 -0.00000000000E+00  0.00000000000E+00  0.25433884055E+03  0.25433884055E+03  0.00000000000E+00 0.  1.
          2   -1    0    0  501    0  0.00000000000E+00 -0.00000000000E+00 -0.12040689357E+03  0.12040689357E+03  0.00000000000E+00 0. -1.
         23    2    1    2    0    0  0.45921195637E+02  0.90239302657E+02 -0.29158626932E+02  0.16348407449E+03  0.12499971654E+03 0.  0.
          5    1    3    3  502    0 -0.27573353481E+02  0.22946188009E+01 -0.39340987749E+02  0.48325546192E+02  0.47000000000E+01 0.  1.
         -5    1    3    3    0  502  0.73494549119E+02  0.87944683856E+02  0.10182360816E+02  0.11515852830E+03  0.47000000000E+01 0.  1.
        -11    1    1    2    0    0  0.39704493741E+01 -0.19200517180E+02  0.10498793323E+03  0.10680304514E+03  0.00000000000E+00 0.  1.
         11    1    1    2    0    0 -0.49891645011E+02 -0.71038785477E+02  0.58102640689E+02  0.10445861448E+03  0.00000000000E+00 0. -1.
<mgrwt>
<rscale>  0 0.15376232E+03</rscale>
<asrwt>0</asrwt>
<pdfrwt beam="2">  1        2 0.18524138E-01 0.16086273E+03</pdfrwt>
<pdfrwt beam="1">  1       -2 0.39129052E-01 0.16086273E+03</pdfrwt>
<totfact> 0.18472934E+03</totfact>
</mgrwt>
</event>
<event>
 7    1  0.5206756E-006  0.1432759E+03  0.7546771E-02  0.1219309E+00
         -1   -1    0    0    0  501 -0.00000000000E+00  0.00000000000E+00  0.12196278548E+03  0.12196278548E+03  0.00000000000E+00 0.  1.
          1   -1    0    0  501    0  0.00000000000E+00 -0.00000000000E+00 -0.14604904695E+03  0.14604904695E+03  0.00000000000E+00 0. -1.
         23    2    1    2    0    0  0.22897649583E+02 -0.66172384104E+02 -0.46710838391E+02  0.15069800609E+03  0.12499959937E+03 0.  0.
          5    1    3    3  502    0  0.22164736737E+02  0.31131099637E+02 -0.35964598443E+02  0.52687410834E+02  0.47000000000E+01 0. -1.
         -5    1    3    3    0  502  0.73291284586E+00 -0.97303483741E+02 -0.10746239948E+02  0.98010595256E+02  0.47000000000E+01 0. -1.
        -11    1    1    2    0    0 -0.44339315064E+02  0.14108355831E+01  0.20986342472E+02  0.49075369461E+02  0.00000000000E+00 0. -1.
         11    1    1    2    0    0  0.21441665481E+02  0.64761548521E+02  0.16382344519E+01  0.68238456881E+02  0.00000000000E+00 0.  1.
<mgrwt>
<rscale>  0 0.13564681E+03</rscale>
<asrwt>0</asrwt>
<pdfrwt beam="2">  1        1 0.22469084E-01 0.14327591E+03</pdfrwt>
<pdfrwt beam="1">  1       -1 0.18763505E-01 0.14327591E+03</pdfrwt>
<totfact> 0.47161814E+03</totfact>
</mgrwt>
</event>
<event>
 7    1  0.5206756E-006  0.1286418E+03  0.7546771E-02  0.1249796E+00
          1   -1    0    0  501    0  0.00000000000E+00  0.00000000000E+00  0.52013501139E+02  0.52013501139E+02  0.00000000000E+00 0. -1.
         -1   -1    0    0    0  501 -0.00000000000E+00 -0.00000000000E+00 -0.24278800528E+03  0.24278800528E+03  0.00000000000E+00 0.  1.
         23    2    1    2    0    0  0.26324561996E+02 -0.15221934194E+02 -0.68315372027E+02  0.14565610017E+03  0.12499607840E+03 0.  0.
          5    1    3    3  502    0  0.88625159771E+01  0.55082556084E+02 -0.27540613695E+02  0.62395573376E+02  0.47000000000E+01 0. -1.
         -5    1    3    3    0  502  0.17462046019E+02 -0.70304490278E+02 -0.40774758333E+02  0.83260526791E+02  0.47000000000E+01 0. -1.
        -11    1    1    2    0    0 -0.36301482973E+02 -0.19065990032E+02 -0.96937204702E+02  0.10525270209E+03  0.00000000000E+00 0.  1.
         11    1    1    2    0    0  0.99769209766E+01  0.34287924226E+02 -0.25521927416E+02  0.43892704165E+02  0.00000000000E+00 0. -1.
<mgrwt>
<rscale>  0 0.11602850E+03</rscale>
<asrwt>0</asrwt>
<pdfrwt beam="1">  1        1 0.80020771E-02 0.12864179E+03</pdfrwt>
<pdfrwt beam="2">  1       -1 0.37352001E-01 0.12864179E+03</pdfrwt>
<totfact> 0.57427549E+03</totfact>
</mgrwt>
</event>
<event>
 7    1  0.5206756E-006  0.1259442E+03  0.7546771E-02  0.1248920E+00
         -1   -1    0    0    0  501 -0.00000000000E+00  0.00000000000E+00  0.12349992076E+03  0.12349992076E+03  0.00000000000E+00 0.  1.
          1   -1    0    0  501    0  0.00000000000E+00 -0.00000000000E+00 -0.11322646607E+03  0.11322646607E+03  0.00000000000E+00 0. -1.
         23    2    1    2    0    0 -0.14896031099E+02 -0.54051057536E+01 -0.39296464347E+02  0.13193242350E+03  0.12494336857E+03 0.  0.
          5    1    3    3  502    0 -0.37772257467E+02  0.50219491285E+02 -0.33393750535E+02  0.71316010221E+02  0.47000000000E+01 0. -1.
         -5    1    3    3    0  502  0.22876226368E+02 -0.55624597038E+02 -0.59027138126E+01  0.60616413280E+02  0.47000000000E+01 0. -1.
        -11    1    1    2    0    0 -0.68867191045E+01  0.13721920655E+02 -0.23513029305E+02  0.28081676473E+02  0.00000000000E+00 0. -1.
         11    1    1    2    0    0  0.21782750204E+02 -0.83168149009E+01  0.73082948343E+02  0.76712286859E+02  0.00000000000E+00 0.  1.
<mgrwt>
<rscale>  0 0.11653811E+03</rscale>
<asrwt>0</asrwt>
<pdfrwt beam="2">  1        1 0.17419456E-01 0.12594424E+03</pdfrwt>
<pdfrwt beam="1">  1       -1 0.18999988E-01 0.12594424E+03</pdfrwt>
<totfact> 0.63365018E+03</totfact>
</mgrwt>
</event>
<event>
 7    1  0.5206756E-006  0.1484931E+03  0.7546771E-02  0.1210170E+00
         -1   -1    0    0    0  501 -0.00000000000E+00  0.00000000000E+00  0.28545439564E+02  0.28545439564E+02  0.00000000000E+00 0.  1.
          1   -1    0    0  501    0  0.00000000000E+00 -0.00000000000E+00 -0.75827146271E+03  0.75827146271E+03  0.00000000000E+00 0. -1.
         23    2    1    2    0    0 -0.77938677586E+02  0.18733832946E+02 -0.53445712635E+03  0.55470226907E+03  0.12499917377E+03 0.  0.
          5    1    3    3  502    0 -0.79951643238E+02 -0.27996109755E+02 -0.45105058400E+03  0.45896052853E+03  0.47000000000E+01 0. -1.
         -5    1    3    3    0  502  0.20129656528E+01  0.46729942700E+02 -0.83406542348E+02  0.95741740542E+02  0.47000000000E+01 0. -1.
        -11    1    1    2    0    0  0.46516167397E+02  0.28952953863E+02 -0.43507743294E+02  0.69963927085E+02  0.00000000000E+00 0.  1.
         11    1    1    2    0    0  0.31422510189E+02 -0.47686786809E+02 -0.15176115350E+03  0.16215070612E+03  0.00000000000E+00 0. -1.
<mgrwt>
<rscale>  0 0.14237385E+03</rscale>
<asrwt>0</asrwt>
<pdfrwt beam="2">  1        1 0.11665713E+00 0.14849306E+03</pdfrwt>
<pdfrwt beam="1">  1       -1 0.43916069E-02 0.14849306E+03</pdfrwt>
<totfact> 0.52116745E+03</totfact>
</mgrwt>
</event>
<event>
 7    1  0.5206756E-006  0.1387280E+03  0.7546771E-02  0.1227273E+00
         -2   -1    0    0    0  501 -0.00000000000E+00  0.00000000000E+00  0.80054761865E+02  0.80054761865E+02  0.00000000000E+00 0. -1.
          2   -1    0    0  501    0  0.00000000000E+00 -0.00000000000E+00 -0.41360594619E+03  0.41360594619E+03  0.00000000000E+00 0.  1.
         23    2    1    2    0    0 -0.56285957032E+02  0.21293521979E+02 -0.35764585056E+03  0.38360917496E+03  0.12499568655E+03 0.  0.
          5    1    3    3  502    0  0.30378274602E+02  0.32833984706E+02 -0.72449586569E+02  0.85275686532E+02  0.47000000000E+01 0.  1.
         -5    1    3    3    0  502 -0.86664231634E+02 -0.11540462727E+02 -0.28519626399E+03  0.29833348843E+03  0.47000000000E+01 0.  1.
        -11    1    1    2    0    0  0.47112131222E+02 -0.17069656302E+02 -0.27717528134E+02  0.57264189861E+02  0.00000000000E+00 0.  1.
         11    1    1    2    0    0  0.91738258097E+01 -0.42238656773E+01  0.51812194364E+02  0.52787343237E+02  0.00000000000E+00 0. -1.
<mgrwt>
<rscale>  0 0.13012338E+03</rscale>
<asrwt>0</asrwt>
<pdfrwt beam="2">  1        2 0.63631684E-01 0.13872795E+03</pdfrwt>
<pdfrwt beam="1">  1       -2 0.12316117E-01 0.13872795E+03</pdfrwt>
<totfact> 0.35347152E+03</totfact>
</mgrwt>
</event>
<event>
 7    1  0.5206756E-006  0.1265611E+03  0.7546771E-02  0.1246933E+00
          1   -1    0    0  501    0  0.00000000000E+00  0.00000000000E+00  0.52737391865E+02  0.52737391865E+02  0.00000000000E+00 0. -1.
         -1   -1    0    0    0  501 -0.00000000000E+00 -0.00000000000E+00 -0.25224183972E+03  0.25224183972E+03  0.00000000000E+00 0.  1.
         23    2    1    2    0    0 -0.19685378350E+02 -0.20911090411E+01 -0.70231740238E+02  0.14474186432E+03  0.12500329232E+03 0.  0.
          5    1    3    3  502    0 -0.49568874964E+02 -0.85210013835E+01 -0.93341994184E+02  0.10613434274E+03  0.47000000000E+01 0.  1.
         -5    1    3    3    0  502  0.29883496613E+02  0.64298923424E+01  0.23110253945E+02  0.38607521583E+02  0.47000000000E+01 0.  1.
        -11    1    1    2    0    0  0.32295073213E+02 -0.25801774977E+02 -0.18454034985E+02  0.45268695067E+02  0.00000000000E+00 0. -1.
         11    1    1    2    0    0 -0.12609694863E+02  0.27892884018E+02 -0.11081867263E+03  0.11496867219E+03  0.00000000000E+00 0.  1.
<mgrwt>
<rscale>  0 0.11770405E+03</rscale>
<asrwt>0</asrwt>
<pdfrwt beam="1">  1        1 0.81134448E-02 0.12656109E+03</pdfrwt>
<pdfrwt beam="2">  1       -1 0.38806438E-01 0.12656109E+03</pdfrwt>
<totfact> 0.52697313E+03</totfact>
</mgrwt>
</event>
<event>
 7    1  0.5206756E-006  0.1410478E+03  0.7546771E-02  0.1222510E+00
         -3   -1    0    0    0  501 -0.00000000000E+00  0.00000000000E+00  0.61062877058E+03  0.61062877058E+03  0.00000000000E+00 0.  1.
          3   -1    0    0  501    0  0.00000000000E+00 -0.00000000000E+00 -0.27027172156E+02  0.27027172156E+02  0.00000000000E+00 0. -1.
         23    2    1    2    0    0  0.58087652153E+02  0.29901599507E+02  0.27470673388E+03  0.30880136469E+03  0.12500484875E+03 0.  0.
          5    1    3    3  502    0 -0.30006240302E+02  0.26786789897E+02  0.15415568041E+03  0.15938623019E+03  0.47000000000E+01 0.  1.
         -5    1    3    3    0  502  0.88093892454E+02  0.31148096107E+01  0.12055105347E+03  0.14941513451E+03  0.47000000000E+01 0.  1.
        -11    1    1    2    0    0 -0.52569995276E+02  0.57744373231E+01  0.27252879066E+03  0.27761284241E+03  0.00000000000E+00 0.  1.
         11    1    1    2    0    0 -0.55176568763E+01 -0.35676036830E+02  0.36366073871E+02  0.51241735627E+02  0.00000000000E+00 0. -1.
<mgrwt>
<rscale>  0 0.13339065E+03</rscale>
<asrwt>0</asrwt>
<pdfrwt beam="2">  1        3 0.41580270E-02 0.14104784E+03</pdfrwt>
<pdfrwt beam="1">  1       -3 0.93942877E-01 0.14104784E+03</pdfrwt>
<totfact> 0.74139940E+02</totfact>
</mgrwt>
</event>
<event>
 7    1  0.5206756E-006  0.1364719E+03  0.7546771E-02  0.1228069E+00
         -2   -1    0    0    0  501 -0.00000000000E+00  0.00000000000E+00  0.87044358952E+02  0.87044358952E+02  0.00000000000E+00 0. -1.
          2   -1    0    0  501    0  0.00000000000E+00 -0.00000000000E+00 -0.32812462366E+03  0.32812462366E+03  0.00000000000E+00 0.  1.
         23    2    1    2    0    0 -0.52952311490E+02 -0.13994671083E+02 -0.26822537718E+03  0.30094756213E+03  0.12499913632E+03 0.  0.
          5    1    3    3  502    0 -0.48065194060E+02 -0.17769706600E+02 -0.28117792877E+03  0.28584811173E+03  0.47000000000E+01 0.  1.
         -5    1    3    3    0  502 -0.48871174305E+01  0.37750355168E+01  0.12952551587E+02  0.15099450406E+02  0.47000000000E+01 0.  1.
        -11    1    1    2    0    0  0.41116773096E+02 -0.26227591026E+01 -0.31671607040E+02  0.51966898961E+02  0.00000000000E+00 0.  1.
         11    1    1    2    0    0  0.11835538394E+02  0.16617430185E+02  0.58816719513E+02  0.62254521517E+02  0.00000000000E+00 0. -1.
<mgrwt>
<rscale>  0 0.12958755E+03</rscale>
<asrwt>0</asrwt>
<pdfrwt beam="2">  1        2 0.50480712E-01 0.13647191E+03</pdfrwt>
<pdfrwt beam="1">  1       -2 0.13391440E-01 0.13647191E+03</pdfrwt>
<totfact> 0.39507111E+03</totfact>
</mgrwt>
</event>
<event>
 7    1  0.5206756E-006  0.1983568E+03  0.7546771E-02  0.1155334E+00
         -2   -1    0    0    0  501 -0.00000000000E+00  0.00000000000E+00  0.79935767481E+02  0.79935767481E+02  0.00000000000E+00 0.  1.
          2   -1    0    0  501    0  0.00000000000E+00 -0.00000000000E+00 -0.45913914795E+03  0.45913914795E+03  0.00000000000E+00 0. -1.
         23    2    1    2    0    0  0.15321083286E+03 -0.15601008794E+02 -0.24263581787E+03  0.31339683518E+03  0.12501394084E+03 0.  0.
          5    1    3    3  502    0  0.94145356395E+01 -0.42993040937E+02 -0.98128259841E+02  0.10764887565E+03  0.47000000000E+01 0.  1.
         -5    1    3    3    0  502  0.14379629722E+03  0.27392032143E+02 -0.14450755803E+03  0.20574795952E+03  0.47000000000E+01 0.  1.
        -11    1    1    2    0    0 -0.12597105611E+03 -0.26802241430E+02 -0.90608977272E+02  0.15747080328E+03  0.00000000000E+00 0.  1.
         11    1    1    2    0    0 -0.27239776749E+02  0.42403250225E+02 -0.45958585324E+02  0.68207276972E+02  0.00000000000E+00 0. -1.
<mgrwt>
<rscale>  0 0.19350933E+03</rscale>
<asrwt>0</asrwt>
<pdfrwt beam="2">  1        2 0.70636792E-01 0.19835684E+03</pdfrwt>
<pdfrwt beam="1">  1       -2 0.12297810E-01 0.19835684E+03</pdfrwt>
<totfact> 0.32089042E+03</totfact>
</mgrwt>
</event>
<event>
 6    1  0.5206756E-006  0.1646909E+03  0.7546771E-02  0.1248517E+00
          1   -1    0    0  501    0  0.00000000000E+00  0.00000000000E+00  0.90814542141E+02  0.90814542141E+02  0.00000000000E+00 0. -1.
         -1   -1    0    0    0  501 -0.00000000000E+00 -0.00000000000E+00 -0.11978323837E+03  0.11978323837E+03  0.00000000000E+00 0.  1.
          5    1    1    2  502    0  0.85334538329E+01 -0.92772597122E+02  0.38498784263E+01  0.93362123878E+02  0.47000000000E+01 0. -1.
         -5    1    1    2    0  502 -0.13247375926E+02  0.68804080095E+02 -0.14253089905E+02  0.71657065098E+02  0.47000000000E+01 0.  1.
        -11    1    1    2    0    0 -0.12014961750E+02 -0.98862774800E-02 -0.82508731794E+01  0.14575195087E+02  0.00000000000E+00 0. -1.
         11    1    1    2    0    0  0.16728883843E+02  0.23978403305E+02 -0.10314611576E+02  0.31003396453E+02  0.00000000000E+00 0.  1.
<mgrwt>
<rscale>  0 0.11677333E+03</rscale>
<asrwt>0</asrwt>
<pdfrwt beam="1">  1        1 0.13971468E-01 0.16469094E+03</pdfrwt>
<pdfrwt beam="2">  1       -1 0.18428191E-01 0.16469094E+03</pdfrwt>
<totfact> 0.90247106E+03</totfact>
</mgrwt>
</event>
<event>
 7    1  0.5206756E-006  0.1381134E+03  0.7546771E-02  0.1227460E+00
         -1   -1    0    0    0  501 -0.00000000000E+00  0.00000000000E+00  0.68919767263E+02  0.68919767263E+02  0.00000000000E+00 0.  1.
          1   -1    0    0  501    0  0.00000000000E+00 -0.00000000000E+00 -0.22727339207E+03  0.22727339207E+03  0.00000000000E+00 0. -1.
         23    2    1    2    0    0  0.19555212377E+02 -0.55382965078E+02 -0.11394303138E+03  0.17904841699E+03  0.12500256828E+03 0.  0.
          5    1    3    3  502    0  0.70338714095E+02 -0.13084249591E+02 -0.54975624897E+02  0.90350105814E+02  0.47000000000E+01 0. -1.
         -5    1    3    3    0  502 -0.50783501718E+02 -0.42298715487E+02 -0.58967406482E+02  0.88698311178E+02  0.47000000000E+01 0. -1.
        -11    1    1    2    0    0 -0.37492620999E+01  0.54469694666E+02 -0.68944940006E+02  0.87945490821E+02  0.00000000000E+00 0. -1.
         11    1    1    2    0    0 -0.15805950277E+02  0.91327041167E+00  0.24534346580E+02  0.29199251516E+02  0.00000000000E+00 0.  1.
<mgrwt>
<rscale>  0 0.12999732E+03</rscale>
<asrwt>0</asrwt>
<pdfrwt beam="2">  1        1 0.34965137E-01 0.13811344E+03</pdfrwt>
<pdfrwt beam="1">  1       -1 0.10603041E-01 0.13811344E+03</pdfrwt>
<totfact> 0.66053148E+03</totfact>
</mgrwt>
</event>
<event>
 7    1  0.5206756E-006  0.1673755E+03  0.7546771E-02  0.1187459E+00
         -1   -1    0    0    0  501 -0.00000000000E+00  0.00000000000E+00  0.15752948786E+03  0.15752948786E+03  0.00000000000E+00 0.  1.
          1   -1    0    0  501    0  0.00000000000E+00 -0.00000000000E+00 -0.19198060932E+03  0.19198060932E+03  0.00000000000E+00 0. -1.
         23    2    1    2    0    0 -0.10025519412E+03 -0.48354284037E+02 -0.96306309517E+02  0.19310475595E+03  0.12500120313E+03 0.  0.
          5    1    3    3  502    0 -0.13942065626E+02 -0.74330825984E+02 -0.31859262320E+02  0.82198269330E+02  0.47000000000E+01 0. -1.
         -5    1    3    3    0  502 -0.86313128493E+02  0.25976541946E+02 -0.64447047197E+02  0.11090648662E+03  0.47000000000E+01 0. -1.
        -11    1    1    2    0    0  0.47000545414E+02  0.19862554174E+02 -0.19892888478E+02  0.54765859251E+02  0.00000000000E+00 0. -1.
         11    1    1    2    0    0  0.53254648705E+02  0.28491729863E+02  0.81748076535E+02  0.10163948198E+03  0.00000000000E+00 0.  1.
<mgrwt>
<rscale>  0 0.16110110E+03</rscale>
<asrwt>0</asrwt>
<pdfrwt beam="2">  1        1 0.29535478E-01 0.16737545E+03</pdfrwt>
<pdfrwt beam="1">  1       -1 0.24235306E-01 0.16737545E+03</pdfrwt>
<totfact> 0.22244150E+03</totfact>
</mgrwt>
</event>
<event>
 7    1  0.5206756E-006  0.1717041E+03  0.7546771E-02  0.1182122E+00
          1   -1    0    0  501    0  0.00000000000E+00  0.00000000000E+00  0.70749284397E+02  0.70749284397E+02  0.00000000000E+00 0. -1.
         -1   -1    0    0    0  501 -0.00000000000E+00 -0.00000000000E+00 -0.37082737801E+03  0.37082737801E+03  0.00000000000E+00 0.  1.
         23    2    1    2    0    0  0.10488997548E+02 -0.11724877177E+03 -0.13346987673E+03  0.21747757816E+03  0.12499998182E+03 0.  0.
          5    1    3    3  502    0 -0.73346003763E+01 -0.14064876495E+03 -0.11859901409E+03  0.18418384182E+03  0.47000000000E+01 0. -1.
         -5    1    3    3    0  502  0.17823597924E+02  0.23399993176E+02 -0.14870862639E+02  0.33293736337E+02  0.47000000000E+01 0. -1.
        -11    1    1    2    0    0  0.27314308243E+02  0.91384060226E+02 -0.73777775089E+02  0.12058307508E+03  0.00000000000E+00 0. -1.
         11    1    1    2    0    0 -0.37803305791E+02  0.25864711543E+02 -0.92830441788E+02  0.10351600917E+03  0.00000000000E+00 0.  1.
<mgrwt>
<rscale>  0 0.16596509E+03</rscale>
<asrwt>0</asrwt>
<pdfrwt beam="1">  1        1 0.10884505E-01 0.17170407E+03</pdfrwt>
<pdfrwt beam="2">  1       -1 0.57050366E-01 0.17170407E+03</pdfrwt>
<totfact> 0.18017555E+03</totfact>
</mgrwt>
</event>
<event>
 7    1  0.5206756E-006  0.1348738E+03  0.7546771E-02  0.1228179E+00
         -1   -1    0    0    0  501 -0.00000000000E+00  0.00000000000E+00  0.17932674076E+03  0.17932674076E+03  0.00000000000E+00 0.  1.
          1   -1    0    0  501    0  0.00000000000E+00 -0.00000000000E+00 -0.89845707974E+02  0.89845707974E+02  0.00000000000E+00 0. -1.
         23    2    1    2    0    0 -0.15978436267E+02  0.48060633501E+02  0.23618857503E+02  0.13692621711E+03  0.12500321430E+03 0.  0.
          5    1    3    3  502    0 -0.21763557391E+02  0.49208137724E+02 -0.43521545206E+02  0.69363593806E+02  0.47000000000E+01 0. -1.
         -5    1    3    3    0  502  0.57851211240E+01 -0.11475042223E+01  0.67140402709E+02  0.67562623309E+02  0.47000000000E+01 0. -1.
        -11    1    1    2    0    0  0.14289943654E+02  0.16536627838E+02 -0.16626223405E+02  0.27460769374E+02  0.00000000000E+00 0. -1.
         11    1    1    2    0    0  0.16884926127E+01 -0.64597261340E+02  0.82488398689E+02  0.10478546225E+03  0.00000000000E+00 0.  1.
<mgrwt>
<rscale>  0 0.12951394E+03</rscale>
<asrwt>0</asrwt>
<pdfrwt beam="2">  1        1 0.13822417E-01 0.13487379E+03</pdfrwt>
<pdfrwt beam="1">  1       -1 0.27588729E-01 0.13487379E+03</pdfrwt>
<totfact> 0.46774744E+03</totfact>
</mgrwt>
</event>
<event>
 7    1  0.5206756E-006  0.2445638E+03  0.7546771E-02  0.1119104E+00
          1   -1    0    0  501    0  0.00000000000E+00  0.00000000000E+00  0.36794114121E+03  0.36794114121E+03  0.00000000000E+00 0. -1.
         -1   -1    0    0    0  501 -0.00000000000E+00 -0.00000000000E+00 -0.15377910129E+03  0.15377910129E+03  0.00000000000E+00 0.  1.
         23    2    1    2    0    0 -0.15715599847E+03  0.13960139023E+03  0.99271742719E+02  0.26394375716E+03  0.12499948812E+03 0.  0.
          5    1    3    3  502    0 -0.12503382390E+02  0.16919858502E+02 -0.28106475815E+02  0.35421464759E+02  0.47000000000E+01 0. -1.
         -5    1    3    3    0  502 -0.14465261608E+03  0.12268153173E+03  0.12737821853E+03  0.22852229240E+03  0.47000000000E+01 0. -1.
        -11    1    1    2    0    0  0.16841556288E+03 -0.14014124891E+03  0.11234168927E+03  0.24621946839E+03  0.00000000000E+00 0. -1.
         11    1    1    2    0    0 -0.11259564413E+02  0.53985867979E+00  0.25486079280E+01  0.11557016939E+02  0.00000000000E+00 0.  1.
<mgrwt>
<rscale>  0 0.24103657E+03</rscale>
<asrwt>0</asrwt>
<pdfrwt beam="1">  1        1 0.56606329E-01 0.24456375E+03</pdfrwt>
<pdfrwt beam="2">  1       -1 0.23658323E-01 0.24456375E+03</pdfrwt>
<totfact> 0.10313065E+03</totfact>
</mgrwt>
</event>
<event>
 7    1  0.5206756E-006  0.1269449E+03  0.7546771E-02  0.1248039E+00
         -1   -1    0    0    0  501 -0.00000000000E+00  0.00000000000E+00  0.16360966344E+02  0.16360966344E+02  0.00000000000E+00 0.  1.
          1   -1    0    0  501    0  0.00000000000E+00 -0.00000000000E+00 -0.10071288973E+04  0.10071288973E+04  0.00000000000E+00 0. -1.
         23    2    1    2    0    0 -0.18897364080E+02  0.11788632419E+02 -0.81867542908E+03  0.82845909018E+03  0.12497569243E+03 0.  0.
          5    1    3    3  502    0  0.46820462392E+02  0.31110456340E+02 -0.29983219004E+03  0.30509252429E+03  0.47000000000E+01 0. -1.
         -5    1    3    3    0  502 -0.65717826472E+02 -0.19321823921E+02 -0.51884323904E+03  0.52336656589E+03  0.47000000000E+01 0. -1.
        -11    1    1    2    0    0  0.11668589966E+02 -0.50657806480E+02 -0.90603917783E+02  0.10445783488E+03  0.00000000000E+00 0.  1.
         11    1    1    2    0    0  0.72287741142E+01  0.38869174061E+02 -0.81488584101E+02  0.90572938597E+02  0.00000000000E+00 0. -1.
<mgrwt>
<rscale>  0 0.11705312E+03</rscale>
<asrwt>0</asrwt>
<pdfrwt beam="2">  1        1 0.15494294E+00 0.12694489E+03</pdfrwt>
<pdfrwt beam="1">  1       -1 0.25170713E-02 0.12694489E+03</pdfrwt>
<totfact> 0.74612797E+03</totfact>
</mgrwt>
</event>
<event>
 7    1  0.5206756E-006  0.2524256E+03  0.7546771E-02  0.1114452E+00
         -2   -1    0    0    0  501 -0.00000000000E+00  0.00000000000E+00  0.74635813473E+03  0.74635813473E+03  0.00000000000E+00 0. -1.
          2   -1    0    0  501    0  0.00000000000E+00 -0.00000000000E+00 -0.90071492493E+02  0.90071492493E+02  0.00000000000E+00 0.  1.
         23    2    1    2    0    0  0.20034440469E+03 -0.89197413093E+02  0.19737674292E+03  0.32043137511E+03  0.12499851404E+03 0.  0.
          5    1    3    3  502    0  0.13781477726E+03 -0.68491607309E+02  0.20228263454E+03  0.25421323203E+03  0.47000000000E+01 0.  1.
         -5    1    3    3    0  502  0.62529627434E+02 -0.20705805784E+02 -0.49058916162E+01  0.66218143079E+02  0.47000000000E+01 0.  1.
        -11    1    1    2    0    0 -0.43788975223E+02  0.15272403394E+02  0.35014101944E+02  0.58109448383E+02  0.00000000000E+00 0.  1.
         11    1    1    2    0    0 -0.15655542947E+03  0.73925009699E+02  0.42389579737E+03  0.45788880373E+03  0.00000000000E+00 0. -1.
<mgrwt>
<rscale>  0 0.24819267E+03</rscale>
<asrwt>0</asrwt>
<pdfrwt beam="2">  1        2 0.13857153E-01 0.25242561E+03</pdfrwt>
<pdfrwt beam="1">  1       -2 0.11482432E+00 0.25242561E+03</pdfrwt>
<totfact> 0.26538460E+02</totfact>
</mgrwt>
</event>
<event>
 7    1  0.5206756E-006  0.1401556E+03  0.7546771E-02  0.1228226E+00
         -1   -1    0    0    0  501 -0.00000000000E+00  0.00000000000E+00  0.18426944204E+02  0.18426944204E+02  0.00000000000E+00 0.  1.
          1   -1    0    0  501    0  0.00000000000E+00 -0.00000000000E+00 -0.80513129171E+03  0.80513129171E+03  0.00000000000E+00 0. -1.
         23    2    1    2    0    0 -0.60163426062E+02  0.20411483146E+02 -0.49729299743E+03  0.51666615194E+03  0.12492926314E+03 0.  0.
          5    1    3    3  502    0  0.15923681669E+02 -0.18252262860E+02 -0.30779349506E+03  0.30878088402E+03  0.47000000000E+01 0.  1.
         -5    1    3    3    0  502 -0.76087107731E+02  0.38663746006E+02 -0.18949950237E+03  0.20788526792E+03  0.47000000000E+01 0.  1.
        -11    1    1    2    0    0 -0.10432870009E+02  0.14829569455E+02 -0.24499710515E+02  0.30479447537E+02  0.00000000000E+00 0.  1.
         11    1    1    2    0    0  0.70596296071E+02 -0.35241052601E+02 -0.26491163956E+03  0.27641263644E+03  0.00000000000E+00 0. -1.
<mgrwt>
<rscale>  0 0.12948253E+03</rscale>
<asrwt>0</asrwt>
<pdfrwt beam="2">  1        1 0.12386635E+00 0.14015558E+03</pdfrwt>
<pdfrwt beam="1">  1       -1 0.28349146E-02 0.14015558E+03</pdfrwt>
<totfact> 0.90210813E+03</totfact>
</mgrwt>
</event>
<event>
 7    1  0.5206756E-006  0.1273004E+03  0.7546771E-02  0.1243532E+00
         -2   -1    0    0    0  501 -0.00000000000E+00  0.00000000000E+00  0.68027081979E+02  0.68027081979E+02  0.00000000000E+00 0.  1.
          2   -1    0    0  501    0  0.00000000000E+00 -0.00000000000E+00 -0.19547637397E+03  0.19547637397E+03  0.00000000000E+00 0. -1.
         23    2    1    2    0    0  0.12532066192E+02  0.20571399540E+02 -0.94562884920E+02  0.15857972239E+03  0.12500061594E+03 0.  0.
          5    1    3    3  502    0  0.29771364309E+02  0.40471984362E+02  0.93146052859E+01  0.51314398785E+02  0.47000000000E+01 0.  1.
         -5    1    3    3    0  502 -0.17239298117E+02 -0.19900584822E+02 -0.10387749021E+03  0.10726532360E+03  0.47000000000E+01 0.  1.
        -11    1    1    2    0    0  0.35990867360E+02 -0.29074391253E+02 -0.30869704920E+02  0.55620153199E+02  0.00000000000E+00 0.  1.
         11    1    1    2    0    0 -0.48522933552E+02  0.85029917124E+01 -0.20167021454E+01  0.49303580358E+02  0.00000000000E+00 0. -1.
<mgrwt>
<rscale>  0 0.11973666E+03</rscale>
<asrwt>0</asrwt>
<pdfrwt beam="2">  1        2 0.30073289E-01 0.12730039E+03</pdfrwt>
<pdfrwt beam="1">  1       -2 0.10465705E-01 0.12730039E+03</pdfrwt>
<totfact> 0.10117354E+04</totfact>
</mgrwt>
</event>
<event>
 7    1  0.5206756E-006  0.1286828E+03  0.7546771E-02  0.1245124E+00
         -2   -1    0    0    0  501 -0.00000000000E+00  0.00000000000E+00  0.44618249748E+02  0.44618249748E+02  0.00000000000E+00 0.  1.
          2   -1    0    0  501    0  0.00000000000E+00 -0.00000000000E+00 -0.31558959782E+03  0.31558959782E+03  0.00000000000E+00 0. -1.
         23    2    1    2    0    0 -0.50365931602E+01 -0.30153596651E+02 -0.21710461152E+03  0.25237607851E+03  0.12499866397E+03 0.  0.
          5    1    3    3  502    0 -0.41806243013E+02 -0.53126485973E+02 -0.18827153029E+03  0.20009608838E+03  0.47000000000E+01 0.  1.
         -5    1    3    3    0  502  0.36769649853E+02  0.22972889322E+02 -0.28833081230E+02  0.52279990123E+02  0.47000000000E+01 0.  1.
        -11    1    1    2    0    0  0.32748021930E+02  0.27136153684E+02 -0.65114020338E+02  0.77772999310E+02  0.00000000000E+00 0. -1.
         11    1    1    2    0    0 -0.27711428770E+02  0.30174429672E+01  0.11247283788E+02  0.30058769754E+02  0.00000000000E+00 0.  1.
<mgrwt>
<rscale>  0 0.11877985E+03</rscale>
<asrwt>0</asrwt>
<pdfrwt beam="2">  1        2 0.48552246E-01 0.12868284E+03</pdfrwt>
<pdfrwt beam="1">  1       -2 0.68643461E-02 0.12868284E+03</pdfrwt>
<totfact> 0.11684613E+04</totfact>
</mgrwt>
</event>
<event>
 7    1  0.5206756E-006  0.1525927E+03  0.7546771E-02  0.1205913E+00
         -1   -1    0    0    0  501 -0.00000000000E+00  0.00000000000E+00  0.41536274070E+02  0.41536274070E+02  0.00000000000E+00 0.  1.
          1   -1    0    0  501    0  0.00000000000E+00 -0.00000000000E+00 -0.59272437013E+03  0.59272437013E+03  0.00000000000E+00 0. -1.
         23    2    1    2    0    0  0.29729806295E+02  0.82285948044E+02 -0.43997856829E+03  0.46568839967E+03  0.12501882423E+03 0.  0.
          5    1    3    3  502    0 -0.20539156182E+02  0.93589119869E+02 -0.33780047427E+03  0.35115812779E+03  0.47000000000E+01 0. -1.
         -5    1    3    3    0  502  0.50268962477E+02 -0.11303171825E+02 -0.10217809402E+03  0.11453027189E+03  0.47000000000E+01 0. -1.
        -11    1    1    2    0    0  0.12399265153E+02  0.73867261955E+01  0.55312681242E+01  0.15456404086E+02  0.00000000000E+00 0.  1.
         11    1    1    2    0    0 -0.42129071448E+02 -0.89672674240E+02 -0.11674079590E+03  0.15311584044E+03  0.00000000000E+00 0. -1.
<mgrwt>
<rscale>  0 0.14565706E+03</rscale>
<asrwt>0</asrwt>
<pdfrwt beam="2">  1        1 0.91188361E-01 0.15259274E+03</pdfrwt>
<pdfrwt beam="1">  1       -1 0.63901963E-02 0.15259274E+03</pdfrwt>
<totfact> 0.42344832E+03</totfact>
</mgrwt>
</event>
<event>
 7    1  0.5206756E-006  0.1521863E+03  0.7546771E-02  0.1206225E+00
          1   -1    0    0  501    0  0.00000000000E+00  0.00000000000E+00  0.32014773639E+03  0.32014773639E+03  0.00000000000E+00 0. -1.
         -1   -1    0    0    0  501 -0.00000000000E+00 -0.00000000000E+00 -0.66644430899E+02  0.66644430899E+02  0.00000000000E+00 0.  1.
         23    2    1    2    0    0  0.61632943296E+02 -0.61131989856E+02  0.19430034017E+03  0.24680620213E+03  0.12499975735E+03 0.  0.
          5    1    3    3  502    0  0.98402713585E+02 -0.51950421942E+02  0.16306769379E+03  0.19747177808E+03  0.47000000000E+01 0.  1.
         -5    1    3    3    0  502 -0.36769770289E+02 -0.91815679140E+01  0.31232646378E+02  0.49334424049E+02  0.47000000000E+01 0.  1.
        -11    1    1    2    0    0  0.56347662154E+00  0.62971240614E+02  0.41037535385E+02  0.75164978286E+02  0.00000000000E+00 0. -1.
         11    1    1    2    0    0 -0.62196419918E+02 -0.18392507573E+01  0.18165429936E+02  0.64820986869E+02  0.00000000000E+00 0.  1.
<mgrwt>
<rscale>  0 0.14541355E+03</rscale>
<asrwt>0</asrwt>
<pdfrwt beam="1">  1        1 0.49253497E-01 0.15218633E+03</pdfrwt>
<pdfrwt beam="2">  1       -1 0.10252990E-01 0.15218633E+03</pdfrwt>
<totfact> 0.45736168E+03</totfact>
</mgrwt>
</event>
<event>
 7    1  0.5206756E-006  0.1328754E+03  0.7546771E-02  0.1233984E+00
         -2   -1    0    0    0  501 -0.00000000000E+00  0.00000000000E+00  0.14716906236E+03  0.14716906236E+03  0.00000000000E+00 0.  1.
          2   -1    0    0  501    0  0.00000000000E+00 -0.00000000000E+00 -0.97631377315E+02  0.97631377315E+02  0.00000000000E+00 0. -1.
         23    2    1    2    0    0  0.19613892225E+01  0.45016551297E+02  0.20013026202E+02  0.13437411321E+03  0.12500217657E+03 0.  0.
          5    1    3    3  502    0 -0.56436559894E+02  0.23792506338E+02 -0.14537661203E+02  0.63123705878E+02  0.47000000000E+01 0. -1.
         -5    1    3    3    0  502  0.58397949117E+02  0.21224044960E+02  0.34550687405E+02  0.71250407337E+02  0.47000000000E+01 0. -1.
        -11    1    1    2    0    0  0.21039636159E+02 -0.38621576455E+02  0.58305318952E+02  0.73032887630E+02  0.00000000000E+00 0.  1.
         11    1    1    2    0    0 -0.23001025381E+02 -0.63949748427E+01 -0.28780660105E+02  0.37393438835E+02  0.00000000000E+00 0. -1.
<mgrwt>
<rscale>  0 0.12569708E+03</rscale>
<asrwt>0</asrwt>
<pdfrwt beam="2">  1        2 0.15020212E-01 0.13287543E+03</pdfrwt>
<pdfrwt beam="1">  1       -2 0.22641394E-01 0.13287543E+03</pdfrwt>
<totfact> 0.62409151E+03</totfact>
</mgrwt>
</event>
<event>
 7    1  0.5206756E-006  0.1393394E+03  0.7546771E-02  0.1229101E+00
         -2   -1    0    0    0  501 -0.00000000000E+00  0.00000000000E+00  0.31997551657E+03  0.31997551657E+03  0.00000000000E+00 0.  1.
          2   -1    0    0  501    0  0.00000000000E+00 -0.00000000000E+00 -0.55110171826E+02  0.55110171826E+02  0.00000000000E+00 0. -1.
         23    2    1    2    0    0  0.38516488696E+02  0.48025361129E+02  0.71881927127E+02  0.15678801676E+03  0.12500206214E+03 0.  0.
          5    1    3    3  502    0  0.43885101840E+02  0.88072343453E+02  0.54141972424E+02  0.11241033326E+03  0.47000000000E+01 0.  1.
         -5    1    3    3    0  502 -0.53686131444E+01 -0.40046982324E+02  0.17739954703E+02  0.44377683504E+02  0.47000000000E+01 0.  1.
        -11    1    1    2    0    0  0.85549839256E+01 -0.40925796994E+02  0.39192151337E+02  0.57307358480E+02  0.00000000000E+00 0. -1.
         11    1    1    2    0    0 -0.47071472622E+02 -0.70995641355E+01  0.15379126628E+03  0.16099031315E+03  0.00000000000E+00 0.  1.
<mgrwt>
<rscale>  0 0.12889719E+03</rscale>
<asrwt>0</asrwt>
<pdfrwt beam="2">  1        2 0.84784882E-02 0.13933941E+03</pdfrwt>
<pdfrwt beam="1">  1       -2 0.49227001E-01 0.13933941E+03</pdfrwt>
<totfact> 0.30046561E+03</totfact>
</mgrwt>
</event>
<event>
 6    1  0.5206756E-006  0.3014638E+03  0.7546771E-02  0.1101285E+00
          1   -1    0    0  501    0  0.00000000000E+00  0.00000000000E+00  0.62815386655E+03  0.62815386655E+03  0.00000000000E+00 0. -1.
         -1   -1    0    0    0  501 -0.00000000000E+00 -0.00000000000E+00 -0.10764548837E+03  0.10764548837E+03  0.00000000000E+00 0.  1.
          5    1    1    2  502    0 -0.88971193894E+01  0.12610770852E+03  0.44799830439E+03  0.46551786606E+03  0.47000000000E+01 0. -1.
         -5    1    1    2    0  502 -0.14742562255E+01  0.44545708116E+02 -0.26972335557E+02  0.52307651720E+02  0.47000000000E+01 0.  1.
        -11    1    1    2    0    0 -0.25053807062E+02 -0.14548648695E+03  0.91807307694E+02  0.17384646353E+03  0.00000000000E+00 0.  1.
         11    1    1    2    0    0  0.35425182677E+02 -0.25166929679E+02  0.76751016547E+01  0.44127373620E+02  0.00000000000E+00 0. -1.
<mgrwt>
<rscale>  0 0.26999001E+03</rscale>
<asrwt>0</asrwt>
<pdfrwt beam="1">  1        1 0.96639054E-01 0.30146376E+03</pdfrwt>
<pdfrwt beam="2">  1       -1 0.16560845E-01 0.30146376E+03</pdfrwt>
<totfact> 0.90541026E+02</totfact>
</mgrwt>
</event>
<event>
 7    1  0.5206756E-006  0.1330112E+03  0.7546771E-02  0.1235351E+00
         -3   -1    0    0    0  501 -0.00000000000E+00  0.00000000000E+00  0.56354616459E+03  0.56354616459E+03  0.00000000000E+00 0.  1.
          3   -1    0    0  501    0  0.00000000000E+00 -0.00000000000E+00 -0.26070575085E+02  0.26070575085E+02  0.00000000000E+00 0. -1.
         23    2    1    2    0    0  0.12230929327E+02 -0.43779074517E+02  0.23493696234E+03  0.26997660210E+03  0.12500314561E+03 0.  0.
          5    1    3    3  502    0 -0.25728174122E+02 -0.43391209692E+02  0.22475385137E+03  0.23039340210E+03  0.47000000000E+01 0.  1.
         -5    1    3    3    0  502  0.37959103449E+02 -0.38786482496E+00  0.10183110965E+02  0.39583200006E+02  0.47000000000E+01 0.  1.
        -11    1    1    2    0    0  0.30839931136E+02  0.34534919182E+02  0.23124566289E+03  0.23583536334E+03  0.00000000000E+00 0.  1.
         11    1    1    2    0    0 -0.43070860464E+02  0.92441553352E+01  0.71292964271E+02  0.83804774229E+02  0.00000000000E+00 0. -1.
<mgrwt>
<rscale>  0 0.12482022E+03</rscale>
<asrwt>0</asrwt>
<pdfrwt beam="2">  1        3 0.40108581E-02 0.13301124E+03</pdfrwt>
<pdfrwt beam="1">  1       -3 0.86699401E-01 0.13301124E+03</pdfrwt>
<totfact> 0.92922205E+02</totfact>
</mgrwt>
</event>
<event>
 7    1  0.5206756E-006  0.1322462E+03  0.7546771E-02  0.1237076E+00
         -2   -1    0    0    0  501 -0.00000000000E+00  0.00000000000E+00  0.11008154089E+03  0.11008154089E+03  0.00000000000E+00 0. -1.
          2   -1    0    0  501    0  0.00000000000E+00 -0.00000000000E+00 -0.13589744987E+03  0.13589744987E+03  0.00000000000E+00 0.  1.
         23    2    1    2    0    0 -0.43205439014E+02  0.10489045140E+01 -0.50733216805E+02  0.14164360594E+03  0.12498496572E+03 0.  0.
          5    1    3    3  502    0 -0.97416876585E+01  0.21590201060E+02  0.37700190916E+02  0.44770879547E+02  0.47000000000E+01 0.  1.
         -5    1    3    3    0  502 -0.33463751355E+02 -0.20541296546E+02 -0.88433407722E+02  0.96872726398E+02  0.47000000000E+01 0.  1.
        -11    1    1    2    0    0  0.46629375303E+02  0.29215268884E+02 -0.12159037332E+02  0.56353107865E+02  0.00000000000E+00 0.  1.
         11    1    1    2    0    0 -0.34239362897E+01 -0.30264173398E+02  0.37076345152E+02  0.47982276947E+02  0.00000000000E+00 0. -1.
<mgrwt>
<rscale>  0 0.12372493E+03</rscale>
<asrwt>0</asrwt>
<pdfrwt beam="2">  1        2 0.20907300E-01 0.13224618E+03</pdfrwt>
<pdfrwt beam="1">  1       -2 0.16935622E-01 0.13224618E+03</pdfrwt>
<totfact> 0.69685669E+03</totfact>
</mgrwt>
</event>
<event>
 7    1  0.5206756E-006  0.1364157E+03  0.7546771E-02  0.1229325E+00
         -2   -1    0    0    0  501 -0.00000000000E+00  0.00000000000E+00  0.39412959952E+02  0.39412959952E+02  0.00000000000E+00 0.  1.
          2   -1    0    0  501    0  0.00000000000E+00 -0.00000000000E+00 -0.54137628032E+03  0.54137628032E+03  0.00000000000E+00 0. -1.
         23    2    1    2    0    0  0.65196225802E+01  0.54323871123E+02 -0.42922759239E+03  0.45038380416E+03  0.12496262052E+03 0.  0.
          5    1    3    3  502    0 -0.81498541246E+01 -0.38649318123E+02 -0.16897283019E+03  0.17359175458E+03  0.47000000000E+01 0. -1.
         -5    1    3    3    0  502  0.14669476705E+02  0.92973189247E+02 -0.26025476220E+03  0.27679204958E+03  0.47000000000E+01 0. -1.
        -11    1    1    2    0    0 -0.24076419903E+02  0.16333678467E+02 -0.24311515964E+01  0.29195437070E+02  0.00000000000E+00 0.  1.
         11    1    1    2    0    0  0.17556797323E+02 -0.70657549591E+02 -0.70304576383E+02  0.10120999905E+03  0.00000000000E+00 0. -1.
<mgrwt>
<rscale>  0 0.12874830E+03</rscale>
<asrwt>0</asrwt>
<pdfrwt beam="2">  1        2 0.83288657E-01 0.13641571E+03</pdfrwt>
<pdfrwt beam="1">  1       -2 0.60635324E-02 0.13641571E+03</pdfrwt>
<totfact> 0.79281028E+03</totfact>
</mgrwt>
</event>
<event>
 7    1  0.5206756E-006  0.1406517E+03  0.7546771E-02  0.1222899E+00
          2   -1    0    0  501    0  0.00000000000E+00  0.00000000000E+00  0.19128478983E+04  0.19128478983E+04  0.00000000000E+00 0. -1.
         -2   -1    0    0    0  501 -0.00000000000E+00 -0.00000000000E+00 -0.88574646379E+01  0.88574646379E+01  0.00000000000E+00 0.  1.
         23    2    1    2    0    0  0.61296291375E+02  0.20040317521E+02  0.12682217733E+04  0.12759973983E+04  0.12499617826E+03 0.  0.
          5    1    3    3  502    0 -0.76062645581E+01 -0.44644748061E+02  0.46371637373E+03  0.46594632100E+03  0.47000000000E+01 0.  1.
         -5    1    3    3    0  502  0.68902555933E+02  0.64685065582E+02  0.80450539959E+03  0.81005107733E+03  0.47000000000E+01 0.  1.
        -11    1    1    2    0    0 -0.15261106096E+02 -0.53702274727E+02  0.31495927288E+03  0.31986900326E+03  0.00000000000E+00 0.  1.
         11    1    1    2    0    0 -0.46035185279E+02  0.33661957206E+02  0.32080938744E+03  0.32583896133E+03  0.00000000000E+00 0. -1.
<mgrwt>
<rscale>  0 0.13311960E+03</rscale>
<asrwt>0</asrwt>
<pdfrwt beam="1">  1        2 0.29428396E+00 0.14065168E+03</pdfrwt>
<pdfrwt beam="2">  1       -2 0.13626884E-02 0.14065168E+03</pdfrwt>
<totfact> 0.11000593E+04</totfact>
</mgrwt>
</event>
<event>
 7    1  0.5206756E-006  0.1223208E+03  0.7546771E-02  0.1240315E+00
         -1   -1    0    0    0  501 -0.00000000000E+00  0.00000000000E+00  0.11521712866E+03  0.11521712866E+03  0.00000000000E+00 0.  1.
          1   -1    0    0  501    0  0.00000000000E+00 -0.00000000000E+00 -0.14945587517E+03  0.14945587517E+03  0.00000000000E+00 0. -1.
         23    2    1    2    0    0  0.39627025600E+02 -0.24910016108E+02 -0.68253659077E+02  0.14007472403E+03  0.11301131038E+03 0.  0.
          5    1    3    3  502    0 -0.16746191504E+02  0.16649354497E+02 -0.65546040598E+02  0.69828428116E+02  0.47000000000E+01 0. -1.
         -5    1    3    3    0  502  0.56373217104E+02 -0.41559370605E+02 -0.27076184794E+01  0.70246295914E+02  0.47000000000E+01 0.  1.
        -11    1    1    2    0    0 -0.80569888602E+01 -0.37005727219E+02  0.39698684298E+02  0.54866423717E+02  0.00000000000E+00 0.  1.
         11    1    1    2    0    0 -0.31570036740E+02  0.61915743327E+02 -0.56837717230E+01  0.69731856081E+02  0.00000000000E+00 0. -1.
<mgrwt>
<rscale>  0 0.12170224E+03</rscale>
<asrwt>0</asrwt>
<pdfrwt beam="2">  1        1 0.22993212E-01 0.12232075E+03</pdfrwt>
<pdfrwt beam="1">  1       -1 0.17725712E-01 0.12232075E+03</pdfrwt>
<totfact> 0.49663971E+03</totfact>
</mgrwt>
</event>
<event>
 7    1  0.5206756E-006  0.1666978E+03  0.7546771E-02  0.1187973E+00
         -2   -1    0    0    0  501 -0.00000000000E+00  0.00000000000E+00  0.14466720877E+02  0.14466720877E+02  0.00000000000E+00 0.  1.
          2   -1    0    0  501    0  0.00000000000E+00 -0.00000000000E+00 -0.16828763485E+04  0.16828763485E+04  0.00000000000E+00 0. -1.
         23    2    1    2    0    0 -0.10402389691E+03 -0.36650998539E+02 -0.98072365961E+03  0.99478995832E+03  0.12499559130E+03 0.  0.
          5    1    3    3  502    0 -0.11227972427E+03 -0.47528050787E+02 -0.96764168199E+03  0.97530414068E+03  0.47000000000E+01 0. -1.
         -5    1    3    3    0  502  0.82558273573E+01  0.10877052248E+02 -0.13081977613E+02  0.19485817643E+02  0.47000000000E+01 0. -1.
        -11    1    1    2    0    0  0.54050320810E+02 -0.25828357426E+02 -0.21703866580E+03  0.22515399992E+03  0.00000000000E+00 0.  1.
         11    1    1    2    0    0  0.49973576103E+02  0.62479355965E+02 -0.47064730225E+03  0.47739911117E+03  0.00000000000E+00 0. -1.
<mgrwt>
<rscale>  0 0.16064310E+03</rscale>
<asrwt>0</asrwt>
<pdfrwt beam="2">  1        2 0.25890383E+00 0.16669782E+03</pdfrwt>
<pdfrwt beam="1">  1       -2 0.22256513E-02 0.16669782E+03</pdfrwt>
<totfact> 0.71212287E+03</totfact>
</mgrwt>
</event>
<event>
 7    1  0.5206756E-006  0.3055129E+03  0.7546771E-02  0.1084002E+00
         -2   -1    0    0    0  501 -0.00000000000E+00  0.00000000000E+00  0.21337505895E+03  0.21337505895E+03  0.00000000000E+00 0.  1.
          2   -1    0    0  501    0  0.00000000000E+00 -0.00000000000E+00 -0.55375174050E+03  0.55375174050E+03  0.00000000000E+00 0. -1.
         23    2    1    2    0    0  0.13231548188E+03  0.24536709833E+03 -0.36084662625E+03  0.47280904575E+03  0.12500282549E+03 0.  0.
          5    1    3    3  502    0 -0.56513882923E+01  0.11187456464E+03 -0.11191036392E+03  0.15841046669E+03  0.47000000000E+01 0.  1.
         -5    1    3    3    0  502  0.13796687017E+03  0.13349253369E+03 -0.24893626233E+03  0.31439857906E+03  0.47000000000E+01 0.  1.
        -11    1    1    2    0    0 -0.46589335386E+02 -0.10782957467E+03  0.53248496349E+02  0.12896970849E+03  0.00000000000E+00 0. -1.
         11    1    1    2    0    0 -0.85726146494E+02 -0.13753752366E+03 -0.32778551648E+02  0.16534804521E+03  0.00000000000E+00 0.  1.
<mgrwt>
<rscale>  0 0.30249138E+03</rscale>
<asrwt>0</asrwt>
<pdfrwt beam="2">  1        2 0.85192574E-01 0.30551286E+03</pdfrwt>
<pdfrwt beam="1">  1       -2 0.32826933E-01 0.30551286E+03</pdfrwt>
<totfact> 0.48173606E+02</totfact>
</mgrwt>
</event>
<event>
 7    1  0.5206756E-006  0.2653274E+03  0.7546771E-02  0.1106191E+00
          2   -1    0    0  501    0  0.00000000000E+00  0.00000000000E+00  0.70381826739E+03  0.70381826739E+03  0.00000000000E+00 0. -1.
         -2   -1    0    0    0  501 -0.00000000000E+00 -0.00000000000E+00 -0.96053319877E+02  0.96053319877E+02  0.00000000000E+00 0.  1.
         23    2    1    2    0    0 -0.82674217551E+02 -0.21894881398E+03  0.36182818620E+03  0.44868505732E+03  0.12500013978E+03 0.  0.
          5    1    3    3  502    0 -0.79641374221E+02 -0.18930816676E+03  0.36449814975E+03  0.41840330025E+03  0.47000000000E+01 0.  1.
         -5    1    3    3    0  502 -0.30328433295E+01 -0.29640647214E+02 -0.26699635491E+01  0.30281757071E+02  0.47000000000E+01 0.  1.
        -11    1    1    2    0    0  0.18607917597E+02  0.16327743100E+03  0.14362123313E+03  0.21824947349E+03  0.00000000000E+00 0.  1.
         11    1    1    2    0    0  0.64066299954E+02  0.55671382978E+02  0.10231552818E+03  0.13293705646E+03  0.00000000000E+00 0. -1.
<mgrwt>
<rscale>  0 0.26159067E+03</rscale>
<asrwt>0</asrwt>
<pdfrwt beam="1">  1        2 0.10827973E+00 0.26532743E+03</pdfrwt>
<pdfrwt beam="2">  1       -2 0.14777434E-01 0.26532743E+03</pdfrwt>
<totfact> 0.14621481E+03</totfact>
</mgrwt>
</event>
<event>
 7    1  0.5206756E-006  0.1974710E+03  0.7546771E-02  0.1155934E+00
          1   -1    0    0  501    0  0.00000000000E+00  0.00000000000E+00  0.79253325615E+03  0.79253325615E+03  0.00000000000E+00 0. -1.
         -1   -1    0    0    0  501 -0.00000000000E+00 -0.00000000000E+00 -0.44840048997E+02  0.44840048997E+02  0.00000000000E+00 0.  1.
         23    2    1    2    0    0 -0.58311021139E+02 -0.14127143880E+03  0.38941709211E+03  0.43662392605E+03  0.12504793709E+03 0.  0.
          5    1    3    3  502    0 -0.38965172182E+02 -0.14520286105E+03  0.38816907175E+03  0.41629253388E+03  0.47000000000E+01 0. -1.
         -5    1    3    3    0  502 -0.19345848957E+02  0.39314222537E+01  0.12480203526E+01  0.20331392170E+02  0.47000000000E+01 0. -1.
        -11    1    1    2    0    0  0.83119043964E+02  0.11039735282E+03  0.29988890785E+03  0.33019646883E+03  0.00000000000E+00 0. -1.
         11    1    1    2    0    0 -0.24808022825E+02  0.30874085980E+02  0.58387207193E+02  0.70552910255E+02  0.00000000000E+00 0.  1.
<mgrwt>
<rscale>  0 0.19282970E+03</rscale>
<asrwt>0</asrwt>
<pdfrwt beam="1">  1        1 0.12192818E+00 0.19747096E+03</pdfrwt>
<pdfrwt beam="2">  1       -1 0.68984696E-02 0.19747096E+03</pdfrwt>
<totfact> 0.25076113E+03</totfact>
</mgrwt>
</event>
<event>
 7    1  0.5206756E-006  0.2105123E+03  0.7546771E-02  0.1144602E+00
          2   -1    0    0  501    0  0.00000000000E+00  0.00000000000E+00  0.36927652427E+03  0.36927652427E+03  0.00000000000E+00 0. -1.
         -2   -1    0    0    0  501 -0.00000000000E+00 -0.00000000000E+00 -0.11354938634E+03  0.11354938634E+03  0.00000000000E+00 0.  1.
         23    2    1    2    0    0  0.25221447525E+02 -0.16750192800E+03  0.17132341330E+03  0.27141690112E+03  0.12498961946E+03 0.  0.
          5    1    3    3  502    0 -0.29995342636E+02  0.35385634738E+01  0.28613677833E+02  0.41869733346E+02  0.47000000000E+01 0. -1.
         -5    1    3    3    0  502  0.55216790162E+02 -0.17104049147E+03  0.14270973546E+03  0.22954716778E+03  0.47000000000E+01 0. -1.
        -11    1    1    2    0    0  0.89309291406E+01  0.15538068707E+03  0.56146768734E+02  0.16545506656E+03  0.00000000000E+00 0. -1.
         11    1    1    2    0    0 -0.34152376666E+02  0.12121240922E+02  0.28256955901E+02  0.45953942923E+02  0.00000000000E+00 0.  1.
<mgrwt>
<rscale>  0 0.20621152E+03</rscale>
<asrwt>0</asrwt>
<pdfrwt beam="1">  1        2 0.56811772E-01 0.21051229E+03</pdfrwt>
<pdfrwt beam="2">  1       -2 0.17469137E-01 0.21051229E+03</pdfrwt>
<totfact> 0.22865418E+03</totfact>
</mgrwt>
</event>
<event>
 7    1  0.5206756E-006  0.1554862E+03  0.7546771E-02  0.1199216E+00
         -4   -1    0    0    0  501 -0.00000000000E+00  0.00000000000E+00  0.58851912076E+02  0.58851912076E+02  0.00000000000E+00 0.  1.
          4   -1    0    0  501    0  0.00000000000E+00 -0.00000000000E+00 -0.36691617528E+03  0.36691617528E+03  0.00000000000E+00 0. -1.
         23    2    1    2    0    0 -0.60864594287E+02 -0.83316442267E+02 -0.16438772518E+03  0.22627260068E+03  0.11631782854E+03 0.  0.
          5    1    3    3  502    0  0.15646473104E+02 -0.54618839409E+02 -0.12071345701E+03  0.13349853348E+03  0.47000000000E+01 0. -1.
         -5    1    3    3    0  502 -0.76511067391E+02 -0.28697602858E+02 -0.43674268169E+02  0.92774067191E+02  0.47000000000E+01 0.  1.
        -11    1    1    2    0    0  0.44181734532E+02 -0.50538159240E+01 -0.71417006857E+02  0.84130586531E+02  0.00000000000E+00 0. -1.
         11    1    1    2    0    0  0.16682859755E+02  0.88370258191E+02 -0.72259531171E+02  0.11536490015E+03  0.00000000000E+00 0.  1.
<mgrwt>
<rscale>  0 0.15102736E+03</rscale>
<asrwt>0</asrwt>
<pdfrwt beam="2">  1        4 0.56448644E-01 0.15548622E+03</pdfrwt>
<pdfrwt beam="1">  1       -4 0.90541400E-02 0.15548622E+03</pdfrwt>
<totfact> 0.46128507E+02</totfact>
</mgrwt>
</event>
<event>
 7    1  0.5206756E-006  0.1503972E+03  0.7546771E-02  0.1209353E+00
          1   -1    0    0  501    0  0.00000000000E+00  0.00000000000E+00  0.44670510949E+02  0.44670510949E+02  0.00000000000E+00 0. -1.
         -1   -1    0    0    0  501 -0.00000000000E+00 -0.00000000000E+00 -0.48817158800E+03  0.48817158800E+03  0.00000000000E+00 0.  1.
         23    2    1    2    0    0  0.81868915220E+02 -0.17047372257E+02 -0.14030698813E+03  0.20568271697E+03  0.12500478776E+03 0.  0.
          5    1    3    3  502    0  0.22392730661E+02 -0.62076599587E+02 -0.10229641501E+03  0.12182604454E+03  0.47000000000E+01 0.  1.
         -5    1    3    3    0  502  0.59476184559E+02  0.45029227330E+02 -0.38010573113E+02  0.83856672435E+02  0.47000000000E+01 0.  1.
        -11    1    1    2    0    0 -0.41280583645E+02 -0.11205747010E+02 -0.37447315793E+02  0.56850301778E+02  0.00000000000E+00 0. -1.
         11    1    1    2    0    0 -0.40588331575E+02  0.28253119267E+02 -0.26574677313E+03  0.27030908020E+03  0.00000000000E+00 0.  1.
<mgrwt>
<rscale>  0 0.14299661E+03</rscale>
<asrwt>0</asrwt>
<pdfrwt beam="1">  1        1 0.68723866E-02 0.15039724E+03</pdfrwt>
<pdfrwt beam="2">  1       -1 0.75103318E-01 0.15039724E+03</pdfrwt>
<totfact> 0.19442119E+03</totfact>
</mgrwt>
</event>
<event>
 7    1  0.5206756E-006  0.1377683E+03  0.7546771E-02  0.1225262E+00
         -1   -1    0    0    0  501 -0.00000000000E+00  0.00000000000E+00  0.36802619555E+02  0.36802619555E+02  0.00000000000E+00 0.  1.
          1   -1    0    0  501    0  0.00000000000E+00 -0.00000000000E+00 -0.44491805412E+03  0.44491805412E+03  0.00000000000E+00 0. -1.
         23    2    1    2    0    0 -0.29878141354E+02 -0.63807201173E+02 -0.26384624306E+03  0.29764904973E+03  0.11838941918E+03 0.  0.
          5    1    3    3  502    0 -0.60880871760E+02 -0.68508712617E+02 -0.12407429464E+03  0.15432577504E+03  0.47000000000E+01 0. -1.
         -5    1    3    3    0  502  0.31002730406E+02  0.47015114438E+01 -0.13977194842E+03  0.14332327469E+03  0.47000000000E+01 0.  1.
        -11    1    1    2    0    0  0.49850320377E+02  0.49281989710E+02 -0.48678967280E+02  0.85342901327E+02  0.00000000000E+00 0.  1.
         11    1    1    2    0    0 -0.19972179023E+02  0.14525211463E+02 -0.95590224222E+02  0.98728722618E+02  0.00000000000E+00 0. -1.
<mgrwt>
<rscale>  0 0.13148960E+03</rscale>
<asrwt>0</asrwt>
<pdfrwt beam="2">  1        1 0.68448928E-01 0.13776834E+03</pdfrwt>
<pdfrwt beam="1">  1       -1 0.56619418E-02 0.13776834E+03</pdfrwt>
<totfact> 0.73594708E+03</totfact>
</mgrwt>
</event>
<event>
 7    1  0.5206756E-006  0.2459935E+03  0.7546771E-02  0.1118565E+00
          2   -1    0    0  501    0  0.00000000000E+00  0.00000000000E+00  0.26657226211E+03  0.26657226211E+03  0.00000000000E+00 0.  1.
         -2   -1    0    0    0  501 -0.00000000000E+00 -0.00000000000E+00 -0.21355392034E+03  0.21355392034E+03  0.00000000000E+00 0. -1.
         23    2    1    2    0    0  0.15644804924E+03  0.14287485019E+03  0.45460680206E+02  0.25015892502E+03  0.12499439746E+03 0.  0.
          5    1    3    3  502    0  0.61135558120E+02  0.63832745626E+02  0.82325684754E+02  0.12087921348E+03  0.47000000000E+01 0.  1.
         -5    1    3    3    0  502  0.95312491117E+02  0.79042104568E+02 -0.36865004547E+02  0.12927971155E+03  0.47000000000E+01 0.  1.
        -11    1    1    2    0    0 -0.10163283482E+03 -0.14162091751E+03 -0.19146174481E+01  0.17432550918E+03  0.00000000000E+00 0.  1.
         11    1    1    2    0    0 -0.54815214413E+02 -0.12539326834E+01  0.94722790065E+01  0.55641748246E+02  0.00000000000E+00 0. -1.
<mgrwt>
<rscale>  0 0.24185251E+03</rscale>
<asrwt>0</asrwt>
<pdfrwt beam="1">  1        2 0.41011117E-01 0.24599352E+03</pdfrwt>
<pdfrwt beam="2">  1       -2 0.32854449E-01 0.24599352E+03</pdfrwt>
<totfact> 0.10744032E+03</totfact>
</mgrwt>
</event>
<event>
 7    1  0.5206756E-006  0.1341501E+03  0.7546771E-02  0.1234071E+00
          3   -1    0    0  501    0  0.00000000000E+00  0.00000000000E+00  0.84787039786E+02  0.84787039786E+02  0.00000000000E+00 0. -1.
         -3   -1    0    0    0  501 -0.00000000000E+00 -0.00000000000E+00 -0.20157027180E+03  0.20157027180E+03  0.00000000000E+00 0.  1.
         23    2    1    2    0    0 -0.48513691342E+02 -0.41556853869E+01 -0.50501980230E+01  0.13424514378E+03  0.12500162463E+03 0.  0.
          5    1    3    3  502    0 -0.38691963071E+01 -0.98366007196E+01  0.56600726217E+02  0.57770767712E+02  0.47000000000E+01 0. -1.
         -5    1    3    3    0  502 -0.44644495035E+02  0.56809153327E+01 -0.61650924240E+02  0.76474376072E+02  0.47000000000E+01 0. -1.
        -11    1    1    2    0    0  0.66581530668E+02 -0.63491324944E+00 -0.11524078192E+03  0.13309373073E+03  0.00000000000E+00 0.  1.
         11    1    1    2    0    0 -0.18067839326E+02  0.47905986363E+01  0.35077479322E+01  0.19018437075E+02  0.00000000000E+00 0. -1.
<mgrwt>
<rscale>  0 0.12564105E+03</rscale>
<asrwt>0</asrwt>
<pdfrwt beam="1">  1        3 0.13044160E-01 0.13415012E+03</pdfrwt>
<pdfrwt beam="2">  1       -3 0.31010811E-01 0.13415012E+03</pdfrwt>
<totfact> 0.10945356E+03</totfact>
</mgrwt>
</event>
<event>
 7    1  0.5206756E-006  0.1910491E+03  0.7546771E-02  0.1162568E+00
          1   -1    0    0  501    0  0.00000000000E+00  0.00000000000E+00  0.30432902609E+03  0.30432902609E+03  0.00000000000E+00 0. -1.
         -1   -1    0    0    0  501 -0.00000000000E+00 -0.00000000000E+00 -0.11062959323E+03  0.11062959323E+03  0.00000000000E+00 0.  1.
         23    2    1    2    0    0 -0.14265280369E+03  0.22778449250E+02  0.13984049087E+03  0.23675962390E+03  0.12502430352E+03 0.  0.
          5    1    3    3  502    0 -0.63639129122E+02 -0.29598165825E+02  0.12104972505E+03  0.14000398605E+03  0.47000000000E+01 0.  1.
         -5    1    3    3    0  502 -0.79013674570E+02  0.52376615075E+02  0.18790765828E+02  0.96755637852E+02  0.47000000000E+01 0.  1.
        -11    1    1    2    0    0  0.98232422750E+02 -0.46766293470E+02  0.65190973164E+01  0.10899171397E+03  0.00000000000E+00 0.  1.
         11    1    1    2    0    0  0.44420380942E+02  0.23987844220E+02  0.47339844673E+02  0.69207281459E+02  0.00000000000E+00 0. -1.
<mgrwt>
<rscale>  0 0.18551741E+03</rscale>
<asrwt>0</asrwt>
<pdfrwt beam="1">  1        1 0.46819850E-01 0.19104909E+03</pdfrwt>
<pdfrwt beam="2">  1       -1 0.17019937E-01 0.19104909E+03</pdfrwt>
<totfact> 0.22278553E+03</totfact>
</mgrwt>
</event>
<event>
 7    1  0.5206756E-006  0.1570715E+03  0.7546771E-02  0.1199146E+00
         -1   -1    0    0    0  501 -0.00000000000E+00  0.00000000000E+00  0.78094449560E+02  0.78094449560E+02  0.00000000000E+00 0.  1.
          1   -1    0    0  501    0  0.00000000000E+00 -0.00000000000E+00 -0.28522471625E+03  0.28522471625E+03  0.00000000000E+00 0. -1.
         23    2    1    2    0    0 -0.46022771787E+02  0.83227890809E+02 -0.15011631987E+03  0.21727026880E+03  0.12500593139E+03 0.  0.
          5    1    3    3  502    0 -0.28403289520E+02 -0.26207470665E+02 -0.71109441234E+02  0.81069235885E+02  0.47000000000E+01 0.  1.
         -5    1    3    3    0  502 -0.17619482267E+02  0.10943536147E+03 -0.79006878638E+02  0.13620103292E+03  0.47000000000E+01 0.  1.
        -11    1    1    2    0    0  0.35986047229E+01 -0.30478963048E+02  0.25087588509E+02  0.39639680140E+02  0.00000000000E+00 0.  1.
         11    1    1    2    0    0  0.42424167065E+02 -0.52748927760E+02 -0.82101535324E+02  0.10640921686E+03  0.00000000000E+00 0. -1.
<mgrwt>
<rscale>  0 0.15108521E+03</rscale>
<asrwt>0</asrwt>
<pdfrwt beam="2">  1        1 0.43880725E-01 0.15707151E+03</pdfrwt>
<pdfrwt beam="1">  1       -1 0.12014531E-01 0.15707151E+03</pdfrwt>
<totfact> 0.41425685E+03</totfact>
</mgrwt>
</event>
<event>
 7    1  0.5206756E-006  0.1450738E+03  0.7546771E-02  0.1216508E+00
         -2   -1    0    0    0  501 -0.00000000000E+00  0.00000000000E+00  0.12646275688E+03  0.12646275688E+03  0.00000000000E+00 0.  1.
          2   -1    0    0  501    0  0.00000000000E+00 -0.00000000000E+00 -0.14959480621E+03  0.14959480621E+03  0.00000000000E+00 0. -1.
         23    2    1    2    0    0 -0.73048775079E+02 -0.94732460834E+01 -0.53416049756E+02  0.15459519579E+03  0.12498213575E+03 0.  0.
          5    1    3    3  502    0 -0.10253184697E+02 -0.61361174507E+02 -0.32571689231E+02  0.70379872639E+02  0.47000000000E+01 0.  1.
         -5    1    3    3    0  502 -0.62795590383E+02  0.51887928424E+02 -0.20844360525E+02  0.84215323151E+02  0.47000000000E+01 0.  1.
        -11    1    1    2    0    0  0.34345562074E+02 -0.16548368052E+02  0.56349734284E+02  0.68034981246E+02  0.00000000000E+00 0.  1.
         11    1    1    2    0    0  0.38703213005E+02  0.26021614135E+02 -0.26065733858E+02  0.53427386055E+02  0.00000000000E+00 0. -1.
<mgrwt>
<rscale>  0 0.13766323E+03</rscale>
<asrwt>0</asrwt>
<pdfrwt beam="2">  1        2 0.23014585E-01 0.14507377E+03</pdfrwt>
<pdfrwt beam="1">  1       -2 0.19455809E-01 0.14507377E+03</pdfrwt>
<totfact> 0.49933972E+03</totfact>
</mgrwt>
</event>
<event>
 7    1  0.5206756E-006  0.1338146E+03  0.7546771E-02  0.1234544E+00
         -2   -1    0    0    0  501 -0.00000000000E+00  0.00000000000E+00  0.79829995593E+02  0.79829995593E+02  0.00000000000E+00 0.  1.
          2   -1    0    0  501    0  0.00000000000E+00 -0.00000000000E+00 -0.17565696097E+03  0.17565696097E+03  0.00000000000E+00 0. -1.
         23    2    1    2    0    0  0.46295421501E+02 -0.11712897854E+02 -0.56113218164E+02  0.14510351982E+03  0.12500352068E+03 0.  0.
          5    1    3    3  502    0 -0.18408554673E+02 -0.48691617706E+02 -0.46230587363E+02  0.69778977693E+02  0.47000000000E+01 0. -1.
         -5    1    3    3    0  502  0.64703976174E+02  0.36978719852E+02 -0.98826308007E+01  0.75324542124E+02  0.47000000000E+01 0. -1.
        -11    1    1    2    0    0 -0.25216074021E+02  0.42190082512E+02 -0.51797700712E+02  0.71406268986E+02  0.00000000000E+00 0. -1.
         11    1    1    2    0    0 -0.21079347480E+02 -0.30477184659E+02  0.12083953495E+02  0.38977167765E+02  0.00000000000E+00 0.  1.
<mgrwt>
<rscale>  0 0.12533670E+03</rscale>
<asrwt>0</asrwt>
<pdfrwt beam="2">  1        2 0.27024147E-01 0.13381457E+03</pdfrwt>
<pdfrwt beam="1">  1       -2 0.12281538E-01 0.13381457E+03</pdfrwt>
<totfact> 0.88504033E+03</totfact>
</mgrwt>
</event>
<event>
 7    1  0.5206756E-006  0.1338710E+03  0.7546771E-02  0.1234077E+00
          4   -1    0    0  501    0  0.00000000000E+00  0.00000000000E+00  0.33766512697E+02  0.33766512697E+02  0.00000000000E+00 0. -1.
         -4   -1    0    0    0  501 -0.00000000000E+00 -0.00000000000E+00 -0.48535846893E+03  0.48535846893E+03  0.00000000000E+00 0.  1.
         23    2    1    2    0    0 -0.47916842003E+02  0.18425283242E+00 -0.15463470374E+03  0.20453200890E+03  0.12500157347E+03 0.  0.
          5    1    3    3  502    0  0.17552617574E+01 -0.45266221426E+01  0.20909444400E+02  0.21974214821E+02  0.47000000000E+01 0.  1.
         -5    1    3    3    0  502 -0.49672103761E+02  0.47108749750E+01 -0.17554414814E+03  0.18255779408E+03  0.47000000000E+01 0.  1.
        -11    1    1    2    0    0 -0.26911956783E+02 -0.34849086775E+01 -0.10736675935E+03  0.11074303147E+03  0.00000000000E+00 0. -1.
         11    1    1    2    0    0  0.74828798787E+02  0.33006558451E+01 -0.18959049315E+03  0.20384994125E+03  0.00000000000E+00 0.  1.
<mgrwt>
<rscale>  0 0.12563716E+03</rscale>
<asrwt>0</asrwt>
<pdfrwt beam="1">  1        4 0.51948480E-02 0.13387102E+03</pdfrwt>
<pdfrwt beam="2">  1       -4 0.74670536E-01 0.13387102E+03</pdfrwt>
<totfact> 0.61476464E+02</totfact>
</mgrwt>
</event>
<event>
 7    1  0.5206756E-006  0.1336692E+03  0.7546771E-02  0.1233965E+00
          1   -1    0    0  501    0  0.00000000000E+00  0.00000000000E+00  0.23271309685E+04  0.23271309685E+04  0.00000000000E+00 0. -1.
         -1   -1    0    0    0  501 -0.00000000000E+00 -0.00000000000E+00 -0.72534203180E+01  0.72534203180E+01  0.00000000000E+00 0.  1.
         23    2    1    2    0    0 -0.42943077867E+02 -0.19972490748E+02  0.17421722156E+04  0.17472926145E+04  0.12499777307E+03 0.  0.
          5    1    3    3  502    0 -0.83995605075E+02  0.66026819512E+01  0.10600514251E+04  0.10634048951E+04  0.47000000000E+01 0.  1.
         -5    1    3    3    0  502  0.41052527208E+02 -0.26575172699E+02  0.68212079057E+03  0.68388771939E+03  0.47000000000E+01 0.  1.
        -11    1    1    2    0    0 -0.28360433117E+02 -0.54026520904E+01  0.15632633160E+03  0.15896988635E+03  0.00000000000E+00 0. -1.
         11    1    1    2    0    0  0.71303510984E+02  0.25375142838E+02  0.42137900092E+03  0.42812188798E+03  0.00000000000E+00 0.  1.
<mgrwt>
<rscale>  0 0.12570929E+03</rscale>
<asrwt>0</asrwt>
<pdfrwt beam="1">  1        1 0.35801955E+00 0.13366919E+03</pdfrwt>
<pdfrwt beam="2">  1       -1 0.11159127E-02 0.13366919E+03</pdfrwt>
<totfact> 0.33027861E+03</totfact>
</mgrwt>
</event>
<event>
 6    1  0.5206756E-006  0.1813192E+03  0.7546771E-02  0.1191049E+00
          2   -1    0    0  501    0  0.00000000000E+00  0.00000000000E+00  0.87156069519E+03  0.87156069519E+03  0.00000000000E+00 0. -1.
         -2   -1    0    0    0  501 -0.00000000000E+00 -0.00000000000E+00 -0.23430152133E+02  0.23430152133E+02  0.00000000000E+00 0.  1.
          5    1    1    2  502    0  0.68506127591E+02 -0.44944638473E+02  0.53752993023E+03  0.54375879390E+03  0.47000000000E+01 0. -1.
         -5    1    1    2    0  502 -0.24327900065E+02  0.22237010680E+02  0.12795069166E+02  0.35667003806E+02  0.47000000000E+01 0.  1.
        -11    1    1    2    0    0 -0.61316998628E+00  0.51868651213E+02  0.15405597574E+03  0.16255453428E+03  0.00000000000E+00 0.  1.
         11    1    1    2    0    0 -0.43565057539E+02 -0.29161023420E+02  0.14374956792E+03  0.15301051534E+03  0.00000000000E+00 0. -1.
<mgrwt>
<rscale>  0 0.15793452E+03</rscale>
<asrwt>0</asrwt>
<pdfrwt beam="1">  1        2 0.13408624E+00 0.18131919E+03</pdfrwt>
<pdfrwt beam="2">  1       -2 0.36046394E-02 0.18131919E+03</pdfrwt>
<totfact> 0.99682347E+03</totfact>
</mgrwt>
</event>
<event>
 7    1  0.5206756E-006  0.1145788E+03  0.7546771E-02  0.1263309E+00
          1   -1    0    0  501    0  0.00000000000E+00  0.00000000000E+00  0.10086425988E+03  0.10086425988E+03  0.00000000000E+00 0. -1.
         -1   -1    0    0    0  501 -0.00000000000E+00 -0.00000000000E+00 -0.19668474154E+03  0.19668474154E+03  0.00000000000E+00 0.  1.
         23    2    1    2    0    0 -0.10914679470E+01 -0.15783647496E+02  0.49989396619E+02  0.12500895432E+03  0.11348120574E+03 0.  0.
          5    1    3    3  502    0  0.53899478243E+02  0.61100326953E+01  0.31086501272E+02  0.62697263223E+02  0.47000000000E+01 0. -1.
         -5    1    3    3    0  502 -0.54990946190E+02 -0.21893680191E+02  0.18902895347E+02  0.62311691100E+02  0.47000000000E+01 0.  1.
        -11    1    1    2    0    0  0.13065022948E+02  0.48722410631E+02 -0.11613438168E+03  0.12661659737E+03  0.00000000000E+00 0.  1.
         11    1    1    2    0    0 -0.11973555001E+02 -0.32938763135E+02 -0.29675496600E+02  0.45923449725E+02  0.00000000000E+00 0. -1.
<mgrwt>
<rscale>  0 0.10853417E+03</rscale>
<asrwt>0</asrwt>
<pdfrwt beam="1">  1        1 0.15517578E-01 0.11457879E+03</pdfrwt>
<pdfrwt beam="2">  1       -1 0.30259191E-01 0.11457879E+03</pdfrwt>
<totfact> 0.34184847E+03</totfact>
</mgrwt>
</event>
<event>
 7    1  0.5206756E-006  0.2026512E+03  0.7546771E-02  0.1151701E+00
          2   -1    0    0  501    0  0.00000000000E+00  0.00000000000E+00  0.32710707292E+03  0.32710707292E+03  0.00000000000E+00 0. -1.
         -2   -1    0    0    0  501 -0.00000000000E+00 -0.00000000000E+00 -0.11485392805E+03  0.11485392805E+03  0.00000000000E+00 0.  1.
         23    2    1    2    0    0  0.13620796257E+03 -0.82999128210E+02  0.92104715373E+02  0.22260009216E+03  0.12500423227E+03 0.  0.
          5    1    3    3  502    0  0.15825873170E+03 -0.84673702569E+02  0.86547597709E+02  0.19931893722E+03  0.47000000000E+01 0.  1.
         -5    1    3    3    0  502 -0.22050769132E+02  0.16745743596E+01  0.55571176635E+01  0.23281154940E+02  0.47000000000E+01 0.  1.
        -11    1    1    2    0    0 -0.96829716184E+02  0.89118972758E+02  0.12202379210E+03  0.17946584934E+03  0.00000000000E+00 0. -1.
         11    1    1    2    0    0 -0.39378246384E+02 -0.61198445482E+01 -0.18753626030E+01  0.39895059474E+02  0.00000000000E+00 0.  1.
<mgrwt>
<rscale>  0 0.19769204E+03</rscale>
<asrwt>0</asrwt>
<pdfrwt beam="1">  1        2 0.50324165E-01 0.20265123E+03</pdfrwt>
<pdfrwt beam="2">  1       -2 0.17669835E-01 0.20265123E+03</pdfrwt>
<totfact> 0.25530598E+03</totfact>
</mgrwt>
</event>
<event>
 6    1  0.5206756E-006  0.1891758E+03  0.7546771E-02  0.1168123E+00
          2   -1    0    0  501    0  0.00000000000E+00  0.00000000000E+00  0.11116035686E+04  0.11116035686E+04  0.00000000000E+00 0. -1.
         -2   -1    0    0    0  501 -0.00000000000E+00 -0.00000000000E+00 -0.26689123633E+02  0.26689123633E+02  0.00000000000E+00 0.  1.
          5    1    1    2  502    0 -0.30575943491E+02 -0.10146924423E+02  0.10287858760E+03  0.10790709977E+03  0.47000000000E+01 0. -1.
         -5    1    1    2    0  502  0.15039672957E+03  0.43022432910E+02  0.54559960634E+03  0.56760120369E+03  0.47000000000E+01 0.  1.
        -11    1    1    2    0    0 -0.12053363626E+02  0.27719494606E+02  0.91112996497E+02  0.95996000368E+02  0.00000000000E+00 0. -1.
         11    1    1    2    0    0 -0.10776742245E+03 -0.60595003094E+02  0.34532325454E+03  0.36678838841E+03  0.00000000000E+00 0.  1.
<mgrwt>
<rscale>  0 0.17967030E+03</rscale>
<asrwt>0</asrwt>
<pdfrwt beam="1">  1        2 0.17101590E+00 0.18917584E+03</pdfrwt>
<pdfrwt beam="2">  1       -2 0.41060199E-02 0.18917584E+03</pdfrwt>
<totfact> 0.58672373E+03</totfact>
</mgrwt>
</event>
<event>
 7    1  0.5206756E-006  0.1365113E+03  0.7546771E-02  0.1230101E+00
         -4   -1    0    0    0  501 -0.00000000000E+00  0.00000000000E+00  0.43813696670E+02  0.43813696670E+02  0.00000000000E+00 0.  1.
          4   -1    0    0  501    0  0.00000000000E+00 -0.00000000000E+00 -0.35718394262E+03  0.35718394262E+03  0.00000000000E+00 0. -1.
         23    2    1    2    0    0  0.46998705451E+02 -0.28365088018E+02 -0.22307713256E+03  0.26153152850E+03  0.12498750656E+03 0.  0.
          5    1    3    3  502    0  0.66735169580E+02 -0.56355189467E+02 -0.96173262585E+02  0.13000337178E+03  0.47000000000E+01 0. -1.
         -5    1    3    3    0  502 -0.19736464129E+02  0.27990101449E+02 -0.12690386998E+03  0.13152815672E+03  0.47000000000E+01 0. -1.
        -11    1    1    2    0    0  0.68470639257E+01  0.47586922172E+02 -0.51020479717E+02  0.70103400750E+02  0.00000000000E+00 0. -1.
         11    1    1    2    0    0 -0.53845769377E+02 -0.19221834154E+02 -0.39272633672E+02  0.69362710036E+02  0.00000000000E+00 0.  1.
<mgrwt>
<rscale>  0 0.12823347E+03</rscale>
<asrwt>0</asrwt>
<pdfrwt beam="2">  1        4 0.54951376E-01 0.13651129E+03</pdfrwt>
<pdfrwt beam="1">  1       -4 0.67405688E-02 0.13651129E+03</pdfrwt>
<totfact> 0.77552481E+02</totfact>
</mgrwt>
</event>
<event>
 7    1  0.5206756E-006  0.1351325E+03  0.7546771E-02  0.1232552E+00
          2   -1    0    0  501    0  0.00000000000E+00  0.00000000000E+00  0.54735662413E+03  0.54735662413E+03  0.00000000000E+00 0.  1.
         -2   -1    0    0    0  501 -0.00000000000E+00 -0.00000000000E+00 -0.26179997468E+02  0.26179997468E+02  0.00000000000E+00 0. -1.
         23    2    1    2    0    0 -0.39218383409E+02 -0.33101361117E+02  0.30246440543E+03  0.33127858871E+03  0.12500802006E+03 0.  0.
          5    1    3    3  502    0  0.88965598875E+00 -0.57171976098E+01  0.27536575698E+03  0.27546663674E+03  0.47000000000E+01 0.  1.
         -5    1    3    3    0  502 -0.40108039398E+02 -0.27384163507E+02  0.27098648450E+02  0.55811951974E+02  0.47000000000E+01 0.  1.
        -11    1    1    2    0    0  0.55585420812E+02 -0.11309101342E+02  0.12517122135E+03  0.13742441353E+03  0.00000000000E+00 0.  1.
         11    1    1    2    0    0 -0.16367037403E+02  0.44410462459E+02  0.93540999871E+02  0.10483361935E+03  0.00000000000E+00 0. -1.
<mgrwt>
<rscale>  0 0.12662461E+03</rscale>
<asrwt>0</asrwt>
<pdfrwt beam="1">  1        2 0.84208703E-01 0.13513248E+03</pdfrwt>
<pdfrwt beam="2">  1       -2 0.40276923E-02 0.13513248E+03</pdfrwt>
<totfact> 0.14462861E+04</totfact>
</mgrwt>
</event>
<event>
 7    1  0.5206756E-006  0.1385425E+03  0.7546771E-02  0.1226297E+00
         -1   -1    0    0    0  501 -0.00000000000E+00  0.00000000000E+00  0.10079999573E+03  0.10079999573E+03  0.00000000000E+00 0.  1.
          1   -1    0    0  501    0  0.00000000000E+00 -0.00000000000E+00 -0.17564075412E+03  0.17564075412E+03  0.00000000000E+00 0. -1.
         23    2    1    2    0    0  0.40456516958E+02  0.43964445592E+02 -0.90252805021E+02  0.16534686031E+03  0.12499765261E+03 0.  0.
          5    1    3    3  502    0  0.33557031367E+02 -0.32047114457E+02 -0.73525676469E+02  0.87070126906E+02  0.47000000000E+01 0.  1.
         -5    1    3    3    0  502  0.68994855909E+01  0.76011560049E+02 -0.16727128552E+02  0.78276733402E+02  0.47000000000E+01 0.  1.
        -11    1    1    2    0    0 -0.29535238985E+02 -0.50107151013E+02  0.48487950002E+02  0.75724092731E+02  0.00000000000E+00 0.  1.
         11    1    1    2    0    0 -0.10921277973E+02  0.61427054212E+01 -0.33075903372E+02  0.35369796809E+02  0.00000000000E+00 0. -1.
<mgrwt>
<rscale>  0 0.13078404E+03</rscale>
<asrwt>0</asrwt>
<pdfrwt beam="2">  1        1 0.27021654E-01 0.13854247E+03</pdfrwt>
<pdfrwt beam="1">  1       -1 0.15507692E-01 0.13854247E+03</pdfrwt>
<totfact> 0.50479208E+03</totfact>
</mgrwt>
</event>
<event>
 7    1  0.5206756E-006  0.2541996E+03  0.7546771E-02  0.1113071E+00
         -1   -1    0    0    0  501 -0.00000000000E+00  0.00000000000E+00  0.34748389229E+02  0.34748389229E+02  0.00000000000E+00 0.  1.
          1   -1    0    0  501    0  0.00000000000E+00 -0.00000000000E+00 -0.18161090278E+04  0.18161090278E+04  0.00000000000E+00 0. -1.
         23    2    1    2    0    0 -0.21631122449E+03  0.46946995052E+02 -0.10910378948E+04  0.11202593987E+04  0.12499146457E+03 0.  0.
          5    1    3    3  502    0 -0.15583213914E+03  0.66698709727E+02 -0.95584759953E+03  0.97077242287E+03  0.47000000000E+01 0. -1.
         -5    1    3    3    0  502 -0.60479085352E+02 -0.19751714675E+02 -0.13519029527E+03  0.14948697580E+03  0.47000000000E+01 0. -1.
        -11    1    1    2    0    0  0.85115342073E+02  0.90655502029E+01 -0.16039847444E+03  0.18180890039E+03  0.00000000000E+00 0.  1.
         11    1    1    2    0    0  0.13119588242E+03 -0.56012545255E+02 -0.52992426931E+03  0.54878911796E+03  0.00000000000E+00 0. -1.
<mgrwt>
<rscale>  0 0.25036994E+03</rscale>
<asrwt>0</asrwt>
<pdfrwt beam="2">  1        1 0.27940136E+00 0.25419959E+03</pdfrwt>
<pdfrwt beam="1">  1       -1 0.53459065E-02 0.25419959E+03</pdfrwt>
<totfact> 0.70807999E+02</totfact>
</mgrwt>
</event>
<event>
 7    1  0.5206756E-006  0.1359122E+03  0.7546771E-02  0.1231720E+00
          2   -1    0    0  501    0  0.00000000000E+00  0.00000000000E+00  0.37780086337E+03  0.37780086337E+03  0.00000000000E+00 0. -1.
         -2   -1    0    0    0  501 -0.00000000000E+00 -0.00000000000E+00 -0.38222565738E+02  0.38222565738E+02  0.00000000000E+00 0.  1.
         23    2    1    2    0    0  0.29381372491E+01 -0.53287774081E+02  0.18264032509E+03  0.22766121252E+03  0.12499567921E+03 0.  0.
          5    1    3    3  502    0  0.37475792417E+02  0.18139021561E+02  0.19550058349E+02  0.46235850829E+02  0.47000000000E+01 0. -1.
         -5    1    3    3    0  502 -0.34537655167E+02 -0.71426795642E+02  0.16309026674E+03  0.18142536170E+03  0.47000000000E+01 0. -1.
        -11    1    1    2    0    0  0.68104941552E+00  0.13473365729E+02 -0.99433253060E+01  0.16759031312E+02  0.00000000000E+00 0.  1.
         11    1    1    2    0    0 -0.36191866646E+01  0.39814408352E+02  0.16688129784E+03  0.17160318527E+03  0.00000000000E+00 0. -1.
<mgrwt>
<rscale>  0 0.12716765E+03</rscale>
<asrwt>0</asrwt>
<pdfrwt beam="1">  1        2 0.58123207E-01 0.13591225E+03</pdfrwt>
<pdfrwt beam="2">  1       -2 0.58803950E-02 0.13591225E+03</pdfrwt>
<totfact> 0.12266514E+04</totfact>
</mgrwt>
</event>
<event>
 6    1  0.5206756E-006  0.3683093E+03  0.7546771E-02  0.1061346E+00
         -2   -1    0    0    0  501 -0.00000000000E+00  0.00000000000E+00  0.14970407441E+04  0.14970407441E+04  0.00000000000E+00 0.  1.
          2   -1    0    0  501    0  0.00000000000E+00 -0.00000000000E+00 -0.84412298604E+02  0.84412298604E+02  0.00000000000E+00 0. -1.
          5    1    1    2  502    0 -0.25510320153E+01  0.18736123615E+03  0.31280773341E+03  0.36466629767E+03  0.47000000000E+01 0. -1.
         -5    1    1    2    0  502  0.16748321886E+03  0.59438714275E+02  0.21578782664E+03  0.27958910115E+03  0.47000000000E+01 0.  1.
        -11    1    1    2    0    0 -0.89985801766E+02 -0.13241064975E+03  0.61376276000E+03  0.63429862861E+03  0.00000000000E+00 0.  1.
         11    1    1    2    0    0 -0.74946385079E+02 -0.11438930068E+03  0.27027012541E+03  0.30289901524E+03  0.00000000000E+00 0. -1.
<mgrwt>
<rscale>  0 0.35310846E+03</rscale>
<asrwt>0</asrwt>
<pdfrwt beam="2">  1        2 0.12986509E-01 0.36830932E+03</pdfrwt>
<pdfrwt beam="1">  1       -2 0.23031394E+00 0.36830932E+03</pdfrwt>
<totfact> 0.43034511E+01</totfact>
</mgrwt>
</event>
<event>
 6    1  0.5206756E-006  0.3330807E+03  0.7546771E-02  0.1069782E+00
         -2   -1    0    0    0  501 -0.00000000000E+00  0.00000000000E+00  0.42998734956E+03  0.42998734956E+03  0.00000000000E+00 0.  1.
          2   -1    0    0  501    0  0.00000000000E+00 -0.00000000000E+00 -0.64503512938E+02  0.64503512938E+02  0.00000000000E+00 0. -1.
          5    1    1    2  502    0 -0.75537431359E+02  0.94446736376E+01  0.76548160385E+02  0.10805931822E+03  0.47000000000E+01 0. -1.
         -5    1    1    2    0  502  0.93606483870E+02 -0.14705661826E+02  0.96159977713E+02  0.13508242530E+03  0.47000000000E+01 0.  1.
        -11    1    1    2    0    0 -0.29707298613E+02 -0.73947902704E+02  0.11347858976E+03  0.13866580775E+03  0.00000000000E+00 0.  1.
         11    1    1    2    0    0  0.11638246102E+02  0.79208890892E+02  0.79297108755E+02  0.11268331121E+03  0.00000000000E+00 0. -1.
<mgrwt>
<rscale>  0 0.33308074E+03</rscale>
<asrwt>0</asrwt>
<pdfrwt beam="2">  1        2 0.99236177E-02 0.33308074E+03</pdfrwt>
<pdfrwt beam="1">  1       -2 0.66151898E-01 0.33308074E+03</pdfrwt>
<totfact> 0.13989383E+03</totfact>
</mgrwt>
</event>
<event>
 7    1  0.5206756E-006  0.1396694E+03  0.7546771E-02  0.1225637E+00
         -2   -1    0    0    0  501 -0.00000000000E+00  0.00000000000E+00  0.25100534892E+02  0.25100534892E+02  0.00000000000E+00 0.  1.
          2   -1    0    0  501    0  0.00000000000E+00 -0.00000000000E+00 -0.62233563056E+03  0.62233563056E+03  0.00000000000E+00 0. -1.
         23    2    1    2    0    0 -0.58760744217E+02 -0.20739462526E+02 -0.36960976856E+03  0.39511886575E+03  0.12499834675E+03 0.  0.
          5    1    3    3  502    0  0.29012229107E+02  0.82710018830E+01 -0.19610576796E+03  0.19846833787E+03  0.47000000000E+01 0.  1.
         -5    1    3    3    0  502 -0.87772973325E+02 -0.29010464409E+02 -0.17350400060E+03  0.19665052788E+03  0.47000000000E+01 0.  1.
        -11    1    1    2    0    0  0.36833382637E+02  0.52748257120E+02 -0.17835766532E+03  0.18960625908E+03  0.00000000000E+00 0. -1.
         11    1    1    2    0    0  0.21927361580E+02 -0.32008794594E+02 -0.49267661791E+02  0.62711040619E+02  0.00000000000E+00 0.  1.
<mgrwt>
<rscale>  0 0.13123330E+03</rscale>
<asrwt>0</asrwt>
<pdfrwt beam="2">  1        2 0.95743931E-01 0.13966938E+03</pdfrwt>
<pdfrwt beam="1">  1       -2 0.38616212E-02 0.13966938E+03</pdfrwt>
<totfact> 0.13347216E+04</totfact>
</mgrwt>
</event>
<event>
 7    1  0.5206756E-006  0.1974178E+03  0.7546771E-02  0.1155817E+00
         -2   -1    0    0    0  501 -0.00000000000E+00  0.00000000000E+00  0.10451449481E+03  0.10451449481E+03  0.00000000000E+00 0.  1.
          2   -1    0    0  501    0  0.00000000000E+00 -0.00000000000E+00 -0.35693804620E+03  0.35693804620E+03  0.00000000000E+00 0. -1.
         23    2    1    2    0    0  0.24644127545E+02 -0.15079975954E+03 -0.18031967464E+03  0.26737420151E+03  0.12500351225E+03 0.  0.
          5    1    3    3  502    0  0.12369986960E+02 -0.15523109454E+03 -0.19337535539E+03  0.24832605051E+03  0.47000000000E+01 0.  1.
         -5    1    3    3    0  502  0.12274140585E+02  0.44313350016E+01  0.13055680747E+02  0.19048151006E+02  0.47000000000E+01 0.  1.
        -11    1    1    2    0    0 -0.58947508236E+02  0.72108181362E+02 -0.26295696153E+02  0.96777384666E+02  0.00000000000E+00 0.  1.
         11    1    1    2    0    0  0.34303380691E+02  0.78691578173E+02 -0.45808180592E+02  0.97300954833E+02  0.00000000000E+00 0. -1.
<mgrwt>
<rscale>  0 0.19296151E+03</rscale>
<asrwt>0</asrwt>
<pdfrwt beam="2">  1        2 0.54913546E-01 0.19741778E+03</pdfrwt>
<pdfrwt beam="1">  1       -2 0.16079153E-01 0.19741778E+03</pdfrwt>
<totfact> 0.27186758E+03</totfact>
</mgrwt>
</event>
<event>
 7    1  0.5206756E-006  0.1338040E+03  0.7546771E-02  0.1237691E+00
          3   -1    0    0  501    0  0.00000000000E+00  0.00000000000E+00  0.15079686017E+04  0.15079686017E+04  0.00000000000E+00 0. -1.
         -3   -1    0    0    0  501 -0.00000000000E+00 -0.00000000000E+00 -0.89719705381E+01  0.89719705381E+01  0.00000000000E+00 0.  1.
         23    2    1    2    0    0 -0.46200949901E+02  0.11969209574E+02  0.97164048145E+03  0.98081024071E+03  0.12500285336E+03 0.  0.
          5    1    3    3  502    0  0.52427593206E+01 -0.51221047502E+02  0.33702058008E+03  0.34096340512E+03  0.47000000000E+01 0. -1.
         -5    1    3    3    0  502 -0.51443709221E+02  0.63190257076E+02  0.63461990137E+03  0.63984683559E+03  0.47000000000E+01 0. -1.
        -11    1    1    2    0    0  0.92737101080E+01 -0.45496350159E+02  0.23357351212E+03  0.23814387488E+03  0.00000000000E+00 0. -1.
         11    1    1    2    0    0  0.36927239793E+02  0.33527140585E+02  0.29378263757E+03  0.29798645662E+03  0.00000000000E+00 0.  1.
<mgrwt>
<rscale>  0 0.12333720E+03</rscale>
<asrwt>0</asrwt>
<pdfrwt beam="1">  1        3 0.23199497E+00 0.13380397E+03</pdfrwt>
<pdfrwt beam="2">  1       -3 0.13803044E-02 0.13380397E+03</pdfrwt>
<totfact> 0.41226092E+02</totfact>
</mgrwt>
</event>
<event>
 7    1  0.5206756E-006  0.1425033E+03  0.7546771E-02  0.1221371E+00
         -2   -1    0    0    0  501 -0.00000000000E+00  0.00000000000E+00  0.52860353156E+03  0.52860353156E+03  0.00000000000E+00 0.  1.
          2   -1    0    0  501    0  0.00000000000E+00 -0.00000000000E+00 -0.31687738356E+02  0.31687738356E+02  0.00000000000E+00 0. -1.
         23    2    1    2    0    0  0.64337818787E+02  0.23270554974E+02  0.22669972630E+03  0.26776847090E+03  0.12500525768E+03 0.  0.
          5    1    3    3  502    0  0.32733023421E+02  0.49888384728E+02  0.30436019347E+02  0.67147174377E+02  0.47000000000E+01 0.  1.
         -5    1    3    3    0  502  0.31604795366E+02 -0.26617829755E+02  0.19626370695E+03  0.20062129652E+03  0.47000000000E+01 0.  1.
        -11    1    1    2    0    0 -0.24389398215E+02  0.23351955396E+02  0.31994901370E+02  0.46516989152E+02  0.00000000000E+00 0. -1.
         11    1    1    2    0    0 -0.39948420572E+02 -0.46622510370E+02  0.23822116553E+03  0.24600580987E+03  0.00000000000E+00 0.  1.
<mgrwt>
<rscale>  0 0.13418734E+03</rscale>
<asrwt>0</asrwt>
<pdfrwt beam="2">  1        2 0.48750371E-02 0.14250329E+03</pdfrwt>
<pdfrwt beam="1">  1       -2 0.81323614E-01 0.14250329E+03</pdfrwt>
<totfact> 0.21505080E+03</totfact>
</mgrwt>
</event>
<event>
 7    1  0.5206756E-006  0.1520994E+03  0.7546771E-02  0.1201710E+00
         -1   -1    0    0    0  501 -0.00000000000E+00  0.00000000000E+00  0.61853357412E+02  0.61853357412E+02  0.00000000000E+00 0.  1.
          1   -1    0    0  501    0  0.00000000000E+00 -0.00000000000E+00 -0.54001178042E+03  0.54001178042E+03  0.00000000000E+00 0. -1.
         23    2    1    2    0    0  0.81554496889E+02 -0.35835917297E+02 -0.42610811445E+03  0.45244042482E+03  0.12328367238E+03 0.  0.
          5    1    3    3  502    0 -0.10596338962E+01  0.10246961653E+01 -0.28318488882E+03  0.28322772477E+03  0.47000000000E+01 0. -1.
         -5    1    3    3    0  502  0.82614130785E+02 -0.36860613462E+02 -0.14292322563E+03  0.16921270004E+03  0.47000000000E+01 0.  1.
        -11    1    1    2    0    0 -0.54261124792E+01 -0.21141220214E+02  0.20403272329E+02  0.29877874933E+02  0.00000000000E+00 0. -1.
         11    1    1    2    0    0 -0.76128384410E+02  0.56977137511E+02 -0.72453580882E+02  0.11954683808E+03  0.00000000000E+00 0.  1.
<mgrwt>
<rscale>  0 0.14899743E+03</rscale>
<asrwt>0</asrwt>
<pdfrwt beam="2">  1        1 0.83078733E-01 0.15209935E+03</pdfrwt>
<pdfrwt beam="1">  1       -1 0.95159014E-02 0.15209935E+03</pdfrwt>
<totfact> 0.26291495E+03</totfact>
</mgrwt>
</event>
<event>
 7    1  0.5206756E-006  0.1504625E+03  0.7546771E-02  0.1209654E+00
         -2   -1    0    0    0  501 -0.00000000000E+00  0.00000000000E+00  0.34468266354E+02  0.34468266354E+02  0.00000000000E+00 0.  1.
          2   -1    0    0  501    0  0.00000000000E+00 -0.00000000000E+00 -0.54708633189E+03  0.54708633189E+03  0.00000000000E+00 0. -1.
         23    2    1    2    0    0 -0.83619251082E+01  0.83326063873E+02 -0.31937921234E+03  0.35304681691E+03  0.12500327572E+03 0.  0.
          5    1    3    3  502    0  0.53352728866E+02  0.62864357568E+02 -0.14482995685E+03  0.16672206672E+03  0.47000000000E+01 0. -1.
         -5    1    3    3    0  502 -0.61714653974E+02  0.20461706305E+02 -0.17454925550E+03  0.18632475019E+03  0.47000000000E+01 0. -1.
        -11    1    1    2    0    0  0.30881323100E+02 -0.19956950358E+02 -0.18266219853E+02  0.41055946850E+02  0.00000000000E+00 0.  1.
         11    1    1    2    0    0 -0.22519397992E+02 -0.63369113515E+02 -0.17497263334E+03  0.18745183448E+03  0.00000000000E+00 0. -1.
<mgrwt>
<rscale>  0 0.14276665E+03</rscale>
<asrwt>0</asrwt>
<pdfrwt beam="2">  1        2 0.84167119E-01 0.15046253E+03</pdfrwt>
<pdfrwt beam="1">  1       -2 0.53028108E-02 0.15046253E+03</pdfrwt>
<totfact> 0.96573761E+03</totfact>
</mgrwt>
</event>
<event>
 7    1  0.5206756E-006  0.1360091E+03  0.7546771E-02  0.1232160E+00
         -2   -1    0    0    0  501 -0.00000000000E+00  0.00000000000E+00  0.34894441918E+03  0.34894441918E+03  0.00000000000E+00 0.  1.
          2   -1    0    0  501    0  0.00000000000E+00 -0.00000000000E+00 -0.48509628932E+02  0.48509628932E+02  0.00000000000E+00 0. -1.
         23    2    1    2    0    0 -0.13341478694E+02 -0.51921048182E+02  0.89796625349E+02  0.16297824472E+03  0.12499873612E+03 0.  0.
          5    1    3    3  502    0 -0.30461607996E+02 -0.45725260642E+02 -0.14485585403E+02  0.57014307037E+02  0.47000000000E+01 0. -1.
         -5    1    3    3    0  502  0.17120129302E+02 -0.61957875396E+01  0.10428221075E+03  0.10596393769E+03  0.47000000000E+01 0. -1.
        -11    1    1    2    0    0 -0.29555918107E+02  0.32947261228E+02  0.15747899141E+03  0.16358088841E+03  0.00000000000E+00 0.  1.
         11    1    1    2    0    0  0.42897396801E+02  0.18973786953E+02  0.53159173484E+02  0.70894914974E+02  0.00000000000E+00 0. -1.
<mgrwt>
<rscale>  0 0.12687988E+03</rscale>
<asrwt>0</asrwt>
<pdfrwt beam="2">  1        2 0.74630201E-02 0.13600910E+03</pdfrwt>
<pdfrwt beam="1">  1       -2 0.53683755E-01 0.13600910E+03</pdfrwt>
<totfact> 0.29640100E+03</totfact>
</mgrwt>
</event>
<event>
 7    1  0.5206756E-006  0.1435285E+03  0.7546771E-02  0.1219354E+00
         -1   -1    0    0    0  501 -0.00000000000E+00  0.00000000000E+00  0.48949044814E+02  0.48949044814E+02  0.00000000000E+00 0.  1.
          1   -1    0    0  501    0  0.00000000000E+00 -0.00000000000E+00 -0.38122244494E+03  0.38122244494E+03  0.00000000000E+00 0. -1.
         23    2    1    2    0    0 -0.23634028089E+02 -0.66466362187E+02 -0.25337805535E+03  0.29120588044E+03  0.12499632507E+03 0.  0.
          5    1    3    3  502    0 -0.61938608613E+02 -0.19410760227E+02 -0.60141863216E+02  0.88613218882E+02  0.47000000000E+01 0.  1.
         -5    1    3    3    0  502  0.38304580524E+02 -0.47055601960E+02 -0.19323619214E+03  0.20259266156E+03  0.47000000000E+01 0.  1.
        -11    1    1    2    0    0 -0.13051712589E+02  0.16348943170E+02  0.15453464571E+02  0.26008550739E+02  0.00000000000E+00 0.  1.
         11    1    1    2    0    0  0.36685740678E+02  0.50117419017E+02 -0.94348809345E+02  0.11295705858E+03  0.00000000000E+00 0. -1.
<mgrwt>
<rscale>  0 0.13561522E+03</rscale>
<asrwt>0</asrwt>
<pdfrwt beam="2">  1        1 0.58649608E-01 0.14352848E+03</pdfrwt>
<pdfrwt beam="1">  1       -1 0.75306222E-02 0.14352848E+03</pdfrwt>
<totfact> 0.58558463E+03</totfact>
</mgrwt>
</event>
<event>
 7    1  0.5206756E-006  0.1920785E+03  0.7546771E-02  0.1160786E+00
          2   -1    0    0  501    0  0.00000000000E+00  0.00000000000E+00  0.14474906717E+04  0.14474906717E+04  0.00000000000E+00 0. -1.
         -2   -1    0    0    0  501 -0.00000000000E+00 -0.00000000000E+00 -0.46561770937E+02  0.46561770937E+02  0.00000000000E+00 0.  1.
         23    2    1    2    0    0 -0.11317305242E+03 -0.91997734609E+02  0.12466239635E+04  0.12613347916E+04  0.12498970832E+03 0.  0.
          5    1    3    3  502    0 -0.63070101243E+01  0.55417244740E+01  0.53746439534E+03  0.53755051423E+03  0.47000000000E+01 0. -1.
         -5    1    3    3    0  502 -0.10686604230E+03 -0.97539459083E+02  0.70915956817E+03  0.72378427740E+03  0.47000000000E+01 0. -1.
        -11    1    1    2    0    0  0.23815073859E+02  0.80659150259E+02  0.72372235870E+02  0.11095403007E+03  0.00000000000E+00 0.  1.
         11    1    1    2    0    0  0.89357978563E+02  0.11338584350E+02  0.81932701351E+02  0.12176362092E+03  0.00000000000E+00 0. -1.
<mgrwt>
<rscale>  0 0.18744524E+03</rscale>
<asrwt>0</asrwt>
<pdfrwt beam="1">  1        2 0.22269084E+00 0.19207850E+03</pdfrwt>
<pdfrwt beam="2">  1       -2 0.71633505E-02 0.19207850E+03</pdfrwt>
<totfact> 0.16426329E+03</totfact>
</mgrwt>
</event>
<event>
 7    1  0.5206756E-006  0.1304533E+03  0.7546771E-02  0.1241675E+00
          1   -1    0    0  501    0  0.00000000000E+00  0.00000000000E+00  0.15844598386E+03  0.15844598386E+03  0.00000000000E+00 0. -1.
         -1   -1    0    0    0  501 -0.00000000000E+00 -0.00000000000E+00 -0.97392470498E+02  0.97392470498E+02  0.00000000000E+00 0.  1.
         23    2    1    2    0    0  0.15006253447E+02  0.34247660319E+02  0.86342596441E+02  0.15643880637E+03  0.12497986358E+03 0.  0.
          5    1    3    3  502    0 -0.25334067382E+02 -0.10111567870E+02 -0.20081128612E+02  0.34196498377E+02  0.47000000000E+01 0. -1.
         -5    1    3    3    0  502  0.40340320829E+02  0.44359228188E+02  0.10642372505E+03  0.12224230800E+03  0.47000000000E+01 0. -1.
        -11    1    1    2    0    0 -0.22384000966E+01 -0.12162632565E+02  0.33286811263E+02  0.35509884116E+02  0.00000000000E+00 0. -1.
         11    1    1    2    0    0 -0.12767853350E+02 -0.22085027753E+02 -0.58575894339E+02  0.63889763872E+02  0.00000000000E+00 0.  1.
<mgrwt>
<rscale>  0 0.12086614E+03</rscale>
<asrwt>0</asrwt>
<pdfrwt beam="1">  1        1 0.24376305E-01 0.13045327E+03</pdfrwt>
<pdfrwt beam="2">  1       -1 0.14983457E-01 0.13045327E+03</pdfrwt>
<totfact> 0.60388348E+03</totfact>
</mgrwt>
</event>
<event>
 7    1  0.5206756E-006  0.1282100E+03  0.7546771E-02  0.1246663E+00
         -1   -1    0    0    0  501 -0.00000000000E+00  0.00000000000E+00  0.31932236618E+02  0.31932236618E+02  0.00000000000E+00 0.  1.
          1   -1    0    0  501    0  0.00000000000E+00 -0.00000000000E+00 -0.41000617266E+03  0.41000617266E+03  0.00000000000E+00 0. -1.
         23    2    1    2    0    0  0.10786877089E+02  0.26378593899E+02 -0.27888233390E+03  0.30694161379E+03  0.12500244471E+03 0.  0.
          5    1    3    3  502    0 -0.47678253458E+01  0.59515558654E+02 -0.25731993824E+03  0.26419779426E+03  0.47000000000E+01 0. -1.
         -5    1    3    3    0  502  0.15554702435E+02 -0.33136964755E+02 -0.21562395662E+02  0.42743819527E+02  0.47000000000E+01 0. -1.
        -11    1    1    2    0    0  0.11242642547E+01  0.10714614021E+02  0.12619546297E+02  0.16592765667E+02  0.00000000000E+00 0.  1.
         11    1    1    2    0    0 -0.11911141344E+02 -0.37093207920E+02 -0.11181114844E+03  0.11840402982E+03  0.00000000000E+00 0. -1.
<mgrwt>
<rscale>  0 0.11786376E+03</rscale>
<asrwt>0</asrwt>
<pdfrwt beam="2">  1        1 0.63077870E-01 0.12820998E+03</pdfrwt>
<pdfrwt beam="1">  1       -1 0.49126520E-02 0.12820998E+03</pdfrwt>
<totfact> 0.10025513E+04</totfact>
</mgrwt>
</event>
<event>
 7    1  0.5206756E-006  0.1676300E+03  0.7546771E-02  0.1187286E+00
          2   -1    0    0  501    0  0.00000000000E+00  0.00000000000E+00  0.80029382891E+02  0.80029382891E+02  0.00000000000E+00 0. -1.
         -2   -1    0    0    0  501 -0.00000000000E+00 -0.00000000000E+00 -0.34024730229E+03  0.34024730229E+03  0.00000000000E+00 0.  1.
         23    2    1    2    0    0 -0.10483013024E+03  0.38527602027E+02 -0.69248527363E+02  0.18137029527E+03  0.12500437248E+03 0.  0.
          5    1    3    3  502    0 -0.66791297865E+02  0.71992299068E+02 -0.36927710005E+01  0.98385441775E+02  0.47000000000E+01 0.  1.
         -5    1    3    3    0  502 -0.38038832376E+02 -0.33464697041E+02 -0.65555756363E+02  0.82984853491E+02  0.47000000000E+01 0.  1.
        -11    1    1    2    0    0  0.34612891326E+02  0.61742066280E+01 -0.13275174913E+03  0.13732880241E+03  0.00000000000E+00 0.  1.
         11    1    1    2    0    0  0.70217238915E+02 -0.44701808655E+02 -0.58217642897E+02  0.10157758750E+03  0.00000000000E+00 0. -1.
<mgrwt>
<rscale>  0 0.16125589E+03</rscale>
<asrwt>0</asrwt>
<pdfrwt beam="1">  1        2 0.12312213E-01 0.16763003E+03</pdfrwt>
<pdfrwt beam="2">  1       -2 0.52345739E-01 0.16763003E+03</pdfrwt>
<totfact> 0.16980538E+03</totfact>
</mgrwt>
</event>
<event>
 7    1  0.5206756E-006  0.1885987E+03  0.7546771E-02  0.1164711E+00
          2   -1    0    0  501    0  0.00000000000E+00  0.00000000000E+00  0.55924634712E+03  0.55924634712E+03  0.00000000000E+00 0. -1.
         -2   -1    0    0    0  501 -0.00000000000E+00 -0.00000000000E+00 -0.56928642284E+02  0.56928642284E+02  0.00000000000E+00 0.  1.
         23    2    1    2    0    0  0.13347467945E+03 -0.46173781314E+02  0.25463971476E+03  0.31687673256E+03  0.12498788408E+03 0.  0.
          5    1    3    3  502    0  0.98795540800E+02  0.23764180371E+02  0.95346519223E+02  0.13942146133E+03  0.47000000000E+01 0. -1.
         -5    1    3    3    0  502  0.34679138653E+02 -0.69937961685E+02  0.15929319554E+03  0.17745527123E+03  0.47000000000E+01 0. -1.
        -11    1    1    2    0    0 -0.28822208864E+02  0.30598674142E+02  0.14829386387E+03  0.15413652599E+03  0.00000000000E+00 0. -1.
         11    1    1    2    0    0 -0.10465247059E+03  0.15575107172E+02  0.99384126205E+02  0.14516173086E+03  0.00000000000E+00 0.  1.
<mgrwt>
<rscale>  0 0.18323256E+03</rscale>
<asrwt>0</asrwt>
<pdfrwt beam="1">  1        2 0.86037896E-01 0.18859873E+03</pdfrwt>
<pdfrwt beam="2">  1       -2 0.87582530E-02 0.18859873E+03</pdfrwt>
<totfact> 0.44089743E+03</totfact>
</mgrwt>
</event>
<event>
 7    1  0.5206756E-006  0.1297909E+03  0.7546771E-02  0.1241371E+00
         -1   -1    0    0    0  501 -0.00000000000E+00  0.00000000000E+00  0.62219855655E+02  0.62219855655E+02  0.00000000000E+00 0.  1.
          1   -1    0    0  501    0  0.00000000000E+00 -0.00000000000E+00 -0.20901922500E+03  0.20901922500E+03  0.00000000000E+00 0. -1.
         23    2    1    2    0    0  0.17196932094E+01  0.34889278969E+02 -0.87064313939E+02  0.15628777022E+03  0.12500181290E+03 0.  0.
          5    1    3    3  502    0 -0.25453022231E+02 -0.16292827833E+02 -0.92949910182E+02  0.97852380566E+02  0.47000000000E+01 0.  1.
         -5    1    3    3    0  502  0.27172715440E+02  0.51182106802E+02  0.58855962434E+01  0.58435389656E+02  0.47000000000E+01 0.  1.
        -11    1    1    2    0    0 -0.19016031904E+02 -0.10529493005E+02  0.20164191645E+02  0.29649187460E+02  0.00000000000E+00 0.  1.
         11    1    1    2    0    0  0.17296338694E+02 -0.24359785964E+02 -0.79899247046E+02  0.85302122969E+02  0.00000000000E+00 0. -1.
<mgrwt>
<rscale>  0 0.12105253E+03</rscale>
<asrwt>0</asrwt>
<pdfrwt beam="2">  1        1 0.32156804E-01 0.12979088E+03</pdfrwt>
<pdfrwt beam="1">  1       -1 0.95722856E-02 0.12979088E+03</pdfrwt>
<totfact> 0.85279748E+03</totfact>
</mgrwt>
</event>
<event>
 7    1  0.5206756E-006  0.1308202E+03  0.7546771E-02  0.1239161E+00
         -4   -1    0    0    0  501 -0.00000000000E+00  0.00000000000E+00  0.20707392681E+02  0.20707392681E+02  0.00000000000E+00 0.  1.
          4   -1    0    0  501    0  0.00000000000E+00 -0.00000000000E+00 -0.64496180760E+03  0.64496180760E+03  0.00000000000E+00 0. -1.
         23    2    1    2    0    0  0.22722144312E+02  0.31198448259E+02 -0.35306582809E+03  0.37652278988E+03  0.12499717324E+03 0.  0.
          5    1    3    3  502    0 -0.37550992821E+01 -0.31661232019E+02 -0.23361845690E+02  0.39804525090E+02  0.47000000000E+01 0. -1.
         -5    1    3    3    0  502  0.26477243594E+02  0.62859680278E+02 -0.32970398240E+03  0.33671826479E+03  0.47000000000E+01 0. -1.
        -11    1    1    2    0    0 -0.52608696782E+02 -0.10851349574E+02 -0.22008989720E+03  0.22655019227E+03  0.00000000000E+00 0. -1.
         11    1    1    2    0    0  0.29886552470E+02 -0.20347098685E+02 -0.51098689627E+02  0.62596218137E+02  0.00000000000E+00 0.  1.
<mgrwt>
<rscale>  0 0.12241760E+03</rscale>
<asrwt>0</asrwt>
<pdfrwt beam="2">  1        4 0.99224883E-01 0.13082023E+03</pdfrwt>
<pdfrwt beam="1">  1       -4 0.31857531E-02 0.13082023E+03</pdfrwt>
<totfact> 0.70396193E+02</totfact>
</mgrwt>
</event>
<event>
 7    1  0.5206756E-006  0.1382547E+03  0.7546771E-02  0.1227350E+00
          3   -1    0    0  501    0  0.00000000000E+00  0.00000000000E+00  0.23475163686E+03  0.23475163686E+03  0.00000000000E+00 0. -1.
         -3   -1    0    0    0  501 -0.00000000000E+00 -0.00000000000E+00 -0.67161498056E+02  0.67161498056E+02  0.00000000000E+00 0.  1.
         23    2    1    2    0    0  0.48406068691E+02 -0.33861000884E+02  0.12202866710E+03  0.18440543682E+03  0.12499861865E+03 0.  0.
          5    1    3    3  502    0  0.12140686218E+02  0.35241446656E+02 -0.21879575618E+01  0.37632871038E+02  0.47000000000E+01 0. -1.
         -5    1    3    3    0  502  0.36265382473E+02 -0.69102447540E+02  0.12421662466E+03  0.14677256578E+03  0.47000000000E+01 0. -1.
        -11    1    1    2    0    0 -0.13078872283E+02  0.43933692847E+02 -0.13648398063E+02  0.47827868832E+02  0.00000000000E+00 0.  1.
         11    1    1    2    0    0 -0.35327196408E+02 -0.10072691963E+02  0.59209869766E+02  0.69679829270E+02  0.00000000000E+00 0. -1.
<mgrwt>
<rscale>  0 0.13007160E+03</rscale>
<asrwt>0</asrwt>
<pdfrwt beam="1">  1        3 0.36115636E-01 0.13825473E+03</pdfrwt>
<pdfrwt beam="2">  1       -3 0.10332538E-01 0.13825473E+03</pdfrwt>
<totfact> 0.12201476E+03</totfact>
</mgrwt>
</event>
<event>
 7    1  0.5206756E-006  0.1559524E+03  0.7546771E-02  0.1201601E+00
          2   -1    0    0  501    0  0.00000000000E+00  0.00000000000E+00  0.24839043870E+03  0.24839043870E+03  0.00000000000E+00 0. -1.
         -2   -1    0    0    0  501 -0.00000000000E+00 -0.00000000000E+00 -0.83791153084E+02  0.83791153084E+02  0.00000000000E+00 0.  1.
         23    2    1    2    0    0 -0.70519400757E+02  0.61026568365E+02  0.11057208567E+03  0.19117355345E+03  0.12499565384E+03 0.  0.
          5    1    3    3  502    0 -0.33989986030E+02  0.87543872852E+02  0.29998374643E+02  0.98697726952E+02  0.47000000000E+01 0.  1.
         -5    1    3    3    0  502 -0.36529414727E+02 -0.26517304487E+02  0.80573711027E+02  0.92475826497E+02  0.47000000000E+01 0.  1.
        -11    1    1    2    0    0  0.28938871166E+02 -0.28036755976E+02  0.74030891547E+02  0.84285768984E+02  0.00000000000E+00 0. -1.
         11    1    1    2    0    0  0.41580529591E+02 -0.32989812389E+02 -0.20003691602E+02  0.56722269351E+02  0.00000000000E+00 0.  1.
<mgrwt>
<rscale>  0 0.14908573E+03</rscale>
<asrwt>0</asrwt>
<pdfrwt beam="1">  1        2 0.38213913E-01 0.15595237E+03</pdfrwt>
<pdfrwt beam="2">  1       -2 0.12890947E-01 0.15595237E+03</pdfrwt>
<totfact> 0.56901603E+03</totfact>
</mgrwt>
</event>
<event>
 7    1  0.5206756E-006  0.1430390E+03  0.7546771E-02  0.1217612E+00
          2   -1    0    0  501    0  0.00000000000E+00  0.00000000000E+00  0.21229272963E+03  0.21229272963E+03  0.00000000000E+00 0.  1.
         -2   -1    0    0    0  501 -0.00000000000E+00 -0.00000000000E+00 -0.11162608123E+03  0.11162608123E+03  0.00000000000E+00 0. -1.
         23    2    1    2    0    0  0.69522692366E+02 -0.83860406944E+00  0.13758682847E+03  0.19846990796E+03  0.12500424387E+03 0.  0.
          5    1    3    3  502    0  0.49127271584E+02 -0.77334926177E+01 -0.85506029196E+01  0.50680356467E+02  0.47000000000E+01 0.  1.
         -5    1    3    3    0  502  0.20395420783E+02  0.68948885483E+01  0.14613743139E+03  0.14778955149E+03  0.47000000000E+01 0.  1.
        -11    1    1    2    0    0 -0.37290489816E+02  0.22869147738E+02 -0.64295714712E+02  0.77765786046E+02  0.00000000000E+00 0. -1.
         11    1    1    2    0    0 -0.32232202550E+02 -0.22030543669E+02  0.27375534646E+02  0.47683116852E+02  0.00000000000E+00 0.  1.
<mgrwt>
<rscale>  0 0.13686405E+03</rscale>
<asrwt>0</asrwt>
<pdfrwt beam="1">  1        2 0.32660420E-01 0.14303905E+03</pdfrwt>
<pdfrwt beam="2">  1       -2 0.17173243E-01 0.14303905E+03</pdfrwt>
<totfact> 0.41911802E+03</totfact>
</mgrwt>
</event>
<event>
 7    1  0.5206756E-006  0.1251329E+03  0.7546771E-02  0.1250455E+00
          1   -1    0    0  501    0  0.00000000000E+00  0.00000000000E+00  0.13925345721E+04  0.13925345721E+04  0.00000000000E+00 0. -1.
         -1   -1    0    0    0  501 -0.00000000000E+00 -0.00000000000E+00 -0.10039560382E+02  0.10039560382E+02  0.00000000000E+00 0.  1.
         23    2    1    2    0    0 -0.38501130014E+01  0.43905510198E+01  0.10614838701E+04  0.10688340559E+04  0.12499652892E+03 0.  0.
          5    1    3    3  502    0  0.28798860869E+02 -0.48736777589E+02  0.34699618246E+03  0.35161497198E+03  0.47000000000E+01 0. -1.
         -5    1    3    3    0  502 -0.32648973870E+02  0.53127328609E+02  0.71448768763E+03  0.71721908390E+03  0.47000000000E+01 0. -1.
        -11    1    1    2    0    0  0.40466486517E+02  0.20007684942E+02  0.12647192599E+03  0.13428697648E+03  0.00000000000E+00 0.  1.
         11    1    1    2    0    0 -0.36616373516E+02 -0.24398235961E+02  0.19453921561E+03  0.19945310009E+03  0.00000000000E+00 0. -1.
<mgrwt>
<rscale>  0 0.11564772E+03</rscale>
<asrwt>0</asrwt>
<pdfrwt beam="1">  1        1 0.21423594E+00 0.12513286E+03</pdfrwt>
<pdfrwt beam="2">  1       -1 0.15445489E-02 0.12513286E+03</pdfrwt>
<totfact> 0.81987754E+03</totfact>
</mgrwt>
</event>
<event>
 7    1  0.5206756E-006  0.1300129E+03  0.7546771E-02  0.1247830E+00
         -1   -1    0    0    0  501 -0.00000000000E+00  0.00000000000E+00  0.52081547990E+02  0.52081547990E+02  0.00000000000E+00 0.  1.
          1   -1    0    0  501    0  0.00000000000E+00 -0.00000000000E+00 -0.36627994576E+03  0.36627994576E+03  0.00000000000E+00 0. -1.
         23    2    1    2    0    0  0.22773725014E+02 -0.27536573628E+02 -0.30565317817E+03  0.33215543059E+03  0.12500583709E+03 0.  0.
          5    1    3    3  502    0  0.37258104847E+01  0.39500861258E+02 -0.36600855698E+02  0.54184059849E+02  0.47000000000E+01 0.  1.
         -5    1    3    3    0  502  0.19047914529E+02 -0.67037434887E+02 -0.26905232247E+03  0.27797137074E+03  0.47000000000E+01 0.  1.
        -11    1    1    2    0    0 -0.26861880235E+02 -0.18740380236E+02 -0.19974935600E+02  0.38363531033E+02  0.00000000000E+00 0. -1.
         11    1    1    2    0    0  0.40881552212E+01  0.46276953864E+02  0.11429716003E+02  0.47842532123E+02  0.00000000000E+00 0.  1.
<mgrwt>
<rscale>  0 0.11717591E+03</rscale>
<asrwt>0</asrwt>
<pdfrwt beam="2">  1        1 0.56350759E-01 0.13001294E+03</pdfrwt>
<pdfrwt beam="1">  1       -1 0.80125461E-02 0.13001294E+03</pdfrwt>
<totfact> 0.55751963E+03</totfact>
</mgrwt>
</event>
<event>
 7    1  0.5206756E-006  0.1401054E+03  0.7546771E-02  0.1224612E+00
         -1   -1    0    0    0  501 -0.00000000000E+00  0.00000000000E+00  0.56471397634E+02  0.56471397634E+02  0.00000000000E+00 0.  1.
          1   -1    0    0  501    0  0.00000000000E+00 -0.00000000000E+00 -0.30422114041E+03  0.30422114041E+03  0.00000000000E+00 0. -1.
         23    2    1    2    0    0 -0.38760784735E+02  0.50021643804E+02 -0.19066624745E+03  0.23660755502E+03  0.12499981559E+03 0.  0.
          5    1    3    3  502    0 -0.10732492584E+02 -0.34998522498E+02 -0.10994974626E+03  0.11597896222E+03  0.47000000000E+01 0. -1.
         -5    1    3    3    0  502 -0.28028292151E+02  0.85020166302E+02 -0.80716501184E+02  0.12062859281E+03  0.47000000000E+01 0. -1.
        -11    1    1    2    0    0  0.52224887311E+02  0.59861031617E+01 -0.27821721431E+02  0.59475376999E+02  0.00000000000E+00 0.  1.
         11    1    1    2    0    0 -0.13464102577E+02 -0.56007746966E+02 -0.29261773897E+02  0.64609606019E+02  0.00000000000E+00 0. -1.
<mgrwt>
<rscale>  0 0.13193560E+03</rscale>
<asrwt>0</asrwt>
<pdfrwt beam="2">  1        1 0.46803252E-01 0.14010538E+03</pdfrwt>
<pdfrwt beam="1">  1       -1 0.86879073E-02 0.14010538E+03</pdfrwt>
<totfact> 0.62429797E+03</totfact>
</mgrwt>
</event>
<event>
 7    1  0.5206756E-006  0.1171930E+03  0.7546771E-02  0.1260198E+00
          2   -1    0    0  501    0  0.00000000000E+00  0.00000000000E+00  0.12572197291E+04  0.12572197291E+04  0.00000000000E+00 0. -1.
         -2   -1    0    0    0  501 -0.00000000000E+00 -0.00000000000E+00 -0.10590271827E+02  0.10590271827E+02  0.00000000000E+00 0.  1.
         23    2    1    2    0    0  0.85269194492E+01  0.19260739453E+02  0.95397233215E+03  0.96114379893E+03  0.11528446248E+03 0.  0.
          5    1    3    3  502    0  0.53255345380E+02 -0.16826828557E+02  0.58687111933E+03  0.58954141048E+03  0.47000000000E+01 0. -1.
         -5    1    3    3    0  502 -0.44728425931E+02  0.36087568009E+02  0.36710121282E+03  0.37160238845E+03  0.47000000000E+01 0.  1.
        -11    1    1    2    0    0  0.20772677193E+02  0.22674174327E+02  0.50191041589E+02  0.58862237088E+02  0.00000000000E+00 0. -1.
         11    1    1    2    0    0 -0.29299596642E+02 -0.41934913780E+02  0.24246608358E+03  0.24780396495E+03  0.00000000000E+00 0.  1.
<mgrwt>
<rscale>  0 0.11020086E+03</rscale>
<asrwt>0</asrwt>
<pdfrwt beam="1">  1        2 0.19341830E+00 0.11719297E+03</pdfrwt>
<pdfrwt beam="2">  1       -2 0.16292736E-02 0.11719297E+03</pdfrwt>
<totfact> 0.18436362E+04</totfact>
</mgrwt>
</event>
<event>
 7    1  0.5206756E-006  0.2345686E+03  0.7546771E-02  0.1126406E+00
         -1   -1    0    0    0  501 -0.00000000000E+00  0.00000000000E+00  0.12085714736E+03  0.12085714736E+03  0.00000000000E+00 0.  1.
          1   -1    0    0  501    0  0.00000000000E+00 -0.00000000000E+00 -0.43079446065E+03  0.43079446065E+03  0.00000000000E+00 0. -1.
         23    2    1    2    0    0 -0.25799767245E+02 -0.19680208155E+03 -0.19559022419E+03  0.30541437509E+03  0.12500286963E+03 0.  0.
          5    1    3    3  502    0 -0.72409490795E+02 -0.79916656044E+02 -0.78559358753E+02  0.13350456591E+03  0.47000000000E+01 0. -1.
         -5    1    3    3    0  502  0.46609723550E+02 -0.11688542551E+03 -0.11703086544E+03  0.17190980918E+03  0.47000000000E+01 0. -1.
        -11    1    1    2    0    0  0.58352286016E+02  0.14513570666E+03 -0.90203884424E+02  0.18057160185E+03  0.00000000000E+00 0. -1.
         11    1    1    2    0    0 -0.32552518771E+02  0.51666374898E+02 -0.24143204675E+02  0.65665631082E+02  0.00000000000E+00 0.  1.
<mgrwt>
<rscale>  0 0.23033224E+03</rscale>
<asrwt>0</asrwt>
<pdfrwt beam="2">  1        1 0.66276073E-01 0.23456855E+03</pdfrwt>
<pdfrwt beam="1">  1       -1 0.18593407E-01 0.23456855E+03</pdfrwt>
<totfact> 0.12485421E+03</totfact>
</mgrwt>
</event>
<event>
 7    1  0.5206756E-006  0.1596799E+03  0.7546771E-02  0.1197271E+00
          2   -1    0    0  501    0  0.00000000000E+00  0.00000000000E+00  0.13529009426E+04  0.13529009426E+04  0.00000000000E+00 0. -1.
         -2   -1    0    0    0  501 -0.00000000000E+00 -0.00000000000E+00 -0.19956352922E+02  0.19956352922E+02  0.00000000000E+00 0.  1.
         23    2    1    2    0    0 -0.92492807072E+02  0.36291097769E+02  0.10240163000E+04  0.10363913631E+04  0.12500284687E+03 0.  0.
          5    1    3    3  502    0 -0.72306764487E+02 -0.29421606794E+02  0.74067835188E+03  0.74479554918E+03  0.47000000000E+01 0.  1.
         -5    1    3    3    0  502 -0.20186042586E+02  0.65712704563E+02  0.28333794815E+03  0.29159581396E+03  0.47000000000E+01 0.  1.
        -11    1    1    2    0    0  0.33480965557E+02 -0.95290944717E+01  0.19555864506E+02  0.39927566075E+02  0.00000000000E+00 0.  1.
         11    1    1    2    0    0  0.59011841515E+02 -0.26762003298E+02  0.28937242514E+03  0.29653836630E+03  0.00000000000E+00 0. -1.
<mgrwt>
<rscale>  0 0.15263590E+03</rscale>
<asrwt>0</asrwt>
<pdfrwt beam="1">  1        2 0.20813853E+00 0.15967991E+03</pdfrwt>
<pdfrwt beam="2">  1       -2 0.30702092E-02 0.15967991E+03</pdfrwt>
<totfact> 0.66054692E+03</totfact>
</mgrwt>
</event>
<event>
 7    1  0.5206756E-006  0.2376457E+03  0.7546771E-02  0.1124133E+00
         -1   -1    0    0    0  501 -0.00000000000E+00  0.00000000000E+00  0.19160505972E+03  0.19160505972E+03  0.00000000000E+00 0.  1.
          1   -1    0    0  501    0  0.00000000000E+00 -0.00000000000E+00 -0.28042917480E+03  0.28042917480E+03  0.00000000000E+00 0. -1.
         23    2    1    2    0    0 -0.42685489710E+02  0.19756153791E+03 -0.77194269270E+02  0.24986880242E+03  0.12499140340E+03 0.  0.
          5    1    3    3  502    0 -0.68327359279E+02  0.19758556696E+03 -0.56591116711E+02  0.21664101364E+03  0.47000000000E+01 0.  1.
         -5    1    3    3    0  502  0.25641869568E+02 -0.24029056662E-01 -0.20603152558E+02  0.33227788787E+02  0.47000000000E+01 0.  1.
        -11    1    1    2    0    0  0.63015094357E+02 -0.17138232739E+03 -0.28765901446E+02  0.18485205259E+03  0.00000000000E+00 0. -1.
         11    1    1    2    0    0 -0.20329604647E+02 -0.26179210514E+02  0.17136055637E+02  0.37313379518E+02  0.00000000000E+00 0.  1.
<mgrwt>
<rscale>  0 0.23359717E+03</rscale>
<asrwt>0</asrwt>
<pdfrwt beam="2">  1        1 0.43142950E-01 0.23764567E+03</pdfrwt>
<pdfrwt beam="1">  1       -1 0.29477702E-01 0.23764567E+03</pdfrwt>
<totfact> 0.10053105E+03</totfact>
</mgrwt>
</event>
<event>
 7    1  0.5206756E-006  0.1391501E+03  0.7546771E-02  0.1226513E+00
         -1   -1    0    0    0  501 -0.00000000000E+00  0.00000000000E+00  0.89081679842E+03  0.89081679842E+03  0.00000000000E+00 0.  1.
          1   -1    0    0  501    0  0.00000000000E+00 -0.00000000000E+00 -0.20339964447E+02  0.20339964447E+02  0.00000000000E+00 0. -1.
         23    2    1    2    0    0 -0.60191371301E+02  0.10781797285E+02  0.30230050049E+03  0.33278874548E+03  0.12499403261E+03 0.  0.
          5    1    3    3  502    0  0.30555147247E+02  0.21651761011E+02  0.40063544125E+02  0.55041741852E+02  0.47000000000E+01 0. -1.
         -5    1    3    3    0  502 -0.90746518548E+02 -0.10869963725E+02  0.26223695636E+03  0.27774700362E+03  0.47000000000E+01 0. -1.
        -11    1    1    2    0    0 -0.23267967562E+02 -0.72960300245E+01  0.14290983150E+03  0.14497534379E+03  0.00000000000E+00 0.  1.
         11    1    1    2    0    0  0.83459338863E+02 -0.34857672610E+01  0.42526650198E+03  0.43339267360E+03  0.00000000000E+00 0. -1.
<mgrwt>
<rscale>  0 0.13063733E+03</rscale>
<asrwt>0</asrwt>
<pdfrwt beam="2">  1        1 0.31292260E-02 0.13915012E+03</pdfrwt>
<pdfrwt beam="1">  1       -1 0.13704871E+00 0.13915012E+03</pdfrwt>
<totfact> 0.14958673E+03</totfact>
</mgrwt>
</event>
<event>
 7    1  0.5206756E-006  0.1961952E+03  0.7546771E-02  0.1157729E+00
         -2   -1    0    0    0  501 -0.00000000000E+00  0.00000000000E+00  0.78410723293E+02  0.78410723293E+02  0.00000000000E+00 0.  1.
          2   -1    0    0  501    0  0.00000000000E+00 -0.00000000000E+00 -0.46018452293E+03  0.46018452293E+03  0.00000000000E+00 0. -1.
         23    2    1    2    0    0 -0.13222931799E+03 -0.73356897949E+02 -0.25652338355E+03  0.32295016074E+03  0.12500693180E+03 0.  0.
          5    1    3    3  502    0 -0.15671327360E+03 -0.62489651677E+02 -0.22601356965E+03  0.28207841172E+03  0.47000000000E+01 0.  1.
         -5    1    3    3    0  502  0.24483955609E+02 -0.10867246272E+02 -0.30509813901E+02  0.40871749021E+02  0.47000000000E+01 0.  1.
        -11    1    1    2    0    0  0.75860199454E+02  0.18321014023E+01 -0.24277047791E+02  0.79671208766E+02  0.00000000000E+00 0.  1.
         11    1    1    2    0    0  0.56369118540E+02  0.71524796546E+02 -0.10097336829E+03  0.13597387672E+03  0.00000000000E+00 0. -1.
<mgrwt>
<rscale>  0 0.19081469E+03</rscale>
<asrwt>0</asrwt>
<pdfrwt beam="2">  1        2 0.70797619E-01 0.19619521E+03</pdfrwt>
<pdfrwt beam="1">  1       -2 0.12063188E-01 0.19619521E+03</pdfrwt>
<totfact> 0.33006597E+03</totfact>
</mgrwt>
</event>
<event>
 7    1  0.5206756E-006  0.1252202E+03  0.7546771E-02  0.1265581E+00
          2   -1    0    0  501    0  0.00000000000E+00  0.00000000000E+00  0.27106193095E+03  0.27106193095E+03  0.00000000000E+00 0.  1.
         -2   -1    0    0    0  501 -0.00000000000E+00 -0.00000000000E+00 -0.34530432300E+02  0.34530432300E+02  0.00000000000E+00 0. -1.
         23    2    1    2    0    0 -0.59991068481E+01 -0.45399868285E+01  0.16545541250E+03  0.20749839811E+03  0.12499396358E+03 0.  0.
          5    1    3    3  502    0 -0.18572302661E+01 -0.41876014065E+02  0.48109231917E+01  0.42453325431E+02  0.47000000000E+01 0. -1.
         -5    1    3    3    0  502 -0.41418765820E+01  0.37336027236E+02  0.16064448931E+03  0.16504507268E+03  0.47000000000E+01 0. -1.
        -11    1    1    2    0    0 -0.58995977617E+01  0.17175708768E+02 -0.59702771070E+01  0.19116862560E+02  0.00000000000E+00 0. -1.
         11    1    1    2    0    0  0.11898704610E+02 -0.12635721939E+02  0.77046363262E+02  0.78977102582E+02  0.00000000000E+00 0.  1.
<mgrwt>
<rscale>  0 0.10733777E+03</rscale>
<asrwt>0</asrwt>
<pdfrwt beam="1">  1        2 0.41701834E-01 0.12522017E+03</pdfrwt>
<pdfrwt beam="2">  1       -2 0.53123743E-02 0.12522017E+03</pdfrwt>
<totfact> 0.20182532E+04</totfact>
</mgrwt>
</event>
<event>
 7    1  0.5206756E-006  0.1540165E+03  0.7546771E-02  0.1206275E+00
          2   -1    0    0  501    0  0.00000000000E+00  0.00000000000E+00  0.69262300543E+03  0.69262300543E+03  0.00000000000E+00 0. -1.
         -2   -1    0    0    0  501 -0.00000000000E+00 -0.00000000000E+00 -0.28485984201E+02  0.28485984201E+02  0.00000000000E+00 0.  1.
         23    2    1    2    0    0  0.60090808917E+02 -0.66978245743E+02  0.43397517183E+03  0.46049487312E+03  0.12499635069E+03 0.  0.
          5    1    3    3  502    0 -0.12266117079E+02  0.13726098530E+02  0.74827880743E+01  0.20419244022E+02  0.47000000000E+01 0. -1.
         -5    1    3    3    0  502  0.72356925996E+02 -0.80704344273E+02  0.42649238375E+03  0.44007562910E+03  0.47000000000E+01 0. -1.
        -11    1    1    2    0    0 -0.47551934709E+02  0.28531752006E+02  0.45957962893E+02  0.72023480341E+02  0.00000000000E+00 0.  1.
         11    1    1    2    0    0 -0.12538874207E+02  0.38446493737E+02  0.18420388651E+03  0.18859063617E+03  0.00000000000E+00 0. -1.
<mgrwt>
<rscale>  0 0.14537451E+03</rscale>
<asrwt>0</asrwt>
<pdfrwt beam="1">  1        2 0.10655737E+00 0.15401649E+03</pdfrwt>
<pdfrwt beam="2">  1       -2 0.43824596E-02 0.15401649E+03</pdfrwt>
<totfact> 0.98165751E+03</totfact>
</mgrwt>
</event>
<event>
 7    1  0.5206756E-006  0.2622465E+03  0.7546771E-02  0.1107888E+00
         -1   -1    0    0    0  501 -0.00000000000E+00  0.00000000000E+00  0.53450055967E+02  0.53450055967E+02  0.00000000000E+00 0.  1.
          1   -1    0    0  501    0  0.00000000000E+00 -0.00000000000E+00 -0.12233249954E+04  0.12233249954E+04  0.00000000000E+00 0. -1.
         23    2    1    2    0    0 -0.21392998429E+03 -0.85919157019E+02 -0.63082741240E+03  0.68316650096E+03  0.12500041633E+03 0.  0.
          5    1    3    3  502    0 -0.99935377364E+02 -0.99597127546E+02 -0.41953826862E+03  0.44265236507E+03  0.47000000000E+01 0. -1.
         -5    1    3    3    0  502 -0.11399460693E+03  0.13677970527E+02 -0.21128914378E+03  0.24051413590E+03  0.47000000000E+01 0. -1.
        -11    1    1    2    0    0  0.17510582759E+03  0.25794881273E+02 -0.38787451964E+03  0.42634970358E+03  0.00000000000E+00 0. -1.
         11    1    1    2    0    0  0.38824156707E+02  0.60124275746E+02 -0.15117300743E+03  0.16725884686E+03  0.00000000000E+00 0.  1.
<mgrwt>
<rscale>  0 0.25876461E+03</rscale>
<asrwt>0</asrwt>
<pdfrwt beam="2">  1        1 0.18820384E+00 0.26224653E+03</pdfrwt>
<pdfrwt beam="1">  1       -1 0.82230858E-02 0.26224653E+03</pdfrwt>
<totfact> 0.91180646E+02</totfact>
</mgrwt>
</event>
<event>
 7    1  0.5206756E-006  0.1757455E+03  0.7546771E-02  0.1177417E+00
         -2   -1    0    0    0  501 -0.00000000000E+00  0.00000000000E+00  0.17986198923E+02  0.17986198923E+02  0.00000000000E+00 0.  1.
          2   -1    0    0  501    0  0.00000000000E+00 -0.00000000000E+00 -0.15362701080E+04  0.15362701080E+04  0.00000000000E+00 0. -1.
         23    2    1    2    0    0  0.79037056276E+02  0.94949875487E+02 -0.87506749278E+03  0.89254109189E+03  0.12499659458E+03 0.  0.
          5    1    3    3  502    0  0.53266679999E+01 -0.14405392941E+02 -0.13661541862E+02  0.21085930471E+02  0.47000000000E+01 0. -1.
         -5    1    3    3    0  502  0.73710388276E+02  0.10935526843E+03 -0.86140595092E+03  0.87145516141E+03  0.47000000000E+01 0. -1.
        -11    1    1    2    0    0 -0.23361505251E+02 -0.94924894704E+02 -0.35750110674E+03  0.37062587184E+03  0.00000000000E+00 0.  1.
         11    1    1    2    0    0 -0.55675551025E+02 -0.24980782790E-01 -0.28571530957E+03  0.29108934321E+03  0.00000000000E+00 0. -1.
<mgrwt>
<rscale>  0 0.17041373E+03</rscale>
<asrwt>0</asrwt>
<pdfrwt beam="2">  1        2 0.23634924E+00 0.17574551E+03</pdfrwt>
<pdfrwt beam="1">  1       -2 0.27671076E-02 0.17574551E+03</pdfrwt>
<totfact> 0.61733090E+03</totfact>
</mgrwt>
</event>
<event>
 7    1  0.5206756E-006  0.1292713E+03  0.7546771E-02  0.1241029E+00
          2   -1    0    0  501    0  0.00000000000E+00  0.00000000000E+00  0.18357190464E+04  0.18357190464E+04  0.00000000000E+00 0. -1.
         -2   -1    0    0    0  501 -0.00000000000E+00 -0.00000000000E+00 -0.12299801637E+02  0.12299801637E+02  0.00000000000E+00 0.  1.
         23    2    1    2    0    0  0.15887078482E+01 -0.32894252615E+02  0.15735033608E+04  0.15788045814E+04  0.12500609599E+03 0.  0.
          5    1    3    3  502    0  0.51467399686E+02 -0.45500291868E+02  0.60131483334E+03  0.60524440401E+03  0.47000000000E+01 0. -1.
         -5    1    3    3    0  502 -0.49878691837E+02  0.12606039253E+02  0.97218852746E+03  0.97356017741E+03  0.47000000000E+01 0. -1.
        -11    1    1    2    0    0 -0.53303805337E+01  0.44632388505E+02  0.25263090393E+03  0.25659859056E+03  0.00000000000E+00 0. -1.
         11    1    1    2    0    0  0.37416726855E+01 -0.11738135890E+02 -0.27150199662E+01  0.12615676045E+02  0.00000000000E+00 0.  1.
<mgrwt>
<rscale>  0 0.12126245E+03</rscale>
<asrwt>0</asrwt>
<pdfrwt beam="1">  1        2 0.28241810E+00 0.12927134E+03</pdfrwt>
<pdfrwt beam="2">  1       -2 0.18922786E-02 0.12927134E+03</pdfrwt>
<totfact> 0.74771306E+03</totfact>
</mgrwt>
</event>
<event>
 7    1  0.5206756E-006  0.1282077E+03  0.7546771E-02  0.1245276E+00
          2   -1    0    0  501    0  0.00000000000E+00  0.00000000000E+00  0.60277446033E+02  0.60277446033E+02  0.00000000000E+00 0. -1.
         -2   -1    0    0    0  501 -0.00000000000E+00 -0.00000000000E+00 -0.21100295832E+03  0.21100295832E+03  0.00000000000E+00 0.  1.
         23    2    1    2    0    0  0.28501417275E+02  0.55601237536E+00 -0.64139389054E+02  0.14335648442E+03  0.12499832183E+03 0.  0.
          5    1    3    3  502    0 -0.10533014681E+02  0.43355021562E+02  0.13061455941E+02  0.46725730858E+02  0.47000000000E+01 0. -1.
         -5    1    3    3    0  502  0.39034431955E+02 -0.42799009187E+02 -0.77200844995E+02  0.96630753559E+02  0.47000000000E+01 0. -1.
        -11    1    1    2    0    0 -0.24224338550E+02 -0.30697151106E+02 -0.32939239272E+01  0.39242624772E+02  0.00000000000E+00 0. -1.
         11    1    1    2    0    0 -0.42770787252E+01  0.30141138731E+02 -0.83292199303E+02  0.88681295159E+02  0.00000000000E+00 0.  1.
<mgrwt>
<rscale>  0 0.11868887E+03</rscale>
<asrwt>0</asrwt>
<pdfrwt beam="1">  1        2 0.92734532E-02 0.12820772E+03</pdfrwt>
<pdfrwt beam="2">  1       -2 0.32461994E-01 0.12820772E+03</pdfrwt>
<totfact> 0.58790081E+03</totfact>
</mgrwt>
</event>
<event>
 7    1  0.5206756E-006  0.1582841E+03  0.7546771E-02  0.1198537E+00
         -2   -1    0    0    0  501 -0.00000000000E+00  0.00000000000E+00  0.40563165234E+02  0.40563165234E+02  0.00000000000E+00 0.  1.
          2   -1    0    0  501    0  0.00000000000E+00 -0.00000000000E+00 -0.71678705345E+03  0.71678705345E+03  0.00000000000E+00 0. -1.
         23    2    1    2    0    0 -0.94227258710E+02 -0.23486874991E+02 -0.55553535108E+03  0.57764469297E+03  0.12499382159E+03 0.  0.
          5    1    3    3  502    0 -0.55081133033E+02 -0.11484696776E+02 -0.68064373584E+02  0.88434599719E+02  0.47000000000E+01 0.  1.
         -5    1    3    3    0  502 -0.39146125678E+02 -0.12002178215E+02 -0.48747097750E+03  0.48921009326E+03  0.47000000000E+01 0.  1.
        -11    1    1    2    0    0  0.43845649101E+02  0.98451028604E+01  0.34204195901E+01  0.45067352547E+02  0.00000000000E+00 0.  1.
         11    1    1    2    0    0  0.50381609609E+02  0.13641772130E+02 -0.12410895672E+03  0.13463817316E+03  0.00000000000E+00 0. -1.
<mgrwt>
<rscale>  0 0.15158687E+03</rscale>
<asrwt>0</asrwt>
<pdfrwt beam="2">  1        2 0.11027492E+00 0.15828413E+03</pdfrwt>
<pdfrwt beam="1">  1       -2 0.62404875E-02 0.15828413E+03</pdfrwt>
<totfact> 0.55323766E+03</totfact>
</mgrwt>
</event>
<event>
 6    1  0.5206756E-006  0.4616659E+03  0.7546771E-02  0.1038056E+00
         -1   -1    0    0    0  501 -0.00000000000E+00  0.00000000000E+00  0.16699737191E+03  0.16699737191E+03  0.00000000000E+00 0.  1.
          1   -1    0    0  501    0  0.00000000000E+00 -0.00000000000E+00 -0.10369916963E+04  0.10369916963E+04  0.00000000000E+00 0. -1.
          5    1    1    2  502    0  0.37033308148E+03 -0.58333156175E+02 -0.63558274214E+03  0.73792740866E+03  0.47000000000E+01 0. -1.
         -5    1    1    2    0  502 -0.78480522364E+02  0.29425669079E+02 -0.10043835794E+03  0.13090078738E+03  0.47000000000E+01 0.  1.
        -11    1    1    2    0    0 -0.16045348392E+03  0.78468303647E+00 -0.11938427975E+03  0.19999635617E+03  0.00000000000E+00 0. -1.
         11    1    1    2    0    0 -0.13139907520E+03  0.28122804059E+02 -0.14588944505E+02  0.13516451595E+03  0.00000000000E+00 0.  1.
<mgrwt>
<rscale>  0 0.41697317E+03</rscale>
<asrwt>0</asrwt>
<pdfrwt beam="2">  1        1 0.15953719E+00 0.46166587E+03</pdfrwt>
<pdfrwt beam="1">  1       -1 0.25691903E-01 0.46166587E+03</pdfrwt>
<totfact> 0.19646327E+02</totfact>
</mgrwt>
</event>
<event>
 7    1  0.5206756E-006  0.1656540E+03  0.7546771E-02  0.1189887E+00
          1   -1    0    0  501    0  0.00000000000E+00  0.00000000000E+00  0.28327758374E+02  0.28327758374E+02  0.00000000000E+00 0. -1.
         -1   -1    0    0    0  501 -0.00000000000E+00 -0.00000000000E+00 -0.82764743156E+03  0.82764743156E+03  0.00000000000E+00 0.  1.
         23    2    1    2    0    0  0.10870049345E+03  0.50610694728E+00 -0.44635131623E+03  0.47609951551E+03  0.12500079097E+03 0.  0.
          5    1    3    3  502    0 -0.92473768508E+00 -0.32679029201E+02 -0.21906543917E+03  0.22154126191E+03  0.47000000000E+01 0. -1.
         -5    1    3    3    0  502  0.10962523114E+03  0.33185136148E+02 -0.22728587706E+03  0.25455825360E+03  0.47000000000E+01 0. -1.
        -11    1    1    2    0    0 -0.21347373829E+01  0.14876599316E+02 -0.53313393532E+01  0.15946582399E+02  0.00000000000E+00 0. -1.
         11    1    1    2    0    0 -0.10656575607E+03 -0.15382706263E+02 -0.34763701760E+03  0.36392909203E+03  0.00000000000E+00 0.  1.
<mgrwt>
<rscale>  0 0.15895043E+03</rscale>
<asrwt>0</asrwt>
<pdfrwt beam="1">  1        1 0.43581168E-02 0.16565401E+03</pdfrwt>
<pdfrwt beam="2">  1       -1 0.12733037E+00 0.16565401E+03</pdfrwt>
<totfact> 0.11399342E+03</totfact>
</mgrwt>
</event>
<event>
 7    1  0.5206756E-006  0.1396687E+03  0.7546771E-02  0.1225180E+00
          3   -1    0    0  501    0  0.00000000000E+00  0.00000000000E+00  0.39155752550E+03  0.39155752550E+03  0.00000000000E+00 0. -1.
         -3   -1    0    0    0  501 -0.00000000000E+00 -0.00000000000E+00 -0.59116859039E+02  0.59116859039E+02  0.00000000000E+00 0.  1.
         23    2    1    2    0    0  0.25478855705E+02  0.56935607529E+02  0.30785414446E+03  0.33805548719E+03  0.12496600602E+03 0.  0.
          5    1    3    3  502    0 -0.30116866264E+02  0.36577356237E+02  0.35738306275E+02  0.59533563291E+02  0.47000000000E+01 0. -1.
         -5    1    3    3    0  502  0.55595721968E+02  0.20358251292E+02  0.27211583819E+03  0.27852192390E+03  0.47000000000E+01 0. -1.
        -11    1    1    2    0    0  0.19888284795E+02 -0.57218192678E+02 -0.89877208140E+00  0.60582780034E+02  0.00000000000E+00 0.  1.
         11    1    1    2    0    0 -0.45367140500E+02  0.28258514894E+00  0.25485294083E+02  0.52036117323E+02  0.00000000000E+00 0. -1.
<mgrwt>
<rscale>  0 0.13154549E+03</rscale>
<asrwt>0</asrwt>
<pdfrwt beam="1">  1        3 0.60239618E-01 0.13966867E+03</pdfrwt>
<pdfrwt beam="2">  1       -3 0.90949016E-02 0.13966867E+03</pdfrwt>
<totfact> 0.54910981E+02</totfact>
</mgrwt>
</event>
<event>
 7    1  0.5206756E-006  0.1294904E+03  0.7546771E-02  0.1242184E+00
          2   -1    0    0  501    0  0.00000000000E+00  0.00000000000E+00  0.27865376554E+03  0.27865376554E+03  0.00000000000E+00 0. -1.
         -2   -1    0    0    0  501 -0.00000000000E+00 -0.00000000000E+00 -0.55758464681E+02  0.55758464681E+02  0.00000000000E+00 0.  1.
         23    2    1    2    0    0 -0.31615814532E+02  0.11979663251E+02  0.19341833458E+03  0.23276259987E+03  0.12499881475E+03 0.  0.
          5    1    3    3  502    0 -0.43426826892E+01  0.63490769914E+02  0.62231240729E+02  0.89133349987E+02  0.47000000000E+01 0. -1.
         -5    1    3    3    0  502 -0.27273131843E+02 -0.51511106663E+02  0.13118709385E+03  0.14362924988E+03  0.47000000000E+01 0. -1.
        -11    1    1    2    0    0  0.32865006248E+02  0.32331363469E+02 -0.37440378494E+01  0.46254118940E+02  0.00000000000E+00 0.  1.
         11    1    1    2    0    0 -0.12491917157E+01 -0.44311026720E+02  0.33221004136E+02  0.55395511413E+02  0.00000000000E+00 0. -1.
<mgrwt>
<rscale>  0 0.12055528E+03</rscale>
<asrwt>0</asrwt>
<pdfrwt beam="1">  1        2 0.42869809E-01 0.12949045E+03</pdfrwt>
<pdfrwt beam="2">  1       -2 0.85782255E-02 0.12949045E+03</pdfrwt>
<totfact> 0.94651334E+03</totfact>
</mgrwt>
</event>
<event>
 7    1  0.5206756E-006  0.1386435E+03  0.7546771E-02  0.1227035E+00
          1   -1    0    0  501    0  0.00000000000E+00  0.00000000000E+00  0.86150351736E+02  0.86150351736E+02  0.00000000000E+00 0. -1.
         -1   -1    0    0    0  501 -0.00000000000E+00 -0.00000000000E+00 -0.22660653889E+03  0.22660653889E+03  0.00000000000E+00 0.  1.
         23    2    1    2    0    0  0.33442319705E+02  0.49780733290E+02 -0.40478163905E+01  0.13870259326E+03  0.12500205760E+03 0.  0.
          5    1    3    3  502    0 -0.36339944484E+02  0.56035336148E+02 -0.12051296872E+02  0.68028480937E+02  0.47000000000E+01 0. -1.
         -5    1    3    3    0  502  0.69782264189E+02 -0.62546028574E+01  0.80034804812E+01  0.70674112319E+02  0.47000000000E+01 0. -1.
        -11    1    1    2    0    0 -0.17092538330E+02  0.15393582654E+02 -0.11573663236E+01  0.23031646713E+02  0.00000000000E+00 0. -1.
         11    1    1    2    0    0 -0.16349781375E+02 -0.65174315944E+02 -0.13525100444E+03  0.15102265066E+03  0.00000000000E+00 0.  1.
<mgrwt>
<rscale>  0 0.13028385E+03</rscale>
<asrwt>0</asrwt>
<pdfrwt beam="1">  1        1 0.13253900E-01 0.13864352E+03</pdfrwt>
<pdfrwt beam="2">  1       -1 0.34862545E-01 0.13864352E+03</pdfrwt>
<totfact> 0.33336002E+03</totfact>
</mgrwt>
</event>
<event>
 7    1  0.5206756E-006  0.2205450E+03  0.7546771E-02  0.1136233E+00
         -2   -1    0    0    0  501 -0.00000000000E+00  0.00000000000E+00  0.38201193991E+02  0.38201193991E+02  0.00000000000E+00 0.  1.
          2   -1    0    0  501    0  0.00000000000E+00 -0.00000000000E+00 -0.12031721061E+04  0.12031721061E+04  0.00000000000E+00 0. -1.
         23    2    1    2    0    0  0.33374502132E+02  0.17860513770E+03 -0.66167693120E+03  0.69746430313E+03  0.12500576086E+03 0.  0.
          5    1    3    3  502    0 -0.39967157179E+02  0.44824239105E+02 -0.27982232307E+03  0.28623278735E+03  0.47000000000E+01 0.  1.
         -5    1    3    3    0  502  0.73341659312E+02  0.13378089860E+03 -0.38185460813E+03  0.41123151578E+03  0.47000000000E+01 0.  1.
        -11    1    1    2    0    0 -0.65093652175E+02 -0.14986908164E+03 -0.40300428070E+03  0.43486822768E+03  0.00000000000E+00 0.  1.
         11    1    1    2    0    0  0.31719150042E+02 -0.28736056065E+02 -0.10028970020E+03  0.10904076928E+03  0.00000000000E+00 0. -1.
<mgrwt>
<rscale>  0 0.21687654E+03</rscale>
<asrwt>0</asrwt>
<pdfrwt beam="2">  1        2 0.18510340E+00 0.22054499E+03</pdfrwt>
<pdfrwt beam="1">  1       -2 0.58771068E-02 0.22054499E+03</pdfrwt>
<totfact> 0.30309929E+03</totfact>
</mgrwt>
</event>
<event>
 6    1  0.5206756E-006  0.1571752E+03  0.7546771E-02  0.1214927E+00
         -1   -1    0    0    0  501 -0.00000000000E+00  0.00000000000E+00  0.97173168653E+02  0.97173168653E+02  0.00000000000E+00 0.  1.
          1   -1    0    0  501    0  0.00000000000E+00 -0.00000000000E+00 -0.10811847823E+04  0.10811847823E+04  0.00000000000E+00 0. -1.
          5    1    1    2  502    0 -0.26570589297E+02  0.16081908463E+02 -0.90502352612E+03  0.90556849372E+03  0.47000000000E+01 0. -1.
         -5    1    1    2    0  502  0.48825611529E+02 -0.30951856193E+02 -0.14527319283E+03  0.15642361810E+03  0.47000000000E+01 0.  1.
        -11    1    1    2    0    0 -0.23419224200E+02 -0.36363212584E+02  0.39342325673E+02  0.58468469117E+02  0.00000000000E+00 0.  1.
         11    1    1    2    0    0  0.11642019682E+01  0.51233160314E+02  0.26942779622E+02  0.57897370025E+02  0.00000000000E+00 0. -1.
<mgrwt>
<rscale>  0 0.13881923E+03</rscale>
<asrwt>0</asrwt>
<pdfrwt beam="2">  1        1 0.16633612E+00 0.15717521E+03</pdfrwt>
<pdfrwt beam="1">  1       -1 0.14949718E-01 0.15717521E+03</pdfrwt>
<totfact> 0.45877535E+02</totfact>
</mgrwt>
</event>
<event>
 7    1  0.5206756E-006  0.1281315E+03  0.7546771E-02  0.1241052E+00
         -1   -1    0    0    0  501 -0.00000000000E+00  0.00000000000E+00  0.76501033696E+02  0.76501033696E+02  0.00000000000E+00 0.  1.
          1   -1    0    0  501    0  0.00000000000E+00 -0.00000000000E+00 -0.29468587458E+03  0.29468587458E+03  0.00000000000E+00 0. -1.
         23    2    1    2    0    0 -0.94182010352E+01 -0.31930346439E+02 -0.23444002590E+03  0.26717001888E+03  0.12373133681E+03 0.  0.
          5    1    3    3  502    0 -0.18795154716E+02  0.12889263634E+02  0.46156053255E+01  0.23723085177E+02  0.47000000000E+01 0. -1.
         -5    1    3    3    0  502  0.93769536804E+01 -0.44819610073E+02 -0.23905563123E+03  0.24344693370E+03  0.47000000000E+01 0.  1.
        -11    1    1    2    0    0  0.20530923827E+02 -0.13490455843E+01 -0.35770570412E+02  0.41265875307E+02  0.00000000000E+00 0. -1.
         11    1    1    2    0    0 -0.11112722792E+02  0.33279392023E+02  0.52025755431E+02  0.62751014091E+02  0.00000000000E+00 0.  1.
<mgrwt>
<rscale>  0 0.12124833E+03</rscale>
<asrwt>0</asrwt>
<pdfrwt beam="2">  1        1 0.45336289E-01 0.12813155E+03</pdfrwt>
<pdfrwt beam="1">  1       -1 0.11769390E-01 0.12813155E+03</pdfrwt>
<totfact> 0.40640928E+03</totfact>
</mgrwt>
</event>
<event>
 6    1  0.5206756E-006  0.1926178E+03  0.7546771E-02  0.1181337E+00
          2   -1    0    0  501    0  0.00000000000E+00  0.00000000000E+00  0.23110825204E+04  0.23110825204E+04  0.00000000000E+00 0. -1.
         -2   -1    0    0    0  501 -0.00000000000E+00 -0.00000000000E+00 -0.16692577549E+02  0.16692577549E+02  0.00000000000E+00 0.  1.
          5    1    1    2  502    0 -0.90922754000E+02 -0.46802422238E+02  0.66380012087E+03  0.67164730655E+03  0.47000000000E+01 0. -1.
         -5    1    1    2    0  502  0.31620138479E+02  0.45632716534E+02  0.14038981400E+04  0.14050032938E+04  0.47000000000E+01 0.  1.
        -11    1    1    2    0    0  0.48292535241E+02  0.42025073612E+02  0.11390928465E+03  0.13066598984E+03  0.00000000000E+00 0.  1.
         11    1    1    2    0    0  0.11010080280E+02 -0.40855367907E+02  0.11278239733E+03  0.12045850781E+03  0.00000000000E+00 0. -1.
<mgrwt>
<rscale>  0 0.16669655E+03</rscale>
<asrwt>0</asrwt>
<pdfrwt beam="1">  1        2 0.35555090E+00 0.19261780E+03</pdfrwt>
<pdfrwt beam="2">  1       -2 0.25680907E-02 0.19261780E+03</pdfrwt>
<totfact> 0.27230739E+03</totfact>
</mgrwt>
</event>
<event>
 7    1  0.5206756E-006  0.1459301E+03  0.7546771E-02  0.1215108E+00
          3   -1    0    0  501    0  0.00000000000E+00  0.00000000000E+00  0.53766635089E+03  0.53766635089E+03  0.00000000000E+00 0. -1.
         -3   -1    0    0    0  501 -0.00000000000E+00 -0.00000000000E+00 -0.42106923649E+02  0.42106923649E+02  0.00000000000E+00 0.  1.
         23    2    1    2    0    0 -0.21445377737E+02  0.72176420603E+02  0.40413924808E+03  0.42967908604E+03  0.12500498081E+03 0.  0.
          5    1    3    3  502    0 -0.27200384961E+02  0.79041700736E+02  0.40967815282E+03  0.41814558505E+03  0.47000000000E+01 0.  1.
         -5    1    3    3    0  502  0.57550072242E+01 -0.68652801325E+01 -0.55389047409E+01  0.11533500994E+02  0.47000000000E+01 0.  1.
        -11    1    1    2    0    0 -0.13772678861E+02  0.52563760949E+00 -0.12405305265E+02  0.18543316225E+02  0.00000000000E+00 0.  1.
         11    1    1    2    0    0  0.35218056598E+02 -0.72702058213E+02  0.10382548442E+03  0.13155087227E+03  0.00000000000E+00 0. -1.
<mgrwt>
<rscale>  0 0.13868586E+03</rscale>
<asrwt>0</asrwt>
<pdfrwt beam="1">  1        3 0.82717895E-01 0.14593007E+03</pdfrwt>
<pdfrwt beam="2">  1       -3 0.64779887E-02 0.14593007E+03</pdfrwt>
<totfact> 0.48921224E+02</totfact>
</mgrwt>
</event>
<event>
 7    1  0.5206756E-006  0.1664410E+03  0.7546771E-02  0.1188314E+00
         -2   -1    0    0    0  501 -0.00000000000E+00  0.00000000000E+00  0.16875763725E+02  0.16875763725E+02  0.00000000000E+00 0. -1.
          2   -1    0    0  501    0  0.00000000000E+00 -0.00000000000E+00 -0.19067328658E+04  0.19067328658E+04  0.00000000000E+00 0.  1.
         23    2    1    2    0    0  0.68581477342E+02  0.85865386252E+02 -0.14815535751E+04  0.14908734382E+04  0.12500531698E+03 0.  0.
          5    1    3    3  502    0  0.21009325517E+02 -0.31263324953E+02 -0.44826510229E+03  0.44986940235E+03  0.47000000000E+01 0. -1.
         -5    1    3    3    0  502  0.47572151825E+02  0.11712871120E+03 -0.10332884729E+04  0.10410040359E+04  0.47000000000E+01 0. -1.
        -11    1    1    2    0    0  0.15962688482E+02  0.67153729867E+01 -0.64511255931E+02  0.66795252823E+02  0.00000000000E+00 0. -1.
         11    1    1    2    0    0 -0.84544165824E+02 -0.92580759239E+02 -0.34379227105E+03  0.36593993851E+03  0.00000000000E+00 0.  1.
<mgrwt>
<rscale>  0 0.16033982E+03</rscale>
<asrwt>0</asrwt>
<pdfrwt beam="2">  1        2 0.29334340E+00 0.16644102E+03</pdfrwt>
<pdfrwt beam="1">  1       -2 0.25962724E-02 0.16644102E+03</pdfrwt>
<totfact> 0.43549987E+03</totfact>
</mgrwt>
</event>
<event>
 7    1  0.5206756E-006  0.1263348E+03  0.7546771E-02  0.1250566E+00
          1   -1    0    0  501    0  0.00000000000E+00  0.00000000000E+00  0.53353625664E+03  0.53353625664E+03  0.00000000000E+00 0. -1.
         -1   -1    0    0    0  501 -0.00000000000E+00 -0.00000000000E+00 -0.25105196176E+02  0.25105196176E+02  0.00000000000E+00 0.  1.
         23    2    1    2    0    0 -0.35337193381E+01  0.17971956022E+02  0.39530851868E+03  0.41500518483E+03  0.12500000047E+03 0.  0.
          5    1    3    3  502    0  0.34849636710E+02  0.56133776744E+02  0.15373734402E+03  0.16739999707E+03  0.47000000000E+01 0. -1.
         -5    1    3    3    0  502 -0.38383356048E+02 -0.38161820722E+02  0.24157117466E+03  0.24760518777E+03  0.47000000000E+01 0. -1.
        -11    1    1    2    0    0 -0.16849720486E+02 -0.71525675656E+01 -0.82579988346E+01  0.20081505123E+02  0.00000000000E+00 0.  1.
         11    1    1    2    0    0  0.20383439824E+02 -0.10819388456E+02  0.12138054061E+03  0.12355476285E+03  0.00000000000E+00 0. -1.
<mgrwt>
<rscale>  0 0.11558322E+03</rscale>
<asrwt>0</asrwt>
<pdfrwt beam="1">  1        1 0.82082492E-01 0.12633479E+03</pdfrwt>
<pdfrwt beam="2">  1       -1 0.38623383E-02 0.12633479E+03</pdfrwt>
<totfact> 0.10162439E+04</totfact>
</mgrwt>
</event>
<event>
 7    1  0.5206756E-006  0.2633217E+03  0.7546771E-02  0.1107414E+00
         -1   -1    0    0    0  501 -0.00000000000E+00  0.00000000000E+00  0.34169783121E+03  0.34169783121E+03  0.00000000000E+00 0.  1.
          1   -1    0    0  501    0  0.00000000000E+00 -0.00000000000E+00 -0.22132510575E+03  0.22132510575E+03  0.00000000000E+00 0. -1.
         23    2    1    2    0    0 -0.13957718012E+03  0.18501557953E+03 -0.41263496379E+02  0.26653514834E+03  0.12500302111E+03 0.  0.
          5    1    3    3  502    0  0.15995743917E+02  0.14699133864E+02 -0.27560797475E+02  0.35406438924E+02  0.47000000000E+01 0. -1.
         -5    1    3    3    0  502 -0.15557292403E+03  0.17031644567E+03 -0.13702698904E+02  0.23112870941E+03  0.47000000000E+01 0. -1.
        -11    1    1    2    0    0  0.21199106941E+02 -0.87726876525E+02  0.31929522559E+02  0.95733491583E+02  0.00000000000E+00 0.  1.
         11    1    1    2    0    0  0.11837807318E+03 -0.97288703008E+02  0.12970669928E+03  0.20075429704E+03  0.00000000000E+00 0. -1.
<mgrwt>
<rscale>  0 0.25954929E+03</rscale>
<asrwt>0</asrwt>
<pdfrwt beam="2">  1        1 0.34050017E-01 0.26332168E+03</pdfrwt>
<pdfrwt beam="1">  1       -1 0.52568897E-01 0.26332168E+03</pdfrwt>
<totfact> 0.48433741E+02</totfact>
</mgrwt>
</event>
<event>
 7    1  0.5206756E-006  0.1840324E+03  0.7546771E-02  0.1169298E+00
         -1   -1    0    0    0  501 -0.00000000000E+00  0.00000000000E+00  0.50445485121E+03  0.50445485121E+03  0.00000000000E+00 0.  1.
          1   -1    0    0  501    0  0.00000000000E+00 -0.00000000000E+00 -0.59761594396E+02  0.59761594396E+02  0.00000000000E+00 0. -1.
         23    2    1    2    0    0 -0.73693891445E+02 -0.11318904958E+03  0.25070059017E+03  0.31099631100E+03  0.12500147585E+03 0.  0.
          5    1    3    3  502    0 -0.26506757569E+02 -0.16185610561E+02  0.17818233316E+03  0.18092986496E+03  0.47000000000E+01 0.  1.
         -5    1    3    3    0  502 -0.47187133876E+02 -0.97003439024E+02  0.72518257011E+02  0.13006644604E+03  0.47000000000E+01 0.  1.
        -11    1    1    2    0    0  0.37791540275E+02  0.32533101876E+02  0.14259568826E+03  0.15106334282E+03  0.00000000000E+00 0.  1.
         11    1    1    2    0    0  0.35902351170E+02  0.80655947708E+02  0.51396978389E+02  0.10215679178E+03  0.00000000000E+00 0. -1.
<mgrwt>
<rscale>  0 0.17846390E+03</rscale>
<asrwt>0</asrwt>
<pdfrwt beam="2">  1        1 0.91940918E-02 0.18403239E+03</pdfrwt>
<pdfrwt beam="1">  1       -1 0.77608436E-01 0.18403239E+03</pdfrwt>
<totfact> 0.12367351E+03</totfact>
</mgrwt>
</event>
<event>
 7    1  0.5206756E-006  0.1406988E+03  0.7546771E-02  0.1220565E+00
          2   -1    0    0  501    0  0.00000000000E+00  0.00000000000E+00  0.47360619048E+02  0.47360619048E+02  0.00000000000E+00 0.  1.
         -2   -1    0    0    0  501 -0.00000000000E+00 -0.00000000000E+00 -0.36101577444E+03  0.36101577444E+03  0.00000000000E+00 0. -1.
         23    2    1    2    0    0 -0.64450605586E+02  0.42708302217E+01 -0.14241547961E+03  0.20019573149E+03  0.12499616603E+03 0.  0.
          5    1    3    3  502    0  0.37568028239E+02  0.66979895434E+00 -0.47294981535E+02  0.60586390013E+02  0.47000000000E+01 0. -1.
         -5    1    3    3    0  502 -0.10201863383E+03  0.36010312673E+01 -0.95120498075E+02  0.13960934148E+03  0.47000000000E+01 0. -1.
        -11    1    1    2    0    0  0.16476070045E+02  0.26071207351E+02 -0.34311495752E+01  0.31031299107E+02  0.00000000000E+00 0.  1.
         11    1    1    2    0    0  0.47974535541E+02 -0.30342037573E+02 -0.16780852621E+03  0.17714936289E+03  0.00000000000E+00 0. -1.
<mgrwt>
<rscale>  0 0.13475550E+03</rscale>
<asrwt>0</asrwt>
<pdfrwt beam="1">  1        2 0.72862490E-02 0.14069883E+03</pdfrwt>
<pdfrwt beam="2">  1       -2 0.55540889E-01 0.14069883E+03</pdfrwt>
<totfact> 0.28589299E+03</totfact>
</mgrwt>
</event>
<event>
 7    1  0.5206756E-006  0.1291662E+03  0.7546771E-02  0.1239200E+00
          1   -1    0    0  501    0  0.00000000000E+00  0.00000000000E+00  0.26220692294E+03  0.26220692294E+03  0.00000000000E+00 0. -1.
         -1   -1    0    0    0  501 -0.00000000000E+00 -0.00000000000E+00 -0.79564586554E+02  0.79564586554E+02  0.00000000000E+00 0.  1.
         23    2    1    2    0    0 -0.18909678802E+02  0.26485433390E+02  0.19810875988E+03  0.23649733439E+03  0.12499941720E+03 0.  0.
          5    1    3    3  502    0 -0.31202217469E+02 -0.29374918734E+02  0.16708907615E+02  0.46235720167E+02  0.47000000000E+01 0.  1.
         -5    1    3    3    0  502  0.12292538667E+02  0.55860352125E+02  0.18139985226E+03  0.19026161422E+03  0.47000000000E+01 0.  1.
        -11    1    1    2    0    0  0.57723790976E+02 -0.29772834080E+02 -0.13038875985E+02  0.66245528006E+02  0.00000000000E+00 0.  1.
         11    1    1    2    0    0 -0.38814112174E+02  0.32874006893E+01 -0.24275475098E+01  0.39028647095E+02  0.00000000000E+00 0. -1.
<mgrwt>
<rscale>  0 0.12239328E+03</rscale>
<asrwt>0</asrwt>
<pdfrwt beam="1">  1        1 0.40339526E-01 0.12916620E+03</pdfrwt>
<pdfrwt beam="2">  1       -1 0.12240706E-01 0.12916620E+03</pdfrwt>
<totfact> 0.44203338E+03</totfact>
</mgrwt>
</event>
<event>
 7    1  0.5206756E-006  0.1846418E+03  0.7546771E-02  0.1169244E+00
          1   -1    0    0  501    0  0.00000000000E+00  0.00000000000E+00  0.24063996907E+03  0.24063996907E+03  0.00000000000E+00 0. -1.
         -1   -1    0    0    0  501 -0.00000000000E+00 -0.00000000000E+00 -0.12606301403E+03  0.12606301403E+03  0.00000000000E+00 0.  1.
         23    2    1    2    0    0 -0.10130331942E+03 -0.90583620671E+02  0.82349268798E+02  0.20217321807E+03  0.12499941270E+03 0.  0.
          5    1    3    3  502    0 -0.12301751854E+03 -0.10074325565E+03  0.78682345393E+02  0.17746975771E+03  0.47000000000E+01 0. -1.
         -5    1    3    3    0  502  0.21714199117E+02  0.10159634984E+02  0.36669234048E+01  0.24703460356E+02  0.47000000000E+01 0. -1.
        -11    1    1    2    0    0 -0.10124682505E+02 -0.54365927749E+01 -0.54054883427E+01  0.12699804764E+02  0.00000000000E+00 0.  1.
         11    1    1    2    0    0  0.11142800192E+03  0.96020213446E+02  0.37633174587E+02  0.15182996026E+03  0.00000000000E+00 0. -1.
<mgrwt>
<rscale>  0 0.17851915E+03</rscale>
<asrwt>0</asrwt>
<pdfrwt beam="1">  1        1 0.37021534E-01 0.18464184E+03</pdfrwt>
<pdfrwt beam="2">  1       -1 0.19394310E-01 0.18464184E+03</pdfrwt>
<totfact> 0.24195538E+03</totfact>
</mgrwt>
</event>
<event>
 7    1  0.5206756E-006  0.1316795E+03  0.7546771E-02  0.1237003E+00
          2   -1    0    0  501    0  0.00000000000E+00  0.00000000000E+00  0.83137620223E+02  0.83137620223E+02  0.00000000000E+00 0.  1.
         -2   -1    0    0    0  501 -0.00000000000E+00 -0.00000000000E+00 -0.17607263313E+03  0.17607263313E+03  0.00000000000E+00 0. -1.
         23    2    1    2    0    0  0.88874747957E+01  0.40465597118E+02 -0.20021448891E+02  0.13319290703E+03  0.12499216099E+03 0.  0.
          5    1    3    3  502    0 -0.19484736458E+02  0.46292189197E+02 -0.63276860523E+02  0.80923870478E+02  0.47000000000E+01 0. -1.
         -5    1    3    3    0  502  0.28372211253E+02 -0.58265920788E+01  0.43255411631E+02  0.52269036552E+02  0.47000000000E+01 0. -1.
        -11    1    1    2    0    0 -0.16597006446E+02  0.28291131456E+02 -0.16341434410E+02  0.36645480221E+02  0.00000000000E+00 0.  1.
         11    1    1    2    0    0  0.77095316508E+01 -0.68756728574E+02 -0.56572129607E+02  0.89371866103E+02  0.00000000000E+00 0. -1.
<mgrwt>
<rscale>  0 0.12377049E+03</rscale>
<asrwt>0</asrwt>
<pdfrwt beam="1">  1        2 0.12790403E-01 0.13167951E+03</pdfrwt>
<pdfrwt beam="2">  1       -2 0.27088097E-01 0.13167951E+03</pdfrwt>
<totfact> 0.55161746E+03</totfact>
</mgrwt>
</event>
<event>
 7    1  0.5206756E-006  0.1261539E+03  0.7546771E-02  0.1248907E+00
          2   -1    0    0  501    0  0.00000000000E+00  0.00000000000E+00  0.26923040820E+03  0.26923040820E+03  0.00000000000E+00 0. -1.
         -2   -1    0    0    0  501 -0.00000000000E+00 -0.00000000000E+00 -0.44213249411E+02  0.44213249411E+02  0.00000000000E+00 0.  1.
         23    2    1    2    0    0  0.14503003693E+02  0.89146668711E+01  0.12423529257E+03  0.17705707689E+03  0.12499996862E+03 0.  0.
          5    1    3    3  502    0 -0.24563915537E+02  0.36940069287E+02  0.12062959190E+03  0.12861393046E+03  0.47000000000E+01 0. -1.
         -5    1    3    3    0  502  0.39066919230E+02 -0.28025402416E+02  0.36057006687E+01  0.48443146429E+02  0.47000000000E+01 0. -1.
        -11    1    1    2    0    0  0.25868164147E+02 -0.10030752748E+02  0.90576452121E+02  0.94730520931E+02  0.00000000000E+00 0. -1.
         11    1    1    2    0    0 -0.40371167839E+02  0.11160858768E+01  0.10205414096E+02  0.41656059790E+02  0.00000000000E+00 0.  1.
<mgrwt>
<rscale>  0 0.11654563E+03</rscale>
<asrwt>0</asrwt>
<pdfrwt beam="1">  1        2 0.41420062E-01 0.12615388E+03</pdfrwt>
<pdfrwt beam="2">  1       -2 0.68020386E-02 0.12615388E+03</pdfrwt>
<totfact> 0.13992712E+04</totfact>
</mgrwt>
</event>
<event>
 7    1  0.5206756E-006  0.1555396E+03  0.7546771E-02  0.1201898E+00
          2   -1    0    0  501    0  0.00000000000E+00  0.00000000000E+00  0.87035312957E+03  0.87035312957E+03  0.00000000000E+00 0. -1.
         -2   -1    0    0    0  501 -0.00000000000E+00 -0.00000000000E+00 -0.23512374648E+02  0.23512374648E+02  0.00000000000E+00 0.  1.
         23    2    1    2    0    0 -0.92420324006E+02 -0.52593046288E+01  0.47343436333E+03  0.49832986982E+03  0.12499354462E+03 0.  0.
          5    1    3    3  502    0 -0.38663946570E+02  0.52770232144E+02  0.12685676816E+03  0.14280871049E+03  0.47000000000E+01 0.  1.
         -5    1    3    3    0  502 -0.53756377436E+02 -0.58029536773E+02  0.34657759517E+03  0.35552115933E+03  0.47000000000E+01 0.  1.
        -11    1    1    2    0    0  0.10680248176E+03  0.20024292803E+02  0.33110084754E+03  0.34847598720E+03  0.00000000000E+00 0. -1.
         11    1    1    2    0    0 -0.14382157750E+02 -0.14764988175E+02  0.42305544044E+02  0.47059647196E+02  0.00000000000E+00 0.  1.
<mgrwt>
<rscale>  0 0.14884636E+03</rscale>
<asrwt>0</asrwt>
<pdfrwt beam="1">  1        2 0.13390046E+00 0.15553959E+03</pdfrwt>
<pdfrwt beam="2">  1       -2 0.36172891E-02 0.15553959E+03</pdfrwt>
<totfact> 0.98533969E+03</totfact>
</mgrwt>
</event>
<event>
 7    1  0.5206756E-006  0.1652012E+03  0.7546771E-02  0.1190124E+00
         -2   -1    0    0    0  501 -0.00000000000E+00  0.00000000000E+00  0.30960803028E+02  0.30960803028E+02  0.00000000000E+00 0.  1.
          2   -1    0    0  501    0  0.00000000000E+00 -0.00000000000E+00 -0.77666061336E+03  0.77666061336E+03  0.00000000000E+00 0. -1.
         23    2    1    2    0    0  0.55216363525E+02 -0.92790091594E+02 -0.46692706258E+03  0.49529013210E+03  0.12503033744E+03 0.  0.
          5    1    3    3  502    0  0.95450154054E+02 -0.57996385049E+02 -0.31285841986E+03  0.33223003095E+03  0.47000000000E+01 0.  1.
         -5    1    3    3    0  502 -0.40233790529E+02 -0.34793706545E+02 -0.15406864273E+03  0.16306010115E+03  0.47000000000E+01 0.  1.
        -11    1    1    2    0    0  0.13501223576E+02  0.29668978700E+02 -0.22519883845E+02  0.39619143145E+02  0.00000000000E+00 0.  1.
         11    1    1    2    0    0 -0.68717587101E+02  0.63121112894E+02 -0.25625286391E+03  0.27271214115E+03  0.00000000000E+00 0. -1.
<mgrwt>
<rscale>  0 0.15874251E+03</rscale>
<asrwt>0</asrwt>
<pdfrwt beam="2">  1        2 0.11948624E+00 0.16520119E+03</pdfrwt>
<pdfrwt beam="1">  1       -2 0.47632007E-02 0.16520119E+03</pdfrwt>
<totfact> 0.75675396E+03</totfact>
</mgrwt>
</event>
<event>
 7    1  0.5206756E-006  0.1544902E+03  0.7546771E-02  0.1203321E+00
         -2   -1    0    0    0  501 -0.00000000000E+00  0.00000000000E+00  0.34522571330E+02  0.34522571330E+02  0.00000000000E+00 0.  1.
          2   -1    0    0  501    0  0.00000000000E+00 -0.00000000000E+00 -0.65617318506E+03  0.65617318506E+03  0.00000000000E+00 0. -1.
         23    2    1    2    0    0 -0.16426462919E+02  0.89276140929E+02 -0.45096139961E+03  0.47669005762E+03  0.12500867601E+03 0.  0.
          5    1    3    3  502    0 -0.57997843143E+02  0.81587144487E+02 -0.21870480811E+03  0.24057035363E+03  0.47000000000E+01 0.  1.
         -5    1    3    3    0  502  0.41571380224E+02  0.76889964426E+01 -0.23225659150E+03  0.23611970399E+03  0.47000000000E+01 0.  1.
        -11    1    1    2    0    0  0.22325600176E+02 -0.12837047325E+02  0.12135137647E+01  0.25781676108E+02  0.00000000000E+00 0.  1.
         11    1    1    2    0    0 -0.58991372567E+01 -0.76439093604E+02 -0.17190272789E+03  0.18822402266E+03  0.00000000000E+00 0. -1.
<mgrwt>
<rscale>  0 0.14770559E+03</rscale>
<asrwt>0</asrwt>
<pdfrwt beam="2">  1        2 0.10094972E+00 0.15449022E+03</pdfrwt>
<pdfrwt beam="1">  1       -2 0.53111648E-02 0.15449022E+03</pdfrwt>
<totfact> 0.78382863E+03</totfact>
</mgrwt>
</event>
<event>
 7    1  0.5206756E-006  0.1938194E+03  0.7546771E-02  0.1157770E+00
         -4   -1    0    0    0  501 -0.00000000000E+00  0.00000000000E+00  0.41038404762E+03  0.41038404762E+03  0.00000000000E+00 0.  1.
          4   -1    0    0  501    0  0.00000000000E+00 -0.00000000000E+00 -0.14298372386E+03  0.14298372386E+03  0.00000000000E+00 0. -1.
         23    2    1    2    0    0  0.14802312583E+03  0.57478803870E+02 -0.38371354108E+02  0.19758117688E+03  0.11113641153E+03 0.  0.
          5    1    3    3  502    0  0.12883326934E+03  0.85004210457E+02 -0.12452179392E+02  0.15492215418E+03  0.47000000000E+01 0. -1.
         -5    1    3    3    0  502  0.19189856491E+02 -0.27525406588E+02 -0.25919174716E+02  0.42659022702E+02  0.47000000000E+01 0.  1.
        -11    1    1    2    0    0 -0.15465107965E+03 -0.44683019943E+02  0.29960366084E+03  0.34011157331E+03  0.00000000000E+00 0.  1.
         11    1    1    2    0    0  0.66279538229E+01 -0.12795783927E+02  0.61680170319E+01  0.15675021285E+02  0.00000000000E+00 0. -1.
<mgrwt>
<rscale>  0 0.19076838E+03</rscale>
<asrwt>0</asrwt>
<pdfrwt beam="2">  1        4 0.21997496E-01 0.19381940E+03</pdfrwt>
<pdfrwt beam="1">  1       -4 0.63136007E-01 0.19381940E+03</pdfrwt>
<totfact> 0.79926420E+01</totfact>
</mgrwt>
</event>
<event>
 7    1  0.5206756E-006  0.1984807E+03  0.7546771E-02  0.1152562E+00
          1   -1    0    0  501    0  0.00000000000E+00  0.00000000000E+00  0.20563190646E+03  0.20563190646E+03  0.00000000000E+00 0. -1.
         -1   -1    0    0    0  501 -0.00000000000E+00 -0.00000000000E+00 -0.18485263867E+03  0.18485263867E+03  0.00000000000E+00 0.  1.
         23    2    1    2    0    0  0.13410727608E+03  0.55043815648E+02  0.12886805278E+02  0.19184700070E+03  0.12499847515E+03 0.  0.
          5    1    3    3  502    0  0.32791012640E+02 -0.37361801376E+01 -0.49017310733E+02  0.59278970162E+02  0.47000000000E+01 0. -1.
         -5    1    3    3    0  502  0.10131626344E+03  0.58779995785E+02  0.61904116010E+02  0.13256803054E+03  0.47000000000E+01 0. -1.
        -11    1    1    2    0    0 -0.16098495570E+03 -0.41778964861E+02 -0.40652206813E+01  0.16636755659E+03  0.00000000000E+00 0.  1.
         11    1    1    2    0    0  0.26877679623E+02 -0.13264850787E+02  0.11957683194E+02  0.32269987848E+02  0.00000000000E+00 0. -1.
<mgrwt>
<rscale>  0 0.19668985E+03</rscale>
<asrwt>0</asrwt>
<pdfrwt beam="1">  1        1 0.31635678E-01 0.19848069E+03</pdfrwt>
<pdfrwt beam="2">  1       -1 0.28438868E-01 0.19848069E+03</pdfrwt>
<totfact> 0.15719182E+03</totfact>
</mgrwt>
</event>
<event>
 7    1  0.5206756E-006  0.1365616E+03  0.7546771E-02  0.1238237E+00
         -2   -1    0    0    0  501 -0.00000000000E+00  0.00000000000E+00  0.46371819016E+03  0.46371819016E+03  0.00000000000E+00 0.  1.
          2   -1    0    0  501    0  0.00000000000E+00 -0.00000000000E+00 -0.28857525281E+02  0.28857525281E+02  0.00000000000E+00 0. -1.
         23    2    1    2    0    0 -0.39522548276E+02 -0.38231355467E+02  0.21080656943E+03  0.25117418835E+03  0.12500157925E+03 0.  0.
          5    1    3    3  502    0  0.33853537715E+02  0.15373168797E+02  0.10572988632E+03  0.11217528781E+03  0.47000000000E+01 0. -1.
         -5    1    3    3    0  502 -0.73376085991E+02 -0.53604524264E+02  0.10507668312E+03  0.13899890054E+03  0.47000000000E+01 0. -1.
        -11    1    1    2    0    0  0.20330442808E+02  0.38216551455E+02  0.21648553074E+03  0.22077095989E+03  0.00000000000E+00 0.  1.
         11    1    1    2    0    0  0.19192105469E+02  0.14804012069E-01  0.75685647101E+01  0.20630567206E+02  0.00000000000E+00 0. -1.
<mgrwt>
<rscale>  0 0.12299446E+03</rscale>
<asrwt>0</asrwt>
<pdfrwt beam="2">  1        2 0.44396196E-02 0.13656157E+03</pdfrwt>
<pdfrwt beam="1">  1       -2 0.71341255E-01 0.13656157E+03</pdfrwt>
<totfact> 0.32197729E+03</totfact>
</mgrwt>
</event>
<event>
 7    1  0.5206756E-006  0.1921654E+03  0.7546771E-02  0.1161229E+00
          1   -1    0    0  501    0  0.00000000000E+00  0.00000000000E+00  0.34583503986E+03  0.34583503986E+03  0.00000000000E+00 0. -1.
         -1   -1    0    0    0  501 -0.00000000000E+00 -0.00000000000E+00 -0.10070623765E+03  0.10070623765E+03  0.00000000000E+00 0.  1.
         23    2    1    2    0    0  0.14508268955E+03 -0.15960556436E+02  0.17733634208E+03  0.26148750232E+03  0.12499523781E+03 0.  0.
          5    1    3    3  502    0  0.15301948283E+03 -0.45068385215E+02  0.13349267243E+03  0.20805889806E+03  0.47000000000E+01 0.  1.
         -5    1    3    3    0  502 -0.79367932778E+01  0.29107828778E+02  0.43843669658E+02  0.53428604257E+02  0.47000000000E+01 0.  1.
        -11    1    1    2    0    0 -0.17622969841E+02  0.88154055552E+01  0.52994244236E+02  0.56539104726E+02  0.00000000000E+00 0. -1.
         11    1    1    2    0    0 -0.12745971971E+03  0.71451508813E+01  0.14798215891E+02  0.12851467046E+03  0.00000000000E+00 0.  1.
<mgrwt>
<rscale>  0 0.18696391E+03</rscale>
<asrwt>0</asrwt>
<pdfrwt beam="1">  1        1 0.53205390E-01 0.19216539E+03</pdfrwt>
<pdfrwt beam="2">  1       -1 0.15493267E-01 0.19216539E+03</pdfrwt>
<totfact> 0.22036831E+03</totfact>
</mgrwt>
</event>
<event>
 7    1  0.5206756E-006  0.1310336E+03  0.7546771E-02  0.1238409E+00
          2   -1    0    0  501    0  0.00000000000E+00  0.00000000000E+00  0.11784140937E+03  0.11784140937E+03  0.00000000000E+00 0. -1.
         -2   -1    0    0    0  501 -0.00000000000E+00 -0.00000000000E+00 -0.14358055088E+03  0.14358055088E+03  0.00000000000E+00 0.  1.
         23    2    1    2    0    0  0.27032505874E+02 -0.28532438196E+02  0.44183297806E+02  0.13828217274E+03  0.12499975635E+03 0.  0.
          5    1    3    3  502    0  0.14675542056E+01 -0.69068876479E+02  0.55587137256E+02  0.88795738872E+02  0.47000000000E+01 0. -1.
         -5    1    3    3    0  502  0.25564951668E+02  0.40536438283E+02 -0.11403839450E+02  0.49486433865E+02  0.47000000000E+01 0. -1.
        -11    1    1    2    0    0  0.20399041364E+02  0.36598001082E+01 -0.66295809200E+02  0.69459695816E+02  0.00000000000E+00 0.  1.
         11    1    1    2    0    0 -0.47431547238E+02  0.24872638088E+02 -0.36266301094E+01  0.53680091698E+02  0.00000000000E+00 0. -1.
<mgrwt>
<rscale>  0 0.12288694E+03</rscale>
<asrwt>0</asrwt>
<pdfrwt beam="1">  1        2 0.18129448E-01 0.13103357E+03</pdfrwt>
<pdfrwt beam="2">  1       -2 0.22089316E-01 0.13103357E+03</pdfrwt>
<totfact> 0.52328334E+03</totfact>
</mgrwt>
</event>
<event>
 7    1  0.5206756E-006  0.1344871E+03  0.7546771E-02  0.1234286E+00
         -1   -1    0    0    0  501 -0.00000000000E+00  0.00000000000E+00  0.11385735695E+03  0.11385735695E+03  0.00000000000E+00 0.  1.
          1   -1    0    0  501    0  0.00000000000E+00 -0.00000000000E+00 -0.12686344072E+03  0.12686344072E+03  0.00000000000E+00 0. -1.
         23    2    1    2    0    0  0.12830215410E+02  0.47926950898E+02 -0.28732165012E+02  0.13752204184E+03  0.12500067054E+03 0.  0.
          5    1    3    3  502    0  0.57710741504E+02  0.12007289405E+02  0.19573521913E+02  0.62288983327E+02  0.47000000000E+01 0. -1.
         -5    1    3    3    0  502 -0.44880526095E+02  0.35919661493E+02 -0.48305686925E+02  0.75233058516E+02  0.47000000000E+01 0. -1.
        -11    1    1    2    0    0 -0.34673421976E+02  0.10848722757E+02 -0.60306765301E+01  0.36828114755E+02  0.00000000000E+00 0. -1.
         11    1    1    2    0    0  0.21843206566E+02 -0.58775673655E+02  0.21756757775E+02  0.66370641066E+02  0.00000000000E+00 0.  1.
<mgrwt>
<rscale>  0 0.12550284E+03</rscale>
<asrwt>0</asrwt>
<pdfrwt beam="2">  1        1 0.19517452E-01 0.13448708E+03</pdfrwt>
<pdfrwt beam="1">  1       -1 0.17516516E-01 0.13448708E+03</pdfrwt>
<totfact> 0.62659494E+03</totfact>
</mgrwt>
</event>
<event>
 7    1  0.5206756E-006  0.1342560E+03  0.7546771E-02  0.1234309E+00
          1   -1    0    0  501    0  0.00000000000E+00  0.00000000000E+00  0.16374623715E+03  0.16374623715E+03  0.00000000000E+00 0. -1.
         -1   -1    0    0    0  501 -0.00000000000E+00 -0.00000000000E+00 -0.86466828632E+02  0.86466828632E+02  0.00000000000E+00 0.  1.
         23    2    1    2    0    0 -0.11256423861E+02 -0.47698180716E+02  0.56477011260E+02  0.14565141760E+03  0.12499143621E+03 0.  0.
          5    1    3    3  502    0  0.53708355700E+02 -0.42731087143E+02  0.25664347442E+02  0.73425349914E+02  0.47000000000E+01 0.  1.
         -5    1    3    3    0  502 -0.64964779561E+02 -0.49670935726E+01  0.30812663818E+02  0.72226067687E+02  0.47000000000E+01 0.  1.
        -11    1    1    2    0    0  0.41580533289E+02  0.94615370887E+01  0.33392762861E+02  0.54162145860E+02  0.00000000000E+00 0. -1.
         11    1    1    2    0    0 -0.30324109428E+02  0.38236643627E+02 -0.12590365600E+02  0.50399502323E+02  0.00000000000E+00 0.  1.
<mgrwt>
<rscale>  0 0.12548768E+03</rscale>
<asrwt>0</asrwt>
<pdfrwt beam="1">  1        1 0.25191729E-01 0.13425603E+03</pdfrwt>
<pdfrwt beam="2">  1       -1 0.13302589E-01 0.13425603E+03</pdfrwt>
<totfact> 0.69896203E+03</totfact>
</mgrwt>
</event>
<event>
 7    1  0.5206756E-006  0.2146421E+03  0.7546771E-02  0.1141706E+00
         -1   -1    0    0    0  501 -0.00000000000E+00  0.00000000000E+00  0.66535516813E+02  0.66535516813E+02  0.00000000000E+00 0.  1.
          1   -1    0    0  501    0  0.00000000000E+00 -0.00000000000E+00 -0.65893287191E+03  0.65893287191E+03  0.00000000000E+00 0. -1.
         23    2    1    2    0    0  0.37097772196E+02  0.17050541853E+03 -0.38015358999E+03  0.43656385688E+03  0.12499162654E+03 0.  0.
          5    1    3    3  502    0  0.50652911307E+02  0.15764787758E+03 -0.38281217245E+03  0.41711607510E+03  0.47000000000E+01 0.  1.
         -5    1    3    3    0  502 -0.13555139111E+02  0.12857540952E+02  0.26585824610E+01  0.19447781785E+02  0.47000000000E+01 0.  1.
        -11    1    1    2    0    0  0.16157996472E+02 -0.22605153172E+02 -0.75868506119E+02  0.80796683228E+02  0.00000000000E+00 0. -1.
         11    1    1    2    0    0 -0.53255768668E+02 -0.14790026536E+03 -0.13637525899E+03  0.20810784862E+03  0.00000000000E+00 0.  1.
<mgrwt>
<rscale>  0 0.20982328E+03</rscale>
<asrwt>0</asrwt>
<pdfrwt beam="2">  1        1 0.10137428E+00 0.21464214E+03</pdfrwt>
<pdfrwt beam="1">  1       -1 0.10236234E-01 0.21464214E+03</pdfrwt>
<totfact> 0.18022442E+03</totfact>
</mgrwt>
</event>
<event>
 7    1  0.5206756E-006  0.1258974E+03  0.7546771E-02  0.1248709E+00
          1   -1    0    0  501    0  0.00000000000E+00  0.00000000000E+00  0.65781978498E+02  0.65781978498E+02  0.00000000000E+00 0. -1.
         -1   -1    0    0    0  501 -0.00000000000E+00 -0.00000000000E+00 -0.20289052255E+03  0.20289052255E+03  0.00000000000E+00 0.  1.
         23    2    1    2    0    0  0.14337075871E+02  0.43436937112E+01 -0.34984826098E+02  0.13066785387E+03  0.12500292220E+03 0.  0.
          5    1    3    3  502    0 -0.23090851981E+02 -0.47100937885E+02 -0.40784870090E+02  0.66612171734E+02  0.47000000000E+01 0.  1.
         -5    1    3    3    0  502  0.37427927851E+02  0.51444631596E+02  0.58000439919E+01  0.64055682134E+02  0.47000000000E+01 0.  1.
        -11    1    1    2    0    0  0.23311113471E+02  0.24053160920E+02 -0.78316773693E+02  0.85179103090E+02  0.00000000000E+00 0.  1.
         11    1    1    2    0    0 -0.37648189342E+02 -0.28396854631E+02 -0.23806944264E+02  0.52825544094E+02  0.00000000000E+00 0. -1.
<mgrwt>
<rscale>  0 0.11666106E+03</rscale>
<asrwt>0</asrwt>
<pdfrwt beam="1">  1        1 0.10120304E-01 0.12589738E+03</pdfrwt>
<pdfrwt beam="2">  1       -1 0.31213926E-01 0.12589738E+03</pdfrwt>
<totfact> 0.56995654E+03</totfact>
</mgrwt>
</event>
<event>
 7    1  0.5206756E-006  0.1544243E+03  0.7546771E-02  0.1203817E+00
         -1   -1    0    0    0  501 -0.00000000000E+00  0.00000000000E+00  0.27507218103E+03  0.27507218103E+03  0.00000000000E+00 0.  1.
          1   -1    0    0  501    0  0.00000000000E+00 -0.00000000000E+00 -0.11606345502E+03  0.11606345502E+03  0.00000000000E+00 0. -1.
         23    2    1    2    0    0 -0.63142467426E+02  0.65088210047E+02 -0.35409392463E+02  0.15843194220E+03  0.12499363566E+03 0.  0.
          5    1    3    3  502    0 -0.25397691877E+02 -0.31167429763E+02 -0.37116213785E+02  0.54919529828E+02  0.47000000000E+01 0. -1.
         -5    1    3    3    0  502 -0.37744775548E+02  0.96255639811E+02  0.17068213224E+01  0.10351241237E+03  0.47000000000E+01 0. -1.
        -11    1    1    2    0    0  0.58405284635E+02 -0.26349522640E+02  0.45062536421E+02  0.78333305850E+02  0.00000000000E+00 0. -1.
         11    1    1    2    0    0  0.47371827909E+01 -0.38738687407E+02  0.14935558205E+03  0.15437038800E+03  0.00000000000E+00 0.  1.
<mgrwt>
<rscale>  0 0.14731095E+03</rscale>
<asrwt>0</asrwt>
<pdfrwt beam="2">  1        1 0.17855916E-01 0.15442427E+03</pdfrwt>
<pdfrwt beam="1">  1       -1 0.42318797E-01 0.15442427E+03</pdfrwt>
<totfact> 0.16234001E+03</totfact>
</mgrwt>
</event>
<event>
 7    1  0.5206756E-006  0.1415918E+03  0.7546771E-02  0.1221565E+00
          2   -1    0    0  501    0  0.00000000000E+00  0.00000000000E+00  0.32364313654E+03  0.32364313654E+03  0.00000000000E+00 0. -1.
         -2   -1    0    0    0  501 -0.00000000000E+00 -0.00000000000E+00 -0.58830070183E+02  0.58830070183E+02  0.00000000000E+00 0.  1.
         23    2    1    2    0    0 -0.53684934637E+02  0.39275942241E+02  0.21693133231E+03  0.25905104564E+03  0.12499427772E+03 0.  0.
          5    1    3    3  502    0 -0.63610894010E+02 -0.29678174937E+02  0.12714955231E+03  0.14531427513E+03  0.47000000000E+01 0.  1.
         -5    1    3    3    0  502  0.99259593734E+01  0.68954117178E+02  0.89781780001E+02  0.11373677051E+03  0.47000000000E+01 0.  1.
        -11    1    1    2    0    0  0.40422690538E+01 -0.19314891775E+02  0.64455456704E+02  0.67408537162E+02  0.00000000000E+00 0. -1.
         11    1    1    2    0    0  0.49642665583E+02 -0.19961050466E+02 -0.16573722660E+02  0.56013623920E+02  0.00000000000E+00 0.  1.
<mgrwt>
<rscale>  0 0.13405158E+03</rscale>
<asrwt>0</asrwt>
<pdfrwt beam="1">  1        2 0.49791251E-01 0.14159181E+03</pdfrwt>
<pdfrwt beam="2">  1       -2 0.90507802E-02 0.14159181E+03</pdfrwt>
<totfact> 0.74774003E+03</totfact>
</mgrwt>
</event>
<event>
 7    1  0.5206756E-006  0.1476122E+03  0.7546771E-02  0.1212860E+00
         -2   -1    0    0    0  501 -0.00000000000E+00  0.00000000000E+00  0.14681169264E+03  0.14681169264E+03  0.00000000000E+00 0.  1.
          2   -1    0    0  501    0  0.00000000000E+00 -0.00000000000E+00 -0.12499127653E+03  0.12499127653E+03  0.00000000000E+00 0. -1.
         23    2    1    2    0    0 -0.74250665404E+02 -0.25511960984E+02 -0.69802666179E+01  0.14777716685E+03  0.12500138181E+03 0.  0.
          5    1    3    3  502    0 -0.79490115144E+02  0.15510708829E+02 -0.43810754841E+02  0.92199418294E+02  0.47000000000E+01 0. -1.
         -5    1    3    3    0  502  0.52394497405E+01 -0.41022669813E+02  0.36830488223E+02  0.55577748560E+02  0.47000000000E+01 0. -1.
        -11    1    1    2    0    0  0.62023533362E+02  0.91008180738E+01 -0.24211276115E+02  0.67200665707E+02  0.00000000000E+00 0. -1.
         11    1    1    2    0    0  0.12227132042E+02  0.16411142910E+02  0.53011958844E+02  0.56825136604E+02  0.00000000000E+00 0.  1.
<mgrwt>
<rscale>  0 0.14034938E+03</rscale>
<asrwt>0</asrwt>
<pdfrwt beam="2">  1        2 0.19229427E-01 0.14761222E+03</pdfrwt>
<pdfrwt beam="1">  1       -2 0.22586414E-01 0.14761222E+03</pdfrwt>
<totfact> 0.47449014E+03</totfact>
</mgrwt>
</event>
<event>
 7    1  0.5206756E-006  0.2000902E+03  0.7546771E-02  0.1151575E+00
          2   -1    0    0  501    0  0.00000000000E+00  0.00000000000E+00  0.99467006415E+02  0.99467006415E+02  0.00000000000E+00 0. -1.
         -2   -1    0    0    0  501 -0.00000000000E+00 -0.00000000000E+00 -0.55150413642E+03  0.55150413642E+03  0.00000000000E+00 0.  1.
         23    2    1    2    0    0 -0.15152617392E+03 -0.38029822577E+02 -0.50720495731E+02  0.20641866274E+03  0.12501858602E+03 0.  0.
          5    1    3    3  502    0 -0.15881699644E+03 -0.53970732473E+02 -0.68283108657E+02  0.18116387954E+03  0.47000000000E+01 0.  1.
         -5    1    3    3    0  502  0.72908225226E+01  0.15940909896E+02  0.17562612926E+02  0.25254783194E+02  0.47000000000E+01 0.  1.
        -11    1    1    2    0    0  0.13114606916E+03  0.61543274915E+02 -0.38042043010E+03  0.40707071840E+03  0.00000000000E+00 0.  1.
         11    1    1    2    0    0  0.20380104759E+02 -0.23513452338E+02 -0.20896204173E+02  0.37481761694E+02  0.00000000000E+00 0. -1.
<mgrwt>
<rscale>  0 0.19783940E+03</rscale>
<asrwt>0</asrwt>
<pdfrwt beam="1">  1        2 0.15302616E-01 0.20009022E+03</pdfrwt>
<pdfrwt beam="2">  1       -2 0.84846791E-01 0.20009022E+03</pdfrwt>
<totfact> 0.47424372E+02</totfact>
</mgrwt>
</event>
<event>
 7    1  0.5206756E-006  0.2016633E+03  0.7546771E-02  0.1149108E+00
          2   -1    0    0  501    0  0.00000000000E+00  0.00000000000E+00  0.26341031983E+03  0.26341031983E+03  0.00000000000E+00 0. -1.
         -2   -1    0    0    0  501 -0.00000000000E+00 -0.00000000000E+00 -0.32304495156E+03  0.32304495156E+03  0.00000000000E+00 0.  1.
         23    2    1    2    0    0  0.12946813311E+03  0.99284668879E+02  0.18390777102E+03  0.27025754820E+03  0.11223916942E+03 0.  0.
          5    1    3    3  502    0  0.10504871026E+03  0.89145350684E+02  0.19695001147E+03  0.24040283296E+03  0.47000000000E+01 0. -1.
         -5    1    3    3    0  502  0.24419422852E+02  0.10139318195E+02 -0.13042240455E+02  0.29854715239E+02  0.47000000000E+01 0.  1.
        -11    1    1    2    0    0 -0.10300232970E+03 -0.12520144857E+03 -0.21581403934E+03  0.26992699425E+03  0.00000000000E+00 0.  1.
         11    1    1    2    0    0 -0.26465803408E+02  0.25916779691E+02 -0.27728363401E+02  0.46270728938E+02  0.00000000000E+00 0. -1.
<mgrwt>
<rscale>  0 0.20074956E+03</rscale>
<asrwt>0</asrwt>
<pdfrwt beam="1">  1        2 0.40524665E-01 0.20166333E+03</pdfrwt>
<pdfrwt beam="2">  1       -2 0.49699223E-01 0.20166333E+03</pdfrwt>
<totfact> 0.49157744E+02</totfact>
</mgrwt>
</event>
<event>
 6    1  0.5206756E-006  0.2418091E+03  0.7546771E-02  0.1139723E+00
          2   -1    0    0  501    0  0.00000000000E+00  0.00000000000E+00  0.10994242593E+03  0.10994242593E+03  0.00000000000E+00 0. -1.
         -2   -1    0    0    0  501 -0.00000000000E+00 -0.00000000000E+00 -0.52303617087E+03  0.52303617087E+03  0.00000000000E+00 0.  1.
          5    1    1    2  502    0 -0.22711140587E+02 -0.53306015024E+02  0.24828753872E+02  0.63213006283E+02  0.47000000000E+01 0. -1.
         -5    1    1    2    0  502  0.29544006804E+02  0.16362814867E+03 -0.81097868707E+02  0.18505667695E+03  0.47000000000E+01 0.  1.
        -11    1    1    2    0    0 -0.42227507756E+02 -0.78360408734E+02 -0.28430011633E+03  0.29790950340E+03  0.00000000000E+00 0. -1.
         11    1    1    2    0    0  0.35394641539E+02 -0.31961724908E+02 -0.72524513770E+02  0.86799410173E+02  0.00000000000E+00 0.  1.
<mgrwt>
<rscale>  0 0.21234435E+03</rscale>
<asrwt>0</asrwt>
<pdfrwt beam="1">  1        2 0.16914220E-01 0.24180906E+03</pdfrwt>
<pdfrwt beam="2">  1       -2 0.80467102E-01 0.24180906E+03</pdfrwt>
<totfact> 0.47531353E+02</totfact>
</mgrwt>
</event>
<event>
 7    1  0.5206756E-006  0.1392769E+03  0.7546771E-02  0.1218939E+00
         -2   -1    0    0    0  501 -0.00000000000E+00  0.00000000000E+00  0.34322109092E+02  0.34322109092E+02  0.00000000000E+00 0.  1.
          2   -1    0    0  501    0  0.00000000000E+00 -0.00000000000E+00 -0.52907757330E+03  0.52907757330E+03  0.00000000000E+00 0. -1.
         23    2    1    2    0    0  0.23683222894E+02  0.52386878402E+02 -0.21118794545E+03  0.25297906320E+03  0.12685731370E+03 0.  0.
          5    1    3    3  502    0 -0.23901526328E+02  0.25163872397E+02 -0.19128905650E+03  0.19446875474E+03  0.47000000000E+01 0. -1.
         -5    1    3    3    0  502  0.47584749222E+02  0.27223006005E+02 -0.19898888948E+02  0.58510308458E+02  0.47000000000E+01 0.  1.
        -11    1    1    2    0    0  0.25344084455E+02 -0.66573383461E+02 -0.12537640256E+03  0.14419979307E+03  0.00000000000E+00 0.  1.
         11    1    1    2    0    0 -0.49027307349E+02  0.14186505059E+02 -0.15819111620E+03  0.16622082612E+03  0.00000000000E+00 0. -1.
<mgrwt>
<rscale>  0 0.13591140E+03</rscale>
<asrwt>0</asrwt>
<pdfrwt beam="2">  1        2 0.81396543E-01 0.13927691E+03</pdfrwt>
<pdfrwt beam="1">  1       -2 0.52803249E-02 0.13927691E+03</pdfrwt>
<totfact> 0.10037906E+04</totfact>
</mgrwt>
</event>
<event>
 7    1  0.5206756E-006  0.1403772E+03  0.7546771E-02  0.1224345E+00
          2   -1    0    0  501    0  0.00000000000E+00  0.00000000000E+00  0.10983787713E+03  0.10983787713E+03  0.00000000000E+00 0. -1.
         -2   -1    0    0    0  501 -0.00000000000E+00 -0.00000000000E+00 -0.15096975586E+03  0.15096975586E+03  0.00000000000E+00 0.  1.
         23    2    1    2    0    0  0.40541355966E+02 -0.49362599510E+02  0.71145164189E+01  0.14055733009E+03  0.12500191568E+03 0.  0.
          5    1    3    3  502    0 -0.29491136183E+02 -0.50912884865E+02  0.30652498924E+02  0.66509507959E+02  0.47000000000E+01 0. -1.
         -5    1    3    3    0  502  0.70032492149E+02  0.15502853543E+01 -0.23537982505E+02  0.74047822127E+02  0.47000000000E+01 0. -1.
        -11    1    1    2    0    0 -0.66982646561E+02  0.22455756965E+02 -0.20954012338E+02  0.73688578452E+02  0.00000000000E+00 0.  1.
         11    1    1    2    0    0  0.26441290596E+02  0.26906842546E+02 -0.27292382811E+02  0.46561724449E+02  0.00000000000E+00 0. -1.
<mgrwt>
<rscale>  0 0.13211915E+03</rscale>
<asrwt>0</asrwt>
<pdfrwt beam="1">  1        2 0.16898135E-01 0.14037716E+03</pdfrwt>
<pdfrwt beam="2">  1       -2 0.23226116E-01 0.14037716E+03</pdfrwt>
<totfact> 0.52274219E+03</totfact>
</mgrwt>
</event>
<event>
 7    1  0.5206756E-006  0.1719899E+03  0.7546771E-02  0.1181986E+00
          2   -1    0    0  501    0  0.00000000000E+00  0.00000000000E+00  0.23206114525E+03  0.23206114525E+03  0.00000000000E+00 0. -1.
         -2   -1    0    0    0  501 -0.00000000000E+00 -0.00000000000E+00 -0.12605064462E+03  0.12605064462E+03  0.00000000000E+00 0.  1.
         23    2    1    2    0    0  0.79944748871E+02 -0.86962702641E+02  0.11717667038E+03  0.20811268631E+03  0.12500737418E+03 0.  0.
          5    1    3    3  502    0  0.80500625574E+02 -0.11386658965E+03  0.76525423970E+02  0.15913573285E+03  0.47000000000E+01 0.  1.
         -5    1    3    3    0  502 -0.55587670265E+00  0.26903887011E+02  0.40651246408E+02  0.48976953455E+02  0.47000000000E+01 0.  1.
        -11    1    1    2    0    0 -0.46523091584E+02  0.84885793042E+02 -0.41025576277E+02  0.10513369498E+03  0.00000000000E+00 0.  1.
         11    1    1    2    0    0 -0.33421657287E+02  0.20769095990E+01  0.29859406526E+02  0.44865408584E+02  0.00000000000E+00 0. -1.
<mgrwt>
<rscale>  0 0.16609160E+03</rscale>
<asrwt>0</asrwt>
<pdfrwt beam="1">  1        2 0.35701715E-01 0.17198988E+03</pdfrwt>
<pdfrwt beam="2">  1       -2 0.19392407E-01 0.17198988E+03</pdfrwt>
<totfact> 0.31340542E+03</totfact>
</mgrwt>
</event>
<event>
 6    1  0.5206756E-006  0.3475725E+03  0.7546771E-02  0.1063616E+00
         -2   -1    0    0    0  501 -0.00000000000E+00  0.00000000000E+00  0.44455978865E+03  0.44455978865E+03  0.00000000000E+00 0.  1.
          2   -1    0    0  501    0  0.00000000000E+00 -0.00000000000E+00 -0.67936121869E+02  0.67936121869E+02  0.00000000000E+00 0. -1.
          5    1    1    2  502    0 -0.18808655324E+02  0.66624345502E+02 -0.14659000481E+02  0.70919286684E+02  0.47000000000E+01 0. -1.
         -5    1    1    2    0  502  0.43054283851E+02 -0.32062671231E+02  0.61912563367E+02  0.82078875157E+02  0.47000000000E+01 0.  1.
        -11    1    1    2    0    0  0.48612155544E+02 -0.49734980092E+02  0.16563612449E+03  0.17964419180E+03  0.00000000000E+00 0.  1.
         11    1    1    2    0    0 -0.72857784071E+02  0.15173305821E+02  0.16373397940E+03  0.17985355687E+03  0.00000000000E+00 0. -1.
<mgrwt>
<rscale>  0 0.34757254E+03</rscale>
<asrwt>0</asrwt>
<pdfrwt beam="2">  1        2 0.10451711E-01 0.34757254E+03</pdfrwt>
<pdfrwt beam="1">  1       -2 0.68393812E-01 0.34757254E+03</pdfrwt>
<totfact> 0.12220832E+03</totfact>
</mgrwt>
</event>
<event>
 7    1  0.5206756E-006  0.1583054E+03  0.7546771E-02  0.1198651E+00
          1   -1    0    0  501    0  0.00000000000E+00  0.00000000000E+00  0.51468838409E+03  0.51468838409E+03  0.00000000000E+00 0. -1.
         -1   -1    0    0    0  501 -0.00000000000E+00 -0.00000000000E+00 -0.69034318223E+02  0.69034318223E+02  0.00000000000E+00 0.  1.
         23    2    1    2    0    0 -0.84580412875E+02  0.47770579755E+02  0.41954552009E+03  0.44841838644E+03  0.12499892533E+03 0.  0.
          5    1    3    3  502    0 -0.58443070095E+02  0.37516423718E+02  0.73594751854E+02  0.10129833163E+03  0.47000000000E+01 0.  1.
         -5    1    3    3    0  502 -0.26137342779E+02  0.10254156037E+02  0.34595076824E+03  0.34712005481E+03  0.47000000000E+01 0.  1.
        -11    1    1    2    0    0  0.37379754952E+02 -0.30713836785E+02 -0.32394467021E+02  0.58223597827E+02  0.00000000000E+00 0.  1.
         11    1    1    2    0    0  0.47200657923E+02 -0.17056742970E+02  0.58503012801E+02  0.77080718055E+02  0.00000000000E+00 0. -1.
<mgrwt>
<rscale>  0 0.15149205E+03</rscale>
<asrwt>0</asrwt>
<pdfrwt beam="1">  1        1 0.79182826E-01 0.15830542E+03</pdfrwt>
<pdfrwt beam="2">  1       -1 0.10620665E-01 0.15830542E+03</pdfrwt>
<totfact> 0.23709747E+03</totfact>
</mgrwt>
</event>
<event>
 7    1  0.5206756E-006  0.1611094E+03  0.7546771E-02  0.1194716E+00
         -1   -1    0    0    0  501 -0.00000000000E+00  0.00000000000E+00  0.67182309443E+03  0.67182309443E+03  0.00000000000E+00 0.  1.
          1   -1    0    0  501    0  0.00000000000E+00 -0.00000000000E+00 -0.33168428731E+02  0.33168428731E+02  0.00000000000E+00 0. -1.
         23    2    1    2    0    0  0.85577669943E+02 -0.54838384861E+02  0.33234014096E+03  0.36933212980E+03  0.12500186703E+03 0.  0.
          5    1    3    3  502    0 -0.23444656558E+01  0.33538382369E+02  0.10020740614E+03  0.10580138872E+03  0.47000000000E+01 0. -1.
         -5    1    3    3    0  502  0.87922135599E+02 -0.88376767229E+02  0.23213273483E+03  0.26353074108E+03  0.47000000000E+01 0. -1.
        -11    1    1    2    0    0 -0.22827798865E+02  0.29742075983E+02  0.22102360243E+02  0.43522566711E+02  0.00000000000E+00 0. -1.
         11    1    1    2    0    0 -0.62749871078E+02  0.25096308878E+02  0.28421216450E+03  0.29213682665E+03  0.00000000000E+00 0.  1.
<mgrwt>
<rscale>  0 0.15478253E+03</rscale>
<asrwt>0</asrwt>
<pdfrwt beam="2">  1        1 0.51028357E-02 0.16110944E+03</pdfrwt>
<pdfrwt beam="1">  1       -1 0.10335739E+00 0.16110944E+03</pdfrwt>
<totfact> 0.14877799E+03</totfact>
</mgrwt>
</event>
<event>
 7    1  0.5206756E-006  0.1274093E+03  0.7546771E-02  0.1247537E+00
         -1   -1    0    0    0  501 -0.00000000000E+00  0.00000000000E+00  0.97823530057E+01  0.97823530057E+01  0.00000000000E+00 0.  1.
          1   -1    0    0  501    0  0.00000000000E+00 -0.00000000000E+00 -0.14071097438E+04  0.14071097438E+04  0.00000000000E+00 0. -1.
         23    2    1    2    0    0  0.13638975083E+02 -0.13387908102E+02 -0.10486464794E+04  0.10563581671E+04  0.12596777631E+03 0.  0.
          5    1    3    3  502    0 -0.25329914625E+02  0.48037717780E+02 -0.44456127103E+03  0.44789065697E+03  0.47000000000E+01 0. -1.
         -5    1    3    3    0  502  0.38968889708E+02 -0.61425625881E+02 -0.60408520838E+03  0.60846751012E+03  0.47000000000E+01 0.  1.
        -11    1    1    2    0    0 -0.26948937574E+02  0.45673336344E+02 -0.25728893768E+03  0.26269734743E+03  0.00000000000E+00 0. -1.
         11    1    1    2    0    0  0.13309962492E+02 -0.32285428242E+02 -0.91391973703E+02  0.97836582298E+02  0.00000000000E+00 0.  1.
<mgrwt>
<rscale>  0 0.11734829E+03</rscale>
<asrwt>0</asrwt>
<pdfrwt beam="2">  1        1 0.21647842E+00 0.12740933E+03</pdfrwt>
<pdfrwt beam="1">  1       -1 0.15049774E-02 0.12740933E+03</pdfrwt>
<totfact> 0.83312743E+03</totfact>
</mgrwt>
</event>
<event>
 7    1  0.5206756E-006  0.1369711E+03  0.7546771E-02  0.1229566E+00
          4   -1    0    0  501    0  0.00000000000E+00  0.00000000000E+00  0.57241207367E+02  0.57241207367E+02  0.00000000000E+00 0. -1.
         -4   -1    0    0    0  501 -0.00000000000E+00 -0.00000000000E+00 -0.27140929039E+03  0.27140929039E+03  0.00000000000E+00 0.  1.
         23    2    1    2    0    0 -0.22878921123E+02  0.51118916375E+02 -0.84574316954E+02  0.16097790993E+03  0.12499793500E+03 0.  0.
          5    1    3    3  502    0  0.23357352810E+02  0.14766120843E+02  0.24330160991E+02  0.37116721150E+02  0.47000000000E+01 0. -1.
         -5    1    3    3    0  502 -0.46236273933E+02  0.36352795533E+02 -0.10890447794E+03  0.12386118878E+03  0.47000000000E+01 0. -1.
        -11    1    1    2    0    0 -0.31557581615E+01 -0.33064058997E+02 -0.13179293666E+03  0.13591382917E+03  0.00000000000E+00 0.  1.
         11    1    1    2    0    0  0.26034679285E+02 -0.18054857378E+02  0.21991705824E+01  0.31758758660E+02  0.00000000000E+00 0. -1.
<mgrwt>
<rscale>  0 0.12858795E+03</rscale>
<asrwt>0</asrwt>
<pdfrwt beam="1">  1        4 0.88063396E-02 0.13697106E+03</pdfrwt>
<pdfrwt beam="2">  1       -4 0.41755275E-01 0.13697106E+03</pdfrwt>
<totfact> 0.86976013E+02</totfact>
</mgrwt>
</event>
<event>
 7    1  0.5206756E-006  0.1584806E+03  0.7546771E-02  0.1198734E+00
          2   -1    0    0  501    0  0.00000000000E+00  0.00000000000E+00  0.10488246337E+04  0.10488246337E+04  0.00000000000E+00 0.  1.
         -2   -1    0    0    0  501 -0.00000000000E+00 -0.00000000000E+00 -0.21232646056E+02  0.21232646056E+02  0.00000000000E+00 0. -1.
         23    2    1    2    0    0 -0.77535337401E+02 -0.58991065797E+02  0.67979977613E+03  0.69802853013E+03  0.12499767543E+03 0.  0.
          5    1    3    3  502    0 -0.28614654911E+02 -0.84880177330E+02  0.54337492095E+03  0.55072846095E+03  0.47000000000E+01 0. -1.
         -5    1    3    3    0  502 -0.48920682490E+02  0.25889111533E+02  0.13642485518E+03  0.14730006919E+03  0.47000000000E+01 0. -1.
        -11    1    1    2    0    0  0.48596357430E+02  0.44273702600E+02  0.32684620174E+03  0.33339197094E+03  0.00000000000E+00 0.  1.
         11    1    1    2    0    0  0.28938979972E+02  0.14717363197E+02  0.20946009772E+02  0.38636778678E+02  0.00000000000E+00 0. -1.
<mgrwt>
<rscale>  0 0.15142372E+03</rscale>
<asrwt>0</asrwt>
<pdfrwt beam="1">  1        2 0.16135759E+00 0.15848058E+03</pdfrwt>
<pdfrwt beam="2">  1       -2 0.32665618E-02 0.15848058E+03</pdfrwt>
<totfact> 0.89115826E+03</totfact>
</mgrwt>
</event>
<event>
 6    1  0.5206756E-006  0.1532046E+03  0.7546771E-02  0.1205672E+00
          2   -1    0    0  501    0  0.00000000000E+00  0.00000000000E+00  0.16823697010E+02  0.16823697010E+02  0.00000000000E+00 0. -1.
         -2   -1    0    0    0  501 -0.00000000000E+00 -0.00000000000E+00 -0.11825529134E+04  0.11825529134E+04  0.00000000000E+00 0.  1.
          5    1    1    2  502    0  0.90934762943E+01 -0.87142109890E+02 -0.27618681138E+03  0.28978903258E+03  0.47000000000E+01 0. -1.
         -5    1    1    2    0  502 -0.59551731756E+02  0.22298087970E+02 -0.27483057635E+03  0.28213037621E+03  0.47000000000E+01 0.  1.
        -11    1    1    2    0    0  0.26113422759E+02  0.88185591581E+02 -0.46199537409E+03  0.47106086135E+03  0.00000000000E+00 0.  1.
         11    1    1    2    0    0  0.24344832703E+02 -0.23341569661E+02 -0.15271645453E+03  0.15639634023E+03  0.00000000000E+00 0. -1.
<mgrwt>
<rscale>  0 0.14584633E+03</rscale>
<asrwt>0</asrwt>
<pdfrwt beam="1">  1        2 0.25882611E-02 0.15320460E+03</pdfrwt>
<pdfrwt beam="2">  1       -2 0.18193121E+00 0.15320460E+03</pdfrwt>
<totfact> 0.70891610E+02</totfact>
</mgrwt>
</event>
<event>
 7    1  0.5206756E-006  0.1344774E+03  0.7546771E-02  0.1233397E+00
         -2   -1    0    0    0  501 -0.00000000000E+00  0.00000000000E+00  0.16724186263E+02  0.16724186263E+02  0.00000000000E+00 0.  1.
          2   -1    0    0  501    0  0.00000000000E+00 -0.00000000000E+00 -0.86413782041E+03  0.86413782041E+03  0.00000000000E+00 0. -1.
         23    2    1    2    0    0 -0.13009674916E+02  0.47892881257E+02 -0.53425897139E+03  0.55092360176E+03  0.12498474608E+03 0.  0.
          5    1    3    3  502    0 -0.16791989926E+02  0.42764379850E+02 -0.55946520298E+02  0.72545614913E+02  0.47000000000E+01 0.  1.
         -5    1    3    3    0  502  0.37823150103E+01  0.51285014071E+01 -0.47831245109E+03  0.47837798685E+03  0.47000000000E+01 0.  1.
        -11    1    1    2    0    0  0.24758920458E+02  0.14557885690E+02 -0.38528458313E+02  0.48055991073E+02  0.00000000000E+00 0.  1.
         11    1    1    2    0    0 -0.11749245542E+02 -0.62450766947E+02 -0.27462620445E+03  0.28188241384E+03  0.00000000000E+00 0. -1.
<mgrwt>
<rscale>  0 0.12607595E+03</rscale>
<asrwt>0</asrwt>
<pdfrwt beam="2">  1        2 0.13294427E+00 0.13447738E+03</pdfrwt>
<pdfrwt beam="1">  1       -2 0.25729518E-02 0.13447738E+03</pdfrwt>
<totfact> 0.16276496E+04</totfact>
</mgrwt>
</event>
<event>
 7    1  0.5206756E-006  0.1319885E+03  0.7546771E-02  0.1236746E+00
         -2   -1    0    0    0  501 -0.00000000000E+00  0.00000000000E+00  0.10830014384E+03  0.10830014384E+03  0.00000000000E+00 0.  1.
          2   -1    0    0  501    0  0.00000000000E+00 -0.00000000000E+00 -0.12813784291E+03  0.12813784291E+03  0.00000000000E+00 0. -1.
         23    2    1    2    0    0 -0.85147211612E+01  0.41517842528E+02 -0.26385078564E+00  0.13198876880E+03  0.12499893499E+03 0.  0.
          5    1    3    3  502    0 -0.14510572941E+02  0.63541863769E+02  0.46185749751E+02  0.80020863894E+02  0.47000000000E+01 0.  1.
         -5    1    3    3    0  502  0.59958517798E+01 -0.22024021241E+02 -0.46449600537E+02  0.51967904905E+02  0.47000000000E+01 0.  1.
        -11    1    1    2    0    0  0.79105475236E+01 -0.70522475263E+02 -0.24394355567E+02  0.75040528135E+02  0.00000000000E+00 0. -1.
         11    1    1    2    0    0  0.60417363758E+00  0.29004632735E+02  0.48205072793E+01  0.29408689809E+02  0.00000000000E+00 0.  1.
<mgrwt>
<rscale>  0 0.12393318E+03</rscale>
<asrwt>0</asrwt>
<pdfrwt beam="2">  1        2 0.19713514E-01 0.13198851E+03</pdfrwt>
<pdfrwt beam="1">  1       -2 0.16661561E-01 0.13198851E+03</pdfrwt>
<totfact> 0.76487765E+03</totfact>
</mgrwt>
</event>
<event>
 7    1  0.5206756E-006  0.1338345E+03  0.7546771E-02  0.1234958E+00
          1   -1    0    0  501    0  0.00000000000E+00  0.00000000000E+00  0.30810897349E+03  0.30810897349E+03  0.00000000000E+00 0. -1.
         -1   -1    0    0    0  501 -0.00000000000E+00 -0.00000000000E+00 -0.45316327506E+02  0.45316327506E+02  0.00000000000E+00 0.  1.
         23    2    1    2    0    0  0.47818750936E+02  0.15019993522E+01  0.15939429316E+03  0.20813030236E+03  0.12499117220E+03 0.  0.
          5    1    3    3  502    0  0.10494579357E+02 -0.94631141390E+01 -0.19758600998E+02  0.24742252090E+02  0.47000000000E+01 0.  1.
         -5    1    3    3    0  502  0.37324171579E+02  0.10965113491E+02  0.17915289416E+03  0.18338805027E+03  0.47000000000E+01 0.  1.
        -11    1    1    2    0    0 -0.67249265226E+02 -0.23678190847E+02  0.62083389651E+02  0.94538180995E+02  0.00000000000E+00 0.  1.
         11    1    1    2    0    0  0.19430514290E+02  0.22176191494E+02  0.41314963170E+02  0.50756817636E+02  0.00000000000E+00 0. -1.
<mgrwt>
<rscale>  0 0.12507098E+03</rscale>
<asrwt>0</asrwt>
<pdfrwt beam="1">  1        1 0.47401379E-01 0.13383453E+03</pdfrwt>
<pdfrwt beam="2">  1       -1 0.69717429E-02 0.13383453E+03</pdfrwt>
<totfact> 0.85365050E+03</totfact>
</mgrwt>
</event>
<event>
 7    1  0.5206756E-006  0.1367545E+03  0.7546771E-02  0.1230113E+00
          3   -1    0    0  501    0  0.00000000000E+00  0.00000000000E+00  0.70474892594E+02  0.70474892594E+02  0.00000000000E+00 0. -1.
         -3   -1    0    0    0  501 -0.00000000000E+00 -0.00000000000E+00 -0.36762453995E+03  0.36762453995E+03  0.00000000000E+00 0.  1.
         23    2    1    2    0    0 -0.47982552266E+02  0.27858761090E+02 -0.15939456471E+02  0.13768027277E+03  0.12499342121E+03 0.  0.
          5    1    3    3  502    0 -0.71711019976E+02 -0.65565320368E+01  0.27486409626E+02  0.77220795208E+02  0.47000000000E+01 0. -1.
         -5    1    3    3    0  502  0.23728467710E+02  0.34415293127E+02 -0.43425866096E+02  0.60459477562E+02  0.47000000000E+01 0. -1.
        -11    1    1    2    0    0  0.29163340018E+02 -0.44180549665E+02 -0.26603270346E+03  0.27124863258E+03  0.00000000000E+00 0.  1.
         11    1    1    2    0    0  0.18819212248E+02  0.16321788575E+02 -0.15177487428E+02  0.29170527190E+02  0.00000000000E+00 0. -1.
<mgrwt>
<rscale>  0 0.12822568E+03</rscale>
<asrwt>0</asrwt>
<pdfrwt beam="1">  1        3 0.10842291E-01 0.13675449E+03</pdfrwt>
<pdfrwt beam="2">  1       -3 0.56557622E-01 0.13675449E+03</pdfrwt>
<totfact> 0.46563870E+02</totfact>
</mgrwt>
</event>
<event>
 7    1  0.5206756E-006  0.1673938E+03  0.7546771E-02  0.1188016E+00
         -3   -1    0    0    0  501 -0.00000000000E+00  0.00000000000E+00  0.19060855297E+03  0.19060855297E+03  0.00000000000E+00 0.  1.
          3   -1    0    0  501    0  0.00000000000E+00 -0.00000000000E+00 -0.12554506739E+03  0.12554506739E+03  0.00000000000E+00 0. -1.
         23    2    1    2    0    0  0.96234853454E+02 -0.55974315785E+02  0.40066343457E+02  0.17212205514E+03  0.12500567563E+03 0.  0.
          5    1    3    3  502    0  0.22615677040E+02  0.34866419200E+02 -0.12764294475E+02  0.43728174548E+02  0.47000000000E+01 0.  1.
         -5    1    3    3    0  502  0.73619176414E+02 -0.90840734985E+02  0.52830637932E+02  0.12839388059E+03  0.47000000000E+01 0.  1.
        -11    1    1    2    0    0 -0.10389046595E+03  0.25797988765E+02  0.32759436995E+02  0.11194617390E+03  0.00000000000E+00 0.  1.
         11    1    1    2    0    0  0.76556124914E+01  0.30176327020E+02 -0.77622948747E+01  0.32085391329E+02  0.00000000000E+00 0. -1.
<mgrwt>
<rscale>  0 0.16060486E+03</rscale>
<asrwt>0</asrwt>
<pdfrwt beam="2">  1        3 0.19314626E-01 0.16739382E+03</pdfrwt>
<pdfrwt beam="1">  1       -3 0.29324393E-01 0.16739382E+03</pdfrwt>
<totfact> 0.63769609E+02</totfact>
</mgrwt>
</event>
<event>
 6    1  0.5206756E-006  0.1524372E+03  0.7546771E-02  0.1211202E+00
          4   -1    0    0  501    0  0.00000000000E+00  0.00000000000E+00  0.65263191474E+02  0.65263191474E+02  0.00000000000E+00 0. -1.
         -4   -1    0    0    0  501 -0.00000000000E+00 -0.00000000000E+00 -0.29581736280E+03  0.29581736280E+03  0.00000000000E+00 0.  1.
          5    1    1    2  502    0 -0.95167227647E+02 -0.49638120532E+02 -0.61680389111E+02  0.12388423882E+03  0.47000000000E+01 0. -1.
         -5    1    1    2    0  502  0.43405586806E+02  0.88164117367E+01 -0.17135909235E+02  0.47723196322E+02  0.47000000000E+01 0.  1.
        -11    1    1    2    0    0 -0.16382067658E+02  0.12370206970E+02  0.21299083319E+00  0.20528992336E+02  0.00000000000E+00 0. -1.
         11    1    1    2    0    0  0.68143708499E+02  0.28451501825E+02 -0.15195086381E+03  0.16894412679E+03  0.00000000000E+00 0.  1.
<mgrwt>
<rscale>  0 0.14159226E+03</rscale>
<asrwt>0</asrwt>
<pdfrwt beam="1">  1        4 0.10040491E-01 0.15243721E+03</pdfrwt>
<pdfrwt beam="2">  1       -4 0.45510364E-01 0.15243721E+03</pdfrwt>
<totfact> 0.60015336E+02</totfact>
</mgrwt>
</event>
<event>
 7    1  0.5206756E-006  0.1543312E+03  0.7546771E-02  0.1198638E+00
         -1   -1    0    0    0  501 -0.00000000000E+00  0.00000000000E+00  0.16129215416E+03  0.16129215416E+03  0.00000000000E+00 0.  1.
          1   -1    0    0  501    0  0.00000000000E+00 -0.00000000000E+00 -0.13824742622E+03  0.13824742622E+03  0.00000000000E+00 0. -1.
         23    2    1    2    0    0  0.75641944764E+02  0.49711255982E+02 -0.25130572734E+00  0.15433138027E+03  0.12500079601E+03 0.  0.
          5    1    3    3  502    0  0.10507444781E+03  0.26781130534E+02  0.21848982441E+02  0.11071285639E+03  0.47000000000E+01 0. -1.
         -5    1    3    3    0  502 -0.29432503049E+02  0.22930125448E+02 -0.22100288169E+02  0.43618523886E+02  0.47000000000E+01 0. -1.
        -11    1    1    2    0    0 -0.62457994141E+02 -0.79150579403E+02 -0.68493734254E+01  0.10105804851E+03  0.00000000000E+00 0. -1.
         11    1    1    2    0    0 -0.13183950624E+02  0.29439323421E+02  0.30145407093E+02  0.44150151600E+02  0.00000000000E+00 0.  1.
<mgrwt>
<rscale>  0 0.15150344E+03</rscale>
<asrwt>0</asrwt>
<pdfrwt beam="2">  1        1 0.21268835E-01 0.15433118E+03</pdfrwt>
<pdfrwt beam="1">  1       -1 0.24814177E-01 0.15433118E+03</pdfrwt>
<totfact> 0.32264191E+03</totfact>
</mgrwt>
</event>
<event>
 7    1  0.5206756E-006  0.1999046E+03  0.7546771E-02  0.1152178E+00
          1   -1    0    0  501    0  0.00000000000E+00  0.00000000000E+00  0.12274662881E+03  0.12274662881E+03  0.00000000000E+00 0. -1.
         -1   -1    0    0    0  501 -0.00000000000E+00 -0.00000000000E+00 -0.30979174848E+03  0.30979174848E+03  0.00000000000E+00 0.  1.
         23    2    1    2    0    0 -0.50659044062E+02  0.14754168373E+03 -0.80318502867E+02  0.21543660409E+03  0.12500792493E+03 0.  0.
          5    1    3    3  502    0 -0.29143421151E+01 -0.17256178949E+02 -0.32583460076E+02  0.37283253244E+02  0.47000000000E+01 0. -1.
         -5    1    3    3    0  502 -0.47744701947E+02  0.16479786268E+03 -0.47735042790E+02  0.17815335084E+03  0.47000000000E+01 0. -1.
        -11    1    1    2    0    0  0.82754599764E+02 -0.10888970504E+03 -0.91694250150E+02  0.16466064240E+03  0.00000000000E+00 0.  1.
         11    1    1    2    0    0 -0.32095555702E+02 -0.38651978690E+02 -0.15032366648E+02  0.52441130800E+02  0.00000000000E+00 0. -1.
<mgrwt>
<rscale>  0 0.19713578E+03</rscale>
<asrwt>0</asrwt>
<pdfrwt beam="1">  1        1 0.18884097E-01 0.19990465E+03</pdfrwt>
<pdfrwt beam="2">  1       -1 0.47660268E-01 0.19990465E+03</pdfrwt>
<totfact> 0.12278699E+03</totfact>
</mgrwt>
</event>
<event>
 7    1  0.5206756E-006  0.1331088E+03  0.7546771E-02  0.1230686E+00
          1   -1    0    0  501    0  0.00000000000E+00  0.00000000000E+00  0.18422222451E+03  0.18422222451E+03  0.00000000000E+00 0. -1.
         -1   -1    0    0    0  501 -0.00000000000E+00 -0.00000000000E+00 -0.11023631723E+03  0.11023631723E+03  0.00000000000E+00 0.  1.
         23    2    1    2    0    0 -0.26586366635E+02 -0.54255133697E+02  0.11304855469E+03  0.17463657841E+03  0.11860651069E+03 0.  0.
          5    1    3    3  502    0  0.24775024761E+02 -0.46434752862E+02  0.30886798323E+01  0.52930313322E+02  0.47000000000E+01 0.  1.
         -5    1    3    3    0  502 -0.51361391396E+02 -0.78203808351E+01  0.10995987486E+03  0.12170626509E+03  0.47000000000E+01 0. -1.
        -11    1    1    2    0    0  0.31118566354E+02  0.23509721297E+02  0.26578070365E+02  0.47196037882E+02  0.00000000000E+00 0.  1.
         11    1    1    2    0    0 -0.45321997191E+01  0.30745412400E+02 -0.65640717778E+02  0.72625925456E+02  0.00000000000E+00 0. -1.
<mgrwt>
<rscale>  0 0.12784668E+03</rscale>
<asrwt>0</asrwt>
<pdfrwt beam="1">  1        1 0.28341881E-01 0.13310882E+03</pdfrwt>
<pdfrwt beam="2">  1       -1 0.16959433E-01 0.13310882E+03</pdfrwt>
<totfact> 0.41209167E+03</totfact>
</mgrwt>
</event>
<event>
 7    1  0.5206756E-006  0.1464655E+03  0.7546771E-02  0.1213452E+00
          2   -1    0    0  501    0  0.00000000000E+00  0.00000000000E+00  0.46969984906E+03  0.46969984906E+03  0.00000000000E+00 0. -1.
         -2   -1    0    0    0  501 -0.00000000000E+00 -0.00000000000E+00 -0.97379633439E+02  0.97379633439E+02  0.00000000000E+00 0.  1.
         23    2    1    2    0    0 -0.52923057933E+02  0.55015609505E+02  0.41325663784E+03  0.43844405134E+03  0.12499828032E+03 0.  0.
          5    1    3    3  502    0  0.32703976923E+02  0.50655388469E+02  0.16208031872E+03  0.17299606413E+03  0.47000000000E+01 0. -1.
         -5    1    3    3    0  502 -0.85627034856E+02  0.43602210352E+01  0.25117631912E+03  0.26544798721E+03  0.47000000000E+01 0. -1.
        -11    1    1    2    0    0  0.66102420037E+02 -0.26719242698E+02  0.67755653921E+01  0.71619523536E+02  0.00000000000E+00 0. -1.
         11    1    1    2    0    0 -0.13179362104E+02 -0.28296366807E+02 -0.47711987615E+02  0.57015907623E+02  0.00000000000E+00 0.  1.
<mgrwt>
<rscale>  0 0.13990880E+03</rscale>
<asrwt>0</asrwt>
<pdfrwt beam="1">  1        2 0.72261514E-01 0.14646548E+03</pdfrwt>
<pdfrwt beam="2">  1       -2 0.14981482E-01 0.14646548E+03</pdfrwt>
<totfact> 0.22480404E+03</totfact>
</mgrwt>
</event>
<event>
 7    1  0.5206756E-006  0.1428967E+03  0.7546771E-02  0.1220227E+00
          2   -1    0    0  501    0  0.00000000000E+00  0.00000000000E+00  0.58225171709E+03  0.58225171709E+03  0.00000000000E+00 0. -1.
         -2   -1    0    0    0  501 -0.00000000000E+00 -0.00000000000E+00 -0.33873015954E+02  0.33873015954E+02  0.00000000000E+00 0.  1.
         23    2    1    2    0    0  0.32387727866E+02 -0.61179977152E+02  0.42447011415E+03  0.44787759336E+03  0.12501002482E+03 0.  0.
          5    1    3    3  502    0  0.38639220431E+02 -0.75052499518E+01  0.30045375382E+02  0.49740654541E+02  0.47000000000E+01 0. -1.
         -5    1    3    3    0  502 -0.62514925648E+01 -0.53674727200E+02  0.39442473877E+03  0.39813693882E+03  0.47000000000E+01 0. -1.
        -11    1    1    2    0    0  0.28917834191E+02  0.26435547378E+01  0.30537611697E+02  0.42139948316E+02  0.00000000000E+00 0.  1.
         11    1    1    2    0    0 -0.61305562057E+02  0.58536422414E+02  0.93370975287E+02  0.12610719137E+03  0.00000000000E+00 0. -1.
<mgrwt>
<rscale>  0 0.13499451E+03</rscale>
<asrwt>0</asrwt>
<pdfrwt beam="1">  1        2 0.89577180E-01 0.14289668E+03</pdfrwt>
<pdfrwt beam="2">  1       -2 0.52112336E-02 0.14289668E+03</pdfrwt>
<totfact> 0.92126851E+03</totfact>
</mgrwt>
</event>
<event>
 7    1  0.5206756E-006  0.1358724E+03  0.7546771E-02  0.1231379E+00
          3   -1    0    0  501    0  0.00000000000E+00  0.00000000000E+00  0.12258029953E+03  0.12258029953E+03  0.00000000000E+00 0. -1.
         -3   -1    0    0    0  501 -0.00000000000E+00 -0.00000000000E+00 -0.12407628415E+03  0.12407628415E+03  0.00000000000E+00 0.  1.
         23    2    1    2    0    0 -0.56093994751E+01 -0.52960948297E+02  0.25506164237E+02  0.13824572812E+03  0.12499995809E+03 0.  0.
          5    1    3    3  502    0 -0.55194002187E+02 -0.35599587483E+02 -0.19750807259E+02  0.68745129964E+02  0.47000000000E+01 0. -1.
         -5    1    3    3    0  502  0.49584602712E+02 -0.17361360814E+02  0.45256971495E+02  0.69500598158E+02  0.47000000000E+01 0. -1.
        -11    1    1    2    0    0  0.30804836880E+02  0.31282927877E+01  0.18770141649E+02  0.36208319603E+02  0.00000000000E+00 0. -1.
         11    1    1    2    0    0 -0.25195437405E+02  0.49832655510E+02 -0.45772290506E+02  0.72202535962E+02  0.00000000000E+00 0.  1.
<mgrwt>
<rscale>  0 0.12739134E+03</rscale>
<asrwt>0</asrwt>
<pdfrwt beam="1">  1        3 0.18858508E-01 0.13587243E+03</pdfrwt>
<pdfrwt beam="2">  1       -3 0.19088659E-01 0.13587243E+03</pdfrwt>
<totfact> 0.13958889E+03</totfact>
</mgrwt>
</event>
<event>
 7    1  0.5206756E-006  0.1297777E+03  0.7546771E-02  0.1239107E+00
         -1   -1    0    0    0  501 -0.00000000000E+00  0.00000000000E+00  0.24035411771E+02  0.24035411771E+02  0.00000000000E+00 0.  1.
          1   -1    0    0  501    0  0.00000000000E+00 -0.00000000000E+00 -0.62905304181E+03  0.62905304181E+03  0.00000000000E+00 0. -1.
         23    2    1    2    0    0 -0.13803438188E+02  0.33823276918E+02 -0.43906249549E+03  0.45784072991E+03  0.12452995643E+03 0.  0.
          5    1    3    3  502    0  0.28240486152E+01 -0.29614208248E+02 -0.26635774591E+02  0.40206107358E+02  0.47000000000E+01 0. -1.
         -5    1    3    3    0  502 -0.16627486803E+02  0.63437485167E+02 -0.41242672090E+03  0.41763462256E+03  0.47000000000E+01 0.  1.
        -11    1    1    2    0    0 -0.37721342331E+02 -0.23639046898E+02 -0.44600763935E+02  0.63015334238E+02  0.00000000000E+00 0.  1.
         11    1    1    2    0    0  0.51524780519E+02 -0.10184230020E+02 -0.12135437061E+03  0.13223238943E+03  0.00000000000E+00 0. -1.
<mgrwt>
<rscale>  0 0.12245140E+03</rscale>
<asrwt>0</asrwt>
<pdfrwt beam="2">  1        1 0.96777381E-01 0.12977773E+03</pdfrwt>
<pdfrwt beam="1">  1       -1 0.36977560E-02 0.12977773E+03</pdfrwt>
<totfact> 0.86932146E+03</totfact>
</mgrwt>
</event>
<event>
 7    1  0.5206756E-006  0.1451085E+03  0.7546771E-02  0.1217339E+00
         -2   -1    0    0    0  501 -0.00000000000E+00  0.00000000000E+00  0.42487019111E+02  0.42487019111E+02  0.00000000000E+00 0.  1.
          2   -1    0    0  501    0  0.00000000000E+00 -0.00000000000E+00 -0.40399279964E+03  0.40399279964E+03  0.00000000000E+00 0. -1.
         23    2    1    2    0    0 -0.25201113475E+02  0.69252939106E+02 -0.22412297733E+03  0.26699733032E+03  0.12500159892E+03 0.  0.
          5    1    3    3  502    0 -0.41740255881E+02  0.76018054412E+02 -0.69394678323E+02  0.11116971232E+03  0.47000000000E+01 0.  1.
         -5    1    3    3    0  502  0.16539142406E+02 -0.67651153056E+01 -0.15472829901E+03  0.15582761800E+03  0.47000000000E+01 0.  1.
        -11    1    1    2    0    0 -0.12248109292E+02 -0.21300507402E+02  0.46133060478E+01  0.25000207790E+02  0.00000000000E+00 0.  1.
         11    1    1    2    0    0  0.37449222768E+02 -0.47952431704E+02 -0.14199610925E+03  0.15448228065E+03  0.00000000000E+00 0. -1.
<mgrwt>
<rscale>  0 0.13706095E+03</rscale>
<asrwt>0</asrwt>
<pdfrwt beam="2">  1        2 0.62152742E-01 0.14510846E+03</pdfrwt>
<pdfrwt beam="1">  1       -2 0.65364641E-02 0.14510846E+03</pdfrwt>
<totfact> 0.97689253E+03</totfact>
</mgrwt>
</event>
<event>
 7    1  0.5206756E-006  0.2102076E+03  0.7546771E-02  0.1145312E+00
          1   -1    0    0  501    0  0.00000000000E+00  0.00000000000E+00  0.81523057158E+03  0.81523057158E+03  0.00000000000E+00 0. -1.
         -1   -1    0    0    0  501 -0.00000000000E+00 -0.00000000000E+00 -0.51599492908E+02  0.51599492908E+02  0.00000000000E+00 0.  1.
         23    2    1    2    0    0 -0.44414515773E+02 -0.16306134381E+03  0.31078778245E+03  0.37520163839E+03  0.12500229070E+03 0.  0.
          5    1    3    3  502    0  0.74222600201E+00 -0.14607577304E+03  0.28501153273E+03  0.32030039987E+03  0.47000000000E+01 0. -1.
         -5    1    3    3    0  502 -0.45156741775E+02 -0.16985570763E+02  0.25776249721E+02  0.54901238524E+02  0.47000000000E+01 0. -1.
        -11    1    1    2    0    0  0.17955891827E+00  0.10279540213E+03  0.16640566082E+03  0.19559593783E+03  0.00000000000E+00 0.  1.
         11    1    1    2    0    0  0.44234956855E+02  0.60265941671E+02  0.28643763541E+03  0.29603248827E+03  0.00000000000E+00 0. -1.
<mgrwt>
<rscale>  0 0.20533739E+03</rscale>
<asrwt>0</asrwt>
<pdfrwt beam="1">  1        1 0.12542008E+00 0.21020757E+03</pdfrwt>
<pdfrwt beam="2">  1       -1 0.79383841E-02 0.21020757E+03</pdfrwt>
<totfact> 0.19423195E+03</totfact>
</mgrwt>
</event>
<event>
 7    1  0.5206756E-006  0.1337460E+03  0.7546771E-02  0.1233925E+00
         -2   -1    0    0    0  501 -0.00000000000E+00  0.00000000000E+00  0.26517744082E+02  0.26517744082E+02  0.00000000000E+00 0.  1.
          2   -1    0    0  501    0  0.00000000000E+00 -0.00000000000E+00 -0.10072436234E+04  0.10072436234E+04  0.00000000000E+00 0. -1.
         23    2    1    2    0    0 -0.44237558539E+02 -0.17487077332E+02 -0.87487909020E+03  0.88504316979E+03  0.12500092188E+03 0.  0.
          5    1    3    3  502    0 -0.56901136419E+02 -0.63652643258E+02 -0.54038614352E+03  0.54710937885E+03  0.47000000000E+01 0.  1.
         -5    1    3    3    0  502  0.12663577881E+02  0.46165565926E+02 -0.33449294668E+03  0.33793379095E+03  0.47000000000E+01 0.  1.
        -11    1    1    2    0    0  0.12061139818E+02  0.19295723088E+02  0.12568781155E+02  0.25995581988E+02  0.00000000000E+00 0.  1.
         11    1    1    2    0    0  0.32176418720E+02 -0.18086457555E+01 -0.11841557032E+03  0.12272261574E+03  0.00000000000E+00 0. -1.
<mgrwt>
<rscale>  0 0.12573506E+03</rscale>
<asrwt>0</asrwt>
<pdfrwt beam="2">  1        2 0.15496054E+00 0.13374599E+03</pdfrwt>
<pdfrwt beam="1">  1       -2 0.40796534E-02 0.13374599E+03</pdfrwt>
<totfact> 0.67292453E+03</totfact>
</mgrwt>
</event>
<event>
 7    1  0.5206756E-006  0.1310839E+03  0.7546771E-02  0.1235361E+00
          4   -1    0    0  501    0  0.00000000000E+00  0.00000000000E+00  0.27134189682E+03  0.27134189682E+03  0.00000000000E+00 0. -1.
         -4   -1    0    0    0  501 -0.00000000000E+00 -0.00000000000E+00 -0.17455226472E+03  0.17455226472E+03  0.00000000000E+00 0.  1.
         23    2    1    2    0    0  0.33792203731E+02  0.20521476103E+02  0.23593824032E+03  0.26990707781E+03  0.12497973192E+03 0.  0.
          5    1    3    3  502    0  0.52629012154E+02  0.57244885657E+02  0.94371695376E+02  0.12237196061E+03  0.47000000000E+01 0. -1.
         -5    1    3    3    0  502 -0.18836808424E+02 -0.36723409555E+02  0.14156654494E+03  0.14753511720E+03  0.47000000000E+01 0. -1.
        -11    1    1    2    0    0 -0.68055893224E+02 -0.22100641403E+02 -0.10860964543E+03  0.13006190078E+03  0.00000000000E+00 0. -1.
         11    1    1    2    0    0  0.34263689493E+02  0.15791653007E+01 -0.30538962790E+02  0.45925182950E+02  0.00000000000E+00 0.  1.
<mgrwt>
<rscale>  0 0.12481357E+03</rscale>
<asrwt>0</asrwt>
<pdfrwt beam="1">  1        4 0.41744907E-01 0.13108386E+03</pdfrwt>
<pdfrwt beam="2">  1       -4 0.26854195E-01 0.13108386E+03</pdfrwt>
<totfact> 0.12199822E+02</totfact>
</mgrwt>
</event>
<event>
 7    1  0.5206756E-006  0.1676832E+03  0.7546771E-02  0.1186030E+00
         -1   -1    0    0    0  501 -0.00000000000E+00  0.00000000000E+00  0.50821621896E+03  0.50821621896E+03  0.00000000000E+00 0.  1.
          1   -1    0    0  501    0  0.00000000000E+00 -0.00000000000E+00 -0.50647692575E+02  0.50647692575E+02  0.00000000000E+00 0. -1.
         23    2    1    2    0    0 -0.80596236316E+02  0.77436868893E+02  0.19052966014E+03  0.25380941641E+03  0.12500178596E+03 0.  0.
          5    1    3    3  502    0 -0.11314323235E+03  0.64601718965E+02  0.13249008124E+03  0.18587760690E+03  0.47000000000E+01 0. -1.
         -5    1    3    3    0  502  0.32546996035E+02  0.12835149928E+02  0.58039578899E+02  0.67931809511E+02  0.47000000000E+01 0. -1.
        -11    1    1    2    0    0  0.50805489083E+02 -0.15529448837E+01  0.17438693329E+03  0.18164363975E+03  0.00000000000E+00 0.  1.
         11    1    1    2    0    0  0.29790747233E+02 -0.75883924009E+02  0.92651932953E+02  0.12341085537E+03  0.00000000000E+00 0. -1.
<mgrwt>
<rscale>  0 0.16238499E+03</rscale>
<asrwt>0</asrwt>
<pdfrwt beam="2">  1        1 0.77919530E-02 0.16768324E+03</pdfrwt>
<pdfrwt beam="1">  1       -1 0.78187107E-01 0.16768324E+03</pdfrwt>
<totfact> 0.15180586E+03</totfact>
</mgrwt>
</event>
<event>
 7    1  0.5206756E-006  0.1254405E+03  0.7546771E-02  0.1249605E+00
          1   -1    0    0  501    0  0.00000000000E+00  0.00000000000E+00  0.31931249020E+03  0.31931249020E+03  0.00000000000E+00 0. -1.
         -1   -1    0    0    0  501 -0.00000000000E+00 -0.00000000000E+00 -0.39000314640E+02  0.39000314640E+02  0.00000000000E+00 0.  1.
         23    2    1    2    0    0  0.63373802920E+01  0.91770091870E+01  0.19986887687E+03  0.23597220457E+03  0.12494372133E+03 0.  0.
          5    1    3    3  502    0 -0.26628757603E+02  0.20153722963E+02  0.69091921616E+00  0.33731745435E+02  0.47000000000E+01 0.  1.
         -5    1    3    3    0  502  0.32966137895E+02 -0.10976713776E+02  0.19917795766E+03  0.20224045913E+03  0.47000000000E+01 0.  1.
        -11    1    1    2    0    0  0.25117627089E+02  0.12278677219E+02 -0.53610379337E+01  0.28467557545E+02  0.00000000000E+00 0.  1.
         11    1    1    2    0    0 -0.31455007381E+02 -0.21455686406E+02  0.85804336620E+02  0.93873042730E+02  0.00000000000E+00 0. -1.
<mgrwt>
<rscale>  0 0.11613970E+03</rscale>
<asrwt>0</asrwt>
<pdfrwt beam="1">  1        1 0.49124997E-01 0.12544048E+03</pdfrwt>
<pdfrwt beam="2">  1       -1 0.60000486E-02 0.12544048E+03</pdfrwt>
<totfact> 0.10168334E+04</totfact>
</mgrwt>
</event>
<event>
 7    1  0.1482162E-005  0.3175733E+03  0.7546771E-02  0.1078169E+00
          1   -1    0    0  501    0  0.00000000000E+00  0.00000000000E+00  0.26875720109E+03  0.26875720109E+03  0.00000000000E+00 0. -1.
         -1   -1    0    0    0  501 -0.00000000000E+00 -0.00000000000E+00 -0.36284139516E+03  0.36284139516E+03  0.00000000000E+00 0.  1.
         23    2    1    2    0    0  0.14863328811E+03  0.25126842162E+03 -0.28451943128E+02  0.31884525024E+03  0.12500042600E+03 0.  0.
          5    1    3    3  502    0  0.89858108806E+02  0.58082761437E+02 -0.45034791794E+02  0.11618222483E+03  0.47000000000E+01 0.  1.
         -5    1    3    3    0  502  0.58775179302E+02  0.19318566018E+03  0.16582848667E+02  0.20266302541E+03  0.47000000000E+01 0.  1.
        -11    1    1    2    0    0 -0.44020950443E+02 -0.72478224440E+02  0.22352020412E+02  0.87695780471E+02  0.00000000000E+00 0. -1.
         11    1    1    2    0    0 -0.10461233767E+03 -0.17879019718E+03 -0.87984271360E+02  0.22505756554E+03  0.00000000000E+00 0.  1.
<mgrwt>
<rscale>  0 0.31458536E+03</rscale>
<asrwt>0</asrwt>
<pdfrwt beam="1">  1        1 0.41347262E-01 0.31757327E+03</pdfrwt>
<pdfrwt beam="2">  1       -1 0.55821753E-01 0.31757327E+03</pdfrwt>
<totfact> 0.33751861E+02</totfact>
</mgrwt>
</event>
<event>
 6    1  0.5206756E-006  0.1065419E+04  0.7546771E-02  0.1016791E+00
          2   -1    0    0  501    0  0.00000000000E+00  0.00000000000E+00  0.34673080255E+03  0.34673080255E+03  0.00000000000E+00 0. -1.
         -2   -1    0    0    0  501 -0.00000000000E+00 -0.00000000000E+00 -0.89772414762E+03  0.89772414762E+03  0.00000000000E+00 0.  1.
          5    1    1    2  502    0 -0.66762237670E+02 -0.15856257853E+03  0.30453004555E+03  0.34979983753E+03  0.47000000000E+01 0. -1.
         -5    1    1    2    0  502  0.87143349409E+02  0.15215208563E+03 -0.81122358230E+03  0.82996988559E+03  0.47000000000E+01 0.  1.
        -11    1    1    2    0    0 -0.66493639404E+01  0.22770869129E+02 -0.13780625903E+02  0.27434142450E+02  0.00000000000E+00 0. -1.
         11    1    1    2    0    0 -0.13731747798E+02 -0.16360376228E+02 -0.30519182435E+02  0.37251084607E+02  0.00000000000E+00 0.  1.
<mgrwt>
<rscale>  0 0.48862561E+03</rscale>
<asrwt>0</asrwt>
<pdfrwt beam="1">  1        2 0.53343201E-01 0.10654193E+04</pdfrwt>
<pdfrwt beam="2">  1       -2 0.13811141E+00 0.10654193E+04</pdfrwt>
<totfact> 0.34516174E+01</totfact>
</mgrwt>
</event>
<event>
 7    1  0.5206756E-006  0.1278170E+03  0.7546771E-02  0.1245110E+00
          1   -1    0    0  501    0  0.00000000000E+00  0.00000000000E+00  0.21954590045E+03  0.21954590045E+03  0.00000000000E+00 0. -1.
         -1   -1    0    0    0  501 -0.00000000000E+00 -0.00000000000E+00 -0.81872787784E+02  0.81872787784E+02  0.00000000000E+00 0.  1.
         23    2    1    2    0    0 -0.82464663688E+01  0.25465879167E+02  0.15870585591E+03  0.20377620603E+03  0.12498271175E+03 0.  0.
          5    1    3    3  502    0  0.50063444563E+02 -0.17021912390E+02  0.87199729196E+02  0.10208808331E+03  0.47000000000E+01 0.  1.
         -5    1    3    3    0  502 -0.58309910932E+02  0.42487791557E+02  0.71506126710E+02  0.10168812272E+03  0.47000000000E+01 0.  1.
        -11    1    1    2    0    0 -0.23950395573E+01  0.21574944862E+02  0.23504248870E+02  0.31994752308E+02  0.00000000000E+00 0. -1.
         11    1    1    2    0    0  0.10641505926E+02 -0.47040824029E+02 -0.44536992113E+02  0.65647729894E+02  0.00000000000E+00 0.  1.
<mgrwt>
<rscale>  0 0.11878786E+03</rscale>
<asrwt>0</asrwt>
<pdfrwt beam="1">  1        1 0.33776292E-01 0.12781703E+03</pdfrwt>
<pdfrwt beam="2">  1       -1 0.12595814E-01 0.12781703E+03</pdfrwt>
<totfact> 0.52633383E+03</totfact>
</mgrwt>
</event>
<event>
 7    1  0.5206756E-006  0.1323326E+03  0.7546771E-02  0.1237972E+00
         -2   -1    0    0    0  501 -0.00000000000E+00  0.00000000000E+00  0.17916500422E+02  0.17916500422E+02  0.00000000000E+00 0.  1.
          2   -1    0    0  501    0  0.00000000000E+00 -0.00000000000E+00 -0.83684598105E+03  0.83684598105E+03  0.00000000000E+00 0. -1.
         23    2    1    2    0    0 -0.11272007286E+02 -0.41963853241E+02 -0.59925900492E+03  0.61369639136E+03  0.12499553061E+03 0.  0.
          5    1    3    3  502    0 -0.59783125177E+02  0.10322158394E+02 -0.27315736194E+03  0.27985282452E+03  0.47000000000E+01 0. -1.
         -5    1    3    3    0  502  0.48511117891E+02 -0.52286011636E+02 -0.32610164297E+03  0.33384356684E+03  0.47000000000E+01 0. -1.
        -11    1    1    2    0    0  0.40333171293E+02  0.48512721726E+02 -0.10416520757E+03  0.12178111243E+03  0.00000000000E+00 0.  1.
         11    1    1    2    0    0 -0.29061164007E+02 -0.65488684847E+01 -0.11550526815E+03  0.11928497768E+03  0.00000000000E+00 0. -1.
<mgrwt>
<rscale>  0 0.12316072E+03</rscale>
<asrwt>0</asrwt>
<pdfrwt beam="2">  1        2 0.12874554E+00 0.13233256E+03</pdfrwt>
<pdfrwt beam="1">  1       -2 0.27563846E-02 0.13233256E+03</pdfrwt>
<totfact> 0.15312997E+04</totfact>
</mgrwt>
</event>
<event>
 7    1  0.5206756E-006  0.1343303E+03  0.7546771E-02  0.1234040E+00
          1   -1    0    0  501    0  0.00000000000E+00  0.00000000000E+00  0.75196846876E+03  0.75196846876E+03  0.00000000000E+00 0. -1.
         -1   -1    0    0    0  501 -0.00000000000E+00 -0.00000000000E+00 -0.19265234948E+02  0.19265234948E+02  0.00000000000E+00 0.  1.
         23    2    1    2    0    0  0.29971668832E+02  0.39001555820E+02  0.47872221835E+03  0.49721181249E+03  0.12500080741E+03 0.  0.
          5    1    3    3  502    0  0.70704381231E+02  0.55355435724E+02  0.33550162216E+03  0.34734242796E+03  0.47000000000E+01 0.  1.
         -5    1    3    3    0  502 -0.40732712400E+02 -0.16353879904E+02  0.14322059619E+03  0.14986938453E+03  0.47000000000E+01 0.  1.
        -11    1    1    2    0    0 -0.60095957827E+02 -0.40881792895E+02  0.17890461825E+03  0.19310543122E+03  0.00000000000E+00 0.  1.
         11    1    1    2    0    0  0.30124288995E+02  0.18802370754E+01  0.75076397214E+02  0.80916459991E+02  0.00000000000E+00 0. -1.
<mgrwt>
<rscale>  0 0.12566073E+03</rscale>
<asrwt>0</asrwt>
<pdfrwt beam="1">  1        1 0.11568743E+00 0.13433028E+03</pdfrwt>
<pdfrwt beam="2">  1       -1 0.29638829E-02 0.13433028E+03</pdfrwt>
<totfact> 0.93376220E+03</totfact>
</mgrwt>
</event>
<event>
 7    1  0.5206756E-006  0.1427674E+03  0.7546771E-02  0.1220131E+00
          3   -1    0    0  501    0  0.00000000000E+00  0.00000000000E+00  0.30478878865E+02  0.30478878865E+02  0.00000000000E+00 0. -1.
         -3   -1    0    0    0  501 -0.00000000000E+00 -0.00000000000E+00 -0.83359376814E+03  0.83359376814E+03  0.00000000000E+00 0.  1.
         23    2    1    2    0    0 -0.33921748371E+02  0.60075412041E+02 -0.17603704028E+03  0.22665296268E+03  0.12499114287E+03 0.  0.
          5    1    3    3  502    0 -0.51000941936E+02  0.35664046169E+02 -0.18495483439E+03  0.19520092477E+03  0.47000000000E+01 0. -1.
         -5    1    3    3    0  502  0.17079193565E+02  0.24411365872E+02  0.89177941106E+01  0.31452037905E+02  0.47000000000E+01 0. -1.
        -11    1    1    2    0    0  0.62835829298E+02 -0.22586775646E+02 -0.34635760331E+03  0.35273516021E+03  0.00000000000E+00 0. -1.
         11    1    1    2    0    0 -0.28914080927E+02 -0.37488636395E+02 -0.28072024569E+03  0.28468452412E+03  0.00000000000E+00 0.  1.
<mgrwt>
<rscale>  0 0.13506294E+03</rscale>
<asrwt>0</asrwt>
<pdfrwt beam="1">  1        3 0.46890588E-02 0.14276738E+03</pdfrwt>
<pdfrwt beam="2">  1       -3 0.12824518E+00 0.14276738E+03</pdfrwt>
<totfact> 0.29874327E+02</totfact>
</mgrwt>
</event>
<event>
 7    1  0.5206756E-006  0.1334625E+03  0.7546771E-02  0.1235344E+00
          2   -1    0    0  501    0  0.00000000000E+00  0.00000000000E+00  0.27033857781E+03  0.27033857781E+03  0.00000000000E+00 0. -1.
         -2   -1    0    0    0  501 -0.00000000000E+00 -0.00000000000E+00 -0.52329882483E+02  0.52329882483E+02  0.00000000000E+00 0.  1.
         23    2    1    2    0    0  0.42449132741E+02 -0.19584950370E+02  0.14539133817E+03  0.19735977702E+03  0.12500696468E+03 0.  0.
          5    1    3    3  502    0 -0.16530045715E+02 -0.56976696258E+02  0.90940956638E+02  0.10868272136E+03  0.47000000000E+01 0.  1.
         -5    1    3    3    0  502  0.58979178456E+02  0.37391745888E+02  0.54450381529E+02  0.88677055660E+02  0.47000000000E+01 0.  1.
        -11    1    1    2    0    0 -0.16335263164E+02 -0.31100239619E+02  0.29051720656E+01  0.35249195050E+02  0.00000000000E+00 0.  1.
         11    1    1    2    0    0 -0.26113869577E+02  0.50685189989E+02  0.69712185095E+02  0.90059488224E+02  0.00000000000E+00 0. -1.
<mgrwt>
<rscale>  0 0.12482447E+03</rscale>
<asrwt>0</asrwt>
<pdfrwt beam="1">  1        2 0.41590550E-01 0.13346251E+03</pdfrwt>
<pdfrwt beam="2">  1       -2 0.80507513E-02 0.13346251E+03</pdfrwt>
<totfact> 0.10807446E+04</totfact>
</mgrwt>
</event>
<event>
 7    1  0.5206756E-006  0.1433766E+03  0.7546771E-02  0.1219240E+00
         -2   -1    0    0    0  501 -0.00000000000E+00  0.00000000000E+00  0.28979668901E+03  0.28979668901E+03  0.00000000000E+00 0.  1.
          2   -1    0    0  501    0  0.00000000000E+00 -0.00000000000E+00 -0.68947112098E+02  0.68947112098E+02  0.00000000000E+00 0. -1.
         23    2    1    2    0    0 -0.65195049703E+02 -0.26110852045E+02  0.48163835396E+02  0.15125016727E+03  0.12499874783E+03 0.  0.
          5    1    3    3  502    0  0.31077362749E+02  0.50545821817E+01 -0.11307044898E+02  0.33782991887E+02  0.47000000000E+01 0.  1.
         -5    1    3    3    0  502 -0.96272412452E+02 -0.31165434227E+02  0.59470880294E+02  0.11746717538E+03  0.47000000000E+01 0.  1.
        -11    1    1    2    0    0  0.76533207470E+02  0.35655674216E+02  0.89664948536E+02  0.12316030994E+03  0.00000000000E+00 0.  1.
         11    1    1    2    0    0 -0.11338157767E+02 -0.95448221704E+01  0.83020792979E+02  0.84333323893E+02  0.00000000000E+00 0. -1.
<mgrwt>
<rscale>  0 0.13569600E+03</rscale>
<asrwt>0</asrwt>
<pdfrwt beam="2">  1        2 0.10607248E-01 0.14337663E+03</pdfrwt>
<pdfrwt beam="1">  1       -2 0.44584105E-01 0.14337663E+03</pdfrwt>
<totfact> 0.27694614E+03</totfact>
</mgrwt>
</event>
<event>
 7    1  0.5206756E-006  0.1477508E+03  0.7546771E-02  0.1215005E+00
         -1   -1    0    0    0  501 -0.00000000000E+00  0.00000000000E+00  0.18693723305E+03  0.18693723305E+03  0.00000000000E+00 0. -1.
          1   -1    0    0  501    0  0.00000000000E+00 -0.00000000000E+00 -0.10943680530E+03  0.10943680530E+03  0.00000000000E+00 0.  1.
         23    2    1    2    0    0  0.77388899103E+02  0.14702481572E+02 -0.15441908894E+02  0.14855553711E+03  0.12500036155E+03 0.  0.
          5    1    3    3  502    0  0.72930818024E+02 -0.32500859567E+02  0.27334256721E+02  0.84524917514E+02  0.47000000000E+01 0.  1.
         -5    1    3    3    0  502  0.44580810791E+01  0.47203341139E+02 -0.42776165615E+02  0.64030619600E+02  0.47000000000E+01 0.  1.
        -11    1    1    2    0    0 -0.69689744131E+02  0.20322480617E+01  0.19921072351E+02  0.72509582765E+02  0.00000000000E+00 0.  1.
         11    1    1    2    0    0 -0.76991549723E+01 -0.16734729634E+02  0.73021264294E+02  0.75308918478E+02  0.00000000000E+00 0. -1.
<mgrwt>
<rscale>  0 0.13876136E+03</rscale>
<asrwt>0</asrwt>
<pdfrwt beam="2">  1        1 0.16836432E-01 0.14775079E+03</pdfrwt>
<pdfrwt beam="1">  1       -1 0.28759574E-01 0.14775079E+03</pdfrwt>
<totfact> 0.33981866E+03</totfact>
</mgrwt>
</event>
<event>
 7    1  0.5206756E-006  0.1528926E+03  0.7546771E-02  0.1206137E+00
         -3   -1    0    0    0  501 -0.00000000000E+00  0.00000000000E+00  0.42303044736E+03  0.42303044736E+03  0.00000000000E+00 0.  1.
          3   -1    0    0  501    0  0.00000000000E+00 -0.00000000000E+00 -0.45753598026E+02  0.45753598026E+02  0.00000000000E+00 0. -1.
         23    2    1    2    0    0 -0.81608886013E+02  0.33005864496E+02  0.20485093832E+03  0.25561698637E+03  0.12500695750E+03 0.  0.
          5    1    3    3  502    0 -0.64285452042E+02  0.44033706550E+02  0.36889432796E+02  0.86339486382E+02  0.47000000000E+01 0. -1.
         -5    1    3    3    0  502 -0.17323433971E+02 -0.11027842055E+02  0.16796150552E+03  0.16927749999E+03  0.47000000000E+01 0. -1.
        -11    1    1    2    0    0  0.25528303557E+02 -0.41610974166E+02  0.24268032106E+02  0.54517014187E+02  0.00000000000E+00 0. -1.
         11    1    1    2    0    0  0.56080582456E+02  0.86051096702E+01  0.14815787891E+03  0.15865004483E+03  0.00000000000E+00 0.  1.
<mgrwt>
<rscale>  0 0.14548227E+03</rscale>
<asrwt>0</asrwt>
<pdfrwt beam="2">  1        3 0.70390154E-02 0.15289257E+03</pdfrwt>
<pdfrwt beam="1">  1       -3 0.65081605E-01 0.15289257E+03</pdfrwt>
<totfact> 0.71863829E+02</totfact>
</mgrwt>
</event>
<event>
 7    1  0.5206756E-006  0.1308853E+03  0.7546771E-02  0.1228926E+00
         -2   -1    0    0    0  501 -0.00000000000E+00  0.00000000000E+00  0.23172619199E+02  0.23172619199E+02  0.00000000000E+00 0. -1.
          2   -1    0    0  501    0  0.00000000000E+00 -0.00000000000E+00 -0.71178558217E+03  0.71178558217E+03  0.00000000000E+00 0.  1.
         23    2    1    2    0    0  0.61057079648E+01  0.38328777874E+02 -0.40424812874E+03  0.42490882394E+03  0.12499833675E+03 0.  0.
          5    1    3    3  502    0 -0.48972492993E+02 -0.62347358813E+01 -0.90195735117E+02  0.10292977040E+03  0.47000000000E+01 0. -1.
         -5    1    3    3    0  502  0.55078200958E+02  0.44563513755E+02 -0.31405239362E+03  0.32197905354E+03  0.47000000000E+01 0. -1.
        -11    1    1    2    0    0 -0.54231342992E+01  0.34189215606E+02 -0.17786577921E+03  0.18120305809E+03  0.00000000000E+00 0.  1.
         11    1    1    2    0    0 -0.68257366556E+00 -0.72517993480E+02 -0.10649905503E+03  0.12884631934E+03  0.00000000000E+00 0. -1.
<mgrwt>
<rscale>  0 0.12901442E+03</rscale>
<asrwt>0</asrwt>
<pdfrwt beam="2">  1        2 0.10950547E+00 0.13088529E+03</pdfrwt>
<pdfrwt beam="1">  1       -2 0.35650186E-02 0.13088529E+03</pdfrwt>
<totfact> 0.12781734E+04</totfact>
</mgrwt>
</event>
<event>
 6    1  0.5206756E-006  0.1679654E+03  0.7546771E-02  0.1210988E+00
         -1   -1    0    0    0  501 -0.00000000000E+00  0.00000000000E+00  0.24478818717E+03  0.24478818717E+03  0.00000000000E+00 0.  1.
          1   -1    0    0  501    0  0.00000000000E+00 -0.00000000000E+00 -0.13630098660E+03  0.13630098660E+03  0.00000000000E+00 0. -1.
          5    1    1    2  502    0 -0.44199006992E+02  0.97666753699E+02 -0.96023426302E+02  0.14399630341E+03  0.47000000000E+01 0. -1.
         -5    1    1    2    0  502 -0.21347707256E+01 -0.28662270796E+02  0.24986513717E+02  0.38373153128E+02  0.47000000000E+01 0.  1.
        -11    1    1    2    0    0  0.22393832909E+02 -0.35088503602E+02  0.68110592757E+02  0.79823177606E+02  0.00000000000E+00 0. -1.
         11    1    1    2    0    0  0.23939944809E+02 -0.33915979301E+02  0.11141352040E+03  0.11889653963E+03  0.00000000000E+00 0.  1.
<mgrwt>
<rscale>  0 0.14175441E+03</rscale>
<asrwt>0</asrwt>
<pdfrwt beam="2">  1        1 0.20969383E-01 0.16796540E+03</pdfrwt>
<pdfrwt beam="1">  1       -1 0.37659721E-01 0.16796540E+03</pdfrwt>
<totfact> 0.16268442E+03</totfact>
</mgrwt>
</event>
<event>
 7    1  0.5206756E-006  0.2068680E+03  0.7546771E-02  0.1147953E+00
         -2   -1    0    0    0  501 -0.00000000000E+00  0.00000000000E+00  0.70925095143E+02  0.70925095143E+02  0.00000000000E+00 0.  1.
          2   -1    0    0  501    0  0.00000000000E+00 -0.00000000000E+00 -0.64689921848E+03  0.64689921848E+03  0.00000000000E+00 0. -1.
         23    2    1    2    0    0  0.16453933991E+03  0.95731456216E+01 -0.43729529624E+03  0.48375772036E+03  0.12501806429E+03 0.  0.
          5    1    3    3  502    0  0.13392136650E+03  0.15342243793E+02 -0.18203150403E+03  0.22655656095E+03  0.47000000000E+01 0.  1.
         -5    1    3    3    0  502  0.30617973415E+02 -0.57690981717E+01 -0.25526379221E+03  0.25720115941E+03  0.47000000000E+01 0.  1.
        -11    1    1    2    0    0 -0.12053649574E+03  0.26696009007E+01 -0.42928655855E+02  0.12798063552E+03  0.00000000000E+00 0. -1.
         11    1    1    2    0    0 -0.44002844171E+02 -0.12242746522E+02 -0.95750171241E+02  0.10608595774E+03  0.00000000000E+00 0.  1.
<mgrwt>
<rscale>  0 0.20213106E+03</rscale>
<asrwt>0</asrwt>
<pdfrwt beam="2">  1        2 0.99522963E-01 0.20686797E+03</pdfrwt>
<pdfrwt beam="1">  1       -2 0.10911552E-01 0.20686797E+03</pdfrwt>
<totfact> 0.26391168E+03</totfact>
</mgrwt>
</event>
<event>
 7    1  0.5206756E-006  0.1298216E+03  0.7546771E-02  0.1242571E+00
         -1   -1    0    0    0  501 -0.00000000000E+00  0.00000000000E+00  0.12239742486E+02  0.12239742486E+02  0.00000000000E+00 0.  1.
          1   -1    0    0  501    0  0.00000000000E+00 -0.00000000000E+00 -0.10861979211E+04  0.10861979211E+04  0.00000000000E+00 0. -1.
         23    2    1    2    0    0 -0.11597180601E+02 -0.32717870447E+02 -0.72699014581E+03  0.73849056199E+03  0.12509470171E+03 0.  0.
          5    1    3    3  502    0 -0.13195047340E+02 -0.40380223071E+02 -0.72804630445E+03  0.72929978961E+03  0.47000000000E+01 0. -1.
         -5    1    3    3    0  502  0.15978667394E+01  0.76623526239E+01  0.10561586460E+01  0.91907723797E+01  0.47000000000E+01 0. -1.
        -11    1    1    2    0    0  0.94668079028E+00 -0.29922618388E+02 -0.77306137069E+02  0.82900531508E+02  0.00000000000E+00 0. -1.
         11    1    1    2    0    0  0.10650499811E+02  0.62640488836E+02 -0.26966189572E+03  0.27704657007E+03  0.00000000000E+00 0.  1.
<mgrwt>
<rscale>  0 0.12031963E+03</rscale>
<asrwt>0</asrwt>
<pdfrwt beam="2">  1        1 0.16710742E+00 0.12982156E+03</pdfrwt>
<pdfrwt beam="1">  1       -1 0.18830368E-02 0.12982156E+03</pdfrwt>
<totfact> 0.99664185E+03</totfact>
</mgrwt>
</event>
<event>
 7    1  0.5206756E-006  0.1264297E+03  0.7546771E-02  0.1250410E+00
          2   -1    0    0  501    0  0.00000000000E+00  0.00000000000E+00  0.73348290272E+02  0.73348290272E+02  0.00000000000E+00 0. -1.
         -2   -1    0    0    0  501 -0.00000000000E+00 -0.00000000000E+00 -0.16073404140E+03  0.16073404140E+03  0.00000000000E+00 0.  1.
         23    2    1    2    0    0 -0.18525580287E+02  0.41757007164E+01 -0.35091700250E+02  0.13120940160E+03  0.12499538407E+03 0.  0.
          5    1    3    3  502    0 -0.23655798371E+02 -0.55481295910E+02 -0.37364032594E+02  0.71105076642E+02  0.47000000000E+01 0.  1.
         -5    1    3    3    0  502  0.51302180845E+01  0.59656996627E+02  0.22723323447E+01  0.60104324956E+02  0.47000000000E+01 0.  1.
        -11    1    1    2    0    0 -0.16858164195E+02 -0.72710737522E+01  0.16990250830E+02  0.25014692418E+02  0.00000000000E+00 0. -1.
         11    1    1    2    0    0  0.35383744482E+02  0.30953730358E+01 -0.69284301709E+02  0.77858237657E+02  0.00000000000E+00 0.  1.
<mgrwt>
<rscale>  0 0.11567327E+03</rscale>
<asrwt>0</asrwt>
<pdfrwt beam="1">  1        2 0.11284353E-01 0.12642974E+03</pdfrwt>
<pdfrwt beam="2">  1       -2 0.24728314E-01 0.12642974E+03</pdfrwt>
<totfact> 0.74987450E+03</totfact>
</mgrwt>
</event>
<event>
 7    1  0.5206756E-006  0.1486946E+03  0.7546771E-02  0.1214604E+00
         -1   -1    0    0    0  501 -0.00000000000E+00  0.00000000000E+00  0.28566806797E+03  0.28566806797E+03  0.00000000000E+00 0.  1.
          1   -1    0    0  501    0  0.00000000000E+00 -0.00000000000E+00 -0.60414275433E+02  0.60414275433E+02  0.00000000000E+00 0. -1.
         23    2    1    2    0    0  0.80374450408E+02  0.49841841418E+01  0.13601275364E+03  0.20151809174E+03  0.12500071111E+03 0.  0.
          5    1    3    3  502    0 -0.18344889337E+02 -0.10238276195E+02  0.87994933350E+02  0.90590041172E+02  0.47000000000E+01 0.  1.
         -5    1    3    3    0  502  0.98719339746E+02  0.15222460337E+02  0.48017820287E+02  0.11092805057E+03  0.47000000000E+01 0.  1.
        -11    1    1    2    0    0 -0.25707300307E+02 -0.39163937325E+02  0.23225857754E+02  0.52288810889E+02  0.00000000000E+00 0. -1.
         11    1    1    2    0    0 -0.54667150101E+02  0.34179753183E+02  0.66015181149E+02  0.92275440773E+02  0.00000000000E+00 0.  1.
<mgrwt>
<rscale>  0 0.13905657E+03</rscale>
<asrwt>0</asrwt>
<pdfrwt beam="2">  1        1 0.92945041E-02 0.14869456E+03</pdfrwt>
<pdfrwt beam="1">  1       -1 0.43948933E-01 0.14869456E+03</pdfrwt>
<totfact> 0.35647499E+03</totfact>
</mgrwt>
</event>
<event>
 7    1  0.5206756E-006  0.1294257E+03  0.7546771E-02  0.1237577E+00
         -1   -1    0    0    0  501 -0.00000000000E+00  0.00000000000E+00  0.19031423811E+02  0.19031423811E+02  0.00000000000E+00 0.  1.
          1   -1    0    0  501    0  0.00000000000E+00 -0.00000000000E+00 -0.91894591564E+03  0.91894591564E+03  0.00000000000E+00 0. -1.
         23    2    1    2    0    0 -0.19048451217E+02  0.27616065446E+02 -0.69361280132E+03  0.70558467350E+03  0.12500209097E+03 0.  0.
          5    1    3    3  502    0 -0.29538642736E+02 -0.28310121856E+02 -0.54224649001E+03  0.54380818340E+03  0.47000000000E+01 0. -1.
         -5    1    3    3    0  502  0.10490191519E+02  0.55926187302E+02 -0.15136631132E+03  0.16177649009E+03  0.47000000000E+01 0. -1.
        -11    1    1    2    0    0 -0.23210008541E+02  0.24233511531E+02 -0.11099227327E+03  0.11595366447E+03  0.00000000000E+00 0. -1.
         11    1    1    2    0    0  0.42258459758E+02 -0.51849576977E+02 -0.95309417226E+02  0.11643900148E+03  0.00000000000E+00 0.  1.
<mgrwt>
<rscale>  0 0.12340903E+03</rscale>
<asrwt>0</asrwt>
<pdfrwt beam="2">  1        1 0.14137630E+00 0.12942571E+03</pdfrwt>
<pdfrwt beam="1">  1       -1 0.29279113E-02 0.12942571E+03</pdfrwt>
<totfact> 0.69746898E+03</totfact>
</mgrwt>
</event>
<event>
 7    1  0.5206756E-006  0.2725413E+03  0.7546771E-02  0.1101873E+00
         -2   -1    0    0    0  501 -0.00000000000E+00  0.00000000000E+00  0.20277083500E+03  0.20277083500E+03  0.00000000000E+00 0.  1.
          2   -1    0    0  501    0  0.00000000000E+00 -0.00000000000E+00 -0.40397492377E+03  0.40397492377E+03  0.00000000000E+00 0. -1.
         23    2    1    2    0    0  0.24211403546E+03 -0.61276214738E+01 -0.21606938795E+03  0.34779987527E+03  0.12498807508E+03 0.  0.
          5    1    3    3  502    0  0.50803279159E+02  0.36520006097E+01 -0.12616363771E+03  0.13613839929E+03  0.47000000000E+01 0. -1.
         -5    1    3    3    0  502  0.19131075630E+03 -0.97796220835E+01 -0.89905750244E+02  0.21166147598E+03  0.47000000000E+01 0. -1.
        -11    1    1    2    0    0 -0.18623966480E+03  0.43354955362E+02  0.14982597317E+02  0.19180548251E+03  0.00000000000E+00 0.  1.
         11    1    1    2    0    0 -0.55874370667E+02 -0.37227333888E+02 -0.11729813508E+00  0.67140400987E+02  0.00000000000E+00 0. -1.
<mgrwt>
<rscale>  0 0.26896596E+03</rscale>
<asrwt>0</asrwt>
<pdfrwt beam="2">  1        2 0.62149987E-01 0.27254132E+03</pdfrwt>
<pdfrwt beam="1">  1       -2 0.31195514E-01 0.27254132E+03</pdfrwt>
<totfact> 0.75382110E+02</totfact>
</mgrwt>
</event>
<event>
 7    1  0.5206756E-006  0.1745603E+03  0.7546771E-02  0.1179085E+00
          1   -1    0    0  501    0  0.00000000000E+00  0.00000000000E+00  0.23413324495E+03  0.23413324495E+03  0.00000000000E+00 0. -1.
         -1   -1    0    0    0  501 -0.00000000000E+00 -0.00000000000E+00 -0.11795711712E+03  0.11795711712E+03  0.00000000000E+00 0.  1.
         23    2    1    2    0    0 -0.78915554975E+01  0.12158948185E+03  0.92525357362E+02  0.19756580091E+03  0.12500010076E+03 0.  0.
          5    1    3    3  502    0 -0.92004314419E+01  0.13928753436E+02 -0.29836533354E+02  0.34510387329E+02  0.47000000000E+01 0. -1.
         -5    1    3    3    0  502  0.13088759444E+01  0.10766072841E+03  0.12236189072E+03  0.16305541358E+03  0.47000000000E+01 0. -1.
        -11    1    1    2    0    0 -0.14609721745E+02 -0.72482094158E+01 -0.23673713475E+02  0.28747612404E+02  0.00000000000E+00 0.  1.
         11    1    1    2    0    0  0.22501277243E+02 -0.11434127243E+03  0.47324483937E+02  0.12577694876E+03  0.00000000000E+00 0. -1.
<mgrwt>
<rscale>  0 0.16881914E+03</rscale>
<asrwt>0</asrwt>
<pdfrwt beam="1">  1        1 0.36020499E-01 0.17456032E+03</pdfrwt>
<pdfrwt beam="2">  1       -1 0.18147249E-01 0.17456032E+03</pdfrwt>
<totfact> 0.27801654E+03</totfact>
</mgrwt>
</event>
<event>
 7    1  0.5206756E-006  0.2642905E+03  0.7546771E-02  0.1106771E+00
          1   -1    0    0  501    0  0.00000000000E+00  0.00000000000E+00  0.65281045405E+03  0.65281045405E+03  0.00000000000E+00 0. -1.
         -1   -1    0    0    0  501 -0.00000000000E+00 -0.00000000000E+00 -0.11119160953E+03  0.11119160953E+03  0.00000000000E+00 0.  1.
         23    2    1    2    0    0  0.14771925825E+03 -0.18000733204E+03  0.39185104338E+03  0.47264858779E+03  0.12500331393E+03 0.  0.
          5    1    3    3  502    0  0.12020371101E+02 -0.96976861969E+02  0.20538838752E+03  0.22749830946E+03  0.47000000000E+01 0.  1.
         -5    1    3    3    0  502  0.13569888715E+03 -0.83030470069E+02  0.18646265587E+03  0.24515027833E+03  0.47000000000E+01 0.  1.
        -11    1    1    2    0    0  0.33374809586E+01  0.50984261053E+02  0.26472896115E+02  0.57544312343E+02  0.00000000000E+00 0.  1.
         11    1    1    2    0    0 -0.15105673921E+03  0.12902307098E+03  0.12329490503E+03  0.23380916345E+03  0.00000000000E+00 0. -1.
<mgrwt>
<rscale>  0 0.26062032E+03</rscale>
<asrwt>0</asrwt>
<pdfrwt beam="1">  1        1 0.10043238E+00 0.26429046E+03</pdfrwt>
<pdfrwt beam="2">  1       -1 0.17106402E-01 0.26429046E+03</pdfrwt>
<totfact> 0.81410282E+02</totfact>
</mgrwt>
</event>
<event>
 7    1  0.5258471E-006  0.1711046E+03  0.7546771E-02  0.1183680E+00
         -2   -1    0    0    0  501 -0.00000000000E+00  0.00000000000E+00  0.23968608228E+03  0.23968608228E+03  0.00000000000E+00 0.  1.
          2   -1    0    0  501    0  0.00000000000E+00 -0.00000000000E+00 -0.10568025147E+03  0.10568025147E+03  0.00000000000E+00 0. -1.
         23    2    1    2    0    0  0.70637671947E+02 -0.93071943663E+02  0.59020786854E+02  0.18099788913E+03  0.12499886077E+03 0.  0.
          5    1    3    3  502    0 -0.19219928195E+02 -0.31293284569E+00  0.47256231681E+02  0.51232265219E+02  0.47000000000E+01 0. -1.
         -5    1    3    3    0  502  0.89857600142E+02 -0.92759010817E+02  0.11764555173E+02  0.12976562391E+03  0.47000000000E+01 0. -1.
        -11    1    1    2    0    0 -0.11686693416E+02  0.40968989447E+02  0.74348450079E+02  0.85689724754E+02  0.00000000000E+00 0.  1.
         11    1    1    2    0    0 -0.58950978531E+02  0.52102954216E+02  0.63659387571E+00  0.78678719865E+02  0.00000000000E+00 0. -1.
<mgrwt>
<rscale>  0 0.16452554E+03</rscale>
<asrwt>0</asrwt>
<pdfrwt beam="2">  1        2 0.16258500E-01 0.17110460E+03</pdfrwt>
<pdfrwt beam="1">  1       -2 0.36874782E-01 0.17110460E+03</pdfrwt>
<totfact> 0.24082543E+03</totfact>
</mgrwt>
</event>
<event>
 7    1  0.5206756E-006  0.2450339E+03  0.7546771E-02  0.1119096E+00
          1   -1    0    0  501    0  0.00000000000E+00  0.00000000000E+00  0.49758157009E+03  0.49758157009E+03  0.00000000000E+00 0. -1.
         -1   -1    0    0    0  501 -0.00000000000E+00 -0.00000000000E+00 -0.13174017875E+03  0.13174017875E+03  0.00000000000E+00 0.  1.
         23    2    1    2    0    0  0.17895263172E+03 -0.11131780668E+03  0.30628430913E+03  0.39223930658E+03  0.12500358843E+03 0.  0.
          5    1    3    3  502    0 -0.14374757532E+02 -0.19218254107E+02  0.95067744326E+01  0.26238210784E+02  0.47000000000E+01 0.  1.
         -5    1    3    3    0  502  0.19332738925E+03 -0.92099552574E+02  0.29677753470E+03  0.36600109579E+03  0.47000000000E+01 0.  1.
        -11    1    1    2    0    0 -0.99225605605E+02  0.95005534487E+01  0.33559330460E+02  0.10517704115E+03  0.00000000000E+00 0. -1.
         11    1    1    2    0    0 -0.79727026113E+02  0.10181725323E+03  0.25997751742E+02  0.13190540112E+03  0.00000000000E+00 0.  1.
<mgrwt>
<rscale>  0 0.24104924E+03</rscale>
<asrwt>0</asrwt>
<pdfrwt beam="1">  1        1 0.76551010E-01 0.24503387E+03</pdfrwt>
<pdfrwt beam="2">  1       -1 0.20267720E-01 0.24503387E+03</pdfrwt>
<totfact> 0.89871610E+02</totfact>
</mgrwt>
</event>
<event>
 7    1  0.5206756E-006  0.1332060E+03  0.7546771E-02  0.1235671E+00
         -2   -1    0    0    0  501 -0.00000000000E+00  0.00000000000E+00  0.16034573687E+03  0.16034573687E+03  0.00000000000E+00 0.  1.
          2   -1    0    0  501    0  0.00000000000E+00 -0.00000000000E+00 -0.86339478416E+02  0.86339478416E+02  0.00000000000E+00 0. -1.
         23    2    1    2    0    0  0.45331700140E+02  0.80457493547E+01  0.38555472036E+02  0.13867357187E+03  0.12499655192E+03 0.  0.
          5    1    3    3  502    0  0.66694855402E+01  0.64180404962E+02  0.22421048473E+02  0.68471890824E+02  0.47000000000E+01 0. -1.
         -5    1    3    3    0  502  0.38662214600E+02 -0.56134655607E+02  0.16134423563E+02  0.70201681046E+02  0.47000000000E+01 0. -1.
        -11    1    1    2    0    0 -0.25224775184E+02 -0.21332929682E+02  0.63165928204E+02  0.71283361717E+02  0.00000000000E+00 0.  1.
         11    1    1    2    0    0 -0.20106924956E+02  0.13287180327E+02 -0.27715141787E+02  0.36728281698E+02  0.00000000000E+00 0. -1.
<mgrwt>
<rscale>  0 0.12461573E+03</rscale>
<asrwt>0</asrwt>
<pdfrwt beam="2">  1        2 0.13282997E-01 0.13320599E+03</pdfrwt>
<pdfrwt beam="1">  1       -2 0.24668575E-01 0.13320599E+03</pdfrwt>
<totfact> 0.62195262E+03</totfact>
</mgrwt>
</event>
<event>
 7    1  0.5206756E-006  0.1323491E+03  0.7546771E-02  0.1234767E+00
          3   -1    0    0  501    0  0.00000000000E+00  0.00000000000E+00  0.37287448018E+02  0.37287448018E+02  0.00000000000E+00 0. -1.
         -3   -1    0    0    0  501 -0.00000000000E+00 -0.00000000000E+00 -0.38135133284E+03  0.38135133284E+03  0.00000000000E+00 0.  1.
         23    2    1    2    0    0 -0.31599727448E+02 -0.29866308825E+02 -0.18304584483E+03  0.22588066885E+03  0.12500302426E+03 0.  0.
          5    1    3    3  502    0 -0.43769905910E+02 -0.48768956579E+02 -0.31961514294E+02  0.73060551498E+02  0.47000000000E+01 0.  1.
         -5    1    3    3    0  502  0.12170178462E+02  0.18902647754E+02 -0.15108433053E+03  0.15282011735E+03  0.47000000000E+01 0.  1.
        -11    1    1    2    0    0  0.11818237725E+02 -0.22228921972E+02 -0.31839330813E+01  0.25375837815E+02  0.00000000000E+00 0. -1.
         11    1    1    2    0    0  0.19781489723E+02  0.52095230797E+02 -0.15783410692E+03  0.16738227419E+03  0.00000000000E+00 0.  1.
<mgrwt>
<rscale>  0 0.12519382E+03</rscale>
<asrwt>0</asrwt>
<pdfrwt beam="1">  1        3 0.57365307E-02 0.13234914E+03</pdfrwt>
<pdfrwt beam="2">  1       -3 0.58669433E-01 0.13234914E+03</pdfrwt>
<totfact> 0.12101957E+03</totfact>
</mgrwt>
</event>
<event>
 7    1  0.5206756E-006  0.1471489E+03  0.7546771E-02  0.1213128E+00
          1   -1    0    0  501    0  0.00000000000E+00  0.00000000000E+00  0.22055425868E+03  0.22055425868E+03  0.00000000000E+00 0. -1.
         -1   -1    0    0    0  501 -0.00000000000E+00 -0.00000000000E+00 -0.85623738152E+02  0.85623738152E+02  0.00000000000E+00 0.  1.
         23    2    1    2    0    0 -0.75332883671E+02 -0.18851901301E+02  0.10692389233E+03  0.18189423729E+03  0.12498942861E+03 0.  0.
          5    1    3    3  502    0 -0.52868509456E+02  0.50458855810E+02  0.63601241810E+02  0.96996821502E+02  0.47000000000E+01 0. -1.
         -5    1    3    3    0  502 -0.22464374215E+02 -0.69310757112E+02  0.43322650518E+02  0.84897415792E+02  0.47000000000E+01 0. -1.
        -11    1    1    2    0    0  0.93948883877E+02  0.12897313321E+02  0.38206375772E+02  0.10223727609E+03  0.00000000000E+00 0. -1.
         11    1    1    2    0    0 -0.18616000206E+02  0.59545879803E+01 -0.10199747574E+02  0.22046483445E+02  0.00000000000E+00 0.  1.
<mgrwt>
<rscale>  0 0.14014971E+03</rscale>
<asrwt>0</asrwt>
<pdfrwt beam="1">  1        1 0.33931424E-01 0.14714889E+03</pdfrwt>
<pdfrwt beam="2">  1       -1 0.13172883E-01 0.14714889E+03</pdfrwt>
<totfact> 0.49235685E+03</totfact>
</mgrwt>
</event>
<event>
 7    1  0.5206756E-006  0.1556285E+03  0.7546771E-02  0.1202037E+00
          2   -1    0    0  501    0  0.00000000000E+00  0.00000000000E+00  0.21555799860E+04  0.21555799860E+04  0.00000000000E+00 0. -1.
         -2   -1    0    0    0  501 -0.00000000000E+00 -0.00000000000E+00 -0.13671419304E+02  0.13671419304E+02  0.00000000000E+00 0.  1.
         23    2    1    2    0    0  0.71450684274E+02 -0.59080928415E+02  0.17387990365E+04  0.17457497858E+04  0.12499787591E+03 0.  0.
          5    1    3    3  502    0  0.48706188320E+02 -0.33797726138E+02  0.16414049728E+04  0.16424819493E+04  0.47000000000E+01 0.  1.
         -5    1    3    3    0  502  0.22744495954E+02 -0.25283202277E+02  0.97394063638E+02  0.10326783645E+03  0.47000000000E+01 0.  1.
        -11    1    1    2    0    0  0.18765226945E+02  0.29358161486E+02  0.10694715698E+03  0.11247990832E+03  0.00000000000E+00 0.  1.
         11    1    1    2    0    0 -0.90215911219E+02  0.29722766929E+02  0.29616237328E+03  0.31102171123E+03  0.00000000000E+00 0. -1.
<mgrwt>
<rscale>  0 0.14873466E+03</rscale>
<asrwt>0</asrwt>
<pdfrwt beam="1">  1        2 0.33162742E+00 0.15562849E+03</pdfrwt>
<pdfrwt beam="2">  1       -2 0.21032970E-02 0.15562849E+03</pdfrwt>
<totfact> 0.44071747E+03</totfact>
</mgrwt>
</event>
<event>
 7    1  0.5206756E-006  0.1360963E+03  0.7546771E-02  0.1230222E+00
         -1   -1    0    0    0  501 -0.00000000000E+00  0.00000000000E+00  0.34955329645E+03  0.34955329645E+03  0.00000000000E+00 0.  1.
          1   -1    0    0  501    0  0.00000000000E+00 -0.00000000000E+00 -0.42315895107E+02  0.42315895107E+02  0.00000000000E+00 0. -1.
         23    2    1    2    0    0 -0.52694575847E+02  0.10965679696E+02  0.17872144062E+03  0.22464093780E+03  0.12500093257E+03 0.  0.
          5    1    3    3  502    0 -0.65218800305E+02  0.15077236720E+02  0.27090801507E+02  0.72365851800E+02  0.47000000000E+01 0. -1.
         -5    1    3    3    0  502  0.12524224458E+02 -0.41115570240E+01  0.15163063911E+03  0.15227508600E+03  0.47000000000E+01 0. -1.
        -11    1    1    2    0    0  0.67456099214E+02 -0.17115833353E+02  0.13343857105E+03  0.15049627675E+03  0.00000000000E+00 0.  1.
         11    1    1    2    0    0 -0.14761523366E+02  0.61501536574E+01 -0.49226103232E+01  0.16731977005E+02  0.00000000000E+00 0. -1.
<mgrwt>
<rscale>  0 0.12815346E+03</rscale>
<asrwt>0</asrwt>
<pdfrwt beam="2">  1        1 0.65101379E-02 0.13609628E+03</pdfrwt>
<pdfrwt beam="1">  1       -1 0.53777428E-01 0.13609628E+03</pdfrwt>
<totfact> 0.39657345E+03</totfact>
</mgrwt>
</event>
<event>
 7    1  0.5206756E-006  0.1381199E+03  0.7546771E-02  0.1227298E+00
         -1   -1    0    0    0  501 -0.00000000000E+00  0.00000000000E+00  0.24040994387E+03  0.24040994387E+03  0.00000000000E+00 0.  1.
          1   -1    0    0  501    0  0.00000000000E+00 -0.00000000000E+00 -0.66364513349E+02  0.66364513349E+02  0.00000000000E+00 0. -1.
         23    2    1    2    0    0  0.13227035550E+02  0.57240590010E+02  0.64575886187E+02  0.15247015068E+03  0.12500264860E+03 0.  0.
          5    1    3    3  502    0 -0.17256037377E+02  0.24559242459E+02 -0.33114450479E+02  0.44939782450E+02  0.47000000000E+01 0.  1.
         -5    1    3    3    0  502  0.30483072927E+02  0.32681347550E+02  0.97690336666E+02  0.10753036823E+03  0.47000000000E+01 0.  1.
        -11    1    1    2    0    0 -0.54733119484E+01  0.25127699676E+02  0.21246946446E+02  0.33358524667E+02  0.00000000000E+00 0.  1.
         11    1    1    2    0    0 -0.77537236020E+01 -0.82368289686E+02  0.88222597887E+02  0.12094578188E+03  0.00000000000E+00 0. -1.
<mgrwt>
<rscale>  0 0.13010619E+03</rscale>
<asrwt>0</asrwt>
<pdfrwt beam="2">  1        1 0.10209925E-01 0.13811988E+03</pdfrwt>
<pdfrwt beam="1">  1       -1 0.36986145E-01 0.13811988E+03</pdfrwt>
<totfact> 0.42423105E+03</totfact>
</mgrwt>
</event>
<event>
 7    1  0.5206756E-006  0.1253837E+03  0.7546771E-02  0.1249968E+00
         -1   -1    0    0    0  501 -0.00000000000E+00  0.00000000000E+00  0.36745328141E+02  0.36745328141E+02  0.00000000000E+00 0.  1.
          1   -1    0    0  501    0  0.00000000000E+00 -0.00000000000E+00 -0.34240613487E+03  0.34240613487E+03  0.00000000000E+00 0. -1.
         23    2    1    2    0    0  0.95515387477E+01 -0.17155233570E+01 -0.22256325356E+03  0.25545152188E+03  0.12500761290E+03 0.  0.
          5    1    3    3  502    0 -0.31783975769E+02  0.48242997969E+02 -0.13002180070E+03  0.14235647729E+03  0.47000000000E+01 0.  1.
         -5    1    3    3    0  502  0.41335514517E+02 -0.49958521326E+02 -0.92541452862E+02  0.11309504459E+03  0.47000000000E+01 0.  1.
        -11    1    1    2    0    0 -0.27115685582E+02 -0.38704783724E+02 -0.48009018266E+02  0.67366063582E+02  0.00000000000E+00 0.  1.
         11    1    1    2    0    0  0.17564146835E+02  0.40420307081E+02 -0.35088534910E+02  0.56333877557E+02  0.00000000000E+00 0. -1.
<mgrwt>
<rscale>  0 0.11592924E+03</rscale>
<asrwt>0</asrwt>
<pdfrwt beam="2">  1        1 0.52677864E-01 0.12538372E+03</pdfrwt>
<pdfrwt beam="1">  1       -1 0.56531277E-02 0.12538372E+03</pdfrwt>
<totfact> 0.10186822E+04</totfact>
</mgrwt>
</event>
<event>
 7    1  0.5206756E-006  0.1270577E+03  0.7546771E-02  0.1249069E+00
          1   -1    0    0  501    0  0.00000000000E+00  0.00000000000E+00  0.68018421312E+03  0.68018421312E+03  0.00000000000E+00 0. -1.
         -1   -1    0    0    0  501 -0.00000000000E+00 -0.00000000000E+00 -0.24108233552E+02  0.24108233552E+02  0.00000000000E+00 0.  1.
         23    2    1    2    0    0  0.17426529838E+02 -0.14517451033E+02  0.55422792246E+03  0.56860552055E+03  0.12501682941E+03 0.  0.
          5    1    3    3  502    0  0.53422120061E+01  0.35675054369E+02  0.45678297238E+03  0.45822922494E+03  0.47000000000E+01 0.  1.
         -5    1    3    3    0  502  0.12084317832E+02 -0.50192505402E+02  0.97444950084E+02  0.11037629561E+03  0.47000000000E+01 0.  1.
        -11    1    1    2    0    0 -0.36712290871E+02 -0.25463172421E+02  0.43337468505E+02  0.62243888271E+02  0.00000000000E+00 0. -1.
         11    1    1    2    0    0  0.19285761033E+02  0.39980623454E+02  0.58510588600E+02  0.73443037851E+02  0.00000000000E+00 0.  1.
<mgrwt>
<rscale>  0 0.11645109E+03</rscale>
<asrwt>0</asrwt>
<pdfrwt beam="1">  1        1 0.10464371E+00 0.12705766E+03</pdfrwt>
<pdfrwt beam="2">  1       -1 0.37089595E-02 0.12705766E+03</pdfrwt>
<totfact> 0.77510341E+03</totfact>
</mgrwt>
</event>
<event>
 7    1  0.5206756E-006  0.1368085E+03  0.7546771E-02  0.1228958E+00
         -2   -1    0    0    0  501 -0.00000000000E+00  0.00000000000E+00  0.71688183911E+02  0.71688183911E+02  0.00000000000E+00 0.  1.
          2   -1    0    0  501    0  0.00000000000E+00 -0.00000000000E+00 -0.21681642752E+03  0.21681642752E+03  0.00000000000E+00 0. -1.
         23    2    1    2    0    0 -0.55071692884E+02  0.77141826786E+01 -0.10760344179E+03  0.17405475881E+03  0.12499663359E+03 0.  0.
          5    1    3    3  502    0  0.19786556379E+02  0.33192060652E+02 -0.82057781707E+02  0.90822850882E+02  0.47000000000E+01 0.  1.
         -5    1    3    3    0  502 -0.74858249263E+02 -0.25477877974E+02 -0.25545660081E+02  0.83231907930E+02  0.47000000000E+01 0.  1.
        -11    1    1    2    0    0  0.23196164954E+02 -0.35444331275E+01  0.30929218846E+02  0.38823210238E+02  0.00000000000E+00 0.  1.
         11    1    1    2    0    0  0.31875527931E+02 -0.41697495510E+01 -0.68454020667E+02  0.75626642380E+02  0.00000000000E+00 0. -1.
<mgrwt>
<rscale>  0 0.12899255E+03</rscale>
<asrwt>0</asrwt>
<pdfrwt beam="2">  1        2 0.33356374E-01 0.13680847E+03</pdfrwt>
<pdfrwt beam="1">  1       -2 0.11028951E-01 0.13680847E+03</pdfrwt>
<totfact> 0.83754282E+03</totfact>
</mgrwt>
</event>
<event>
 7    1  0.5206756E-006  0.1754808E+03  0.7546771E-02  0.1178537E+00
          1   -1    0    0  501    0  0.00000000000E+00  0.00000000000E+00  0.76810088971E+03  0.76810088971E+03  0.00000000000E+00 0. -1.
         -1   -1    0    0    0  501 -0.00000000000E+00 -0.00000000000E+00 -0.42172561603E+02  0.42172561603E+02  0.00000000000E+00 0.  1.
         23    2    1    2    0    0 -0.38776761404E+02 -0.11689613293E+03  0.55173356231E+03  0.57896755118E+03  0.12500063369E+03 0.  0.
          5    1    3    3  502    0  0.38079347410E+02 -0.67778510413E+02  0.33191227115E+03  0.34092786467E+03  0.47000000000E+01 0.  1.
         -5    1    3    3    0  502 -0.76856108814E+02 -0.49117622515E+02  0.21982129116E+03  0.23803968650E+03  0.47000000000E+01 0.  1.
        -11    1    1    2    0    0  0.20692048474E+02  0.95549612762E+02  0.17799010018E+03  0.20307231502E+03  0.00000000000E+00 0. -1.
         11    1    1    2    0    0  0.18084712930E+02  0.21346520166E+02 -0.37953343786E+01  0.28233585107E+02  0.00000000000E+00 0.  1.
<mgrwt>
<rscale>  0 0.16934064E+03</rscale>
<asrwt>0</asrwt>
<pdfrwt beam="1">  1        1 0.11816936E+00 0.17548077E+03</pdfrwt>
<pdfrwt beam="2">  1       -1 0.64880870E-02 0.17548077E+03</pdfrwt>
<totfact> 0.28757050E+03</totfact>
</mgrwt>
</event>
<event>
 7    1  0.5206756E-006  0.1464055E+03  0.7546771E-02  0.1214194E+00
          1   -1    0    0  501    0  0.00000000000E+00  0.00000000000E+00  0.92114440222E+03  0.92114440222E+03  0.00000000000E+00 0. -1.
         -1   -1    0    0    0  501 -0.00000000000E+00 -0.00000000000E+00 -0.19974829545E+02  0.19974829545E+02  0.00000000000E+00 0.  1.
         23    2    1    2    0    0  0.20320485077E+02  0.73462054842E+02  0.58013399913E+03  0.59832267003E+03  0.12499985965E+03 0.  0.
          5    1    3    3  502    0  0.60084802607E+02  0.57424813491E+02  0.50391845642E+03  0.51074817027E+03  0.47000000000E+01 0.  1.
         -5    1    3    3    0  502 -0.39764317530E+02  0.16037241351E+02  0.76215542701E+02  0.87574499758E+02  0.47000000000E+01 0.  1.
        -11    1    1    2    0    0 -0.43782368444E+02 -0.34679623260E+01  0.88055504738E+02  0.98400683250E+02  0.00000000000E+00 0.  1.
         11    1    1    2    0    0  0.23461883367E+02 -0.69994092516E+02  0.23298006881E+03  0.24439587849E+03  0.00000000000E+00 0. -1.
<mgrwt>
<rscale>  0 0.13935902E+03</rscale>
<asrwt>0</asrwt>
<pdfrwt beam="1">  1        1 0.14171449E+00 0.14640547E+03</pdfrwt>
<pdfrwt beam="2">  1       -1 0.30730514E-02 0.14640547E+03</pdfrwt>
<totfact> 0.65141271E+03</totfact>
</mgrwt>
</event>
<event>
 7    1  0.5206756E-006  0.1270788E+03  0.7546771E-02  0.1245984E+00
         -2   -1    0    0    0  501 -0.00000000000E+00  0.00000000000E+00  0.62208154289E+02  0.62208154289E+02  0.00000000000E+00 0.  1.
          2   -1    0    0  501    0  0.00000000000E+00 -0.00000000000E+00 -0.20031786940E+03  0.20031786940E+03  0.00000000000E+00 0. -1.
         23    2    1    2    0    0 -0.82138608324E+01  0.21231579196E+02 -0.90176000629E+02  0.15582275661E+03  0.12502308956E+03 0.  0.
          5    1    3    3  502    0  0.85299658757E+01  0.39480227214E+02  0.18202014302E+02  0.44551677672E+02  0.47000000000E+01 0. -1.
         -5    1    3    3    0  502 -0.16743826708E+02 -0.18248648017E+02 -0.10837801493E+03  0.11127107894E+03  0.47000000000E+01 0. -1.
        -11    1    1    2    0    0 -0.33042104213E+02  0.15628825784E+02 -0.33372534934E+02  0.49495120306E+02  0.00000000000E+00 0. -1.
         11    1    1    2    0    0  0.41255965046E+02 -0.36860404980E+02 -0.14561179543E+02  0.57208146770E+02  0.00000000000E+00 0.  1.
<mgrwt>
<rscale>  0 0.11826685E+03</rscale>
<asrwt>0</asrwt>
<pdfrwt beam="2">  1        2 0.30818134E-01 0.12707880E+03</pdfrwt>
<pdfrwt beam="1">  1       -2 0.95704852E-02 0.12707880E+03</pdfrwt>
<totfact> 0.11336004E+04</totfact>
</mgrwt>
</event>
<event>
 7    1  0.5206756E-006  0.1396978E+03  0.7546771E-02  0.1227980E+00
         -1   -1    0    0    0  501 -0.00000000000E+00  0.00000000000E+00  0.25393977521E+03  0.25393977521E+03  0.00000000000E+00 0.  1.
          1   -1    0    0  501    0  0.00000000000E+00 -0.00000000000E+00 -0.89961752781E+02  0.89961752781E+02  0.00000000000E+00 0. -1.
         23    2    1    2    0    0  0.53427528732E+02 -0.32181214563E+02 -0.11434633772E+02  0.14016501309E+03  0.12500139458E+03 0.  0.
          5    1    3    3  502    0  0.62076996929E+02  0.19503270779E+01  0.42628346473E+02  0.75475977943E+02  0.47000000000E+01 0. -1.
         -5    1    3    3    0  502 -0.86494681963E+01 -0.34131541640E+02 -0.54062980245E+02  0.64689035144E+02  0.47000000000E+01 0. -1.
        -11    1    1    2    0    0  0.47394657620E+01  0.23420432073E+02  0.63379659022E+01  0.24721427668E+02  0.00000000000E+00 0. -1.
         11    1    1    2    0    0 -0.58166994494E+02  0.87607824897E+01  0.16907469030E+03  0.17901508723E+03  0.00000000000E+00 0.  1.
<mgrwt>
<rscale>  0 0.12964702E+03</rscale>
<asrwt>0</asrwt>
<pdfrwt beam="2">  1        1 0.13840270E-01 0.13969782E+03</pdfrwt>
<pdfrwt beam="1">  1       -1 0.39067657E-01 0.13969782E+03</pdfrwt>
<totfact> 0.25879933E+03</totfact>
</mgrwt>
</event>
<event>
 7    1  0.5206756E-006  0.1259238E+03  0.7546771E-02  0.1243191E+00
         -1   -1    0    0    0  501 -0.00000000000E+00  0.00000000000E+00  0.29480791027E+02  0.29480791027E+02  0.00000000000E+00 0.  1.
          1   -1    0    0  501    0  0.00000000000E+00 -0.00000000000E+00 -0.44712315085E+03  0.44712315085E+03  0.00000000000E+00 0. -1.
         23    2    1    2    0    0 -0.15135757567E+02 -0.17935559308E+01 -0.23382240046E+03  0.26557432230E+03  0.12499799081E+03 0.  0.
          5    1    3    3  502    0  0.44328770758E+02 -0.59505433933E+01 -0.17861908861E+03  0.18419369615E+03  0.47000000000E+01 0.  1.
         -5    1    3    3    0  502 -0.59464528325E+02  0.41569874625E+01 -0.55203311853E+02  0.81380626154E+02  0.47000000000E+01 0.  1.
        -11    1    1    2    0    0 -0.41456634815E+02  0.68429640974E+00 -0.11301347632E+03  0.12037926176E+03  0.00000000000E+00 0.  1.
         11    1    1    2    0    0  0.56592392381E+02  0.11092595210E+01 -0.70806483034E+02  0.90650357814E+02  0.00000000000E+00 0. -1.
<mgrwt>
<rscale>  0 0.11994309E+03</rscale>
<asrwt>0</asrwt>
<pdfrwt beam="2">  1        1 0.68788175E-01 0.12592381E+03</pdfrwt>
<pdfrwt beam="1">  1       -1 0.45355064E-02 0.12592381E+03</pdfrwt>
<totfact> 0.10090452E+04</totfact>
</mgrwt>
</event>
<event>
 7    1  0.5206756E-006  0.1318190E+03  0.7546771E-02  0.1238397E+00
          2   -1    0    0  501    0  0.00000000000E+00  0.00000000000E+00  0.18658694273E+04  0.18658694273E+04  0.00000000000E+00 0. -1.
         -2   -1    0    0    0  501 -0.00000000000E+00 -0.00000000000E+00 -0.11768459535E+02  0.11768459535E+02  0.00000000000E+00 0.  1.
         23    2    1    2    0    0  0.29435344428E+02 -0.29608362149E+02  0.15888495468E+04  0.15943083588E+04  0.12503265907E+03 0.  0.
          5    1    3    3  502    0  0.16178299526E+02 -0.16767287026E+02  0.15571217155E+04  0.15573031195E+04  0.47000000000E+01 0. -1.
         -5    1    3    3    0  502  0.13257044902E+02 -0.12841075123E+02  0.31727831314E+02  0.37005239221E+02  0.47000000000E+01 0. -1.
        -11    1    1    2    0    0 -0.14311740239E+02 -0.20225830439E+02  0.17929338918E+02  0.30583840826E+02  0.00000000000E+00 0.  1.
         11    1    1    2    0    0 -0.15123604190E+02  0.49834192589E+02  0.24732208202E+03  0.25274568722E+03  0.00000000000E+00 0. -1.
<mgrwt>
<rscale>  0 0.12289461E+03</rscale>
<asrwt>0</asrwt>
<pdfrwt beam="1">  1        2 0.28705660E+00 0.13181904E+03</pdfrwt>
<pdfrwt beam="2">  1       -2 0.18105337E-02 0.13181904E+03</pdfrwt>
<totfact> 0.76977441E+03</totfact>
</mgrwt>
</event>
<event>
 7    1  0.5206756E-006  0.1308036E+03  0.7546771E-02  0.1243329E+00
         -1   -1    0    0    0  501 -0.00000000000E+00  0.00000000000E+00  0.12368983435E+03  0.12368983435E+03  0.00000000000E+00 0.  1.
          1   -1    0    0  501    0  0.00000000000E+00 -0.00000000000E+00 -0.10416634443E+03  0.10416634443E+03  0.00000000000E+00 0. -1.
         23    2    1    2    0    0  0.38482906236E+02  0.21349646836E+01 -0.95723484074E+01  0.13115335569E+03  0.12499632278E+03 0.  0.
          5    1    3    3  502    0  0.39641820373E+02  0.27354462842E+02  0.47971005696E+02  0.68139914495E+02  0.47000000000E+01 0.  1.
         -5    1    3    3    0  502 -0.11589141369E+01 -0.25219498159E+02 -0.57543354104E+02  0.63013441192E+02  0.47000000000E+01 0.  1.
        -11    1    1    2    0    0 -0.56086223037E+02 -0.11374519019E+02  0.43724489799E+02  0.72019963244E+02  0.00000000000E+00 0. -1.
         11    1    1    2    0    0  0.17603316802E+02  0.92395543349E+01 -0.14628651469E+02  0.24682859853E+02  0.00000000000E+00 0.  1.
<mgrwt>
<rscale>  0 0.11985969E+03</rscale>
<asrwt>0</asrwt>
<pdfrwt beam="2">  1        1 0.16025591E-01 0.13080357E+03</pdfrwt>
<pdfrwt beam="1">  1       -1 0.19029205E-01 0.13080357E+03</pdfrwt>
<totfact> 0.70548617E+03</totfact>
</mgrwt>
</event>
<event>
 7    1  0.5206756E-006  0.1299049E+03  0.7546771E-02  0.1239126E+00
         -1   -1    0    0    0  501 -0.00000000000E+00  0.00000000000E+00  0.36128864003E+02  0.36128864003E+02  0.00000000000E+00 0.  1.
          1   -1    0    0  501    0  0.00000000000E+00 -0.00000000000E+00 -0.40893392700E+03  0.40893392700E+03  0.00000000000E+00 0. -1.
         23    2    1    2    0    0  0.34948241954E+02  0.50060345733E+01 -0.27128285866E+03  0.30078177724E+03  0.12501539153E+03 0.  0.
          5    1    3    3  502    0  0.58113262156E+02 -0.86336513556E+01 -0.48485357567E+02  0.76319139621E+02  0.47000000000E+01 0.  1.
         -5    1    3    3    0  502 -0.23165020202E+02  0.13639685929E+02 -0.22279750110E+03  0.22446263762E+03  0.47000000000E+01 0.  1.
        -11    1    1    2    0    0  0.18228115742E+02  0.12522639286E+02  0.61209871605E+01  0.22946615917E+02  0.00000000000E+00 0.  1.
         11    1    1    2    0    0 -0.53176357697E+02 -0.17528673859E+02 -0.10764319150E+03  0.12133439785E+03  0.00000000000E+00 0. -1.
<mgrwt>
<rscale>  0 0.12243930E+03</rscale>
<asrwt>0</asrwt>
<pdfrwt beam="2">  1        1 0.62912916E-01 0.12990492E+03</pdfrwt>
<pdfrwt beam="1">  1       -1 0.55582864E-02 0.12990492E+03</pdfrwt>
<totfact> 0.83869699E+03</totfact>
</mgrwt>
</event>
<event>
 6    1  0.5206756E-006  0.1370696E+03  0.7546771E-02  0.1236817E+00
         -1   -1    0    0    0  501 -0.00000000000E+00  0.00000000000E+00  0.33187869163E+03  0.33187869163E+03  0.00000000000E+00 0.  1.
          1   -1    0    0  501    0  0.00000000000E+00 -0.00000000000E+00 -0.41063629021E+03  0.41063629021E+03  0.00000000000E+00 0. -1.
          5    1    1    2  502    0  0.57367566683E+02  0.46338358991E+02 -0.19077277400E+03  0.20458402313E+03  0.47000000000E+01 0. -1.
         -5    1    1    2    0  502 -0.34625218082E+02 -0.51714497274E+02 -0.20170836963E+03  0.21114367463E+03  0.47000000000E+01 0.  1.
        -11    1    1    2    0    0 -0.32450023561E+02  0.42238112885E+02  0.18999172565E+03  0.19731679610E+03  0.00000000000E+00 0.  1.
         11    1    1    2    0    0  0.97076749609E+01 -0.36861974602E+02  0.12373181941E+03  0.12947048798E+03  0.00000000000E+00 0. -1.
<mgrwt>
<rscale>  0 0.12388823E+03</rscale>
<asrwt>0</asrwt>
<pdfrwt beam="2">  1        1 0.63174813E-01 0.13706958E+03</pdfrwt>
<pdfrwt beam="1">  1       -1 0.51058261E-01 0.13706958E+03</pdfrwt>
<totfact> 0.23752326E+02</totfact>
</mgrwt>
</event>
<event>
 7    1  0.5206756E-006  0.1575987E+03  0.7546771E-02  0.1199219E+00
         -2   -1    0    0    0  501 -0.00000000000E+00  0.00000000000E+00  0.41959195501E+03  0.41959195501E+03  0.00000000000E+00 0.  1.
          2   -1    0    0  501    0  0.00000000000E+00 -0.00000000000E+00 -0.50478114561E+02  0.50478114561E+02  0.00000000000E+00 0. -1.
         23    2    1    2    0    0  0.87621707207E+02 -0.39185289213E+02  0.21475771172E+03  0.26637985037E+03  0.12499719787E+03 0.  0.
          5    1    3    3  502    0  0.90283188565E+01  0.15024832776E+02  0.14959303199E+03  0.15068981838E+03  0.47000000000E+01 0. -1.
         -5    1    3    3    0  502  0.78593388350E+02 -0.54210121989E+02  0.65164679728E+02  0.11569003199E+03  0.47000000000E+01 0. -1.
        -11    1    1    2    0    0 -0.69896447023E+02 -0.15753786690E+02  0.61865807653E+02  0.94662945538E+02  0.00000000000E+00 0. -1.
         11    1    1    2    0    0 -0.17725260184E+02  0.54939075903E+02  0.92490321075E+02  0.10902727366E+03  0.00000000000E+00 0.  1.
<mgrwt>
<rscale>  0 0.15102550E+03</rscale>
<asrwt>0</asrwt>
<pdfrwt beam="2">  1        2 0.77658641E-02 0.15759870E+03</pdfrwt>
<pdfrwt beam="1">  1       -2 0.64552606E-01 0.15759870E+03</pdfrwt>
<totfact> 0.19483492E+03</totfact>
</mgrwt>
</event>
<event>
 7    1  0.5206756E-006  0.1408068E+03  0.7546771E-02  0.1222813E+00
          2   -1    0    0  501    0  0.00000000000E+00  0.00000000000E+00  0.98945873412E+02  0.98945873412E+02  0.00000000000E+00 0. -1.
         -2   -1    0    0    0  501 -0.00000000000E+00 -0.00000000000E+00 -0.23674325084E+03  0.23674325084E+03  0.00000000000E+00 0.  1.
         23    2    1    2    0    0  0.64764733712E+02  0.25410286088E+01  0.19544076237E+02  0.14215667672E+03  0.12500248901E+03 0.  0.
          5    1    3    3  502    0  0.28061679823E+02 -0.27112323794E+02 -0.46480028712E+02  0.60868867618E+02  0.47000000000E+01 0. -1.
         -5    1    3    3    0  502  0.36703053889E+02  0.29653352403E+02  0.66024104949E+02  0.81287809098E+02  0.47000000000E+01 0. -1.
        -11    1    1    2    0    0 -0.21637587037E+01 -0.25105805988E+02 -0.10744318305E+03  0.11035860152E+03  0.00000000000E+00 0.  1.
         11    1    1    2    0    0 -0.62600975009E+02  0.22564777379E+02 -0.49898270613E+02  0.83173846011E+02  0.00000000000E+00 0. -1.
<mgrwt>
<rscale>  0 0.13317927E+03</rscale>
<asrwt>0</asrwt>
<pdfrwt beam="1">  1        2 0.15222442E-01 0.14080678E+03</pdfrwt>
<pdfrwt beam="2">  1       -2 0.36422038E-01 0.14080678E+03</pdfrwt>
<totfact> 0.26364123E+03</totfact>
</mgrwt>
</event>
<event>
 7    1  0.5206756E-006  0.1275777E+03  0.7546771E-02  0.1244680E+00
         -2   -1    0    0    0  501 -0.00000000000E+00  0.00000000000E+00  0.17988444454E+02  0.17988444454E+02  0.00000000000E+00 0.  1.
          2   -1    0    0  501    0  0.00000000000E+00 -0.00000000000E+00 -0.71733381607E+03  0.71733381607E+03  0.00000000000E+00 0. -1.
         23    2    1    2    0    0  0.11213144986E+01  0.25507703627E+02 -0.45446546359E+03  0.47203277350E+03  0.12499672544E+03 0.  0.
          5    1    3    3  502    0  0.41179430920E+02 -0.22508868837E+02 -0.84332492798E+02  0.96625328195E+02  0.47000000000E+01 0. -1.
         -5    1    3    3    0  502 -0.40058116421E+02  0.48016572464E+02 -0.37013297079E+03  0.37540744530E+03  0.47000000000E+01 0. -1.
        -11    1    1    2    0    0 -0.38544517465E+02 -0.40877647353E+02 -0.13700185288E+03  0.14807487826E+03  0.00000000000E+00 0. -1.
         11    1    1    2    0    0  0.37423202966E+02  0.15369943726E+02 -0.10787805515E+03  0.11521460877E+03  0.00000000000E+00 0.  1.
<mgrwt>
<rscale>  0 0.11904543E+03</rscale>
<asrwt>0</asrwt>
<pdfrwt beam="2">  1        2 0.11035905E+00 0.12757775E+03</pdfrwt>
<pdfrwt beam="1">  1       -2 0.27674529E-02 0.12757775E+03</pdfrwt>
<totfact> 0.18341532E+04</totfact>
</mgrwt>
</event>
<event>
 7    1  0.5206756E-006  0.1325012E+03  0.7546771E-02  0.1236704E+00
         -2   -1    0    0    0  501 -0.00000000000E+00  0.00000000000E+00  0.56752697380E+02  0.56752697380E+02  0.00000000000E+00 0.  1.
          2   -1    0    0  501    0  0.00000000000E+00 -0.00000000000E+00 -0.24123287824E+03  0.24123287824E+03  0.00000000000E+00 0. -1.
         23    2    1    2    0    0 -0.50686169623E+01 -0.43610463988E+02 -0.10289088726E+03  0.16775907539E+03  0.12501603595E+03 0.  0.
          5    1    3    3  502    0  0.55040345543E+02 -0.19955721503E+01 -0.64849654462E+02  0.85211440719E+02  0.47000000000E+01 0. -1.
         -5    1    3    3    0  502 -0.60108962505E+02 -0.41614891837E+02 -0.38041232802E+02  0.82547634667E+02  0.47000000000E+01 0. -1.
        -11    1    1    2    0    0 -0.28289302832E+02  0.37532186225E+02 -0.83977875543E+02  0.96235301414E+02  0.00000000000E+00 0. -1.
         11    1    1    2    0    0  0.33357919794E+02  0.60782777629E+01  0.23885819459E+01  0.33991198821E+02  0.00000000000E+00 0.  1.
<mgrwt>
<rscale>  0 0.12395977E+03</rscale>
<asrwt>0</asrwt>
<pdfrwt beam="2">  1        2 0.37112750E-01 0.13250122E+03</pdfrwt>
<pdfrwt beam="1">  1       -2 0.87311843E-02 0.13250122E+03</pdfrwt>
<totfact> 0.10752805E+04</totfact>
</mgrwt>
</event>
<event>
 7    1  0.5206756E-006  0.1320951E+03  0.7546771E-02  0.1235950E+00
         -1   -1    0    0    0  501 -0.00000000000E+00  0.00000000000E+00  0.46891867466E+02  0.46891867466E+02  0.00000000000E+00 0.  1.
          1   -1    0    0  501    0  0.00000000000E+00 -0.00000000000E+00 -0.39819690072E+03  0.39819690072E+03  0.00000000000E+00 0. -1.
         23    2    1    2    0    0  0.36529940946E+02  0.22084934300E+02 -0.30269651109E+03  0.33026396782E+03  0.12500771859E+03 0.  0.
          5    1    3    3  502    0  0.52636388488E+02 -0.74440728611E+01 -0.28859849258E+03  0.29349136875E+03  0.47000000000E+01 0.  1.
         -5    1    3    3    0  502 -0.16106447542E+02  0.29529007161E+02 -0.14098018514E+02  0.36772599070E+02  0.47000000000E+01 0.  1.
        -11    1    1    2    0    0 -0.83762578362E+01 -0.50378048291E+02 -0.54259058318E+02  0.74512783162E+02  0.00000000000E+00 0. -1.
         11    1    1    2    0    0 -0.28153683110E+02  0.28293113990E+02  0.56505361572E+01  0.40312017201E+02  0.00000000000E+00 0.  1.
<mgrwt>
<rscale>  0 0.12443804E+03</rscale>
<asrwt>0</asrwt>
<pdfrwt beam="2">  1        1 0.61261062E-01 0.13209508E+03</pdfrwt>
<pdfrwt beam="1">  1       -1 0.72141334E-02 0.13209508E+03</pdfrwt>
<totfact> 0.58848188E+03</totfact>
</mgrwt>
</event>
<event>
 7    1  0.5206756E-006  0.1987461E+03  0.7546771E-02  0.1155275E+00
         -1   -1    0    0    0  501 -0.00000000000E+00  0.00000000000E+00  0.46659713286E+02  0.46659713286E+02  0.00000000000E+00 0.  1.
          1   -1    0    0  501    0  0.00000000000E+00 -0.00000000000E+00 -0.10681124432E+04  0.10681124432E+04  0.00000000000E+00 0. -1.
         23    2    1    2    0    0 -0.48449421931E+02 -0.14672063332E+03 -0.82710346480E+03  0.85064689515E+03  0.12500283200E+03 0.  0.
          5    1    3    3  502    0 -0.81001431925E+02 -0.51320552993E+02 -0.46100580043E+03  0.47089645270E+03  0.47000000000E+01 0.  1.
         -5    1    3    3    0  502  0.32552009994E+02 -0.95400080331E+02 -0.36609766437E+03  0.37975044245E+03  0.47000000000E+01 0.  1.
        -11    1    1    2    0    0 -0.19254865356E+02  0.50417572729E+02 -0.98510135124E+02  0.11232510050E+03  0.00000000000E+00 0.  1.
         11    1    1    2    0    0  0.67704287287E+02  0.96303060594E+02 -0.95839130012E+02  0.15180016086E+03  0.00000000000E+00 0. -1.
<mgrwt>
<rscale>  0 0.19357602E+03</rscale>
<asrwt>0</asrwt>
<pdfrwt beam="2">  1        1 0.16432499E+00 0.19874607E+03</pdfrwt>
<pdfrwt beam="1">  1       -1 0.71784177E-02 0.19874607E+03</pdfrwt>
<totfact> 0.14478677E+03</totfact>
</mgrwt>
</event>
<event>
 7    1  0.5206756E-006  0.1443353E+03  0.7546771E-02  0.1218227E+00
          4   -1    0    0  501    0  0.00000000000E+00  0.00000000000E+00  0.43614874888E+03  0.43614874888E+03  0.00000000000E+00 0. -1.
         -4   -1    0    0    0  501 -0.00000000000E+00 -0.00000000000E+00 -0.38611379736E+02  0.38611379736E+02  0.00000000000E+00 0.  1.
         23    2    1    2    0    0  0.65469332202E+00  0.72151449300E+02  0.21844812971E+03  0.26182486651E+03  0.12500566022E+03 0.  0.
          5    1    3    3  502    0  0.41843986806E+02  0.21290818400E+02  0.17932959402E+03  0.18543303771E+03  0.47000000000E+01 0. -1.
         -5    1    3    3    0  502 -0.41189293484E+02  0.50860630901E+02  0.39118535684E+02  0.76391828800E+02  0.47000000000E+01 0. -1.
        -11    1    1    2    0    0  0.32371500110E+02 -0.31148132361E+02  0.27999201125E+02  0.52934633583E+02  0.00000000000E+00 0.  1.
         11    1    1    2    0    0 -0.33026193432E+02 -0.41003316939E+02  0.15109003831E+03  0.16000062853E+03  0.00000000000E+00 0. -1.
<mgrwt>
<rscale>  0 0.13642124E+03</rscale>
<asrwt>0</asrwt>
<pdfrwt beam="1">  1        4 0.67099804E-01 0.14433529E+03</pdfrwt>
<pdfrwt beam="2">  1       -4 0.59402126E-02 0.14433529E+03</pdfrwt>
<totfact> 0.63280909E+02</totfact>
</mgrwt>
</event>
<event>
 7    1  0.5206756E-006  0.1686519E+03  0.7546771E-02  0.1186064E+00
          2   -1    0    0  501    0  0.00000000000E+00  0.00000000000E+00  0.87490843145E+03  0.87490843145E+03  0.00000000000E+00 0. -1.
         -2   -1    0    0    0  501 -0.00000000000E+00 -0.00000000000E+00 -0.30206244140E+02  0.30206244140E+02  0.00000000000E+00 0.  1.
         23    2    1    2    0    0  0.11115304065E+03  0.21672784599E+02  0.57187030883E+03  0.59622068748E+03  0.12497499760E+03 0.  0.
          5    1    3    3  502    0  0.11263357050E+03  0.86746171421E+00  0.25716558471E+03  0.28079049423E+03  0.47000000000E+01 0. -1.
         -5    1    3    3    0  502 -0.14805298545E+01  0.20805322885E+02  0.31470472412E+03  0.31543019325E+03  0.47000000000E+01 0. -1.
        -11    1    1    2    0    0 -0.75833809761E+02 -0.40026001127E+02  0.10089902001E+03  0.13241397097E+03  0.00000000000E+00 0.  1.
         11    1    1    2    0    0 -0.35319230885E+02  0.18353216528E+02  0.17193285847E+03  0.17648001714E+03  0.00000000000E+00 0. -1.
<mgrwt>
<rscale>  0 0.16235460E+03</rscale>
<asrwt>0</asrwt>
<pdfrwt beam="1">  1        2 0.13460128E+00 0.16865188E+03</pdfrwt>
<pdfrwt beam="2">  1       -2 0.46471152E-02 0.16865188E+03</pdfrwt>
<totfact> 0.67575827E+03</totfact>
</mgrwt>
</event>
<event>
 7    1  0.5206756E-006  0.1945123E+03  0.7546771E-02  0.1159286E+00
         -2   -1    0    0    0  501 -0.00000000000E+00  0.00000000000E+00  0.17812261566E+03  0.17812261566E+03  0.00000000000E+00 0. -1.
          2   -1    0    0  501    0  0.00000000000E+00 -0.00000000000E+00 -0.26040863321E+03  0.26040863321E+03  0.00000000000E+00 0.  1.
         23    2    1    2    0    0  0.13155798990E+03 -0.70011346256E+02 -0.15647868354E+03  0.24964095742E+03  0.12500374358E+03 0.  0.
          5    1    3    3  502    0  0.15151438001E+03 -0.39258565544E+02 -0.11633600517E+03  0.19507434075E+03  0.47000000000E+01 0. -1.
         -5    1    3    3    0  502 -0.19956390118E+02 -0.30752780712E+02 -0.40142678366E+02  0.54566616667E+02  0.47000000000E+01 0. -1.
        -11    1    1    2    0    0 -0.79225597889E+02  0.40324336996E+01  0.67939812454E+02  0.10444507647E+03  0.00000000000E+00 0. -1.
         11    1    1    2    0    0 -0.52332392008E+02  0.65978912557E+02  0.62528535361E+01  0.84445214979E+02  0.00000000000E+00 0.  1.
<mgrwt>
<rscale>  0 0.18908896E+03</rscale>
<asrwt>0</asrwt>
<pdfrwt beam="2">  1        2 0.40062866E-01 0.19451229E+03</pdfrwt>
<pdfrwt beam="1">  1       -2 0.27403480E-01 0.19451229E+03</pdfrwt>
<totfact> 0.15245815E+03</totfact>
</mgrwt>
</event>
<event>
 7    1  0.5206756E-006  0.1481289E+03  0.7546771E-02  0.1212543E+00
          3   -1    0    0  501    0  0.00000000000E+00  0.00000000000E+00  0.10854987011E+03  0.10854987011E+03  0.00000000000E+00 0.  1.
         -3   -1    0    0    0  501 -0.00000000000E+00 -0.00000000000E+00 -0.16727681070E+03  0.16727681070E+03  0.00000000000E+00 0. -1.
         23    2    1    2    0    0  0.42421049443E+02 -0.67201358511E+02 -0.19525768448E+02  0.14941022252E+03  0.12500636359E+03 0.  0.
          5    1    3    3  502    0  0.42759850091E+02 -0.68962608578E+02 -0.64743388317E+02  0.10391362996E+03  0.47000000000E+01 0.  1.
         -5    1    3    3    0  502 -0.33880064793E+00  0.17612500672E+01  0.45217619869E+02  0.45496592557E+02  0.47000000000E+01 0.  1.
        -11    1    1    2    0    0  0.23965095341E+02  0.32572206365E+02  0.28538172008E+01  0.40539100814E+02  0.00000000000E+00 0.  1.
         11    1    1    2    0    0 -0.66386144784E+02  0.34629152146E+02 -0.42054989349E+02  0.85877357474E+02  0.00000000000E+00 0. -1.
<mgrwt>
<rscale>  0 0.14058603E+03</rscale>
<asrwt>0</asrwt>
<pdfrwt beam="1">  1        3 0.16699980E-01 0.14812886E+03</pdfrwt>
<pdfrwt beam="2">  1       -3 0.25734894E-01 0.14812886E+03</pdfrwt>
<totfact> 0.10262314E+03</totfact>
</mgrwt>
</event>
<event>
 7    1  0.5206756E-006  0.1271101E+03  0.7546771E-02  0.1250306E+00
          2   -1    0    0  501    0  0.00000000000E+00  0.00000000000E+00  0.86795223419E+02  0.86795223419E+02  0.00000000000E+00 0. -1.
         -2   -1    0    0    0  501 -0.00000000000E+00 -0.00000000000E+00 -0.13248365889E+03  0.13248365889E+03  0.00000000000E+00 0.  1.
         23    2    1    2    0    0  0.19953567115E+02  0.11435686141E+02 -0.27019116465E+02  0.12995003150E+03  0.12501223250E+03 0.  0.
          5    1    3    3  502    0  0.29981526447E+02 -0.30933328855E+02  0.33833552234E+02  0.54977832069E+02  0.47000000000E+01 0. -1.
         -5    1    3    3    0  502 -0.10027959332E+02  0.42369014997E+02 -0.60852668699E+02  0.74972199434E+02  0.47000000000E+01 0. -1.
        -11    1    1    2    0    0 -0.13266000644E+02  0.51720509731E+01  0.32303990497E+02  0.35302757489E+02  0.00000000000E+00 0. -1.
         11    1    1    2    0    0 -0.66875664714E+01 -0.16607737114E+02 -0.50973309504E+02  0.54026093318E+02  0.00000000000E+00 0.  1.
<mgrwt>
<rscale>  0 0.11573333E+03</rscale>
<asrwt>0</asrwt>
<pdfrwt beam="1">  1        2 0.13353111E-01 0.12711010E+03</pdfrwt>
<pdfrwt beam="2">  1       -2 0.20382101E-01 0.12711010E+03</pdfrwt>
<totfact> 0.85471400E+03</totfact>
</mgrwt>
</event>
<event>
 7    1  0.5206756E-006  0.2067104E+03  0.7546771E-02  0.1148138E+00
          1   -1    0    0  501    0  0.00000000000E+00  0.00000000000E+00  0.12718317282E+03  0.12718317282E+03  0.00000000000E+00 0. -1.
         -1   -1    0    0    0  501 -0.00000000000E+00 -0.00000000000E+00 -0.34376484900E+03  0.34376484900E+03  0.00000000000E+00 0.  1.
         23    2    1    2    0    0 -0.13325154084E+03  0.96691803082E+02 -0.35375297678E+02  0.20971551944E+03  0.12499563788E+03 0.  0.
          5    1    3    3  502    0  0.10387650050E+02  0.37604890018E+02  0.20829557047E+02  0.44474616060E+02  0.47000000000E+01 0.  1.
         -5    1    3    3    0  502 -0.14363919089E+03  0.59086913064E+02 -0.56204854726E+02  0.16524090338E+03  0.47000000000E+01 0.  1.
        -11    1    1    2    0    0  0.34309533833E+02  0.28295757323E+01 -0.83260122507E+02  0.90096607098E+02  0.00000000000E+00 0.  1.
         11    1    1    2    0    0  0.98942007006E+02 -0.99521378815E+02 -0.97946255994E+02  0.17113589528E+03  0.00000000000E+00 0. -1.
<mgrwt>
<rscale>  0 0.20190979E+03</rscale>
<asrwt>0</asrwt>
<pdfrwt beam="1">  1        1 0.19566642E-01 0.20671040E+03</pdfrwt>
<pdfrwt beam="2">  1       -1 0.52886899E-01 0.20671040E+03</pdfrwt>
<totfact> 0.96862975E+02</totfact>
</mgrwt>
</event>
<event>
 6    1  0.5206756E-006  0.1740813E+03  0.7546771E-02  0.1202165E+00
          2   -1    0    0  501    0  0.00000000000E+00  0.00000000000E+00  0.20440446023E+04  0.20440446023E+04  0.00000000000E+00 0. -1.
         -2   -1    0    0    0  501 -0.00000000000E+00 -0.00000000000E+00 -0.31022442062E+02  0.31022442062E+02  0.00000000000E+00 0.  1.
          5    1    1    2  502    0  0.32019645024E+02 -0.92686267519E+02  0.11894932747E+04  0.11935377424E+04  0.47000000000E+01 0. -1.
         -5    1    1    2    0  502 -0.30347239430E+02  0.68770347947E+02  0.77194611087E+03  0.77561150313E+03  0.47000000000E+01 0.  1.
        -11    1    1    2    0    0  0.14519382168E+02  0.54328438931E+02  0.41901063999E+02  0.70129101659E+02  0.00000000000E+00 0.  1.
         11    1    1    2    0    0 -0.16191787762E+02 -0.30412519359E+02  0.96817106110E+01  0.35788697169E+02  0.00000000000E+00 0. -1.
<mgrwt>
<rscale>  0 0.14863096E+03</rscale>
<asrwt>0</asrwt>
<pdfrwt beam="1">  1        2 0.31446829E+00 0.17408127E+03</pdfrwt>
<pdfrwt beam="2">  1       -2 0.47726850E-02 0.17408127E+03</pdfrwt>
<totfact> 0.14951034E+03</totfact>
</mgrwt>
</event>
<event>
 6    1  0.5206756E-006  0.3323552E+03  0.7546771E-02  0.1113728E+00
         -2   -1    0    0    0  501 -0.00000000000E+00  0.00000000000E+00  0.15716619977E+03  0.15716619977E+03  0.00000000000E+00 0.  1.
          2   -1    0    0  501    0  0.00000000000E+00 -0.00000000000E+00 -0.79905130252E+03  0.79905130252E+03  0.00000000000E+00 0. -1.
          5    1    1    2  502    0  0.70660386606E+02 -0.58475834346E+01 -0.65227468298E+03  0.65613370324E+03  0.47000000000E+01 0. -1.
         -5    1    1    2    0  502 -0.11196386647E+03  0.62201229129E+02 -0.88418057804E+02  0.15570723569E+03  0.47000000000E+01 0.  1.
        -11    1    1    2    0    0 -0.17010752154E+02 -0.41643092433E+02  0.46045878578E+02  0.64371855420E+02  0.00000000000E+00 0. -1.
         11    1    1    2    0    0  0.58314232016E+02 -0.14710553261E+02  0.52761759449E+02  0.80004707943E+02  0.00000000000E+00 0.  1.
<mgrwt>
<rscale>  0 0.24933163E+03</rscale>
<asrwt>0</asrwt>
<pdfrwt beam="2">  1        2 0.12293097E+00 0.33235519E+03</pdfrwt>
<pdfrwt beam="1">  1       -2 0.24179416E-01 0.33235519E+03</pdfrwt>
<totfact> 0.53673030E+02</totfact>
</mgrwt>
</event>
<event>
 7    1  0.5206756E-006  0.1805499E+03  0.7546771E-02  0.1172679E+00
         -2   -1    0    0    0  501 -0.00000000000E+00  0.00000000000E+00  0.18278781916E+02  0.18278781916E+02  0.00000000000E+00 0.  1.
          2   -1    0    0  501    0  0.00000000000E+00 -0.00000000000E+00 -0.17737025377E+04  0.17737025377E+04  0.00000000000E+00 0. -1.
         23    2    1    2    0    0 -0.11685045669E+02  0.12975979409E+03 -0.12201733113E+04  0.12334590261E+04  0.12499645977E+03 0.  0.
          5    1    3    3  502    0 -0.16555090859E+02  0.53150987669E+02 -0.14272984134E+03  0.15327425137E+03  0.47000000000E+01 0. -1.
         -5    1    3    3    0  502  0.48700451904E+01  0.76608806419E+02 -0.10774434700E+04  0.10801847747E+04  0.47000000000E+01 0. -1.
        -11    1    1    2    0    0 -0.30053114329E+02 -0.10873075521E+02 -0.79738549850E+02  0.85904888012E+02  0.00000000000E+00 0.  1.
         11    1    1    2    0    0  0.41738159998E+02 -0.11888671857E+03 -0.45551189463E+03  0.47261740552E+03  0.00000000000E+00 0. -1.
<mgrwt>
<rscale>  0 0.17505223E+03</rscale>
<asrwt>0</asrwt>
<pdfrwt beam="2">  1        2 0.27287748E+00 0.18054988E+03</pdfrwt>
<pdfrwt beam="1">  1       -2 0.28121186E-02 0.18054988E+03</pdfrwt>
<totfact> 0.45383376E+03</totfact>
</mgrwt>
</event>
<event>
 7    1  0.5206756E-006  0.1212307E+03  0.7546771E-02  0.1248641E+00
          2   -1    0    0  501    0  0.00000000000E+00  0.00000000000E+00  0.12614033339E+04  0.12614033339E+04  0.00000000000E+00 0. -1.
         -2   -1    0    0    0  501 -0.00000000000E+00 -0.00000000000E+00 -0.22201028129E+02  0.22201028129E+02  0.00000000000E+00 0.  1.
         23    2    1    2    0    0  0.60034988826E+01 -0.41389654543E+02  0.11148824063E+04  0.11214542623E+04  0.11378812374E+03 0.  0.
          5    1    3    3  502    0  0.22836007409E+02 -0.21535775629E+02  0.10605588518E+04  0.10610336663E+04  0.47000000000E+01 0. -1.
         -5    1    3    3    0  502 -0.16832508527E+02 -0.19853878914E+02  0.54323554456E+02  0.60420595991E+02  0.47000000000E+01 0.  1.
        -11    1    1    2    0    0 -0.11931397136E+02  0.71767794978E+02  0.93511301283E+02  0.11847927288E+03  0.00000000000E+00 0.  1.
         11    1    1    2    0    0  0.59278982538E+01 -0.30378140435E+02  0.30808598198E+02  0.43670826840E+02  0.00000000000E+00 0. -1.
<mgrwt>
<rscale>  0 0.11670089E+03</rscale>
<asrwt>0</asrwt>
<pdfrwt beam="1">  1        2 0.19406200E+00 0.12123070E+03</pdfrwt>
<pdfrwt beam="2">  1       -2 0.34155438E-02 0.12123070E+03</pdfrwt>
<totfact> 0.62617721E+03</totfact>
</mgrwt>
</event>
<event>
 7    1  0.5206756E-006  0.1458025E+03  0.7546771E-02  0.1215296E+00
          2   -1    0    0  501    0  0.00000000000E+00  0.00000000000E+00  0.15110433848E+04  0.15110433848E+04  0.00000000000E+00 0. -1.
         -2   -1    0    0    0  501 -0.00000000000E+00 -0.00000000000E+00 -0.18952031843E+02  0.18952031843E+02  0.00000000000E+00 0.  1.
         23    2    1    2    0    0  0.72029389483E+02 -0.21157867232E+02  0.12677132089E+04  0.12760701936E+04  0.12498988261E+03 0.  0.
          5    1    3    3  502    0  0.37669861846E+02 -0.68885677016E+02  0.50609320521E+03  0.51216860246E+03  0.47000000000E+01 0.  1.
         -5    1    3    3    0  502  0.34359527637E+02  0.47727809784E+02  0.76162000367E+03  0.76390159115E+03  0.47000000000E+01 0.  1.
        -11    1    1    2    0    0 -0.38956043739E+02 -0.29562328114E+01  0.17103507692E+02  0.42647891291E+02  0.00000000000E+00 0.  1.
         11    1    1    2    0    0 -0.33073345744E+02  0.24114100043E+02  0.20727463636E+03  0.21127733172E+03  0.00000000000E+00 0. -1.
<mgrwt>
<rscale>  0 0.13854820E+03</rscale>
<asrwt>0</asrwt>
<pdfrwt beam="1">  1        2 0.23246812E+00 0.14580247E+03</pdfrwt>
<pdfrwt beam="2">  1       -2 0.29156984E-02 0.14580247E+03</pdfrwt>
<totfact> 0.58634309E+03</totfact>
</mgrwt>
</event>
<event>
 7    1  0.5206756E-006  0.2125526E+03  0.7546771E-02  0.1143218E+00
         -2   -1    0    0    0  501 -0.00000000000E+00  0.00000000000E+00  0.36562126353E+03  0.36562126353E+03  0.00000000000E+00 0.  1.
          2   -1    0    0  501    0  0.00000000000E+00 -0.00000000000E+00 -0.11883469915E+03  0.11883469915E+03  0.00000000000E+00 0. -1.
         23    2    1    2    0    0  0.13647625670E+03  0.10452005212E+03  0.76704920545E+02  0.22596954226E+03  0.12501351630E+03 0.  0.
          5    1    3    3  502    0 -0.51701328604E+01  0.27846679386E+02  0.56755724010E+02  0.63604009578E+02  0.47000000000E+01 0.  1.
         -5    1    3    3    0  502  0.14164638956E+03  0.76673372732E+02  0.19949196536E+02  0.16236553268E+03  0.47000000000E+01 0.  1.
        -11    1    1    2    0    0 -0.77275090915E+02 -0.71660868444E+01  0.91987098517E+02  0.12035123086E+03  0.00000000000E+00 0. -1.
         11    1    1    2    0    0 -0.59201165785E+02 -0.97353965274E+02  0.78094545315E+02  0.13813518955E+03  0.00000000000E+00 0.  1.
<mgrwt>
<rscale>  0 0.20792738E+03</rscale>
<asrwt>0</asrwt>
<pdfrwt beam="2">  1        2 0.18282262E-01 0.21255256E+03</pdfrwt>
<pdfrwt beam="1">  1       -2 0.56249425E-01 0.21255256E+03</pdfrwt>
<totfact> 0.92723597E+02</totfact>
</mgrwt>
</event>
<event>
 7    1  0.5206756E-006  0.1611640E+03  0.7546771E-02  0.1194459E+00
         -1   -1    0    0    0  501 -0.00000000000E+00  0.00000000000E+00  0.84411104754E+03  0.84411104754E+03  0.00000000000E+00 0.  1.
          1   -1    0    0  501    0  0.00000000000E+00 -0.00000000000E+00 -0.26794300340E+02  0.26794300340E+02  0.00000000000E+00 0. -1.
         23    2    1    2    0    0 -0.65280817108E+02  0.78017329353E+02  0.39364995728E+03  0.42536350406E+03  0.12500213182E+03 0.  0.
          5    1    3    3  502    0 -0.47001736056E+02  0.11206125183E+03  0.28130563068E+03  0.30646669511E+03  0.47000000000E+01 0.  1.
         -5    1    3    3    0  502 -0.18279081052E+02 -0.34043922476E+02  0.11234432660E+03  0.11889680896E+03  0.47000000000E+01 0.  1.
        -11    1    1    2    0    0 -0.97286091294E+01  0.14267094354E+02  0.81148265515E+02  0.82965274742E+02  0.00000000000E+00 0.  1.
         11    1    1    2    0    0  0.75009426238E+02 -0.92284423707E+02  0.34251852441E+03  0.36257656908E+03  0.00000000000E+00 0. -1.
<mgrwt>
<rscale>  0 0.15500121E+03</rscale>
<asrwt>0</asrwt>
<pdfrwt beam="2">  1        1 0.41222007E-02 0.16116396E+03</pdfrwt>
<pdfrwt beam="1">  1       -1 0.12986322E+00 0.16116396E+03</pdfrwt>
<totfact> 0.11725495E+03</totfact>
</mgrwt>
</event>
<event>
 7    1  0.5206756E-006  0.1611755E+03  0.7546771E-02  0.1194940E+00
         -1   -1    0    0    0  501 -0.00000000000E+00  0.00000000000E+00  0.34962332155E+02  0.34962332155E+02  0.00000000000E+00 0.  1.
          1   -1    0    0  501    0  0.00000000000E+00 -0.00000000000E+00 -0.66636905490E+03  0.66636905490E+03  0.00000000000E+00 0. -1.
         23    2    1    2    0    0  0.79168118862E+02 -0.63915093429E+02 -0.41858542956E+03  0.44854352787E+03  0.12499921738E+03 0.  0.
          5    1    3    3  502    0 -0.45042620493E+01  0.32615102789E+02 -0.80678898795E+02  0.87265159241E+02  0.47000000000E+01 0.  1.
         -5    1    3    3    0  502  0.83672380911E+02 -0.96530196218E+02 -0.33790653076E+03  0.36127836863E+03  0.47000000000E+01 0.  1.
        -11    1    1    2    0    0 -0.22782909681E+02  0.40686551635E+02 -0.20334323565E+02  0.50871811176E+02  0.00000000000E+00 0.  1.
         11    1    1    2    0    0 -0.56385209181E+02  0.23228541794E+02 -0.19248696963E+03  0.20191604801E+03  0.00000000000E+00 0. -1.
<mgrwt>
<rscale>  0 0.15459271E+03</rscale>
<asrwt>0</asrwt>
<pdfrwt beam="2">  1        1 0.10251831E+00 0.16117548E+03</pdfrwt>
<pdfrwt beam="1">  1       -1 0.53788204E-02 0.16117548E+03</pdfrwt>
<totfact> 0.46668389E+03</totfact>
</mgrwt>
</event>
<event>
 7    1  0.5206756E-006  0.1272464E+03  0.7546771E-02  0.1246026E+00
          1   -1    0    0  501    0  0.00000000000E+00  0.00000000000E+00  0.83757782246E+02  0.83757782246E+02  0.00000000000E+00 0. -1.
         -1   -1    0    0    0  501 -0.00000000000E+00 -0.00000000000E+00 -0.14769978208E+03  0.14769978208E+03  0.00000000000E+00 0.  1.
         23    2    1    2    0    0  0.21285940591E+02  0.10582520977E+02 -0.42849524027E+02  0.13426737351E+03  0.12500625930E+03 0.  0.
          5    1    3    3  502    0  0.27485241429E+02  0.36417071972E+02 -0.77679385696E+02  0.90209858605E+02  0.47000000000E+01 0. -1.
         -5    1    3    3    0  502 -0.61993008379E+01 -0.25834550996E+02  0.34829861669E+02  0.44057514908E+02  0.47000000000E+01 0. -1.
        -11    1    1    2    0    0 -0.54149616772E+02  0.40314627033E+01 -0.27163624570E+02  0.60714876166E+02  0.00000000000E+00 0.  1.
         11    1    1    2    0    0  0.32863676181E+02 -0.14613983680E+02  0.60711487650E+01  0.36475314645E+02  0.00000000000E+00 0. -1.
<mgrwt>
<rscale>  0 0.11824171E+03</rscale>
<asrwt>0</asrwt>
<pdfrwt beam="1">  1        1 0.12885813E-01 0.12724640E+03</pdfrwt>
<pdfrwt beam="2">  1       -1 0.22723043E-01 0.12724640E+03</pdfrwt>
<totfact> 0.70191186E+03</totfact>
</mgrwt>
</event>
<event>
 7    1  0.5206756E-006  0.1243931E+03  0.7546771E-02  0.1244068E+00
         -1   -1    0    0    0  501 -0.00000000000E+00  0.00000000000E+00  0.27219354065E+02  0.27219354065E+02  0.00000000000E+00 0.  1.
          1   -1    0    0  501    0  0.00000000000E+00 -0.00000000000E+00 -0.65628017604E+03  0.65628017604E+03  0.00000000000E+00 0. -1.
         23    2    1    2    0    0 -0.52234605533E+02  0.68390831530E+01 -0.50717185146E+03  0.52220391153E+03  0.11268722743E+03 0.  0.
          5    1    3    3  502    0 -0.16903865786E+02 -0.10346833318E+02 -0.46077687859E+03  0.46122686335E+03  0.47000000000E+01 0. -1.
         -5    1    3    3    0  502 -0.35330739747E+02  0.17185916471E+02 -0.46394972873E+02  0.60977048173E+02  0.47000000000E+01 0.  1.
        -11    1    1    2    0    0  0.36347220580E+02 -0.33446112852E+02 -0.17497574615E+02  0.52401603279E+02  0.00000000000E+00 0. -1.
         11    1    1    2    0    0  0.15887384952E+02  0.26607029699E+02 -0.10439139590E+03  0.10889401530E+03  0.00000000000E+00 0.  1.
<mgrwt>
<rscale>  0 0.11941312E+03</rscale>
<asrwt>0</asrwt>
<pdfrwt beam="2">  1        1 0.10096618E+00 0.12439308E+03</pdfrwt>
<pdfrwt beam="1">  1       -1 0.41875931E-02 0.12439308E+03</pdfrwt>
<totfact> 0.68140595E+03</totfact>
</mgrwt>
</event>
<event>
 7    1  0.5206756E-006  0.1304985E+03  0.7546771E-02  0.1241184E+00
         -2   -1    0    0    0  501 -0.00000000000E+00  0.00000000000E+00  0.19926147485E+03  0.19926147485E+03  0.00000000000E+00 0. -1.
          2   -1    0    0  501    0  0.00000000000E+00 -0.00000000000E+00 -0.73751267839E+02  0.73751267839E+02  0.00000000000E+00 0.  1.
         23    2    1    2    0    0 -0.20456694369E+02 -0.31393203859E+02  0.24132060623E+02  0.13271103389E+03  0.12500341024E+03 0.  0.
          5    1    3    3  502    0  0.49397944542E+02  0.12488265356E+01  0.24740040989E+02  0.55460581685E+02  0.47000000000E+01 0.  1.
         -5    1    3    3    0  502 -0.69854638910E+02 -0.32642030395E+02 -0.60798036623E+00  0.77250452204E+02  0.47000000000E+01 0.  1.
        -11    1    1    2    0    0 -0.70787109546E+01  0.57315238406E+02  0.72666334754E+02  0.92819938100E+02  0.00000000000E+00 0. -1.
         11    1    1    2    0    0  0.27535405323E+02 -0.25922034547E+02  0.28711811631E+02  0.47481770696E+02  0.00000000000E+00 0.  1.
<mgrwt>
<rscale>  0 0.12116740E+03</rscale>
<asrwt>0</asrwt>
<pdfrwt beam="2">  1        2 0.11346349E-01 0.13049851E+03</pdfrwt>
<pdfrwt beam="1">  1       -2 0.30655611E-01 0.13049851E+03</pdfrwt>
<totfact> 0.51037787E+03</totfact>
</mgrwt>
</event>
<event>
 7    1  0.5206756E-006  0.1617914E+03  0.7546771E-02  0.1193524E+00
         -1   -1    0    0    0  501 -0.00000000000E+00  0.00000000000E+00  0.45663023050E+02  0.45663023050E+02  0.00000000000E+00 0.  1.
          1   -1    0    0  501    0  0.00000000000E+00 -0.00000000000E+00 -0.57690574597E+03  0.57690574597E+03  0.00000000000E+00 0. -1.
         23    2    1    2    0    0 -0.88871488704E+02 -0.51476234101E+02 -0.39930129772E+03  0.43083404831E+03  0.12501402579E+03 0.  0.
          5    1    3    3  502    0 -0.11144620662E+03 -0.27778175291E+02 -0.36711033548E+03  0.38468684980E+03  0.47000000000E+01 0.  1.
         -5    1    3    3    0  502  0.22574717920E+02 -0.23698058810E+02 -0.32190962239E+02  0.46147198511E+02  0.47000000000E+01 0.  1.
        -11    1    1    2    0    0  0.27231841374E+02 -0.25744403688E+02 -0.20189569667E+02  0.42567196633E+02  0.00000000000E+00 0. -1.
         11    1    1    2    0    0  0.61639647330E+02  0.77220637789E+02 -0.11175185554E+03  0.14916752408E+03  0.00000000000E+00 0.  1.
<mgrwt>
<rscale>  0 0.15579802E+03</rscale>
<asrwt>0</asrwt>
<pdfrwt beam="2">  1        1 0.88754724E-01 0.16179138E+03</pdfrwt>
<pdfrwt beam="1">  1       -1 0.70250809E-02 0.16179138E+03</pdfrwt>
<totfact> 0.38197535E+03</totfact>
</mgrwt>
</event>
<event>
 7    1  0.5206756E-006  0.1442194E+03  0.7546771E-02  0.1216871E+00
         -1   -1    0    0    0  501 -0.00000000000E+00  0.00000000000E+00  0.80414080075E+02  0.80414080075E+02  0.00000000000E+00 0.  1.
          1   -1    0    0  501    0  0.00000000000E+00 -0.00000000000E+00 -0.21772681886E+03  0.21772681886E+03  0.00000000000E+00 0. -1.
         23    2    1    2    0    0 -0.60687483561E+02 -0.38638465592E+02 -0.91505716359E+02  0.17079968841E+03  0.12499334282E+03 0.  0.
          5    1    3    3  502    0 -0.92984846741E+02 -0.22342423320E+00 -0.51158730492E+02  0.10623340975E+03  0.47000000000E+01 0. -1.
         -5    1    3    3    0  502  0.32297363180E+02 -0.38415041359E+02 -0.40346985868E+02  0.64566278657E+02  0.47000000000E+01 0. -1.
        -11    1    1    2    0    0 -0.10597875715E+01 -0.23416789781E+02 -0.30506517980E+02  0.38472286553E+02  0.00000000000E+00 0. -1.
         11    1    1    2    0    0  0.61747271133E+02  0.62055255373E+02 -0.15300504444E+02  0.88868923972E+02  0.00000000000E+00 0.  1.
<mgrwt>
<rscale>  0 0.13740024E+03</rscale>
<asrwt>0</asrwt>
<pdfrwt beam="2">  1        1 0.33496433E-01 0.14421941E+03</pdfrwt>
<pdfrwt beam="1">  1       -1 0.12371397E-01 0.14421941E+03</pdfrwt>
<totfact> 0.55084852E+03</totfact>
</mgrwt>
</event>
<event>
 7    1  0.5206756E-006  0.1343725E+03  0.7546771E-02  0.1222743E+00
         -2   -1    0    0    0  501 -0.00000000000E+00  0.00000000000E+00  0.17380992371E+03  0.17380992371E+03  0.00000000000E+00 0. -1.
          2   -1    0    0  501    0  0.00000000000E+00 -0.00000000000E+00 -0.10992823715E+03  0.10992823715E+03  0.00000000000E+00 0.  1.
         23    2    1    2    0    0 -0.52125791689E+01 -0.49033419124E+02 -0.92832238538E+01  0.13469281091E+03  0.12499811156E+03 0.  0.
          5    1    3    3  502    0 -0.34246564925E+02 -0.12106252725E+02  0.48054454225E+02  0.60421098427E+02  0.47000000000E+01 0.  1.
         -5    1    3    3    0  502  0.29033985757E+02 -0.36927166399E+02 -0.57337678079E+02  0.74271712480E+02  0.47000000000E+01 0.  1.
        -11    1    1    2    0    0 -0.18392218687E+01  0.24984569678E+02  0.10533070594E+03  0.10826896635E+03  0.00000000000E+00 0. -1.
         11    1    1    2    0    0  0.70518010376E+01  0.24048849445E+02 -0.32165795531E+02  0.40776383602E+02  0.00000000000E+00 0.  1.
<mgrwt>
<rscale>  0 0.13322772E+03</rscale>
<asrwt>0</asrwt>
<pdfrwt beam="2">  1        2 0.16912037E-01 0.13437252E+03</pdfrwt>
<pdfrwt beam="1">  1       -2 0.26739988E-01 0.13437252E+03</pdfrwt>
<totfact> 0.40725354E+03</totfact>
</mgrwt>
</event>
<event>
 7    1  0.5206756E-006  0.1934757E+03  0.7546771E-02  0.1160033E+00
         -2   -1    0    0    0  501 -0.00000000000E+00  0.00000000000E+00  0.87163681380E+03  0.87163681380E+03  0.00000000000E+00 0.  1.
          2   -1    0    0  501    0  0.00000000000E+00 -0.00000000000E+00 -0.38976349212E+02  0.38976349212E+02  0.00000000000E+00 0. -1.
         23    2    1    2    0    0  0.29200403577E+02 -0.14476229108E+03  0.48231749383E+03  0.51967587863E+03  0.12499627789E+03 0.  0.
          5    1    3    3  502    0  0.30669715607E+02 -0.10774165980E+03  0.16099121968E+03  0.19618654268E+03  0.47000000000E+01 0.  1.
         -5    1    3    3    0  502 -0.14693120304E+01 -0.37020631279E+02  0.32132627415E+03  0.32348933596E+03  0.47000000000E+01 0.  1.
        -11    1    1    2    0    0 -0.19417986122E+02  0.41353312446E+02  0.21781451645E+03  0.22255407930E+03  0.00000000000E+00 0.  1.
         11    1    1    2    0    0 -0.97824174542E+01  0.10340897863E+03  0.13252845430E+03  0.16838320508E+03  0.00000000000E+00 0. -1.
<mgrwt>
<rscale>  0 0.18826770E+03</rscale>
<asrwt>0</asrwt>
<pdfrwt beam="2">  1        2 0.59963621E-02 0.19347572E+03</pdfrwt>
<pdfrwt beam="1">  1       -2 0.13409796E+00 0.19347572E+03</pdfrwt>
<totfact> 0.51724539E+02</totfact>
</mgrwt>
</event>
<event>
 7    1  0.5206756E-006  0.1324898E+03  0.7546771E-02  0.1236887E+00
          2   -1    0    0  501    0  0.00000000000E+00  0.00000000000E+00  0.17758195791E+04  0.17758195791E+04  0.00000000000E+00 0. -1.
         -2   -1    0    0    0  501 -0.00000000000E+00 -0.00000000000E+00 -0.97687555337E+01  0.97687555337E+01  0.00000000000E+00 0.  1.
         23    2    1    2    0    0 -0.43760235519E+02  0.35607264431E+01  0.13856517381E+04  0.13919713696E+04  0.12500366952E+03 0.  0.
          5    1    3    3  502    0  0.35888423797E+02  0.13790903706E+02  0.20800668048E+03  0.21158222306E+03  0.47000000000E+01 0. -1.
         -5    1    3    3    0  502 -0.79648659316E+02 -0.10230177263E+02  0.11776450576E+04  0.11803891465E+04  0.47000000000E+01 0. -1.
        -11    1    1    2    0    0  0.66578253362E+01 -0.40988042902E+02  0.24173612912E+03  0.24527678737E+03  0.00000000000E+00 0. -1.
         11    1    1    2    0    0  0.37102410183E+02  0.37427316459E+02  0.13866295633E+03  0.14834017769E+03  0.00000000000E+00 0.  1.
<mgrwt>
<rscale>  0 0.12384426E+03</rscale>
<asrwt>0</asrwt>
<pdfrwt beam="1">  1        2 0.27320276E+00 0.13248983E+03</pdfrwt>
<pdfrwt beam="2">  1       -2 0.15028869E-02 0.13248983E+03</pdfrwt>
<totfact> 0.11198474E+04</totfact>
</mgrwt>
</event>
<event>
 7    1  0.5206756E-006  0.1555256E+03  0.7546771E-02  0.1200312E+00
         -1   -1    0    0    0  501 -0.00000000000E+00  0.00000000000E+00  0.14282297237E+03  0.14282297237E+03  0.00000000000E+00 0.  1.
          1   -1    0    0  501    0  0.00000000000E+00 -0.00000000000E+00 -0.36997419795E+03  0.36997419795E+03  0.00000000000E+00 0. -1.
         23    2    1    2    0    0 -0.29807870162E+01  0.92486622814E+02 -0.31527113610E+03  0.35154529523E+03  0.12500217936E+03 0.  0.
          5    1    3    3  502    0  0.15119224148E+02  0.95191049479E+02 -0.31812264947E+03  0.33243651567E+03  0.47000000000E+01 0.  1.
         -5    1    3    3    0  502 -0.18100011164E+02 -0.27044266648E+01  0.28515133714E+01  0.19108779559E+02  0.47000000000E+01 0.  1.
        -11    1    1    2    0    0 -0.41786417459E+02 -0.45931853641E+02  0.15371087984E+02  0.63969603788E+02  0.00000000000E+00 0.  1.
         11    1    1    2    0    0  0.44767204475E+02 -0.46554769173E+02  0.72748822536E+02  0.97282271302E+02  0.00000000000E+00 0. -1.
<mgrwt>
<rscale>  0 0.15013111E+03</rscale>
<asrwt>0</asrwt>
<pdfrwt beam="2">  1        1 0.56919109E-01 0.15552558E+03</pdfrwt>
<pdfrwt beam="1">  1       -1 0.21972764E-01 0.15552558E+03</pdfrwt>
<totfact> 0.11501975E+03</totfact>
</mgrwt>
</event>
<event>
 6    1  0.5206756E-006  0.1386270E+03  0.7546771E-02  0.1229649E+00
          2   -1    0    0  501    0  0.00000000000E+00  0.00000000000E+00  0.18997849179E+03  0.18997849179E+03  0.00000000000E+00 0. -1.
         -2   -1    0    0    0  501 -0.00000000000E+00 -0.00000000000E+00 -0.10377957885E+03  0.10377957885E+03  0.00000000000E+00 0.  1.
          5    1    1    2  502    0  0.52852653807E+02 -0.22356114799E+02  0.36576301892E+02  0.68213743068E+02  0.47000000000E+01 0. -1.
         -5    1    1    2    0  502 -0.77546052473E+02 -0.14786605421E+02  0.85993087681E+02  0.11682865694E+03  0.47000000000E+01 0.  1.
        -11    1    1    2    0    0  0.18562105782E+02 -0.29173233549E+02 -0.20692084546E+02  0.40296298709E+02  0.00000000000E+00 0.  1.
         11    1    1    2    0    0  0.61312928842E+01  0.66315953768E+02 -0.15678392087E+02  0.68419371928E+02  0.00000000000E+00 0. -1.
<mgrwt>
<rscale>  0 0.12853317E+03</rscale>
<asrwt>0</asrwt>
<pdfrwt beam="1">  1        2 0.29227460E-01 0.13862696E+03</pdfrwt>
<pdfrwt beam="2">  1       -2 0.15966089E-01 0.13862696E+03</pdfrwt>
<totfact> 0.53218490E+03</totfact>
</mgrwt>
</event>
<event>
 7    1  0.5206756E-006  0.1264918E+03  0.7546771E-02  0.1249499E+00
         -3   -1    0    0    0  501 -0.00000000000E+00  0.00000000000E+00  0.62028539040E+02  0.62028539040E+02  0.00000000000E+00 0.  1.
          3   -1    0    0  501    0  0.00000000000E+00 -0.00000000000E+00 -0.26721833599E+03  0.26721833599E+03  0.00000000000E+00 0. -1.
         23    2    1    2    0    0 -0.14711562557E+02  0.12676068432E+02 -0.20294040286E+03  0.23913379775E+03  0.12499221307E+03 0.  0.
          5    1    3    3  502    0  0.27549887528E+02  0.48543876429E+02 -0.15795044173E+03  0.16758859235E+03  0.47000000000E+01 0. -1.
         -5    1    3    3    0  502 -0.42261450085E+02 -0.35867807997E+02 -0.44989961133E+02  0.71545205406E+02  0.47000000000E+01 0. -1.
        -11    1    1    2    0    0  0.27684085208E+02  0.14737000955E+02  0.31698585717E+02  0.44591345656E+02  0.00000000000E+00 0.  1.
         11    1    1    2    0    0 -0.12972522651E+02 -0.27413069386E+02 -0.33947979798E+02  0.45521731618E+02  0.00000000000E+00 0. -1.
<mgrwt>
<rscale>  0 0.11620098E+03</rscale>
<asrwt>0</asrwt>
<pdfrwt beam="2">  1        3 0.41110513E-01 0.12649176E+03</pdfrwt>
<pdfrwt beam="1">  1       -3 0.95428523E-02 0.12649176E+03</pdfrwt>
<totfact> 0.10701874E+03</totfact>
</mgrwt>
</event>
<event>
 7    1  0.5206756E-006  0.1862828E+03  0.7546771E-02  0.1167045E+00
          2   -1    0    0  501    0  0.00000000000E+00  0.00000000000E+00  0.47805637841E+03  0.47805637841E+03  0.00000000000E+00 0. -1.
         -2   -1    0    0    0  501 -0.00000000000E+00 -0.00000000000E+00 -0.64687261527E+02  0.64687261527E+02  0.00000000000E+00 0.  1.
         23    2    1    2    0    0 -0.54789448956E+02 -0.12678003219E+03  0.22756971694E+03  0.29409057697E+03  0.12500492436E+03 0.  0.
          5    1    3    3  502    0 -0.76041610561E+02 -0.22667192606E+02  0.10730952559E+03  0.13354232452E+03  0.47000000000E+01 0.  1.
         -5    1    3    3    0  502  0.21252161605E+02 -0.10411283958E+03  0.12026019136E+03  0.16054825245E+03  0.47000000000E+01 0.  1.
        -11    1    1    2    0    0  0.55283105518E+02  0.61910603228E+02  0.15718049285E+03  0.17774940754E+03  0.00000000000E+00 0.  1.
         11    1    1    2    0    0 -0.49365656175E+00  0.64869428957E+02  0.28618907088E+02  0.70903655427E+02  0.00000000000E+00 0. -1.
<mgrwt>
<rscale>  0 0.18078555E+03</rscale>
<asrwt>0</asrwt>
<pdfrwt beam="1">  1        2 0.73547133E-01 0.18628283E+03</pdfrwt>
<pdfrwt beam="2">  1       -2 0.99518867E-02 0.18628283E+03</pdfrwt>
<totfact> 0.42943230E+03</totfact>
</mgrwt>
</event>
<event>
 7    1  0.5206756E-006  0.1339649E+03  0.7546771E-02  0.1235212E+00
          2   -1    0    0  501    0  0.00000000000E+00  0.00000000000E+00  0.28850657939E+03  0.28850657939E+03  0.00000000000E+00 0. -1.
         -2   -1    0    0    0  501 -0.00000000000E+00 -0.00000000000E+00 -0.52228962251E+02  0.52228962251E+02  0.00000000000E+00 0.  1.
         23    2    1    2    0    0 -0.48060419353E+02  0.33382972003E+01  0.18159732889E+03  0.22566388016E+03  0.12500259524E+03 0.  0.
          5    1    3    3  502    0 -0.18825935854E+02  0.19941025551E+02 -0.11131902080E+02  0.29967809475E+02  0.47000000000E+01 0. -1.
         -5    1    3    3    0  502 -0.29234483498E+02 -0.16602728350E+02  0.19272923097E+03  0.19569607069E+03  0.47000000000E+01 0. -1.
        -11    1    1    2    0    0  0.23144359467E+02 -0.84594377321E+01 -0.22769886856E+02  0.33551322021E+02  0.00000000000E+00 0.  1.
         11    1    1    2    0    0  0.24916059885E+02  0.51211405318E+01  0.77450175108E+02  0.81520339454E+02  0.00000000000E+00 0. -1.
<mgrwt>
<rscale>  0 0.12490850E+03</rscale>
<asrwt>0</asrwt>
<pdfrwt beam="1">  1        2 0.44385627E-01 0.13396491E+03</pdfrwt>
<pdfrwt beam="2">  1       -2 0.80352251E-02 0.13396491E+03</pdfrwt>
<totfact> 0.10120636E+04</totfact>
</mgrwt>
</event>
<event>
 7    1  0.5206756E-006  0.1163659E+03  0.7546771E-02  0.1281632E+00
         -1   -1    0    0    0  501 -0.00000000000E+00  0.00000000000E+00  0.94438068874E+01  0.94438068874E+01  0.00000000000E+00 0.  1.
          1   -1    0    0  501    0  0.00000000000E+00 -0.00000000000E+00 -0.84120400005E+03  0.84120400005E+03  0.00000000000E+00 0. -1.
         23    2    1    2    0    0 -0.75698146510E+01  0.50639028804E+01 -0.54940271174E+03  0.56159091904E+03  0.11600894563E+03 0.  0.
          5    1    3    3  502    0  0.15997048121E+02  0.30344521795E+02 -0.49954627196E+03  0.50074470879E+03  0.47000000000E+01 0. -1.
         -5    1    3    3    0  502 -0.23566862772E+02 -0.25280618915E+02 -0.49856439787E+02  0.60846210251E+02  0.47000000000E+01 0.  1.
        -11    1    1    2    0    0  0.17504408846E+02  0.24821365366E+02 -0.14062154750E+03  0.14386425591E+03  0.00000000000E+00 0. -1.
         11    1    1    2    0    0 -0.99345941953E+01 -0.29885268246E+02 -0.14173593392E+03  0.14519263199E+03  0.00000000000E+00 0.  1.
<mgrwt>
<rscale>  0 0.99367122E+02</rscale>
<asrwt>0</asrwt>
<pdfrwt beam="2">  1        1 0.12941598E+00 0.11636589E+03</pdfrwt>
<pdfrwt beam="1">  1       -1 0.14528935E-02 0.11636589E+03</pdfrwt>
<totfact> 0.21815119E+04</totfact>
</mgrwt>
</event>
<event>
 7    1  0.5206756E-006  0.1308598E+03  0.7546771E-02  0.1243006E+00
         -2   -1    0    0    0  501 -0.00000000000E+00  0.00000000000E+00  0.18000712980E+02  0.18000712980E+02  0.00000000000E+00 0. -1.
          2   -1    0    0  501    0  0.00000000000E+00 -0.00000000000E+00 -0.76862204867E+03  0.76862204867E+03  0.00000000000E+00 0.  1.
         23    2    1    2    0    0 -0.10724025896E+02  0.37201670847E+02 -0.55395885590E+03  0.56920532906E+03  0.12500129423E+03 0.  0.
          5    1    3    3  502    0 -0.36258578063E+02 -0.36510859441E+02 -0.18633591592E+03  0.19336724361E+03  0.47000000000E+01 0. -1.
         -5    1    3    3    0  502  0.25534552167E+02  0.73712530288E+02 -0.36762293998E+03  0.37583808545E+03  0.47000000000E+01 0. -1.
        -11    1    1    2    0    0 -0.70499733914E+01  0.19534362847E+02 -0.11233108798E+03  0.11423470043E+03  0.00000000000E+00 0.  1.
         11    1    1    2    0    0  0.17773999287E+02 -0.56736033694E+02 -0.84331391810E+02  0.10318273215E+03  0.00000000000E+00 0. -1.
<mgrwt>
<rscale>  0 0.12005506E+03</rscale>
<asrwt>0</asrwt>
<pdfrwt beam="2">  1        2 0.11824952E+00 0.13085982E+03</pdfrwt>
<pdfrwt beam="1">  1       -2 0.27693410E-02 0.13085982E+03</pdfrwt>
<totfact> 0.16890549E+04</totfact>
</mgrwt>
</event>
<event>
 7    1  0.5206756E-006  0.1419615E+03  0.7546771E-02  0.1220507E+00
          1   -1    0    0  501    0  0.00000000000E+00  0.00000000000E+00  0.79959586971E+02  0.79959586971E+02  0.00000000000E+00 0. -1.
         -1   -1    0    0    0  501 -0.00000000000E+00 -0.00000000000E+00 -0.30540970044E+03  0.30540970044E+03  0.00000000000E+00 0.  1.
         23    2    1    2    0    0  0.51031200621E+02  0.43859524806E+02 -0.11682526158E+02  0.14244140295E+03  0.12500092201E+03 0.  0.
          5    1    3    3  502    0 -0.16288259796E+01 -0.20967866618E+02  0.39054000467E+02  0.44605038471E+02  0.47000000000E+01 0.  1.
         -5    1    3    3    0  502  0.52660026600E+02  0.64827391424E+02 -0.50736526625E+02  0.97836364479E+02  0.47000000000E+01 0.  1.
        -11    1    1    2    0    0 -0.57632018200E+02  0.57680727471E+01 -0.15643346614E+03  0.16681171875E+03  0.00000000000E+00 0.  1.
         11    1    1    2    0    0  0.66008175797E+01 -0.49627597553E+02 -0.57334121171E+02  0.76116165708E+02  0.00000000000E+00 0. -1.
<mgrwt>
<rscale>  0 0.13479702E+03</rscale>
<asrwt>0</asrwt>
<pdfrwt beam="1">  1        1 0.12301475E-01 0.14196152E+03</pdfrwt>
<pdfrwt beam="2">  1       -1 0.46986107E-01 0.14196152E+03</pdfrwt>
<totfact> 0.21768966E+03</totfact>
</mgrwt>
</event>
<event>
 7    1  0.5206756E-006  0.1543846E+03  0.7546771E-02  0.1203683E+00
         -1   -1    0    0    0  501 -0.00000000000E+00  0.00000000000E+00  0.12391741573E+02  0.12391741573E+02  0.00000000000E+00 0.  1.
          1   -1    0    0  501    0  0.00000000000E+00 -0.00000000000E+00 -0.18964470757E+04  0.18964470757E+04  0.00000000000E+00 0. -1.
         23    2    1    2    0    0 -0.21132502289E+02 -0.88114268742E+02 -0.13836487099E+04  0.13922350243E+04  0.12499561373E+03 0.  0.
          5    1    3    3  502    0 -0.55855960564E+02 -0.59927957602E+02 -0.12126143212E+04  0.12153875228E+04  0.47000000000E+01 0.  1.
         -5    1    3    3    0  502  0.34723458275E+02 -0.28186311139E+02 -0.17103438868E+03  0.17684750154E+03  0.47000000000E+01 0.  1.
        -11    1    1    2    0    0  0.54329955849E+02  0.56670424154E+02 -0.37478541734E+03  0.38291956091E+03  0.00000000000E+00 0.  1.
         11    1    1    2    0    0 -0.33197453560E+02  0.31443844588E+02 -0.12562120693E+03  0.13368423212E+03  0.00000000000E+00 0. -1.
<mgrwt>
<rscale>  0 0.14741735E+03</rscale>
<asrwt>0</asrwt>
<pdfrwt beam="2">  1        1 0.29176100E+00 0.15438462E+03</pdfrwt>
<pdfrwt beam="1">  1       -1 0.19064224E-02 0.15438462E+03</pdfrwt>
<totfact> 0.28890004E+03</totfact>
</mgrwt>
</event>
<event>
 7    1  0.5914602E-006  0.2173610E+03  0.7546771E-02  0.1139461E+00
          2   -1    0    0  501    0  0.00000000000E+00  0.00000000000E+00  0.49982498609E+03  0.49982498609E+03  0.00000000000E+00 0. -1.
         -2   -1    0    0    0  501 -0.00000000000E+00 -0.00000000000E+00 -0.87107467978E+02  0.87107467978E+02  0.00000000000E+00 0.  1.
         23    2    1    2    0    0 -0.17760529175E+03  0.87697251813E+01  0.23252880207E+03  0.31830089629E+03  0.12500107619E+03 0.  0.
          5    1    3    3  502    0 -0.88461980975E+01  0.28467660325E+02 -0.11802571948E+00  0.30178913752E+02  0.47000000000E+01 0. -1.
         -5    1    3    3    0  502 -0.16875909365E+03 -0.19697935144E+02  0.23264682779E+03  0.28812198254E+03  0.47000000000E+01 0. -1.
        -11    1    1    2    0    0  0.12838514665E+03  0.28468867937E+02  0.15137150287E+03  0.20051572059E+03  0.00000000000E+00 0. -1.
         11    1    1    2    0    0  0.49220145104E+02 -0.37238593118E+02  0.28817213165E+02  0.68115837190E+02  0.00000000000E+00 0.  1.
<mgrwt>
<rscale>  0 0.21268074E+03</rscale>
<asrwt>0</asrwt>
<pdfrwt beam="1">  1        2 0.76896150E-01 0.21736103E+03</pdfrwt>
<pdfrwt beam="2">  1       -2 0.13401149E-01 0.21736103E+03</pdfrwt>
<totfact> 0.25477428E+03</totfact>
</mgrwt>
</event>
<event>
 7    1  0.5206756E-006  0.1485563E+03  0.7546771E-02  0.1211469E+00
         -1   -1    0    0    0  501 -0.00000000000E+00  0.00000000000E+00  0.40233062367E+02  0.40233062367E+02  0.00000000000E+00 0.  1.
          1   -1    0    0  501    0  0.00000000000E+00 -0.00000000000E+00 -0.50103896364E+03  0.50103896364E+03  0.00000000000E+00 0. -1.
         23    2    1    2    0    0  0.60262340777E+02 -0.53038858516E+02 -0.33309394789E+03  0.36471982790E+03  0.12499721802E+03 0.  0.
          5    1    3    3  502    0 -0.74274275825E+01 -0.38070626715E+02 -0.19780048769E+02  0.43793602595E+02  0.47000000000E+01 0. -1.
         -5    1    3    3    0  502  0.67689768359E+02 -0.14968231801E+02 -0.31331389912E+03  0.32092622530E+03  0.47000000000E+01 0. -1.
        -11    1    1    2    0    0 -0.63695043760E+02 -0.33737769318E+01 -0.53375327969E+02  0.83170707621E+02  0.00000000000E+00 0.  1.
         11    1    1    2    0    0  0.34327029834E+01  0.56412635448E+02 -0.74336625411E+02  0.93381490486E+02  0.00000000000E+00 0. -1.
<mgrwt>
<rscale>  0 0.14139104E+03</rscale>
<asrwt>0</asrwt>
<pdfrwt beam="2">  1        1 0.77082918E-01 0.14855630E+03</pdfrwt>
<pdfrwt beam="1">  1       -1 0.61897019E-02 0.14855630E+03</pdfrwt>
<totfact> 0.55503640E+03</totfact>
</mgrwt>
</event>
<event>
 7    1  0.5206756E-006  0.1294812E+03  0.7546771E-02  0.1242189E+00
          1   -1    0    0  501    0  0.00000000000E+00  0.00000000000E+00  0.64698001106E+02  0.64698001106E+02  0.00000000000E+00 0. -1.
         -1   -1    0    0    0  501 -0.00000000000E+00 -0.00000000000E+00 -0.28576649339E+03  0.28576649339E+03  0.00000000000E+00 0.  1.
         23    2    1    2    0    0 -0.52160780555E+01  0.33360615827E+02 -0.25409457456E+02  0.13195087688E+03  0.12500102089E+03 0.  0.
          5    1    3    3  502    0 -0.37857806610E+02 -0.35588701737E+02 -0.17881663579E+02  0.55150821435E+02  0.47000000000E+01 0.  1.
         -5    1    3    3    0  502  0.32641728555E+02  0.68949317564E+02 -0.75277938770E+01  0.76800055444E+02  0.47000000000E+01 0.  1.
        -11    1    1    2    0    0 -0.70960481071E+01 -0.47587639943E+02 -0.19371264170E+03  0.19959840913E+03  0.00000000000E+00 0.  1.
         11    1    1    2    0    0  0.12312126163E+02  0.14227024116E+02 -0.19463931307E+01  0.18915208486E+02  0.00000000000E+00 0. -1.
<mgrwt>
<rscale>  0 0.12055202E+03</rscale>
<asrwt>0</asrwt>
<pdfrwt beam="1">  1        1 0.99535384E-02 0.12948125E+03</pdfrwt>
<pdfrwt beam="2">  1       -1 0.43964077E-01 0.12948125E+03</pdfrwt>
<totfact> 0.32276662E+03</totfact>
</mgrwt>
</event>
<event>
 7    1  0.6276013E-006  0.2326040E+03  0.7546771E-02  0.1127702E+00
          2   -1    0    0  501    0  0.00000000000E+00  0.00000000000E+00  0.62474890257E+03  0.62474890257E+03  0.00000000000E+00 0. -1.
         -2   -1    0    0    0  501 -0.00000000000E+00 -0.00000000000E+00 -0.83130794195E+02  0.83130794195E+02  0.00000000000E+00 0.  1.
         23    2    1    2    0    0  0.14173807743E+03 -0.13561119733E+03  0.34005451976E+03  0.41199719412E+03  0.12499812846E+03 0.  0.
          5    1    3    3  502    0  0.70569251978E+02  0.89081214627E+01  0.97363447260E+02  0.12066940298E+03  0.47000000000E+01 0. -1.
         -5    1    3    3    0  502  0.71168825451E+02 -0.14451931880E+03  0.24269107250E+03  0.29132779114E+03  0.47000000000E+01 0. -1.
        -11    1    1    2    0    0 -0.12962510489E+03  0.83919661149E+02  0.10845253800E+03  0.18869851707E+03  0.00000000000E+00 0.  1.
         11    1    1    2    0    0 -0.12112972537E+02  0.51691536185E+02  0.93111050610E+02  0.10718398557E+03  0.00000000000E+00 0. -1.
<mgrwt>
<rscale>  0 0.22849724E+03</rscale>
<asrwt>0</asrwt>
<pdfrwt beam="1">  1        2 0.96115213E-01 0.23260398E+03</pdfrwt>
<pdfrwt beam="2">  1       -2 0.12789353E-01 0.23260398E+03</pdfrwt>
<totfact> 0.21339920E+03</totfact>
</mgrwt>
</event>
<event>
 7    1  0.5206756E-006  0.2195049E+03  0.7546771E-02  0.1137622E+00
          1   -1    0    0  501    0  0.00000000000E+00  0.00000000000E+00  0.23876836183E+04  0.23876836183E+04  0.00000000000E+00 0. -1.
         -1   -1    0    0    0  501 -0.00000000000E+00 -0.00000000000E+00 -0.20380040809E+02  0.20380040809E+02  0.00000000000E+00 0.  1.
         23    2    1    2    0    0  0.17117771206E+03  0.57054562447E+02  0.15810030738E+04  0.15961682615E+04  0.12500146922E+03 0.  0.
          5    1    3    3  502    0  0.44080805841E+02  0.52242392822E+01  0.10919531804E+03  0.11796659528E+03  0.47000000000E+01 0. -1.
         -5    1    3    3    0  502  0.12709690622E+03  0.51830323165E+02  0.14718077558E+04  0.14782016662E+04  0.47000000000E+01 0. -1.
        -11    1    1    2    0    0 -0.53780793306E+02 -0.18596100511E+02  0.10445955098E+03  0.11895371568E+03  0.00000000000E+00 0.  1.
         11    1    1    2    0    0 -0.11739691875E+03 -0.38458461936E+02  0.68184095272E+03  0.69294168198E+03  0.00000000000E+00 0. -1.
<mgrwt>
<rscale>  0 0.21505824E+03</rscale>
<asrwt>0</asrwt>
<pdfrwt beam="1">  1        1 0.36733572E+00 0.21950490E+03</pdfrwt>
<pdfrwt beam="2">  1       -1 0.31353928E-02 0.21950490E+03</pdfrwt>
<totfact> 0.66988680E+02</totfact>
</mgrwt>
</event>
<event>
 7    1  0.5206756E-006  0.1375448E+03  0.7546771E-02  0.1234405E+00
         -1   -1    0    0    0  501 -0.00000000000E+00  0.00000000000E+00  0.21834052999E+02  0.21834052999E+02  0.00000000000E+00 0.  1.
          1   -1    0    0  501    0  0.00000000000E+00 -0.00000000000E+00 -0.68258782327E+03  0.68258782327E+03  0.00000000000E+00 0. -1.
         23    2    1    2    0    0 -0.44804567613E+02 -0.35857366373E+02 -0.49032114418E+03  0.50924786475E+03  0.12500145330E+03 0.  0.
          5    1    3    3  502    0 -0.13586956525E+02  0.23108326592E+02 -0.18969212233E+02  0.33174103729E+02  0.47000000000E+01 0.  1.
         -5    1    3    3    0  502 -0.31217611088E+02 -0.58965692965E+02 -0.47135193194E+03  0.47607376102E+03  0.47000000000E+01 0.  1.
        -11    1    1    2    0    0  0.38390702145E+02  0.54837973774E+02 -0.89300776009E+02  0.11160500874E+03  0.00000000000E+00 0.  1.
         11    1    1    2    0    0  0.64138654679E+01 -0.18980607401E+02 -0.81131850083E+02  0.83569002779E+02  0.00000000000E+00 0. -1.
<mgrwt>
<rscale>  0 0.12542607E+03</rscale>
<asrwt>0</asrwt>
<pdfrwt beam="2">  1        1 0.10501353E+00 0.13754477E+03</pdfrwt>
<pdfrwt beam="1">  1       -1 0.33590846E-02 0.13754477E+03</pdfrwt>
<totfact> 0.89577778E+03</totfact>
</mgrwt>
</event>
<event>
 6    1  0.5206756E-006  0.2674362E+03  0.7546771E-02  0.1127836E+00
         -2   -1    0    0    0  501 -0.00000000000E+00  0.00000000000E+00  0.21807773002E+02  0.21807773002E+02  0.00000000000E+00 0.  1.
          2   -1    0    0  501    0  0.00000000000E+00 -0.00000000000E+00 -0.19467523373E+04  0.19467523373E+04  0.00000000000E+00 0. -1.
          5    1    1    2  502    0  0.10018377705E+03 -0.38911331286E+02 -0.11604778720E+04  0.11654535007E+04  0.47000000000E+01 0. -1.
         -5    1    1    2    0  502  0.22779661316E+01 -0.12337327868E+01  0.12320696644E+02  0.13438779412E+02  0.47000000000E+01 0.  1.
        -11    1    1    2    0    0  0.88608562763E+01 -0.13806429299E+02 -0.56462307945E+02  0.58797316966E+02  0.00000000000E+00 0. -1.
         11    1    1    2    0    0 -0.11132259946E+03  0.53951493372E+02 -0.72032508095E+03  0.73087051318E+03  0.00000000000E+00 0.  1.
<mgrwt>
<rscale>  0 0.22830804E+03</rscale>
<asrwt>0</asrwt>
<pdfrwt beam="2">  1        2 0.29950051E+00 0.26743618E+03</pdfrwt>
<pdfrwt beam="1">  1       -2 0.33550403E-02 0.26743618E+03</pdfrwt>
<totfact> 0.28368530E+03</totfact>
</mgrwt>
</event>
<event>
 7    1  0.5206756E-006  0.1125152E+03  0.7546771E-02  0.1265647E+00
         -1   -1    0    0    0  501 -0.00000000000E+00  0.00000000000E+00  0.41241761675E+02  0.41241761675E+02  0.00000000000E+00 0.  1.
          1   -1    0    0  501    0  0.00000000000E+00 -0.00000000000E+00 -0.25729594331E+03  0.25729594331E+03  0.00000000000E+00 0. -1.
         23    2    1    2    0    0  0.17537825184E+02 -0.19811049089E+01 -0.10854334982E+03  0.15633724361E+03  0.11112234185E+03 0.  0.
          5    1    3    3  502    0  0.79691947180E+01  0.40953657566E+02 -0.10364777485E+03  0.11182871440E+03  0.47000000000E+01 0. -1.
         -5    1    3    3    0  502  0.95686304662E+01 -0.42934762475E+02 -0.48955749710E+01  0.44508529206E+02  0.47000000000E+01 0.  1.
        -11    1    1    2    0    0  0.15570166166E+02 -0.37795694402E+02 -0.54378925340E+02  0.68029494419E+02  0.00000000000E+00 0.  1.
         11    1    1    2    0    0 -0.33107991350E+02  0.39776799311E+02 -0.53131906476E+02  0.74170966964E+02  0.00000000000E+00 0. -1.
<mgrwt>
<rscale>  0 0.10730333E+03</rscale>
<asrwt>0</asrwt>
<pdfrwt beam="2">  1        1 0.39583991E-01 0.11251522E+03</pdfrwt>
<pdfrwt beam="1">  1       -1 0.63448864E-02 0.11251522E+03</pdfrwt>
<totfact> 0.12100903E+04</totfact>
</mgrwt>
</event>
<event>
 7    1  0.5206756E-006  0.1701632E+03  0.7546771E-02  0.1183053E+00
          1   -1    0    0  501    0  0.00000000000E+00  0.00000000000E+00  0.23104090473E+03  0.23104090473E+03  0.00000000000E+00 0. -1.
         -1   -1    0    0    0  501 -0.00000000000E+00 -0.00000000000E+00 -0.19338021536E+03  0.19338021536E+03  0.00000000000E+00 0.  1.
         23    2    1    2    0    0 -0.20666627187E+02  0.11359400183E+03  0.15744624858E+03  0.23182934437E+03  0.12499926795E+03 0.  0.
          5    1    3    3  502    0 -0.36132835056E+02  0.22495056256E+02  0.12762938705E+03  0.13462154272E+03  0.47000000000E+01 0.  1.
         -5    1    3    3    0  502  0.15466207869E+02  0.91098945570E+02  0.29816861528E+02  0.97207801648E+02  0.47000000000E+01 0.  1.
        -11    1    1    2    0    0  0.58667295125E+02 -0.53832253358E+02 -0.70063633662E+02  0.10605977457E+03  0.00000000000E+00 0.  1.
         11    1    1    2    0    0 -0.38000667938E+02 -0.59761748467E+02 -0.49721925554E+02  0.86532001158E+02  0.00000000000E+00 0. -1.
<mgrwt>
<rscale>  0 0.16510312E+03</rscale>
<asrwt>0</asrwt>
<pdfrwt beam="1">  1        1 0.35544754E-01 0.17016323E+03</pdfrwt>
<pdfrwt beam="2">  1       -1 0.29750802E-01 0.17016323E+03</pdfrwt>
<totfact> 0.12549192E+03</totfact>
</mgrwt>
</event>
<event>
 7    1  0.5206756E-006  0.1250512E+03  0.7546771E-02  0.1255231E+00
         -1   -1    0    0    0  501 -0.00000000000E+00  0.00000000000E+00  0.13296116771E+02  0.13296116771E+02  0.00000000000E+00 0.  1.
          1   -1    0    0  501    0  0.00000000000E+00 -0.00000000000E+00 -0.85318699836E+03  0.85318699836E+03  0.00000000000E+00 0. -1.
         23    2    1    2    0    0 -0.22013658875E+00 -0.35469967161E+01 -0.59014925114E+03  0.60325279730E+03  0.12500067673E+03 0.  0.
          5    1    3    3  502    0  0.48931203793E+02 -0.27479254263E+02 -0.16007099410E+03  0.16968849481E+03  0.47000000000E+01 0.  1.
         -5    1    3    3    0  502 -0.49151340381E+02  0.23932257547E+02 -0.43007825704E+03  0.43356430248E+03  0.47000000000E+01 0.  1.
        -11    1    1    2    0    0  0.32806939096E+02 -0.11206787855E+02 -0.53468609079E+02  0.63724245807E+02  0.00000000000E+00 0.  1.
         11    1    1    2    0    0 -0.32586802507E+02  0.14753784571E+02 -0.19627302137E+03  0.19950607202E+03  0.00000000000E+00 0. -1.
<mgrwt>
<rscale>  0 0.11293376E+03</rscale>
<asrwt>0</asrwt>
<pdfrwt beam="2">  1        1 0.13125956E+00 0.12505118E+03</pdfrwt>
<pdfrwt beam="1">  1       -1 0.20455561E-02 0.12505118E+03</pdfrwt>
<totfact> 0.13143260E+04</totfact>
</mgrwt>
</event>
<event>
 7    1  0.5206756E-006  0.1426134E+03  0.7546771E-02  0.1220054E+00
         -1   -1    0    0    0  501 -0.00000000000E+00  0.00000000000E+00  0.50590225802E+02  0.50590225802E+02  0.00000000000E+00 0.  1.
          1   -1    0    0  501    0  0.00000000000E+00 -0.00000000000E+00 -0.33741418671E+03  0.33741418671E+03  0.00000000000E+00 0. -1.
         23    2    1    2    0    0  0.47048469315E+02 -0.50010624963E+02 -0.19108466794E+03  0.23843646107E+03  0.12499589823E+03 0.  0.
          5    1    3    3  502    0  0.52014425777E+02 -0.54693919179E+02 -0.37109703269E+02  0.84238621551E+02  0.47000000000E+01 0. -1.
         -5    1    3    3    0  502 -0.49659564617E+01  0.46832942156E+01 -0.15397496467E+03  0.15419783952E+03  0.47000000000E+01 0. -1.
        -11    1    1    2    0    0 -0.22904415932E+02 -0.94995290783E+01 -0.79567442788E+02  0.83341653894E+02  0.00000000000E+00 0. -1.
         11    1    1    2    0    0 -0.24144053383E+02  0.59510154041E+02 -0.16171850175E+02  0.66226297540E+02  0.00000000000E+00 0.  1.
<mgrwt>
<rscale>  0 0.13511727E+03</rscale>
<asrwt>0</asrwt>
<pdfrwt beam="2">  1        1 0.51909877E-01 0.14261345E+03</pdfrwt>
<pdfrwt beam="1">  1       -1 0.77831114E-02 0.14261345E+03</pdfrwt>
<totfact> 0.64892383E+03</totfact>
</mgrwt>
</event>
<event>
 7    1  0.5206756E-006  0.1305601E+03  0.7546771E-02  0.1245182E+00
         -2   -1    0    0    0  501 -0.00000000000E+00  0.00000000000E+00  0.73530288003E+02  0.73530288003E+02  0.00000000000E+00 0.  1.
          2   -1    0    0  501    0  0.00000000000E+00 -0.00000000000E+00 -0.18484616544E+03  0.18484616544E+03  0.00000000000E+00 0. -1.
         23    2    1    2    0    0 -0.17672534484E+01 -0.37627420536E+02 -0.10722368540E+03  0.16894630344E+03  0.12500795484E+03 0.  0.
          5    1    3    3  502    0 -0.23858881389E+02 -0.72336953921E+02 -0.31341914442E+02  0.82500222573E+02  0.47000000000E+01 0.  1.
         -5    1    3    3    0  502  0.22091627941E+02  0.34709533384E+02 -0.75881770960E+02  0.86446080865E+02  0.47000000000E+01 0.  1.
        -11    1    1    2    0    0  0.25168889923E+02 -0.29740184430E+01  0.23906683307E+02  0.34840311600E+02  0.00000000000E+00 0.  1.
         11    1    1    2    0    0 -0.23401636475E+02  0.40601438979E+02 -0.27998875346E+02  0.54589838409E+02  0.00000000000E+00 0. -1.
<mgrwt>
<rscale>  0 0.11874491E+03</rscale>
<asrwt>0</asrwt>
<pdfrwt beam="2">  1        2 0.28437872E-01 0.13056008E+03</pdfrwt>
<pdfrwt beam="1">  1       -2 0.11312352E-01 0.13056008E+03</pdfrwt>
<totfact> 0.95250457E+03</totfact>
</mgrwt>
</event>
<event>
 7    1  0.5206756E-006  0.1309259E+03  0.7546771E-02  0.1239717E+00
         -1   -1    0    0    0  501 -0.00000000000E+00  0.00000000000E+00  0.75580985525E+02  0.75580985525E+02  0.00000000000E+00 0.  1.
          1   -1    0    0  501    0  0.00000000000E+00 -0.00000000000E+00 -0.17496440816E+03  0.17496440816E+03  0.00000000000E+00 0. -1.
         23    2    1    2    0    0 -0.23906527340E+02  0.30741108451E+02 -0.60604057938E+02  0.14427213634E+03  0.12500023875E+03 0.  0.
          5    1    3    3  502    0 -0.27908612374E+02  0.70309821702E+02 -0.69961785024E+02  0.10314602773E+03  0.47000000000E+01 0.  1.
         -5    1    3    3    0  502  0.40020850334E+01 -0.39568713252E+02  0.93577270868E+01  0.41126108608E+02  0.47000000000E+01 0.  1.
        -11    1    1    2    0    0  0.24807946881E+02 -0.43215092695E+02  0.14219585342E+02  0.51818674939E+02  0.00000000000E+00 0.  1.
         11    1    1    2    0    0 -0.90141954079E+00  0.12473984245E+02 -0.52998950035E+02  0.54454582406E+02  0.00000000000E+00 0. -1.
<mgrwt>
<rscale>  0 0.12207254E+03</rscale>
<asrwt>0</asrwt>
<pdfrwt beam="2">  1        1 0.26917601E-01 0.13092592E+03</pdfrwt>
<pdfrwt beam="1">  1       -1 0.11627844E-01 0.13092592E+03</pdfrwt>
<totfact> 0.79061223E+03</totfact>
</mgrwt>
</event>
<event>
 7    1  0.5206756E-006  0.1321331E+03  0.7546771E-02  0.1237054E+00
          2   -1    0    0  501    0  0.00000000000E+00  0.00000000000E+00  0.26787199828E+03  0.26787199828E+03  0.00000000000E+00 0. -1.
         -2   -1    0    0    0  501 -0.00000000000E+00 -0.00000000000E+00 -0.53223510351E+02  0.53223510351E+02  0.00000000000E+00 0.  1.
         23    2    1    2    0    0 -0.31275117392E+02  0.29255111865E+02  0.15332790774E+03  0.20240705343E+03  0.12500069378E+03 0.  0.
          5    1    3    3  502    0 -0.52693114906E+00  0.18595127164E+02 -0.18980723224E+02  0.26989150872E+02  0.47000000000E+01 0.  1.
         -5    1    3    3    0  502 -0.30748186243E+02  0.10659984701E+02  0.17230863097E+03  0.17541790255E+03  0.47000000000E+01 0.  1.
        -11    1    1    2    0    0 -0.21593391363E+02 -0.65419807457E+01  0.56626885701E+02  0.60956347059E+02  0.00000000000E+00 0. -1.
         11    1    1    2    0    0  0.52868508755E+02 -0.22713131119E+02  0.46936944867E+01  0.57732108147E+02  0.00000000000E+00 0.  1.
<mgrwt>
<rscale>  0 0.12373832E+03</rscale>
<asrwt>0</asrwt>
<pdfrwt beam="1">  1        2 0.41211076E-01 0.13213314E+03</pdfrwt>
<pdfrwt beam="2">  1       -2 0.81882326E-02 0.13213314E+03</pdfrwt>
<totfact> 0.10622984E+04</totfact>
</mgrwt>
</event>
<event>
 7    1  0.5206756E-006  0.1310457E+03  0.7546771E-02  0.1239657E+00
         -1   -1    0    0    0  501 -0.00000000000E+00  0.00000000000E+00  0.19235988547E+03  0.19235988547E+03  0.00000000000E+00 0.  1.
          1   -1    0    0  501    0  0.00000000000E+00 -0.00000000000E+00 -0.76248529934E+02  0.76248529934E+02  0.00000000000E+00 0. -1.
         23    2    1    2    0    0 -0.39130513938E+02  0.40460361313E+01  0.23387197804E+02  0.13311622935E+03  0.12500160785E+03 0.  0.
          5    1    3    3  502    0 -0.23077665951E+02 -0.50198700214E+02  0.45967520915E+02  0.72024934210E+02  0.47000000000E+01 0. -1.
         -5    1    3    3    0  502 -0.16052847987E+02  0.54244736345E+02 -0.22580323111E+02  0.61091295136E+02  0.47000000000E+01 0. -1.
        -11    1    1    2    0    0  0.63538535685E+02 -0.76917691355E+01  0.35535208638E+02  0.73205600075E+02  0.00000000000E+00 0. -1.
         11    1    1    2    0    0 -0.24408021747E+02  0.36457330043E+01  0.57188949089E+02  0.62286585977E+02  0.00000000000E+00 0.  1.
<mgrwt>
<rscale>  0 0.12210973E+03</rscale>
<asrwt>0</asrwt>
<pdfrwt beam="2">  1        1 0.11730543E-01 0.13104568E+03</pdfrwt>
<pdfrwt beam="1">  1       -1 0.29593828E-01 0.13104568E+03</pdfrwt>
<totfact> 0.51461794E+03</totfact>
</mgrwt>
</event>
<event>
 7    1  0.5206756E-006  0.2045576E+03  0.7546771E-02  0.1150059E+00
          2   -1    0    0  501    0  0.00000000000E+00  0.00000000000E+00  0.20849131962E+03  0.20849131962E+03  0.00000000000E+00 0. -1.
         -2   -1    0    0    0  501 -0.00000000000E+00 -0.00000000000E+00 -0.34527691242E+03  0.34527691242E+03  0.00000000000E+00 0.  1.
         23    2    1    2    0    0  0.15922457205E+03  0.29439973827E+02  0.11986455133E+03  0.23708922891E+03  0.12499846159E+03 0.  0.
          5    1    3    3  502    0  0.34697430926E+02  0.61884433730E+02  0.19223417099E+02  0.73656124090E+02  0.47000000000E+01 0.  1.
         -5    1    3    3    0  502  0.12452714112E+03 -0.32444459903E+02  0.10064113423E+03  0.16343310482E+03  0.47000000000E+01 0.  1.
        -11    1    1    2    0    0 -0.13367477321E+03 -0.26960265834E+02 -0.13333262551E+03  0.19071809026E+03  0.00000000000E+00 0. -1.
         11    1    1    2    0    0 -0.25549798841E+02 -0.24797079930E+01 -0.12331751862E+03  0.12596091287E+03  0.00000000000E+00 0.  1.
<mgrwt>
<rscale>  0 0.19962142E+03</rscale>
<asrwt>0</asrwt>
<pdfrwt beam="1">  1        2 0.32075588E-01 0.20455755E+03</pdfrwt>
<pdfrwt beam="2">  1       -2 0.53119525E-01 0.20455755E+03</pdfrwt>
<totfact> 0.55417162E+02</totfact>
</mgrwt>
</event>
<event>
 7    1  0.5206756E-006  0.1698749E+03  0.7546771E-02  0.1183935E+00
          2   -1    0    0  501    0  0.00000000000E+00  0.00000000000E+00  0.81189538298E+02  0.81189538298E+02  0.00000000000E+00 0. -1.
         -2   -1    0    0    0  501 -0.00000000000E+00 -0.00000000000E+00 -0.34214852709E+03  0.34214852709E+03  0.00000000000E+00 0.  1.
         23    2    1    2    0    0 -0.92972016365E+02 -0.67746659582E+02 -0.76091175029E+02  0.18613802000E+03  0.12499635939E+03 0.  0.
          5    1    3    3  502    0 -0.98022583039E+02 -0.49944426760E+02 -0.25330662843E+01  0.11014253935E+03  0.47000000000E+01 0.  1.
         -5    1    3    3    0  502  0.50505666736E+01 -0.17802232822E+02 -0.73558108745E+02  0.75995480651E+02  0.47000000000E+01 0.  1.
        -11    1    1    2    0    0  0.22617533323E+02  0.64432749048E+02 -0.48630996553E+02  0.83833798610E+02  0.00000000000E+00 0.  1.
         11    1    1    2    0    0  0.70354483042E+02  0.33139105339E+01 -0.13623681721E+03  0.15336624678E+03  0.00000000000E+00 0. -1.
<mgrwt>
<rscale>  0 0.16429182E+03</rscale>
<asrwt>0</asrwt>
<pdfrwt beam="1">  1        2 0.12490698E-01 0.16987494E+03</pdfrwt>
<pdfrwt beam="2">  1       -2 0.52638234E-01 0.16987494E+03</pdfrwt>
<totfact> 0.16512102E+03</totfact>
</mgrwt>
</event>
<event>
 7    1  0.5206756E-006  0.1319030E+03  0.7546771E-02  0.1233642E+00
          1   -1    0    0  501    0  0.00000000000E+00  0.00000000000E+00  0.46258719062E+03  0.46258719062E+03  0.00000000000E+00 0. -1.
         -1   -1    0    0    0  501 -0.00000000000E+00 -0.00000000000E+00 -0.54602108767E+02  0.54602108767E+02  0.00000000000E+00 0.  1.
         23    2    1    2    0    0  0.30489291286E+02 -0.29043981107E+02  0.38266149761E+03  0.40475700611E+03  0.12500105007E+03 0.  0.
          5    1    3    3  502    0  0.37298878686E+02  0.86691907045E+01  0.27200085069E+02  0.47204828635E+02  0.47000000000E+01 0. -1.
         -5    1    3    3    0  502 -0.68095873999E+01 -0.37713171811E+02  0.35546141254E+03  0.35755217747E+03  0.47000000000E+01 0. -1.
        -11    1    1    2    0    0 -0.61883779484E+02 -0.63467167032E+01  0.15601647093E+02  0.64134969932E+02  0.00000000000E+00 0. -1.
         11    1    1    2    0    0  0.31394488197E+02  0.35390697810E+02  0.97219371484E+01  0.48297323348E+02  0.00000000000E+00 0.  1.
<mgrwt>
<rscale>  0 0.12591793E+03</rscale>
<asrwt>0</asrwt>
<pdfrwt beam="1">  1        1 0.71167257E-01 0.13190304E+03</pdfrwt>
<pdfrwt beam="2">  1       -1 0.84003248E-02 0.13190304E+03</pdfrwt>
<totfact> 0.38675650E+03</totfact>
</mgrwt>
</event>
<event>
 7    1  0.5206756E-006  0.2519244E+03  0.7546771E-02  0.1114639E+00
         -2   -1    0    0    0  501 -0.00000000000E+00  0.00000000000E+00  0.92356512449E+02  0.92356512449E+02  0.00000000000E+00 0.  1.
          2   -1    0    0  501    0  0.00000000000E+00 -0.00000000000E+00 -0.72479441911E+03  0.72479441911E+03  0.00000000000E+00 0. -1.
         23    2    1    2    0    0 -0.26087835353E+02  0.21711959793E+03 -0.46079939620E+03  0.52516853967E+03  0.12507764216E+03 0.  0.
          5    1    3    3  502    0  0.37168134519E+02  0.81920812701E+02 -0.99486655600E+02  0.13420944236E+03  0.47000000000E+01 0. -1.
         -5    1    3    3    0  502 -0.63255969872E+02  0.13519878523E+03 -0.36131274060E+03  0.39095909731E+03  0.47000000000E+01 0. -1.
        -11    1    1    2    0    0  0.39239082930E+02 -0.55758288172E+02 -0.22323048933E+02  0.71742671004E+02  0.00000000000E+00 0.  1.
         11    1    1    2    0    0 -0.13151247577E+02 -0.16136130976E+03 -0.14931546153E+03  0.22023972088E+03  0.00000000000E+00 0. -1.
<mgrwt>
<rscale>  0 0.24789974E+03</rscale>
<asrwt>0</asrwt>
<pdfrwt beam="2">  1        2 0.11150683E+00 0.25192442E+03</pdfrwt>
<pdfrwt beam="1">  1       -2 0.14208694E-01 0.25192442E+03</pdfrwt>
<totfact> 0.15043613E+03</totfact>
</mgrwt>
</event>
<event>
 7    1  0.5206756E-006  0.1389701E+03  0.7546771E-02  0.1226133E+00
          1   -1    0    0  501    0  0.00000000000E+00  0.00000000000E+00  0.73012120259E+03  0.73012120259E+03  0.00000000000E+00 0. -1.
         -1   -1    0    0    0  501 -0.00000000000E+00 -0.00000000000E+00 -0.41149269173E+02  0.41149269173E+02  0.00000000000E+00 0.  1.
         23    2    1    2    0    0 -0.43056650507E+02 -0.42826572363E+02  0.63362251525E+03  0.64868341341E+03  0.12499875418E+03 0.  0.
          5    1    3    3  502    0 -0.40843599979E+02 -0.80847402786E+02  0.31625318753E+03  0.32900253923E+03  0.47000000000E+01 0.  1.
         -5    1    3    3    0  502 -0.22130505275E+01  0.38020830423E+02  0.31736932772E+03  0.31968087418E+03  0.47000000000E+01 0.  1.
        -11    1    1    2    0    0  0.40504823407E+02  0.19948424310E+02 -0.15777337739E+02  0.47827865704E+02  0.00000000000E+00 0.  1.
         11    1    1    2    0    0  0.25518271000E+01  0.22878148052E+02  0.71126755909E+02  0.74759192652E+02  0.00000000000E+00 0. -1.
<mgrwt>
<rscale>  0 0.13089577E+03</rscale>
<asrwt>0</asrwt>
<pdfrwt beam="1">  1        1 0.11232633E+00 0.13897007E+03</pdfrwt>
<pdfrwt beam="2">  1       -1 0.63306573E-02 0.13897007E+03</pdfrwt>
<totfact> 0.31925489E+03</totfact>
</mgrwt>
</event>
<event>
 6    1  0.5206756E-006  0.2014710E+03  0.7546771E-02  0.1235450E+00
          2   -1    0    0  501    0  0.00000000000E+00  0.00000000000E+00  0.98922903901E+02  0.98922903901E+02  0.00000000000E+00 0.  1.
         -2   -1    0    0    0  501 -0.00000000000E+00 -0.00000000000E+00 -0.15735605205E+03  0.15735605205E+03  0.00000000000E+00 0. -1.
          5    1    1    2  502    0 -0.60650242865E+02  0.19363311886E+02  0.70074959027E+02  0.94794407480E+02  0.47000000000E+01 0.  1.
         -5    1    1    2    0  502  0.67322353346E+02  0.65977150073E+01 -0.82878517362E+02  0.10708299465E+03  0.47000000000E+01 0. -1.
        -11    1    1    2    0    0  0.22196046488E+01 -0.15186141132E+02 -0.27751534682E+02  0.31712666310E+02  0.00000000000E+00 0. -1.
         11    1    1    2    0    0 -0.88917151296E+01 -0.10774885761E+02 -0.17878055133E+02  0.22688887510E+02  0.00000000000E+00 0.  1.
<mgrwt>
<rscale>  0 0.12475656E+03</rscale>
<asrwt>0</asrwt>
<pdfrwt beam="1">  1        2 0.15218908E-01 0.20147098E+03</pdfrwt>
<pdfrwt beam="2">  1       -2 0.24208623E-01 0.20147098E+03</pdfrwt>
<totfact> 0.56224031E+03</totfact>
</mgrwt>
</event>
<event>
 7    1  0.5206756E-006  0.1777252E+03  0.7546771E-02  0.1175845E+00
          1   -1    0    0  501    0  0.00000000000E+00  0.00000000000E+00  0.36121789053E+02  0.36121789053E+02  0.00000000000E+00 0. -1.
         -1   -1    0    0    0  501 -0.00000000000E+00 -0.00000000000E+00 -0.93090637719E+03  0.93090637719E+03  0.00000000000E+00 0.  1.
         23    2    1    2    0    0  0.97164099664E+02  0.80742529367E+02 -0.27075321559E+03  0.32387276017E+03  0.12500417080E+03 0.  0.
          5    1    3    3  502    0  0.48621187275E+02  0.55068344945E+02 -0.34534883297E+02  0.81309843385E+02  0.47000000000E+01 0.  1.
         -5    1    3    3    0  502  0.48542912389E+02  0.25674184422E+02 -0.23621833229E+03  0.24256291679E+03  0.47000000000E+01 0.  1.
        -11    1    1    2    0    0  0.17065492657E+02 -0.19987440236E+02 -0.10285115557E+03  0.10615596549E+03  0.00000000000E+00 0.  1.
         11    1    1    2    0    0 -0.11422959232E+03 -0.60755089131E+02 -0.52118021698E+03  0.53699944058E+03  0.00000000000E+00 0. -1.
<mgrwt>
<rscale>  0 0.17193502E+03</rscale>
<asrwt>0</asrwt>
<pdfrwt beam="1">  1        1 0.55571981E-02 0.17772524E+03</pdfrwt>
<pdfrwt beam="2">  1       -1 0.14321637E+00 0.17772524E+03</pdfrwt>
<totfact> 0.61024460E+02</totfact>
</mgrwt>
</event>
<event>
 7    1  0.5206756E-006  0.1547464E+03  0.7546771E-02  0.1202491E+00
          2   -1    0    0  501    0  0.00000000000E+00  0.00000000000E+00  0.23106747928E+03  0.23106747928E+03  0.00000000000E+00 0. -1.
         -2   -1    0    0    0  501 -0.00000000000E+00 -0.00000000000E+00 -0.92622812342E+02  0.92622812342E+02  0.00000000000E+00 0.  1.
         23    2    1    2    0    0  0.10357783425E+02 -0.90632459737E+02  0.11000631452E+03  0.18986271218E+03  0.12499973524E+03 0.  0.
          5    1    3    3  502    0  0.64554777001E+02 -0.72531132235E+02  0.64479684197E+02  0.11665249269E+03  0.47000000000E+01 0. -1.
         -5    1    3    3    0  502 -0.54196993576E+02 -0.18101327502E+02  0.45526630319E+02  0.73210219493E+02  0.47000000000E+01 0. -1.
        -11    1    1    2    0    0 -0.40925751698E+02  0.66835924878E+02 -0.10298252603E+02  0.79044367370E+02  0.00000000000E+00 0.  1.
         11    1    1    2    0    0  0.30567968273E+02  0.23796534859E+02  0.38736605026E+02  0.54783212069E+02  0.00000000000E+00 0. -1.
<mgrwt>
<rscale>  0 0.14836909E+03</rscale>
<asrwt>0</asrwt>
<pdfrwt beam="1">  1        2 0.35548843E-01 0.15474644E+03</pdfrwt>
<pdfrwt beam="2">  1       -2 0.14249664E-01 0.15474644E+03</pdfrwt>
<totfact> 0.52242435E+03</totfact>
</mgrwt>
</event>
<event>
 6    1  0.5206756E-006  0.1524135E+03  0.7546771E-02  0.1215554E+00
          1   -1    0    0  501    0  0.00000000000E+00  0.00000000000E+00  0.49455623740E+03  0.49455623740E+03  0.00000000000E+00 0. -1.
         -1   -1    0    0    0  501 -0.00000000000E+00 -0.00000000000E+00 -0.50703079602E+02  0.50703079602E+02  0.00000000000E+00 0.  1.
          5    1    1    2  502    0 -0.20167808836E+02  0.31282814822E+02  0.30021614505E+03  0.30255111761E+03  0.47000000000E+01 0. -1.
         -5    1    1    2    0  502  0.93102479131E+01 -0.77262752849E+02  0.10808163921E+03  0.13326644149E+03  0.47000000000E+01 0.  1.
        -11    1    1    2    0    0  0.51549270266E+02  0.20512864316E+02  0.17977095089E+02  0.58320500814E+02  0.00000000000E+00 0.  1.
         11    1    1    2    0    0 -0.40691709343E+02  0.25467073712E+02  0.17578278445E+02  0.51121257083E+02  0.00000000000E+00 0. -1.
<mgrwt>
<rscale>  0 0.13835918E+03</rscale>
<asrwt>0</asrwt>
<pdfrwt beam="1">  1        1 0.76085572E-01 0.15241346E+03</pdfrwt>
<pdfrwt beam="2">  1       -1 0.78004741E-02 0.15241346E+03</pdfrwt>
<totfact> 0.39929511E+03</totfact>
</mgrwt>
</event>
<event>
 6    1  0.5206756E-006  0.2074654E+03  0.7546771E-02  0.1164000E+00
         -2   -1    0    0    0  501 -0.00000000000E+00  0.00000000000E+00  0.66417541804E+03  0.66417541804E+03  0.00000000000E+00 0.  1.
          2   -1    0    0  501    0  0.00000000000E+00 -0.00000000000E+00 -0.44169703303E+02  0.44169703303E+02  0.00000000000E+00 0. -1.
          5    1    1    2  502    0  0.45286980593E+02 -0.11024039528E+03  0.14196272163E+03  0.18541671902E+03  0.47000000000E+01 0. -1.
         -5    1    1    2    0  502  0.28247594798E+02  0.78020307306E+02  0.17008279367E+03  0.18930224950E+03  0.47000000000E+01 0.  1.
        -11    1    1    2    0    0 -0.67731384824E+02  0.17767348550E+02  0.31009817140E+03  0.31790579591E+03  0.00000000000E+00 0.  1.
         11    1    1    2    0    0 -0.58031905672E+01  0.14452739421E+02 -0.21379719538E+01  0.15720356917E+02  0.00000000000E+00 0. -1.
<mgrwt>
<rscale>  0 0.18398646E+03</rscale>
<asrwt>0</asrwt>
<pdfrwt beam="2">  1        2 0.67953394E-02 0.20746542E+03</pdfrwt>
<pdfrwt beam="1">  1       -2 0.10218083E+00 0.20746542E+03</pdfrwt>
<totfact> 0.84808554E+02</totfact>
</mgrwt>
</event>
<event>
 7    1  0.5206756E-006  0.1769425E+03  0.7546771E-02  0.1176592E+00
          2   -1    0    0  501    0  0.00000000000E+00  0.00000000000E+00  0.23518176678E+03  0.23518176678E+03  0.00000000000E+00 0. -1.
         -2   -1    0    0    0  501 -0.00000000000E+00 -0.00000000000E+00 -0.12580840325E+03  0.12580840325E+03  0.00000000000E+00 0.  1.
         23    2    1    2    0    0 -0.34411270267E+02  0.12041462794E+03  0.10515271522E+03  0.20582939967E+03  0.12499932044E+03 0.  0.
          5    1    3    3  502    0 -0.16548557114E+02  0.14483226741E+03  0.92445400266E+02  0.17268028971E+03  0.47000000000E+01 0. -1.
         -5    1    3    3    0  502 -0.17862713153E+02 -0.24417639464E+02  0.12707314950E+02  0.33149109964E+02  0.47000000000E+01 0. -1.
        -11    1    1    2    0    0 -0.12588937293E+02 -0.51101251789E+02  0.37942716475E+02  0.64880420853E+02  0.00000000000E+00 0. -1.
         11    1    1    2    0    0  0.47000207560E+02 -0.69313376153E+02 -0.33722068161E+02  0.90280349497E+02  0.00000000000E+00 0.  1.
<mgrwt>
<rscale>  0 0.17121011E+03</rscale>
<asrwt>0</asrwt>
<pdfrwt beam="1">  1        2 0.36181810E-01 0.17694250E+03</pdfrwt>
<pdfrwt beam="2">  1       -2 0.19355139E-01 0.17694250E+03</pdfrwt>
<totfact> 0.31031858E+03</totfact>
</mgrwt>
</event>
<event>
 7    1  0.5206756E-006  0.1550162E+03  0.7546771E-02  0.1202582E+00
         -2   -1    0    0    0  501 -0.00000000000E+00  0.00000000000E+00  0.48604694719E+02  0.48604694719E+02  0.00000000000E+00 0.  1.
          2   -1    0    0  501    0  0.00000000000E+00 -0.00000000000E+00 -0.51028879095E+03  0.51028879095E+03  0.00000000000E+00 0. -1.
         23    2    1    2    0    0 -0.88380479867E+02 -0.24362748526E+02 -0.36641164250E+03  0.39785364304E+03  0.12500150711E+03 0.  0.
          5    1    3    3  502    0 -0.88776567196E+02  0.40075421081E+01 -0.35649152954E+03  0.36743113629E+03  0.47000000000E+01 0. -1.
         -5    1    3    3    0  502  0.39608732893E+00 -0.28370290634E+02 -0.99201129583E+01  0.30422506749E+02  0.47000000000E+01 0. -1.
        -11    1    1    2    0    0  0.82210056001E+02 -0.13373131314E+02 -0.89686566663E+02  0.12239695335E+03  0.00000000000E+00 0. -1.
         11    1    1    2    0    0  0.61704238663E+01  0.37735879840E+02 -0.55858870649E+01  0.38642889285E+02  0.00000000000E+00 0.  1.
<mgrwt>
<rscale>  0 0.14829632E+03</rscale>
<asrwt>0</asrwt>
<pdfrwt beam="2">  1        2 0.78505962E-01 0.15501622E+03</pdfrwt>
<pdfrwt beam="1">  1       -2 0.74776459E-02 0.15501622E+03</pdfrwt>
<totfact> 0.61891625E+03</totfact>
</mgrwt>
</event>
<event>
 7    1  0.5206756E-006  0.1389409E+03  0.7546771E-02  0.1227236E+00
         -2   -1    0    0    0  501 -0.00000000000E+00  0.00000000000E+00  0.16056949139E+02  0.16056949139E+02  0.00000000000E+00 0.  1.
          2   -1    0    0  501    0  0.00000000000E+00 -0.00000000000E+00 -0.95067844903E+03  0.95067844903E+03  0.00000000000E+00 0. -1.
         23    2    1    2    0    0  0.43245328653E+02 -0.42541455781E+02 -0.57449628125E+03  0.59105883508E+03  0.12499854177E+03 0.  0.
          5    1    3    3  502    0 -0.27527138591E+02 -0.16371414139E+02 -0.39455322987E+03  0.39587890542E+03  0.47000000000E+01 0.  1.
         -5    1    3    3    0  502  0.70772467245E+02 -0.26170041641E+02 -0.17994305138E+03  0.19517992966E+03  0.47000000000E+01 0.  1.
        -11    1    1    2    0    0  0.18913506003E+02  0.40386594280E+02 -0.16118406298E+03  0.16723964800E+03  0.00000000000E+00 0.  1.
         11    1    1    2    0    0 -0.62158834657E+02  0.21548615011E+01 -0.19894115566E+03  0.20843691509E+03  0.00000000000E+00 0. -1.
<mgrwt>
<rscale>  0 0.13014834E+03</rscale>
<asrwt>0</asrwt>
<pdfrwt beam="2">  1        2 0.14625823E+00 0.13894088E+03</pdfrwt>
<pdfrwt beam="1">  1       -2 0.24702997E-02 0.13894088E+03</pdfrwt>
<totfact> 0.15275889E+04</totfact>
</mgrwt>
</event>
<event>
 7    1  0.5206756E-006  0.1550036E+03  0.7546771E-02  0.1202725E+00
         -1   -1    0    0    0  501 -0.00000000000E+00  0.00000000000E+00  0.32646961653E+02  0.32646961653E+02  0.00000000000E+00 0.  1.
          1   -1    0    0  501    0  0.00000000000E+00 -0.00000000000E+00 -0.12446341592E+04  0.12446341592E+04  0.00000000000E+00 0. -1.
         23    2    1    2    0    0 -0.87732711004E+02 -0.26546556884E+02 -0.10847162705E+04  0.10957351491E+04  0.12499752480E+03 0.  0.
          5    1    3    3  502    0  0.24841478196E+02  0.37642473307E+01 -0.42592240319E+03  0.42668870636E+03  0.47000000000E+01 0.  1.
         -5    1    3    3    0  502 -0.11257418920E+03 -0.30310804214E+02 -0.65879386729E+03  0.66904644271E+03  0.47000000000E+01 0.  1.
        -11    1    1    2    0    0  0.74909697444E+02 -0.20473294779E+02 -0.96668659531E+02  0.12399777541E+03  0.00000000000E+00 0. -1.
         11    1    1    2    0    0  0.12823013560E+02  0.47019851663E+02 -0.30602267529E+02  0.57548196367E+02  0.00000000000E+00 0.  1.
<mgrwt>
<rscale>  0 0.14818153E+03</rscale>
<asrwt>0</asrwt>
<pdfrwt beam="2">  1        1 0.19148217E+00 0.15500364E+03</pdfrwt>
<pdfrwt beam="1">  1       -1 0.50226097E-02 0.15500364E+03</pdfrwt>
<totfact> 0.18592682E+03</totfact>
</mgrwt>
</event>
<event>
 7    1  0.5206756E-006  0.1508772E+03  0.7546771E-02  0.1207759E+00
         -1   -1    0    0    0  501 -0.00000000000E+00  0.00000000000E+00  0.14674003639E+03  0.14674003639E+03  0.00000000000E+00 0.  1.
          1   -1    0    0  501    0  0.00000000000E+00 -0.00000000000E+00 -0.13848330605E+03  0.13848330605E+03  0.00000000000E+00 0. -1.
         23    2    1    2    0    0  0.74384023679E+02 -0.40067625228E+02 -0.29472630858E+02  0.15372883221E+03  0.12500208123E+03 0.  0.
          5    1    3    3  502    0  0.74470547467E+02 -0.74010801339E+02 -0.47128116313E+02  0.11518077314E+03  0.47000000000E+01 0.  1.
         -5    1    3    3    0  502 -0.86523787474E-01  0.33943176111E+02  0.17655485455E+02  0.38548059063E+02  0.47000000000E+01 0.  1.
        -11    1    1    2    0    0 -0.28031025554E+02  0.64509094294E+02  0.36118173257E+02  0.79067591842E+02  0.00000000000E+00 0. -1.
         11    1    1    2    0    0 -0.46352998125E+02 -0.24441469066E+02  0.16111879345E+01  0.52426918390E+02  0.00000000000E+00 0.  1.
<mgrwt>
<rscale>  0 0.14422167E+03</rscale>
<asrwt>0</asrwt>
<pdfrwt beam="2">  1        1 0.21305124E-01 0.15087716E+03</pdfrwt>
<pdfrwt beam="1">  1       -1 0.22575390E-01 0.15087716E+03</pdfrwt>
<totfact> 0.37543080E+03</totfact>
</mgrwt>
</event>
<event>
 7    1  0.5206756E-006  0.1338593E+03  0.7546771E-02  0.1233930E+00
         -1   -1    0    0    0  501 -0.00000000000E+00  0.00000000000E+00  0.50865368794E+02  0.50865368794E+02  0.00000000000E+00 0.  1.
          1   -1    0    0  501    0  0.00000000000E+00 -0.00000000000E+00 -0.44143943359E+03  0.44143943359E+03  0.00000000000E+00 0. -1.
         23    2    1    2    0    0 -0.47930625278E+02 -0.25773967406E+01 -0.35944529419E+03  0.38356123507E+03  0.12495724757E+03 0.  0.
          5    1    3    3  502    0 -0.13963471948E+02 -0.16127913654E+02  0.38403651341E+00  0.21847783222E+02  0.47000000000E+01 0.  1.
         -5    1    3    3    0  502 -0.33967153331E+02  0.13550516913E+02 -0.35982933071E+03  0.36171345185E+03  0.47000000000E+01 0.  1.
        -11    1    1    2    0    0  0.19196857585E+02 -0.30157309164E+02  0.20488933283E+02  0.41204114166E+02  0.00000000000E+00 0.  1.
         11    1    1    2    0    0  0.28733767693E+02  0.32734705904E+02 -0.51617703884E+02  0.67539453142E+02  0.00000000000E+00 0. -1.
<mgrwt>
<rscale>  0 0.12573201E+03</rscale>
<asrwt>0</asrwt>
<pdfrwt beam="2">  1        1 0.67913758E-01 0.13385926E+03</pdfrwt>
<pdfrwt beam="1">  1       -1 0.78254414E-02 0.13385926E+03</pdfrwt>
<totfact> 0.45731533E+03</totfact>
</mgrwt>
</event>
<event>
 7    1  0.5206756E-006  0.1717888E+03  0.7546771E-02  0.1182055E+00
         -2   -1    0    0    0  501 -0.00000000000E+00  0.00000000000E+00  0.31911577608E+03  0.31911577608E+03  0.00000000000E+00 0.  1.
          2   -1    0    0  501    0  0.00000000000E+00 -0.00000000000E+00 -0.82186172360E+02  0.82186172360E+02  0.00000000000E+00 0. -1.
         23    2    1    2    0    0  0.40575428034E+02  0.11063165896E+03  0.10297668689E+03  0.20028876051E+03  0.12500264084E+03 0.  0.
          5    1    3    3  502    0  0.38750015442E+02  0.13746556870E+03  0.95855690254E+02  0.17207193156E+03  0.47000000000E+01 0. -1.
         -5    1    3    3    0  502  0.18254125918E+01 -0.26833909739E+02  0.71209966312E+01  0.28216828950E+02  0.47000000000E+01 0. -1.
        -11    1    1    2    0    0 -0.70172515435E+02 -0.85510514739E+02  0.10570683798E+03  0.15300380926E+03  0.00000000000E+00 0.  1.
         11    1    1    2    0    0  0.29597087401E+02 -0.25121144225E+02  0.28246078861E+02  0.48009378675E+02  0.00000000000E+00 0. -1.
<mgrwt>
<rscale>  0 0.16602726E+03</rscale>
<asrwt>0</asrwt>
<pdfrwt beam="2">  1        2 0.12644027E-01 0.17178879E+03</pdfrwt>
<pdfrwt beam="1">  1       -2 0.49094734E-01 0.17178879E+03</pdfrwt>
<totfact> 0.18704521E+03</totfact>
</mgrwt>
</event>
<event>
 7    1  0.5206756E-006  0.2422799E+03  0.7546771E-02  0.1120831E+00
         -2   -1    0    0    0  501 -0.00000000000E+00  0.00000000000E+00  0.50581536557E+02  0.50581536557E+02  0.00000000000E+00 0.  1.
          2   -1    0    0  501    0  0.00000000000E+00 -0.00000000000E+00 -0.10924803133E+04  0.10924803133E+04  0.00000000000E+00 0. -1.
         23    2    1    2    0    0  0.19092623902E+03 -0.81366221180E+02 -0.50985112389E+03  0.56448890308E+03  0.12500504982E+03 0.  0.
          5    1    3    3  502    0  0.31027898071E+02  0.32240540046E+02 -0.75696798481E+02  0.88058379394E+02  0.47000000000E+01 0.  1.
         -5    1    3    3    0  502  0.15989834095E+03 -0.11360676123E+03 -0.43415432541E+03  0.47643052369E+03  0.47000000000E+01 0.  1.
        -11    1    1    2    0    0 -0.13786264203E+03  0.20876448190E+02 -0.26200965573E+03  0.29680126996E+03  0.00000000000E+00 0.  1.
         11    1    1    2    0    0 -0.53063596985E+02  0.60489772989E+02 -0.27003799717E+03  0.28177167685E+03  0.00000000000E+00 0. -1.
<mgrwt>
<rscale>  0 0.23844867E+03</rscale>
<asrwt>0</asrwt>
<pdfrwt beam="2">  1        2 0.16807391E+00 0.24227991E+03</pdfrwt>
<pdfrwt beam="1">  1       -2 0.77817742E-02 0.24227991E+03</pdfrwt>
<totfact> 0.22758511E+03</totfact>
</mgrwt>
</event>
<event>
 7    1  0.5206756E-006  0.2052995E+03  0.7546771E-02  0.1149313E+00
          2   -1    0    0  501    0  0.00000000000E+00  0.00000000000E+00  0.84356006716E+02  0.84356006716E+02  0.00000000000E+00 0. -1.
         -2   -1    0    0    0  501 -0.00000000000E+00 -0.00000000000E+00 -0.46560220313E+03  0.46560220313E+03  0.00000000000E+00 0.  1.
         23    2    1    2    0    0 -0.16255856703E+03  0.10083541034E+02 -0.15917300672E+03  0.25977669152E+03  0.12498367042E+03 0.  0.
          5    1    3    3  502    0 -0.84775889324E+02  0.14405383508E+02 -0.41530698217E+01  0.86219513299E+02  0.47000000000E+01 0. -1.
         -5    1    3    3    0  502 -0.77782677704E+02 -0.43218424739E+01 -0.15501993690E+03  0.17355717822E+03  0.47000000000E+01 0. -1.
        -11    1    1    2    0    0  0.95743625837E+02  0.13556397310E+02 -0.61330935693E+02  0.11450808473E+03  0.00000000000E+00 0. -1.
         11    1    1    2    0    0  0.66814941191E+02 -0.23639938344E+02 -0.16074225399E+03  0.17567343359E+03  0.00000000000E+00 0.  1.
<mgrwt>
<rscale>  0 0.20050568E+03</rscale>
<asrwt>0</asrwt>
<pdfrwt beam="1">  1        2 0.12977847E-01 0.20529950E+03</pdfrwt>
<pdfrwt beam="2">  1       -2 0.71631110E-01 0.20529950E+03</pdfrwt>
<totfact> 0.83683292E+02</totfact>
</mgrwt>
</event>
<event>
 7    1  0.5206756E-006  0.1299081E+03  0.7546771E-02  0.1236937E+00
         -3   -1    0    0    0  501 -0.00000000000E+00  0.00000000000E+00  0.59638655531E+02  0.59638655531E+02  0.00000000000E+00 0.  1.
          3   -1    0    0  501    0  0.00000000000E+00 -0.00000000000E+00 -0.23642846547E+03  0.23642846547E+03  0.00000000000E+00 0. -1.
         23    2    1    2    0    0  0.46995324089E+01 -0.50274492999E+02 -0.10531832101E+03  0.16723657272E+03  0.11969340944E+03 0.  0.
          5    1    3    3  502    0 -0.22163179073E+02  0.11300318091E+02 -0.95962639669E+02  0.99246268987E+02  0.47000000000E+01 0. -1.
         -5    1    3    3    0  502  0.26862711482E+02 -0.61574811090E+02 -0.93556813460E+01  0.67990303738E+02  0.47000000000E+01 0.  1.
        -11    1    1    2    0    0  0.39507819239E+02  0.19624545607E+02 -0.66762086368E+01  0.44615718453E+02  0.00000000000E+00 0.  1.
         11    1    1    2    0    0 -0.44207351648E+02  0.30649947392E+02 -0.64795280289E+02  0.84214829826E+02  0.00000000000E+00 0. -1.
<mgrwt>
<rscale>  0 0.12381212E+03</rscale>
<asrwt>0</asrwt>
<pdfrwt beam="2">  1        3 0.36373609E-01 0.12990813E+03</pdfrwt>
<pdfrwt beam="1">  1       -3 0.91751780E-02 0.12990813E+03</pdfrwt>
<totfact> 0.14493741E+03</totfact>
</mgrwt>
</event>
<event>
 7    1  0.5206756E-006  0.2308335E+03  0.7546771E-02  0.1128843E+00
          1   -1    0    0  501    0  0.00000000000E+00  0.00000000000E+00  0.12861287574E+03  0.12861287574E+03  0.00000000000E+00 0. -1.
         -1   -1    0    0    0  501 -0.00000000000E+00 -0.00000000000E+00 -0.45300857769E+03  0.45300857769E+03  0.00000000000E+00 0.  1.
         23    2    1    2    0    0 -0.83391469567E+02  0.17522954391E+03 -0.56190986333E+02  0.23757427349E+03  0.12499831289E+03 0.  0.
          5    1    3    3  502    0 -0.69058501822E+02  0.14149833211E+03 -0.95030103808E+02  0.18396647872E+03  0.47000000000E+01 0.  1.
         -5    1    3    3    0  502 -0.14332967746E+02  0.33731211806E+02  0.38839117475E+02  0.53607794775E+02  0.47000000000E+01 0.  1.
        -11    1    1    2    0    0  0.30019395179E+02 -0.35523770407E+02 -0.13844216561E+03  0.14604566262E+03  0.00000000000E+00 0.  1.
         11    1    1    2    0    0  0.53372074388E+02 -0.13970577351E+03 -0.12976255001E+03  0.19800151732E+03  0.00000000000E+00 0. -1.
<mgrwt>
<rscale>  0 0.22689737E+03</rscale>
<asrwt>0</asrwt>
<pdfrwt beam="1">  1        1 0.19786596E-01 0.23083351E+03</pdfrwt>
<pdfrwt beam="2">  1       -1 0.69693628E-01 0.23083351E+03</pdfrwt>
<totfact> 0.56140301E+02</totfact>
</mgrwt>
</event>
<event>
 7    1  0.5206756E-006  0.1563389E+03  0.7546771E-02  0.1201439E+00
          2   -1    0    0  501    0  0.00000000000E+00  0.00000000000E+00  0.25214298891E+04  0.25214298891E+04  0.00000000000E+00 0. -1.
         -2   -1    0    0    0  501 -0.00000000000E+00 -0.00000000000E+00 -0.11758174225E+02  0.11758174225E+02  0.00000000000E+00 0.  1.
         23    2    1    2    0    0 -0.53891591432E+02 -0.76899749979E+02  0.20383437176E+04  0.20443304400E+04  0.12499584606E+03 0.  0.
          5    1    3    3  502    0 -0.53377394051E+02  0.21287165753E+02  0.68602206342E+03  0.68844073901E+03  0.47000000000E+01 0. -1.
         -5    1    3    3    0  502 -0.51419738039E+00 -0.98186915732E+02  0.13523216542E+04  0.13558897010E+04  0.47000000000E+01 0. -1.
        -11    1    1    2    0    0 -0.22327738155E+02  0.36726329440E+02  0.17969346405E+03  0.18476225856E+03  0.00000000000E+00 0.  1.
         11    1    1    2    0    0  0.76219329586E+02  0.40173420539E+02  0.29163453319E+03  0.30409536476E+03  0.00000000000E+00 0. -1.
<mgrwt>
<rscale>  0 0.14921627E+03</rscale>
<asrwt>0</asrwt>
<pdfrwt beam="1">  1        2 0.38791186E+00 0.15633885E+03</pdfrwt>
<pdfrwt beam="2">  1       -2 0.18089519E-02 0.15633885E+03</pdfrwt>
<totfact> 0.35189874E+03</totfact>
</mgrwt>
</event>
<event>
 7    1  0.5206756E-006  0.1393456E+03  0.7546771E-02  0.1224963E+00
         -1   -1    0    0    0  501 -0.00000000000E+00  0.00000000000E+00  0.98267172521E+02  0.98267172521E+02  0.00000000000E+00 0.  1.
          1   -1    0    0  501    0  0.00000000000E+00 -0.00000000000E+00 -0.17765530219E+03  0.17765530219E+03  0.00000000000E+00 0. -1.
         23    2    1    2    0    0  0.54945235549E+01  0.61382415702E+02 -0.87362926871E+02  0.16446722182E+03  0.12497677911E+03 0.  0.
          5    1    3    3  502    0 -0.54941544847E+02  0.20661522948E+02 -0.13122218405E+02  0.60330377892E+02  0.47000000000E+01 0. -1.
         -5    1    3    3    0  502  0.60436068402E+02  0.40720892754E+02 -0.74240708466E+02  0.10413684393E+03  0.47000000000E+01 0. -1.
        -11    1    1    2    0    0  0.39788110129E+02 -0.50129758787E+02 -0.65534306408E+00  0.64004030328E+02  0.00000000000E+00 0.  1.
         11    1    1    2    0    0 -0.45282633684E+02 -0.11252656915E+02  0.86301402685E+01  0.47451222556E+02  0.00000000000E+00 0. -1.
<mgrwt>
<rscale>  0 0.13169411E+03</rscale>
<asrwt>0</asrwt>
<pdfrwt beam="2">  1        1 0.27331585E-01 0.13934556E+03</pdfrwt>
<pdfrwt beam="1">  1       -1 0.15118027E-01 0.13934556E+03</pdfrwt>
<totfact> 0.51811502E+03</totfact>
</mgrwt>
</event>
<event>
 7    1  0.5206756E-006  0.1274432E+03  0.7546771E-02  0.1254680E+00
         -3   -1    0    0    0  501 -0.00000000000E+00  0.00000000000E+00  0.21790116031E+02  0.21790116031E+02  0.00000000000E+00 0.  1.
          3   -1    0    0  501    0  0.00000000000E+00 -0.00000000000E+00 -0.63092266463E+03  0.63092266463E+03  0.00000000000E+00 0. -1.
         23    2    1    2    0    0 -0.37941834267E+01 -0.24554790158E+02 -0.50994358534E+03  0.52562746205E+03  0.12499774032E+03 0.  0.
          5    1    3    3  502    0  0.11658257092E+02  0.35178542983E+02 -0.37859018693E+03  0.38042879029E+03  0.47000000000E+01 0.  1.
         -5    1    3    3    0  502 -0.15452440519E+02 -0.59733333141E+02 -0.13135339841E+03  0.14519867175E+03  0.47000000000E+01 0.  1.
        -11    1    1    2    0    0  0.85412113392E+01  0.37171856859E+02 -0.10551316977E+03  0.11219504547E+03  0.00000000000E+00 0. -1.
         11    1    1    2    0    0 -0.47470279125E+01 -0.12617066701E+02  0.63242065113E+01  0.14890273138E+02  0.00000000000E+00 0.  1.
<mgrwt>
<rscale>  0 0.11324273E+03</rscale>
<asrwt>0</asrwt>
<pdfrwt beam="2">  1        3 0.97065025E-01 0.12744320E+03</pdfrwt>
<pdfrwt beam="1">  1       -3 0.33523255E-02 0.12744320E+03</pdfrwt>
<totfact> 0.95068704E+02</totfact>
</mgrwt>
</event>
<event>
 7    1  0.5206756E-006  0.2184250E+03  0.7546771E-02  0.1137985E+00
          2   -1    0    0  501    0  0.00000000000E+00  0.00000000000E+00  0.36748922480E+03  0.36748922480E+03  0.00000000000E+00 0. -1.
         -2   -1    0    0    0  501 -0.00000000000E+00 -0.00000000000E+00 -0.13968678196E+03  0.13968678196E+03  0.00000000000E+00 0.  1.
         23    2    1    2    0    0  0.66645757418E+02  0.16626333020E+03  0.20987884641E+03  0.30291686142E+03  0.12499737121E+03 0.  0.
          5    1    3    3  502    0 -0.28011983287E+01  0.26069591012E+00 -0.14358697831E+02  0.15368047301E+02  0.47000000000E+01 0.  1.
         -5    1    3    3    0  502  0.69446955747E+02  0.16600263429E+03  0.22423754424E+03  0.28754881412E+03  0.47000000000E+01 0.  1.
        -11    1    1    2    0    0  0.28562666018E+01 -0.80052504135E+02 -0.27321859823E+02  0.84634778320E+02  0.00000000000E+00 0.  1.
         11    1    1    2    0    0 -0.69502024020E+02 -0.86210826062E+02  0.45245456250E+02  0.11962436702E+03  0.00000000000E+00 0. -1.
<mgrwt>
<rscale>  0 0.21458658E+03</rscale>
<asrwt>0</asrwt>
<pdfrwt beam="1">  1        2 0.56536804E-01 0.21842503E+03</pdfrwt>
<pdfrwt beam="2">  1       -2 0.21490274E-01 0.21842503E+03</pdfrwt>
<totfact> 0.16169839E+03</totfact>
</mgrwt>
</event>
<event>
 7    1  0.5206756E-006  0.1316060E+03  0.7546771E-02  0.1241492E+00
          2   -1    0    0  501    0  0.00000000000E+00  0.00000000000E+00  0.63231049590E+03  0.63231049590E+03  0.00000000000E+00 0. -1.
         -2   -1    0    0    0  501 -0.00000000000E+00 -0.00000000000E+00 -0.20393808587E+02  0.20393808587E+02  0.00000000000E+00 0.  1.
         23    2    1    2    0    0  0.40525695449E+02  0.72634808643E+01  0.39367937982E+03  0.41509469398E+03  0.12500024292E+03 0.  0.
          5    1    3    3  502    0  0.39741797754E+02 -0.30817773677E+02  0.56692221688E+02  0.75929201649E+02  0.47000000000E+01 0.  1.
         -5    1    3    3    0  502  0.78389769581E+00  0.38081254541E+02  0.33698715813E+03  0.33916549234E+03  0.47000000000E+01 0.  1.
        -11    1    1    2    0    0  0.96686859990E+01  0.65807164159E+01 -0.14963771466E+01  0.11791033121E+02  0.00000000000E+00 0.  1.
         11    1    1    2    0    0 -0.50194381448E+02 -0.13844197280E+02  0.21973368464E+03  0.22581857738E+03  0.00000000000E+00 0. -1.
<mgrwt>
<rscale>  0 0.12097814E+03</rscale>
<asrwt>0</asrwt>
<pdfrwt beam="1">  1        2 0.97278523E-01 0.13160604E+03</pdfrwt>
<pdfrwt beam="2">  1       -2 0.31375095E-02 0.13160604E+03</pdfrwt>
<totfact> 0.17732234E+04</totfact>
</mgrwt>
</event>
<event>
 7    1  0.6428652E-006  0.3333775E+03  0.7546771E-02  0.1070880E+00
          2   -1    0    0  501    0  0.00000000000E+00  0.00000000000E+00  0.97585502948E+03  0.97585502948E+03  0.00000000000E+00 0.  1.
         -2   -1    0    0    0  501 -0.00000000000E+00 -0.00000000000E+00 -0.14188018752E+03  0.14188018752E+03  0.00000000000E+00 0. -1.
         23    2    1    2    0    0  0.68802858443E+02 -0.30129962951E+03  0.68670812505E+03  0.76335354544E+03  0.12500114497E+03 0.  0.
          5    1    3    3  502    0  0.66888603844E+02 -0.10428113057E+03  0.17056369468E+03  0.21086181129E+03  0.47000000000E+01 0.  1.
         -5    1    3    3    0  502  0.19142545993E+01 -0.19701849894E+03  0.51614443037E+03  0.55249173415E+03  0.47000000000E+01 0.  1.
        -11    1    1    2    0    0 -0.33208592225E+02  0.26986636804E+03  0.10727665976E+03  0.29229941657E+03  0.00000000000E+00 0. -1.
         11    1    1    2    0    0 -0.35594266219E+02  0.31433261470E+02  0.39990057146E+02  0.62082254991E+02  0.00000000000E+00 0.  1.
<mgrwt>
<rscale>  0 0.33058155E+03</rscale>
<asrwt>0</asrwt>
<pdfrwt beam="1">  1        2 0.15013154E+00 0.33337754E+03</pdfrwt>
<pdfrwt beam="2">  1       -2 0.21827722E-01 0.33337754E+03</pdfrwt>
<totfact> 0.49094855E+02</totfact>
</mgrwt>
</event>
<event>
 6    1  0.5206756E-006  0.3433773E+03  0.7546771E-02  0.1081528E+00
          2   -1    0    0  501    0  0.00000000000E+00  0.00000000000E+00  0.15619855960E+04  0.15619855960E+04  0.00000000000E+00 0. -1.
         -2   -1    0    0    0  501 -0.00000000000E+00 -0.00000000000E+00 -0.52675480112E+02  0.52675480112E+02  0.00000000000E+00 0.  1.
          5    1    1    2  502    0 -0.26346384071E+02  0.28168299970E+02  0.82696953439E+03  0.82788180671E+03  0.47000000000E+01 0. -1.
         -5    1    1    2    0  502 -0.10610617866E+03  0.12649152973E+03  0.22783344333E+03  0.28140503930E+03  0.47000000000E+01 0.  1.
        -11    1    1    2    0    0  0.30721733151E+01 -0.61010824035E+02  0.13455278590E+03  0.14777080596E+03  0.00000000000E+00 0.  1.
         11    1    1    2    0    0  0.12938038942E+03 -0.93649005665E+02  0.31995435228E+03  0.35760342416E+03  0.00000000000E+00 0. -1.
<mgrwt>
<rscale>  0 0.30754631E+03</rscale>
<asrwt>0</asrwt>
<pdfrwt beam="1">  1        2 0.24030544E+00 0.34337732E+03</pdfrwt>
<pdfrwt beam="2">  1       -2 0.81039212E-02 0.34337732E+03</pdfrwt>
<totfact> 0.11667466E+03</totfact>
</mgrwt>
</event>
<event>
 7    1  0.5206756E-006  0.1441102E+03  0.7546771E-02  0.1219770E+00
          1   -1    0    0  501    0  0.00000000000E+00  0.00000000000E+00  0.15975520739E+03  0.15975520739E+03  0.00000000000E+00 0.  1.
         -1   -1    0    0    0  501 -0.00000000000E+00 -0.00000000000E+00 -0.14269031349E+03  0.14269031349E+03  0.00000000000E+00 0. -1.
         23    2    1    2    0    0  0.33263480458E+02  0.63533105936E+02  0.88932495424E+02  0.16934209693E+03  0.12499936947E+03 0.  0.
          5    1    3    3  502    0  0.77840244848E+02  0.24555439198E+02  0.34377017474E+02  0.88690149637E+02  0.47000000000E+01 0.  1.
         -5    1    3    3    0  502 -0.44576764390E+02  0.38977666737E+02  0.54555477951E+02  0.80651947293E+02  0.47000000000E+01 0.  1.
        -11    1    1    2    0    0  0.24024821708E+02 -0.34181747507E+02 -0.49915945122E+02  0.65093667113E+02  0.00000000000E+00 0. -1.
         11    1    1    2    0    0 -0.57288302166E+02 -0.29351358428E+02 -0.21951656403E+02  0.68009756840E+02  0.00000000000E+00 0.  1.
<mgrwt>
<rscale>  0 0.13531887E+03</rscale>
<asrwt>0</asrwt>
<pdfrwt beam="1">  1        1 0.24577724E-01 0.14411023E+03</pdfrwt>
<pdfrwt beam="2">  1       -1 0.21952356E-01 0.14411023E+03</pdfrwt>
<totfact> 0.32720304E+03</totfact>
</mgrwt>
</event>
<event>
 7    1  0.5206756E-006  0.1588633E+03  0.7546771E-02  0.1197524E+00
         -1   -1    0    0    0  501 -0.00000000000E+00  0.00000000000E+00  0.59856799453E+02  0.59856799453E+02  0.00000000000E+00 0.  1.
          1   -1    0    0  501    0  0.00000000000E+00 -0.00000000000E+00 -0.45113863886E+03  0.45113863886E+03  0.00000000000E+00 0. -1.
         23    2    1    2    0    0  0.89762726247E+02 -0.39070103946E+02 -0.32318391727E+03  0.36011856773E+03  0.12511482085E+03 0.  0.
          5    1    3    3  502    0  0.61690253676E+02  0.35646089059E+02 -0.98691760995E+02  0.12181331927E+03  0.47000000000E+01 0.  1.
         -5    1    3    3    0  502  0.28072472571E+02 -0.74716193005E+02 -0.22449215627E+03  0.23830524845E+03  0.47000000000E+01 0.  1.
        -11    1    1    2    0    0 -0.42514774566E+02 -0.26366629137E+00  0.17090228617E+02  0.45821954242E+02  0.00000000000E+00 0.  1.
         11    1    1    2    0    0 -0.47247951680E+02  0.39333770237E+02 -0.85188150759E+02  0.10505491635E+03  0.00000000000E+00 0. -1.
<mgrwt>
<rscale>  0 0.15242524E+03</rscale>
<asrwt>0</asrwt>
<pdfrwt beam="2">  1        1 0.69405945E-01 0.15886327E+03</pdfrwt>
<pdfrwt beam="1">  1       -1 0.92087383E-02 0.15886327E+03</pdfrwt>
<totfact> 0.35027126E+03</totfact>
</mgrwt>
</event>
<event>
 7    1  0.5206756E-006  0.1576848E+03  0.7546771E-02  0.1199045E+00
          2   -1    0    0  501    0  0.00000000000E+00  0.00000000000E+00  0.86654393245E+03  0.86654393245E+03  0.00000000000E+00 0. -1.
         -2   -1    0    0    0  501 -0.00000000000E+00 -0.00000000000E+00 -0.24941020608E+02  0.24941020608E+02  0.00000000000E+00 0.  1.
         23    2    1    2    0    0 -0.51789828574E+02  0.80977590022E+02  0.39065357714E+03  0.42127748756E+03  0.12499979107E+03 0.  0.
          5    1    3    3  502    0 -0.16196873331E+02  0.10053299702E+03  0.34614318078E+03  0.36084125844E+03  0.47000000000E+01 0.  1.
         -5    1    3    3    0  502 -0.35592955243E+02 -0.19555407003E+02  0.44510396364E+02  0.60436229122E+02  0.47000000000E+01 0.  1.
        -11    1    1    2    0    0 -0.10846501228E+02  0.15015825097E+02  0.67119504652E+02  0.69628654281E+02  0.00000000000E+00 0.  1.
         11    1    1    2    0    0  0.62636329802E+02 -0.95993415118E+02  0.38382983005E+03  0.40057881121E+03  0.00000000000E+00 0. -1.
<mgrwt>
<rscale>  0 0.15116836E+03</rscale>
<asrwt>0</asrwt>
<pdfrwt beam="1">  1        2 0.13331443E+00 0.15768483E+03</pdfrwt>
<pdfrwt beam="2">  1       -2 0.38370808E-02 0.15768483E+03</pdfrwt>
<totfact> 0.90841366E+03</totfact>
</mgrwt>
</event>
<event>
 7    1  0.5206756E-006  0.1256323E+03  0.7546771E-02  0.1245278E+00
         -1   -1    0    0    0  501 -0.00000000000E+00  0.00000000000E+00  0.21037386794E+02  0.21037386794E+02  0.00000000000E+00 0.  1.
          1   -1    0    0  501    0  0.00000000000E+00 -0.00000000000E+00 -0.60598209284E+03  0.60598209284E+03  0.00000000000E+00 0. -1.
         23    2    1    2    0    0 -0.11030931139E+02 -0.60282682473E+01 -0.31578852673E+03  0.33986154960E+03  0.12500183129E+03 0.  0.
          5    1    3    3  502    0 -0.21883897223E+02 -0.52598891358E+02 -0.74865347806E+02  0.94193729260E+02  0.47000000000E+01 0. -1.
         -5    1    3    3    0  502  0.10852966085E+02  0.46570623110E+02 -0.24092317892E+03  0.24566782034E+03  0.47000000000E+01 0. -1.
        -11    1    1    2    0    0  0.39391369524E+02 -0.87653772178E+01 -0.24157323591E+03  0.24492068132E+03  0.00000000000E+00 0. -1.
         11    1    1    2    0    0 -0.28360438385E+02  0.14793645465E+02 -0.27582943407E+02  0.42237248709E+02  0.00000000000E+00 0.  1.
<mgrwt>
<rscale>  0 0.11868761E+03</rscale>
<asrwt>0</asrwt>
<pdfrwt beam="2">  1        1 0.93228018E-01 0.12563232E+03</pdfrwt>
<pdfrwt beam="1">  1       -1 0.32365209E-02 0.12563232E+03</pdfrwt>
<totfact> 0.11088640E+04</totfact>
</mgrwt>
</event>
<event>
 7    1  0.5206756E-006  0.1313663E+03  0.7546771E-02  0.1239063E+00
          2   -1    0    0  501    0  0.00000000000E+00  0.00000000000E+00  0.50529189679E+02  0.50529189679E+02  0.00000000000E+00 0. -1.
         -2   -1    0    0    0  501 -0.00000000000E+00 -0.00000000000E+00 -0.26375724750E+03  0.26375724750E+03  0.00000000000E+00 0.  1.
         23    2    1    2    0    0  0.40273843173E+02 -0.32857261955E+01 -0.11406168976E+03  0.17397464629E+03  0.12499732014E+03 0.  0.
          5    1    3    3  502    0  0.60625093846E+02  0.44335440403E+02 -0.88063351296E+02  0.11583728727E+03  0.47000000000E+01 0.  1.
         -5    1    3    3    0  502 -0.20351250673E+02 -0.47621166598E+02 -0.25998338460E+02  0.58137359028E+02  0.47000000000E+01 0.  1.
        -11    1    1    2    0    0 -0.38765556961E+02 -0.15593549126E+02 -0.11057170519E+03  0.11820333823E+03  0.00000000000E+00 0.  1.
         11    1    1    2    0    0 -0.15082862122E+01  0.18879275321E+02  0.11405337121E+02  0.22108452655E+02  0.00000000000E+00 0. -1.
<mgrwt>
<rscale>  0 0.12247895E+03</rscale>
<asrwt>0</asrwt>
<pdfrwt beam="1">  1        2 0.77737214E-02 0.13136631E+03</pdfrwt>
<pdfrwt beam="2">  1       -2 0.40578039E-01 0.13136631E+03</pdfrwt>
<totfact> 0.48483241E+03</totfact>
</mgrwt>
</event>
<event>
 7    1  0.5206756E-006  0.1304604E+03  0.7546771E-02  0.1246283E+00
          2   -1    0    0  501    0  0.00000000000E+00  0.00000000000E+00  0.95374206865E+02  0.95374206865E+02  0.00000000000E+00 0. -1.
         -2   -1    0    0    0  501 -0.00000000000E+00 -0.00000000000E+00 -0.13365323210E+03  0.13365323210E+03  0.00000000000E+00 0.  1.
         23    2    1    2    0    0 -0.29339213349E+02 -0.23142250815E+02  0.65808059711E+01  0.13062628239E+03  0.12499426160E+03 0.  0.
          5    1    3    3  502    0 -0.14536085196E+00  0.49509539841E+02  0.14462174193E+02  0.51792471918E+02  0.47000000000E+01 0.  1.
         -5    1    3    3    0  502 -0.29193852497E+02 -0.72651790656E+02 -0.78813682217E+01  0.78833810476E+02  0.47000000000E+01 0.  1.
        -11    1    1    2    0    0 -0.10247626382E+02  0.21727775969E+02  0.13735468114E+02  0.27672607021E+02  0.00000000000E+00 0. -1.
         11    1    1    2    0    0  0.39586839731E+02  0.14144748452E+01 -0.58595299321E+02  0.70728549550E+02  0.00000000000E+00 0.  1.
<mgrwt>
<rscale>  0 0.11808947E+03</rscale>
<asrwt>0</asrwt>
<pdfrwt beam="1">  1        2 0.14672955E-01 0.13046041E+03</pdfrwt>
<pdfrwt beam="2">  1       -2 0.20562036E-01 0.13046041E+03</pdfrwt>
<totfact> 0.75512685E+03</totfact>
</mgrwt>
</event>
<event>
 7    1  0.5206756E-006  0.2003996E+03  0.7546771E-02  0.1153633E+00
         -2   -1    0    0    0  501 -0.00000000000E+00  0.00000000000E+00  0.19052662987E+03  0.19052662987E+03  0.00000000000E+00 0.  1.
          2   -1    0    0  501    0  0.00000000000E+00 -0.00000000000E+00 -0.27454215109E+03  0.27454215109E+03  0.00000000000E+00 0. -1.
         23    2    1    2    0    0  0.11398795709E+03 -0.10743476777E+03 -0.17147036798E+03  0.26374628876E+03  0.12499813619E+03 0.  0.
          5    1    3    3  502    0  0.34856378778E+02  0.21241128771E+02 -0.71739191676E+02  0.82672572932E+02  0.47000000000E+01 0.  1.
         -5    1    3    3    0  502  0.79131578315E+02 -0.12867589654E+03 -0.99731176305E+02  0.18107371583E+03  0.47000000000E+01 0.  1.
        -11    1    1    2    0    0 -0.10243771598E+03  0.69119885617E+02  0.23365914472E+02  0.12576569565E+03  0.00000000000E+00 0. -1.
         11    1    1    2    0    0 -0.11550241112E+02  0.38314882152E+02  0.64088932282E+02  0.75556796551E+02  0.00000000000E+00 0.  1.
<mgrwt>
<rscale>  0 0.19545336E+03</rscale>
<asrwt>0</asrwt>
<pdfrwt beam="2">  1        2 0.42237254E-01 0.20039965E+03</pdfrwt>
<pdfrwt beam="1">  1       -2 0.29311789E-01 0.20039965E+03</pdfrwt>
<totfact> 0.12773056E+03</totfact>
</mgrwt>
</event>
<event>
 7    1  0.5206756E-006  0.1423502E+03  0.7546771E-02  0.1221177E+00
         -1   -1    0    0    0  501 -0.00000000000E+00  0.00000000000E+00  0.46316677380E+02  0.46316677380E+02  0.00000000000E+00 0.  1.
          1   -1    0    0  501    0  0.00000000000E+00 -0.00000000000E+00 -0.35170071270E+03  0.35170071270E+03  0.00000000000E+00 0. -1.
         23    2    1    2    0    0  0.48760913428E+02 -0.47542977214E+02 -0.17431006220E+03  0.22505016150E+03  0.12500246416E+03 0.  0.
          5    1    3    3  502    0  0.70835019344E+02 -0.55619850043E+02 -0.60156338322E+02  0.10840683892E+03  0.47000000000E+01 0. -1.
         -5    1    3    3    0  502 -0.22074105916E+02  0.80768728291E+01 -0.11415372388E+03  0.11664332258E+03  0.47000000000E+01 0. -1.
        -11    1    1    2    0    0  0.17063890829E+02  0.17540834405E+02 -0.14383745945E+01  0.24513795367E+02  0.00000000000E+00 0.  1.
         11    1    1    2    0    0 -0.65824804257E+02  0.30002142809E+02 -0.12963559853E+03  0.14845343322E+03  0.00000000000E+00 0. -1.
<mgrwt>
<rscale>  0 0.13432384E+03</rscale>
<asrwt>0</asrwt>
<pdfrwt beam="2">  1        1 0.54107804E-01 0.14235019E+03</pdfrwt>
<pdfrwt beam="1">  1       -1 0.71256425E-02 0.14235019E+03</pdfrwt>
<totfact> 0.70366315E+03</totfact>
</mgrwt>
</event>
<event>
 7    1  0.5206756E-006  0.1256005E+03  0.7546771E-02  0.1249231E+00
         -1   -1    0    0    0  501 -0.00000000000E+00  0.00000000000E+00  0.19875142567E+02  0.19875142567E+02  0.00000000000E+00 0.  1.
          1   -1    0    0  501    0  0.00000000000E+00 -0.00000000000E+00 -0.61416227552E+03  0.61416227552E+03  0.00000000000E+00 0. -1.
         23    2    1    2    0    0  0.63954185136E+01 -0.10485424947E+02 -0.39128112420E+03  0.41094574518E+03  0.12499856726E+03 0.  0.
          5    1    3    3  502    0  0.34666841147E+02 -0.25132048748E+02 -0.41924183487E+02  0.60109374564E+02  0.47000000000E+01 0. -1.
         -5    1    3    3    0  502 -0.28271422633E+02  0.14646623801E+02 -0.34935694071E+03  0.35083637062E+03  0.47000000000E+01 0. -1.
        -11    1    1    2    0    0 -0.39619525952E+02  0.12597466836E+02 -0.43591295668E+02  0.60237895592E+02  0.00000000000E+00 0.  1.
         11    1    1    2    0    0  0.33224107439E+02 -0.21120418884E+01 -0.15941471309E+03  0.16285377731E+03  0.00000000000E+00 0. -1.
<mgrwt>
<rscale>  0 0.11635712E+03</rscale>
<asrwt>0</asrwt>
<pdfrwt beam="2">  1        1 0.94486499E-01 0.12560051E+03</pdfrwt>
<pdfrwt beam="1">  1       -1 0.30577144E-02 0.12560051E+03</pdfrwt>
<totfact> 0.11826177E+04</totfact>
</mgrwt>
</event>
<event>
 7    1  0.5206756E-006  0.1457112E+03  0.7546771E-02  0.1215063E+00
         -2   -1    0    0    0  501 -0.00000000000E+00  0.00000000000E+00  0.27486128153E+02  0.27486128153E+02  0.00000000000E+00 0.  1.
          2   -1    0    0  501    0  0.00000000000E+00 -0.00000000000E+00 -0.64170275214E+03  0.64170275214E+03  0.00000000000E+00 0. -1.
         23    2    1    2    0    0  0.74665360711E+02  0.56448666931E+01 -0.35050140583E+03  0.37958265866E+03  0.12499991461E+03 0.  0.
          5    1    3    3  502    0  0.10402528439E+03 -0.12610204293E+02 -0.30301593153E+03  0.32065717177E+03  0.47000000000E+01 0.  1.
         -5    1    3    3    0  502 -0.29359923684E+02  0.18255070986E+02 -0.47485474298E+02  0.58925486886E+02  0.47000000000E+01 0.  1.
        -11    1    1    2    0    0 -0.85857824135E+02 -0.36540784313E+01 -0.26459864584E+03  0.27820381312E+03  0.00000000000E+00 0.  1.
         11    1    1    2    0    0  0.11192463424E+02 -0.19907882619E+01  0.88342768688E+00  0.11402408512E+02  0.00000000000E+00 0. -1.
<mgrwt>
<rscale>  0 0.13871887E+03</rscale>
<asrwt>0</asrwt>
<pdfrwt beam="2">  1        2 0.98723500E-01 0.14571122E+03</pdfrwt>
<pdfrwt beam="1">  1       -2 0.42286351E-02 0.14571122E+03</pdfrwt>
<totfact> 0.11287267E+04</totfact>
</mgrwt>
</event>
<event>
 7    1  0.5206756E-006  0.5400304E+03  0.7546771E-02  0.1003828E+00
         -2   -1    0    0    0  501 -0.00000000000E+00  0.00000000000E+00  0.57368162830E+03  0.57368162830E+03  0.00000000000E+00 0. -1.
          2   -1    0    0  501    0  0.00000000000E+00 -0.00000000000E+00 -0.12708825134E+03  0.12708825134E+03  0.00000000000E+00 0.  1.
         23    2    1    2    0    0  0.44775667022E+02 -0.14537799535E+03  0.14385124419E+03  0.24383664969E+03  0.12499403740E+03 0.  0.
          5    1    3    3  502    0 -0.97738071051E+01 -0.62330108148E+02  0.12844189914E+03  0.14317814478E+03  0.47000000000E+01 0.  1.
         -5    1    3    3    0  502  0.54549474127E+02 -0.83047887198E+02  0.15409345054E+02  0.10065850491E+03  0.47000000000E+01 0.  1.
        -11    1    1    2    0    0  0.11081692615E+02  0.24856053449E+02 -0.62563043630E+02  0.68225814268E+02  0.00000000000E+00 0.  1.
         11    1    1    2    0    0 -0.55857359637E+02  0.12052194190E+03  0.36530517639E+03  0.38870741568E+03  0.00000000000E+00 0. -1.
<mgrwt>
<rscale>  0 0.54003035E+03</rscale>
<asrwt>0</asrwt>
<pdfrwt beam="2">  1        2 0.19552039E-01 0.54003035E+03</pdfrwt>
<pdfrwt beam="1">  1       -2 0.88258710E-01 0.54003035E+03</pdfrwt>
<totfact> 0.32623838E+02</totfact>
</mgrwt>
</event>
<event>
 7    1  0.5206756E-006  0.1602502E+03  0.7546771E-02  0.1195982E+00
          1   -1    0    0  501    0  0.00000000000E+00  0.00000000000E+00  0.19036997578E+03  0.19036997578E+03  0.00000000000E+00 0. -1.
         -1   -1    0    0    0  501 -0.00000000000E+00 -0.00000000000E+00 -0.12216535524E+03  0.12216535524E+03  0.00000000000E+00 0.  1.
         23    2    1    2    0    0 -0.42691728437E+02 -0.90752928556E+02  0.74515023865E+02  0.17672751764E+03  0.12498579516E+03 0.  0.
          5    1    3    3  502    0 -0.76489524218E+02 -0.27348564454E+02  0.13772721090E+02  0.82524960703E+02  0.47000000000E+01 0. -1.
         -5    1    3    3    0  502  0.33797795781E+02 -0.63404364103E+02  0.60742302775E+02  0.94202556936E+02  0.47000000000E+01 0. -1.
        -11    1    1    2    0    0  0.14010513193E+02  0.68669465532E+02 -0.44635167447E+02  0.83090842753E+02  0.00000000000E+00 0.  1.
         11    1    1    2    0    0  0.28681215244E+02  0.22083463025E+02  0.38324764126E+02  0.52716970630E+02  0.00000000000E+00 0. -1.
<mgrwt>
<rscale>  0 0.15371378E+03</rscale>
<asrwt>0</asrwt>
<pdfrwt beam="1">  1        1 0.29287689E-01 0.16025020E+03</pdfrwt>
<pdfrwt beam="2">  1       -1 0.18794670E-01 0.16025020E+03</pdfrwt>
<totfact> 0.33908699E+03</totfact>
</mgrwt>
</event>
<event>
 7    1  0.5206756E-006  0.1700234E+03  0.7546771E-02  0.1184084E+00
         -2   -1    0    0    0  501 -0.00000000000E+00  0.00000000000E+00  0.23291504332E+02  0.23291504332E+02  0.00000000000E+00 0. -1.
          2   -1    0    0  501    0  0.00000000000E+00 -0.00000000000E+00 -0.15112846258E+04  0.15112846258E+04  0.00000000000E+00 0.  1.
         23    2    1    2    0    0 -0.57871576436E+01  0.11511962571E+03 -0.11887898834E+04  0.12008869021E+04  0.12498778017E+03 0.  0.
          5    1    3    3  502    0 -0.61390692098E+02  0.87551105016E+02 -0.69595815895E+03  0.70414051302E+03  0.47000000000E+01 0. -1.
         -5    1    3    3    0  502  0.55603534455E+02  0.27568520689E+02 -0.49283172449E+03  0.49674638906E+03  0.47000000000E+01 0. -1.
        -11    1    1    2    0    0  0.47344811515E+02 -0.50203169587E+02 -0.16635092617E+03  0.18009586350E+03  0.00000000000E+00 0.  1.
         11    1    1    2    0    0 -0.41557653872E+02 -0.64916456118E+02 -0.13285231190E+03  0.15359336460E+03  0.00000000000E+00 0. -1.
<mgrwt>
<rscale>  0 0.16415463E+03</rscale>
<asrwt>0</asrwt>
<pdfrwt beam="2">  1        2 0.23250539E+00 0.17002342E+03</pdfrwt>
<pdfrwt beam="1">  1       -2 0.35833074E-02 0.17002342E+03</pdfrwt>
<totfact> 0.43356311E+03</totfact>
</mgrwt>
</event>
<event>
 7    1  0.5206756E-006  0.1699920E+03  0.7546771E-02  0.1184075E+00
          1   -1    0    0  501    0  0.00000000000E+00  0.00000000000E+00  0.39425216686E+03  0.39425216686E+03  0.00000000000E+00 0. -1.
         -1   -1    0    0    0  501 -0.00000000000E+00 -0.00000000000E+00 -0.64311445483E+02  0.64311445483E+02  0.00000000000E+00 0.  1.
         23    2    1    2    0    0  0.96603882242E+02  0.62797895350E+02  0.19070724129E+03  0.25547315889E+03  0.12498558839E+03 0.  0.
          5    1    3    3  502    0  0.10657177773E+03  0.96135131931E+01  0.85407607456E+02  0.13699092253E+03  0.47000000000E+01 0.  1.
         -5    1    3    3    0  502 -0.99678954880E+01  0.53184382157E+02  0.10529963384E+03  0.11848223636E+03  0.47000000000E+01 0.  1.
        -11    1    1    2    0    0 -0.53121475981E+02 -0.83501706414E+02  0.83997530569E+02  0.12980759348E+03  0.00000000000E+00 0.  1.
         11    1    1    2    0    0 -0.43482406261E+02  0.20703811064E+02  0.55235949514E+02  0.73282859971E+02  0.00000000000E+00 0. -1.
<mgrwt>
<rscale>  0 0.16416368E+03</rscale>
<asrwt>0</asrwt>
<pdfrwt beam="1">  1        1 0.60654178E-01 0.16999201E+03</pdfrwt>
<pdfrwt beam="2">  1       -1 0.98940688E-02 0.16999201E+03</pdfrwt>
<totfact> 0.37385396E+03</totfact>
</mgrwt>
</event>
<event>
 7    1  0.5206756E-006  0.1572458E+03  0.7546771E-02  0.1199360E+00
          3   -1    0    0  501    0  0.00000000000E+00  0.00000000000E+00  0.13166401109E+03  0.13166401109E+03  0.00000000000E+00 0. -1.
         -3   -1    0    0    0  501 -0.00000000000E+00 -0.00000000000E+00 -0.21827942425E+03  0.21827942425E+03  0.00000000000E+00 0.  1.
         23    2    1    2    0    0  0.26018752344E+02  0.91788801793E+02  0.43966179790E+02  0.16327665007E+03  0.12499631949E+03 0.  0.
          5    1    3    3  502    0 -0.76935427904E+01 -0.28365810886E+02 -0.28649514906E+01  0.29901634988E+02  0.47000000000E+01 0.  1.
         -5    1    3    3    0  502  0.33712295135E+02  0.12015461268E+03  0.46831131280E+02  0.13337501508E+03  0.47000000000E+01 0.  1.
        -11    1    1    2    0    0  0.13057034748E+01 -0.67309352464E+02 -0.20107609032E+02  0.70260726808E+02  0.00000000000E+00 0. -1.
         11    1    1    2    0    0 -0.27324455819E+02 -0.24479449330E+02 -0.11047398391E+03  0.11640605846E+03  0.00000000000E+00 0.  1.
<mgrwt>
<rscale>  0 0.15090903E+03</rscale>
<asrwt>0</asrwt>
<pdfrwt beam="1">  1        3 0.20256002E-01 0.15724579E+03</pdfrwt>
<pdfrwt beam="2">  1       -3 0.33581450E-01 0.15724579E+03</pdfrwt>
<totfact> 0.45139236E+02</totfact>
</mgrwt>
</event>
<event>
 7    1  0.5206756E-006  0.2149423E+03  0.7546771E-02  0.1141225E+00
          4   -1    0    0  501    0  0.00000000000E+00  0.00000000000E+00  0.13500939575E+03  0.13500939575E+03  0.00000000000E+00 0. -1.
         -4   -1    0    0    0  501 -0.00000000000E+00 -0.00000000000E+00 -0.33780221106E+03  0.33780221106E+03  0.00000000000E+00 0.  1.
         23    2    1    2    0    0  0.12533250266E+03  0.12194222919E+03 -0.43937234979E+02  0.21938699208E+03  0.12498811221E+03 0.  0.
          5    1    3    3  502    0  0.64069269570E+02  0.11806928319E+03 -0.71140135824E+02  0.15207970233E+03  0.47000000000E+01 0.  1.
         -5    1    3    3    0  502  0.61263233086E+02  0.38729460014E+01  0.27202900845E+02  0.67307289749E+02  0.47000000000E+01 0.  1.
        -11    1    1    2    0    0 -0.84880295155E+02 -0.13075151200E+03 -0.12971535241E+03  0.20279717712E+03  0.00000000000E+00 0.  1.
         11    1    1    2    0    0 -0.40452207501E+02  0.88092828097E+01 -0.29140227921E+02  0.50627437607E+02  0.00000000000E+00 0. -1.
<mgrwt>
<rscale>  0 0.21043066E+03</rscale>
<asrwt>0</asrwt>
<pdfrwt beam="1">  1        4 0.20770677E-01 0.21494225E+03</pdfrwt>
<pdfrwt beam="2">  1       -4 0.51969570E-01 0.21494225E+03</pdfrwt>
<totfact> 0.13545997E+02</totfact>
</mgrwt>
</event>
<event>
 6    1  0.5206756E-006  0.1984242E+03  0.7546771E-02  0.1158954E+00
         -1   -1    0    0    0  501 -0.00000000000E+00  0.00000000000E+00  0.24482261770E+02  0.24482261770E+02  0.00000000000E+00 0.  1.
          1   -1    0    0  501    0  0.00000000000E+00 -0.00000000000E+00 -0.13521242427E+04  0.13521242427E+04  0.00000000000E+00 0. -1.
          5    1    1    2  502    0 -0.60013232970E+02  0.99879773098E+02 -0.64459407227E+03  0.65505813880E+03  0.47000000000E+01 0. -1.
         -5    1    1    2    0  502 -0.54674325712E+02 -0.27109413615E+02 -0.11802291673E+03  0.13294999463E+03  0.47000000000E+01 0.  1.
        -11    1    1    2    0    0 -0.80216185635E+01 -0.24277010717E+02 -0.41853264179E+02  0.49045033757E+02  0.00000000000E+00 0. -1.
         11    1    1    2    0    0  0.12270917725E+03 -0.48493348766E+02 -0.52317172778E+03  0.53955333731E+03  0.00000000000E+00 0.  1.
<mgrwt>
<rscale>  0 0.18945525E+03</rscale>
<asrwt>0</asrwt>
<pdfrwt beam="2">  1        1 0.20801914E+00 0.19842416E+03</pdfrwt>
<pdfrwt beam="1">  1       -1 0.37665014E-02 0.19842416E+03</pdfrwt>
<totfact> 0.24143591E+03</totfact>
</mgrwt>
</event>
<event>
 7    1  0.5206756E-006  0.1351255E+03  0.7546771E-02  0.1231530E+00
          3   -1    0    0  501    0  0.00000000000E+00  0.00000000000E+00  0.93470670276E+02  0.93470670276E+02  0.00000000000E+00 0. -1.
         -3   -1    0    0    0  501 -0.00000000000E+00 -0.00000000000E+00 -0.27173333008E+03  0.27173333008E+03  0.00000000000E+00 0.  1.
         23    2    1    2    0    0  0.50981723759E+02 -0.55363826214E+01  0.23448413184E+02  0.13714487776E+03  0.12501640582E+03 0.  0.
          5    1    3    3  502    0 -0.37320101131E+02  0.11740854124E+02  0.25652752945E+02  0.47019052922E+02  0.47000000000E+01 0. -1.
         -5    1    3    3    0  502  0.88301824891E+02 -0.17277236745E+02 -0.22043397614E+01  0.90125824836E+02  0.47000000000E+01 0. -1.
        -11    1    1    2    0    0 -0.28687824612E+02  0.46075195231E+02 -0.70781834962E+02  0.89196317509E+02  0.00000000000E+00 0. -1.
         11    1    1    2    0    0 -0.22293899147E+02 -0.40538812609E+02 -0.13092923803E+03  0.13886280509E+03  0.00000000000E+00 0.  1.
<mgrwt>
<rscale>  0 0.12729196E+03</rscale>
<asrwt>0</asrwt>
<pdfrwt beam="1">  1        3 0.14380103E-01 0.13512546E+03</pdfrwt>
<pdfrwt beam="2">  1       -3 0.41805128E-01 0.13512546E+03</pdfrwt>
<totfact> 0.52702353E+02</totfact>
</mgrwt>
</event>
<event>
 7    1  0.5206756E-006  0.2561717E+03  0.7546771E-02  0.1111785E+00
          2   -1    0    0  501    0  0.00000000000E+00  0.00000000000E+00  0.19387688455E+04  0.19387688455E+04  0.00000000000E+00 0. -1.
         -2   -1    0    0    0  501 -0.00000000000E+00 -0.00000000000E+00 -0.34047412426E+02  0.34047412426E+02  0.00000000000E+00 0.  1.
         23    2    1    2    0    0  0.22115271724E+03  0.33169820104E+02  0.12242501870E+04  0.12507647456E+04  0.12496066262E+03 0.  0.
          5    1    3    3  502    0  0.12115616724E+03 -0.32898071786E+01  0.92891795173E+03  0.93680322946E+03  0.47000000000E+01 0.  1.
         -5    1    3    3    0  502  0.99996550003E+02  0.36459627283E+02  0.29533223522E+03  0.31396151611E+03  0.47000000000E+01 0.  1.
        -11    1    1    2    0    0 -0.57715175770E+02  0.26201265721E+02  0.12752876267E+03  0.14241184342E+03  0.00000000000E+00 0.  1.
         11    1    1    2    0    0 -0.16343754147E+03 -0.59371085825E+02  0.55294248349E+03  0.57963966897E+03  0.00000000000E+00 0. -1.
<mgrwt>
<rscale>  0 0.25241955E+03</rscale>
<asrwt>0</asrwt>
<pdfrwt beam="1">  1        2 0.29827204E+00 0.25617168E+03</pdfrwt>
<pdfrwt beam="2">  1       -2 0.52380650E-02 0.25617168E+03</pdfrwt>
<totfact> 0.14608556E+03</totfact>
</mgrwt>
</event>
<event>
 7    1  0.5206756E-006  0.1294588E+03  0.7546771E-02  0.1235227E+00
         -2   -1    0    0    0  501 -0.00000000000E+00  0.00000000000E+00  0.12945080984E+03  0.12945080984E+03  0.00000000000E+00 0.  1.
          2   -1    0    0  501    0  0.00000000000E+00 -0.00000000000E+00 -0.11309873005E+03  0.11309873005E+03  0.00000000000E+00 0. -1.
         23    2    1    2    0    0 -0.32501700937E+02 -0.86647084628E+01  0.20008935466E+01  0.12947423604E+03  0.12501254532E+03 0.  0.
          5    1    3    3  502    0  0.35682467585E+02  0.14375369028E+02 -0.31506028006E+02  0.49946066195E+02  0.47000000000E+01 0. -1.
         -5    1    3    3    0  502 -0.68184168521E+02 -0.23040077491E+02  0.33506921553E+02  0.79528169850E+02  0.47000000000E+01 0. -1.
        -11    1    1    2    0    0 -0.31865201702E+02  0.43590631142E+01  0.32841562848E+02  0.45966952923E+02  0.00000000000E+00 0.  1.
         11    1    1    2    0    0  0.64366902639E+02  0.43056453487E+01 -0.18490376604E+02  0.67108350927E+02  0.00000000000E+00 0. -1.
<mgrwt>
<rscale>  0 0.12489901E+03</rscale>
<asrwt>0</asrwt>
<pdfrwt beam="2">  1        2 0.17399805E-01 0.12945877E+03</pdfrwt>
<pdfrwt beam="1">  1       -2 0.19915509E-01 0.12945877E+03</pdfrwt>
<totfact> 0.65366934E+03</totfact>
</mgrwt>
</event>
<event>
 7    1  0.5206756E-006  0.1429834E+03  0.7546771E-02  0.1217366E+00
         -1   -1    0    0    0  501 -0.00000000000E+00  0.00000000000E+00  0.71622304824E+02  0.71622304824E+02  0.00000000000E+00 0.  1.
          1   -1    0    0  501    0  0.00000000000E+00 -0.00000000000E+00 -0.39733801328E+03  0.39733801328E+03  0.00000000000E+00 0. -1.
         23    2    1    2    0    0 -0.67514976962E+02 -0.16152699974E+02 -0.31727889210E+03  0.34800885237E+03  0.12500033651E+03 0.  0.
          5    1    3    3  502    0 -0.57815693805E+02 -0.55750488686E+02 -0.10760512233E+03  0.13435670355E+03  0.47000000000E+01 0.  1.
         -5    1    3    3    0  502 -0.96992831571E+01  0.39597788712E+02 -0.20967376977E+03  0.21365214882E+03  0.47000000000E+01 0.  1.
        -11    1    1    2    0    0  0.12739896798E+02 -0.39121240650E+02 -0.12581179094E+02  0.43023975965E+02  0.00000000000E+00 0. -1.
         11    1    1    2    0    0  0.54775080164E+02  0.55273940624E+02  0.41443627336E+01  0.77927489768E+02  0.00000000000E+00 0.  1.
<mgrwt>
<rscale>  0 0.13704157E+03</rscale>
<asrwt>0</asrwt>
<pdfrwt beam="2">  1        1 0.61128924E-01 0.14298345E+03</pdfrwt>
<pdfrwt beam="1">  1       -1 0.11018816E-01 0.14298345E+03</pdfrwt>
<totfact> 0.31149543E+03</totfact>
</mgrwt>
</event>
<event>
 7    1  0.5206756E-006  0.1404647E+03  0.7546771E-02  0.1218911E+00
          2   -1    0    0  501    0  0.00000000000E+00  0.00000000000E+00  0.13204378404E+04  0.13204378404E+04  0.00000000000E+00 0. -1.
         -2   -1    0    0    0  501 -0.00000000000E+00 -0.00000000000E+00 -0.14055614658E+02  0.14055614658E+02  0.00000000000E+00 0.  1.
         23    2    1    2    0    0 -0.83568300615E+02 -0.17978233979E+01  0.86124108910E+03  0.87262050169E+03  0.11288681675E+03 0.  0.
          5    1    3    3  502    0 -0.34730480893E+02  0.33785635509E+02  0.67526801746E+03  0.67702042869E+03  0.47000000000E+01 0. -1.
         -5    1    3    3    0  502 -0.48837819722E+02 -0.35583458906E+02  0.18597307164E+03  0.19560007300E+03  0.47000000000E+01 0.  1.
        -11    1    1    2    0    0  0.39921372199E+01 -0.29655907446E+02  0.56620252514E+02  0.64041103994E+02  0.00000000000E+00 0.  1.
         11    1    1    2    0    0  0.79576163395E+02  0.31453730844E+02  0.38852088413E+03  0.39783184936E+03  0.00000000000E+00 0. -1.
<mgrwt>
<rscale>  0 0.13593146E+03</rscale>
<asrwt>0</asrwt>
<pdfrwt beam="1">  1        2 0.20314419E+00 0.14046468E+03</pdfrwt>
<pdfrwt beam="2">  1       -2 0.21624033E-02 0.14046468E+03</pdfrwt>
<totfact> 0.11435663E+04</totfact>
</mgrwt>
</event>
<event>
 7    1  0.5206756E-006  0.1284191E+03  0.7546771E-02  0.1242933E+00
         -2   -1    0    0    0  501 -0.00000000000E+00  0.00000000000E+00  0.40117689800E+02  0.40117689800E+02  0.00000000000E+00 0.  1.
          2   -1    0    0  501    0  0.00000000000E+00 -0.00000000000E+00 -0.32014307406E+03  0.32014307406E+03  0.00000000000E+00 0. -1.
         23    2    1    2    0    0 -0.29306125801E+02  0.28095198725E+01 -0.15842886275E+03  0.20393913202E+03  0.12499889041E+03 0.  0.
          5    1    3    3  502    0  0.32856694219E+02  0.12362559809E+02 -0.13003846170E+03  0.13477569055E+03  0.47000000000E+01 0.  1.
         -5    1    3    3    0  502 -0.62162820019E+02 -0.95530399360E+01 -0.28390401049E+02  0.69163441474E+02  0.47000000000E+01 0.  1.
        -11    1    1    2    0    0  0.17372943487E+02 -0.42280533298E+02 -0.26904354664E+02  0.53040616147E+02  0.00000000000E+00 0. -1.
         11    1    1    2    0    0  0.11933182314E+02  0.39471013426E+02 -0.94692166837E+02  0.10328101569E+03  0.00000000000E+00 0.  1.
<mgrwt>
<rscale>  0 0.12009980E+03</rscale>
<asrwt>0</asrwt>
<pdfrwt beam="2">  1        2 0.49252780E-01 0.12841910E+03</pdfrwt>
<pdfrwt beam="1">  1       -2 0.61719524E-02 0.12841910E+03</pdfrwt>
<totfact> 0.13527670E+04</totfact>
</mgrwt>
</event>
<event>
 7    1  0.5206756E-006  0.2052778E+03  0.7546771E-02  0.1149367E+00
         -4   -1    0    0    0  501 -0.00000000000E+00  0.00000000000E+00  0.12996861999E+03  0.12996861999E+03  0.00000000000E+00 0. -1.
          4   -1    0    0  501    0  0.00000000000E+00 -0.00000000000E+00 -0.30431162878E+03  0.30431162878E+03  0.00000000000E+00 0.  1.
         23    2    1    2    0    0 -0.14106460060E+03 -0.81289669222E+02 -0.12831672879E+03  0.24208295917E+03  0.12502697456E+03 0.  0.
          5    1    3    3  502    0 -0.10058026208E+03 -0.38269710023E+00 -0.11097260490E+03  0.14984506870E+03  0.47000000000E+01 0.  1.
         -5    1    3    3    0  502 -0.40484338522E+02 -0.80906972122E+02 -0.17344123889E+02  0.92237890462E+02  0.47000000000E+01 0.  1.
        -11    1    1    2    0    0  0.34187990144E+02  0.69765103219E+01 -0.51156384702E+02  0.61923065671E+02  0.00000000000E+00 0.  1.
         11    1    1    2    0    0  0.10687661045E+03  0.74313158900E+02  0.51301047018E+01  0.13027422394E+03  0.00000000000E+00 0. -1.
<mgrwt>
<rscale>  0 0.20044131E+03</rscale>
<asrwt>0</asrwt>
<pdfrwt beam="2">  1        4 0.46817173E-01 0.20527780E+03</pdfrwt>
<pdfrwt beam="1">  1       -4 0.19995173E-01 0.20527780E+03</pdfrwt>
<totfact> 0.17867134E+02</totfact>
</mgrwt>
</event>
<event>
 7    1  0.5206756E-006  0.1474481E+03  0.7546771E-02  0.1214715E+00
          1   -1    0    0  501    0  0.00000000000E+00  0.00000000000E+00  0.13187470345E+04  0.13187470345E+04  0.00000000000E+00 0. -1.
         -1   -1    0    0    0  501 -0.00000000000E+00 -0.00000000000E+00 -0.14375889349E+02  0.14375889349E+02  0.00000000000E+00 0.  1.
         23    2    1    2    0    0 -0.24203640057E+02 -0.74363307145E+02  0.91261366967E+03  0.92444828826E+03  0.12500083984E+03 0.  0.
          5    1    3    3  502    0  0.32962305644E+02 -0.23675357693E+02  0.63969463097E+03  0.64099793061E+03  0.47000000000E+01 0. -1.
         -5    1    3    3    0  502 -0.57165945701E+02 -0.50687949452E+02  0.27291903870E+03  0.28345035765E+03  0.47000000000E+01 0. -1.
        -11    1    1    2    0    0  0.22583924820E+02  0.67658909141E+01  0.20293892519E+02  0.31107121592E+02  0.00000000000E+00 0.  1.
         11    1    1    2    0    0  0.16197152361E+01  0.67597416231E+02  0.37146358297E+03  0.37756751400E+03  0.00000000000E+00 0. -1.
<mgrwt>
<rscale>  0 0.13897471E+03</rscale>
<asrwt>0</asrwt>
<pdfrwt beam="1">  1        1 0.20288406E+00 0.14744805E+03</pdfrwt>
<pdfrwt beam="2">  1       -1 0.22116763E-02 0.14744805E+03</pdfrwt>
<totfact> 0.55061989E+03</totfact>
</mgrwt>
</event>
<event>
 7    1  0.5206756E-006  0.1158442E+03  0.7546771E-02  0.1315897E+00
         -2   -1    0    0    0  501 -0.00000000000E+00  0.00000000000E+00  0.20268956545E+03  0.20268956545E+03  0.00000000000E+00 0.  1.
          2   -1    0    0  501    0  0.00000000000E+00 -0.00000000000E+00 -0.16713212624E+03  0.16713212624E+03  0.00000000000E+00 0. -1.
         23    2    1    2    0    0  0.22228392397E+02 -0.23283142147E+02 -0.14535471394E+03  0.18587059355E+03  0.11128197762E+03 0.  0.
          5    1    3    3  502    0  0.57955745274E+02 -0.25888610040E+02 -0.13341436813E+03  0.14781939035E+03  0.47000000000E+01 0. -1.
         -5    1    3    3    0  502 -0.35727352877E+02  0.26054678931E+01 -0.11940345810E+02  0.38051203195E+02  0.47000000000E+01 0.  1.
        -11    1    1    2    0    0 -0.88957643112E+01  0.15465843006E+02  0.97817216514E+02  0.99431055356E+02  0.00000000000E+00 0. -1.
         11    1    1    2    0    0 -0.13332628086E+02  0.78172991414E+01  0.83094936641E+02  0.84520042789E+02  0.00000000000E+00 0.  1.
<mgrwt>
<rscale>  0 0.84822763E+02</rscale>
<asrwt>0</asrwt>
<pdfrwt beam="2">  1        2 0.25712635E-01 0.11584423E+03</pdfrwt>
<pdfrwt beam="1">  1       -2 0.31183010E-01 0.11584423E+03</pdfrwt>
<totfact> 0.19188316E+03</totfact>
</mgrwt>
</event>
<event>
 7    1  0.5206756E-006  0.1256855E+03  0.7546771E-02  0.1248480E+00
          2   -1    0    0  501    0  0.00000000000E+00  0.00000000000E+00  0.98281799143E+02  0.98281799143E+02  0.00000000000E+00 0. -1.
         -2   -1    0    0    0  501 -0.00000000000E+00 -0.00000000000E+00 -0.13196945610E+03  0.13196945610E+03  0.00000000000E+00 0.  1.
         23    2    1    2    0    0 -0.11036151355E+02 -0.70895828976E+01  0.11487205255E+02  0.12620933585E+03  0.12499912699E+03 0.  0.
          5    1    3    3  502    0 -0.10909680180E+02 -0.34943252010E+02 -0.47886372194E+02  0.60458635650E+02  0.47000000000E+01 0. -1.
         -5    1    3    3    0  502 -0.12647117510E+00  0.27853669113E+02  0.59373577449E+02  0.65750700202E+02  0.47000000000E+01 0. -1.
        -11    1    1    2    0    0  0.32593601240E+02  0.49303834750E+01  0.17786820141E+02  0.37456941863E+02  0.00000000000E+00 0. -1.
         11    1    1    2    0    0 -0.21557449884E+02  0.21591994227E+01 -0.62961682352E+02  0.66584977527E+02  0.00000000000E+00 0.  1.
<mgrwt>
<rscale>  0 0.11679522E+03</rscale>
<asrwt>0</asrwt>
<pdfrwt beam="1">  1        2 0.15120277E-01 0.12568548E+03</pdfrwt>
<pdfrwt beam="2">  1       -2 0.20302993E-01 0.12568548E+03</pdfrwt>
<totfact> 0.74271858E+03</totfact>
</mgrwt>
</event>
<event>
 7    1  0.5206756E-006  0.1373762E+03  0.7546771E-02  0.1226353E+00
          2   -1    0    0  501    0  0.00000000000E+00  0.00000000000E+00  0.52092276796E+03  0.52092276796E+03  0.00000000000E+00 0.  1.
         -2   -1    0    0    0  501 -0.00000000000E+00 -0.00000000000E+00 -0.40561562241E+02  0.40561562241E+02  0.00000000000E+00 0. -1.
         23    2    1    2    0    0 -0.31511651320E+02 -0.47478305886E+02  0.40033416998E+03  0.42324892938E+03  0.12500013948E+03 0.  0.
          5    1    3    3  502    0 -0.70434398288E+02 -0.60175040269E+02  0.31683297347E+03  0.33013219021E+03  0.47000000000E+01 0.  1.
         -5    1    3    3    0  502  0.38922746968E+02  0.12696734383E+02  0.83501196513E+02  0.93116739175E+02  0.47000000000E+01 0.  1.
        -11    1    1    2    0    0  0.14947843114E+02  0.31485658642E+02  0.10115188321E+03  0.10698826193E+03  0.00000000000E+00 0.  1.
         11    1    1    2    0    0  0.16563808206E+02  0.15992647244E+02 -0.21124847472E+02  0.31247138891E+02  0.00000000000E+00 0. -1.
<mgrwt>
<rscale>  0 0.13074620E+03</rscale>
<asrwt>0</asrwt>
<pdfrwt beam="1">  1        2 0.80141959E-01 0.13737616E+03</pdfrwt>
<pdfrwt beam="2">  1       -2 0.62402407E-02 0.13737616E+03</pdfrwt>
<totfact> 0.79244863E+03</totfact>
</mgrwt>
</event>
<event>
 7    1  0.5206756E-006  0.1283211E+03  0.7546771E-02  0.1254703E+00
          2   -1    0    0  501    0  0.00000000000E+00  0.00000000000E+00  0.86431962164E+03  0.86431962164E+03  0.00000000000E+00 0. -1.
         -2   -1    0    0    0  501 -0.00000000000E+00 -0.00000000000E+00 -0.14026135672E+02  0.14026135672E+02  0.00000000000E+00 0.  1.
         23    2    1    2    0    0 -0.27416796258E+02 -0.94960615315E+01  0.66692303522E+03  0.67915582816E+03  0.12499779245E+03 0.  0.
          5    1    3    3  502    0  0.35307374730E+02 -0.27088202221E+02  0.45995423290E+03  0.46212592199E+03  0.47000000000E+01 0. -1.
         -5    1    3    3    0  502 -0.62724170987E+02  0.17592140690E+02  0.20696880232E+03  0.21702990617E+03  0.47000000000E+01 0. -1.
        -11    1    1    2    0    0 -0.16108960058E+02  0.24049374601E+02  0.98998957555E+02  0.10314390244E+03  0.00000000000E+00 0. -1.
         11    1    1    2    0    0  0.43525756316E+02 -0.14553313069E+02  0.84371493198E+02  0.96046026720E+02  0.00000000000E+00 0.  1.
<mgrwt>
<rscale>  0 0.11322962E+03</rscale>
<asrwt>0</asrwt>
<pdfrwt beam="1">  1        2 0.13297221E+00 0.12832110E+03</pdfrwt>
<pdfrwt beam="2">  1       -2 0.21578677E-02 0.12832110E+03</pdfrwt>
<totfact> 0.20953145E+04</totfact>
</mgrwt>
</event>
<event>
 7    1  0.5206756E-006  0.1503163E+03  0.7546771E-02  0.1209180E+00
          4   -1    0    0  501    0  0.00000000000E+00  0.00000000000E+00  0.65339862110E+03  0.65339862110E+03  0.00000000000E+00 0. -1.
         -4   -1    0    0    0  501 -0.00000000000E+00 -0.00000000000E+00 -0.28829857390E+02  0.28829857390E+02  0.00000000000E+00 0.  1.
         23    2    1    2    0    0  0.20564093386E+02  0.80698889908E+02  0.36545682972E+03  0.39516286215E+03  0.12513912442E+03 0.  0.
          5    1    3    3  502    0  0.14728919594E+02  0.90689236375E+02  0.12936787735E+03  0.15874387030E+03  0.47000000000E+01 0. -1.
         -5    1    3    3    0  502  0.58351737918E+01 -0.99903464676E+01  0.23608895237E+03  0.23641899185E+03  0.47000000000E+01 0. -1.
        -11    1    1    2    0    0 -0.55394458747E+02 -0.37410410771E+02  0.12175652207E+03  0.13889829215E+03  0.00000000000E+00 0.  1.
         11    1    1    2    0    0  0.34830365361E+02 -0.43288479137E+02  0.13735541192E+03  0.14816732420E+03  0.00000000000E+00 0. -1.
<mgrwt>
<rscale>  0 0.14312852E+03</rscale>
<asrwt>0</asrwt>
<pdfrwt beam="1">  1        4 0.10052285E+00 0.15031631E+03</pdfrwt>
<pdfrwt beam="2">  1       -4 0.44353632E-02 0.15031631E+03</pdfrwt>
<totfact> 0.41522506E+02</totfact>
</mgrwt>
</event>
<event>
 7    1  0.5206756E-006  0.1363931E+03  0.7546771E-02  0.1230399E+00
          1   -1    0    0  501    0  0.00000000000E+00  0.00000000000E+00  0.61169795210E+02  0.61169795210E+02  0.00000000000E+00 0. -1.
         -1   -1    0    0    0  501 -0.00000000000E+00 -0.00000000000E+00 -0.25426152464E+03  0.25426152464E+03  0.00000000000E+00 0.  1.
         23    2    1    2    0    0  0.42283206569E+02  0.34490525723E+02 -0.70881518373E+02  0.15371162056E+03  0.12500242688E+03 0.  0.
          5    1    3    3  502    0  0.40469176242E+02 -0.37877370681E+02 -0.57387676119E+02  0.79924244168E+02  0.47000000000E+01 0.  1.
         -5    1    3    3    0  502  0.18140303278E+01  0.72367896404E+02 -0.13493842254E+02  0.73787376391E+02  0.47000000000E+01 0.  1.
        -11    1    1    2    0    0 -0.16470869134E+02 -0.46228793427E+02 -0.15739347802E+02  0.51537539144E+02  0.00000000000E+00 0. -1.
         11    1    1    2    0    0 -0.25812337436E+02  0.11738267705E+02 -0.10647086325E+03  0.11018216014E+03  0.00000000000E+00 0.  1.
<mgrwt>
<rscale>  0 0.12803636E+03</rscale>
<asrwt>0</asrwt>
<pdfrwt beam="1">  1        1 0.94107376E-02 0.13639308E+03</pdfrwt>
<pdfrwt beam="2">  1       -1 0.39117158E-01 0.13639308E+03</pdfrwt>
<totfact> 0.42852595E+03</totfact>
</mgrwt>
</event>
<event>
 7    1  0.5206756E-006  0.1609902E+03  0.7546771E-02  0.1195183E+00
         -1   -1    0    0    0  501 -0.00000000000E+00  0.00000000000E+00  0.45228001928E+02  0.45228001928E+02  0.00000000000E+00 0.  1.
          1   -1    0    0  501    0  0.00000000000E+00 -0.00000000000E+00 -0.56465169501E+03  0.56465169501E+03  0.00000000000E+00 0. -1.
         23    2    1    2    0    0 -0.86856584049E+02 -0.52455290389E+02 -0.39043380820E+03  0.42232263688E+03  0.12498890893E+03 0.  0.
          5    1    3    3  502    0 -0.10762727109E+03 -0.42422042859E+02 -0.37873049405E+03  0.39603299904E+03  0.47000000000E+01 0.  1.
         -5    1    3    3    0  502  0.20770687037E+02 -0.10033247530E+02 -0.11703314146E+02  0.26289637844E+02  0.47000000000E+01 0.  1.
        -11    1    1    2    0    0  0.96909695281E+02  0.16080192529E+02 -0.88727527369E+02  0.13237309298E+03  0.00000000000E+00 0.  1.
         11    1    1    2    0    0 -0.10053111232E+02  0.36375097860E+02 -0.40262357511E+02  0.55183967075E+02  0.00000000000E+00 0. -1.
<mgrwt>
<rscale>  0 0.15438716E+03</rscale>
<asrwt>0</asrwt>
<pdfrwt beam="2">  1        1 0.86869493E-01 0.16099022E+03</pdfrwt>
<pdfrwt beam="1">  1       -1 0.69581540E-02 0.16099022E+03</pdfrwt>
<totfact> 0.39885624E+03</totfact>
</mgrwt>
</event>
<event>
 7    1  0.5206756E-006  0.1264433E+03  0.7546771E-02  0.1249648E+00
          2   -1    0    0  501    0  0.00000000000E+00  0.00000000000E+00  0.17833195786E+04  0.17833195786E+04  0.00000000000E+00 0. -1.
         -2   -1    0    0    0  501 -0.00000000000E+00 -0.00000000000E+00 -0.82616589818E+01  0.82616589818E+01  0.00000000000E+00 0.  1.
         23    2    1    2    0    0 -0.16759053647E+02  0.90957018816E+01  0.14081375675E+04  0.14138031416E+04  0.12499726693E+03 0.  0.
          5    1    3    3  502    0 -0.55061097298E+02  0.10837097124E+02  0.31572794889E+03  0.32071076505E+03  0.47000000000E+01 0.  1.
         -5    1    3    3    0  502  0.38302043651E+02 -0.17413952419E+01  0.10924096186E+04  0.10930923766E+04  0.47000000000E+01 0.  1.
        -11    1    1    2    0    0  0.12494634286E+02 -0.46694047752E+02  0.15041319011E+03  0.15798916970E+03  0.00000000000E+00 0.  1.
         11    1    1    2    0    0  0.42644193609E+01  0.37598345870E+02  0.21650716207E+03  0.21978892628E+03  0.00000000000E+00 0. -1.
<mgrwt>
<rscale>  0 0.11611463E+03</rscale>
<asrwt>0</asrwt>
<pdfrwt beam="1">  1        2 0.27435655E+00 0.12644332E+03</pdfrwt>
<pdfrwt beam="2">  1       -2 0.12710259E-02 0.12644332E+03</pdfrwt>
<totfact> 0.14095809E+04</totfact>
</mgrwt>
</event>
<event>
 7    1  0.5206756E-006  0.3245538E+03  0.7546771E-02  0.1074903E+00
         -1   -1    0    0    0  501 -0.00000000000E+00  0.00000000000E+00  0.16946165589E+03  0.16946165589E+03  0.00000000000E+00 0.  1.
          1   -1    0    0  501    0  0.00000000000E+00 -0.00000000000E+00 -0.11095127286E+04  0.11095127286E+04  0.00000000000E+00 0. -1.
         23    2    1    2    0    0  0.11538310924E+03 -0.27640479451E+03 -0.90808336221E+03  0.96433945738E+03  0.12498929560E+03 0.  0.
          5    1    3    3  502    0 -0.20245409077E+02 -0.38146661182E+02 -0.20771881780E+03  0.21221272728E+03  0.47000000000E+01 0. -1.
         -5    1    3    3    0  502  0.13562851832E+03 -0.23825813332E+03 -0.70036454441E+03  0.75212673011E+03  0.47000000000E+01 0. -1.
        -11    1    1    2    0    0 -0.79679435282E+01  0.12999097048E+02 -0.25959784015E+02  0.30106063081E+02  0.00000000000E+00 0. -1.
         11    1    1    2    0    0 -0.10741516571E+03  0.26340569746E+03 -0.60079264659E+01  0.28452886402E+03  0.00000000000E+00 0.  1.
<mgrwt>
<rscale>  0 0.32162773E+03</rscale>
<asrwt>0</asrwt>
<pdfrwt beam="2">  1        1 0.17069426E+00 0.32455384E+03</pdfrwt>
<pdfrwt beam="1">  1       -1 0.26071024E-01 0.32455384E+03</pdfrwt>
<totfact> 0.17241428E+02</totfact>
</mgrwt>
</event>
<event>
 6    1  0.5206756E-006  0.1865733E+03  0.7546771E-02  0.1189604E+00
         -2   -1    0    0    0  501 -0.00000000000E+00  0.00000000000E+00  0.10388660511E+03  0.10388660511E+03  0.00000000000E+00 0.  1.
          2   -1    0    0  501    0  0.00000000000E+00 -0.00000000000E+00 -0.17473753061E+04  0.17473753061E+04  0.00000000000E+00 0. -1.
          5    1    1    2  502    0  0.73540600022E+02  0.80231335649E+02 -0.11049987548E+04  0.11103556301E+04  0.47000000000E+01 0. -1.
         -5    1    1    2    0  502 -0.40632444589E+02 -0.64536556698E+02 -0.61258163490E+03  0.61732836653E+03  0.47000000000E+01 0.  1.
        -11    1    1    2    0    0  0.62717086502E+01 -0.24316440392E+02  0.79247073636E+02  0.83130754133E+02  0.00000000000E+00 0.  1.
         11    1    1    2    0    0 -0.39179864083E+02  0.86216614415E+01 -0.51553848788E+01  0.40447160454E+02  0.00000000000E+00 0. -1.
<mgrwt>
<rscale>  0 0.15919893E+03</rscale>
<asrwt>0</asrwt>
<pdfrwt beam="2">  1        2 0.26882697E+00 0.18657330E+03</pdfrwt>
<pdfrwt beam="1">  1       -2 0.15982555E-01 0.18657330E+03</pdfrwt>
<totfact> 0.31814312E+02</totfact>
</mgrwt>
</event>
<event>
 7    1  0.5206756E-006  0.2141711E+03  0.7546771E-02  0.1142186E+00
         -2   -1    0    0    0  501 -0.00000000000E+00  0.00000000000E+00  0.37572376996E+02  0.37572376996E+02  0.00000000000E+00 0.  1.
          2   -1    0    0  501    0  0.00000000000E+00 -0.00000000000E+00 -0.11193206261E+04  0.11193206261E+04  0.00000000000E+00 0. -1.
         23    2    1    2    0    0  0.14002302232E+03 -0.10314389104E+03 -0.60513789009E+03  0.64191986309E+03  0.12499654223E+03 0.  0.
          5    1    3    3  502    0  0.10744611712E+02  0.20119717543E+02 -0.16900094754E+03  0.17059794836E+03  0.47000000000E+01 0.  1.
         -5    1    3    3    0  502  0.12927841061E+03 -0.12326360858E+03 -0.43613694255E+03  0.47132191473E+03  0.47000000000E+01 0.  1.
        -11    1    1    2    0    0 -0.50785510540E+02  0.37361269776E+02 -0.73211208242E+02  0.96617356475E+02  0.00000000000E+00 0.  1.
         11    1    1    2    0    0 -0.89237511778E+02  0.65782621261E+02 -0.40339915074E+03  0.41835578350E+03  0.00000000000E+00 0. -1.
<mgrwt>
<rscale>  0 0.20921871E+03</rscale>
<asrwt>0</asrwt>
<pdfrwt beam="2">  1        2 0.17220317E+00 0.21417106E+03</pdfrwt>
<pdfrwt beam="1">  1       -2 0.57803658E-02 0.21417106E+03</pdfrwt>
<totfact> 0.34703895E+03</totfact>
</mgrwt>
</event>
<event>
 7    1  0.5206756E-006  0.1820793E+03  0.7546771E-02  0.1171120E+00
         -2   -1    0    0    0  501 -0.00000000000E+00  0.00000000000E+00  0.38414386107E+03  0.38414386107E+03  0.00000000000E+00 0.  1.
          2   -1    0    0  501    0  0.00000000000E+00 -0.00000000000E+00 -0.76830790002E+02  0.76830790002E+02  0.00000000000E+00 0. -1.
         23    2    1    2    0    0  0.12512745483E+03 -0.43204451886E+02  0.15296554814E+03  0.23780526293E+03  0.12501751696E+03 0.  0.
          5    1    3    3  502    0 -0.10789369610E+02  0.93861684615E+01  0.66717437403E+02  0.68394569292E+02  0.47000000000E+01 0.  1.
         -5    1    3    3    0  502  0.13591682444E+03 -0.52590620348E+02  0.86248110733E+02  0.16941069364E+03  0.47000000000E+01 0.  1.
        -11    1    1    2    0    0 -0.69929972985E+00  0.25743297583E+02  0.21994130376E+01  0.25846543449E+02  0.00000000000E+00 0.  1.
         11    1    1    2    0    0 -0.12442815510E+03  0.17461154303E+02  0.15214810990E+03  0.19732284469E+03  0.00000000000E+00 0. -1.
<mgrwt>
<rscale>  0 0.17661531E+03</rscale>
<asrwt>0</asrwt>
<pdfrwt beam="2">  1        2 0.11820122E-01 0.18207933E+03</pdfrwt>
<pdfrwt beam="1">  1       -2 0.59099054E-01 0.18207933E+03</pdfrwt>
<totfact> 0.13988553E+03</totfact>
</mgrwt>
</event>
<event>
 7    1  0.5206756E-006  0.1276640E+03  0.7546771E-02  0.1246865E+00
          1   -1    0    0  501    0  0.00000000000E+00  0.00000000000E+00  0.22024725825E+03  0.22024725825E+03  0.00000000000E+00 0. -1.
         -1   -1    0    0    0  501 -0.00000000000E+00 -0.00000000000E+00 -0.55211503381E+02  0.55211503381E+02  0.00000000000E+00 0.  1.
         23    2    1    2    0    0 -0.25564911113E+02 -0.43379329861E+01  0.10490870900E+03  0.16523903937E+03  0.12500288223E+03 0.  0.
          5    1    3    3  502    0  0.20304604842E+02 -0.26117483280E+02  0.10907139993E+03  0.11407480087E+03  0.47000000000E+01 0.  1.
         -5    1    3    3    0  502 -0.45869515955E+02  0.21779550294E+02 -0.41626909365E+01  0.51164238496E+02  0.47000000000E+01 0.  1.
        -11    1    1    2    0    0  0.19970679404E+02 -0.22562103541E+02 -0.12460773658E+02  0.32605941671E+02  0.00000000000E+00 0.  1.
         11    1    1    2    0    0  0.55942317092E+01  0.26900036527E+02  0.72587819533E+02  0.77613780595E+02  0.00000000000E+00 0. -1.
<mgrwt>
<rscale>  0 0.11774431E+03</rscale>
<asrwt>0</asrwt>
<pdfrwt beam="1">  1        1 0.33884193E-01 0.12766402E+03</pdfrwt>
<pdfrwt beam="2">  1       -1 0.84940776E-02 0.12766402E+03</pdfrwt>
<totfact> 0.95678419E+03</totfact>
</mgrwt>
</event>
<event>
 7    1  0.5206756E-006  0.1518756E+03  0.7546771E-02  0.1206948E+00
         -2   -1    0    0    0  501 -0.00000000000E+00  0.00000000000E+00  0.90472883648E+02  0.90472883648E+02  0.00000000000E+00 0.  1.
          2   -1    0    0  501    0  0.00000000000E+00 -0.00000000000E+00 -0.21301964095E+03  0.21301964095E+03  0.00000000000E+00 0. -1.
         23    2    1    2    0    0  0.65488572777E+02 -0.56151865752E+02 -0.62782173309E+02  0.16434050135E+03  0.12499765560E+03 0.  0.
          5    1    3    3  502    0 -0.34568226490E+02 -0.24899782613E+01 -0.29978694272E+02  0.46064893191E+02  0.47000000000E+01 0. -1.
         -5    1    3    3    0  502  0.10005679927E+03 -0.53661887490E+02 -0.32803479036E+02  0.11827560816E+03  0.47000000000E+01 0. -1.
        -11    1    1    2    0    0 -0.39070633299E+02  0.70799461409E+02 -0.10748652491E+02  0.81575803107E+02  0.00000000000E+00 0.  1.
         11    1    1    2    0    0 -0.26417939477E+02 -0.14647595657E+02 -0.49015931504E+02  0.57576220143E+02  0.00000000000E+00 0. -1.
<mgrwt>
<rscale>  0 0.14485012E+03</rscale>
<asrwt>0</asrwt>
<pdfrwt beam="2">  1        2 0.32772252E-01 0.15187560E+03</pdfrwt>
<pdfrwt beam="1">  1       -2 0.13918905E-01 0.15187560E+03</pdfrwt>
<totfact> 0.59178364E+03</totfact>
</mgrwt>
</event>
<event>
 6    1  0.5206756E-006  0.1840397E+03  0.7546771E-02  0.1185161E+00
          2   -1    0    0  501    0  0.00000000000E+00  0.00000000000E+00  0.11723341920E+04  0.11723341920E+04  0.00000000000E+00 0. -1.
         -2   -1    0    0    0  501 -0.00000000000E+00 -0.00000000000E+00 -0.17932998897E+03  0.17932998897E+03  0.00000000000E+00 0.  1.
          5    1    1    2  502    0  0.31179297450E+02 -0.35556544034E+02  0.65993839981E+03  0.66164733654E+03  0.47000000000E+01 0. -1.
         -5    1    1    2    0  502 -0.75293125886E+02  0.84218930792E+02  0.48625548768E+03  0.49922777608E+03  0.47000000000E+01 0.  1.
        -11    1    1    2    0    0  0.61724006055E+02 -0.64601392665E+02 -0.12868475811E+03  0.15666192846E+03  0.00000000000E+00 0.  1.
         11    1    1    2    0    0 -0.17610177618E+02  0.15939005907E+02 -0.24504926321E+02  0.34127139919E+02  0.00000000000E+00 0. -1.
<mgrwt>
<rscale>  0 0.16317275E+03</rscale>
<asrwt>0</asrwt>
<pdfrwt beam="1">  1        2 0.18035910E+00 0.18403967E+03</pdfrwt>
<pdfrwt beam="2">  1       -2 0.27589230E-01 0.18403967E+03</pdfrwt>
<totfact> 0.25304075E+02</totfact>
</mgrwt>
</event>
<event>
 7    1  0.5206756E-006  0.1714160E+03  0.7546771E-02  0.1182254E+00
          1   -1    0    0  501    0  0.00000000000E+00  0.00000000000E+00  0.23713647414E+03  0.23713647414E+03  0.00000000000E+00 0. -1.
         -1   -1    0    0    0  501 -0.00000000000E+00 -0.00000000000E+00 -0.11256337925E+03  0.11256337925E+03  0.00000000000E+00 0.  1.
         23    2    1    2    0    0 -0.64278147286E+02 -0.98103132867E+02  0.97148469107E+02  0.19703114255E+03  0.12501016433E+03 0.  0.
          5    1    3    3  502    0 -0.79516976332E+02 -0.89673318163E+01  0.36726103963E+02  0.88171760089E+02  0.47000000000E+01 0.  1.
         -5    1    3    3    0  502  0.15238829047E+02 -0.89135801051E+02  0.60422365144E+02  0.10885938246E+03  0.47000000000E+01 0.  1.
        -11    1    1    2    0    0 -0.18800615017E+02  0.12208765206E+02 -0.13723453063E+02  0.26284030072E+02  0.00000000000E+00 0.  1.
         11    1    1    2    0    0  0.83078762303E+02  0.85894367661E+02  0.41148078840E+02  0.12638468077E+03  0.00000000000E+00 0. -1.
<mgrwt>
<rscale>  0 0.16584233E+03</rscale>
<asrwt>0</asrwt>
<pdfrwt beam="1">  1        1 0.36482534E-01 0.17141600E+03</pdfrwt>
<pdfrwt beam="2">  1       -1 0.17317443E-01 0.17141600E+03</pdfrwt>
<totfact> 0.29466638E+03</totfact>
</mgrwt>
</event>
<event>
 7    1  0.5206756E-006  0.2346646E+03  0.7546771E-02  0.1126339E+00
          2   -1    0    0  501    0  0.00000000000E+00  0.00000000000E+00  0.13970242247E+04  0.13970242247E+04  0.00000000000E+00 0. -1.
         -2   -1    0    0    0  501 -0.00000000000E+00 -0.00000000000E+00 -0.37613111954E+02  0.37613111954E+02  0.00000000000E+00 0.  1.
         23    2    1    2    0    0  0.12289167624E+03 -0.15601421777E+03  0.59189348697E+03  0.63671452039E+03  0.12499872129E+03 0.  0.
          5    1    3    3  502    0 -0.19022263542E+02 -0.46214918302E+01  0.20246549008E+02  0.28552012954E+02  0.47000000000E+01 0.  1.
         -5    1    3    3    0  502  0.14191393979E+03 -0.15139272593E+03  0.57164693796E+03  0.60816250744E+03  0.47000000000E+01 0.  1.
        -11    1    1    2    0    0 -0.11558264971E+03  0.12348850941E+03  0.72173160276E+03  0.74128622494E+03  0.00000000000E+00 0. -1.
         11    1    1    2    0    0 -0.73090265357E+01  0.32525708356E+02  0.45786023039E+02  0.56636591341E+02  0.00000000000E+00 0.  1.
<mgrwt>
<rscale>  0 0.23042720E+03</rscale>
<asrwt>0</asrwt>
<pdfrwt beam="1">  1        2 0.21492676E+00 0.23466461E+03</pdfrwt>
<pdfrwt beam="2">  1       -2 0.57866337E-02 0.23466461E+03</pdfrwt>
<totfact> 0.24271972E+03</totfact>
</mgrwt>
</event>
<event>
 7    1  0.5206756E-006  0.1598177E+03  0.7546771E-02  0.1196914E+00
         -2   -1    0    0    0  501 -0.00000000000E+00  0.00000000000E+00  0.61419865257E+02  0.61419865257E+02  0.00000000000E+00 0.  1.
          2   -1    0    0  501    0  0.00000000000E+00 -0.00000000000E+00 -0.50006049101E+03  0.50006049101E+03  0.00000000000E+00 0. -1.
         23    2    1    2    0    0  0.41492847158E+02 -0.90528675711E+02 -0.38550833791E+03  0.41732286820E+03  0.12499840091E+03 0.  0.
          5    1    3    3  502    0  0.20074095032E+02 -0.81398369013E+02 -0.38448534866E+03  0.39354763003E+03  0.47000000000E+01 0.  1.
         -5    1    3    3    0  502  0.21418752127E+02 -0.91303066982E+01 -0.10229892552E+01  0.23775238171E+02  0.47000000000E+01 0.  1.
        -11    1    1    2    0    0 -0.42175986144E+02  0.60930337470E+02 -0.76450803968E+02  0.10647086577E+03  0.00000000000E+00 0. -1.
         11    1    1    2    0    0  0.68313898552E+00  0.29598338242E+02  0.23318516128E+02  0.37686622294E+02  0.00000000000E+00 0.  1.
<mgrwt>
<rscale>  0 0.15293326E+03</rscale>
<asrwt>0</asrwt>
<pdfrwt beam="2">  1        2 0.76932387E-01 0.15981770E+03</pdfrwt>
<pdfrwt beam="1">  1       -2 0.94492096E-02 0.15981770E+03</pdfrwt>
<totfact> 0.44047611E+03</totfact>
</mgrwt>
</event>
<event>
 7    1  0.5206756E-006  0.1299814E+03  0.7546771E-02  0.1241197E+00
         -1   -1    0    0    0  501 -0.00000000000E+00  0.00000000000E+00  0.34288500343E+02  0.34288500343E+02  0.00000000000E+00 0.  1.
          1   -1    0    0  501    0  0.00000000000E+00 -0.00000000000E+00 -0.39383115691E+03  0.39383115691E+03  0.00000000000E+00 0. -1.
         23    2    1    2    0    0  0.30509347761E+02 -0.18399909530E+02 -0.24457919326E+03  0.27697318427E+03  0.12500314419E+03 0.  0.
          5    1    3    3  502    0  0.50284239781E+02 -0.53484826626E+02 -0.21369990076E+03  0.22600634733E+03  0.47000000000E+01 0.  1.
         -5    1    3    3    0  502 -0.19774892020E+02  0.35084917097E+02 -0.30879292497E+02  0.50966836936E+02  0.47000000000E+01 0.  1.
        -11    1    1    2    0    0 -0.20134615265E+02 -0.30118894136E+02 -0.14355704147E+02  0.38969690240E+02  0.00000000000E+00 0.  1.
         11    1    1    2    0    0 -0.10374732496E+02  0.48518803665E+02 -0.10060775916E+03  0.11217678274E+03  0.00000000000E+00 0. -1.
<mgrwt>
<rscale>  0 0.12115926E+03</rscale>
<asrwt>0</asrwt>
<pdfrwt beam="2">  1        1 0.60589411E-01 0.12998139E+03</pdfrwt>
<pdfrwt beam="1">  1       -1 0.52751537E-02 0.12998139E+03</pdfrwt>
<totfact> 0.95028159E+03</totfact>
</mgrwt>
</event>
<event>
 7    1  0.5206756E-006  0.1317238E+03  0.7546771E-02  0.1238473E+00
         -4   -1    0    0    0  501 -0.00000000000E+00  0.00000000000E+00  0.11161905547E+03  0.11161905547E+03  0.00000000000E+00 0. -1.
          4   -1    0    0  501    0  0.00000000000E+00 -0.00000000000E+00 -0.15812506277E+03  0.15812506277E+03  0.00000000000E+00 0.  1.
         23    2    1    2    0    0  0.81641860124E+01  0.40733861095E+02 -0.91525248025E+02  0.16039959660E+03  0.12500103276E+03 0.  0.
          5    1    3    3  502    0  0.20614965058E+02 -0.38924976627E+02 -0.57936438592E+02  0.72930456645E+02  0.47000000000E+01 0.  1.
         -5    1    3    3    0  502 -0.12450779046E+02  0.79658837722E+02 -0.33588809433E+02  0.87469139959E+02  0.47000000000E+01 0.  1.
        -11    1    1    2    0    0  0.92569902185E+01 -0.13410732196E+02  0.67801924677E+02  0.69732636519E+02  0.00000000000E+00 0. -1.
         11    1    1    2    0    0 -0.17421176231E+02 -0.27323128899E+02 -0.22782683955E+02  0.39611885114E+02  0.00000000000E+00 0.  1.
<mgrwt>
<rscale>  0 0.12284686E+03</rscale>
<asrwt>0</asrwt>
<pdfrwt beam="2">  1        4 0.24326933E-01 0.13172380E+03</pdfrwt>
<pdfrwt beam="1">  1       -4 0.17172162E-01 0.13172380E+03</pdfrwt>
<totfact> 0.76860900E+02</totfact>
</mgrwt>
</event>
<event>
 7    1  0.5206756E-006  0.1303429E+03  0.7546771E-02  0.1240509E+00
          2   -1    0    0  501    0  0.00000000000E+00  0.00000000000E+00  0.11947170085E+03  0.11947170085E+03  0.00000000000E+00 0. -1.
         -2   -1    0    0    0  501 -0.00000000000E+00 -0.00000000000E+00 -0.10981058173E+03  0.10981058173E+03  0.00000000000E+00 0.  1.
         23    2    1    2    0    0 -0.18419210537E+02  0.32027220045E+02  0.80506353740E+01  0.13059126026E+03  0.12499701751E+03 0.  0.
          5    1    3    3  502    0  0.32518249476E+02  0.59265112202E+02  0.21509709397E+02  0.71095342123E+02  0.47000000000E+01 0.  1.
         -5    1    3    3    0  502 -0.50937460013E+02 -0.27237892157E+02 -0.13459074023E+02  0.59495918140E+02  0.47000000000E+01 0.  1.
        -11    1    1    2    0    0 -0.12843426316E+02 -0.53166440283E+02 -0.16081673406E+02  0.57010912915E+02  0.00000000000E+00 0.  1.
         11    1    1    2    0    0  0.31262636853E+02  0.21139220238E+02  0.17692157147E+02  0.41680109402E+02  0.00000000000E+00 0. -1.
<mgrwt>
<rscale>  0 0.12158232E+03</rscale>
<asrwt>0</asrwt>
<pdfrwt beam="1">  1        2 0.18380262E-01 0.13034287E+03</pdfrwt>
<pdfrwt beam="2">  1       -2 0.16893936E-01 0.13034287E+03</pdfrwt>
<totfact> 0.80867740E+03</totfact>
</mgrwt>
</event>
<event>
 7    1  0.5206756E-006  0.1354983E+03  0.7546771E-02  0.1233271E+00
          2   -1    0    0  501    0  0.00000000000E+00  0.00000000000E+00  0.37576347210E+03  0.37576347210E+03  0.00000000000E+00 0. -1.
         -2   -1    0    0    0  501 -0.00000000000E+00 -0.00000000000E+00 -0.42821520928E+02  0.42821520928E+02  0.00000000000E+00 0.  1.
         23    2    1    2    0    0 -0.49111139933E+02  0.17941409936E+02  0.26045970393E+03  0.29359672771E+03  0.12500393150E+03 0.  0.
          5    1    3    3  502    0 -0.13987659215E+02  0.47290233083E+02  0.23666894085E+03  0.24179805276E+03  0.47000000000E+01 0.  1.
         -5    1    3    3    0  502 -0.35123480718E+02 -0.29348823148E+02  0.23790763080E+02  0.51798674943E+02  0.47000000000E+01 0.  1.
        -11    1    1    2    0    0  0.17055042448E+02  0.33444445477E+02  0.12045412624E+02  0.39427114673E+02  0.00000000000E+00 0. -1.
         11    1    1    2    0    0  0.32056097485E+02 -0.51385855412E+02  0.60436834617E+02  0.85561150653E+02  0.00000000000E+00 0.  1.
<mgrwt>
<rscale>  0 0.12615784E+03</rscale>
<asrwt>0</asrwt>
<pdfrwt beam="1">  1        2 0.57809763E-01 0.13549827E+03</pdfrwt>
<pdfrwt beam="2">  1       -2 0.65879265E-02 0.13549827E+03</pdfrwt>
<totfact> 0.10378760E+04</totfact>
</mgrwt>
</event>
<event>
 7    1  0.5206756E-006  0.2014659E+03  0.7546771E-02  0.1152837E+00
          1   -1    0    0  501    0  0.00000000000E+00  0.00000000000E+00  0.12984754688E+04  0.12984754688E+04  0.00000000000E+00 0. -1.
         -1   -1    0    0    0  501 -0.00000000000E+00 -0.00000000000E+00 -0.29002609529E+02  0.29002609529E+02  0.00000000000E+00 0.  1.
         23    2    1    2    0    0  0.11459650987E+03 -0.10876720079E+03  0.77041452092E+03  0.79632094687E+03  0.12500340929E+03 0.  0.
          5    1    3    3  502    0  0.12658540818E+03 -0.12414566498E+03  0.63035414096E+03  0.65483161555E+03  0.47000000000E+01 0.  1.
         -5    1    3    3    0  502 -0.11988898305E+02  0.15378464181E+02  0.14006037996E+03  0.14148933132E+03  0.47000000000E+01 0.  1.
        -11    1    1    2    0    0  0.11360218814E+02  0.21966441436E+02  0.37583497839E+02  0.44989981448E+02  0.00000000000E+00 0.  1.
         11    1    1    2    0    0 -0.12595672869E+03  0.86800759358E+02  0.46147484052E+03  0.48616715002E+03  0.00000000000E+00 0. -1.
<mgrwt>
<rscale>  0 0.19637142E+03</rscale>
<asrwt>0</asrwt>
<pdfrwt beam="1">  1        1 0.19976541E+00 0.20146592E+03</pdfrwt>
<pdfrwt beam="2">  1       -1 0.44619409E-02 0.20146592E+03</pdfrwt>
<totfact> 0.20410903E+03</totfact>
</mgrwt>
</event>
<event>
 7    1  0.5206756E-006  0.1373882E+03  0.7546771E-02  0.1229359E+00
         -1   -1    0    0    0  501 -0.00000000000E+00  0.00000000000E+00  0.34947323755E+02  0.34947323755E+02  0.00000000000E+00 0.  1.
          1   -1    0    0  501    0  0.00000000000E+00 -0.00000000000E+00 -0.42601343154E+03  0.42601343154E+03  0.00000000000E+00 0. -1.
         23    2    1    2    0    0 -0.11619885200E+02 -0.55819425526E+02 -0.23879294960E+03  0.27549518099E+03  0.12499876789E+03 0.  0.
          5    1    3    3  502    0  0.52446199308E+02 -0.50120357961E+02 -0.13395979130E+03  0.15241381102E+03  0.47000000000E+01 0.  1.
         -5    1    3    3    0  502 -0.64066084509E+02 -0.56990675641E+01 -0.10483315830E+03  0.12308136997E+03  0.47000000000E+01 0.  1.
        -11    1    1    2    0    0  0.33018447279E+02  0.79046219391E+01 -0.12522172134E+02  0.36187093053E+02  0.00000000000E+00 0.  1.
         11    1    1    2    0    0 -0.21398562078E+02  0.47914803586E+02 -0.13975098605E+03  0.14927848125E+03  0.00000000000E+00 0. -1.
<mgrwt>
<rscale>  0 0.12872550E+03</rscale>
<asrwt>0</asrwt>
<pdfrwt beam="2">  1        1 0.65540530E-01 0.13738822E+03</pdfrwt>
<pdfrwt beam="1">  1       -1 0.53765112E-02 0.13738822E+03</pdfrwt>
<totfact> 0.83979236E+03</totfact>
</mgrwt>
</event>
<event>
 7    1  0.5206756E-006  0.1606753E+03  0.7546771E-02  0.1195672E+00
         -3   -1    0    0    0  501 -0.00000000000E+00  0.00000000000E+00  0.19909333791E+03  0.19909333791E+03  0.00000000000E+00 0.  1.
          3   -1    0    0  501    0  0.00000000000E+00 -0.00000000000E+00 -0.12324538859E+03  0.12324538859E+03  0.00000000000E+00 0. -1.
         23    2    1    2    0    0  0.20104395908E+01  0.10166998521E+03 -0.11556555028E+02  0.16109038871E+03  0.12440149360E+03 0.  0.
          5    1    3    3  502    0  0.64917895099E+00 -0.22928253720E+02 -0.26663154600E+02  0.35484363672E+02  0.47000000000E+01 0. -1.
         -5    1    3    3    0  502  0.13612606398E+01  0.12459823893E+03  0.15106599572E+02  0.12560602504E+03  0.47000000000E+01 0.  1.
        -11    1    1    2    0    0 -0.42865388123E+02 -0.38660596555E+02  0.54049338993E+02  0.79078532299E+02  0.00000000000E+00 0.  1.
         11    1    1    2    0    0  0.40854948533E+02 -0.63009388656E+02  0.33355165355E+02  0.82169805490E+02  0.00000000000E+00 0. -1.
<mgrwt>
<rscale>  0 0.15397505E+03</rscale>
<asrwt>0</asrwt>
<pdfrwt beam="2">  1        3 0.18960829E-01 0.16067532E+03</pdfrwt>
<pdfrwt beam="1">  1       -3 0.30629744E-01 0.16067532E+03</pdfrwt>
<totfact> 0.60429119E+02</totfact>
</mgrwt>
</event>
<event>
 7    1  0.5206756E-006  0.1597496E+03  0.7546771E-02  0.1196336E+00
         -2   -1    0    0    0  501 -0.00000000000E+00  0.00000000000E+00  0.21256727629E+02  0.21256727629E+02  0.00000000000E+00 0.  1.
          2   -1    0    0  501    0  0.00000000000E+00 -0.00000000000E+00 -0.11951588782E+04  0.11951588782E+04  0.00000000000E+00 0. -1.
         23    2    1    2    0    0 -0.63470296228E+02 -0.76589851583E+02 -0.85457281110E+03  0.86937599934E+03  0.12500181953E+03 0.  0.
          5    1    3    3  502    0 -0.64245436944E+02 -0.10293499035E+03 -0.79287902638E+03  0.80212363691E+03  0.47000000000E+01 0. -1.
         -5    1    3    3    0  502  0.77514071526E+00  0.26345138770E+02 -0.61693784720E+02  0.67252362435E+02  0.47000000000E+01 0. -1.
        -11    1    1    2    0    0  0.11411038099E+02  0.78381526291E+02 -0.14663727902E+03  0.16666243443E+03  0.00000000000E+00 0.  1.
         11    1    1    2    0    0  0.52059258130E+02 -0.17916747079E+01 -0.17269206046E+03  0.18037717206E+03  0.00000000000E+00 0. -1.
<mgrwt>
<rscale>  0 0.15341729E+03</rscale>
<asrwt>0</asrwt>
<pdfrwt beam="2">  1        2 0.18387062E+00 0.15974961E+03</pdfrwt>
<pdfrwt beam="1">  1       -2 0.32702654E-02 0.15974961E+03</pdfrwt>
<totfact> 0.73389438E+03</totfact>
</mgrwt>
</event>
<event>
 7    1  0.5206756E-006  0.2105392E+03  0.7546771E-02  0.1144905E+00
         -1   -1    0    0    0  501 -0.00000000000E+00  0.00000000000E+00  0.54579443436E+02  0.54579443436E+02  0.00000000000E+00 0.  1.
          1   -1    0    0  501    0  0.00000000000E+00 -0.00000000000E+00 -0.78232167350E+03  0.78232167350E+03  0.00000000000E+00 0. -1.
         23    2    1    2    0    0  0.10584200361E+03 -0.13227640227E+03 -0.47258982612E+03  0.51736629884E+03  0.12500866811E+03 0.  0.
          5    1    3    3  502    0  0.81391485758E+02 -0.64600473538E+02 -0.40634114347E+03  0.41944369111E+03  0.47000000000E+01 0. -1.
         -5    1    3    3    0  502  0.24450517855E+02 -0.67675928730E+02 -0.66248682650E+02  0.97922607735E+02  0.47000000000E+01 0. -1.
        -11    1    1    2    0    0 -0.63826812944E+02  0.11475674902E+03 -0.12361465298E+03  0.18034288433E+03  0.00000000000E+00 0.  1.
         11    1    1    2    0    0 -0.42015190669E+02  0.17519653251E+02 -0.13153775096E+03  0.13919193377E+03  0.00000000000E+00 0. -1.
<mgrwt>
<rscale>  0 0.20583752E+03</rscale>
<asrwt>0</asrwt>
<pdfrwt beam="2">  1        1 0.12035718E+00 0.21053917E+03</pdfrwt>
<pdfrwt beam="1">  1       -1 0.83968376E-02 0.21053917E+03</pdfrwt>
<totfact> 0.18989005E+03</totfact>
</mgrwt>
</event>
<event>
 6    1  0.5206756E-006  0.1372591E+03  0.7546771E-02  0.1230347E+00
          1   -1    0    0  501    0  0.00000000000E+00  0.00000000000E+00  0.30593039477E+03  0.30593039477E+03  0.00000000000E+00 0. -1.
         -1   -1    0    0    0  501 -0.00000000000E+00 -0.00000000000E+00 -0.47729053174E+02  0.47729053174E+02  0.00000000000E+00 0.  1.
          5    1    1    2  502    0 -0.37449425673E+02 -0.23928840322E+02  0.69127802601E+02  0.82315198929E+02  0.47000000000E+01 0. -1.
         -5    1    1    2    0  502  0.52852833395E+02  0.70957813230E+02  0.67834513551E+02  0.11158872920E+03  0.47000000000E+01 0.  1.
        -11    1    1    2    0    0  0.20854659657E+02 -0.61521245105E+02  0.77457033716E+02  0.10109091206E+03  0.00000000000E+00 0. -1.
         11    1    1    2    0    0 -0.36258067378E+02  0.14492272197E+02  0.43781991732E+02  0.58664607759E+02  0.00000000000E+00 0.  1.
<mgrwt>
<rscale>  0 0.12807044E+03</rscale>
<asrwt>0</asrwt>
<pdfrwt beam="1">  1        1 0.47066213E-01 0.13725909E+03</pdfrwt>
<pdfrwt beam="2">  1       -1 0.73429314E-02 0.13725909E+03</pdfrwt>
<totfact> 0.79807703E+03</totfact>
</mgrwt>
</event>
<event>
 7    1  0.5206756E-006  0.1148035E+03  0.7546771E-02  0.1266355E+00
         -1   -1    0    0    0  501 -0.00000000000E+00  0.00000000000E+00  0.64318491919E+01  0.64318491919E+01  0.00000000000E+00 0.  1.
          1   -1    0    0  501    0  0.00000000000E+00 -0.00000000000E+00 -0.27098147757E+04  0.27098147757E+04  0.00000000000E+00 0. -1.
         23    2    1    2    0    0 -0.35748968686E+01  0.43967972577E+01 -0.23366830046E+04  0.23395015065E+04  0.11466352145E+03 0.  0.
          5    1    3    3  502    0 -0.34949566236E+02 -0.83254322734E+01 -0.21048943966E+04  0.21052062359E+04  0.47000000000E+01 0. -1.
         -5    1    3    3    0  502  0.31374669368E+02  0.12722229531E+02 -0.23178860808E+03  0.23429527063E+03  0.47000000000E+01 0.  1.
        -11    1    1    2    0    0 -0.25377496710E+02  0.29874649278E+02 -0.12806938786E+03  0.13393386471E+03  0.00000000000E+00 0.  1.
         11    1    1    2    0    0  0.28952393579E+02 -0.34271446536E+02 -0.23863053398E+03  0.24281125363E+03  0.00000000000E+00 0. -1.
<mgrwt>
<rscale>  0 0.10693433E+03</rscale>
<asrwt>0</asrwt>
<pdfrwt beam="2">  1        1 0.41689401E+00 0.11480346E+03</pdfrwt>
<pdfrwt beam="1">  1       -1 0.98951660E-03 0.11480346E+03</pdfrwt>
<totfact> 0.22058421E+03</totfact>
</mgrwt>
</event>
<event>
 6    1  0.5206756E-006  0.1538278E+03  0.7546771E-02  0.1206735E+00
         -2   -1    0    0    0  501 -0.00000000000E+00  0.00000000000E+00  0.81354055114E+02  0.81354055114E+02  0.00000000000E+00 0.  1.
          2   -1    0    0  501    0  0.00000000000E+00 -0.00000000000E+00 -0.49902291519E+03  0.49902291519E+03  0.00000000000E+00 0. -1.
          5    1    1    2  502    0  0.41217991046E+02  0.81624786220E+02 -0.38678181075E+03  0.39747174445E+03  0.47000000000E+01 0. -1.
         -5    1    1    2    0  502 -0.40662338321E+02 -0.67712214874E+00 -0.44716291319E+02  0.60626074931E+02  0.47000000000E+01 0.  1.
        -11    1    1    2    0    0  0.27898249400E+02 -0.59424542216E+02 -0.24356307684E+02  0.70020127543E+02  0.00000000000E+00 0. -1.
         11    1    1    2    0    0 -0.28453902124E+02 -0.21523121856E+02  0.38185549676E+02  0.52259023379E+02  0.00000000000E+00 0.  1.
<mgrwt>
<rscale>  0 0.14501584E+03</rscale>
<asrwt>0</asrwt>
<pdfrwt beam="2">  1        2 0.76772756E-01 0.15382783E+03</pdfrwt>
<pdfrwt beam="1">  1       -2 0.12516009E-01 0.15382783E+03</pdfrwt>
<totfact> 0.28206352E+03</totfact>
</mgrwt>
</event>
<event>
 7    1  0.5206756E-006  0.4785606E+03  0.7546771E-02  0.1020075E+00
          2   -1    0    0  501    0  0.00000000000E+00  0.00000000000E+00  0.15476005814E+04  0.15476005814E+04  0.00000000000E+00 0. -1.
         -2   -1    0    0    0  501 -0.00000000000E+00 -0.00000000000E+00 -0.15071119168E+03  0.15071119168E+03  0.00000000000E+00 0.  1.
         23    2    1    2    0    0 -0.42169485712E+03  0.18859386202E+03  0.86067348742E+03  0.98477362985E+03  0.12500421108E+03 0.  0.
          5    1    3    3  502    0 -0.22798286741E+03  0.92391034363E+02  0.32940747374E+03  0.41114920019E+03  0.47000000000E+01 0. -1.
         -5    1    3    3    0  502 -0.19371198970E+03  0.96202827662E+02  0.53126601369E+03  0.57362442966E+03  0.47000000000E+01 0. -1.
        -11    1    1    2    0    0  0.12978866708E+03 -0.10513648512E+03  0.19812717556E+03  0.25913926044E+03  0.00000000000E+00 0.  1.
         11    1    1    2    0    0  0.29190619004E+03 -0.83457376904E+02  0.33808872675E+03  0.45439888281E+03  0.00000000000E+00 0. -1.
<mgrwt>
<rscale>  0 0.47659686E+03</rscale>
<asrwt>0</asrwt>
<pdfrwt beam="1">  1        2 0.23809239E+00 0.47856060E+03</pdfrwt>
<pdfrwt beam="2">  1       -2 0.23186338E-01 0.47856060E+03</pdfrwt>
<totfact> 0.20412501E+02</totfact>
</mgrwt>
</event>
<event>
 7    1  0.5206756E-006  0.1284605E+03  0.7546771E-02  0.1236824E+00
         -2   -1    0    0    0  501 -0.00000000000E+00  0.00000000000E+00  0.43044180054E+02  0.43044180054E+02  0.00000000000E+00 0.  1.
          2   -1    0    0  501    0  0.00000000000E+00 -0.00000000000E+00 -0.35933371544E+03  0.35933371544E+03  0.00000000000E+00 0. -1.
         23    2    1    2    0    0  0.63696960378E+01 -0.28934262111E+02 -0.22274813008E+03  0.25713579781E+03  0.12499729801E+03 0.  0.
          5    1    3    3  502    0 -0.28506884032E+02 -0.68499359434E+02 -0.14679289670E+03  0.16454497622E+03  0.47000000000E+01 0. -1.
         -5    1    3    3    0  502  0.34876580069E+02  0.39565097323E+02 -0.75955233385E+02  0.92590821587E+02  0.47000000000E+01 0. -1.
        -11    1    1    2    0    0 -0.42924241649E+02  0.50040503058E+02 -0.40191725457E+02  0.77213452602E+02  0.00000000000E+00 0.  1.
         11    1    1    2    0    0  0.36554545611E+02 -0.21106240947E+02 -0.53349679843E+02  0.68028645078E+02  0.00000000000E+00 0. -1.
<mgrwt>
<rscale>  0 0.12388385E+03</rscale>
<asrwt>0</asrwt>
<pdfrwt beam="2">  1        2 0.55282109E-01 0.12846046E+03</pdfrwt>
<pdfrwt beam="1">  1       -2 0.66221817E-02 0.12846046E+03</pdfrwt>
<totfact> 0.10755305E+04</totfact>
</mgrwt>
</event>
<event>
 7    1  0.5206756E-006  0.1195527E+03  0.7546771E-02  0.1252173E+00
         -2   -1    0    0    0  501 -0.00000000000E+00  0.00000000000E+00  0.49783462309E+02  0.49783462309E+02  0.00000000000E+00 0.  1.
          2   -1    0    0  501    0  0.00000000000E+00 -0.00000000000E+00 -0.25312209379E+03  0.25312209379E+03  0.00000000000E+00 0. -1.
         23    2    1    2    0    0 -0.23992765966E+02  0.39465130278E+02 -0.13752288928E+03  0.18222346667E+03  0.11027101796E+03 0.  0.
          5    1    3    3  502    0 -0.43486745646E+02  0.69634453727E+02 -0.10633512277E+03  0.13442210580E+03  0.47000000000E+01 0. -1.
         -5    1    3    3    0  502  0.19493979681E+02 -0.30169323449E+02 -0.31187766514E+02  0.47801360873E+02  0.47000000000E+01 0.  1.
        -11    1    1    2    0    0  0.58010462337E+02 -0.30081965423E+02 -0.36794606923E+02  0.74993209578E+02  0.00000000000E+00 0.  1.
         11    1    1    2    0    0 -0.34017696372E+02 -0.93831648545E+01 -0.29021135270E+02  0.45688879845E+02  0.00000000000E+00 0. -1.
<mgrwt>
<rscale>  0 0.11466134E+03</rscale>
<asrwt>0</asrwt>
<pdfrwt beam="2">  1        2 0.38941861E-01 0.11955269E+03</pdfrwt>
<pdfrwt beam="1">  1       -2 0.76589941E-02 0.11955269E+03</pdfrwt>
<totfact> 0.12400613E+04</totfact>
</mgrwt>
</event>
<event>
 7    1  0.5206756E-006  0.1518321E+03  0.7546771E-02  0.1208041E+00
          1   -1    0    0  501    0  0.00000000000E+00  0.00000000000E+00  0.28577901691E+03  0.28577901691E+03  0.00000000000E+00 0. -1.
         -1   -1    0    0    0  501 -0.00000000000E+00 -0.00000000000E+00 -0.68286794418E+02  0.68286794418E+02  0.00000000000E+00 0.  1.
         23    2    1    2    0    0 -0.85799750775E+02  0.82903361681E+01  0.87664630047E+02  0.17532277834E+03  0.12499064900E+03 0.  0.
          5    1    3    3  502    0 -0.30595831840E+01 -0.37489329483E+02 -0.10099257801E+02  0.39228763458E+02  0.47000000000E+01 0. -1.
         -5    1    3    3    0  502 -0.82740167591E+02  0.45779665651E+02  0.97763887848E+02  0.13609401488E+03  0.47000000000E+01 0. -1.
        -11    1    1    2    0    0  0.22176326479E+02  0.11476805923E+02 -0.75299262539E+01  0.26080765320E+02  0.00000000000E+00 0.  1.
         11    1    1    2    0    0  0.63623424296E+02 -0.19767142091E+02  0.13735751870E+03  0.15266226766E+03  0.00000000000E+00 0. -1.
<mgrwt>
<rscale>  0 0.14400341E+03</rscale>
<asrwt>0</asrwt>
<pdfrwt beam="1">  1        1 0.43966002E-01 0.15183211E+03</pdfrwt>
<pdfrwt beam="2">  1       -1 0.10505661E-01 0.15183211E+03</pdfrwt>
<totfact> 0.50732145E+03</totfact>
</mgrwt>
</event>
<event>
 7    1  0.5206756E-006  0.2760399E+03  0.7546771E-02  0.1099797E+00
          2   -1    0    0  501    0  0.00000000000E+00  0.00000000000E+00  0.18701358963E+04  0.18701358963E+04  0.00000000000E+00 0.  1.
         -2   -1    0    0    0  501 -0.00000000000E+00 -0.00000000000E+00 -0.38970400706E+02  0.38970400706E+02  0.00000000000E+00 0. -1.
         23    2    1    2    0    0  0.17661092660E+02  0.24548603886E+03  0.87150034295E+03  0.91417224647E+03  0.12499095564E+03 0.  0.
          5    1    3    3  502    0  0.59658284926E+02  0.21670602997E+03  0.71911745963E+03  0.75344052528E+03  0.47000000000E+01 0. -1.
         -5    1    3    3    0  502 -0.41997192266E+02  0.28780008891E+02  0.15238288331E+03  0.16073172119E+03  0.47000000000E+01 0. -1.
        -11    1    1    2    0    0 -0.26777648906E+02 -0.22661452943E+03  0.93558299575E+03  0.96300920523E+03  0.00000000000E+00 0.  1.
         11    1    1    2    0    0  0.91165562462E+01 -0.18871509436E+02  0.24082156874E+02  0.31924845276E+02  0.00000000000E+00 0. -1.
<mgrwt>
<rscale>  0 0.27260583E+03</rscale>
<asrwt>0</asrwt>
<pdfrwt beam="1">  1        2 0.28771315E+00 0.27603994E+03</pdfrwt>
<pdfrwt beam="2">  1       -2 0.59954477E-02 0.27603994E+03</pdfrwt>
<totfact> 0.12878732E+03</totfact>
</mgrwt>
</event>
<event>
 7    1  0.5206756E-006  0.2305561E+03  0.7546771E-02  0.1129250E+00
          2   -1    0    0  501    0  0.00000000000E+00  0.00000000000E+00  0.22264859431E+04  0.22264859431E+04  0.00000000000E+00 0. -1.
         -2   -1    0    0    0  501 -0.00000000000E+00 -0.00000000000E+00 -0.25598493170E+02  0.25598493170E+02  0.00000000000E+00 0.  1.
         23    2    1    2    0    0 -0.49758668975E+02  0.18723138257E+03  0.15456612247E+04  0.15627618907E+04  0.12499835856E+03 0.  0.
          5    1    3    3  502    0  0.29316877194E+02  0.35740037406E+02  0.59818230634E+03  0.59998415911E+03  0.47000000000E+01 0. -1.
         -5    1    3    3    0  502 -0.79075546169E+02  0.15149134516E+03  0.94747891837E+03  0.96277773158E+03  0.47000000000E+01 0. -1.
        -11    1    1    2    0    0  0.40007574819E+02 -0.13329162656E+03  0.57865126739E+03  0.59515086575E+03  0.00000000000E+00 0. -1.
         11    1    1    2    0    0  0.97510941552E+01 -0.53939756011E+02  0.76574957817E+02  0.94171679822E+02  0.00000000000E+00 0.  1.
<mgrwt>
<rscale>  0 0.22633043E+03</rscale>
<asrwt>0</asrwt>
<pdfrwt beam="1">  1        2 0.34253615E+00 0.23055608E+03</pdfrwt>
<pdfrwt beam="2">  1       -2 0.39382315E-02 0.23055608E+03</pdfrwt>
<totfact> 0.15920257E+03</totfact>
</mgrwt>
</event>
<event>
 7    1  0.5206756E-006  0.1316026E+03  0.7546771E-02  0.1246804E+00
         -2   -1    0    0    0  501 -0.00000000000E+00  0.00000000000E+00  0.42852687105E+02  0.42852687105E+02  0.00000000000E+00 0.  1.
          2   -1    0    0  501    0  0.00000000000E+00 -0.00000000000E+00 -0.27254230384E+03  0.27254230384E+03  0.00000000000E+00 0. -1.
         23    2    1    2    0    0  0.39932387416E+02  0.99874100549E+01 -0.14472949946E+03  0.19561666519E+03  0.12499963105E+03 0.  0.
          5    1    3    3  502    0  0.55966982197E+02  0.37318207544E+02 -0.25391376556E+02  0.72053894509E+02  0.47000000000E+01 0. -1.
         -5    1    3    3    0  502 -0.16034594782E+02 -0.27330797489E+02 -0.11933812290E+03  0.12356277068E+03  0.47000000000E+01 0. -1.
        -11    1    1    2    0    0 -0.49768057774E+02  0.18797304564E+01 -0.21107532490E+02  0.54091782084E+02  0.00000000000E+00 0.  1.
         11    1    1    2    0    0  0.98356703585E+01 -0.11867140511E+02 -0.63852584788E+02  0.65686543671E+02  0.00000000000E+00 0. -1.
<mgrwt>
<rscale>  0 0.11778070E+03</rscale>
<asrwt>0</asrwt>
<pdfrwt beam="2">  1        2 0.41929587E-01 0.13160263E+03</pdfrwt>
<pdfrwt beam="1">  1       -2 0.65927207E-02 0.13160263E+03</pdfrwt>
<totfact> 0.14540209E+04</totfact>
</mgrwt>
</event>
<event>
 7    1  0.5206756E-006  0.1347266E+03  0.7546771E-02  0.1232453E+00
         -1   -1    0    0    0  501 -0.00000000000E+00  0.00000000000E+00  0.10565798334E+03  0.10565798334E+03  0.00000000000E+00 0.  1.
          1   -1    0    0  501    0  0.00000000000E+00 -0.00000000000E+00 -0.20869246245E+03  0.20869246245E+03  0.00000000000E+00 0. -1.
         23    2    1    2    0    0  0.34901160016E+02  0.36186264370E+02 -0.14771405469E+03  0.19992673461E+03  0.12499488214E+03 0.  0.
          5    1    3    3  502    0  0.84911076290E+00 -0.36293047711E+02 -0.10023739863E+03  0.10671238159E+03  0.47000000000E+01 0. -1.
         -5    1    3    3    0  502  0.34052049253E+02  0.72479312081E+02 -0.47476656061E+02  0.93214353020E+02  0.47000000000E+01 0. -1.
        -11    1    1    2    0    0 -0.13437405472E+02 -0.16676257608E+02 -0.28532086390E+02  0.35675501222E+02  0.00000000000E+00 0. -1.
         11    1    1    2    0    0 -0.21463754544E+02 -0.19510006762E+02  0.73211661975E+02  0.78748209961E+02  0.00000000000E+00 0.  1.
<mgrwt>
<rscale>  0 0.12668884E+03</rscale>
<asrwt>0</asrwt>
<pdfrwt beam="2">  1        1 0.32106532E-01 0.13472660E+03</pdfrwt>
<pdfrwt beam="1">  1       -1 0.16255075E-01 0.13472660E+03</pdfrwt>
<totfact> 0.37759523E+03</totfact>
</mgrwt>
</event>
<event>
 7    1  0.5206756E-006  0.1666595E+03  0.7546771E-02  0.1187933E+00
          1   -1    0    0  501    0  0.00000000000E+00  0.00000000000E+00  0.10664013224E+03  0.10664013224E+03  0.00000000000E+00 0. -1.
         -1   -1    0    0    0  501 -0.00000000000E+00 -0.00000000000E+00 -0.22880280762E+03  0.22880280762E+03  0.00000000000E+00 0.  1.
         23    2    1    2    0    0  0.51396900396E+02  0.97495517266E+02 -0.47786804998E+02  0.17337523179E+03  0.12501349930E+03 0.  0.
          5    1    3    3  502    0  0.68677479185E+02  0.15399309415E+02  0.10212845680E+02  0.71275010309E+02  0.47000000000E+01 0. -1.
         -5    1    3    3    0  502 -0.17280578789E+02  0.82096207851E+02 -0.57999650678E+02  0.10210022148E+03  0.47000000000E+01 0. -1.
        -11    1    1    2    0    0 -0.68568514153E+01 -0.58187488292E+02 -0.83459885754E+02  0.10197231357E+03  0.00000000000E+00 0.  1.
         11    1    1    2    0    0 -0.44540048980E+02 -0.39308028975E+02  0.90840153711E+01  0.60095394502E+02  0.00000000000E+00 0. -1.
<mgrwt>
<rscale>  0 0.16067874E+03</rscale>
<asrwt>0</asrwt>
<pdfrwt beam="1">  1        1 0.16406174E-01 0.16665951E+03</pdfrwt>
<pdfrwt beam="2">  1       -1 0.35200432E-01 0.16665951E+03</pdfrwt>
<totfact> 0.25064474E+03</totfact>
</mgrwt>
</event>
<event>
 7    1  0.5206756E-006  0.1952812E+03  0.7546771E-02  0.1158236E+00
         -2   -1    0    0    0  501 -0.00000000000E+00  0.00000000000E+00  0.22822599967E+02  0.22822599967E+02  0.00000000000E+00 0. -1.
          2   -1    0    0  501    0  0.00000000000E+00 -0.00000000000E+00 -0.17235343116E+04  0.17235343116E+04  0.00000000000E+00 0.  1.
         23    2    1    2    0    0  0.14485269217E+03 -0.39085483700E+02 -0.11966276051E+04  0.12124571628E+04  0.12499907558E+03 0.  0.
          5    1    3    3  502    0  0.97411542045E+02 -0.55386163512E+02 -0.43707219986E+03  0.45123257144E+03  0.47000000000E+01 0. -1.
         -5    1    3    3    0  502  0.47441150129E+02  0.16300679812E+02 -0.75955540520E+03  0.76122459134E+03  0.47000000000E+01 0. -1.
        -11    1    1    2    0    0 -0.58718684923E+02 -0.14954956213E+01 -0.79938148704E+02  0.99197923791E+02  0.00000000000E+00 0. -1.
         11    1    1    2    0    0 -0.86134007251E+02  0.40580979321E+02 -0.42414595791E+03  0.43470182504E+03  0.00000000000E+00 0.  1.
<mgrwt>
<rscale>  0 0.19025000E+03</rscale>
<asrwt>0</asrwt>
<pdfrwt beam="2">  1        2 0.26515919E+00 0.19528120E+03</pdfrwt>
<pdfrwt beam="1">  1       -2 0.35111683E-02 0.19528120E+03</pdfrwt>
<totfact> 0.34681488E+03</totfact>
</mgrwt>
</event>
<event>
 7    1  0.5206756E-006  0.1811986E+03  0.7546771E-02  0.1172095E+00
          2   -1    0    0  501    0  0.00000000000E+00  0.00000000000E+00  0.62734202599E+03  0.62734202599E+03  0.00000000000E+00 0. -1.
         -2   -1    0    0    0  501 -0.00000000000E+00 -0.00000000000E+00 -0.46485459183E+02  0.46485459183E+02  0.00000000000E+00 0.  1.
         23    2    1    2    0    0 -0.13103767939E+03 -0.58497663726E+01  0.29237435682E+03  0.34397049412E+03  0.12501137193E+03 0.  0.
          5    1    3    3  502    0 -0.49723619891E+02  0.50739769674E+02  0.18280584808E+03  0.19618111707E+03  0.47000000000E+01 0.  1.
         -5    1    3    3    0  502 -0.81314059497E+02 -0.56589536046E+02  0.10956850875E+03  0.14778937706E+03  0.47000000000E+01 0.  1.
        -11    1    1    2    0    0  0.39515024705E+02 -0.97635971187E+00  0.19457723751E+03  0.19855148403E+03  0.00000000000E+00 0. -1.
         11    1    1    2    0    0  0.91522654682E+02  0.68261260845E+01  0.93904972472E+02  0.13130550701E+03  0.00000000000E+00 0.  1.
<mgrwt>
<rscale>  0 0.17563516E+03</rscale>
<asrwt>0</asrwt>
<pdfrwt beam="1">  1        2 0.96514152E-01 0.18119861E+03</pdfrwt>
<pdfrwt beam="2">  1       -2 0.71516096E-02 0.18119861E+03</pdfrwt>
<totfact> 0.52860772E+03</totfact>
</mgrwt>
</event>
<event>
 7    1  0.5206756E-006  0.1385359E+03  0.7546771E-02  0.1226849E+00
         -1   -1    0    0    0  501 -0.00000000000E+00  0.00000000000E+00  0.90638691506E+02  0.90638691506E+02  0.00000000000E+00 0.  1.
          1   -1    0    0  501    0  0.00000000000E+00 -0.00000000000E+00 -0.17968806076E+03  0.17968806076E+03  0.00000000000E+00 0. -1.
         23    2    1    2    0    0 -0.59370210540E+02 -0.65736002104E+01 -0.82740828404E+02  0.16136364870E+03  0.12499659323E+03 0.  0.
          5    1    3    3  502    0 -0.12111681631E+02 -0.25200157345E+02  0.27745266650E+02  0.39669012889E+02  0.47000000000E+01 0.  1.
         -5    1    3    3    0  502 -0.47258528908E+02  0.18626557135E+02 -0.11048609505E+03  0.12169463581E+03  0.47000000000E+01 0.  1.
        -11    1    1    2    0    0  0.38291062534E+02 -0.41370172667E+02 -0.18652389650E+01  0.56401912848E+02  0.00000000000E+00 0. -1.
         11    1    1    2    0    0  0.21079148005E+02  0.47943772877E+02 -0.44433018892E+01  0.52561190721E+02  0.00000000000E+00 0.  1.
<mgrwt>
<rscale>  0 0.13040950E+03</rscale>
<asrwt>0</asrwt>
<pdfrwt beam="2">  1        1 0.27644317E-01 0.13853585E+03</pdfrwt>
<pdfrwt beam="1">  1       -1 0.13944414E-01 0.13853585E+03</pdfrwt>
<totfact> 0.57942057E+03</totfact>
</mgrwt>
</event>
<event>
 7    1  0.5206756E-006  0.1291897E+03  0.7546771E-02  0.1244561E+00
         -2   -1    0    0    0  501 -0.00000000000E+00  0.00000000000E+00  0.21483108822E+02  0.21483108822E+02  0.00000000000E+00 0.  1.
          2   -1    0    0  501    0  0.00000000000E+00 -0.00000000000E+00 -0.57649200330E+03  0.57649200330E+03  0.00000000000E+00 0. -1.
         23    2    1    2    0    0 -0.84441553720E+01 -0.17423130392E+02 -0.31881194910E+03  0.34399280573E+03  0.12773066300E+03 0.  0.
          5    1    3    3  502    0 -0.35645142329E+02  0.45103805545E+02 -0.18424529310E+03  0.19306306605E+03  0.47000000000E+01 0. -1.
         -5    1    3    3    0  502  0.27200986957E+02 -0.62526935936E+02 -0.13456665601E+03  0.15092973967E+03  0.47000000000E+01 0.  1.
        -11    1    1    2    0    0  0.31938772736E+02 -0.22087868973E+02 -0.56912163324E+02  0.68898138537E+02  0.00000000000E+00 0. -1.
         11    1    1    2    0    0 -0.23494617364E+02  0.39510999365E+02 -0.17928478205E+03  0.18508416786E+03  0.00000000000E+00 0.  1.
<mgrwt>
<rscale>  0 0.11911686E+03</rscale>
<asrwt>0</asrwt>
<pdfrwt beam="2">  1        2 0.88691078E-01 0.12918975E+03</pdfrwt>
<pdfrwt beam="1">  1       -2 0.33050937E-02 0.12918975E+03</pdfrwt>
<totfact> 0.18218172E+04</totfact>
</mgrwt>
</event>
<event>
 7    1  0.5206756E-006  0.1333154E+03  0.7546771E-02  0.1234698E+00
          3   -1    0    0  501    0  0.00000000000E+00  0.00000000000E+00  0.29454995382E+02  0.29454995382E+02  0.00000000000E+00 0. -1.
         -3   -1    0    0    0  501 -0.00000000000E+00 -0.00000000000E+00 -0.49931047617E+03  0.49931047617E+03  0.00000000000E+00 0.  1.
         23    2    1    2    0    0  0.46092079222E+02  0.82075749817E+01 -0.20776184153E+03  0.24685617647E+03  0.12482445678E+03 0.  0.
          5    1    3    3  502    0  0.61803577078E+02  0.49928639419E+02 -0.17195986180E+03  0.18948571251E+03  0.47000000000E+01 0. -1.
         -5    1    3    3    0  502 -0.15711497856E+02 -0.41721064437E+02 -0.35801979731E+02  0.57370463962E+02  0.47000000000E+01 0. -1.
        -11    1    1    2    0    0 -0.21985992949E+02  0.38641511915E+02 -0.17091546254E+03  0.17660307377E+03  0.00000000000E+00 0.  1.
         11    1    1    2    0    0 -0.24106086273E+02 -0.46849086896E+02 -0.91178176716E+02  0.10530622132E+03  0.00000000000E+00 0. -1.
<mgrwt>
<rscale>  0 0.12523808E+03</rscale>
<asrwt>0</asrwt>
<pdfrwt beam="1">  1        3 0.45315381E-02 0.13331537E+03</pdfrwt>
<pdfrwt beam="2">  1       -3 0.76816991E-01 0.13331537E+03</pdfrwt>
<totfact> 0.99904280E+02</totfact>
</mgrwt>
</event>
<event>
 6    1  0.5206756E-006  0.1349595E+03  0.7546771E-02  0.1237169E+00
         -2   -1    0    0    0  501 -0.00000000000E+00  0.00000000000E+00  0.45929319125E+02  0.45929319125E+02  0.00000000000E+00 0.  1.
          2   -1    0    0  501    0  0.00000000000E+00 -0.00000000000E+00 -0.29126242598E+03  0.29126242598E+03  0.00000000000E+00 0. -1.
          5    1    1    2  502    0  0.58499845874E+02 -0.30872953682E+02 -0.78004763570E+02  0.10238263708E+03  0.47000000000E+01 0. -1.
         -5    1    1    2    0  502 -0.68385330908E+02 -0.35902265265E+01 -0.82675896952E+02  0.10745621037E+03  0.47000000000E+01 0.  1.
        -11    1    1    2    0    0  0.34613183017E+02  0.31498337179E+02 -0.89353448729E+01  0.47645126420E+02  0.00000000000E+00 0. -1.
         11    1    1    2    0    0 -0.24727697982E+02  0.29648430298E+01 -0.75717101464E+02  0.79707771238E+02  0.00000000000E+00 0.  1.
<mgrwt>
<rscale>  0 0.12366591E+03</rscale>
<asrwt>0</asrwt>
<pdfrwt beam="2">  1        2 0.44809606E-01 0.13495950E+03</pdfrwt>
<pdfrwt beam="1">  1       -2 0.70660488E-02 0.13495950E+03</pdfrwt>
<totfact> 0.12215516E+04</totfact>
</mgrwt>
</event>
<event>
 7    1  0.5206756E-006  0.1278353E+03  0.7546771E-02  0.1245136E+00
         -1   -1    0    0    0  501 -0.00000000000E+00  0.00000000000E+00  0.28309895015E+02  0.28309895015E+02  0.00000000000E+00 0.  1.
          1   -1    0    0  501    0  0.00000000000E+00 -0.00000000000E+00 -0.58098774705E+03  0.58098774705E+03  0.00000000000E+00 0. -1.
         23    2    1    2    0    0 -0.14899746455E+02 -0.22207464922E+02 -0.45597344238E+03  0.47355427570E+03  0.12500679155E+03 0.  0.
          5    1    3    3  502    0  0.37784713550E+02  0.28744318254E+02 -0.25850935434E+03  0.26287467868E+03  0.47000000000E+01 0.  1.
         -5    1    3    3    0  502 -0.52684460004E+02 -0.50951783177E+02 -0.19746408804E+03  0.21067959702E+03  0.47000000000E+01 0.  1.
        -11    1    1    2    0    0 -0.76277979651E+01 -0.32272252189E+02 -0.52343252907E+02  0.61963680395E+02  0.00000000000E+00 0.  1.
         11    1    1    2    0    0  0.22527544420E+02  0.54479717111E+02 -0.44361156750E+02  0.73779685973E+02  0.00000000000E+00 0. -1.
<mgrwt>
<rscale>  0 0.11877256E+03</rscale>
<asrwt>0</asrwt>
<pdfrwt beam="2">  1        1 0.89382724E-01 0.12783533E+03</pdfrwt>
<pdfrwt beam="1">  1       -1 0.43553687E-02 0.12783533E+03</pdfrwt>
<totfact> 0.76124330E+03</totfact>
</mgrwt>
</event>
<event>
 7    1  0.5206756E-006  0.2387102E+03  0.7546771E-02  0.1123450E+00
         -1   -1    0    0    0  501 -0.00000000000E+00  0.00000000000E+00  0.11412427863E+03  0.11412427863E+03  0.00000000000E+00 0.  1.
          1   -1    0    0  501    0  0.00000000000E+00 -0.00000000000E+00 -0.47901842022E+03  0.47901842022E+03  0.00000000000E+00 0. -1.
         23    2    1    2    0    0 -0.39114229538E+02 -0.19956760923E+03 -0.14029821642E+03  0.27688655262E+03  0.12500167955E+03 0.  0.
          5    1    3    3  502    0  0.13914121646E+02 -0.29990951505E+02 -0.84083277003E+02  0.90471804585E+02  0.47000000000E+01 0. -1.
         -5    1    3    3    0  502 -0.53028351184E+02 -0.16957665772E+03 -0.56214939416E+02  0.18641474804E+03  0.47000000000E+01 0. -1.
        -11    1    1    2    0    0  0.44462793585E+02  0.18034105521E+03 -0.14914367169E+03  0.23820930085E+03  0.00000000000E+00 0.  1.
         11    1    1    2    0    0 -0.53485640475E+01  0.19226554018E+02 -0.75452253488E+02  0.78046845377E+02  0.00000000000E+00 0. -1.
<mgrwt>
<rscale>  0 0.23459065E+03</rscale>
<asrwt>0</asrwt>
<pdfrwt beam="2">  1        1 0.73695141E-01 0.23871023E+03</pdfrwt>
<pdfrwt beam="1">  1       -1 0.17557581E-01 0.23871023E+03</pdfrwt>
<totfact> 0.11923213E+03</totfact>
</mgrwt>
</event>
<event>
 6    1  0.5206756E-006  0.4870107E+03  0.7546771E-02  0.1039009E+00
          2   -1    0    0  501    0  0.00000000000E+00  0.00000000000E+00  0.15988242795E+04  0.15988242795E+04  0.00000000000E+00 0. -1.
         -2   -1    0    0    0  501 -0.00000000000E+00 -0.00000000000E+00 -0.14226780898E+03  0.14226780898E+03  0.00000000000E+00 0.  1.
          5    1    1    2  502    0  0.18822063982E+03  0.96323900838E+01  0.13697605866E+04  0.13826734781E+04  0.47000000000E+01 0. -1.
         -5    1    1    2    0  502  0.31251051938E+02  0.87561799944E+02  0.27559255705E+02  0.97083982364E+02  0.47000000000E+01 0.  1.
        -11    1    1    2    0    0 -0.24367215662E+02 -0.36665439809E+02  0.33751182167E+02  0.55473038254E+02  0.00000000000E+00 0. -1.
         11    1    1    2    0    0 -0.19510447609E+03 -0.60528750219E+02  0.25485445991E+02  0.20586158979E+03  0.00000000000E+00 0.  1.
<mgrwt>
<rscale>  0 0.41408518E+03</rscale>
<asrwt>0</asrwt>
<pdfrwt beam="1">  1        2 0.24597295E+00 0.48701068E+03</pdfrwt>
<pdfrwt beam="2">  1       -2 0.21887356E-01 0.48701068E+03</pdfrwt>
<totfact> 0.21172582E+02</totfact>
</mgrwt>
</event>
<event>
 7    1  0.5206756E-006  0.1302853E+03  0.7546771E-02  0.1240155E+00
         -2   -1    0    0    0  501 -0.00000000000E+00  0.00000000000E+00  0.21650250723E+03  0.21650250723E+03  0.00000000000E+00 0.  1.
          2   -1    0    0  501    0  0.00000000000E+00 -0.00000000000E+00 -0.63921918730E+02  0.63921918730E+02  0.00000000000E+00 0. -1.
         23    2    1    2    0    0 -0.13004811955E+02 -0.34360331890E+02  0.56225024020E+02  0.14189968296E+03  0.12499803662E+03 0.  0.
          5    1    3    3  502    0  0.94546517943E+00 -0.64677579251E+02  0.78254551892E+02  0.10163635203E+03  0.47000000000E+01 0.  1.
         -5    1    3    3    0  502 -0.13950277135E+02  0.30317247361E+02 -0.22029527872E+02  0.40263330934E+02  0.47000000000E+01 0.  1.
        -11    1    1    2    0    0 -0.16017306767E+02 -0.24900455692E+02  0.49199262586E+02  0.57420852038E+02  0.00000000000E+00 0.  1.
         11    1    1    2    0    0  0.29022118722E+02  0.59260787583E+02  0.47156301892E+02  0.81103890956E+02  0.00000000000E+00 0. -1.
<mgrwt>
<rscale>  0 0.12180128E+03</rscale>
<asrwt>0</asrwt>
<pdfrwt beam="2">  1        2 0.98341414E-02 0.13028533E+03</pdfrwt>
<pdfrwt beam="1">  1       -2 0.33308078E-01 0.13028533E+03</pdfrwt>
<totfact> 0.52246944E+03</totfact>
</mgrwt>
</event>
<event>
 7    1  0.5206756E-006  0.1250318E+03  0.7546771E-02  0.1249961E+00
         -1   -1    0    0    0  501 -0.00000000000E+00  0.00000000000E+00  0.27841323311E+02  0.27841323311E+02  0.00000000000E+00 0.  1.
          1   -1    0    0  501    0  0.00000000000E+00 -0.00000000000E+00 -0.47889709040E+03  0.47889709040E+03  0.00000000000E+00 0. -1.
         23    2    1    2    0    0  0.22487606991E+01 -0.14831053850E+01 -0.33997667236E+03  0.36223900612E+03  0.12500281307E+03 0.  0.
          5    1    3    3  502    0 -0.25639278132E+02 -0.24100168452E+02 -0.21068716324E+02  0.41281612252E+02  0.47000000000E+01 0.  1.
         -5    1    3    3    0  502  0.27888038831E+02  0.22617063067E+02 -0.31890795604E+03  0.32095739387E+03  0.47000000000E+01 0.  1.
        -11    1    1    2    0    0 -0.12052444618E+02 -0.42856945389E+02 -0.38361189494E+02  0.58766997956E+02  0.00000000000E+00 0.  1.
         11    1    1    2    0    0  0.98036839185E+01  0.44340050774E+02 -0.72717905230E+02  0.85732409637E+02  0.00000000000E+00 0. -1.
<mgrwt>
<rscale>  0 0.11593306E+03</rscale>
<asrwt>0</asrwt>
<pdfrwt beam="2">  1        1 0.73676473E-01 0.12503184E+03</pdfrwt>
<pdfrwt beam="1">  1       -1 0.42832806E-02 0.12503184E+03</pdfrwt>
<totfact> 0.10045477E+04</totfact>
</mgrwt>
</event>
<event>
 7    1  0.5206756E-006  0.1350774E+03  0.7546771E-02  0.1232702E+00
          2   -1    0    0  501    0  0.00000000000E+00  0.00000000000E+00  0.42012871224E+02  0.42012871224E+02  0.00000000000E+00 0. -1.
         -2   -1    0    0    0  501 -0.00000000000E+00 -0.00000000000E+00 -0.34036574754E+03  0.34036574754E+03  0.00000000000E+00 0.  1.
         23    2    1    2    0    0 -0.49903958917E+02 -0.11486302967E+02 -0.16316353347E+03  0.21182123491E+03  0.12499422639E+03 0.  0.
          5    1    3    3  502    0 -0.85749800017E+02 -0.32754295469E+02 -0.98292947618E+02  0.13457141460E+03  0.47000000000E+01 0. -1.
         -5    1    3    3    0  502  0.35845841100E+02  0.21267992502E+02 -0.64870585853E+02  0.77249820311E+02  0.47000000000E+01 0. -1.
        -11    1    1    2    0    0  0.17541048386E+02  0.49270662216E+02 -0.52833961905E+02  0.74341872886E+02  0.00000000000E+00 0.  1.
         11    1    1    2    0    0  0.32362910532E+02 -0.37784359249E+02 -0.82355380943E+02  0.96215510975E+02  0.00000000000E+00 0. -1.
<mgrwt>
<rscale>  0 0.12652710E+03</rscale>
<asrwt>0</asrwt>
<pdfrwt beam="1">  1        2 0.64635188E-02 0.13507737E+03</pdfrwt>
<pdfrwt beam="2">  1       -2 0.52363960E-01 0.13507737E+03</pdfrwt>
<totfact> 0.37388240E+03</totfact>
</mgrwt>
</event>
<event>
 6    1  0.5206756E-006  0.2580950E+03  0.7546771E-02  0.1123763E+00
         -2   -1    0    0    0  501 -0.00000000000E+00  0.00000000000E+00  0.48497931841E+02  0.48497931841E+02  0.00000000000E+00 0.  1.
          2   -1    0    0  501    0  0.00000000000E+00 -0.00000000000E+00 -0.14201213693E+04  0.14201213693E+04  0.00000000000E+00 0. -1.
          5    1    1    2  502    0 -0.13194310910E+03  0.85133146778E+02 -0.11764626809E+04  0.11869048682E+04  0.47000000000E+01 0. -1.
         -5    1    1    2    0  502  0.19884599968E+02  0.14077039912E+02 -0.91037416911E+01  0.26429689392E+02  0.47000000000E+01 0.  1.
        -11    1    1    2    0    0  0.60071898586E+02  0.24556478537E+01 -0.55290291764E+02  0.81680349959E+02  0.00000000000E+00 0. -1.
         11    1    1    2    0    0  0.51986610546E+02 -0.10166583454E+03 -0.13076672315E+03  0.17360439358E+03  0.00000000000E+00 0.  1.
<mgrwt>
<rscale>  0 0.23413510E+03</rscale>
<asrwt>0</asrwt>
<pdfrwt beam="2">  1        2 0.21848022E+00 0.25809496E+03</pdfrwt>
<pdfrwt beam="1">  1       -2 0.74612201E-02 0.25809496E+03</pdfrwt>
<totfact> 0.15912783E+03</totfact>
</mgrwt>
</event>
<event>
 7    1  0.5206756E-006  0.1753388E+03  0.7546771E-02  0.1178032E+00
         -2   -1    0    0    0  501 -0.00000000000E+00  0.00000000000E+00  0.18688756389E+03  0.18688756389E+03  0.00000000000E+00 0.  1.
          2   -1    0    0  501    0  0.00000000000E+00 -0.00000000000E+00 -0.14541266972E+03  0.14541266972E+03  0.00000000000E+00 0. -1.
         23    2    1    2    0    0  0.40234420555E+02 -0.11619313642E+03  0.25353986962E+02  0.17716237882E+03  0.12499612100E+03 0.  0.
          5    1    3    3  502    0  0.37457963815E+01 -0.13211059837E+03  0.53326974609E+01  0.13235470847E+03  0.47000000000E+01 0.  1.
         -5    1    3    3    0  502  0.36488624174E+02  0.15917461948E+02  0.20021289501E+02  0.44807670350E+02  0.47000000000E+01 0.  1.
        -11    1    1    2    0    0 -0.38011997096E+02  0.14949343654E+02 -0.22645161864E+02  0.46703299185E+02  0.00000000000E+00 0. -1.
         11    1    1    2    0    0 -0.22224234596E+01  0.10124379277E+03  0.38766069070E+02  0.10843455561E+03  0.00000000000E+00 0.  1.
<mgrwt>
<rscale>  0 0.16982379E+03</rscale>
<asrwt>0</asrwt>
<pdfrwt beam="2">  1        2 0.22371180E-01 0.17533877E+03</pdfrwt>
<pdfrwt beam="1">  1       -2 0.28751933E-01 0.17533877E+03</pdfrwt>
<totfact> 0.26393032E+03</totfact>
</mgrwt>
</event>
<event>
 7    1  0.5206756E-006  0.1152416E+03  0.7546771E-02  0.1279837E+00
          2   -1    0    0  501    0  0.00000000000E+00  0.00000000000E+00  0.30775188162E+03  0.30775188162E+03  0.00000000000E+00 0. -1.
         -2   -1    0    0    0  501 -0.00000000000E+00 -0.00000000000E+00 -0.46646955794E+02  0.46646955794E+02  0.00000000000E+00 0.  1.
         23    2    1    2    0    0 -0.21379676629E+02 -0.26231818019E+02  0.26438044497E+03  0.28840533791E+03  0.11016088419E+03 0.  0.
          5    1    3    3  502    0  0.31884084010E+02  0.17467859272E+02  0.15319545480E+03  0.15752034247E+03  0.47000000000E+01 0. -1.
         -5    1    3    3    0  502 -0.53263760640E+02 -0.43699677291E+02  0.11118499017E+03  0.13088499544E+03  0.47000000000E+01 0.  1.
        -11    1    1    2    0    0  0.27777551371E+01 -0.17163601089E+02  0.49279232265E+01  0.18071788878E+02  0.00000000000E+00 0. -1.
         11    1    1    2    0    0  0.18601921492E+02  0.43395419108E+02 -0.82034423665E+01  0.47921710627E+02  0.00000000000E+00 0.  1.
<mgrwt>
<rscale>  0 0.10021858E+03</rscale>
<asrwt>0</asrwt>
<pdfrwt beam="1">  1        2 0.47346442E-01 0.11524157E+03</pdfrwt>
<pdfrwt beam="2">  1       -2 0.71764549E-02 0.11524157E+03</pdfrwt>
<totfact> 0.11112195E+04</totfact>
</mgrwt>
</event>
<event>
 7    1  0.5206756E-006  0.1253293E+03  0.7546771E-02  0.1249629E+00
         -2   -1    0    0    0  501 -0.00000000000E+00  0.00000000000E+00  0.12020685549E+02  0.12020685549E+02  0.00000000000E+00 0.  1.
          2   -1    0    0  501    0  0.00000000000E+00 -0.00000000000E+00 -0.11390241858E+04  0.11390241858E+04  0.00000000000E+00 0. -1.
         23    2    1    2    0    0 -0.59054993768E+01 -0.33042981423E+01 -0.84637219511E+03  0.85560114647E+03  0.12514645767E+03 0.  0.
          5    1    3    3  502    0 -0.46988618848E+02 -0.15019832489E+02 -0.72771277697E+03  0.72939804047E+03  0.47000000000E+01 0. -1.
         -5    1    3    3    0  502  0.41083119471E+02  0.11715534347E+02 -0.11865941814E+03  0.12620310600E+03  0.47000000000E+01 0. -1.
        -11    1    1    2    0    0  0.45932535132E+02  0.11194573700E+02 -0.10526289428E+03  0.11539234453E+03  0.00000000000E+00 0.  1.
         11    1    1    2    0    0 -0.40027035755E+02 -0.78902755573E+01 -0.17536841084E+03  0.18005138033E+03  0.00000000000E+00 0. -1.
<mgrwt>
<rscale>  0 0.11612549E+03</rscale>
<asrwt>0</asrwt>
<pdfrwt beam="2">  1        2 0.17523452E+00 0.12532928E+03</pdfrwt>
<pdfrwt beam="1">  1       -2 0.18493359E-02 0.12532928E+03</pdfrwt>
<totfact> 0.17924211E+04</totfact>
</mgrwt>
</event>
<event>
 7    1  0.5206756E-006  0.1788399E+03  0.7546771E-02  0.1174784E+00
         -3   -1    0    0    0  501 -0.00000000000E+00  0.00000000000E+00  0.54759674067E+02  0.54759674067E+02  0.00000000000E+00 0.  1.
          3   -1    0    0  501    0  0.00000000000E+00 -0.00000000000E+00 -0.60319039930E+03  0.60319039930E+03  0.00000000000E+00 0. -1.
         23    2    1    2    0    0  0.12302160636E+03 -0.30364740064E+02 -0.41646787662E+03  0.45324298630E+03  0.12620372143E+03 0.  0.
          5    1    3    3  502    0  0.55034638438E+02  0.18043583523E+02 -0.47872855267E+02  0.75287997754E+02  0.47000000000E+01 0.  1.
         -5    1    3    3    0  502  0.67986967920E+02 -0.48408323587E+02 -0.36859502135E+03  0.37795498854E+03  0.47000000000E+01 0.  1.
        -11    1    1    2    0    0 -0.21828008326E+02  0.22805010833E+02  0.72943164534E+01  0.32399653070E+02  0.00000000000E+00 0.  1.
         11    1    1    2    0    0 -0.10119359803E+03  0.75597292314E+01 -0.13925716507E+03  0.17230743400E+03  0.00000000000E+00 0. -1.
<mgrwt>
<rscale>  0 0.17297116E+03</rscale>
<asrwt>0</asrwt>
<pdfrwt beam="2">  1        3 0.92798523E-01 0.17883991E+03</pdfrwt>
<pdfrwt beam="1">  1       -3 0.84245652E-02 0.17883991E+03</pdfrwt>
<totfact> 0.25393705E+02</totfact>
</mgrwt>
</event>
<event>
 7    1  0.5206756E-006  0.1345322E+03  0.7546771E-02  0.1231085E+00
          1   -1    0    0  501    0  0.00000000000E+00  0.00000000000E+00  0.11366761867E+03  0.11366761867E+03  0.00000000000E+00 0. -1.
         -1   -1    0    0    0  501 -0.00000000000E+00 -0.00000000000E+00 -0.13244811188E+03  0.13244811188E+03  0.00000000000E+00 0.  1.
         23    2    1    2    0    0  0.44835876183E+02 -0.21572366123E+02  0.54023423650E+01  0.13464066840E+03  0.12499320586E+03 0.  0.
          5    1    3    3  502    0  0.56314708516E+01 -0.19738843383E+02  0.62072413900E+02  0.65547005801E+02  0.47000000000E+01 0. -1.
         -5    1    3    3    0  502  0.39204405331E+02 -0.18335227395E+01 -0.56670071535E+02  0.69093662595E+02  0.47000000000E+01 0. -1.
        -11    1    1    2    0    0 -0.73177149543E+02  0.16263115975E+02 -0.32141455375E+02  0.81562597495E+02  0.00000000000E+00 0.  1.
         11    1    1    2    0    0  0.28341273360E+02  0.53092501481E+01  0.79586198044E+01  0.29912464660E+02  0.00000000000E+00 0. -1.
<mgrwt>
<rscale>  0 0.12758434E+03</rscale>
<asrwt>0</asrwt>
<pdfrwt beam="1">  1        1 0.17487326E-01 0.13453224E+03</pdfrwt>
<pdfrwt beam="2">  1       -1 0.20376632E-01 0.13453224E+03</pdfrwt>
<totfact> 0.56627803E+03</totfact>
</mgrwt>
</event>
<event>
 7    1  0.5206756E-006  0.1370535E+03  0.7546771E-02  0.1229798E+00
          1   -1    0    0  501    0  0.00000000000E+00  0.00000000000E+00  0.31131791187E+03  0.31131791187E+03  0.00000000000E+00 0. -1.
         -1   -1    0    0    0  501 -0.00000000000E+00 -0.00000000000E+00 -0.53336585264E+02  0.53336585264E+02  0.00000000000E+00 0.  1.
         23    2    1    2    0    0  0.88161606628E+01  0.55490086983E+02  0.20455613419E+03  0.24622527746E+03  0.12500720293E+03 0.  0.
          5    1    3    3  502    0 -0.13208314960E+02 -0.36490188461E+02  0.86187561473E+02  0.94638148707E+02  0.47000000000E+01 0.  1.
         -5    1    3    3    0  502  0.22024475622E+02  0.91980275444E+02  0.11836857272E+03  0.15158712876E+03  0.47000000000E+01 0.  1.
        -11    1    1    2    0    0  0.84552838614E+01 -0.64161197218E+02  0.68263382030E+02  0.94064022771E+02  0.00000000000E+00 0. -1.
         11    1    1    2    0    0 -0.17271444524E+02  0.86711102349E+01 -0.14838189619E+02  0.24365196897E+02  0.00000000000E+00 0.  1.
<mgrwt>
<rscale>  0 0.12843410E+03</rscale>
<asrwt>0</asrwt>
<pdfrwt beam="1">  1        1 0.47895062E-01 0.13705355E+03</pdfrwt>
<pdfrwt beam="2">  1       -1 0.82056287E-02 0.13705355E+03</pdfrwt>
<totfact> 0.66056418E+03</totfact>
</mgrwt>
</event>
<event>
 7    1  0.5206756E-006  0.1813704E+03  0.7546771E-02  0.1172368E+00
         -2   -1    0    0    0  501 -0.00000000000E+00  0.00000000000E+00  0.57304326785E+02  0.57304326785E+02  0.00000000000E+00 0. -1.
          2   -1    0    0  501    0  0.00000000000E+00 -0.00000000000E+00 -0.68566584718E+03  0.68566584718E+03  0.00000000000E+00 0.  1.
         23    2    1    2    0    0 -0.11252334722E+03 -0.67902431550E+02 -0.52062779830E+03  0.55131526338E+03  0.12499188531E+03 0.  0.
          5    1    3    3  502    0 -0.11309566278E+03 -0.48226146128E+02 -0.23762222738E+03  0.26758700091E+03  0.47000000000E+01 0. -1.
         -5    1    3    3    0  502  0.57231555946E+00 -0.19676285422E+02 -0.28300557093E+03  0.28372826248E+03  0.47000000000E+01 0. -1.
        -11    1    1    2    0    0  0.94635287773E+02  0.86783510397E+02 -0.10428841139E+03  0.16541852411E+03  0.00000000000E+00 0.  1.
         11    1    1    2    0    0  0.17888059447E+02 -0.18881078847E+02 -0.34453107016E+01  0.26236386471E+02  0.00000000000E+00 0. -1.
<mgrwt>
<rscale>  0 0.17536307E+03</rscale>
<asrwt>0</asrwt>
<pdfrwt beam="2">  1        2 0.10548706E+00 0.18137038E+03</pdfrwt>
<pdfrwt beam="1">  1       -2 0.88160498E-02 0.18137038E+03</pdfrwt>
<totfact> 0.34387945E+03</totfact>
</mgrwt>
</event>
<event>
 7    1  0.5206756E-006  0.1498220E+03  0.7546771E-02  0.1208258E+00
         -2   -1    0    0    0  501 -0.00000000000E+00  0.00000000000E+00  0.60564381699E+02  0.60564381699E+02  0.00000000000E+00 0.  1.
          2   -1    0    0  501    0  0.00000000000E+00 -0.00000000000E+00 -0.16133913788E+04  0.16133913788E+04  0.00000000000E+00 0. -1.
         23    2    1    2    0    0 -0.56853706034E+01 -0.87271670233E+02 -0.15386107177E+04  0.15458879535E+04  0.12164685020E+03 0.  0.
          5    1    3    3  502    0 -0.20189513470E+02 -0.49451422171E+02 -0.14088664930E+04  0.14098865007E+04  0.47000000000E+01 0. -1.
         -5    1    3    3    0  502  0.14504142866E+02 -0.37820248062E+02 -0.12974422468E+03  0.13600145280E+03  0.47000000000E+01 0.  1.
        -11    1    1    2    0    0  0.31230087558E+02  0.57995836709E+02 -0.43912356410E+02  0.79165210098E+02  0.00000000000E+00 0. -1.
         11    1    1    2    0    0 -0.25544716955E+02  0.29275833524E+02  0.29696077041E+02  0.48902596909E+02  0.00000000000E+00 0.  1.
<mgrwt>
<rscale>  0 0.14383631E+03</rscale>
<asrwt>0</asrwt>
<pdfrwt beam="2">  1        2 0.24821406E+00 0.14982197E+03</pdfrwt>
<pdfrwt beam="1">  1       -2 0.93175970E-02 0.14982197E+03</pdfrwt>
<totfact> 0.89631249E+02</totfact>
</mgrwt>
</event>
<event>
 7    1  0.5206756E-006  0.1612187E+03  0.7546771E-02  0.1194466E+00
          2   -1    0    0  501    0  0.00000000000E+00  0.00000000000E+00  0.20784778895E+03  0.20784778895E+03  0.00000000000E+00 0. -1.
         -2   -1    0    0    0  501 -0.00000000000E+00 -0.00000000000E+00 -0.11190615044E+03  0.11190615044E+03  0.00000000000E+00 0.  1.
         23    2    1    2    0    0  0.91569320759E+02  0.44523421603E+02  0.19938651382E+02  0.16244693195E+03  0.12499672118E+03 0.  0.
          5    1    3    3  502    0  0.82252498343E+02 -0.23961130771E+02 -0.11138919207E+02  0.86520372124E+02  0.47000000000E+01 0.  1.
         -5    1    3    3    0  502  0.93168224159E+01  0.68484552374E+02  0.31077570588E+02  0.75926559829E+02  0.47000000000E+01 0.  1.
        -11    1    1    2    0    0 -0.86083843800E+01 -0.52566480079E+02  0.39499809087E+02  0.66314206830E+02  0.00000000000E+00 0. -1.
         11    1    1    2    0    0 -0.82960936379E+02  0.80430584768E+01  0.36503178040E+02  0.90992800603E+02  0.00000000000E+00 0.  1.
<mgrwt>
<rscale>  0 0.15499481E+03</rscale>
<asrwt>0</asrwt>
<pdfrwt beam="1">  1        2 0.31976583E-01 0.16121866E+03</pdfrwt>
<pdfrwt beam="2">  1       -2 0.17216331E-01 0.16121866E+03</pdfrwt>
<totfact> 0.42983838E+03</totfact>
</mgrwt>
</event>
<event>
 7    1  0.5206756E-006  0.1489809E+03  0.7546771E-02  0.1209037E+00
          1   -1    0    0  501    0  0.00000000000E+00  0.00000000000E+00  0.44497658520E+03  0.44497658520E+03  0.00000000000E+00 0. -1.
         -1   -1    0    0    0  501 -0.00000000000E+00 -0.00000000000E+00 -0.43062812821E+02  0.43062812821E+02  0.00000000000E+00 0.  1.
         23    2    1    2    0    0  0.55900954410E+02 -0.58703465507E+02  0.23224445515E+03  0.27592170218E+03  0.12499714083E+03 0.  0.
          5    1    3    3  502    0  0.90693465936E+02 -0.18108482029E+02  0.12064594912E+03  0.15208799073E+03  0.47000000000E+01 0. -1.
         -5    1    3    3    0  502 -0.34792511527E+02 -0.40594983478E+02  0.11159850603E+03  0.12383371145E+03  0.47000000000E+01 0. -1.
        -11    1    1    2    0    0 -0.66787849098E+02  0.40968215310E+02  0.17403090551E+03  0.19085535760E+03  0.00000000000E+00 0. -1.
         11    1    1    2    0    0  0.10886894689E+02  0.17735250197E+02 -0.43615882780E+01  0.21262338249E+02  0.00000000000E+00 0.  1.
<mgrwt>
<rscale>  0 0.14323797E+03</rscale>
<asrwt>0</asrwt>
<pdfrwt beam="1">  1        1 0.68457933E-01 0.14898087E+03</pdfrwt>
<pdfrwt beam="2">  1       -1 0.66250484E-02 0.14898087E+03</pdfrwt>
<totfact> 0.58469000E+03</totfact>
</mgrwt>
</event>
<event>
 7    1  0.5206756E-006  0.1353780E+03  0.7546771E-02  0.1231931E+00
         -1   -1    0    0    0  501 -0.00000000000E+00  0.00000000000E+00  0.15440756720E+02  0.15440756720E+02  0.00000000000E+00 0. -1.
          1   -1    0    0  501    0  0.00000000000E+00 -0.00000000000E+00 -0.10261200431E+04  0.10261200431E+04  0.00000000000E+00 0.  1.
         23    2    1    2    0    0  0.49393731218E+02 -0.16198146592E+02 -0.71758463066E+03  0.73024304818E+03  0.12500034646E+03 0.  0.
          5    1    3    3  502    0 -0.24119113454E+02 -0.26389176805E+02 -0.47858369066E+03  0.47994016216E+03  0.47000000000E+01 0.  1.
         -5    1    3    3    0  502  0.73512844672E+02  0.10191030212E+02 -0.23900094000E+03  0.25030288602E+03  0.47000000000E+01 0.  1.
        -11    1    1    2    0    0 -0.36862671576E+02  0.51340138368E+02 -0.22457023595E+03  0.23329478613E+03  0.00000000000E+00 0.  1.
         11    1    1    2    0    0 -0.12531059642E+02 -0.35141991776E+02 -0.68524419760E+02  0.78022965499E+02  0.00000000000E+00 0. -1.
<mgrwt>
<rscale>  0 0.12702978E+03</rscale>
<asrwt>0</asrwt>
<pdfrwt beam="2">  1        1 0.15786466E+00 0.13537802E+03</pdfrwt>
<pdfrwt beam="1">  1       -1 0.23755004E-02 0.13537802E+03</pdfrwt>
<totfact> 0.78859366E+03</totfact>
</mgrwt>
</event>
<event>
 7    1  0.5650033E-006  0.1777168E+03  0.7546771E-02  0.1176248E+00
         -2   -1    0    0    0  501 -0.00000000000E+00  0.00000000000E+00  0.78047158285E+02  0.78047158285E+02  0.00000000000E+00 0.  1.
          2   -1    0    0  501    0  0.00000000000E+00 -0.00000000000E+00 -0.36380755112E+03  0.36380755112E+03  0.00000000000E+00 0. -1.
         23    2    1    2    0    0  0.50759491617E+02 -0.11567751191E+03 -0.19054650517E+03  0.26055947389E+03  0.12500182419E+03 0.  0.
          5    1    3    3  502    0  0.37620840931E+02 -0.14250790395E+03 -0.15708678179E+03  0.21545806407E+03  0.47000000000E+01 0.  1.
         -5    1    3    3    0  502  0.13138650686E+02  0.26830392042E+02 -0.33459723383E+02  0.45101409821E+02  0.47000000000E+01 0.  1.
        -11    1    1    2    0    0 -0.17814254975E+02  0.17001320580E+02 -0.70067160826E+02  0.74268429417E+02  0.00000000000E+00 0. -1.
         11    1    1    2    0    0 -0.32945236642E+02  0.98676191329E+02 -0.25146726840E+02  0.10702680610E+03  0.00000000000E+00 0.  1.
<mgrwt>
<rscale>  0 0.17154328E+03</rscale>
<asrwt>0</asrwt>
<pdfrwt beam="2">  1        2 0.55970392E-01 0.17771682E+03</pdfrwt>
<pdfrwt beam="1">  1       -2 0.12007255E-01 0.17771682E+03</pdfrwt>
<totfact> 0.42726689E+03</totfact>
</mgrwt>
</event>
<event>
 7    1  0.5206756E-006  0.1878995E+03  0.7546771E-02  0.1164698E+00
         -1   -1    0    0    0  501 -0.00000000000E+00  0.00000000000E+00  0.84291949091E+03  0.84291949091E+03  0.00000000000E+00 0. -1.
          1   -1    0    0  501    0  0.00000000000E+00 -0.00000000000E+00 -0.63559169614E+02  0.63559169614E+02  0.00000000000E+00 0.  1.
         23    2    1    2    0    0 -0.57152780181E+02  0.12812348811E+03  0.11405553749E+03  0.21980647904E+03  0.12499661638E+03 0.  0.
          5    1    3    3  502    0 -0.43743238275E+02  0.86030602572E+01 -0.11083483768E+02  0.46178102527E+02  0.47000000000E+01 0. -1.
         -5    1    3    3    0  502 -0.13409541906E+02  0.11952042785E+03  0.12513902126E+03  0.17362837651E+03  0.47000000000E+01 0. -1.
        -11    1    1    2    0    0 -0.23859594908E+02 -0.24368957528E+02  0.84207528780E+02  0.90851715797E+02  0.00000000000E+00 0.  1.
         11    1    1    2    0    0  0.81012375089E+02 -0.10375453058E+03  0.58109725502E+03  0.59582046569E+03  0.00000000000E+00 0. -1.
<mgrwt>
<rscale>  0 0.18324593E+03</rscale>
<asrwt>0</asrwt>
<pdfrwt beam="2">  1        1 0.97783344E-02 0.18789950E+03</pdfrwt>
<pdfrwt beam="1">  1       -1 0.12967991E+00 0.18789950E+03</pdfrwt>
<totfact> 0.36330077E+02</totfact>
</mgrwt>
</event>
<event>
 7    1  0.5206756E-006  0.3295857E+03  0.7546771E-02  0.1072558E+00
          1   -1    0    0  501    0  0.00000000000E+00  0.00000000000E+00  0.58690329958E+03  0.58690329958E+03  0.00000000000E+00 0. -1.
         -1   -1    0    0    0  501 -0.00000000000E+00 -0.00000000000E+00 -0.20329197843E+03  0.20329197843E+03  0.00000000000E+00 0.  1.
         23    2    1    2    0    0  0.37964858645E+02  0.30259091616E+03  0.33129156258E+03  0.46731232043E+03  0.12499644934E+03 0.  0.
          5    1    3    3  502    0  0.64882823357E+02  0.23609591032E+03  0.30410653808E+03  0.39045350061E+03  0.47000000000E+01 0.  1.
         -5    1    3    3    0  502 -0.26917964712E+02  0.66495005843E+02  0.27185024504E+02  0.76858819816E+02  0.47000000000E+01 0.  1.
        -11    1    1    2    0    0 -0.20914634518E+02 -0.26098552017E+03  0.75234433299E+02  0.27241711332E+03  0.00000000000E+00 0. -1.
         11    1    1    2    0    0 -0.17050224127E+02 -0.41605395989E+02 -0.22914674734E+02  0.50465844255E+02  0.00000000000E+00 0.  1.
<mgrwt>
<rscale>  0 0.32680829E+03</rscale>
<asrwt>0</asrwt>
<pdfrwt beam="1">  1        1 0.90292814E-01 0.32958566E+03</pdfrwt>
<pdfrwt beam="2">  1       -1 0.31275689E-01 0.32958566E+03</pdfrwt>
<totfact> 0.34594171E+02</totfact>
</mgrwt>
</event>
<event>
 7    1  0.5206756E-006  0.1312776E+03  0.7546771E-02  0.1235354E+00
         -1   -1    0    0    0  501 -0.00000000000E+00  0.00000000000E+00  0.10224638377E+02  0.10224638377E+02  0.00000000000E+00 0.  1.
          1   -1    0    0  501    0  0.00000000000E+00 -0.00000000000E+00 -0.20087096023E+04  0.20087096023E+04  0.00000000000E+00 0. -1.
         23    2    1    2    0    0 -0.25394479719E+02 -0.31630506064E+02 -0.16264414252E+04  0.16317308345E+04  0.12485366734E+03 0.  0.
          5    1    3    3  502    0 -0.56781611737E+02 -0.31295014690E+02 -0.43159112643E+03  0.43645907001E+03  0.47000000000E+01 0. -1.
         -5    1    3    3    0  502  0.31387132018E+02 -0.33549137393E+00 -0.11948502988E+04  0.11952717645E+04  0.47000000000E+01 0. -1.
        -11    1    1    2    0    0  0.62129743772E+02  0.62055488420E+01 -0.20600997634E+03  0.21526431253E+03  0.00000000000E+00 0. -1.
         11    1    1    2    0    0 -0.36735264053E+02  0.25424957222E+02 -0.16603356238E+03  0.17193909361E+03  0.00000000000E+00 0.  1.
<mgrwt>
<rscale>  0 0.12481816E+03</rscale>
<asrwt>0</asrwt>
<pdfrwt beam="2">  1        1 0.30903230E+00 0.13127759E+03</pdfrwt>
<pdfrwt beam="1">  1       -1 0.15730210E-02 0.13127759E+03</pdfrwt>
<totfact> 0.32271707E+03</totfact>
</mgrwt>
</event>
<event>
 7    1  0.5206756E-006  0.1363800E+03  0.7546771E-02  0.1232693E+00
          1   -1    0    0  501    0  0.00000000000E+00  0.00000000000E+00  0.13339146170E+04  0.13339146170E+04  0.00000000000E+00 0. -1.
         -1   -1    0    0    0  501 -0.00000000000E+00 -0.00000000000E+00 -0.10566527287E+02  0.10566527287E+02  0.00000000000E+00 0.  1.
         23    2    1    2    0    0  0.27485741044E+02  0.47126320135E+02  0.75443807206E+03  0.76666571648E+03  0.12499264074E+03 0.  0.
          5    1    3    3  502    0  0.26146552483E+02 -0.39884344471E+02  0.21899105228E+03  0.22417308964E+03  0.47000000000E+01 0.  1.
         -5    1    3    3    0  502  0.13391885610E+01  0.87010664607E+02  0.53544701978E+03  0.54249262684E+03  0.47000000000E+01 0.  1.
        -11    1    1    2    0    0  0.30363947172E+02 -0.89074744307E+01  0.16799445073E+03  0.17094867027E+03  0.00000000000E+00 0. -1.
         11    1    1    2    0    0 -0.57849688217E+02 -0.38218845704E+02  0.40091556690E+03  0.40686675752E+03  0.00000000000E+00 0.  1.
<mgrwt>
<rscale>  0 0.12653256E+03</rscale>
<asrwt>0</asrwt>
<pdfrwt beam="1">  1        1 0.20521750E+00 0.13638004E+03</pdfrwt>
<pdfrwt beam="2">  1       -1 0.16256206E-02 0.13638004E+03</pdfrwt>
<totfact> 0.83612867E+03</totfact>
</mgrwt>
</event>
<event>
 7    1  0.5206756E-006  0.1880217E+03  0.7546771E-02  0.1165091E+00
          1   -1    0    0  501    0  0.00000000000E+00  0.00000000000E+00  0.78395475214E+03  0.78395475214E+03  0.00000000000E+00 0. -1.
         -1   -1    0    0    0  501 -0.00000000000E+00 -0.00000000000E+00 -0.46101852009E+02  0.46101852009E+02  0.00000000000E+00 0.  1.
         23    2    1    2    0    0 -0.70960493167E+02  0.12121020517E+03  0.53222692483E+03  0.56446225927E+03  0.12499934880E+03 0.  0.
          5    1    3    3  502    0  0.34077209776E+02  0.33030717176E+02  0.18641323255E+03  0.19241691134E+03  0.47000000000E+01 0.  1.
         -5    1    3    3    0  502 -0.10503770294E+03  0.88179487990E+02  0.34581369229E+03  0.37204534793E+03  0.47000000000E+01 0.  1.
        -11    1    1    2    0    0 -0.14020177150E+02 -0.16438305251E+02  0.24961017742E+01  0.21748879762E+02  0.00000000000E+00 0.  1.
         11    1    1    2    0    0  0.84980670317E+02 -0.10477189992E+03  0.20312987353E+03  0.24384546512E+03  0.00000000000E+00 0. -1.
<mgrwt>
<rscale>  0 0.18283073E+03</rscale>
<asrwt>0</asrwt>
<pdfrwt beam="1">  1        1 0.12060841E+00 0.18802165E+03</pdfrwt>
<pdfrwt beam="2">  1       -1 0.70925932E-02 0.18802165E+03</pdfrwt>
<totfact> 0.24420933E+03</totfact>
</mgrwt>
</event>
<event>
 7    1  0.5206756E-006  0.1359228E+03  0.7546771E-02  0.1231049E+00
         -1   -1    0    0    0  501 -0.00000000000E+00  0.00000000000E+00  0.45838281727E+02  0.45838281727E+02  0.00000000000E+00 0.  1.
          1   -1    0    0  501    0  0.00000000000E+00 -0.00000000000E+00 -0.36222843699E+03  0.36222843699E+03  0.00000000000E+00 0. -1.
         23    2    1    2    0    0 -0.42130900949E+01  0.53228321672E+02 -0.24634213175E+03  0.28135291088E+03  0.12499604085E+03 0.  0.
          5    1    3    3  502    0  0.19284441428E+02  0.79392325315E+02 -0.22621422895E+03  0.24056183900E+03  0.47000000000E+01 0.  1.
         -5    1    3    3    0  502 -0.23497531522E+02 -0.26164003643E+02 -0.20127902795E+02  0.40791071881E+02  0.47000000000E+01 0.  1.
        -11    1    1    2    0    0  0.45355488107E+02 -0.43919846908E+02 -0.37482643863E+02  0.73423578262E+02  0.00000000000E+00 0. -1.
         11    1    1    2    0    0 -0.41142398012E+02 -0.93084747647E+01 -0.32565379650E+02  0.53290229577E+02  0.00000000000E+00 0.  1.
<mgrwt>
<rscale>  0 0.12760774E+03</rscale>
<asrwt>0</asrwt>
<pdfrwt beam="2">  1        1 0.55727451E-01 0.13592283E+03</pdfrwt>
<pdfrwt beam="1">  1       -1 0.70520434E-02 0.13592283E+03</pdfrwt>
<totfact> 0.68683991E+03</totfact>
</mgrwt>
</event>
<event>
 7    1  0.5206756E-006  0.1575244E+03  0.7546771E-02  0.1199943E+00
         -1   -1    0    0    0  501 -0.00000000000E+00  0.00000000000E+00  0.10699995493E+04  0.10699995493E+04  0.00000000000E+00 0.  1.
          1   -1    0    0  501    0  0.00000000000E+00 -0.00000000000E+00 -0.21967224097E+02  0.21967224097E+02  0.00000000000E+00 0. -1.
         23    2    1    2    0    0  0.88273626919E+02  0.37371410923E+02  0.38259565164E+03  0.41375522041E+03  0.12500037680E+03 0.  0.
          5    1    3    3  502    0 -0.12457248525E+02  0.53295157844E+02  0.11847694861E+03  0.13059262706E+03  0.47000000000E+01 0. -1.
         -5    1    3    3    0  502  0.10073087544E+03 -0.15923746921E+02  0.26411870303E+03  0.28316259335E+03  0.47000000000E+01 0. -1.
        -11    1    1    2    0    0 -0.40290907164E+02 -0.63781456913E+02  0.34787934457E+03  0.35596554583E+03  0.00000000000E+00 0. -1.
         11    1    1    2    0    0 -0.47982719756E+02  0.26410045989E+02  0.31755732898E+03  0.32224600713E+03  0.00000000000E+00 0.  1.
<mgrwt>
<rscale>  0 0.15043236E+03</rscale>
<asrwt>0</asrwt>
<pdfrwt beam="2">  1        1 0.33795738E-02 0.15752444E+03</pdfrwt>
<pdfrwt beam="1">  1       -1 0.16461527E+00 0.15752444E+03</pdfrwt>
<totfact> 0.83846079E+02</totfact>
</mgrwt>
</event>
<event>
 6    1  0.5206756E-006  0.3515990E+03  0.7546771E-02  0.1127496E+00
          2   -1    0    0  501    0  0.00000000000E+00  0.00000000000E+00  0.15177055485E+03  0.15177055485E+03  0.00000000000E+00 0. -1.
         -2   -1    0    0    0  501 -0.00000000000E+00 -0.00000000000E+00 -0.37735234833E+03  0.37735234833E+03  0.00000000000E+00 0.  1.
          5    1    1    2  502    0  0.13688001193E+03  0.47108378727E+01 -0.82482839119E+02  0.15994948705E+03  0.47000000000E+01 0. -1.
         -5    1    1    2    0  502 -0.19614222384E+03 -0.19585268093E+02  0.16217731656E+02  0.19783947917E+03  0.47000000000E+01 0.  1.
        -11    1    1    2    0    0  0.43152039622E+02  0.71921810651E+01 -0.12824018130E+03  0.13549675307E+03  0.00000000000E+00 0. -1.
         11    1    1    2    0    0  0.16110172284E+02  0.76822491550E+01 -0.31076504724E+02  0.35837183888E+02  0.00000000000E+00 0.  1.
<mgrwt>
<rscale>  0 0.22878764E+03</rscale>
<asrwt>0</asrwt>
<pdfrwt beam="1">  1        2 0.23349316E-01 0.35159903E+03</pdfrwt>
<pdfrwt beam="2">  1       -2 0.58054207E-01 0.35159903E+03</pdfrwt>
<totfact> 0.66109107E+02</totfact>
</mgrwt>
</event>
<event>
 7    1  0.5206756E-006  0.1376076E+03  0.7546771E-02  0.1227323E+00
         -2   -1    0    0    0  501 -0.00000000000E+00  0.00000000000E+00  0.11763374406E+02  0.11763374406E+02  0.00000000000E+00 0.  1.
          2   -1    0    0  501    0  0.00000000000E+00 -0.00000000000E+00 -0.15941139141E+04  0.15941139141E+04  0.00000000000E+00 0. -1.
         23    2    1    2    0    0 -0.55905463253E+02 -0.13608457498E+02 -0.12054084157E+04  0.12132375244E+04  0.12500092423E+03 0.  0.
          5    1    3    3  502    0 -0.73450043083E+02 -0.62356238677E+01 -0.11732689295E+04  0.11755917075E+04  0.47000000000E+01 0. -1.
         -5    1    3    3    0  502  0.17544579830E+02 -0.73728336304E+01 -0.32139486223E+02  0.37645816924E+02  0.47000000000E+01 0. -1.
        -11    1    1    2    0    0  0.43197655459E+02 -0.31892930635E+02 -0.27619403843E+03  0.28136514235E+03  0.00000000000E+00 0. -1.
         11    1    1    2    0    0  0.12707807794E+02  0.45501388134E+02 -0.10074808553E+03  0.11127462172E+03  0.00000000000E+00 0.  1.
<mgrwt>
<rscale>  0 0.13008969E+03</rscale>
<asrwt>0</asrwt>
<pdfrwt beam="2">  1        2 0.24524833E+00 0.13760757E+03</pdfrwt>
<pdfrwt beam="1">  1       -2 0.18097496E-02 0.13760757E+03</pdfrwt>
<totfact> 0.10627299E+04</totfact>
</mgrwt>
</event>
<event>
 7    1  0.5206756E-006  0.1553222E+03  0.7546771E-02  0.1199410E+00
         -2   -1    0    0    0  501 -0.00000000000E+00  0.00000000000E+00  0.43759406569E+02  0.43759406569E+02  0.00000000000E+00 0. -1.
          2   -1    0    0  501    0  0.00000000000E+00 -0.00000000000E+00 -0.62703317247E+03  0.62703317247E+03  0.00000000000E+00 0.  1.
         23    2    1    2    0    0  0.61317510364E+02 -0.68849641444E+02 -0.46014999199E+03  0.48565728888E+03  0.12499950766E+03 0.  0.
          5    1    3    3  502    0 -0.34872665602E+02 -0.14515736216E+02 -0.18960111347E+03  0.19338428487E+03  0.47000000000E+01 0. -1.
         -5    1    3    3    0  502  0.96190175965E+02 -0.54333905228E+02 -0.27054887852E+03  0.29227300401E+03  0.47000000000E+01 0. -1.
        -11    1    1    2    0    0 -0.15820314049E+02  0.32281882987E+02  0.12034733721E+02  0.37910910323E+02  0.00000000000E+00 0. -1.
         11    1    1    2    0    0 -0.45497196314E+02  0.36567758457E+02 -0.13515850763E+03  0.14722437983E+03  0.00000000000E+00 0.  1.
<mgrwt>
<rscale>  0 0.15086854E+03</rscale>
<asrwt>0</asrwt>
<pdfrwt beam="2">  1        2 0.96466635E-01 0.15532220E+03</pdfrwt>
<pdfrwt beam="1">  1       -2 0.67322169E-02 0.15532220E+03</pdfrwt>
<totfact> 0.57634186E+03</totfact>
</mgrwt>
</event>
<event>
 7    1  0.5206756E-006  0.1268039E+03  0.7546771E-02  0.1247524E+00
          2   -1    0    0  501    0  0.00000000000E+00  0.00000000000E+00  0.73175078628E+02  0.73175078628E+02  0.00000000000E+00 0.  1.
         -2   -1    0    0    0  501 -0.00000000000E+00 -0.00000000000E+00 -0.17750239105E+03  0.17750239105E+03  0.00000000000E+00 0. -1.
         23    2    1    2    0    0  0.21238816744E+02 -0.85493670770E+00 -0.26860304341E+02  0.12961748666E+03  0.12500959421E+03 0.  0.
          5    1    3    3  502    0  0.68581655733E+02 -0.21936628779E+02 -0.26044813294E+01  0.72204795604E+02  0.47000000000E+01 0.  1.
         -5    1    3    3    0  502 -0.47342838989E+02  0.21081692072E+02 -0.24255823012E+02  0.57412691054E+02  0.47000000000E+01 0.  1.
        -11    1    1    2    0    0 -0.35416980399E+02 -0.19403842681E+02 -0.85912141340E+02  0.94930330459E+02  0.00000000000E+00 0. -1.
         11    1    1    2    0    0  0.14178163655E+02  0.20258779389E+02  0.84451332622E+01  0.26129652557E+02  0.00000000000E+00 0.  1.
<mgrwt>
<rscale>  0 0.11735561E+03</rscale>
<asrwt>0</asrwt>
<pdfrwt beam="1">  1        2 0.11257704E-01 0.12680385E+03</pdfrwt>
<pdfrwt beam="2">  1       -2 0.27308060E-01 0.12680385E+03</pdfrwt>
<totfact> 0.63204096E+03</totfact>
</mgrwt>
</event>
<event>
 7    1  0.5206756E-006  0.1407738E+03  0.7546771E-02  0.1223660E+00
         -2   -1    0    0    0  501 -0.00000000000E+00  0.00000000000E+00  0.59498893402E+03  0.59498893402E+03  0.00000000000E+00 0. -1.
          2   -1    0    0  501    0  0.00000000000E+00 -0.00000000000E+00 -0.26696193623E+02  0.26696193623E+02  0.00000000000E+00 0.  1.
         23    2    1    2    0    0 -0.44641328756E+02 -0.46902574414E+02  0.29845438550E+03  0.32998828983E+03  0.12499820591E+03 0.  0.
          5    1    3    3  502    0 -0.41859061110E+02 -0.44509997632E+02  0.43945749471E+02  0.75409812244E+02  0.47000000000E+01 0. -1.
         -5    1    3    3    0  502 -0.27822676469E+01 -0.23925767824E+01  0.25450863603E+03  0.25457847759E+03  0.47000000000E+01 0. -1.
        -11    1    1    2    0    0 -0.14848707732E+02  0.46049469830E+02  0.88707210098E+02  0.10104457886E+03  0.00000000000E+00 0.  1.
         11    1    1    2    0    0  0.59490036488E+02  0.85310458375E+00  0.18113114479E+03  0.19065225895E+03  0.00000000000E+00 0. -1.
<mgrwt>
<rscale>  0 0.13259157E+03</rscale>
<asrwt>0</asrwt>
<pdfrwt beam="2">  1        2 0.41071071E-02 0.14077376E+03</pdfrwt>
<pdfrwt beam="1">  1       -2 0.91536749E-01 0.14077376E+03</pdfrwt>
<totfact> 0.20696941E+03</totfact>
</mgrwt>
</event>
<event>
 7    1  0.5206756E-006  0.1397749E+03  0.7546771E-02  0.1224898E+00
          2   -1    0    0  501    0  0.00000000000E+00  0.00000000000E+00  0.52954798235E+03  0.52954798235E+03  0.00000000000E+00 0. -1.
         -2   -1    0    0    0  501 -0.00000000000E+00 -0.00000000000E+00 -0.29540858802E+02  0.29540858802E+02  0.00000000000E+00 0.  1.
         23    2    1    2    0    0 -0.22246723919E+02  0.58452162039E+02  0.28611590085E+03  0.31843261210E+03  0.12500179101E+03 0.  0.
          5    1    3    3  502    0 -0.24550221639E+02  0.94460798601E+02  0.16291763389E+03  0.18997315939E+03  0.47000000000E+01 0. -1.
         -5    1    3    3    0  502  0.23034977200E+01 -0.36008636563E+02  0.12319826696E+03  0.12845945271E+03  0.47000000000E+01 0. -1.
        -11    1    1    2    0    0 -0.34668029116E+02 -0.30337522076E+02  0.10402508766E+03  0.11376931199E+03  0.00000000000E+00 0. -1.
         11    1    1    2    0    0  0.56914753036E+02 -0.28114639963E+02  0.10986613504E+03  0.12688691706E+03  0.00000000000E+00 0.  1.
<mgrwt>
<rscale>  0 0.13173925E+03</rscale>
<asrwt>0</asrwt>
<pdfrwt beam="1">  1        2 0.81468913E-01 0.13977489E+03</pdfrwt>
<pdfrwt beam="2">  1       -2 0.45447479E-02 0.13977489E+03</pdfrwt>
<totfact> 0.12563722E+04</totfact>
</mgrwt>
</event>
<event>
 7    1  0.5206756E-006  0.1404538E+03  0.7546771E-02  0.1223350E+00
          1   -1    0    0  501    0  0.00000000000E+00  0.00000000000E+00  0.46232960614E+03  0.46232960614E+03  0.00000000000E+00 0. -1.
         -1   -1    0    0    0  501 -0.00000000000E+00 -0.00000000000E+00 -0.34551679055E+02  0.34551679055E+02  0.00000000000E+00 0.  1.
         23    2    1    2    0    0 -0.64068227862E+02  0.84930869812E+00  0.24270434727E+03  0.28041519238E+03  0.12498728251E+03 0.  0.
          5    1    3    3  502    0 -0.44215727738E+02 -0.16938161670E+02  0.24826469353E+03  0.25278326676E+03  0.47000000000E+01 0. -1.
         -5    1    3    3    0  502 -0.19852500124E+02  0.17787470369E+02 -0.55603462578E+01  0.27631925626E+02  0.47000000000E+01 0. -1.
        -11    1    1    2    0    0  0.11632144230E+02  0.29174501518E+02  0.12822452781E+02  0.33924528199E+02  0.00000000000E+00 0.  1.
         11    1    1    2    0    0  0.52436083632E+02 -0.30023810216E+02  0.17225112703E+03  0.18254156461E+03  0.00000000000E+00 0. -1.
<mgrwt>
<rscale>  0 0.13280656E+03</rscale>
<asrwt>0</asrwt>
<pdfrwt beam="1">  1        1 0.71127627E-01 0.14045384E+03</pdfrwt>
<pdfrwt beam="2">  1       -1 0.53156433E-02 0.14045384E+03</pdfrwt>
<totfact> 0.77035483E+03</totfact>
</mgrwt>
</event>
<event>
 7    1  0.5206756E-006  0.1260154E+03  0.7546771E-02  0.1247560E+00
         -1   -1    0    0    0  501 -0.00000000000E+00  0.00000000000E+00  0.11764452743E+03  0.11764452743E+03  0.00000000000E+00 0.  1.
          1   -1    0    0  501    0  0.00000000000E+00 -0.00000000000E+00 -0.10355924211E+03  0.10355924211E+03  0.00000000000E+00 0. -1.
         23    2    1    2    0    0  0.51826985773E+01  0.15118797299E+02  0.95810987564E+01  0.12637908477E+03  0.12499774885E+03 0.  0.
          5    1    3    3  502    0  0.10648441489E+02 -0.12016928832E+02 -0.54183106309E+02  0.56707097386E+02  0.47000000000E+01 0. -1.
         -5    1    3    3    0  502 -0.54657429113E+01  0.27135726131E+02  0.63764205065E+02  0.69671987382E+02  0.47000000000E+01 0. -1.
        -11    1    1    2    0    0  0.23381340328E+01  0.30536715346E+02  0.29252059023E+02  0.42351396813E+02  0.00000000000E+00 0.  1.
         11    1    1    2    0    0 -0.75208326101E+01 -0.45655512645E+02 -0.24747872461E+02  0.52473287960E+02  0.00000000000E+00 0. -1.
<mgrwt>
<rscale>  0 0.11733441E+03</rscale>
<asrwt>0</asrwt>
<pdfrwt beam="2">  1        1 0.15932191E-01 0.12601538E+03</pdfrwt>
<pdfrwt beam="1">  1       -1 0.18099158E-01 0.12601538E+03</pdfrwt>
<totfact> 0.76765972E+03</totfact>
</mgrwt>
</event>
<event>
 7    1  0.5206756E-006  0.1510304E+03  0.7546771E-02  0.1203842E+00
          1   -1    0    0  501    0  0.00000000000E+00  0.00000000000E+00  0.86985976288E+03  0.86985976288E+03  0.00000000000E+00 0. -1.
         -1   -1    0    0    0  501 -0.00000000000E+00 -0.00000000000E+00 -0.42633263572E+02  0.42633263572E+02  0.00000000000E+00 0.  1.
         23    2    1    2    0    0 -0.13132978608E+02  0.83738968163E+02  0.72836058284E+03  0.74385436894E+03  0.12500197458E+03 0.  0.
          5    1    3    3  502    0 -0.65274293366E+02  0.65712709508E+02  0.38203954603E+03  0.39313508911E+03  0.47000000000E+01 0.  1.
         -5    1    3    3    0  502  0.52141314758E+02  0.18026258656E+02  0.34632103681E+03  0.35071927983E+03  0.47000000000E+01 0.  1.
        -11    1    1    2    0    0 -0.24261675086E+02 -0.71788798627E+02  0.10438989280E+03  0.12899422547E+03  0.00000000000E+00 0. -1.
         11    1    1    2    0    0  0.37394653694E+02 -0.11950169536E+02 -0.55239763310E+01  0.39644432035E+02  0.00000000000E+00 0.  1.
<mgrwt>
<rscale>  0 0.14729073E+03</rscale>
<asrwt>0</asrwt>
<pdfrwt beam="1">  1        1 0.13382457E+00 0.15103041E+03</pdfrwt>
<pdfrwt beam="2">  1       -1 0.65589643E-02 0.15103041E+03</pdfrwt>
<totfact> 0.23297704E+03</totfact>
</mgrwt>
</event>
<event>
 6    1  0.5206756E-006  0.1577036E+03  0.7546771E-02  0.1211355E+00
          2   -1    0    0  501    0  0.00000000000E+00  0.00000000000E+00  0.12903464843E+04  0.12903464843E+04  0.00000000000E+00 0. -1.
         -2   -1    0    0    0  501 -0.00000000000E+00 -0.00000000000E+00 -0.13672514448E+02  0.13672514448E+02  0.00000000000E+00 0.  1.
          5    1    1    2  502    0 -0.21565711353E+01  0.20111787749E+02  0.88816525528E+03  0.88840798370E+03  0.47000000000E+01 0. -1.
         -5    1    1    2    0  502 -0.40504130030E+01  0.22340807659E+02  0.13263781819E+02  0.26712084166E+02  0.47000000000E+01 0.  1.
        -11    1    1    2    0    0  0.34187689482E+02  0.15582911229E+02  0.12837086887E+03  0.13375614082E+03  0.00000000000E+00 0.  1.
         11    1    1    2    0    0 -0.27980705344E+02 -0.58035506637E+02  0.24687406392E+03  0.25514279009E+03  0.00000000000E+00 0. -1.
<mgrwt>
<rscale>  0 0.14147692E+03</rscale>
<asrwt>0</asrwt>
<pdfrwt beam="1">  1        2 0.19851475E+00 0.15770361E+03</pdfrwt>
<pdfrwt beam="2">  1       -2 0.21034648E-02 0.15770361E+03</pdfrwt>
<totfact> 0.12431625E+04</totfact>
</mgrwt>
</event>
<event>
 7    1  0.5206756E-006  0.1434137E+03  0.7546771E-02  0.1218235E+00
         -3   -1    0    0    0  501 -0.00000000000E+00  0.00000000000E+00  0.27088213299E+03  0.27088213299E+03  0.00000000000E+00 0.  1.
          3   -1    0    0  501    0  0.00000000000E+00 -0.00000000000E+00 -0.67390112103E+02  0.67390112103E+02  0.00000000000E+00 0. -1.
         23    2    1    2    0    0 -0.61191381703E+02  0.34622042459E+02  0.67175530525E+02  0.15836678613E+03  0.12499766409E+03 0.  0.
          5    1    3    3  502    0 -0.47545664502E+02  0.54952784517E+02  0.95847042667E+02  0.12037086162E+03  0.47000000000E+01 0. -1.
         -5    1    3    3    0  502 -0.13645717201E+02 -0.20330742058E+02 -0.28671512141E+02  0.37995924506E+02  0.47000000000E+01 0. -1.
        -11    1    1    2    0    0  0.34690919425E+02  0.19669402327E+02  0.10401626713E+03  0.11139896366E+03  0.00000000000E+00 0.  1.
         11    1    1    2    0    0  0.26500462277E+02 -0.54291444786E+02  0.32300223237E+02  0.68506495305E+02  0.00000000000E+00 0. -1.
<mgrwt>
<rscale>  0 0.13641560E+03</rscale>
<asrwt>0</asrwt>
<pdfrwt beam="2">  1        3 0.10367710E-01 0.14341369E+03</pdfrwt>
<pdfrwt beam="1">  1       -3 0.41674174E-01 0.14341369E+03</pdfrwt>
<totfact> 0.92686475E+02</totfact>
</mgrwt>
</event>
<event>
 7    1  0.5206756E-006  0.1325916E+03  0.7546771E-02  0.1242811E+00
          1   -1    0    0  501    0  0.00000000000E+00  0.00000000000E+00  0.64588757727E+03  0.64588757727E+03  0.00000000000E+00 0. -1.
         -1   -1    0    0    0  501 -0.00000000000E+00 -0.00000000000E+00 -0.26167736511E+02  0.26167736511E+02  0.00000000000E+00 0.  1.
         23    2    1    2    0    0  0.48579284153E+01 -0.43926916753E+02  0.52612311692E+03  0.54257355601E+03  0.12500942382E+03 0.  0.
          5    1    3    3  502    0 -0.12275536003E+02 -0.56963398536E+02  0.99656416667E+02  0.11553791127E+03  0.47000000000E+01 0.  1.
         -5    1    3    3    0  502  0.17133464419E+02  0.13036481782E+02  0.42646670025E+03  0.42703564475E+03  0.47000000000E+01 0.  1.
        -11    1    1    2    0    0 -0.15082562118E+02  0.28052119572E+02 -0.21200636999E+01  0.31920209314E+02  0.00000000000E+00 0.  1.
         11    1    1    2    0    0  0.10224633702E+02  0.15874797181E+02  0.95716787541E+02  0.97561548455E+02  0.00000000000E+00 0. -1.
<mgrwt>
<rscale>  0 0.12017340E+03</rscale>
<asrwt>0</asrwt>
<pdfrwt beam="1">  1        1 0.99367308E-01 0.13259159E+03</pdfrwt>
<pdfrwt beam="2">  1       -1 0.40258061E-02 0.13259159E+03</pdfrwt>
<totfact> 0.74097713E+03</totfact>
</mgrwt>
</event>
<event>
 7    1  0.5206756E-006  0.1250112E+03  0.7546771E-02  0.1251098E+00
          1   -1    0    0  501    0  0.00000000000E+00  0.00000000000E+00  0.21541790088E+03  0.21541790088E+03  0.00000000000E+00 0. -1.
         -1   -1    0    0    0  501 -0.00000000000E+00 -0.00000000000E+00 -0.55379525495E+02  0.55379525495E+02  0.00000000000E+00 0.  1.
         23    2    1    2    0    0 -0.56032883452E-01 -0.12367759704E+01  0.11476646329E+03  0.16970311273E+03  0.12500509038E+03 0.  0.
          5    1    3    3  502    0 -0.50161316308E+02 -0.86066823124E-01  0.71375364863E+01  0.50884177190E+02  0.47000000000E+01 0. -1.
         -5    1    3    3    0  502  0.50105283424E+02 -0.11507091473E+01  0.10762892681E+03  0.11881893554E+03  0.47000000000E+01 0. -1.
        -11    1    1    2    0    0 -0.22724696563E+02  0.39492025757E+02  0.27030057610E+02  0.52977881674E+02  0.00000000000E+00 0.  1.
         11    1    1    2    0    0  0.22780729447E+02 -0.38255249786E+02  0.18241854485E+02  0.48116431969E+02  0.00000000000E+00 0. -1.
<mgrwt>
<rscale>  0 0.11527707E+03</rscale>
<asrwt>0</asrwt>
<pdfrwt beam="1">  1        1 0.33141215E-01 0.12501122E+03</pdfrwt>
<pdfrwt beam="2">  1       -1 0.85199271E-02 0.12501122E+03</pdfrwt>
<totfact> 0.97724416E+03</totfact>
</mgrwt>
</event>
<event>
 7    1  0.5206756E-006  0.3070343E+03  0.7546771E-02  0.1083199E+00
         -2   -1    0    0    0  501 -0.00000000000E+00  0.00000000000E+00  0.86421073525E+02  0.86421073525E+02  0.00000000000E+00 0.  1.
          2   -1    0    0  501    0  0.00000000000E+00 -0.00000000000E+00 -0.10526465289E+04  0.10526465289E+04  0.00000000000E+00 0. -1.
         23    2    1    2    0    0 -0.24869890476E+03  0.12960859314E+03 -0.46586487218E+03  0.55794277777E+03  0.12498212468E+03 0.  0.
          5    1    3    3  502    0 -0.17164130706E+03  0.11946697122E+03 -0.41557535961E+03  0.46525054005E+03  0.47000000000E+01 0.  1.
         -5    1    3    3    0  502 -0.77057597703E+02  0.10141621916E+02 -0.50289512569E+02  0.92692237719E+02  0.47000000000E+01 0.  1.
        -11    1    1    2    0    0  0.19611025216E+03 -0.13110011981E+03 -0.45108513653E+03  0.50904250590E+03  0.00000000000E+00 0. -1.
         11    1    1    2    0    0  0.52588652597E+02  0.14915266754E+01 -0.49275446697E+02  0.72082318782E+02  0.00000000000E+00 0.  1.
<mgrwt>
<rscale>  0 0.30412012E+03</rscale>
<asrwt>0</asrwt>
<pdfrwt beam="2">  1        2 0.16194562E+00 0.30703430E+03</pdfrwt>
<pdfrwt beam="1">  1       -2 0.13295550E-01 0.30703430E+03</pdfrwt>
<totfact> 0.10196084E+03</totfact>
</mgrwt>
</event>
<event>
 7    1  0.5206756E-006  0.1400179E+03  0.7546771E-02  0.1222782E+00
         -1   -1    0    0    0  501 -0.00000000000E+00  0.00000000000E+00  0.20405069992E+03  0.20405069992E+03  0.00000000000E+00 0.  1.
          1   -1    0    0  501    0  0.00000000000E+00 -0.00000000000E+00 -0.79737831474E+02  0.79737831474E+02  0.00000000000E+00 0. -1.
         23    2    1    2    0    0 -0.59364953297E+02  0.21364502113E+02  0.60242500937E+02  0.15242757643E+03  0.12499747000E+03 0.  0.
          5    1    3    3  502    0 -0.10922375639E+02 -0.48410457229E+02  0.31004332329E+01  0.49945703968E+02  0.47000000000E+01 0. -1.
         -5    1    3    3    0  502 -0.48442577658E+02  0.69774959342E+02  0.57142067704E+02  0.10248187246E+03  0.47000000000E+01 0. -1.
        -11    1    1    2    0    0 -0.94571638941E+01 -0.68084733845E+01  0.59758773451E+02  0.60884351545E+02  0.00000000000E+00 0.  1.
         11    1    1    2    0    0  0.68822117191E+02 -0.14556028729E+02  0.43115940634E+01  0.70476603425E+02  0.00000000000E+00 0. -1.
<mgrwt>
<rscale>  0 0.13320060E+03</rscale>
<asrwt>0</asrwt>
<pdfrwt beam="2">  1        1 0.12267359E-01 0.14001788E+03</pdfrwt>
<pdfrwt beam="1">  1       -1 0.31392415E-01 0.14001788E+03</pdfrwt>
<totfact> 0.44123171E+03</totfact>
</mgrwt>
</event>
<event>
 7    1  0.5206756E-006  0.1361467E+03  0.7546771E-02  0.1231091E+00
          2   -1    0    0  501    0  0.00000000000E+00  0.00000000000E+00  0.51257416138E+03  0.51257416138E+03  0.00000000000E+00 0.  1.
         -2   -1    0    0    0  501 -0.00000000000E+00 -0.00000000000E+00 -0.29295836593E+02  0.29295836593E+02  0.00000000000E+00 0. -1.
         23    2    1    2    0    0  0.74381718128E-02 -0.53940034203E+02  0.31994803669E+03  0.34771062412E+03  0.12500561825E+03 0.  0.
          5    1    3    3  502    0  0.52634609482E+02 -0.24043636993E+02  0.72271913308E+02  0.92702848113E+02  0.47000000000E+01 0. -1.
         -5    1    3    3    0  502 -0.52627171310E+02 -0.29896397210E+02  0.24767612339E+03  0.25500777600E+03  0.47000000000E+01 0. -1.
        -11    1    1    2    0    0  0.28184165996E+02  0.63306311063E+02  0.80801399709E+02  0.10644671168E+03  0.00000000000E+00 0. -1.
         11    1    1    2    0    0 -0.28191604168E+02 -0.93662768603E+01  0.82528888386E+02  0.87712662176E+02  0.00000000000E+00 0.  1.
<mgrwt>
<rscale>  0 0.12758024E+03</rscale>
<asrwt>0</asrwt>
<pdfrwt beam="1">  1        2 0.78857556E-01 0.13614673E+03</pdfrwt>
<pdfrwt beam="2">  1       -2 0.45070522E-02 0.13614673E+03</pdfrwt>
<totfact> 0.13162653E+04</totfact>
</mgrwt>
</event>
<event>
 7    1  0.5206756E-006  0.2871197E+03  0.7546771E-02  0.1093639E+00
          2   -1    0    0  501    0  0.00000000000E+00  0.00000000000E+00  0.15841963050E+04  0.15841963050E+04  0.00000000000E+00 0. -1.
         -2   -1    0    0    0  501 -0.00000000000E+00 -0.00000000000E+00 -0.51220183190E+02  0.51220183190E+02  0.00000000000E+00 0.  1.
         23    2    1    2    0    0 -0.25813008139E+03 -0.13602117597E+02  0.64255378063E+03  0.70378483717E+03  0.12498631732E+03 0.  0.
          5    1    3    3  502    0 -0.13790632798E+03 -0.12072942463E+02  0.18763949202E+03  0.23322645691E+03  0.47000000000E+01 0.  1.
         -5    1    3    3    0  502 -0.12022375341E+03 -0.15291751341E+01  0.45491428860E+03  0.47055838027E+03  0.47000000000E+01 0.  1.
        -11    1    1    2    0    0  0.53411241350E+02  0.23069460306E+02  0.10640802020E+03  0.12127500758E+03  0.00000000000E+00 0.  1.
         11    1    1    2    0    0  0.20471884004E+03 -0.94673427087E+01  0.78401432097E+03  0.81035664342E+03  0.00000000000E+00 0. -1.
<mgrwt>
<rscale>  0 0.28378657E+03</rscale>
<asrwt>0</asrwt>
<pdfrwt beam="1">  1        2 0.24372247E+00 0.28711972E+03</pdfrwt>
<pdfrwt beam="2">  1       -2 0.78800294E-02 0.28711972E+03</pdfrwt>
<totfact> 0.11909385E+03</totfact>
</mgrwt>
</event>
<event>
 7    1  0.5206756E-006  0.1420511E+03  0.7546771E-02  0.1221850E+00
          1   -1    0    0  501    0  0.00000000000E+00  0.00000000000E+00  0.30686077030E+02  0.30686077030E+02  0.00000000000E+00 0. -1.
         -1   -1    0    0    0  501 -0.00000000000E+00 -0.00000000000E+00 -0.54016065098E+03  0.54016065098E+03  0.00000000000E+00 0.  1.
         23    2    1    2    0    0 -0.23007549306E+02 -0.63441595802E+02 -0.23779935513E+03  0.27699646195E+03  0.12499729289E+03 0.  0.
          5    1    3    3  502    0 -0.35427767341E+02  0.20277426161E+01 -0.19363257465E+03  0.19691343886E+03  0.47000000000E+01 0.  1.
         -5    1    3    3    0  502  0.12420218035E+02 -0.65469338418E+02 -0.44166780479E+02  0.80083023087E+02  0.47000000000E+01 0.  1.
        -11    1    1    2    0    0  0.55046980725E+02  0.21306400856E+02 -0.14633336965E+03  0.15778969509E+03  0.00000000000E+00 0.  1.
         11    1    1    2    0    0 -0.32039431419E+02  0.42135194945E+02 -0.12534184918E+03  0.13606057097E+03  0.00000000000E+00 0. -1.
<mgrwt>
<rscale>  0 0.13385142E+03</rscale>
<asrwt>0</asrwt>
<pdfrwt beam="1">  1        1 0.47209343E-02 0.14205107E+03</pdfrwt>
<pdfrwt beam="2">  1       -1 0.83101649E-01 0.14205107E+03</pdfrwt>
<totfact> 0.26307717E+03</totfact>
</mgrwt>
</event>
<event>
 7    1  0.5206756E-006  0.1519704E+03  0.7546771E-02  0.1205696E+00
          2   -1    0    0  501    0  0.00000000000E+00  0.00000000000E+00  0.64182374414E+03  0.64182374414E+03  0.00000000000E+00 0. -1.
         -2   -1    0    0    0  501 -0.00000000000E+00 -0.00000000000E+00 -0.45310215473E+02  0.45310215473E+02  0.00000000000E+00 0.  1.
         23    2    1    2    0    0 -0.68965194847E+02 -0.52160407223E+02  0.50943789562E+03  0.53162201558E+03  0.12497236401E+03 0.  0.
          5    1    3    3  502    0 -0.74726442700E+01  0.39268906025E+02  0.17080074495E+03  0.17547897842E+03  0.47000000000E+01 0.  1.
         -5    1    3    3    0  502 -0.61492550577E+02 -0.91429313248E+02  0.33863715067E+03  0.35614303716E+03  0.47000000000E+01 0.  1.
        -11    1    1    2    0    0  0.15995545876E+02 -0.16188671711E+02 -0.10560388840E+02  0.25088889814E+02  0.00000000000E+00 0.  1.
         11    1    1    2    0    0  0.52969648971E+02  0.68349078934E+02  0.97636021881E+02  0.13042305422E+03  0.00000000000E+00 0. -1.
<mgrwt>
<rscale>  0 0.14582723E+03</rscale>
<asrwt>0</asrwt>
<pdfrwt beam="1">  1        2 0.98742108E-01 0.15197039E+03</pdfrwt>
<pdfrwt beam="2">  1       -2 0.69708028E-02 0.15197039E+03</pdfrwt>
<totfact> 0.53124064E+03</totfact>
</mgrwt>
</event>
<event>
 7    1  0.5206756E-006  0.1842417E+03  0.7546771E-02  0.1168888E+00
         -1   -1    0    0    0  501 -0.00000000000E+00  0.00000000000E+00  0.10652225480E+03  0.10652225480E+03  0.00000000000E+00 0.  1.
          1   -1    0    0  501    0  0.00000000000E+00 -0.00000000000E+00 -0.31360140159E+03  0.31360140159E+03  0.00000000000E+00 0. -1.
         23    2    1    2    0    0  0.35963048466E+02  0.13048730869E+03 -0.17332250926E+03  0.25295393986E+03  0.12499889956E+03 0.  0.
          5    1    3    3  502    0 -0.43915691662E+02  0.73006215783E+02 -0.88695853875E+02  0.12307534283E+03  0.47000000000E+01 0. -1.
         -5    1    3    3    0  502  0.79878740128E+02  0.57481092908E+02 -0.84626655382E+02  0.12987859703E+03  0.47000000000E+01 0. -1.
        -11    1    1    2    0    0 -0.80385793460E+00 -0.88723130872E+02  0.19563717904E+02  0.90858016694E+02  0.00000000000E+00 0.  1.
         11    1    1    2    0    0 -0.35159190532E+02 -0.41764177819E+02 -0.53320355439E+02  0.76311699836E+02  0.00000000000E+00 0. -1.
<mgrwt>
<rscale>  0 0.17888353E+03</rscale>
<asrwt>0</asrwt>
<pdfrwt beam="2">  1        1 0.48246371E-01 0.18424170E+03</pdfrwt>
<pdfrwt beam="1">  1       -1 0.16388039E-01 0.18424170E+03</pdfrwt>
<totfact> 0.22763564E+03</totfact>
</mgrwt>
</event>
<event>
 7    1  0.5206756E-006  0.1418243E+03  0.7546771E-02  0.1222534E+00
         -2   -1    0    0    0  501 -0.00000000000E+00  0.00000000000E+00  0.85560936887E+01  0.85560936887E+01  0.00000000000E+00 0.  1.
          2   -1    0    0  501    0  0.00000000000E+00 -0.00000000000E+00 -0.24473994124E+04  0.24473994124E+04  0.00000000000E+00 0. -1.
         23    2    1    2    0    0 -0.66978712171E+02  0.14433154987E+01 -0.19279258051E+04  0.19331352908E+04  0.12500364602E+03 0.  0.
          5    1    3    3  502    0  0.26863689668E+02  0.24629566568E+02 -0.28465617949E+03  0.28701829888E+03  0.47000000000E+01 0.  1.
         -5    1    3    3    0  502 -0.93842401839E+02 -0.23186251069E+02 -0.16432696256E+04  0.16461169919E+04  0.47000000000E+01 0.  1.
        -11    1    1    2    0    0  0.12468856155E+02 -0.40443218128E+02 -0.15654159498E+03  0.16216163919E+03  0.00000000000E+00 0.  1.
         11    1    1    2    0    0  0.54509856016E+02  0.38999902629E+02 -0.35437591867E+03  0.36065857614E+03  0.00000000000E+00 0. -1.
<mgrwt>
<rscale>  0 0.13337366E+03</rscale>
<asrwt>0</asrwt>
<pdfrwt beam="2">  1        2 0.37652371E+00 0.14182434E+03</pdfrwt>
<pdfrwt beam="1">  1       -2 0.13163196E-02 0.14182434E+03</pdfrwt>
<totfact> 0.61048179E+03</totfact>
</mgrwt>
</event>
<event>
 7    1  0.5206756E-006  0.1599589E+03  0.7546771E-02  0.1196540E+00
          2   -1    0    0  501    0  0.00000000000E+00  0.00000000000E+00  0.75420817801E+03  0.75420817801E+03  0.00000000000E+00 0. -1.
         -2   -1    0    0    0  501 -0.00000000000E+00 -0.00000000000E+00 -0.37036182408E+02  0.37036182408E+02  0.00000000000E+00 0.  1.
         23    2    1    2    0    0 -0.74179473076E+00  0.99834359865E+02  0.56858030947E+03  0.59065254234E+03  0.12497762917E+03 0.  0.
          5    1    3    3  502    0 -0.16015507398E+02  0.14199206616E+02  0.40264150677E+03  0.40323738284E+03  0.47000000000E+01 0. -1.
         -5    1    3    3    0  502  0.15273712667E+02  0.85635153249E+02  0.16593880270E+03  0.18741515950E+03  0.47000000000E+01 0. -1.
        -11    1    1    2    0    0 -0.11864156353E+01 -0.43776366658E+02  0.13630988410E+03  0.14317179318E+03  0.00000000000E+00 0. -1.
         11    1    1    2    0    0  0.19282103661E+01 -0.56057993207E+02  0.12281802037E+02  0.57420024895E+02  0.00000000000E+00 0.  1.
<mgrwt>
<rscale>  0 0.15324582E+03</rscale>
<asrwt>0</asrwt>
<pdfrwt beam="1">  1        2 0.11603202E+00 0.15995892E+03</pdfrwt>
<pdfrwt beam="2">  1       -2 0.56978748E-02 0.15995892E+03</pdfrwt>
<totfact> 0.59758001E+03</totfact>
</mgrwt>
</event>
<event>
 7    1  0.5206756E-006  0.2191431E+03  0.7546771E-02  0.1137926E+00
         -1   -1    0    0    0  501 -0.00000000000E+00  0.00000000000E+00  0.54641416668E+02  0.54641416668E+02  0.00000000000E+00 0.  1.
          1   -1    0    0  501    0  0.00000000000E+00 -0.00000000000E+00 -0.81523975702E+03  0.81523975702E+03  0.00000000000E+00 0. -1.
         23    2    1    2    0    0 -0.13836682185E+03  0.11511150686E+03 -0.42883218768E+03  0.48158148242E+03  0.12501057004E+03 0.  0.
          5    1    3    3  502    0 -0.14855466642E+03  0.10869995872E+03 -0.29930358665E+03  0.35140987026E+03  0.47000000000E+01 0.  1.
         -5    1    3    3    0  502  0.10187844568E+02  0.64115481397E+01 -0.12952860103E+03  0.13017161215E+03  0.47000000000E+01 0.  1.
        -11    1    1    2    0    0  0.10253391826E+03 -0.28245739373E+02 -0.19912421671E+03  0.22574649470E+03  0.00000000000E+00 0.  1.
         11    1    1    2    0    0  0.35832903585E+02 -0.86865767482E+02 -0.13264193596E+03  0.16255319657E+03  0.00000000000E+00 0. -1.
<mgrwt>
<rscale>  0 0.21466220E+03</rscale>
<asrwt>0</asrwt>
<pdfrwt beam="2">  1        1 0.12542150E+00 0.21914306E+03</pdfrwt>
<pdfrwt beam="1">  1       -1 0.84063720E-02 0.21914306E+03</pdfrwt>
<totfact> 0.17804736E+03</totfact>
</mgrwt>
</event>
<event>
 7    1  0.5206756E-006  0.1536909E+03  0.7546771E-02  0.1204033E+00
          1   -1    0    0  501    0  0.00000000000E+00  0.00000000000E+00  0.16707149546E+03  0.16707149546E+03  0.00000000000E+00 0. -1.
         -1   -1    0    0    0  501 -0.00000000000E+00 -0.00000000000E+00 -0.12051673964E+03  0.12051673964E+03  0.00000000000E+00 0.  1.
         23    2    1    2    0    0 -0.89157703433E+02  0.68660541136E+01  0.13317190344E+02  0.15426680774E+03  0.12499864652E+03 0.  0.
          5    1    3    3  502    0 -0.82085995241E+02  0.88543933288E+01  0.62915011300E+02  0.10390813030E+03  0.47000000000E+01 0.  1.
         -5    1    3    3    0  502 -0.70717081918E+01 -0.19883392153E+01 -0.49597820956E+02  0.50358677437E+02  0.47000000000E+01 0.  1.
        -11    1    1    2    0    0  0.18227474359E+02  0.31837533328E+02  0.37429317242E+02  0.52410143475E+02  0.00000000000E+00 0. -1.
         11    1    1    2    0    0  0.70930229075E+02 -0.38703587441E+02 -0.41917517703E+01  0.80911283888E+02  0.00000000000E+00 0.  1.
<mgrwt>
<rscale>  0 0.14713896E+03</rscale>
<asrwt>0</asrwt>
<pdfrwt beam="1">  1        1 0.25703307E-01 0.15369092E+03</pdfrwt>
<pdfrwt beam="2">  1       -1 0.18541037E-01 0.15369092E+03</pdfrwt>
<totfact> 0.40732568E+03</totfact>
</mgrwt>
</event>
<event>
 6    1  0.5206756E-006  0.1373464E+03  0.7546771E-02  0.1235568E+00
         -1   -1    0    0    0  501 -0.00000000000E+00  0.00000000000E+00  0.27112890892E+02  0.27112890892E+02  0.00000000000E+00 0.  1.
          1   -1    0    0  501    0  0.00000000000E+00 -0.00000000000E+00 -0.55326712037E+03  0.55326712037E+03  0.00000000000E+00 0. -1.
          5    1    1    2  502    0 -0.16966858648E+02  0.21524457913E+02 -0.98065359740E+01  0.29486178604E+02  0.47000000000E+01 0. -1.
         -5    1    1    2    0  502  0.31750673098E+02 -0.37039866578E+02 -0.39405077747E+03  0.39708709647E+03  0.47000000000E+01 0.  1.
        -11    1    1    2    0    0 -0.38076934869E+02  0.11886707947E+02 -0.12391510762E+03  0.13017718960E+03  0.00000000000E+00 0. -1.
         11    1    1    2    0    0  0.23293120419E+02  0.36287007175E+01  0.16181915943E+01  0.23629546585E+02  0.00000000000E+00 0.  1.
<mgrwt>
<rscale>  0 0.12468169E+03</rscale>
<asrwt>0</asrwt>
<pdfrwt beam="2">  1        1 0.85118013E-01 0.13734638E+03</pdfrwt>
<pdfrwt beam="1">  1       -1 0.41712142E-02 0.13734638E+03</pdfrwt>
<totfact> 0.87004103E+03</totfact>
</mgrwt>
</event>
<event>
 7    1  0.5206756E-006  0.1461278E+03  0.7546771E-02  0.1213986E+00
          2   -1    0    0  501    0  0.00000000000E+00  0.00000000000E+00  0.23152173855E+03  0.23152173855E+03  0.00000000000E+00 0. -1.
         -2   -1    0    0    0  501 -0.00000000000E+00 -0.00000000000E+00 -0.85662753068E+02  0.85662753068E+02  0.00000000000E+00 0.  1.
         23    2    1    2    0    0  0.53005421842E+02 -0.54025071777E+02  0.12840208877E+03  0.19452619853E+03  0.12500024955E+03 0.  0.
          5    1    3    3  502    0 -0.36859576445E+02 -0.49341309012E+01  0.11856310429E+02  0.39314578981E+02  0.47000000000E+01 0. -1.
         -5    1    3    3    0  502  0.89864998287E+02 -0.49090940876E+02  0.11654577834E+03  0.15521161955E+03  0.47000000000E+01 0. -1.
        -11    1    1    2    0    0 -0.33563520792E+02  0.70456826590E+02  0.40848942474E+02  0.88086948195E+02  0.00000000000E+00 0. -1.
         11    1    1    2    0    0 -0.19441901050E+02 -0.16431754813E+02 -0.23392045764E+02  0.34571344893E+02  0.00000000000E+00 0.  1.
<mgrwt>
<rscale>  0 0.13951248E+03</rscale>
<asrwt>0</asrwt>
<pdfrwt beam="1">  1        2 0.35618729E-01 0.14612784E+03</pdfrwt>
<pdfrwt beam="2">  1       -2 0.13178885E-01 0.14612784E+03</pdfrwt>
<totfact> 0.58970796E+03</totfact>
</mgrwt>
</event>
<event>
 7    1  0.5206756E-006  0.1368966E+03  0.7546771E-02  0.1228183E+00
          1   -1    0    0  501    0  0.00000000000E+00  0.00000000000E+00  0.45674147465E+03  0.45674147465E+03  0.00000000000E+00 0. -1.
         -1   -1    0    0    0  501 -0.00000000000E+00 -0.00000000000E+00 -0.41929748615E+02  0.41929748615E+02  0.00000000000E+00 0.  1.
         23    2    1    2    0    0 -0.53853785862E+02  0.14657452763E+02  0.33832651935E+03  0.36497331981E+03  0.12500247720E+03 0.  0.
          5    1    3    3  502    0 -0.76072249072E+02 -0.62856640009E+00  0.32628047070E+03  0.33506479632E+03  0.47000000000E+01 0. -1.
         -5    1    3    3    0  502  0.22218463210E+02  0.15286019163E+02  0.12046048652E+02  0.29908523491E+02  0.47000000000E+01 0. -1.
        -11    1    1    2    0    0  0.17319688644E+02 -0.60435521579E+01 -0.21798810356E+02  0.28490073190E+02  0.00000000000E+00 0.  1.
         11    1    1    2    0    0  0.36534097218E+02 -0.86139006053E+01  0.98284017042E+02  0.10520783026E+03  0.00000000000E+00 0. -1.
<mgrwt>
<rscale>  0 0.12951077E+03</rscale>
<asrwt>0</asrwt>
<pdfrwt beam="1">  1        1 0.70267916E-01 0.13689664E+03</pdfrwt>
<pdfrwt beam="2">  1       -1 0.64507309E-02 0.13689664E+03</pdfrwt>
<totfact> 0.58568593E+03</totfact>
</mgrwt>
</event>
<event>
 7    1  0.5206756E-006  0.1362899E+03  0.7546771E-02  0.1230747E+00
         -1   -1    0    0    0  501 -0.00000000000E+00  0.00000000000E+00  0.62548379037E+02  0.62548379037E+02  0.00000000000E+00 0.  1.
          1   -1    0    0  501    0  0.00000000000E+00 -0.00000000000E+00 -0.25149251830E+03  0.25149251830E+03  0.00000000000E+00 0. -1.
         23    2    1    2    0    0  0.31150075551E+02  0.43670839364E+02 -0.14740136729E+03  0.20075381065E+03  0.12528950472E+03 0.  0.
          5    1    3    3  502    0  0.63072104303E+02  0.42663826535E+02 -0.35236123949E+02  0.84035509559E+02  0.47000000000E+01 0. -1.
         -5    1    3    3    0  502 -0.31922028752E+02  0.10070128288E+01 -0.11216524334E+03  0.11671830109E+03  0.47000000000E+01 0.  1.
        -11    1    1    2    0    0 -0.13722113314E+02 -0.13411675796E+02 -0.67244790530E+02  0.69928758712E+02  0.00000000000E+00 0. -1.
         11    1    1    2    0    0 -0.17427962237E+02 -0.30259163568E+02  0.25702018556E+02  0.43358327982E+02  0.00000000000E+00 0.  1.
<mgrwt>
<rscale>  0 0.12780651E+03</rscale>
<asrwt>0</asrwt>
<pdfrwt beam="2">  1        1 0.38691156E-01 0.13628987E+03</pdfrwt>
<pdfrwt beam="1">  1       -1 0.96228276E-02 0.13628987E+03</pdfrwt>
<totfact> 0.67519857E+03</totfact>
</mgrwt>
</event>
<event>
 7    1  0.5206756E-006  0.1362938E+03  0.7546771E-02  0.1225834E+00
          1   -1    0    0  501    0  0.00000000000E+00  0.00000000000E+00  0.79760752153E+02  0.79760752153E+02  0.00000000000E+00 0. -1.
         -1   -1    0    0    0  501 -0.00000000000E+00 -0.00000000000E+00 -0.20120507445E+03  0.20120507445E+03  0.00000000000E+00 0.  1.
         23    2    1    2    0    0  0.39442195502E+02 -0.37378880932E+02 -0.57587513622E+02  0.14796053803E+03  0.12499252603E+03 0.  0.
          5    1    3    3  502    0  0.10532926820E+02 -0.46511705889E+02 -0.90847568306E+02  0.10271149887E+03  0.47000000000E+01 0. -1.
         -5    1    3    3    0  502  0.28909268681E+02  0.91328249571E+01  0.33260054684E+02  0.45249039161E+02  0.47000000000E+01 0. -1.
        -11    1    1    2    0    0 -0.35973440810E+02  0.18661618231E+02 -0.91136356961E+02  0.99740563458E+02  0.00000000000E+00 0.  1.
         11    1    1    2    0    0 -0.34687546918E+01  0.18717262701E+02  0.27279548289E+02  0.33264725115E+02  0.00000000000E+00 0. -1.
<mgrwt>
<rscale>  0 0.13109924E+03</rscale>
<asrwt>0</asrwt>
<pdfrwt beam="1">  1        1 0.12270885E-01 0.13629380E+03</pdfrwt>
<pdfrwt beam="2">  1       -1 0.30954626E-01 0.13629380E+03</pdfrwt>
<totfact> 0.45091819E+03</totfact>
</mgrwt>
</event>
<event>
 7    1  0.5206756E-006  0.1473315E+03  0.7546771E-02  0.1213168E+00
         -1   -1    0    0    0  501 -0.00000000000E+00  0.00000000000E+00  0.10798009851E+03  0.10798009851E+03  0.00000000000E+00 0.  1.
          1   -1    0    0  501    0  0.00000000000E+00 -0.00000000000E+00 -0.16716294014E+03  0.16716294014E+03  0.00000000000E+00 0. -1.
         23    2    1    2    0    0  0.77056020471E+02 -0.12072687420E+02 -0.21742211760E+02  0.14892711923E+03  0.12499273178E+03 0.  0.
          5    1    3    3  502    0  0.31130796039E+02 -0.64292665087E+02 -0.32111554386E+02  0.78459640397E+02  0.47000000000E+01 0.  1.
         -5    1    3    3    0  502  0.45925224433E+02  0.52219977668E+02  0.10369342626E+02  0.70467478835E+02  0.47000000000E+01 0.  1.
        -11    1    1    2    0    0 -0.86959669573E+01  0.15243372006E+02 -0.53175639654E+02  0.55996686367E+02  0.00000000000E+00 0. -1.
         11    1    1    2    0    0 -0.68360053514E+02 -0.31706845869E+01  0.15735009786E+02  0.70219233050E+02  0.00000000000E+00 0.  1.
<mgrwt>
<rscale>  0 0.14011991E+03</rscale>
<asrwt>0</asrwt>
<pdfrwt beam="2">  1        1 0.25717375E-01 0.14733147E+03</pdfrwt>
<pdfrwt beam="1">  1       -1 0.16612323E-01 0.14733147E+03</pdfrwt>
<totfact> 0.48361268E+03</totfact>
</mgrwt>
</event>
<event>
 7    1  0.5206756E-006  0.2040644E+03  0.7546771E-02  0.1151047E+00
         -2   -1    0    0    0  501 -0.00000000000E+00  0.00000000000E+00  0.98538599169E+02  0.98538599169E+02  0.00000000000E+00 0.  1.
          2   -1    0    0  501    0  0.00000000000E+00 -0.00000000000E+00 -0.37944776632E+03  0.37944776632E+03  0.00000000000E+00 0. -1.
         23    2    1    2    0    0 -0.45589019169E+02  0.15472203569E+03 -0.15428607042E+03  0.25582504200E+03  0.12499997436E+03 0.  0.
          5    1    3    3  502    0 -0.39555886170E+02 -0.60046955778E+01 -0.14937197960E+02  0.42964338498E+02  0.47000000000E+01 0. -1.
         -5    1    3    3    0  502 -0.60331329987E+01  0.16072673127E+03 -0.13934887246E+03  0.21286070350E+03  0.47000000000E+01 0. -1.
        -11    1    1    2    0    0  0.64311206396E+02 -0.10505524265E+03 -0.60097260382E+02  0.13705552153E+03  0.00000000000E+00 0.  1.
         11    1    1    2    0    0 -0.18722187227E+02 -0.49666793046E+02 -0.66525836348E+02  0.85105801963E+02  0.00000000000E+00 0. -1.
<mgrwt>
<rscale>  0 0.19845733E+03</rscale>
<asrwt>0</asrwt>
<pdfrwt beam="2">  1        2 0.58376580E-01 0.20406435E+03</pdfrwt>
<pdfrwt beam="1">  1       -2 0.15159784E-01 0.20406435E+03</pdfrwt>
<totfact> 0.28088836E+03</totfact>
</mgrwt>
</event>
<event>
 7    1  0.5206756E-006  0.1860299E+03  0.7546771E-02  0.1166934E+00
          1   -1    0    0  501    0  0.00000000000E+00  0.00000000000E+00  0.96796408479E+03  0.96796408479E+03  0.00000000000E+00 0. -1.
         -1   -1    0    0    0  501 -0.00000000000E+00 -0.00000000000E+00 -0.41079183871E+02  0.41079183871E+02  0.00000000000E+00 0.  1.
         23    2    1    2    0    0  0.83812310804E+01 -0.13752467471E+03  0.71963427940E+03  0.74329039561E+03  0.12499533963E+03 0.  0.
          5    1    3    3  502    0 -0.11401241394E+02 -0.13813230945E+03  0.40668092700E+03  0.42967661049E+03  0.47000000000E+01 0.  1.
         -5    1    3    3    0  502  0.19782472475E+02  0.60763473417E+00  0.31295335240E+03  0.31361378512E+03  0.47000000000E+01 0.  1.
        -11    1    1    2    0    0 -0.43294936012E+02  0.94242050489E+02  0.95741327117E+02  0.14114679338E+03  0.00000000000E+00 0.  1.
         11    1    1    2    0    0  0.34913704932E+02  0.43282624225E+02  0.11150929439E+03  0.12460607966E+03  0.00000000000E+00 0. -1.
<mgrwt>
<rscale>  0 0.18090128E+03</rscale>
<asrwt>0</asrwt>
<pdfrwt beam="1">  1        1 0.14891753E+00 0.18602988E+03</pdfrwt>
<pdfrwt beam="2">  1       -1 0.63198752E-02 0.18602988E+03</pdfrwt>
<totfact> 0.20787379E+03</totfact>
</mgrwt>
</event>
<event>
 7    1  0.5206756E-006  0.1571054E+03  0.7546771E-02  0.1199822E+00
         -3   -1    0    0    0  501 -0.00000000000E+00  0.00000000000E+00  0.52695627771E+02  0.52695627771E+02  0.00000000000E+00 0.  1.
          3   -1    0    0  501    0  0.00000000000E+00 -0.00000000000E+00 -0.44722127213E+03  0.44722127213E+03  0.00000000000E+00 0. -1.
         23    2    1    2    0    0 -0.55856507998E+02  0.77054527764E+02 -0.29516102195E+03  0.33436827981E+03  0.12499907171E+03 0.  0.
          5    1    3    3  502    0  0.55510881296E+01  0.83755909216E+02 -0.10582664363E+03  0.13515633692E+03  0.47000000000E+01 0.  1.
         -5    1    3    3    0  502 -0.61407596128E+02 -0.67013814516E+01 -0.18933437832E+03  0.19921194289E+03  0.47000000000E+01 0.  1.
        -11    1    1    2    0    0  0.65190915535E+02 -0.15718493481E+02 -0.69898971344E+02  0.96864816629E+02  0.00000000000E+00 0. -1.
         11    1    1    2    0    0 -0.93344075364E+01 -0.61336034283E+02 -0.29465651068E+02  0.68683803465E+02  0.00000000000E+00 0.  1.
<mgrwt>
<rscale>  0 0.15053084E+03</rscale>
<asrwt>0</asrwt>
<pdfrwt beam="2">  1        3 0.68803275E-01 0.15710543E+03</pdfrwt>
<pdfrwt beam="1">  1       -3 0.81070194E-02 0.15710543E+03</pdfrwt>
<totfact> 0.51060511E+02</totfact>
</mgrwt>
</event>
<event>
 7    1  0.5206756E-006  0.1592941E+03  0.7546771E-02  0.1198601E+00
          1   -1    0    0  501    0  0.00000000000E+00  0.00000000000E+00  0.27228376066E+02  0.27228376066E+02  0.00000000000E+00 0. -1.
         -1   -1    0    0    0  501 -0.00000000000E+00 -0.00000000000E+00 -0.77100269390E+03  0.77100269390E+03  0.00000000000E+00 0.  1.
         23    2    1    2    0    0  0.98407274325E+02  0.80857012383E+01 -0.41527655913E+03  0.44477999744E+03  0.12500102139E+03 0.  0.
          5    1    3    3  502    0  0.87190575801E+02  0.42742211827E+02 -0.38528799012E+03  0.39736383644E+03  0.47000000000E+01 0. -1.
         -5    1    3    3    0  502  0.11216698525E+02 -0.34656510589E+02 -0.29988569010E+02  0.47416160992E+02  0.47000000000E+01 0. -1.
        -11    1    1    2    0    0 -0.94898872607E+02 -0.33884187396E+02 -0.28972058431E+03  0.30674411348E+03  0.00000000000E+00 0.  1.
         11    1    1    2    0    0 -0.35084017186E+01  0.25798486158E+02 -0.38777174394E+02  0.46706959060E+02  0.00000000000E+00 0. -1.
<mgrwt>
<rscale>  0 0.15153392E+03</rscale>
<asrwt>0</asrwt>
<pdfrwt beam="1">  1        1 0.41889802E-02 0.15929415E+03</pdfrwt>
<pdfrwt beam="2">  1       -1 0.11861582E+00 0.15929415E+03</pdfrwt>
<totfact> 0.14240203E+03</totfact>
</mgrwt>
</event>
<event>
 7    1  0.5206756E-006  0.1583816E+03  0.7546771E-02  0.1198175E+00
         -2   -1    0    0    0  501 -0.00000000000E+00  0.00000000000E+00  0.39508300479E+02  0.39508300479E+02  0.00000000000E+00 0.  1.
          2   -1    0    0  501    0  0.00000000000E+00 -0.00000000000E+00 -0.55543033305E+03  0.55543033305E+03  0.00000000000E+00 0. -1.
         23    2    1    2    0    0 -0.86604823626E+02  0.44264545246E+02 -0.32711147000E+03  0.36343724284E+03  0.12499988094E+03 0.  0.
          5    1    3    3  502    0  0.61201750841E+01  0.63080246324E+02 -0.13769460558E+03  0.15165245935E+03  0.47000000000E+01 0. -1.
         -5    1    3    3    0  502 -0.92724998710E+02 -0.18815701078E+02 -0.18941686442E+03  0.21178478349E+03  0.47000000000E+01 0. -1.
        -11    1    1    2    0    0  0.29816699371E+02  0.94039527226E+01 -0.12999902285E+03  0.13370570605E+03  0.00000000000E+00 0.  1.
         11    1    1    2    0    0  0.56788124255E+02 -0.53668497969E+02 -0.58811539726E+02  0.97795684647E+02  0.00000000000E+00 0. -1.
<mgrwt>
<rscale>  0 0.15188565E+03</rscale>
<asrwt>0</asrwt>
<pdfrwt beam="2">  1        2 0.85450816E-01 0.15838155E+03</pdfrwt>
<pdfrwt beam="1">  1       -2 0.60782004E-02 0.15838155E+03</pdfrwt>
<totfact> 0.77442969E+03</totfact>
</mgrwt>
</event>
<event>
 7    1  0.5206756E-006  0.1465704E+03  0.7546771E-02  0.1219782E+00
         -1   -1    0    0    0  501 -0.00000000000E+00  0.00000000000E+00  0.73362687503E+02  0.73362687503E+02  0.00000000000E+00 0.  1.
          1   -1    0    0  501    0  0.00000000000E+00 -0.00000000000E+00 -0.21926596924E+03  0.21926596924E+03  0.00000000000E+00 0. -1.
         23    2    1    2    0    0 -0.69868735747E+02  0.31217905669E+02 -0.74282162127E+02  0.16431895260E+03  0.12500672264E+03 0.  0.
          5    1    3    3  502    0 -0.95163875007E+02  0.65256197461E+01 -0.84183834987E+02  0.12730968106E+03  0.47000000000E+01 0.  1.
         -5    1    3    3    0  502  0.25295139260E+02  0.24692285923E+02  0.99016728598E+01  0.37009271538E+02  0.47000000000E+01 0.  1.
        -11    1    1    2    0    0  0.33081636894E+02 -0.45215590549E+02 -0.12692746176E+02  0.57445192434E+02  0.00000000000E+00 0.  1.
         11    1    1    2    0    0  0.36787098853E+02  0.13997684880E+02 -0.58928373436E+02  0.70864511709E+02  0.00000000000E+00 0. -1.
<mgrwt>
<rscale>  0 0.13531053E+03</rscale>
<asrwt>0</asrwt>
<pdfrwt beam="2">  1        1 0.33733226E-01 0.14657039E+03</pdfrwt>
<pdfrwt beam="1">  1       -1 0.11286567E-01 0.14657039E+03</pdfrwt>
<totfact> 0.62981092E+03</totfact>
</mgrwt>
</event>
<event>
 7    1  0.5206756E-006  0.1342760E+03  0.7546771E-02  0.1236080E+00
          3   -1    0    0  501    0  0.00000000000E+00  0.00000000000E+00  0.17915015018E+03  0.17915015018E+03  0.00000000000E+00 0. -1.
         -3   -1    0    0    0  501 -0.00000000000E+00 -0.00000000000E+00 -0.80238248610E+02  0.80238248610E+02  0.00000000000E+00 0.  1.
         23    2    1    2    0    0  0.17630013707E+02  0.45764887122E+02  0.86756893453E+02  0.15986493200E+03  0.12499918257E+03 0.  0.
          5    1    3    3  502    0 -0.38906486074E+02  0.53766409283E+02  0.15288715799E+02  0.68266948494E+02  0.47000000000E+01 0.  1.
         -5    1    3    3    0  502  0.56536499781E+02 -0.80015221616E+01  0.71468177653E+02  0.91597983501E+02  0.47000000000E+01 0.  1.
        -11    1    1    2    0    0 -0.45392009779E+02 -0.42207318613E+02  0.27266878021E+02  0.67715396574E+02  0.00000000000E+00 0. -1.
         11    1    1    2    0    0  0.27761996072E+02 -0.35575685089E+01 -0.15111869899E+02  0.31808070225E+02  0.00000000000E+00 0.  1.
<mgrwt>
<rscale>  0 0.12435529E+03</rscale>
<asrwt>0</asrwt>
<pdfrwt beam="1">  1        3 0.27561561E-01 0.13427598E+03</pdfrwt>
<pdfrwt beam="2">  1       -3 0.12344346E-01 0.13427598E+03</pdfrwt>
<totfact> 0.14929238E+03</totfact>
</mgrwt>
</event>
<event>
 7    1  0.5206756E-006  0.1495663E+03  0.7546771E-02  0.1209591E+00
          2   -1    0    0  501    0  0.00000000000E+00  0.00000000000E+00  0.43577035016E+03  0.43577035016E+03  0.00000000000E+00 0. -1.
         -2   -1    0    0    0  501 -0.00000000000E+00 -0.00000000000E+00 -0.44285992049E+02  0.44285992049E+02  0.00000000000E+00 0.  1.
         23    2    1    2    0    0 -0.66625113362E+02 -0.47992935264E+02  0.25336214070E+03  0.29421499941E+03  0.12501145537E+03 0.  0.
          5    1    3    3  502    0 -0.21572550100E+02 -0.86017933885E+02  0.13038040945E+03  0.15775170692E+03  0.47000000000E+01 0. -1.
         -5    1    3    3    0  502 -0.45052563262E+02  0.38024998621E+02  0.12298173125E+03  0.13646329249E+03  0.47000000000E+01 0. -1.
        -11    1    1    2    0    0  0.54534123537E+02  0.23166680848E+02  0.17043243347E+02  0.61653368726E+02  0.00000000000E+00 0.  1.
         11    1    1    2    0    0  0.12090989825E+02  0.24826254416E+02  0.12107897406E+03  0.12418797407E+03  0.00000000000E+00 0. -1.
<mgrwt>
<rscale>  0 0.14281505E+03</rscale>
<asrwt>0</asrwt>
<pdfrwt beam="1">  1        2 0.67041589E-01 0.14956634E+03</pdfrwt>
<pdfrwt beam="2">  1       -2 0.68132298E-02 0.14956634E+03</pdfrwt>
<totfact> 0.84680276E+03</totfact>
</mgrwt>
</event>
<event>
 6    1  0.5206756E-006  0.1786897E+03  0.7546771E-02  0.1201099E+00
         -2   -1    0    0    0  501 -0.00000000000E+00  0.00000000000E+00  0.65629055286E+02  0.65629055286E+02  0.00000000000E+00 0.  1.
          2   -1    0    0  501    0  0.00000000000E+00 -0.00000000000E+00 -0.37190962388E+03  0.37190962388E+03  0.00000000000E+00 0. -1.
          5    1    1    2  502    0  0.61207292931E+02  0.60634957862E+02 -0.12888429863E+03  0.15510055853E+03  0.47000000000E+01 0. -1.
         -5    1    1    2    0  502 -0.66057471815E+02 -0.63212217906E+02 -0.17186775897E+03  0.19473055910E+03  0.47000000000E+01 0.  1.
        -11    1    1    2    0    0 -0.50931861866E+01 -0.40662905673E+02  0.70673420425E+01  0.41585571619E+02  0.00000000000E+00 0. -1.
         11    1    1    2    0    0  0.99433650705E+01  0.43240165718E+02 -0.12595853041E+02  0.46121989919E+02  0.00000000000E+00 0.  1.
<mgrwt>
<rscale>  0 0.14949194E+03</rscale>
<asrwt>0</asrwt>
<pdfrwt beam="2">  1        2 0.57216864E-01 0.17868971E+03</pdfrwt>
<pdfrwt beam="1">  1       -2 0.10096778E-01 0.17868971E+03</pdfrwt>
<totfact> 0.55023080E+03</totfact>
</mgrwt>
</event>
<event>
 6    1  0.5206756E-006  0.1572414E+03  0.7546771E-02  0.1203027E+00
         -1   -1    0    0    0  501 -0.00000000000E+00  0.00000000000E+00  0.25980142517E+02  0.25980142517E+02  0.00000000000E+00 0.  1.
          1   -1    0    0  501    0  0.00000000000E+00 -0.00000000000E+00 -0.16384984120E+04  0.16384984120E+04  0.00000000000E+00 0. -1.
          5    1    1    2  502    0  0.43511443773E+02 -0.11108538264E+03 -0.11038918030E+04  0.11103298657E+04  0.47000000000E+01 0. -1.
         -5    1    1    2    0  502 -0.57148897505E+01  0.37111177873E+02 -0.35596086022E+03  0.35796665137E+03  0.47000000000E+01 0.  1.
        -11    1    1    2    0    0 -0.10147760553E+02  0.69326405813E+02 -0.41278485949E+02  0.81320606180E+02  0.00000000000E+00 0.  1.
         11    1    1    2    0    0 -0.27648793470E+02  0.46477989521E+01 -0.11138712027E+03  0.11486143120E+03  0.00000000000E+00 0. -1.
<mgrwt>
<rscale>  0 0.14794025E+03</rscale>
<asrwt>0</asrwt>
<pdfrwt beam="2">  1        1 0.25207681E+00 0.15724142E+03</pdfrwt>
<pdfrwt beam="1">  1       -1 0.39969430E-02 0.15724142E+03</pdfrwt>
<totfact> 0.14350555E+03</totfact>
</mgrwt>
</event>
<event>
 7    1  0.5206756E-006  0.1404610E+03  0.7546771E-02  0.1224045E+00
          2   -1    0    0  501    0  0.00000000000E+00  0.00000000000E+00  0.12538243250E+03  0.12538243250E+03  0.00000000000E+00 0.  1.
         -2   -1    0    0    0  501 -0.00000000000E+00 -0.00000000000E+00 -0.23053177287E+03  0.23053177287E+03  0.00000000000E+00 0. -1.
         23    2    1    2    0    0 -0.63465227011E+02 -0.67214194506E+01  0.63551986539E+02  0.15416922916E+03  0.12512507226E+03 0.  0.
          5    1    3    3  502    0  0.15947535120E+02 -0.44949086885E+01  0.72100130761E+02  0.74128583801E+02  0.47000000000E+01 0. -1.
         -5    1    3    3    0  502 -0.79412762131E+02 -0.22265107621E+01 -0.85481442223E+01  0.80040645356E+02  0.47000000000E+01 0. -1.
        -11    1    1    2    0    0  0.27326810529E+02 -0.39319526549E+02 -0.49059772974E+02  0.68553928158E+02  0.00000000000E+00 0.  1.
         11    1    1    2    0    0  0.36138416482E+02  0.46040945999E+02 -0.11964155394E+03  0.13319104806E+03  0.00000000000E+00 0. -1.
<mgrwt>
<rscale>  0 0.13232549E+03</rscale>
<asrwt>0</asrwt>
<pdfrwt beam="1">  1        2 0.19289605E-01 0.14046101E+03</pdfrwt>
<pdfrwt beam="2">  1       -2 0.35466426E-01 0.14046101E+03</pdfrwt>
<totfact> 0.21076270E+03</totfact>
</mgrwt>
</event>
<event>
 6    1  0.5206756E-006  0.3185569E+03  0.7546771E-02  0.1123552E+00
         -2   -1    0    0    0  501 -0.00000000000E+00  0.00000000000E+00  0.20659799352E+03  0.20659799352E+03  0.00000000000E+00 0.  1.
          2   -1    0    0  501    0  0.00000000000E+00 -0.00000000000E+00 -0.32619436372E+03  0.32619436372E+03  0.00000000000E+00 0. -1.
          5    1    1    2  502    0  0.46057879353E+01 -0.19928089623E+02 -0.30814033832E+03  0.30885417293E+03  0.47000000000E+01 0. -1.
         -5    1    1    2    0  502  0.46706265199E+01 -0.20576196842E+01  0.81693000092E+02  0.81987101516E+02  0.47000000000E+01 0.  1.
        -11    1    1    2    0    0 -0.51092606228E+01  0.32893249090E+02  0.11990325386E+03  0.12443818010E+03  0.00000000000E+00 0.  1.
         11    1    1    2    0    0 -0.41671538324E+01 -0.10907539783E+02 -0.13052285840E+02  0.17512902695E+02  0.00000000000E+00 0. -1.
<mgrwt>
<rscale>  0 0.23444209E+03</rscale>
<asrwt>0</asrwt>
<pdfrwt beam="2">  1        2 0.50183748E-01 0.31855691E+03</pdfrwt>
<pdfrwt beam="1">  1       -2 0.31784307E-01 0.31855691E+03</pdfrwt>
<totfact> 0.92034778E+02</totfact>
</mgrwt>
</event>
<event>
 7    1  0.5206756E-006  0.1337973E+03  0.7546771E-02  0.1235091E+00
         -2   -1    0    0    0  501 -0.00000000000E+00  0.00000000000E+00  0.26821283630E+03  0.26821283630E+03  0.00000000000E+00 0.  1.
          2   -1    0    0  501    0  0.00000000000E+00 -0.00000000000E+00 -0.55317020401E+02  0.55317020401E+02  0.00000000000E+00 0. -1.
         23    2    1    2    0    0 -0.36161365228E+02  0.31154726989E+02  0.79352075332E+02  0.15555858714E+03  0.12499384314E+03 0.  0.
          5    1    3    3  502    0  0.47204487378E+01 -0.45904878767E+02  0.29607459187E+02  0.55029375523E+02  0.47000000000E+01 0.  1.
         -5    1    3    3    0  502 -0.40881813966E+02  0.77059605756E+02  0.49744616145E+02  0.10052921161E+03  0.47000000000E+01 0.  1.
        -11    1    1    2    0    0  0.98172572072E+01 -0.34622781012E+02  0.45558149751E+01  0.36274935619E+02  0.00000000000E+00 0. -1.
         11    1    1    2    0    0  0.26344108021E+02  0.34680540237E+01  0.12898792559E+03  0.13169633394E+03  0.00000000000E+00 0.  1.
<mgrwt>
<rscale>  0 0.12498630E+03</rscale>
<asrwt>0</asrwt>
<pdfrwt beam="2">  1        2 0.85103110E-02 0.13379732E+03</pdfrwt>
<pdfrwt beam="1">  1       -2 0.41263512E-01 0.13379732E+03</pdfrwt>
<totfact> 0.41985387E+03</totfact>
</mgrwt>
</event>
<event>
 7    1  0.5206756E-006  0.1293708E+03  0.7546771E-02  0.1242328E+00
         -2   -1    0    0    0  501 -0.00000000000E+00  0.00000000000E+00  0.11594775345E+03  0.11594775345E+03  0.00000000000E+00 0.  1.
          2   -1    0    0  501    0  0.00000000000E+00 -0.00000000000E+00 -0.11077752169E+03  0.11077752169E+03  0.00000000000E+00 0. -1.
         23    2    1    2    0    0  0.30601608300E+02 -0.13259792110E+02  0.47184243149E+01  0.12945676904E+03  0.12499804400E+03 0.  0.
          5    1    3    3  502    0 -0.44736326889E+01  0.32927558015E+02 -0.42760260720E+02  0.54357771875E+02  0.47000000000E+01 0. -1.
         -5    1    3    3    0  502  0.35075240989E+02 -0.46187350126E+02  0.47478685035E+02  0.75098997162E+02  0.47000000000E+01 0. -1.
        -11    1    1    2    0    0  0.11390587406E+02  0.13206827734E+02 -0.37061803777E+02  0.40960262200E+02  0.00000000000E+00 0. -1.
         11    1    1    2    0    0 -0.41992195706E+02  0.52964376189E-01  0.37513611217E+02  0.56308243908E+02  0.00000000000E+00 0.  1.
<mgrwt>
<rscale>  0 0.12046724E+03</rscale>
<asrwt>0</asrwt>
<pdfrwt beam="2">  1        2 0.17042696E-01 0.12937075E+03</pdfrwt>
<pdfrwt beam="1">  1       -2 0.17838116E-01 0.12937075E+03</pdfrwt>
<totfact> 0.80524972E+03</totfact>
</mgrwt>
</event>
<event>
 7    1  0.5206756E-006  0.1287947E+03  0.7546771E-02  0.1242252E+00
         -2   -1    0    0    0  501 -0.00000000000E+00  0.00000000000E+00  0.68785786437E+02  0.68785786437E+02  0.00000000000E+00 0.  1.
          2   -1    0    0  501    0  0.00000000000E+00 -0.00000000000E+00 -0.18821600260E+03  0.18821600260E+03  0.00000000000E+00 0. -1.
         23    2    1    2    0    0  0.31024320977E+02 -0.14446911018E+01 -0.65216917078E+02  0.14436521888E+03  0.12499389795E+03 0.  0.
          5    1    3    3  502    0  0.24155895149E+02 -0.47288474139E+02 -0.79422909164E+02  0.95654563702E+02  0.47000000000E+01 0.  1.
         -5    1    3    3    0  502  0.68684258281E+01  0.45843783038E+02  0.14205992086E+02  0.48710655176E+02  0.47000000000E+01 0.  1.
        -11    1    1    2    0    0 -0.47854388409E+02  0.32039453657E+02 -0.13785632857E+02  0.59216659429E+02  0.00000000000E+00 0.  1.
         11    1    1    2    0    0  0.16830067432E+02 -0.30594762555E+02 -0.40427666225E+02  0.53419910726E+02  0.00000000000E+00 0. -1.
<mgrwt>
<rscale>  0 0.12051398E+03</rscale>
<asrwt>0</asrwt>
<pdfrwt beam="2">  1        2 0.28956308E-01 0.12879468E+03</pdfrwt>
<pdfrwt beam="1">  1       -2 0.10582429E-01 0.12879468E+03</pdfrwt>
<totfact> 0.10367762E+04</totfact>
</mgrwt>
</event>
<event>
 7    1  0.5206756E-006  0.1396018E+03  0.7546771E-02  0.1225711E+00
         -1   -1    0    0    0  501 -0.00000000000E+00  0.00000000000E+00  0.97941901415E+02  0.97941901415E+02  0.00000000000E+00 0.  1.
          1   -1    0    0  501    0  0.00000000000E+00 -0.00000000000E+00 -0.15974792900E+03  0.15974792900E+03  0.00000000000E+00 0. -1.
         23    2    1    2    0    0  0.14283157912E+02  0.60488532686E+02 -0.49622888105E+02  0.14815898834E+03  0.12500313443E+03 0.  0.
          5    1    3    3  502    0  0.12919469318E+02  0.99349034751E+02 -0.38632040426E+02  0.10747868598E+03  0.47000000000E+01 0. -1.
         -5    1    3    3    0  502  0.13636885934E+01 -0.38860502065E+02 -0.10990847679E+02  0.40680302359E+02  0.47000000000E+01 0. -1.
        -11    1    1    2    0    0  0.31659571978E+01  0.13429868990E+02  0.22217437731E+02  0.26153378470E+02  0.00000000000E+00 0.  1.
         11    1    1    2    0    0 -0.17449115110E+02 -0.73918401676E+02 -0.34400577212E+02  0.83377463604E+02  0.00000000000E+00 0. -1.
<mgrwt>
<rscale>  0 0.13118267E+03</rscale>
<asrwt>0</asrwt>
<pdfrwt beam="2">  1        1 0.24576604E-01 0.13960177E+03</pdfrwt>
<pdfrwt beam="1">  1       -1 0.15067985E-01 0.13960177E+03</pdfrwt>
<totfact> 0.59510319E+03</totfact>
</mgrwt>
</event>
<event>
 7    1  0.5206756E-006  0.1372900E+03  0.7546771E-02  0.1228497E+00
         -1   -1    0    0    0  501 -0.00000000000E+00  0.00000000000E+00  0.36517856420E+02  0.36517856420E+02  0.00000000000E+00 0.  1.
          1   -1    0    0  501    0  0.00000000000E+00 -0.00000000000E+00 -0.42205657211E+03  0.42205657211E+03  0.00000000000E+00 0. -1.
         23    2    1    2    0    0 -0.17943304398E+02  0.53841088618E+02 -0.25044280425E+03  0.28560489435E+03  0.12501092945E+03 0.  0.
          5    1    3    3  502    0  0.49225006384E+02  0.36727417235E+02 -0.75934461261E+02  0.97775952244E+02  0.47000000000E+01 0. -1.
         -5    1    3    3    0  502 -0.67168310781E+02  0.17113671383E+02 -0.17450834299E+03  0.18782894211E+03  0.47000000000E+01 0. -1.
        -11    1    1    2    0    0  0.28535640266E+02 -0.61319460048E+02 -0.14271521567E+03  0.15793033821E+03  0.00000000000E+00 0. -1.
         11    1    1    2    0    0 -0.10592335868E+02  0.74783714299E+01  0.76193042233E+01  0.15039195964E+02  0.00000000000E+00 0.  1.
<mgrwt>
<rscale>  0 0.12930097E+03</rscale>
<asrwt>0</asrwt>
<pdfrwt beam="2">  1        1 0.64931779E-01 0.13729005E+03</pdfrwt>
<pdfrwt beam="1">  1       -1 0.56181319E-02 0.13729005E+03</pdfrwt>
<totfact> 0.79606872E+03</totfact>
</mgrwt>
</event>
<event>
 7    1  0.5206756E-006  0.1736070E+03  0.7546771E-02  0.1180067E+00
          2   -1    0    0  501    0  0.00000000000E+00  0.00000000000E+00  0.76727496487E+03  0.76727496487E+03  0.00000000000E+00 0. -1.
         -2   -1    0    0    0  501 -0.00000000000E+00 -0.00000000000E+00 -0.34757292203E+02  0.34757292203E+02  0.00000000000E+00 0.  1.
         23    2    1    2    0    0  0.59267929405E+02  0.10489713707E+03  0.42427587282E+03  0.45842055762E+03  0.12499317812E+03 0.  0.
          5    1    3    3  502    0  0.55994729477E+01  0.16130272167E+02  0.28055790413E+03  0.28111628794E+03  0.47000000000E+01 0. -1.
         -5    1    3    3    0  502  0.53668456457E+02  0.88766864904E+02  0.14371796869E+03  0.17730426968E+03  0.47000000000E+01 0. -1.
        -11    1    1    2    0    0 -0.14717680221E+02  0.13263921568E+02  0.83533849726E+02  0.85851300378E+02  0.00000000000E+00 0.  1.
         11    1    1    2    0    0 -0.44550249184E+02 -0.11816105864E+03  0.22470795012E+03  0.25776039907E+03  0.00000000000E+00 0. -1.
<mgrwt>
<rscale>  0 0.16788945E+03</rscale>
<asrwt>0</asrwt>
<pdfrwt beam="1">  1        2 0.11804229E+00 0.17360700E+03</pdfrwt>
<pdfrwt beam="2">  1       -2 0.53472763E-02 0.17360700E+03</pdfrwt>
<totfact> 0.64659354E+03</totfact>
</mgrwt>
</event>
<event>
 7    1  0.5206756E-006  0.1512152E+03  0.7546771E-02  0.1209109E+00
         -1   -1    0    0    0  501 -0.00000000000E+00  0.00000000000E+00  0.84300072035E+02  0.84300072035E+02  0.00000000000E+00 0.  1.
          1   -1    0    0  501    0  0.00000000000E+00 -0.00000000000E+00 -0.22334668776E+03  0.22334668776E+03  0.00000000000E+00 0. -1.
         23    2    1    2    0    0  0.87652869219E+01 -0.84633884120E+02 -0.93787669781E+02  0.17793866583E+03  0.12500526868E+03 0.  0.
          5    1    3    3  502    0 -0.47444055198E+02 -0.10685610571E+02 -0.63509742648E+02  0.80129258440E+02  0.47000000000E+01 0. -1.
         -5    1    3    3    0  502  0.56209342120E+02 -0.73948273550E+02 -0.30277927133E+02  0.97809407390E+02  0.47000000000E+01 0. -1.
        -11    1    1    2    0    0  0.13599330619E+01  0.58484431156E+02  0.17423089304E+02  0.61039676822E+02  0.00000000000E+00 0.  1.
         11    1    1    2    0    0 -0.10125219984E+02  0.26149452964E+02 -0.62682035252E+02  0.68668417146E+02  0.00000000000E+00 0. -1.
<mgrwt>
<rscale>  0 0.14318270E+03</rscale>
<asrwt>0</asrwt>
<pdfrwt beam="2">  1        1 0.34361028E-01 0.15121522E+03</pdfrwt>
<pdfrwt beam="1">  1       -1 0.12969242E-01 0.15121522E+03</pdfrwt>
<totfact> 0.49739033E+03</totfact>
</mgrwt>
</event>
<event>
 7    1  0.5206756E-006  0.1466119E+03  0.7546771E-02  0.1214531E+00
          2   -1    0    0  501    0  0.00000000000E+00  0.00000000000E+00  0.13057616813E+03  0.13057616813E+03  0.00000000000E+00 0. -1.
         -2   -1    0    0    0  501 -0.00000000000E+00 -0.00000000000E+00 -0.14548340684E+03  0.14548340684E+03  0.00000000000E+00 0.  1.
         23    2    1    2    0    0  0.76042535512E+02  0.93994282663E+01  0.28857967491E+02  0.14942497349E+03  0.12499689579E+03 0.  0.
          5    1    3    3  502    0 -0.39947411456E+00  0.47438547790E+02  0.41221699812E+02  0.63022963524E+02  0.47000000000E+01 0.  1.
         -5    1    3    3    0  502  0.76442009627E+02 -0.38039119524E+02 -0.12363732321E+02  0.86402009970E+02  0.47000000000E+01 0.  1.
        -11    1    1    2    0    0 -0.89880914225E+02 -0.17831004236E+02 -0.55041223121E+02  0.10689274857E+03  0.00000000000E+00 0.  1.
         11    1    1    2    0    0  0.13838378712E+02  0.84315759696E+01  0.11276016915E+02  0.19741852907E+02  0.00000000000E+00 0. -1.
<mgrwt>
<rscale>  0 0.13911045E+03</rscale>
<asrwt>0</asrwt>
<pdfrwt beam="1">  1        2 0.20088641E-01 0.14661187E+03</pdfrwt>
<pdfrwt beam="2">  1       -2 0.22382063E-01 0.14661187E+03</pdfrwt>
<totfact> 0.45844804E+03</totfact>
</mgrwt>
</event>
<event>
 7    1  0.5206756E-006  0.1757859E+03  0.7546771E-02  0.1177393E+00
          2   -1    0    0  501    0  0.00000000000E+00  0.00000000000E+00  0.17237095173E+04  0.17237095173E+04  0.00000000000E+00 0. -1.
         -2   -1    0    0    0  501 -0.00000000000E+00 -0.00000000000E+00 -0.20486651178E+02  0.20486651178E+02  0.00000000000E+00 0.  1.
         23    2    1    2    0    0  0.12166459391E+03 -0.21685727525E+02  0.13043200041E+04  0.13161122128E+04  0.12501255744E+03 0.  0.
          5    1    3    3  502    0  0.45574432768E+02  0.24435119621E+02  0.92547118785E+03  0.92692670343E+03  0.47000000000E+01 0.  1.
         -5    1    3    3    0  502  0.76090161141E+02 -0.46120847146E+02  0.37884881622E+03  0.38918550938E+03  0.47000000000E+01 0.  1.
        -11    1    1    2    0    0 -0.53459853271E+02 -0.37289014611E+02  0.16720352882E+03  0.17945876009E+03  0.00000000000E+00 0. -1.
         11    1    1    2    0    0 -0.68204740639E+02  0.58974742136E+02  0.23169933328E+03  0.24862519562E+03  0.00000000000E+00 0.  1.
<mgrwt>
<rscale>  0 0.17043667E+03</rscale>
<asrwt>0</asrwt>
<pdfrwt beam="1">  1        2 0.26518597E+00 0.17578590E+03</pdfrwt>
<pdfrwt beam="2">  1       -2 0.31517938E-02 0.17578590E+03</pdfrwt>
<totfact> 0.40679542E+03</totfact>
</mgrwt>
</event>
<event>
 7    1  0.5206756E-006  0.1612993E+03  0.7546771E-02  0.1194862E+00
         -4   -1    0    0    0  501 -0.00000000000E+00  0.00000000000E+00  0.35389882832E+03  0.35389882832E+03  0.00000000000E+00 0.  1.
          4   -1    0    0  501    0  0.00000000000E+00 -0.00000000000E+00 -0.70426795749E+02  0.70426795749E+02  0.00000000000E+00 0. -1.
         23    2    1    2    0    0  0.48992699753E+02  0.89397104184E+02  0.22290664823E+03  0.27514514777E+03  0.12500140658E+03 0.  0.
          5    1    3    3  502    0  0.81615830236E+02  0.89786597880E+02  0.20326895109E+03  0.23677654736E+03  0.47000000000E+01 0.  1.
         -5    1    3    3    0  502 -0.32623130483E+02 -0.38949369568E+00  0.19637697144E+02  0.38368600405E+02  0.47000000000E+01 0.  1.
        -11    1    1    2    0    0  0.17950736879E+02 -0.28758699624E+02 -0.91118434887E+01  0.35104379362E+02  0.00000000000E+00 0. -1.
         11    1    1    2    0    0 -0.66943436632E+02 -0.60638404560E+02  0.69677227825E+02  0.11407609694E+03  0.00000000000E+00 0.  1.
<mgrwt>
<rscale>  0 0.15465878E+03</rscale>
<asrwt>0</asrwt>
<pdfrwt beam="2">  1        4 0.10834892E-01 0.16129934E+03</pdfrwt>
<pdfrwt beam="1">  1       -4 0.54445973E-01 0.16129934E+03</pdfrwt>
<totfact> 0.36961297E+02</totfact>
</mgrwt>
</event>
<event>
 7    1  0.5206756E-006  0.1455726E+03  0.7546771E-02  0.1216118E+00
         -2   -1    0    0    0  501 -0.00000000000E+00  0.00000000000E+00  0.24616966725E+02  0.24616966725E+02  0.00000000000E+00 0.  1.
          2   -1    0    0  501    0  0.00000000000E+00 -0.00000000000E+00 -0.70239718260E+03  0.70239718260E+03  0.00000000000E+00 0. -1.
         23    2    1    2    0    0  0.23484843109E+02  0.70867568197E+02 -0.36954671810E+03  0.39718528327E+03  0.12497048575E+03 0.  0.
          5    1    3    3  502    0  0.11966784422E+02  0.10560766738E+03 -0.30238542952E+03  0.32055455281E+03  0.47000000000E+01 0. -1.
         -5    1    3    3    0  502  0.11518058687E+02 -0.34740099186E+02 -0.67161288576E+02  0.76630730458E+02  0.47000000000E+01 0. -1.
        -11    1    1    2    0    0  0.22690991750E+02 -0.52067017179E+02 -0.23116279426E+03  0.23803800713E+03  0.00000000000E+00 0. -1.
         11    1    1    2    0    0 -0.46175834859E+02 -0.18800551018E+02 -0.77070703515E+02  0.91790858934E+02  0.00000000000E+00 0.  1.
<mgrwt>
<rscale>  0 0.13794712E+03</rscale>
<asrwt>0</asrwt>
<pdfrwt beam="2">  1        2 0.10806110E+00 0.14557257E+03</pdfrwt>
<pdfrwt beam="1">  1       -2 0.37872258E-02 0.14557257E+03</pdfrwt>
<totfact> 0.11958647E+04</totfact>
</mgrwt>
</event>
<event>
 7    1  0.5206756E-006  0.2590681E+03  0.7546771E-02  0.1109831E+00
          2   -1    0    0  501    0  0.00000000000E+00  0.00000000000E+00  0.74363384259E+03  0.74363384259E+03  0.00000000000E+00 0.  1.
         -2   -1    0    0    0  501 -0.00000000000E+00 -0.00000000000E+00 -0.88224635735E+02  0.88224635735E+02  0.00000000000E+00 0. -1.
         23    2    1    2    0    0 -0.22518737063E+03 -0.27927227865E+02  0.40875891136E+03  0.48394227130E+03  0.12500796931E+03 0.  0.
          5    1    3    3  502    0 -0.39765490013E+02 -0.55710040963E+02  0.14372693314E+03  0.15926212409E+03  0.47000000000E+01 0. -1.
         -5    1    3    3    0  502 -0.18542188062E+03  0.27782813099E+02  0.26503197822E+03  0.32468014721E+03  0.47000000000E+01 0. -1.
        -11    1    1    2    0    0  0.94813974749E+01  0.28114054794E+02  0.29778720726E+02  0.42036522015E+02  0.00000000000E+00 0.  1.
         11    1    1    2    0    0  0.21570597315E+03 -0.18682692965E+00  0.21687157478E+03  0.30587968501E+03  0.00000000000E+00 0. -1.
<mgrwt>
<rscale>  0 0.25557502E+03</rscale>
<asrwt>0</asrwt>
<pdfrwt beam="1">  1        2 0.11440520E+00 0.25906809E+03</pdfrwt>
<pdfrwt beam="2">  1       -2 0.13573021E-01 0.25906809E+03</pdfrwt>
<totfact> 0.15715775E+03</totfact>
</mgrwt>
</event>
<event>
 6    1  0.5206756E-006  0.2021166E+03  0.7546771E-02  0.1174580E+00
          2   -1    0    0  501    0  0.00000000000E+00  0.00000000000E+00  0.63060635065E+03  0.63060635065E+03  0.00000000000E+00 0. -1.
         -2   -1    0    0    0  501 -0.00000000000E+00 -0.00000000000E+00 -0.39223496376E+02  0.39223496376E+02  0.00000000000E+00 0.  1.
          5    1    1    2  502    0 -0.97264417611E+02  0.10360368875E+03  0.21790962117E+03  0.26019374369E+03  0.47000000000E+01 0. -1.
         -5    1    1    2    0  502  0.25478242171E+02 -0.23373457931E+02  0.21205907809E+03  0.21491068368E+03  0.47000000000E+01 0.  1.
        -11    1    1    2    0    0  0.56326471951E+02 -0.71754432540E+02  0.13268043209E+03  0.16101387235E+03  0.00000000000E+00 0.  1.
         11    1    1    2    0    0  0.15459703489E+02 -0.84757982776E+01  0.28733722925E+02  0.33711547303E+02  0.00000000000E+00 0. -1.
<mgrwt>
<rscale>  0 0.17317212E+03</rscale>
<asrwt>0</asrwt>
<pdfrwt beam="1">  1        2 0.97016354E-01 0.20211664E+03</pdfrwt>
<pdfrwt beam="2">  1       -2 0.60343845E-02 0.20211664E+03</pdfrwt>
<totfact> 0.68558551E+03</totfact>
</mgrwt>
</event>
<event>
 7    1  0.5206756E-006  0.1292651E+03  0.7546771E-02  0.1243124E+00
         -2   -1    0    0    0  501 -0.00000000000E+00  0.00000000000E+00  0.10045728699E+03  0.10045728699E+03  0.00000000000E+00 0.  1.
          2   -1    0    0  501    0  0.00000000000E+00 -0.00000000000E+00 -0.24669476854E+03  0.24669476854E+03  0.00000000000E+00 0. -1.
         23    2    1    2    0    0  0.25883387090E+02  0.20290499461E+02 -0.19926808516E+03  0.23752313807E+03  0.12501126853E+03 0.  0.
          5    1    3    3  502    0 -0.44112929730E+02  0.28908703243E+02 -0.12091298676E+03  0.13199887901E+03  0.47000000000E+01 0.  1.
         -5    1    3    3    0  502  0.69996316820E+02 -0.86182037823E+01 -0.78355098399E+02  0.10552425906E+03  0.47000000000E+01 0.  1.
        -11    1    1    2    0    0  0.19392526997E+02 -0.40475808078E+02  0.15609585669E+02  0.47518631164E+02  0.00000000000E+00 0. -1.
         11    1    1    2    0    0 -0.45275914087E+02  0.20185308617E+02  0.37421017939E+02  0.62110286297E+02  0.00000000000E+00 0.  1.
<mgrwt>
<rscale>  0 0.11998346E+03</rscale>
<asrwt>0</asrwt>
<pdfrwt beam="2">  1        2 0.37953041E-01 0.12926512E+03</pdfrwt>
<pdfrwt beam="1">  1       -2 0.15454967E-01 0.12926512E+03</pdfrwt>
<totfact> 0.42223546E+03</totfact>
</mgrwt>
</event>
<event>
 7    1  0.5206756E-006  0.2010886E+03  0.7546771E-02  0.1153281E+00
          1   -1    0    0  501    0  0.00000000000E+00  0.00000000000E+00  0.39089973597E+03  0.39089973597E+03  0.00000000000E+00 0. -1.
         -1   -1    0    0    0  501 -0.00000000000E+00 -0.00000000000E+00 -0.97303138356E+02  0.97303138356E+02  0.00000000000E+00 0.  1.
         23    2    1    2    0    0  0.14094511904E+03 -0.70325538654E+02  0.20332768677E+03  0.28596985390E+03  0.12500160464E+03 0.  0.
          5    1    3    3  502    0  0.29622018194E+02 -0.59999756227E+02  0.17952598443E+02  0.69439329634E+02  0.47000000000E+01 0.  1.
         -5    1    3    3    0  502  0.11132310084E+03 -0.10325782427E+02  0.18537508833E+03  0.21653052426E+03  0.47000000000E+01 0.  1.
        -11    1    1    2    0    0 -0.29458948955E+02  0.24119544346E+02 -0.16126172338E+02  0.41347739083E+02  0.00000000000E+00 0.  1.
         11    1    1    2    0    0 -0.11148617008E+03  0.46205994308E+02  0.10639508318E+03  0.16088528134E+03  0.00000000000E+00 0. -1.
<mgrwt>
<rscale>  0 0.19585807E+03</rscale>
<asrwt>0</asrwt>
<pdfrwt beam="1">  1        1 0.60138420E-01 0.20108856E+03</pdfrwt>
<pdfrwt beam="2">  1       -1 0.14969714E-01 0.20108856E+03</pdfrwt>
<totfact> 0.19948500E+03</totfact>
</mgrwt>
</event>
<event>
 7    1  0.5206756E-006  0.1282744E+03  0.7546771E-02  0.1244643E+00
          1   -1    0    0  501    0  0.00000000000E+00  0.00000000000E+00  0.17065154267E+02  0.17065154267E+02  0.00000000000E+00 0. -1.
         -1   -1    0    0    0  501 -0.00000000000E+00 -0.00000000000E+00 -0.79407045863E+03  0.79407045863E+03  0.00000000000E+00 0.  1.
         23    2    1    2    0    0  0.28444249186E+02 -0.44564563660E+01 -0.32901384570E+03  0.35313513062E+03  0.12500149799E+03 0.  0.
          5    1    3    3  502    0  0.43201280083E+02 -0.36926742942E+02 -0.30403955022E+03  0.30934135360E+03  0.47000000000E+01 0.  1.
         -5    1    3    3    0  502 -0.14757030897E+02  0.32470286576E+02 -0.24974295478E+02  0.43793777022E+02  0.47000000000E+01 0.  1.
        -11    1    1    2    0    0  0.32125061949E+02 -0.52262435320E+01 -0.12072545949E+03  0.12503587404E+03  0.00000000000E+00 0. -1.
         11    1    1    2    0    0 -0.60569311135E+02  0.96826998980E+01 -0.32726599917E+03  0.33296460824E+03  0.00000000000E+00 0.  1.
<mgrwt>
<rscale>  0 0.11906781E+03</rscale>
<asrwt>0</asrwt>
<pdfrwt beam="1">  1        1 0.26254080E-02 0.12827435E+03</pdfrwt>
<pdfrwt beam="2">  1       -1 0.12216470E+00 0.12827435E+03</pdfrwt>
<totfact> 0.25105389E+03</totfact>
</mgrwt>
</event>
<event>
 7    1  0.5206756E-006  0.1311558E+03  0.7546771E-02  0.1235587E+00
          2   -1    0    0  501    0  0.00000000000E+00  0.00000000000E+00  0.26278086200E+02  0.26278086200E+02  0.00000000000E+00 0. -1.
         -2   -1    0    0    0  501 -0.00000000000E+00 -0.00000000000E+00 -0.53992867273E+03  0.53992867273E+03  0.00000000000E+00 0.  1.
         23    2    1    2    0    0  0.55733242059E+01 -0.39320811848E+02 -0.28349860000E+03  0.31236723203E+03  0.12499857302E+03 0.  0.
          5    1    3    3  502    0 -0.27441729226E+02  0.34457050579E+02 -0.14834356131E+03  0.15481679179E+03  0.47000000000E+01 0. -1.
         -5    1    3    3    0  502  0.33015053432E+02 -0.73777862428E+02 -0.13515503869E+03  0.15755044024E+03  0.47000000000E+01 0. -1.
        -11    1    1    2    0    0  0.34851515608E+02  0.28182386843E+02 -0.43226798433E+02  0.62269022564E+02  0.00000000000E+00 0. -1.
         11    1    1    2    0    0 -0.40424839813E+02  0.11138425005E+02 -0.18692518810E+03  0.19157050433E+03  0.00000000000E+00 0.  1.
<mgrwt>
<rscale>  0 0.12466950E+03</rscale>
<asrwt>0</asrwt>
<pdfrwt beam="1">  1        2 0.40427828E-02 0.13115575E+03</pdfrwt>
<pdfrwt beam="2">  1       -2 0.83065944E-01 0.13115575E+03</pdfrwt>
<totfact> 0.26115700E+03</totfact>
</mgrwt>
</event>
<event>
 7    1  0.5206756E-006  0.1265898E+03  0.7546771E-02  0.1246840E+00
         -1   -1    0    0    0  501 -0.00000000000E+00  0.00000000000E+00  0.12861050767E+02  0.12861050767E+02  0.00000000000E+00 0.  1.
          1   -1    0    0  501    0  0.00000000000E+00 -0.00000000000E+00 -0.11424670512E+04  0.11424670512E+04  0.00000000000E+00 0. -1.
         23    2    1    2    0    0 -0.12377602225E+02 -0.15712566435E+02 -0.86583840435E+03  0.87504349339E+03  0.12499953242E+03 0.  0.
          5    1    3    3  502    0 -0.22799321729E+02 -0.39847637922E+02 -0.82474162915E+03  0.82603177189E+03  0.47000000000E+01 0. -1.
         -5    1    3    3    0  502  0.10421719503E+02  0.24135071487E+02 -0.41096775204E+02  0.49011721508E+02  0.47000000000E+01 0. -1.
        -11    1    1    2    0    0  0.32256460121E+02  0.39058214850E+02 -0.22614809724E+03  0.23175199082E+03  0.00000000000E+00 0. -1.
         11    1    1    2    0    0 -0.19878857895E+02 -0.23345648415E+02 -0.37619498806E+02  0.48532617707E+02  0.00000000000E+00 0.  1.
<mgrwt>
<rscale>  0 0.11775938E+03</rscale>
<asrwt>0</asrwt>
<pdfrwt beam="2">  1        1 0.17576416E+00 0.12658978E+03</pdfrwt>
<pdfrwt beam="1">  1       -1 0.19786233E-02 0.12658978E+03</pdfrwt>
<totfact> 0.84648271E+03</totfact>
</mgrwt>
</event>
<event>
 7    1  0.5206756E-006  0.1292896E+03  0.7546771E-02  0.1242372E+00
         -1   -1    0    0    0  501 -0.00000000000E+00  0.00000000000E+00  0.12194746627E+02  0.12194746627E+02  0.00000000000E+00 0.  1.
          1   -1    0    0  501    0  0.00000000000E+00 -0.00000000000E+00 -0.12777996097E+04  0.12777996097E+04  0.00000000000E+00 0. -1.
         23    2    1    2    0    0  0.19543781903E+02 -0.26647215710E+02 -0.97448418149E+03  0.98302351182E+03  0.12499508506E+03 0.  0.
          5    1    3    3  502    0 -0.31309566741E+01  0.35453907912E+02 -0.10404539410E+03  0.11006505581E+03  0.47000000000E+01 0. -1.
         -5    1    3    3    0  502  0.22674738577E+02 -0.62101123623E+02 -0.87043878739E+03  0.87295845601E+03  0.47000000000E+01 0. -1.
        -11    1    1    2    0    0  0.23386385041E+02  0.39601836470E+02 -0.20242520167E+03  0.20758417745E+03  0.00000000000E+00 0.  1.
         11    1    1    2    0    0 -0.42930166944E+02 -0.12954620760E+02 -0.88695479927E+02  0.99386667075E+02  0.00000000000E+00 0. -1.
<mgrwt>
<rscale>  0 0.12044060E+03</rscale>
<asrwt>0</asrwt>
<pdfrwt beam="2">  1        1 0.19658470E+00 0.12928962E+03</pdfrwt>
<pdfrwt beam="1">  1       -1 0.18761134E-02 0.12928962E+03</pdfrwt>
<totfact> 0.73987105E+03</totfact>
</mgrwt>
</event>
<event>
 7    1  0.5206756E-006  0.2623906E+03  0.7546771E-02  0.1106624E+00
          2   -1    0    0  501    0  0.00000000000E+00  0.00000000000E+00  0.25102985908E+04  0.25102985908E+04  0.00000000000E+00 0. -1.
         -2   -1    0    0    0  501 -0.00000000000E+00 -0.00000000000E+00 -0.42354479334E+02  0.42354479334E+02  0.00000000000E+00 0.  1.
         23    2    1    2    0    0 -0.21767824612E+03  0.60212486450E+02  0.19983467290E+04  0.20147213330E+04  0.12125608507E+03 0.  0.
          5    1    3    3  502    0 -0.17636287343E+03  0.20271274599E+02  0.10744221766E+04  0.10889994910E+04  0.47000000000E+01 0. -1.
         -5    1    3    3    0  502 -0.41315372689E+02  0.39941211852E+02  0.92392455232E+03  0.92572184202E+03  0.47000000000E+01 0.  1.
        -11    1    1    2    0    0  0.12798228709E+03 -0.34697766626E+02  0.12975044511E+03  0.18552244830E+03  0.00000000000E+00 0.  1.
         11    1    1    2    0    0  0.89695959032E+02 -0.25514719825E+02  0.33984693736E+03  0.35240928879E+03  0.00000000000E+00 0. -1.
<mgrwt>
<rscale>  0 0.26086582E+03</rscale>
<asrwt>0</asrwt>
<pdfrwt beam="1">  1        2 0.38619967E+00 0.26239065E+03</pdfrwt>
<pdfrwt beam="2">  1       -2 0.65160757E-02 0.26239065E+03</pdfrwt>
<totfact> 0.51693627E+02</totfact>
</mgrwt>
</event>
<event>
 7    1  0.5206756E-006  0.1575326E+03  0.7546771E-02  0.1199141E+00
         -1   -1    0    0    0  501 -0.00000000000E+00  0.00000000000E+00  0.35731695288E+02  0.35731695288E+02  0.00000000000E+00 0.  1.
          1   -1    0    0  501    0  0.00000000000E+00 -0.00000000000E+00 -0.60089445344E+03  0.60089445344E+03  0.00000000000E+00 0. -1.
         23    2    1    2    0    0 -0.25325115516E+02  0.92466081369E+02 -0.34482595334E+03  0.37910612206E+03  0.12500070403E+03 0.  0.
          5    1    3    3  502    0 -0.62287928770E+02  0.22342140580E+02 -0.87495895720E+02  0.10980245482E+03  0.47000000000E+01 0.  1.
         -5    1    3    3    0  502  0.36962813254E+02  0.70123940789E+02 -0.25733005762E+03  0.26930366724E+03  0.47000000000E+01 0.  1.
        -11    1    1    2    0    0  0.29974835288E+02 -0.10846092705E+03 -0.16490384731E+03  0.19963852911E+03  0.00000000000E+00 0.  1.
         11    1    1    2    0    0 -0.46497197714E+01  0.15994845681E+02 -0.55432957507E+02  0.57881497564E+02  0.00000000000E+00 0. -1.
<mgrwt>
<rscale>  0 0.15108919E+03</rscale>
<asrwt>0</asrwt>
<pdfrwt beam="2">  1        1 0.92445298E-01 0.15753258E+03</pdfrwt>
<pdfrwt beam="1">  1       -1 0.54971840E-02 0.15753258E+03</pdfrwt>
<totfact> 0.52116551E+03</totfact>
</mgrwt>
</event>
<event>
 7    1  0.5206756E-006  0.2603146E+03  0.7546771E-02  0.1109422E+00
         -2   -1    0    0    0  501 -0.00000000000E+00  0.00000000000E+00  0.12095732662E+03  0.12095732662E+03  0.00000000000E+00 0.  1.
          2   -1    0    0  501    0  0.00000000000E+00 -0.00000000000E+00 -0.57314670160E+03  0.57314670160E+03  0.00000000000E+00 0. -1.
         23    2    1    2    0    0 -0.18380669912E+02  0.22769301645E+03 -0.33158701547E+03  0.42156098580E+03  0.12482690878E+03 0.  0.
          5    1    3    3  502    0  0.20435239135E+02 -0.17814449099E+01 -0.61506169760E+02  0.65006703216E+02  0.47000000000E+01 0. -1.
         -5    1    3    3    0  502 -0.38815909047E+02  0.22947446136E+03 -0.27008084571E+03  0.35655428258E+03  0.47000000000E+01 0. -1.
        -11    1    1    2    0    0 -0.18717036584E+02 -0.66429854886E+01 -0.14287122277E+02  0.24465865561E+02  0.00000000000E+00 0.  1.
         11    1    1    2    0    0  0.37097706496E+02 -0.22105003096E+03 -0.10631523724E+03  0.24807717687E+03  0.00000000000E+00 0. -1.
<mgrwt>
<rscale>  0 0.25624321E+03</rscale>
<asrwt>0</asrwt>
<pdfrwt beam="2">  1        2 0.88176416E-01 0.26031465E+03</pdfrwt>
<pdfrwt beam="1">  1       -2 0.18608819E-01 0.26031465E+03</pdfrwt>
<totfact> 0.12668701E+03</totfact>
</mgrwt>
</event>
<event>
 7    1  0.5206756E-006  0.1301681E+03  0.7546771E-02  0.1241033E+00
         -1   -1    0    0    0  501 -0.00000000000E+00  0.00000000000E+00  0.15627844186E+02  0.15627844186E+02  0.00000000000E+00 0.  1.
          1   -1    0    0  501    0  0.00000000000E+00 -0.00000000000E+00 -0.83354262356E+03  0.83354262356E+03  0.00000000000E+00 0. -1.
         23    2    1    2    0    0 -0.39322633376E+00  0.36331031558E+02 -0.47694286563E+03  0.49438673528E+03  0.12499459373E+03 0.  0.
          5    1    3    3  502    0 -0.97921181078E+01  0.66761599155E+02 -0.13564578589E+03  0.15157462165E+03  0.47000000000E+01 0.  1.
         -5    1    3    3    0  502  0.93988917741E+01 -0.30430567597E+02 -0.34129707974E+03  0.34281211362E+03  0.47000000000E+01 0.  1.
        -11    1    1    2    0    0 -0.35386738697E+02  0.12447698145E+02 -0.13419780325E+03  0.13934208575E+03  0.00000000000E+00 0.  1.
         11    1    1    2    0    0  0.35779965031E+02 -0.48778729703E+02 -0.20677411050E+03  0.21544164672E+03  0.00000000000E+00 0. -1.
<mgrwt>
<rscale>  0 0.12125984E+03</rscale>
<asrwt>0</asrwt>
<pdfrwt beam="2">  1        1 0.12823733E+00 0.13016815E+03</pdfrwt>
<pdfrwt beam="1">  1       -1 0.24042836E-02 0.13016815E+03</pdfrwt>
<totfact> 0.10818558E+04</totfact>
</mgrwt>
</event>
<event>
 7    1  0.5206756E-006  0.1844333E+03  0.7546771E-02  0.1168388E+00
          1   -1    0    0  501    0  0.00000000000E+00  0.00000000000E+00  0.12306977793E+03  0.12306977793E+03  0.00000000000E+00 0. -1.
         -1   -1    0    0    0  501 -0.00000000000E+00 -0.00000000000E+00 -0.28849753002E+03  0.28849753002E+03  0.00000000000E+00 0.  1.
         23    2    1    2    0    0 -0.24771901437E+02 -0.13332912805E+03 -0.98198874581E+01  0.18469457076E+03  0.12500140316E+03 0.  0.
          5    1    3    3  502    0  0.32660828115E+02 -0.59871531322E+02  0.39656684242E+02  0.79032098296E+02  0.47000000000E+01 0. -1.
         -5    1    3    3    0  502 -0.57432729552E+02 -0.73457596725E+02 -0.49476571700E+02  0.10566247247E+03  0.47000000000E+01 0. -1.
        -11    1    1    2    0    0  0.34222060311E+02  0.37831525034E+02 -0.10866241968E+03  0.12004122270E+03  0.00000000000E+00 0. -1.
         11    1    1    2    0    0 -0.94501588737E+01  0.95497603014E+02 -0.46945444951E+02  0.10683151448E+03  0.00000000000E+00 0.  1.
<mgrwt>
<rscale>  0 0.17939700E+03</rscale>
<asrwt>0</asrwt>
<pdfrwt beam="1">  1        1 0.18933812E-01 0.18443333E+03</pdfrwt>
<pdfrwt beam="2">  1       -1 0.44384235E-01 0.18443333E+03</pdfrwt>
<totfact> 0.13896584E+03</totfact>
</mgrwt>
</event>
<event>
 7    1  0.5206756E-006  0.1526567E+03  0.7546771E-02  0.1206189E+00
          1   -1    0    0  501    0  0.00000000000E+00  0.00000000000E+00  0.53641203658E+03  0.53641203658E+03  0.00000000000E+00 0. -1.
         -1   -1    0    0    0  501 -0.00000000000E+00 -0.00000000000E+00 -0.36276738249E+02  0.36276738249E+02  0.00000000000E+00 0.  1.
         23    2    1    2    0    0 -0.44505373537E+02 -0.75523139811E+02  0.25609667181E+03  0.29814356179E+03  0.12497841895E+03 0.  0.
          5    1    3    3  502    0 -0.21116087701E+02 -0.20058294911E+02  0.23080438750E+03  0.23268214294E+03  0.47000000000E+01 0. -1.
         -5    1    3    3    0  502 -0.23389285836E+02 -0.55464844900E+02  0.25292284310E+02  0.65461418845E+02  0.47000000000E+01 0. -1.
        -11    1    1    2    0    0  0.22988839689E+02  0.57098004634E+02  0.23766939668E+03  0.24551051098E+03  0.00000000000E+00 0. -1.
         11    1    1    2    0    0  0.21516533848E+02  0.18425135177E+02  0.63692298422E+01  0.29034702063E+02  0.00000000000E+00 0.  1.
<mgrwt>
<rscale>  0 0.14544157E+03</rscale>
<asrwt>0</asrwt>
<pdfrwt beam="1">  1        1 0.82524923E-01 0.15265673E+03</pdfrwt>
<pdfrwt beam="2">  1       -1 0.55810370E-02 0.15265673E+03</pdfrwt>
<totfact> 0.59287945E+03</totfact>
</mgrwt>
</event>
<event>
 7    1  0.5206756E-006  0.1415938E+03  0.7546771E-02  0.1225932E+00
         -2   -1    0    0    0  501 -0.00000000000E+00  0.00000000000E+00  0.31269913709E+03  0.31269913709E+03  0.00000000000E+00 0.  1.
          2   -1    0    0  501    0  0.00000000000E+00 -0.00000000000E+00 -0.48205146466E+02  0.48205146466E+02  0.00000000000E+00 0. -1.
         23    2    1    2    0    0 -0.19286476280E+02 -0.63662087354E+02  0.15795729862E+03  0.21213044319E+03  0.12499594875E+03 0.  0.
          5    1    3    3  502    0 -0.53903423191E+02 -0.31744562625E+02  0.15200084608E+03  0.16443735432E+03  0.47000000000E+01 0.  1.
         -5    1    3    3    0  502  0.34616946912E+02 -0.31917524729E+02  0.59564525447E+01  0.47693088862E+02  0.47000000000E+01 0.  1.
        -11    1    1    2    0    0  0.29745841209E+02  0.34260326499E+02  0.10839916884E+03  0.11751155197E+03  0.00000000000E+00 0.  1.
         11    1    1    2    0    0 -0.10459364929E+02  0.29401760855E+02 -0.18624768414E+01  0.31262288401E+02  0.00000000000E+00 0. -1.
<mgrwt>
<rscale>  0 0.13103240E+03</rscale>
<asrwt>0</asrwt>
<pdfrwt beam="2">  1        2 0.74161766E-02 0.14159384E+03</pdfrwt>
<pdfrwt beam="1">  1       -2 0.48107558E-01 0.14159384E+03</pdfrwt>
<totfact> 0.37239581E+03</totfact>
</mgrwt>
</event>
<event>
 7    1  0.5206756E-006  0.1555447E+03  0.7546771E-02  0.1202554E+00
          1   -1    0    0  501    0  0.00000000000E+00  0.00000000000E+00  0.72747989606E+03  0.72747989606E+03  0.00000000000E+00 0. -1.
         -1   -1    0    0    0  501 -0.00000000000E+00 -0.00000000000E+00 -0.28399009709E+02  0.28399009709E+02  0.00000000000E+00 0.  1.
         23    2    1    2    0    0 -0.37451201440E+02 -0.84638031749E+02  0.43905437577E+03  0.46579277852E+03  0.12501191433E+03 0.  0.
          5    1    3    3  502    0 -0.40412937815E+02  0.23612393289E+02  0.12491547733E+03  0.13347927605E+03  0.47000000000E+01 0.  1.
         -5    1    3    3    0  502  0.29617363751E+01 -0.10825042504E+03  0.31413889845E+03  0.33231350246E+03  0.47000000000E+01 0.  1.
        -11    1    1    2    0    0 -0.25900360761E+02  0.40515155227E+02  0.69512931152E+02  0.84524281055E+02  0.00000000000E+00 0.  1.
         11    1    1    2    0    0  0.63351562201E+02  0.44122876522E+02  0.19051357943E+03  0.20556184620E+03  0.00000000000E+00 0. -1.
<mgrwt>
<rscale>  0 0.14831869E+03</rscale>
<asrwt>0</asrwt>
<pdfrwt beam="1">  1        1 0.11191997E+00 0.15554474E+03</pdfrwt>
<pdfrwt beam="2">  1       -1 0.43690790E-02 0.15554474E+03</pdfrwt>
<totfact> 0.55925324E+03</totfact>
</mgrwt>
</event>
<event>
 6    1  0.5206756E-006  0.2148357E+03  0.7546771E-02  0.1166934E+00
          2   -1    0    0  501    0  0.00000000000E+00  0.00000000000E+00  0.45223260623E+02  0.45223260623E+02  0.00000000000E+00 0. -1.
         -2   -1    0    0    0  501 -0.00000000000E+00 -0.00000000000E+00 -0.57867952585E+03  0.57867952585E+03  0.00000000000E+00 0.  1.
          5    1    1    2  502    0 -0.12898911402E+03 -0.12780140550E+00 -0.21856410146E+03  0.25383176381E+03  0.47000000000E+01 0. -1.
         -5    1    1    2    0  502  0.81379900721E+02 -0.23997200670E+02 -0.11668273722E+03  0.14434509013E+03  0.47000000000E+01 0.  1.
        -11    1    1    2    0    0 -0.10014898862E+02  0.41620195116E+02 -0.11728263451E+03  0.12485093190E+03  0.00000000000E+00 0. -1.
         11    1    1    2    0    0  0.57624112159E+02 -0.17495193040E+02 -0.80926792039E+02  0.10087500063E+03  0.00000000000E+00 0.  1.
<mgrwt>
<rscale>  0 0.18090118E+03</rscale>
<asrwt>0</asrwt>
<pdfrwt beam="1">  1        2 0.69574251E-02 0.21483567E+03</pdfrwt>
<pdfrwt beam="2">  1       -2 0.89027614E-01 0.21483567E+03</pdfrwt>
<totfact> 0.11299673E+03</totfact>
</mgrwt>
</event>
<event>
 7    1  0.5206756E-006  0.2774842E+03  0.7546771E-02  0.1098948E+00
         -3   -1    0    0    0  501 -0.00000000000E+00  0.00000000000E+00  0.96143080265E+03  0.96143080265E+03  0.00000000000E+00 0.  1.
          3   -1    0    0  501    0  0.00000000000E+00 -0.00000000000E+00 -0.80930681308E+02  0.80930681308E+02  0.00000000000E+00 0. -1.
         23    2    1    2    0    0 -0.16542143878E+03  0.18440621518E+03  0.32590746602E+03  0.42803407505E+03  0.12501035315E+03 0.  0.
          5    1    3    3  502    0 -0.90783804684E+01 -0.77667593702E+01  0.72461502126E+02  0.73590072927E+02  0.47000000000E+01 0. -1.
         -5    1    3    3    0  502 -0.15634305831E+03  0.19217297455E+03  0.25344596389E+03  0.35444400212E+03  0.47000000000E+01 0. -1.
        -11    1    1    2    0    0  0.15925031226E+03 -0.14648893301E+03  0.51754882883E+03  0.56096030134E+03  0.00000000000E+00 0.  1.
         11    1    1    2    0    0  0.61711265188E+01 -0.37917282169E+02  0.37043826486E+02  0.53367107570E+02  0.00000000000E+00 0. -1.
<mgrwt>
<rscale>  0 0.27411336E+03</rscale>
<asrwt>0</asrwt>
<pdfrwt beam="2">  1        3 0.12450875E-01 0.27748422E+03</pdfrwt>
<pdfrwt beam="1">  1       -3 0.14791242E+00 0.27748422E+03</pdfrwt>
<totfact> 0.45155369E+01</totfact>
</mgrwt>
</event>
<event>
 7    1  0.5206756E-006  0.1208854E+03  0.7546771E-02  0.1253776E+00
         -2   -1    0    0    0  501 -0.00000000000E+00  0.00000000000E+00  0.15088737095E+02  0.15088737095E+02  0.00000000000E+00 0.  1.
          2   -1    0    0  501    0  0.00000000000E+00 -0.00000000000E+00 -0.83590026186E+03  0.83590026186E+03  0.00000000000E+00 0. -1.
         23    2    1    2    0    0 -0.52596758598E+01  0.24823643649E+02 -0.57430106025E+03  0.58688584414E+03  0.11819225343E+03 0.  0.
          5    1    3    3  502    0 -0.13700249327E+02  0.30929492229E+02 -0.57444193027E+03  0.57545629858E+03  0.47000000000E+01 0. -1.
         -5    1    3    3    0  502  0.84405734676E+01 -0.61058485796E+01  0.14087002031E+00  0.11429545560E+02  0.47000000000E+01 0.  1.
        -11    1    1    2    0    0  0.16383102809E+02 -0.49826570216E+02 -0.82055197429E+02  0.97386593442E+02  0.00000000000E+00 0.  1.
         11    1    1    2    0    0 -0.11123426949E+02  0.25002926567E+02 -0.16445526709E+03  0.16671656138E+03  0.00000000000E+00 0. -1.
<mgrwt>
<rscale>  0 0.11375187E+03</rscale>
<asrwt>0</asrwt>
<pdfrwt beam="2">  1        2 0.12860005E+00 0.12088543E+03</pdfrwt>
<pdfrwt beam="1">  1       -2 0.23213440E-02 0.12088543E+03</pdfrwt>
<totfact> 0.19567075E+04</totfact>
</mgrwt>
</event>
<event>
 7    1  0.5206756E-006  0.1527999E+03  0.7546771E-02  0.1205770E+00
         -1   -1    0    0    0  501 -0.00000000000E+00  0.00000000000E+00  0.21673421429E+02  0.21673421429E+02  0.00000000000E+00 0.  1.
          1   -1    0    0  501    0  0.00000000000E+00 -0.00000000000E+00 -0.97588885691E+03  0.97588885691E+03  0.00000000000E+00 0. -1.
         23    2    1    2    0    0 -0.81220438671E+02  0.33551510980E+02 -0.65678407532E+03  0.67432419578E+03  0.12500134351E+03 0.  0.
          5    1    3    3  502    0 -0.82809609797E+02 -0.14186401068E+02 -0.56006917850E+03  0.56635524202E+03  0.47000000000E+01 0. -1.
         -5    1    3    3    0  502  0.15891711256E+01  0.47737912048E+02 -0.96714896817E+02  0.10796895377E+03  0.47000000000E+01 0. -1.
        -11    1    1    2    0    0  0.64367597550E+02  0.96265320700E+01 -0.92321083090E+02  0.11295592112E+03  0.00000000000E+00 0.  1.
         11    1    1    2    0    0  0.16852841122E+02 -0.43178043050E+02 -0.20511027707E+03  0.21028216143E+03  0.00000000000E+00 0. -1.
<mgrwt>
<rscale>  0 0.14576941E+03</rscale>
<asrwt>0</asrwt>
<pdfrwt beam="2">  1        1 0.15013674E+00 0.15279987E+03</pdfrwt>
<pdfrwt beam="1">  1       -1 0.33343726E-02 0.15279987E+03</pdfrwt>
<totfact> 0.52679013E+03</totfact>
</mgrwt>
</event>
<event>
 7    1  0.5206756E-006  0.1254877E+03  0.7546771E-02  0.1248458E+00
          1   -1    0    0  501    0  0.00000000000E+00  0.00000000000E+00  0.11711165001E+04  0.11711165001E+04  0.00000000000E+00 0. -1.
         -1   -1    0    0    0  501 -0.00000000000E+00 -0.00000000000E+00 -0.11829082249E+02  0.11829082249E+02  0.00000000000E+00 0.  1.
         23    2    1    2    0    0  0.30587031344E+01 -0.10640619714E+02  0.86206381159E+03  0.87114934757E+03  0.12499836828E+03 0.  0.
          5    1    3    3  502    0 -0.24834648137E+01 -0.40230596535E+02  0.80856244767E+03  0.80958013209E+03  0.47000000000E+01 0. -1.
         -5    1    3    3    0  502  0.55421679481E+01  0.29589976821E+02  0.53501363921E+02  0.61569215483E+02  0.47000000000E+01 0. -1.
        -11    1    1    2    0    0 -0.41491907378E+02  0.27692745455E+02  0.19462511444E+03  0.20091640475E+03  0.00000000000E+00 0. -1.
         11    1    1    2    0    0  0.38433204244E+02 -0.17052125741E+02  0.10259849178E+03  0.11087982998E+03  0.00000000000E+00 0.  1.
<mgrwt>
<rscale>  0 0.11680787E+03</rscale>
<asrwt>0</asrwt>
<pdfrwt beam="1">  1        1 0.18017168E+00 0.12548773E+03</pdfrwt>
<pdfrwt beam="2">  1       -1 0.18198597E-02 0.12548773E+03</pdfrwt>
<totfact> 0.91176770E+03</totfact>
</mgrwt>
</event>
<event>
 7    1  0.5206756E-006  0.1399894E+03  0.7546771E-02  0.1224470E+00
         -2   -1    0    0    0  501 -0.00000000000E+00  0.00000000000E+00  0.53765025602E+03  0.53765025602E+03  0.00000000000E+00 0.  1.
          2   -1    0    0  501    0  0.00000000000E+00 -0.00000000000E+00 -0.29274799807E+02  0.29274799807E+02  0.00000000000E+00 0. -1.
         23    2    1    2    0    0 -0.38766389246E+02  0.49286475411E+02  0.27404522885E+03  0.30773009754E+03  0.12516004108E+03 0.  0.
          5    1    3    3  502    0 -0.76228082331E+02  0.51687552171E+02  0.23894521212E+03  0.25612346237E+03  0.47000000000E+01 0. -1.
         -5    1    3    3    0  502  0.37461693084E+02 -0.24010767604E+01  0.35100016732E+02  0.51606635164E+02  0.47000000000E+01 0. -1.
        -11    1    1    2    0    0  0.63416671619E+02 -0.54035375713E+02  0.20004873748E+03  0.21670485328E+03  0.00000000000E+00 0.  1.
         11    1    1    2    0    0 -0.24650282373E+02  0.47489003022E+01  0.34281489892E+02  0.42490105017E+02  0.00000000000E+00 0. -1.
<mgrwt>
<rscale>  0 0.13203314E+03</rscale>
<asrwt>0</asrwt>
<pdfrwt beam="2">  1        2 0.45038158E-02 0.13998938E+03</pdfrwt>
<pdfrwt beam="1">  1       -2 0.82715417E-01 0.13998938E+03</pdfrwt>
<totfact> 0.22960614E+03</totfact>
</mgrwt>
</event>
<event>
 7    1  0.5206756E-006  0.1473115E+03  0.7546771E-02  0.1213385E+00
          1   -1    0    0  501    0  0.00000000000E+00  0.00000000000E+00  0.65200219913E+03  0.65200219913E+03  0.00000000000E+00 0. -1.
         -1   -1    0    0    0  501 -0.00000000000E+00 -0.00000000000E+00 -0.27551110989E+02  0.27551110989E+02  0.00000000000E+00 0.  1.
         23    2    1    2    0    0 -0.68540209898E+02  0.37133714109E+02  0.31924154422E+03  0.35159042693E+03  0.12499596657E+03 0.  0.
          5    1    3    3  502    0 -0.29086645069E+02 -0.37024980861E+02  0.47190744826E+02  0.66827677847E+02  0.47000000000E+01 0. -1.
         -5    1    3    3    0  502 -0.39453564829E+02  0.74158694970E+02  0.27205079939E+03  0.28476274909E+03  0.47000000000E+01 0. -1.
        -11    1    1    2    0    0  0.69372439891E+02  0.10597550233E+02  0.21072158337E+03  0.22210004319E+03  0.00000000000E+00 0.  1.
         11    1    1    2    0    0 -0.83222999271E+00 -0.47731264342E+02  0.94487960553E+02  0.10586284000E+03  0.00000000000E+00 0. -1.
<mgrwt>
<rscale>  0 0.13995818E+03</rscale>
<asrwt>0</asrwt>
<pdfrwt beam="1">  1        1 0.10030802E+00 0.14731145E+03</pdfrwt>
<pdfrwt beam="2">  1       -1 0.42386329E-02 0.14731145E+03</pdfrwt>
<totfact> 0.68195351E+03</totfact>
</mgrwt>
</event>
<event>
 7    1  0.5206756E-006  0.1293159E+03  0.7546771E-02  0.1243806E+00
         -1   -1    0    0    0  501 -0.00000000000E+00  0.00000000000E+00  0.13470772596E+03  0.13470772596E+03  0.00000000000E+00 0.  1.
          1   -1    0    0  501    0  0.00000000000E+00 -0.00000000000E+00 -0.93862734799E+02  0.93862734799E+02  0.00000000000E+00 0. -1.
         23    2    1    2    0    0  0.18632443963E+02 -0.26390332110E+02  0.12668027728E+02  0.12993493812E+03  0.12521578024E+03 0.  0.
          5    1    3    3  502    0  0.27828806480E+02 -0.73547772592E+02  0.19563581140E+02  0.81169828325E+02  0.47000000000E+01 0. -1.
         -5    1    3    3    0  502 -0.91963625165E+01  0.47157440482E+02 -0.68955534118E+01  0.48765109794E+02  0.47000000000E+01 0.  1.
        -11    1    1    2    0    0  0.22520152910E+02  0.44067327332E+02  0.11217907185E+02  0.50743749042E+02  0.00000000000E+00 0. -1.
         11    1    1    2    0    0 -0.41152596873E+02 -0.17676995222E+02  0.16959056249E+02  0.47891773598E+02  0.00000000000E+00 0.  1.
<mgrwt>
<rscale>  0 0.11957103E+03</rscale>
<asrwt>0</asrwt>
<pdfrwt beam="2">  1        1 0.14440421E-01 0.12931593E+03</pdfrwt>
<pdfrwt beam="1">  1       -1 0.20724265E-01 0.12931593E+03</pdfrwt>
<totfact> 0.70329756E+03</totfact>
</mgrwt>
</event>
<event>
 7    1  0.5206756E-006  0.1356084E+03  0.7546771E-02  0.1226593E+00
          2   -1    0    0  501    0  0.00000000000E+00  0.00000000000E+00  0.70552980581E+03  0.70552980581E+03  0.00000000000E+00 0. -1.
         -2   -1    0    0    0  501 -0.00000000000E+00 -0.00000000000E+00 -0.22562430501E+02  0.22562430501E+02  0.00000000000E+00 0.  1.
         23    2    1    2    0    0 -0.25605441589E+02  0.45875974968E+02  0.37891674323E+03  0.40245190203E+03  0.12501756446E+03 0.  0.
          5    1    3    3  502    0 -0.56699021430E+02  0.66688635842E+02  0.32528445664E+03  0.33688903353E+03  0.47000000000E+01 0. -1.
         -5    1    3    3    0  502  0.31093579841E+02 -0.20812660874E+02  0.53632286593E+02  0.65562868494E+02  0.47000000000E+01 0. -1.
        -11    1    1    2    0    0  0.11592097439E+02  0.26801682585E+02  0.30385254619E+02  0.42142266321E+02  0.00000000000E+00 0. -1.
         11    1    1    2    0    0  0.14013344150E+02 -0.72677657553E+02  0.27366537746E+03  0.28349806797E+03  0.00000000000E+00 0.  1.
<mgrwt>
<rscale>  0 0.13058301E+03</rscale>
<asrwt>0</asrwt>
<pdfrwt beam="1">  1        2 0.10854303E+00 0.13560839E+03</pdfrwt>
<pdfrwt beam="2">  1       -2 0.34711437E-02 0.13560839E+03</pdfrwt>
<totfact> 0.13469734E+04</totfact>
</mgrwt>
</event>
<event>
 7    1  0.5206756E-006  0.1733890E+03  0.7546771E-02  0.1185643E+00
          1   -1    0    0  501    0  0.00000000000E+00  0.00000000000E+00  0.28171673277E+02  0.28171673277E+02  0.00000000000E+00 0. -1.
         -1   -1    0    0    0  501 -0.00000000000E+00 -0.00000000000E+00 -0.84656117147E+03  0.84656117147E+03  0.00000000000E+00 0.  1.
         23    2    1    2    0    0 -0.39428731630E+02 -0.11341740278E+03 -0.42682372544E+03  0.46069755297E+03  0.12508241516E+03 0.  0.
          5    1    3    3  502    0  0.21429649305E+02  0.11764137210E+02 -0.24408219352E+02  0.34863676880E+02  0.47000000000E+01 0.  1.
         -5    1    3    3    0  502 -0.60858380935E+02 -0.12518153999E+03 -0.40241550609E+03  0.42583387609E+03  0.47000000000E+01 0.  1.
        -11    1    1    2    0    0  0.37537412011E+02  0.84000184837E+02 -0.35671660466E+03  0.36839085819E+03  0.00000000000E+00 0.  1.
         11    1    1    2    0    0  0.18913196192E+01  0.29417217943E+02 -0.34849168089E+02  0.45644433592E+02  0.00000000000E+00 0. -1.
<mgrwt>
<rscale>  0 0.16273478E+03</rscale>
<asrwt>0</asrwt>
<pdfrwt beam="1">  1        1 0.43341028E-02 0.17338899E+03</pdfrwt>
<pdfrwt beam="2">  1       -1 0.13024020E+00 0.17338899E+03</pdfrwt>
<totfact> 0.10887049E+03</totfact>
</mgrwt>
</event>
<event>
 7    1  0.5206756E-006  0.1442489E+03  0.7546771E-02  0.1218292E+00
         -1   -1    0    0    0  501 -0.00000000000E+00  0.00000000000E+00  0.57547820246E+03  0.57547820246E+03  0.00000000000E+00 0.  1.
          1   -1    0    0  501    0  0.00000000000E+00 -0.00000000000E+00 -0.29491793749E+02  0.29491793749E+02  0.00000000000E+00 0. -1.
         23    2    1    2    0    0  0.71837376456E+02 -0.48301569206E+01  0.27610043137E+03  0.31151116639E+03  0.12499527797E+03 0.  0.
          5    1    3    3  502    0  0.99718199341E+02  0.42635227681E+01  0.13873711770E+03  0.17097360830E+03  0.47000000000E+01 0.  1.
         -5    1    3    3    0  502 -0.27880822884E+02 -0.90936796887E+01  0.13736331366E+03  0.14053755810E+03  0.47000000000E+01 0.  1.
        -11    1    1    2    0    0 -0.17921439314E+02  0.36977257413E+02  0.17448714488E+03  0.17926031151E+03  0.00000000000E+00 0. -1.
         11    1    1    2    0    0 -0.53915937142E+02 -0.32147100492E+02  0.95398832460E+02  0.11419851830E+03  0.00000000000E+00 0.  1.
<mgrwt>
<rscale>  0 0.13637438E+03</rscale>
<asrwt>0</asrwt>
<pdfrwt beam="2">  1        1 0.45371995E-02 0.14424895E+03</pdfrwt>
<pdfrwt beam="1">  1       -1 0.88535100E-01 0.14424895E+03</pdfrwt>
<totfact> 0.24351213E+03</totfact>
</mgrwt>
</event>
<event>
 7    1  0.5206756E-006  0.1325480E+03  0.7546771E-02  0.1237297E+00
         -2   -1    0    0    0  501 -0.00000000000E+00  0.00000000000E+00  0.17390702945E+02  0.17390702945E+02  0.00000000000E+00 0.  1.
          2   -1    0    0  501    0  0.00000000000E+00 -0.00000000000E+00 -0.83473148307E+03  0.83473148307E+03  0.00000000000E+00 0. -1.
         23    2    1    2    0    0  0.39520565729E+02 -0.19550794361E+02 -0.57122579207E+03  0.58640249809E+03  0.12499950228E+03 0.  0.
          5    1    3    3  502    0 -0.15392910689E+02  0.27311931553E+02 -0.43968338164E+02  0.54205055720E+02  0.47000000000E+01 0. -1.
         -5    1    3    3    0  502  0.54913476418E+02 -0.46862725914E+02 -0.52725745390E+03  0.53219744237E+03  0.47000000000E+01 0. -1.
        -11    1    1    2    0    0 -0.22848990762E+01 -0.32909763344E+02 -0.55759357990E+02  0.64787184617E+02  0.00000000000E+00 0. -1.
         11    1    1    2    0    0 -0.37235666653E+02  0.52460557705E+02 -0.19035563007E+03  0.20093250331E+03  0.00000000000E+00 0.  1.
<mgrwt>
<rscale>  0 0.12358513E+03</rscale>
<asrwt>0</asrwt>
<pdfrwt beam="2">  1        2 0.12842021E+00 0.13254805E+03</pdfrwt>
<pdfrwt beam="1">  1       -2 0.26754931E-02 0.13254805E+03</pdfrwt>
<totfact> 0.16048575E+04</totfact>
</mgrwt>
</event>
<event>
 7    1  0.5206756E-006  0.1341353E+03  0.7546771E-02  0.1232338E+00
         -4   -1    0    0    0  501 -0.00000000000E+00  0.00000000000E+00  0.25222146580E+03  0.25222146580E+03  0.00000000000E+00 0.  1.
          4   -1    0    0  501    0  0.00000000000E+00 -0.00000000000E+00 -0.61601084769E+02  0.61601084769E+02  0.00000000000E+00 0. -1.
         23    2    1    2    0    0  0.17096764728E+02 -0.45555902143E+02  0.65748466531E+02  0.14938254692E+03  0.12499857954E+03 0.  0.
          5    1    3    3  502    0  0.57722319681E+02 -0.58635827825E+02  0.67322638390E+02  0.10641641854E+03  0.47000000000E+01 0.  1.
         -5    1    3    3    0  502 -0.40625554953E+02  0.13079925682E+02 -0.15741718598E+01  0.42966128382E+02  0.47000000000E+01 0.  1.
        -11    1    1    2    0    0 -0.36718936086E+02  0.67319618389E+02  0.99915006539E+02  0.12594927479E+03  0.00000000000E+00 0. -1.
         11    1    1    2    0    0  0.19622171358E+02 -0.21763716246E+02  0.24956907963E+02  0.38490728867E+02  0.00000000000E+00 0.  1.
<mgrwt>
<rscale>  0 0.12676410E+03</rscale>
<asrwt>0</asrwt>
<pdfrwt beam="2">  1        4 0.94770901E-02 0.13413532E+03</pdfrwt>
<pdfrwt beam="1">  1       -4 0.38803302E-01 0.13413532E+03</pdfrwt>
<totfact> 0.88498226E+02</totfact>
</mgrwt>
</event>
<event>
 7    1  0.5206756E-006  0.1889259E+03  0.7546771E-02  0.1164318E+00
          2   -1    0    0  501    0  0.00000000000E+00  0.00000000000E+00  0.39103516278E+03  0.39103516278E+03  0.00000000000E+00 0.  1.
         -2   -1    0    0    0  501 -0.00000000000E+00 -0.00000000000E+00 -0.83331852612E+02  0.83331852612E+02  0.00000000000E+00 0. -1.
         23    2    1    2    0    0 -0.33634928980E+02  0.13761377004E+03  0.12987911351E+03  0.22926314722E+03  0.12499659353E+03 0.  0.
          5    1    3    3  502    0 -0.72682299990E+02  0.44953772394E+02  0.40672729860E+02  0.94762436327E+02  0.47000000000E+01 0.  1.
         -5    1    3    3    0  502  0.39047371010E+02  0.92659997648E+02  0.89206383650E+02  0.13450071089E+03  0.47000000000E+01 0.  1.
        -11    1    1    2    0    0  0.26957651912E+02 -0.13571965871E+02  0.25707393870E+01  0.30290624873E+02  0.00000000000E+00 0.  1.
         11    1    1    2    0    0  0.66772770683E+01 -0.12404180417E+03  0.17525345727E+03  0.21481324330E+03  0.00000000000E+00 0. -1.
<mgrwt>
<rscale>  0 0.18364854E+03</rscale>
<asrwt>0</asrwt>
<pdfrwt beam="1">  1        2 0.60159254E-01 0.18892593E+03</pdfrwt>
<pdfrwt beam="2">  1       -2 0.12820285E-01 0.18892593E+03</pdfrwt>
<totfact> 0.35664753E+03</totfact>
</mgrwt>
</event>
<event>
 7    1  0.5206756E-006  0.2210950E+03  0.7546771E-02  0.1136427E+00
         -2   -1    0    0    0  501 -0.00000000000E+00  0.00000000000E+00  0.47843507292E+03  0.47843507292E+03  0.00000000000E+00 0. -1.
          2   -1    0    0  501    0  0.00000000000E+00 -0.00000000000E+00 -0.99826431700E+02  0.99826431700E+02  0.00000000000E+00 0.  1.
         23    2    1    2    0    0 -0.15961123473E+03  0.88218108714E+02  0.26453151233E+03  0.34476067336E+03  0.12499927969E+03 0.  0.
          5    1    3    3  502    0 -0.14176621574E+03  0.11583538735E+03  0.19391149837E+03  0.26671943328E+03  0.47000000000E+01 0. -1.
         -5    1    3    3    0  502 -0.17845018987E+02 -0.27617278634E+02  0.70620013963E+02  0.78041240085E+02  0.47000000000E+01 0. -1.
        -11    1    1    2    0    0  0.83708071647E+02 -0.50546082761E+02  0.11207818169E+03  0.14873959309E+03  0.00000000000E+00 0.  1.
         11    1    1    2    0    0  0.75903163083E+02 -0.37672025953E+02  0.19989471936E+01  0.84761238165E+02  0.00000000000E+00 0. -1.
<mgrwt>
<rscale>  0 0.21662174E+03</rscale>
<asrwt>0</asrwt>
<pdfrwt beam="2">  1        2 0.15357913E-01 0.22109500E+03</pdfrwt>
<pdfrwt beam="1">  1       -2 0.73605395E-01 0.22109500E+03</pdfrwt>
<totfact> 0.64646029E+02</totfact>
</mgrwt>
</event>
<event>
 7    1  0.5206756E-006  0.1338776E+03  0.7546771E-02  0.1233884E+00
          2   -1    0    0  501    0  0.00000000000E+00  0.00000000000E+00  0.39716115757E+02  0.39716115757E+02  0.00000000000E+00 0. -1.
         -2   -1    0    0    0  501 -0.00000000000E+00 -0.00000000000E+00 -0.37164703111E+03  0.37164703111E+03  0.00000000000E+00 0.  1.
         23    2    1    2    0    0 -0.47586587984E+02 -0.53929872484E+01 -0.14517676766E+03  0.19748291226E+03  0.12501855501E+03 0.  0.
          5    1    3    3  502    0 -0.50685785927E+02  0.52770093262E+02 -0.97936060476E+02  0.12234089087E+03  0.47000000000E+01 0.  1.
         -5    1    3    3    0  502  0.30991979429E+01 -0.58163080510E+02 -0.47240707185E+02  0.75142021384E+02  0.47000000000E+01 0.  1.
        -11    1    1    2    0    0 -0.16495123303E+02 -0.18920359918E+02 -0.10115314289E+03  0.10422105080E+03  0.00000000000E+00 0.  1.
         11    1    1    2    0    0  0.64081711287E+02  0.24313347167E+02 -0.85601004795E+02  0.10965918381E+03  0.00000000000E+00 0. -1.
<mgrwt>
<rscale>  0 0.12576153E+03</rscale>
<asrwt>0</asrwt>
<pdfrwt beam="1">  1        2 0.61101717E-02 0.13387758E+03</pdfrwt>
<pdfrwt beam="2">  1       -2 0.57176466E-01 0.13387758E+03</pdfrwt>
<totfact> 0.33639948E+03</totfact>
</mgrwt>
</event>
<event>
 7    1  0.5206756E-006  0.1629602E+03  0.7546771E-02  0.1192655E+00
          2   -1    0    0  501    0  0.00000000000E+00  0.00000000000E+00  0.55794492440E+03  0.55794492440E+03  0.00000000000E+00 0. -1.
         -2   -1    0    0    0  501 -0.00000000000E+00 -0.00000000000E+00 -0.40973169834E+02  0.40973169834E+02  0.00000000000E+00 0.  1.
         23    2    1    2    0    0  0.10045312201E+03 -0.29008977150E+02  0.25935633024E+03  0.30630332343E+03  0.12499467762E+03 0.  0.
          5    1    3    3  502    0  0.73215014842E+01 -0.61874742270E+02  0.80109790729E+02  0.10159604660E+03  0.47000000000E+01 0. -1.
         -5    1    3    3    0  502  0.93131620528E+02  0.32865765121E+02  0.17924653951E+03  0.20470727682E+03  0.47000000000E+01 0. -1.
        -11    1    1    2    0    0 -0.70020634711E+02  0.51839869543E+02  0.11079910885E+03  0.14094929543E+03  0.00000000000E+00 0.  1.
         11    1    1    2    0    0 -0.30432487301E+02 -0.22830892393E+02  0.14681631548E+03  0.15166547538E+03  0.00000000000E+00 0. -1.
<mgrwt>
<rscale>  0 0.15654409E+03</rscale>
<asrwt>0</asrwt>
<pdfrwt beam="1">  1        2 0.85837675E-01 0.16296018E+03</pdfrwt>
<pdfrwt beam="2">  1       -2 0.63035650E-02 0.16296018E+03</pdfrwt>
<totfact> 0.73003770E+03</totfact>
</mgrwt>
</event>
<event>
 7    1  0.5206756E-006  0.2063172E+03  0.7546771E-02  0.1148503E+00
         -2   -1    0    0    0  501 -0.00000000000E+00  0.00000000000E+00  0.28858409445E+03  0.28858409445E+03  0.00000000000E+00 0.  1.
          2   -1    0    0  501    0  0.00000000000E+00 -0.00000000000E+00 -0.13707215147E+03  0.13707215147E+03  0.00000000000E+00 0. -1.
         23    2    1    2    0    0 -0.16350110940E+03  0.14410223968E+02  0.49766942841E+02  0.21223461860E+03  0.12500606947E+03 0.  0.
          5    1    3    3  502    0  0.11756797505E+02  0.26499240392E+02 -0.75818058490E+00  0.29378510288E+02  0.47000000000E+01 0.  1.
         -5    1    3    3    0  502 -0.17525790690E+03 -0.12089016424E+02  0.50525123426E+02  0.18285610831E+03  0.47000000000E+01 0.  1.
        -11    1    1    2    0    0  0.12839591800E+02  0.14637583174E+01 -0.16702475713E+02  0.21118011292E+02  0.00000000000E+00 0. -1.
         11    1    1    2    0    0  0.15066151760E+03 -0.15873982285E+02  0.11844747585E+03  0.19230361602E+03  0.00000000000E+00 0.  1.
<mgrwt>
<rscale>  0 0.20147185E+03</rscale>
<asrwt>0</asrwt>
<pdfrwt beam="2">  1        2 0.21088023E-01 0.20631719E+03</pdfrwt>
<pdfrwt beam="1">  1       -2 0.44397553E-01 0.20631719E+03</pdfrwt>
<totfact> 0.12607499E+03</totfact>
</mgrwt>
</event>
<event>
 7    1  0.5206756E-006  0.1402649E+03  0.7546771E-02  0.1223793E+00
          1   -1    0    0  501    0  0.00000000000E+00  0.00000000000E+00  0.13413985819E+03  0.13413985819E+03  0.00000000000E+00 0. -1.
         -1   -1    0    0    0  501 -0.00000000000E+00 -0.00000000000E+00 -0.13174569062E+03  0.13174569062E+03  0.00000000000E+00 0.  1.
         23    2    1    2    0    0  0.62779495783E+02 -0.10848894241E+02  0.43526239938E+02  0.14686313865E+03  0.12496113130E+03 0.  0.
          5    1    3    3  502    0 -0.21845995718E+02  0.35618198090E+02  0.33262286007E+01  0.42178873394E+02  0.47000000000E+01 0.  1.
         -5    1    3    3    0  502  0.84625491501E+02 -0.46467092331E+02  0.40200011337E+02  0.10468426526E+03  0.47000000000E+01 0.  1.
        -11    1    1    2    0    0 -0.29464976767E+02 -0.84544991889E+01 -0.66286226419E+02  0.73031001810E+02  0.00000000000E+00 0.  1.
         11    1    1    2    0    0 -0.33314519016E+02  0.19303393430E+02  0.25154154057E+02  0.45991408344E+02  0.00000000000E+00 0. -1.
<mgrwt>
<rscale>  0 0.13249962E+03</rscale>
<asrwt>0</asrwt>
<pdfrwt beam="1">  1        1 0.20636901E-01 0.14026492E+03</pdfrwt>
<pdfrwt beam="2">  1       -1 0.20268568E-01 0.14026492E+03</pdfrwt>
<totfact> 0.46357182E+03</totfact>
</mgrwt>
</event>
<event>
 6    1  0.5206756E-006  0.1355722E+03  0.7546771E-02  0.1296724E+00
         -2   -1    0    0    0  501 -0.00000000000E+00  0.00000000000E+00  0.23383210353E+03  0.23383210353E+03  0.00000000000E+00 0.  1.
          2   -1    0    0  501    0  0.00000000000E+00 -0.00000000000E+00 -0.29261821772E+02  0.29261821772E+02  0.00000000000E+00 0. -1.
          5    1    1    2  502    0 -0.44456935598E+02 -0.66705591832E+01  0.42787497594E+01  0.45401686996E+02  0.47000000000E+01 0. -1.
         -5    1    1    2    0  502  0.47761609568E+02  0.19855130109E+02  0.15657388778E+03  0.16496323795E+03  0.47000000000E+01 0.  1.
        -11    1    1    2    0    0  0.10251150282E+02 -0.90618441410E+00  0.22330464714E+02  0.24587738950E+02  0.00000000000E+00 0.  1.
         11    1    1    2    0    0 -0.13555824251E+02 -0.12278386512E+02  0.21387179509E+02  0.28141261411E+02  0.00000000000E+00 0. -1.
<mgrwt>
<rscale>  0 0.92579051E+02</rscale>
<asrwt>0</asrwt>
<pdfrwt beam="2">  1        2 0.45018189E-02 0.13557223E+03</pdfrwt>
<pdfrwt beam="1">  1       -2 0.35974168E-01 0.13557223E+03</pdfrwt>
<totfact> 0.12311876E+04</totfact>
</mgrwt>
</event>
<event>
 7    1  0.5206756E-006  0.1499835E+03  0.7546771E-02  0.1209465E+00
          2   -1    0    0  501    0  0.00000000000E+00  0.00000000000E+00  0.30098314627E+03  0.30098314627E+03  0.00000000000E+00 0. -1.
         -2   -1    0    0    0  501 -0.00000000000E+00 -0.00000000000E+00 -0.62329192891E+02  0.62329192891E+02  0.00000000000E+00 0.  1.
         23    2    1    2    0    0 -0.57204248550E+02 -0.59956349478E+02  0.13951199994E+03  0.20483810985E+03  0.12501185234E+03 0.  0.
          5    1    3    3  502    0 -0.30413752971E+02  0.83634926930E+00 -0.16698087975E+02  0.35023020885E+02  0.47000000000E+01 0.  1.
         -5    1    3    3    0  502 -0.26790495579E+02 -0.60792698747E+02  0.15621008791E+03  0.16981508897E+03  0.47000000000E+01 0.  1.
        -11    1    1    2    0    0  0.13914666744E+02 -0.11525159218E+02  0.66244440568E+02  0.68664205753E+02  0.00000000000E+00 0. -1.
         11    1    1    2    0    0  0.43289581806E+02  0.71481508696E+02  0.32897512874E+02  0.89810023559E+02  0.00000000000E+00 0.  1.
<mgrwt>
<rscale>  0 0.14291100E+03</rscale>
<asrwt>0</asrwt>
<pdfrwt beam="1">  1        2 0.46305099E-01 0.14998351E+03</pdfrwt>
<pdfrwt beam="2">  1       -2 0.95891067E-02 0.14998351E+03</pdfrwt>
<totfact> 0.74061083E+03</totfact>
</mgrwt>
</event>
<event>
 7    1  0.5206756E-006  0.1769813E+03  0.7546771E-02  0.1171114E+00
          4   -1    0    0  501    0  0.00000000000E+00  0.00000000000E+00  0.93083868962E+02  0.93083868962E+02  0.00000000000E+00 0. -1.
         -4   -1    0    0    0  501 -0.00000000000E+00 -0.00000000000E+00 -0.38055169124E+03  0.38055169124E+03  0.00000000000E+00 0.  1.
         23    2    1    2    0    0 -0.67584527250E+02  0.10306864942E+03 -0.60190957527E+02  0.18557801032E+03  0.12500172691E+03 0.  0.
          5    1    3    3  502    0 -0.88521324183E+02  0.65447372282E+02  0.15038808761E+01  0.11019861629E+03  0.47000000000E+01 0.  1.
         -5    1    3    3    0  502  0.20936796933E+02  0.37621277140E+02 -0.61694838403E+02  0.75379394035E+02  0.47000000000E+01 0.  1.
        -11    1    1    2    0    0  0.48918097963E+02 -0.13296468840E+03 -0.18491530765E+03  0.23295119590E+03  0.00000000000E+00 0.  1.
         11    1    1    2    0    0  0.18666429287E+02  0.29896038975E+02 -0.42361557099E+02  0.55106353977E+02  0.00000000000E+00 0. -1.
<mgrwt>
<rscale>  0 0.17662127E+03</rscale>
<asrwt>0</asrwt>
<pdfrwt beam="1">  1        4 0.14320595E-01 0.17698130E+03</pdfrwt>
<pdfrwt beam="2">  1       -4 0.58546413E-01 0.17698130E+03</pdfrwt>
<totfact> 0.19936285E+02</totfact>
</mgrwt>
</event>
<event>
 7    1  0.5206756E-006  0.1894852E+03  0.7546771E-02  0.1164144E+00
         -4   -1    0    0    0  501 -0.00000000000E+00  0.00000000000E+00  0.19884436349E+03  0.19884436349E+03  0.00000000000E+00 0.  1.
          4   -1    0    0  501    0  0.00000000000E+00 -0.00000000000E+00 -0.16473299281E+03  0.16473299281E+03  0.00000000000E+00 0. -1.
         23    2    1    2    0    0  0.80665561347E+02  0.11735441415E+03 -0.10835566130E+02  0.18979477251E+03  0.12500261946E+03 0.  0.
          5    1    3    3  502    0  0.72995446248E+01  0.68179371581E+02 -0.57664169602E+02  0.89715976931E+02  0.47000000000E+01 0.  1.
         -5    1    3    3    0  502  0.73366016722E+02  0.49175042567E+02  0.46828603471E+02  0.10007879558E+03  0.47000000000E+01 0.  1.
        -11    1    1    2    0    0  0.15822411784E+02 -0.25216273214E+02  0.25022485071E+02  0.38888737555E+02  0.00000000000E+00 0.  1.
         11    1    1    2    0    0 -0.96487973131E+02 -0.92138140934E+02  0.19924451739E+02  0.13489384623E+03  0.00000000000E+00 0. -1.
<mgrwt>
<rscale>  0 0.18383340E+03</rscale>
<asrwt>0</asrwt>
<pdfrwt beam="2">  1        4 0.25343537E-01 0.18948521E+03</pdfrwt>
<pdfrwt beam="1">  1       -4 0.30591441E-01 0.18948521E+03</pdfrwt>
<totfact> 0.26385029E+02</totfact>
</mgrwt>
</event>
<event>
 7    1  0.5206756E-006  0.1178199E+03  0.7546771E-02  0.1257112E+00
         -2   -1    0    0    0  501 -0.00000000000E+00  0.00000000000E+00  0.35999933569E+02  0.35999933569E+02  0.00000000000E+00 0.  1.
          2   -1    0    0  501    0  0.00000000000E+00 -0.00000000000E+00 -0.21489936937E+04  0.21489936937E+04  0.00000000000E+00 0. -1.
         23    2    1    2    0    0  0.15506389419E+02 -0.23708633064E+02 -0.20804612502E+04  0.20837947442E+04  0.11436334729E+03 0.  0.
          5    1    3    3  502    0 -0.99546647455E+00 -0.16687538744E+02 -0.20293636037E+04  0.20294379002E+04  0.47000000000E+01 0. -1.
         -5    1    3    3    0  502  0.16501855894E+02 -0.70210943201E+01 -0.51097646478E+02  0.54356843994E+02  0.47000000000E+01 0.  1.
        -11    1    1    2    0    0 -0.48135275293E+02  0.33142888376E+02 -0.33225489035E+02  0.67226400313E+02  0.00000000000E+00 0.  1.
         11    1    1    2    0    0  0.32628885874E+02 -0.94342553121E+01  0.69297901989E+00  0.33972482785E+02  0.00000000000E+00 0. -1.
<mgrwt>
<rscale>  0 0.11188867E+03</rscale>
<asrwt>0</asrwt>
<pdfrwt beam="2">  1        2 0.33061442E+00 0.11781987E+03</pdfrwt>
<pdfrwt beam="1">  1       -2 0.55384512E-02 0.11781987E+03</pdfrwt>
<totfact> 0.10650234E+03</totfact>
</mgrwt>
</event>
<event>
 7    1  0.5206756E-006  0.1615855E+03  0.7546771E-02  0.1194431E+00
          1   -1    0    0  501    0  0.00000000000E+00  0.00000000000E+00  0.50626743927E+03  0.50626743927E+03  0.00000000000E+00 0. -1.
         -1   -1    0    0    0  501 -0.00000000000E+00 -0.00000000000E+00 -0.44386240013E+02  0.44386240013E+02  0.00000000000E+00 0.  1.
         23    2    1    2    0    0 -0.71760741935E+02  0.73034130177E+02  0.22410816525E+03  0.27628667710E+03  0.12500507974E+03 0.  0.
          5    1    3    3  502    0  0.42010917378E+01 -0.18074022876E+02  0.10990187427E+03  0.11155640476E+03  0.47000000000E+01 0.  1.
         -5    1    3    3    0  502 -0.75961833673E+02  0.91108153052E+02  0.11420629098E+03  0.16473027234E+03  0.47000000000E+01 0.  1.
        -11    1    1    2    0    0  0.54814454105E+02 -0.80881039438E+02  0.23621825679E+03  0.25562752544E+03  0.00000000000E+00 0. -1.
         11    1    1    2    0    0  0.16946287830E+02  0.78469092611E+01  0.15547772107E+01  0.18739476737E+02  0.00000000000E+00 0.  1.
<mgrwt>
<rscale>  0 0.15502490E+03</rscale>
<asrwt>0</asrwt>
<pdfrwt beam="1">  1        1 0.77887294E-01 0.16158545E+03</pdfrwt>
<pdfrwt beam="2">  1       -1 0.68286527E-02 0.16158545E+03</pdfrwt>
<totfact> 0.47452486E+03</totfact>
</mgrwt>
</event>
<event>
 7    1  0.5206756E-006  0.1257032E+03  0.7546771E-02  0.1250947E+00
         -2   -1    0    0    0  501 -0.00000000000E+00  0.00000000000E+00  0.61093650906E+02  0.61093650906E+02  0.00000000000E+00 0. -1.
          2   -1    0    0  501    0  0.00000000000E+00 -0.00000000000E+00 -0.20959524477E+03  0.20959524477E+03  0.00000000000E+00 0.  1.
         23    2    1    2    0    0 -0.25731456985E+01 -0.13317426246E+02 -0.12755884585E+03  0.17908814515E+03  0.12496931487E+03 0.  0.
          5    1    3    3  502    0  0.30396667895E+02  0.20878011859E+02  0.56354010692E+01  0.37599156154E+02  0.47000000000E+01 0.  1.
         -5    1    3    3    0  502 -0.32969813594E+02 -0.34195438104E+02 -0.13319424692E+03  0.14148898900E+03  0.47000000000E+01 0.  1.
        -11    1    1    2    0    0  0.26518195371E+02  0.43024412933E+02 -0.72257313303E+01  0.51054147601E+02  0.00000000000E+00 0.  1.
         11    1    1    2    0    0 -0.23945049672E+02 -0.29706986688E+02 -0.13717016684E+02  0.40546602923E+02  0.00000000000E+00 0. -1.
<mgrwt>
<rscale>  0 0.11536394E+03</rscale>
<asrwt>0</asrwt>
<pdfrwt beam="2">  1        2 0.32245422E-01 0.12570324E+03</pdfrwt>
<pdfrwt beam="1">  1       -2 0.93990233E-02 0.12570324E+03</pdfrwt>
<totfact> 0.11095945E+04</totfact>
</mgrwt>
</event>
<event>
 7    1  0.5206756E-006  0.1397219E+03  0.7546771E-02  0.1224902E+00
          3   -1    0    0  501    0  0.00000000000E+00  0.00000000000E+00  0.81152530935E+02  0.81152530935E+02  0.00000000000E+00 0. -1.
         -3   -1    0    0    0  501 -0.00000000000E+00 -0.00000000000E+00 -0.20532571076E+03  0.20532571076E+03  0.00000000000E+00 0.  1.
         23    2    1    2    0    0  0.33414232724E+02 -0.52725652827E+02 -0.33693065695E+02  0.14372689478E+03  0.12500276874E+03 0.  0.
          5    1    3    3  502    0 -0.14861711090E+02  0.78045380646E+01 -0.59483531674E+02  0.61985174126E+02  0.47000000000E+01 0. -1.
         -5    1    3    3    0  502  0.48275943814E+02 -0.60530190891E+02  0.25790465979E+02  0.81741720657E+02  0.47000000000E+01 0. -1.
        -11    1    1    2    0    0  0.12024566193E+02  0.18560778286E+02 -0.82416728622E+02  0.85332349314E+02  0.00000000000E+00 0.  1.
         11    1    1    2    0    0 -0.45438798916E+02  0.34164874541E+02 -0.80633855068E+01  0.57418997598E+02  0.00000000000E+00 0. -1.
<mgrwt>
<rscale>  0 0.13173601E+03</rscale>
<asrwt>0</asrwt>
<pdfrwt beam="1">  1        3 0.12485005E-01 0.13972186E+03</pdfrwt>
<pdfrwt beam="2">  1       -3 0.31588571E-01 0.13972186E+03</pdfrwt>
<totfact> 0.11459491E+03</totfact>
</mgrwt>
</event>
<event>
 7    1  0.5206756E-006  0.2161527E+03  0.7546771E-02  0.1140177E+00
          2   -1    0    0  501    0  0.00000000000E+00  0.00000000000E+00  0.34447860795E+02  0.34447860795E+02  0.00000000000E+00 0.  1.
         -2   -1    0    0    0  501 -0.00000000000E+00 -0.00000000000E+00 -0.12703562062E+04  0.12703562062E+04  0.00000000000E+00 0. -1.
         23    2    1    2    0    0 -0.16282596388E+03  0.67724154264E+02 -0.56362847680E+03  0.60365473920E+03  0.12499251466E+03 0.  0.
          5    1    3    3  502    0 -0.14977215741E+03  0.32778095129E+02 -0.53455198929E+03  0.55612410658E+03  0.47000000000E+01 0. -1.
         -5    1    3    3    0  502 -0.13053806466E+02  0.34946059135E+02 -0.29076487502E+02  0.47530632626E+02  0.47000000000E+01 0. -1.
        -11    1    1    2    0    0  0.82264940374E+02 -0.64910643839E+02 -0.24719647925E+03  0.26849024461E+03  0.00000000000E+00 0. -1.
         11    1    1    2    0    0  0.80561023507E+02 -0.28135104245E+01 -0.42508338936E+03  0.43265908318E+03  0.00000000000E+00 0.  1.
<mgrwt>
<rscale>  0 0.21176349E+03</rscale>
<asrwt>0</asrwt>
<pdfrwt beam="1">  1        2 0.52996718E-02 0.21615269E+03</pdfrwt>
<pdfrwt beam="2">  1       -2 0.19543938E+00 0.21615269E+03</pdfrwt>
<totfact> 0.22384427E+02</totfact>
</mgrwt>
</event>
<event>
 7    1  0.5206756E-006  0.1303207E+03  0.7546771E-02  0.1240548E+00
         -1   -1    0    0    0  501 -0.00000000000E+00  0.00000000000E+00  0.28960891206E+02  0.28960891206E+02  0.00000000000E+00 0.  1.
          1   -1    0    0  501    0  0.00000000000E+00 -0.00000000000E+00 -0.47663864079E+03  0.47663864079E+03  0.00000000000E+00 0. -1.
         23    2    1    2    0    0  0.32040497729E+02 -0.18224061910E+02 -0.30952009950E+03  0.33583651521E+03  0.12499905211E+03 0.  0.
          5    1    3    3  502    0  0.74144229585E+02  0.38237370729E+01 -0.12711845892E+03  0.14728604939E+03  0.47000000000E+01 0. -1.
         -5    1    3    3    0  502 -0.42103731856E+02 -0.22047798983E+02 -0.18240164057E+03  0.18855046582E+03  0.47000000000E+01 0. -1.
        -11    1    1    2    0    0  0.81916813773E+01 -0.20140167561E+02 -0.99750997585E+00  0.21765225000E+02  0.00000000000E+00 0. -1.
         11    1    1    2    0    0 -0.40232179106E+02  0.38364229471E+02 -0.13716014011E+03  0.14799779179E+03  0.00000000000E+00 0.  1.
<mgrwt>
<rscale>  0 0.12155838E+03</rscale>
<asrwt>0</asrwt>
<pdfrwt beam="2">  1        1 0.73329017E-01 0.13032065E+03</pdfrwt>
<pdfrwt beam="1">  1       -1 0.44555220E-02 0.13032065E+03</pdfrwt>
<totfact> 0.95664943E+03</totfact>
</mgrwt>
</event>
<event>
 7    1  0.5206756E-006  0.1781975E+03  0.7546771E-02  0.1174695E+00
         -2   -1    0    0    0  501 -0.00000000000E+00  0.00000000000E+00  0.28889956432E+03  0.28889956432E+03  0.00000000000E+00 0.  1.
          2   -1    0    0  501    0  0.00000000000E+00 -0.00000000000E+00 -0.10114034311E+03  0.10114034311E+03  0.00000000000E+00 0. -1.
         23    2    1    2    0    0  0.48789124596E+02 -0.11726942293E+03  0.65502873226E+02  0.18985514166E+03  0.12498740808E+03 0.  0.
          5    1    3    3  502    0 -0.13341513775E+02 -0.69002524467E+02  0.83265362403E+02  0.10906216094E+03  0.47000000000E+01 0.  1.
         -5    1    3    3    0  502  0.62130638371E+02 -0.48266898461E+02 -0.17762489177E+02  0.80792980717E+02  0.47000000000E+01 0.  1.
        -11    1    1    2    0    0 -0.60254253807E+02  0.26968309695E+02  0.38116820109E+02  0.76228320229E+02  0.00000000000E+00 0.  1.
         11    1    1    2    0    0  0.11465129212E+02  0.90301113233E+02  0.84139527876E+02  0.12395644554E+03  0.00000000000E+00 0. -1.
<mgrwt>
<rscale>  0 0.17305912E+03</rscale>
<asrwt>0</asrwt>
<pdfrwt beam="2">  1        2 0.15560053E-01 0.17819750E+03</pdfrwt>
<pdfrwt beam="1">  1       -2 0.44446086E-01 0.17819750E+03</pdfrwt>
<totfact> 0.17789256E+03</totfact>
</mgrwt>
</event>
<event>
 7    1  0.5206756E-006  0.1417303E+03  0.7546771E-02  0.1222310E+00
          1   -1    0    0  501    0  0.00000000000E+00  0.00000000000E+00  0.25519192809E+02  0.25519192809E+02  0.00000000000E+00 0. -1.
         -1   -1    0    0    0  501 -0.00000000000E+00 -0.00000000000E+00 -0.62998853101E+03  0.62998853101E+03  0.00000000000E+00 0.  1.
         23    2    1    2    0    0 -0.47295643734E+02  0.47174161180E+02 -0.32541661367E+03  0.35494148611E+03  0.12500082684E+03 0.  0.
          5    1    3    3  502    0  0.12423141355E+02  0.50026756761E+02 -0.46272710600E+02  0.69428125277E+02  0.47000000000E+01 0.  1.
         -5    1    3    3    0  502 -0.59718785088E+02 -0.28525955812E+01 -0.27914390307E+03  0.28551336083E+03  0.47000000000E+01 0.  1.
        -11    1    1    2    0    0  0.13029073834E+02 -0.64934783293E+02 -0.22212536685E+03  0.23178861371E+03  0.00000000000E+00 0. -1.
         11    1    1    2    0    0  0.34266569899E+02  0.17760622112E+02 -0.56927357677E+02  0.68777623996E+02  0.00000000000E+00 0.  1.
<mgrwt>
<rscale>  0 0.13353000E+03</rscale>
<asrwt>0</asrwt>
<pdfrwt beam="1">  1        1 0.39260297E-02 0.14173033E+03</pdfrwt>
<pdfrwt beam="2">  1       -1 0.96921311E-01 0.14173033E+03</pdfrwt>
<totfact> 0.24451998E+03</totfact>
</mgrwt>
</event>
<event>
 7    1  0.5206756E-006  0.1961437E+03  0.7546771E-02  0.1157583E+00
          2   -1    0    0  501    0  0.00000000000E+00  0.00000000000E+00  0.72855564114E+02  0.72855564114E+02  0.00000000000E+00 0. -1.
         -2   -1    0    0    0  501 -0.00000000000E+00 -0.00000000000E+00 -0.53658835771E+03  0.53658835771E+03  0.00000000000E+00 0.  1.
         23    2    1    2    0    0  0.14170393810E+03  0.52558909760E+02 -0.14051976076E+03  0.24128438285E+03  0.12501961917E+03 0.  0.
          5    1    3    3  502    0  0.14933626607E+03  0.69817069581E+02 -0.14686037012E+03  0.22082980297E+03  0.47000000000E+01 0. -1.
         -5    1    3    3    0  502 -0.76323279795E+01 -0.17258159821E+02  0.63406093624E+01  0.20454579876E+02  0.47000000000E+01 0. -1.
        -11    1    1    2    0    0 -0.92551812263E+02 -0.70905862276E+02 -0.26657122889E+03  0.29095308785E+03  0.00000000000E+00 0.  1.
         11    1    1    2    0    0 -0.49152125832E+02  0.18346952516E+02 -0.56641803955E+02  0.77206451128E+02  0.00000000000E+00 0. -1.
<mgrwt>
<rscale>  0 0.19097731E+03</rscale>
<asrwt>0</asrwt>
<pdfrwt beam="1">  1        2 0.11208549E-01 0.19614370E+03</pdfrwt>
<pdfrwt beam="2">  1       -2 0.82552053E-01 0.19614370E+03</pdfrwt>
<totfact> 0.73262681E+02</totfact>
</mgrwt>
</event>
<event>
 7    1  0.5206756E-006  0.1479359E+03  0.7546771E-02  0.1210758E+00
          1   -1    0    0  501    0  0.00000000000E+00  0.00000000000E+00  0.21179710808E+03  0.21179710808E+03  0.00000000000E+00 0. -1.
         -1   -1    0    0    0  501 -0.00000000000E+00 -0.00000000000E+00 -0.91399933880E+02  0.91399933880E+02  0.00000000000E+00 0.  1.
         23    2    1    2    0    0 -0.19185875765E+02 -0.76765039594E+02  0.93527480361E+02  0.17502117785E+03  0.12499621587E+03 0.  0.
          5    1    3    3  502    0 -0.20022828576E+02 -0.90168549501E+02  0.11604150146E+03  0.14838800842E+03  0.47000000000E+01 0.  1.
         -5    1    3    3    0  502  0.83695281127E+00  0.13403509908E+02 -0.22514021097E+02  0.26633169428E+02  0.47000000000E+01 0.  1.
        -11    1    1    2    0    0  0.11835635174E+02  0.58654176775E+02  0.63130994414E+02  0.86982280775E+02  0.00000000000E+00 0. -1.
         11    1    1    2    0    0  0.73502405911E+01  0.18110862819E+02 -0.36261300573E+02  0.41193583336E+02  0.00000000000E+00 0.  1.
<mgrwt>
<rscale>  0 0.14192766E+03</rscale>
<asrwt>0</asrwt>
<pdfrwt beam="1">  1        1 0.32584170E-01 0.14793588E+03</pdfrwt>
<pdfrwt beam="2">  1       -1 0.14061528E-01 0.14793588E+03</pdfrwt>
<totfact> 0.46781045E+03</totfact>
</mgrwt>
</event>
<event>
 7    1  0.5206756E-006  0.1401471E+03  0.7546771E-02  0.1224497E+00
          2   -1    0    0  501    0  0.00000000000E+00  0.00000000000E+00  0.85267782104E+03  0.85267782104E+03  0.00000000000E+00 0.  1.
         -2   -1    0    0    0  501 -0.00000000000E+00 -0.00000000000E+00 -0.22693931517E+02  0.22693931517E+02  0.00000000000E+00 0. -1.
         23    2    1    2    0    0  0.62190592930E+02 -0.12161161000E+02  0.64439745341E+03  0.65946135427E+03  0.12500254448E+03 0.  0.
          5    1    3    3  502    0  0.19795307042E+01 -0.27032784470E+02  0.51659833875E+03  0.51733028481E+03  0.47000000000E+01 0.  1.
         -5    1    3    3    0  502  0.60211062226E+02  0.14871623469E+02  0.12779911466E+03  0.14213106947E+03  0.47000000000E+01 0.  1.
        -11    1    1    2    0    0  0.83435311017E+01 -0.19249746498E+02  0.93079058228E+02  0.95414245960E+02  0.00000000000E+00 0.  1.
         11    1    1    2    0    0 -0.70534124031E+02  0.31410907499E+02  0.92507377887E+02  0.12049615233E+03  0.00000000000E+00 0. -1.
<mgrwt>
<rscale>  0 0.13201446E+03</rscale>
<asrwt>0</asrwt>
<pdfrwt beam="1">  1        2 0.13118118E+00 0.14014706E+03</pdfrwt>
<pdfrwt beam="2">  1       -2 0.34913747E-02 0.14014706E+03</pdfrwt>
<totfact> 0.10598604E+04</totfact>
</mgrwt>
</event>
<event>
 7    1  0.5206756E-006  0.1320396E+03  0.7546771E-02  0.1229909E+00
          2   -1    0    0  501    0  0.00000000000E+00  0.00000000000E+00  0.89318699505E+03  0.89318699505E+03  0.00000000000E+00 0.  1.
         -2   -1    0    0    0  501 -0.00000000000E+00 -0.00000000000E+00 -0.20968033373E+02  0.20968033373E+02  0.00000000000E+00 0. -1.
         23    2    1    2    0    0 -0.22008454237E+02  0.36414896920E+02  0.64258991972E+03  0.65601545226E+03  0.12499620757E+03 0.  0.
          5    1    3    3  502    0 -0.72267730228E+02  0.16881431757E+02  0.29453918527E+03  0.30378121935E+03  0.47000000000E+01 0.  1.
         -5    1    3    3    0  502  0.50259275991E+02  0.19533465163E+02  0.34805073445E+03  0.35223423291E+03  0.47000000000E+01 0.  1.
        -11    1    1    2    0    0  0.19696608940E+02 -0.75675489431E+02  0.16256472952E+03  0.18039408912E+03  0.00000000000E+00 0.  1.
         11    1    1    2    0    0  0.23118452968E+01  0.39260592511E+02  0.67064312435E+02  0.77745487042E+02  0.00000000000E+00 0. -1.
<mgrwt>
<rscale>  0 0.12836028E+03</rscale>
<asrwt>0</asrwt>
<pdfrwt beam="1">  1        2 0.13741335E+00 0.13203965E+03</pdfrwt>
<pdfrwt beam="2">  1       -2 0.32258520E-02 0.13203965E+03</pdfrwt>
<totfact> 0.11179116E+04</totfact>
</mgrwt>
</event>
<event>
 7    1  0.5206756E-006  0.1899344E+03  0.7546771E-02  0.1163039E+00
         -1   -1    0    0    0  501 -0.00000000000E+00  0.00000000000E+00  0.20201044415E+02  0.20201044415E+02  0.00000000000E+00 0.  1.
          1   -1    0    0  501    0  0.00000000000E+00 -0.00000000000E+00 -0.16640371458E+04  0.16640371458E+04  0.00000000000E+00 0. -1.
         23    2    1    2    0    0  0.12188922895E+03  0.74796596522E+02 -0.10121500125E+04  0.10298168463E+04  0.12499429663E+03 0.  0.
          5    1    3    3  502    0  0.11533553551E+03  0.31629460813E+02 -0.44011421398E+03  0.45609792796E+03  0.47000000000E+01 0.  1.
         -5    1    3    3    0  502  0.65536934386E+01  0.43167135709E+02 -0.57203579848E+03  0.57371891832E+03  0.47000000000E+01 0.  1.
        -11    1    1    2    0    0 -0.13728152880E+03 -0.72535538900E+02 -0.56514260881E+03  0.58608343335E+03  0.00000000000E+00 0.  1.
         11    1    1    2    0    0  0.15392299848E+02 -0.22610576224E+01 -0.66543480071E+02  0.68337910534E+02  0.00000000000E+00 0. -1.
<mgrwt>
<rscale>  0 0.18501201E+03</rscale>
<asrwt>0</asrwt>
<pdfrwt beam="2">  1        1 0.25600579E+00 0.18993443E+03</pdfrwt>
<pdfrwt beam="1">  1       -1 0.31078521E-02 0.18993443E+03</pdfrwt>
<totfact> 0.19994015E+03</totfact>
</mgrwt>
</event>
<event>
 7    1  0.5206756E-006  0.1356403E+03  0.7546771E-02  0.1231721E+00
         -1   -1    0    0    0  501 -0.00000000000E+00  0.00000000000E+00  0.17662277613E+02  0.17662277613E+02  0.00000000000E+00 0.  1.
          1   -1    0    0  501    0  0.00000000000E+00 -0.00000000000E+00 -0.82497192517E+03  0.82497192517E+03  0.00000000000E+00 0. -1.
         23    2    1    2    0    0  0.48505733230E+02 -0.20485077275E+02 -0.49277550107E+03  0.51110272428E+03  0.12500342302E+03 0.  0.
          5    1    3    3  502    0  0.90016565967E+02 -0.25982095156E+01 -0.33171910250E+03  0.34375774290E+03  0.47000000000E+01 0. -1.
         -5    1    3    3    0  502 -0.41510832737E+02 -0.17886867760E+02 -0.16105639857E+03  0.16734498138E+03  0.47000000000E+01 0. -1.
        -11    1    1    2    0    0 -0.75549300780E+02  0.17587681817E+02 -0.23597606824E+03  0.24839832564E+03  0.00000000000E+00 0.  1.
         11    1    1    2    0    0  0.27043567550E+02  0.28973954581E+01 -0.78558078242E+02  0.83133152854E+02  0.00000000000E+00 0. -1.
<mgrwt>
<rscale>  0 0.12716682E+03</rscale>
<asrwt>0</asrwt>
<pdfrwt beam="2">  1        1 0.12691878E+00 0.13564033E+03</pdfrwt>
<pdfrwt beam="1">  1       -1 0.27172730E-02 0.13564033E+03</pdfrwt>
<totfact> 0.92280497E+03</totfact>
</mgrwt>
</event>
<event>
 7    1  0.5206756E-006  0.1496586E+03  0.7546771E-02  0.1210374E+00
          1   -1    0    0  501    0  0.00000000000E+00  0.00000000000E+00  0.10707958605E+04  0.10707958605E+04  0.00000000000E+00 0. -1.
         -1   -1    0    0    0  501 -0.00000000000E+00 -0.00000000000E+00 -0.23211918083E+02  0.23211918083E+02  0.00000000000E+00 0.  1.
         23    2    1    2    0    0  0.82222713807E+02 -0.33955579279E+01  0.83980616519E+03  0.85303697425E+03  0.12500231944E+03 0.  0.
          5    1    3    3  502    0  0.12638933649E+02 -0.28718433362E+02  0.46640740594E+02  0.56408684985E+02  0.47000000000E+01 0. -1.
         -5    1    3    3    0  502  0.69583780158E+02  0.25322875434E+02  0.79316542459E+03  0.79662828926E+03  0.47000000000E+01 0. -1.
        -11    1    1    2    0    0 -0.24370276825E+02  0.42535073571E+02  0.59714715753E+02  0.77259239925E+02  0.00000000000E+00 0.  1.
         11    1    1    2    0    0 -0.57852436983E+02 -0.39139515644E+02  0.14806306152E+03  0.16371156446E+03  0.00000000000E+00 0. -1.
<mgrwt>
<rscale>  0 0.14221893E+03</rscale>
<asrwt>0</asrwt>
<pdfrwt beam="1">  1        1 0.16473779E+00 0.14965856E+03</pdfrwt>
<pdfrwt beam="2">  1       -1 0.35710651E-02 0.14965856E+03</pdfrwt>
<totfact> 0.40602878E+03</totfact>
</mgrwt>
</event>
<event>
 6    1  0.5206756E-006  0.4074503E+03  0.7546771E-02  0.1069906E+00
         -2   -1    0    0    0  501 -0.00000000000E+00  0.00000000000E+00  0.26006542313E+02  0.26006542313E+02  0.00000000000E+00 0.  1.
          2   -1    0    0  501    0  0.00000000000E+00 -0.00000000000E+00 -0.34501049796E+04  0.34501049796E+04  0.00000000000E+00 0. -1.
          5    1    1    2  502    0 -0.17082253873E+02  0.44789168037E+02 -0.23081249030E+04  0.23086274127E+04  0.47000000000E+01 0. -1.
         -5    1    1    2    0  502  0.13338330279E+03  0.61391842201E+02 -0.33608316923E+03  0.36678883624E+03  0.47000000000E+01 0.  1.
        -11    1    1    2    0    0 -0.37398504339E+02 -0.81134107647E+02 -0.52926285818E+03  0.53675000195E+03  0.00000000000E+00 0.  1.
         11    1    1    2    0    0 -0.78902544579E+02 -0.25046902590E+02 -0.25062750686E+03  0.26394527097E+03  0.00000000000E+00 0. -1.
<mgrwt>
<rscale>  0 0.33279668E+03</rscale>
<asrwt>0</asrwt>
<pdfrwt beam="2">  1        2 0.53078548E+00 0.40745034E+03</pdfrwt>
<pdfrwt beam="1">  1       -2 0.40010058E-02 0.40745034E+03</pdfrwt>
<totfact> 0.29047427E+02</totfact>
</mgrwt>
</event>
<event>
 7    1  0.5206756E-006  0.1533944E+03  0.7546771E-02  0.1205107E+00
         -1   -1    0    0    0  501 -0.00000000000E+00  0.00000000000E+00  0.18614673985E+02  0.18614673985E+02  0.00000000000E+00 0.  1.
          1   -1    0    0  501    0  0.00000000000E+00 -0.00000000000E+00 -0.12255230862E+04  0.12255230862E+04  0.00000000000E+00 0. -1.
         23    2    1    2    0    0  0.64652817027E+02  0.61028768204E+02 -0.88367183946E+03  0.89688669748E+03  0.12500132383E+03 0.  0.
          5    1    3    3  502    0  0.36322649859E+02  0.70004197348E+02 -0.84083919630E+03  0.84454281512E+03  0.47000000000E+01 0.  1.
         -5    1    3    3    0  502  0.28330167167E+02 -0.89754291447E+01 -0.42832643163E+02  0.52343882359E+02  0.47000000000E+01 0.  1.
        -11    1    1    2    0    0  0.17416302099E+02  0.19513571116E+01 -0.95838525952E+02  0.97427708739E+02  0.00000000000E+00 0. -1.
         11    1    1    2    0    0 -0.82069119125E+02 -0.62980125315E+02 -0.22739804680E+03  0.24982335396E+03  0.00000000000E+00 0.  1.
<mgrwt>
<rscale>  0 0.14629014E+03</rscale>
<asrwt>0</asrwt>
<pdfrwt beam="2">  1        1 0.18854205E+00 0.15339436E+03</pdfrwt>
<pdfrwt beam="1">  1       -1 0.28637955E-02 0.15339436E+03</pdfrwt>
<totfact> 0.43771790E+03</totfact>
</mgrwt>
</event>
<event>
 7    1  0.5206756E-006  0.1805481E+03  0.7546771E-02  0.1173098E+00
         -1   -1    0    0    0  501 -0.00000000000E+00  0.00000000000E+00  0.72904305737E+02  0.72904305737E+02  0.00000000000E+00 0.  1.
          1   -1    0    0  501    0  0.00000000000E+00 -0.00000000000E+00 -0.45057479424E+03  0.45057479424E+03  0.00000000000E+00 0. -1.
         23    2    1    2    0    0  0.84610854239E+02 -0.99040941221E+02 -0.29307720606E+03  0.34422649495E+03  0.12501810439E+03 0.  0.
          5    1    3    3  502    0  0.10127373683E+03 -0.62759345674E+02 -0.27579877010E+03  0.30046989339E+03  0.47000000000E+01 0. -1.
         -5    1    3    3    0  502 -0.16662882593E+02 -0.36281595546E+02 -0.17278435953E+02  0.43756601567E+02  0.47000000000E+01 0. -1.
        -11    1    1    2    0    0 -0.65927021998E+02  0.33127059199E+02 -0.45917433826E+01  0.73924680507E+02  0.00000000000E+00 0.  1.
         11    1    1    2    0    0 -0.18683832241E+02  0.65913882022E+02 -0.80001539064E+02  0.10532792452E+03  0.00000000000E+00 0. -1.
<mgrwt>
<rscale>  0 0.17463608E+03</rscale>
<asrwt>0</asrwt>
<pdfrwt beam="2">  1        1 0.69319198E-01 0.18054814E+03</pdfrwt>
<pdfrwt beam="1">  1       -1 0.11216047E-01 0.18054814E+03</pdfrwt>
<totfact> 0.26033578E+03</totfact>
</mgrwt>
</event>
<event>
 7    1  0.5206756E-006  0.1462635E+03  0.7546771E-02  0.1215289E+00
         -1   -1    0    0    0  501 -0.00000000000E+00  0.00000000000E+00  0.20053770118E+02  0.20053770118E+02  0.00000000000E+00 0.  1.
          1   -1    0    0  501    0  0.00000000000E+00 -0.00000000000E+00 -0.93753459506E+03  0.93753459506E+03  0.00000000000E+00 0. -1.
         23    2    1    2    0    0  0.34046737709E+02 -0.67886820514E+02 -0.63325790408E+03  0.64992967989E+03  0.12500085985E+03 0.  0.
          5    1    3    3  502    0  0.18358326759E+02 -0.20870253164E+02 -0.19786073664E+02  0.34440881806E+02  0.47000000000E+01 0. -1.
         -5    1    3    3    0  502  0.15688410949E+02 -0.47016567349E+02 -0.61347183042E+03  0.61548879808E+03  0.47000000000E+01 0. -1.
        -11    1    1    2    0    0 -0.63320890098E+02  0.51774199478E+02 -0.22833828735E+03  0.24254582315E+03  0.00000000000E+00 0.  1.
         11    1    1    2    0    0  0.29274152390E+02  0.16112621035E+02 -0.55884633508E+02  0.65112862148E+02  0.00000000000E+00 0. -1.
<mgrwt>
<rscale>  0 0.13855310E+03</rscale>
<asrwt>0</asrwt>
<pdfrwt beam="2">  1        1 0.14423608E+00 0.14626351E+03</pdfrwt>
<pdfrwt beam="1">  1       -1 0.30851956E-02 0.14626351E+03</pdfrwt>
<totfact> 0.62935994E+03</totfact>
</mgrwt>
</event>
<event>
 7    1  0.5206756E-006  0.1601923E+03  0.7546771E-02  0.1192952E+00
          2   -1    0    0  501    0  0.00000000000E+00  0.00000000000E+00  0.55922862194E+03  0.55922862194E+03  0.00000000000E+00 0. -1.
         -2   -1    0    0    0  501 -0.00000000000E+00 -0.00000000000E+00 -0.46995251541E+02  0.46995251541E+02  0.00000000000E+00 0.  1.
         23    2    1    2    0    0 -0.74232962175E+02 -0.80634834120E+02  0.36917423107E+03  0.40243159210E+03  0.11682920993E+03 0.  0.
          5    1    3    3  502    0 -0.36149774152E+01 -0.79705412821E+01  0.23000292336E+03  0.23021735891E+03  0.47000000000E+01 0. -1.
         -5    1    3    3    0  502 -0.70617984760E+02 -0.72664292838E+02  0.13917130771E+03  0.17221423319E+03  0.47000000000E+01 0.  1.
        -11    1    1    2    0    0 -0.16644822094E+02  0.30032562243E+02  0.65807658882E+02  0.74227035944E+02  0.00000000000E+00 0.  1.
         11    1    1    2    0    0  0.90877784269E+02  0.50602271877E+02  0.77251480450E+02  0.12956524543E+03  0.00000000000E+00 0. -1.
<mgrwt>
<rscale>  0 0.15628863E+03</rscale>
<asrwt>0</asrwt>
<pdfrwt beam="1">  1        2 0.86035168E-01 0.16019230E+03</pdfrwt>
<pdfrwt beam="2">  1       -2 0.72300391E-02 0.16019230E+03</pdfrwt>
<totfact> 0.58951877E+03</totfact>
</mgrwt>
</event>
<event>
 7    1  0.5206756E-006  0.1299693E+03  0.7546771E-02  0.1239295E+00
         -1   -1    0    0    0  501 -0.00000000000E+00  0.00000000000E+00  0.29146262653E+02  0.29146262653E+02  0.00000000000E+00 0.  1.
          1   -1    0    0  501    0  0.00000000000E+00 -0.00000000000E+00 -0.51276969757E+03  0.51276969757E+03  0.00000000000E+00 0. -1.
         23    2    1    2    0    0 -0.26855185625E+02  0.23374313803E+02 -0.35305813525E+03  0.37622075833E+03  0.12499781033E+03 0.  0.
          5    1    3    3  502    0 -0.76910143656E+02  0.14665861714E+02 -0.22986808458E+03  0.24288203722E+03  0.47000000000E+01 0. -1.
         -5    1    3    3    0  502  0.50054958031E+02  0.87084520895E+01 -0.12319005067E+03  0.13333872110E+03  0.47000000000E+01 0. -1.
        -11    1    1    2    0    0 -0.28550247487E+02 -0.35225741234E+02 -0.56581187820E+02  0.72507932616E+02  0.00000000000E+00 0. -1.
         11    1    1    2    0    0  0.55405433112E+02  0.11851427431E+02 -0.73984111847E+02  0.93187269283E+02  0.00000000000E+00 0.  1.
<mgrwt>
<rscale>  0 0.12233461E+03</rscale>
<asrwt>0</asrwt>
<pdfrwt beam="2">  1        1 0.78887638E-01 0.12996927E+03</pdfrwt>
<pdfrwt beam="1">  1       -1 0.44840409E-02 0.12996927E+03</pdfrwt>
<totfact> 0.86170548E+03</totfact>
</mgrwt>
</event>
<event>
 7    1  0.5206756E-006  0.1389499E+03  0.7546771E-02  0.1225158E+00
         -1   -1    0    0    0  501 -0.00000000000E+00  0.00000000000E+00  0.14573450106E+03  0.14573450106E+03  0.00000000000E+00 0.  1.
          1   -1    0    0  501    0  0.00000000000E+00 -0.00000000000E+00 -0.12461763571E+03  0.12461763571E+03  0.00000000000E+00 0. -1.
         23    2    1    2    0    0  0.53736517517E+02  0.28133746960E+02 -0.37928029171E+02  0.14403340104E+03  0.12501185618E+03 0.  0.
          5    1    3    3  502    0  0.69904580648E+02  0.59783989270E+02 -0.35789702885E+00  0.92103169646E+02  0.47000000000E+01 0. -1.
         -5    1    3    3    0  502 -0.16168063130E+02 -0.31650242310E+02 -0.37570132143E+02  0.51930231396E+02  0.47000000000E+01 0. -1.
        -11    1    1    2    0    0  0.23579149251E+02 -0.21114785782E+02  0.29456735861E+02  0.43237827716E+02  0.00000000000E+00 0.  1.
         11    1    1    2    0    0 -0.77315666768E+02 -0.70189611775E+01  0.29588158658E+02  0.83080908014E+02  0.00000000000E+00 0. -1.
<mgrwt>
<rscale>  0 0.13156114E+03</rscale>
<asrwt>0</asrwt>
<pdfrwt beam="2">  1        1 0.19171944E-01 0.13894994E+03</pdfrwt>
<pdfrwt beam="1">  1       -1 0.22420693E-01 0.13894994E+03</pdfrwt>
<totfact> 0.43223229E+03</totfact>
</mgrwt>
</event>
<event>
 7    1  0.5206756E-006  0.3478140E+03  0.7546771E-02  0.1064494E+00
          2   -1    0    0  501    0  0.00000000000E+00  0.00000000000E+00  0.19728544427E+04  0.19728544427E+04  0.00000000000E+00 0. -1.
         -2   -1    0    0    0  501 -0.00000000000E+00 -0.00000000000E+00 -0.74886521350E+02  0.74886521350E+02  0.00000000000E+00 0.  1.
         23    2    1    2    0    0 -0.15044939492E+03  0.28760019791E+03  0.14204819567E+04  0.14624443859E+04  0.12500279338E+03 0.  0.
          5    1    3    3  502    0 -0.10871519658E+03  0.90862703388E+02  0.71089451010E+03  0.72489179835E+03  0.47000000000E+01 0.  1.
         -5    1    3    3    0  502 -0.41734198343E+02  0.19673749452E+03  0.70958744661E+03  0.73755258758E+03  0.47000000000E+01 0.  1.
        -11    1    1    2    0    0  0.23732493026E+02 -0.13658439053E+03  0.23433049888E+03  0.27226698233E+03  0.00000000000E+00 0.  1.
         11    1    1    2    0    0  0.12671690190E+03 -0.15101580738E+03  0.24315546574E+03  0.31302959576E+03  0.00000000000E+00 0. -1.
<mgrwt>
<rscale>  0 0.34546062E+03</rscale>
<asrwt>0</asrwt>
<pdfrwt beam="1">  1        2 0.30351603E+00 0.34781402E+03</pdfrwt>
<pdfrwt beam="2">  1       -2 0.11521005E-01 0.34781402E+03</pdfrwt>
<totfact> 0.40140665E+02</totfact>
</mgrwt>
</event>
<event>
 7    1  0.5206756E-006  0.1808233E+03  0.7546771E-02  0.1172800E+00
          2   -1    0    0  501    0  0.00000000000E+00  0.00000000000E+00  0.16851849070E+04  0.16851849070E+04  0.00000000000E+00 0. -1.
         -2   -1    0    0    0  501 -0.00000000000E+00 -0.00000000000E+00 -0.28456506047E+02  0.28456506047E+02  0.00000000000E+00 0.  1.
         23    2    1    2    0    0  0.62871016416E+02 -0.11455715525E+03  0.14025179377E+04  0.14141264538E+04  0.12498382000E+03 0.  0.
          5    1    3    3  502    0 -0.28242145670E+02  0.29815322131E+01  0.14444567178E+03  0.14728594781E+03  0.47000000000E+01 0.  1.
         -5    1    3    3    0  502  0.91113162086E+02 -0.11753868746E+03  0.12580722659E+04  0.12668405060E+04  0.47000000000E+01 0.  1.
        -11    1    1    2    0    0 -0.73327791481E+02  0.93310557774E+02  0.14309033322E+03  0.18589961984E+03  0.00000000000E+00 0.  1.
         11    1    1    2    0    0  0.10456775066E+02  0.21246597472E+02  0.11112013011E+03  0.11361533948E+03  0.00000000000E+00 0. -1.
<mgrwt>
<rscale>  0 0.17493240E+03</rscale>
<asrwt>0</asrwt>
<pdfrwt beam="1">  1        2 0.25925914E+00 0.18082329E+03</pdfrwt>
<pdfrwt beam="2">  1       -2 0.43779253E-02 0.18082329E+03</pdfrwt>
<totfact> 0.26092919E+03</totfact>
</mgrwt>
</event>
<event>
 7    1  0.5206756E-006  0.1332629E+03  0.7546771E-02  0.1230689E+00
          4   -1    0    0  501    0  0.00000000000E+00  0.00000000000E+00  0.72156765093E+03  0.72156765093E+03  0.00000000000E+00 0. -1.
         -4   -1    0    0    0  501 -0.00000000000E+00 -0.00000000000E+00 -0.45910154738E+02  0.45910154738E+02  0.00000000000E+00 0.  1.
         23    2    1    2    0    0  0.35940078324E+02 -0.43830269168E+02  0.63289560803E+03  0.64677342594E+03  0.12060776139E+03 0.  0.
          5    1    3    3  502    0  0.54370730265E+02 -0.44640763261E+02  0.61949019168E+03  0.62348950403E+03  0.47000000000E+01 0. -1.
         -5    1    3    3    0  502 -0.18430651941E+02  0.81049409315E+00  0.13405416353E+02  0.23283921904E+02  0.47000000000E+01 0.  1.
        -11    1    1    2    0    0 -0.43924077821E+02 -0.20200043528E+02  0.18781298139E+02  0.51866207985E+02  0.00000000000E+00 0. -1.
         11    1    1    2    0    0  0.79839994965E+01  0.64030312695E+02  0.23980590024E+02  0.68838171749E+02  0.00000000000E+00 0.  1.
<mgrwt>
<rscale>  0 0.12784459E+03</rscale>
<asrwt>0</asrwt>
<pdfrwt beam="1">  1        4 0.11101040E+00 0.13326295E+03</pdfrwt>
<pdfrwt beam="2">  1       -4 0.70631012E-02 0.13326295E+03</pdfrwt>
<totfact> 0.15164292E+02</totfact>
</mgrwt>
</event>
<event>
 7    1  0.5206756E-006  0.1279180E+03  0.7546771E-02  0.1246725E+00
          2   -1    0    0  501    0  0.00000000000E+00  0.00000000000E+00  0.88832437267E+03  0.88832437267E+03  0.00000000000E+00 0. -1.
         -2   -1    0    0    0  501 -0.00000000000E+00 -0.00000000000E+00 -0.27113324242E+02  0.27113324242E+02  0.00000000000E+00 0.  1.
         23    2    1    2    0    0 -0.20356261338E+02  0.17993033337E+02  0.78656103244E+03  0.79689476488E+03  0.12499952765E+03 0.  0.
          5    1    3    3  502    0  0.19232911119E+02  0.16358779259E+02  0.71084374155E+03  0.71130754911E+03  0.47000000000E+01 0. -1.
         -5    1    3    3    0  502 -0.39589172457E+02  0.16342540788E+01  0.75717290895E+02  0.85587215766E+02  0.47000000000E+01 0. -1.
        -11    1    1    2    0    0  0.25232044070E+02 -0.22204948518E+01 -0.13608446580E+02  0.28753720866E+02  0.00000000000E+00 0.  1.
         11    1    1    2    0    0 -0.48757827324E+01 -0.15772538486E+02  0.88258462562E+02  0.89789211164E+02  0.00000000000E+00 0. -1.
<mgrwt>
<rscale>  0 0.11782756E+03</rscale>
<asrwt>0</asrwt>
<pdfrwt beam="1">  1        2 0.13666527E+00 0.12791798E+03</pdfrwt>
<pdfrwt beam="2">  1       -2 0.41712813E-02 0.12791798E+03</pdfrwt>
<totfact> 0.76837364E+03</totfact>
</mgrwt>
</event>
<event>
 7    1  0.5206756E-006  0.1335749E+03  0.7546771E-02  0.1235012E+00
          2   -1    0    0  501    0  0.00000000000E+00  0.00000000000E+00  0.38834137084E+03  0.38834137084E+03  0.00000000000E+00 0. -1.
         -2   -1    0    0    0  501 -0.00000000000E+00 -0.00000000000E+00 -0.41356021413E+02  0.41356021413E+02  0.00000000000E+00 0.  1.
         23    2    1    2    0    0 -0.34240334026E+02 -0.32396807132E+02  0.27075347490E+03  0.30191007302E+03  0.12498117632E+03 0.  0.
          5    1    3    3  502    0 -0.56344929353E+02 -0.65576329419E+02  0.13530651834E+03  0.16063919182E+03  0.47000000000E+01 0. -1.
         -5    1    3    3    0  502  0.22104595327E+02  0.33179522287E+02  0.13544695656E+03  0.14127088120E+03  0.47000000000E+01 0. -1.
        -11    1    1    2    0    0  0.56373093847E+02  0.29554900512E+02  0.82882144658E+02  0.10450295573E+03  0.00000000000E+00 0. -1.
         11    1    1    2    0    0 -0.22132759822E+02  0.28419066205E+01 -0.66502701321E+01  0.23284363495E+02  0.00000000000E+00 0.  1.
<mgrwt>
<rscale>  0 0.12503649E+03</rscale>
<asrwt>0</asrwt>
<pdfrwt beam="1">  1        2 0.59744824E-01 0.13357488E+03</pdfrwt>
<pdfrwt beam="2">  1       -2 0.63624651E-02 0.13357488E+03</pdfrwt>
<totfact> 0.10556059E+04</totfact>
</mgrwt>
</event>
<event>
 7    1  0.5206756E-006  0.1316329E+03  0.7546771E-02  0.1237486E+00
          1   -1    0    0  501    0  0.00000000000E+00  0.00000000000E+00  0.56577679320E+02  0.56577679320E+02  0.00000000000E+00 0. -1.
         -1   -1    0    0    0  501 -0.00000000000E+00 -0.00000000000E+00 -0.24419117825E+03  0.24419117825E+03  0.00000000000E+00 0.  1.
         23    2    1    2    0    0  0.10956444267E+02  0.39779561651E+02 -0.88409773883E+02  0.15856707990E+03  0.12499909405E+03 0.  0.
          5    1    3    3  502    0 -0.32219431198E+02  0.63728680622E+02 -0.81549961120E+02  0.10849849141E+03  0.47000000000E+01 0.  1.
         -5    1    3    3    0  502  0.43175875464E+02 -0.23949118972E+02 -0.68598127636E+01  0.50068588484E+02  0.47000000000E+01 0.  1.
        -11    1    1    2    0    0 -0.16668278208E+02  0.91559497501E+01 -0.90118659820E+02  0.92103397125E+02  0.00000000000E+00 0.  1.
         11    1    1    2    0    0  0.57118339412E+01 -0.48935511401E+02 -0.90850652252E+01  0.50098380545E+02  0.00000000000E+00 0. -1.
<mgrwt>
<rscale>  0 0.12346616E+03</rscale>
<asrwt>0</asrwt>
<pdfrwt beam="1">  1        1 0.87042585E-02 0.13163294E+03</pdfrwt>
<pdfrwt beam="2">  1       -1 0.37567873E-01 0.13163294E+03</pdfrwt>
<totfact> 0.50894697E+03</totfact>
</mgrwt>
</event>
<event>
 7    1  0.5794759E-006  0.1779174E+03  0.7546771E-02  0.1176396E+00
          1   -1    0    0  501    0  0.00000000000E+00  0.00000000000E+00  0.63441879896E+03  0.63441879896E+03  0.00000000000E+00 0. -1.
         -1   -1    0    0    0  501 -0.00000000000E+00 -0.00000000000E+00 -0.43996360522E+02  0.43996360522E+02  0.00000000000E+00 0.  1.
         23    2    1    2    0    0  0.91203282774E+02  0.87815916259E+02  0.36187517654E+03  0.40324713510E+03  0.12499973856E+03 0.  0.
          5    1    3    3  502    0 -0.26624637069E+01  0.80767691047E+02  0.13258398618E+03  0.15534191972E+03  0.47000000000E+01 0. -1.
         -5    1    3    3    0  502  0.93865746481E+02  0.70482252128E+01  0.22929119036E+03  0.24790521539E+03  0.47000000000E+01 0. -1.
        -11    1    1    2    0    0 -0.13550149892E+02 -0.65291760563E+02  0.67062667335E+02  0.94572839175E+02  0.00000000000E+00 0. -1.
         11    1    1    2    0    0 -0.77653132882E+02 -0.22524155696E+02  0.16148459457E+03  0.18059518520E+03  0.00000000000E+00 0.  1.
<mgrwt>
<rscale>  0 0.17139945E+03</rscale>
<asrwt>0</asrwt>
<pdfrwt beam="1">  1        1 0.97602886E-01 0.17791742E+03</pdfrwt>
<pdfrwt beam="2">  1       -1 0.67686713E-02 0.17791742E+03</pdfrwt>
<totfact> 0.35570987E+03</totfact>
</mgrwt>
</event>
<event>
 7    1  0.5206756E-006  0.4672445E+03  0.7546771E-02  0.1023221E+00
          1   -1    0    0  501    0  0.00000000000E+00  0.00000000000E+00  0.13275526840E+04  0.13275526840E+04  0.00000000000E+00 0. -1.
         -1   -1    0    0    0  501 -0.00000000000E+00 -0.00000000000E+00 -0.16234209682E+03  0.16234209682E+03  0.00000000000E+00 0.  1.
         23    2    1    2    0    0  0.26424918065E+03 -0.36450694600E+03  0.62580932669E+03  0.78099598871E+03  0.12499791142E+03 0.  0.
          5    1    3    3  502    0  0.71635405111E+02 -0.15442221860E+03  0.32286929313E+03  0.36502674328E+03  0.47000000000E+01 0.  1.
         -5    1    3    3    0  502  0.19261377554E+03 -0.21008472740E+03  0.30294003356E+03  0.41596924543E+03  0.47000000000E+01 0.  1.
        -11    1    1    2    0    0 -0.97568105330E+02  0.77548483333E+02  0.18805658371E+03  0.22560713890E+03  0.00000000000E+00 0.  1.
         11    1    1    2    0    0 -0.16668107532E+03  0.28695846267E+03  0.35134467683E+03  0.48329165326E+03  0.00000000000E+00 0. -1.
<mgrwt>
<rscale>  0 0.46541829E+03</rscale>
<asrwt>0</asrwt>
<pdfrwt beam="1">  1        1 0.20423887E+00 0.46724450E+03</pdfrwt>
<pdfrwt beam="2">  1       -1 0.24975708E-01 0.46724450E+03</pdfrwt>
<totfact> 0.12730103E+02</totfact>
</mgrwt>
</event>
<event>
 7    1  0.5206756E-006  0.1445376E+03  0.7546771E-02  0.1217400E+00
         -2   -1    0    0    0  501 -0.00000000000E+00  0.00000000000E+00  0.33710728746E+02  0.33710728746E+02  0.00000000000E+00 0.  1.
          2   -1    0    0  501    0  0.00000000000E+00 -0.00000000000E+00 -0.10055500100E+04  0.10055500100E+04  0.00000000000E+00 0. -1.
         23    2    1    2    0    0  0.63462973979E+02 -0.35181816084E+02 -0.87709736425E+03  0.88892682263E+03  0.12500320143E+03 0.  0.
          5    1    3    3  502    0  0.72845360551E+02 -0.59694335139E+02 -0.39527314607E+03  0.40636536541E+03  0.47000000000E+01 0. -1.
         -5    1    3    3    0  502 -0.93823865725E+01  0.24512519056E+02 -0.48182421819E+03  0.48256145723E+03  0.47000000000E+01 0. -1.
        -11    1    1    2    0    0 -0.29670757030E+02 -0.30537543524E+02 -0.29981965562E+02  0.52075077015E+02  0.00000000000E+00 0.  1.
         11    1    1    2    0    0 -0.33792216949E+02  0.65719359607E+02 -0.64759951486E+02  0.98258839144E+02  0.00000000000E+00 0. -1.
<mgrwt>
<rscale>  0 0.13701707E+03</rscale>
<asrwt>0</asrwt>
<pdfrwt beam="2">  1        2 0.15470000E+00 0.14453757E+03</pdfrwt>
<pdfrwt beam="1">  1       -2 0.51862660E-02 0.14453757E+03</pdfrwt>
<totfact> 0.47241926E+03</totfact>
</mgrwt>
</event>
<event>
 7    1  0.5206756E-006  0.1870397E+03  0.7546771E-02  0.1168463E+00
          3   -1    0    0  501    0  0.00000000000E+00  0.00000000000E+00  0.80093208918E+03  0.80093208918E+03  0.00000000000E+00 0. -1.
         -3   -1    0    0    0  501 -0.00000000000E+00 -0.00000000000E+00 -0.43005766056E+02  0.43005766056E+02  0.00000000000E+00 0.  1.
         23    2    1    2    0    0 -0.95185195595E+02  0.10148033883E+03  0.56153674873E+03  0.59186769111E+03  0.12500145190E+03 0.  0.
          5    1    3    3  502    0 -0.30007732151E+01  0.34621680003E+02  0.34849131909E+03  0.35025127387E+03  0.47000000000E+01 0. -1.
         -5    1    3    3    0  502 -0.92184422380E+02  0.66858658831E+02  0.21304542964E+03  0.24161641724E+03  0.47000000000E+01 0. -1.
        -11    1    1    2    0    0  0.62172560402E+02 -0.70729613000E+02  0.68479925439E+02  0.11643713158E+03  0.00000000000E+00 0.  1.
         11    1    1    2    0    0  0.33012635193E+02 -0.30750725834E+02  0.12790964896E+03  0.13563303255E+03  0.00000000000E+00 0. -1.
<mgrwt>
<rscale>  0 0.17932000E+03</rscale>
<asrwt>0</asrwt>
<pdfrwt beam="1">  1        3 0.12322031E+00 0.18703968E+03</pdfrwt>
<pdfrwt beam="2">  1       -3 0.66162723E-02 0.18703968E+03</pdfrwt>
<totfact> 0.19629786E+02</totfact>
</mgrwt>
</event>
<event>
 7    1  0.5206756E-006  0.1310285E+03  0.7546771E-02  0.1240865E+00
         -1   -1    0    0    0  501 -0.00000000000E+00  0.00000000000E+00  0.37051641759E+02  0.37051641759E+02  0.00000000000E+00 0.  1.
          1   -1    0    0  501    0  0.00000000000E+00 -0.00000000000E+00 -0.36494984663E+03  0.36494984663E+03  0.00000000000E+00 0. -1.
         23    2    1    2    0    0 -0.12269199625E+02 -0.37342356286E+02 -0.22920097318E+03  0.26401050668E+03  0.12499390665E+03 0.  0.
          5    1    3    3  502    0 -0.66111542605E+02 -0.17428275161E+02 -0.88175187369E+02  0.11167557704E+03  0.47000000000E+01 0.  1.
         -5    1    3    3    0  502  0.53842342980E+02 -0.19914081125E+02 -0.14102578581E+03  0.15233492964E+03  0.47000000000E+01 0.  1.
        -11    1    1    2    0    0  0.38351422310E+02 -0.66898865137E+01 -0.19106415128E+02  0.43366361086E+02  0.00000000000E+00 0.  1.
         11    1    1    2    0    0 -0.26082222685E+02  0.44032242799E+02 -0.79590816559E+02  0.94624620616E+02  0.00000000000E+00 0. -1.
<mgrwt>
<rscale>  0 0.12136313E+03</rscale>
<asrwt>0</asrwt>
<pdfrwt beam="2">  1        1 0.56146129E-01 0.13102848E+03</pdfrwt>
<pdfrwt beam="1">  1       -1 0.57002527E-02 0.13102848E+03</pdfrwt>
<totfact> 0.93247398E+03</totfact>
</mgrwt>
</event>
<event>
 7    1  0.5206756E-006  0.1350974E+03  0.7546771E-02  0.1238943E+00
         -3   -1    0    0    0  501 -0.00000000000E+00  0.00000000000E+00  0.19316033542E+03  0.19316033542E+03  0.00000000000E+00 0.  1.
          3   -1    0    0  501    0  0.00000000000E+00 -0.00000000000E+00 -0.66928715415E+02  0.66928715415E+02  0.00000000000E+00 0. -1.
         23    2    1    2    0    0 -0.19432232732E+02  0.47413738055E+02  0.64360523771E+02  0.14964489209E+03  0.12500256991E+03 0.  0.
          5    1    3    3  502    0  0.48997904131E+01 -0.33171787779E+02  0.55309333046E+02  0.64850503256E+02  0.47000000000E+01 0. -1.
         -5    1    3    3    0  502 -0.24332023145E+02  0.80585525834E+02  0.90511907248E+01  0.84794388835E+02  0.47000000000E+01 0. -1.
        -11    1    1    2    0    0  0.40709984537E+02 -0.55396778955E+02  0.45649191971E+02  0.82522449596E+02  0.00000000000E+00 0. -1.
         11    1    1    2    0    0 -0.21277751805E+02  0.79830409004E+01  0.16221904264E+02  0.27921709149E+02  0.00000000000E+00 0.  1.
<mgrwt>
<rscale>  0 0.12255336E+03</rscale>
<asrwt>0</asrwt>
<pdfrwt beam="2">  1        3 0.10296726E-01 0.13509743E+03</pdfrwt>
<pdfrwt beam="1">  1       -3 0.29716974E-01 0.13509743E+03</pdfrwt>
<totfact> 0.17607916E+03</totfact>
</mgrwt>
</event>
<event>
 7    1  0.5206756E-006  0.1468886E+03  0.7546771E-02  0.1214487E+00
          2   -1    0    0  501    0  0.00000000000E+00  0.00000000000E+00  0.22138784615E+03  0.22138784615E+03  0.00000000000E+00 0. -1.
         -2   -1    0    0    0  501 -0.00000000000E+00 -0.00000000000E+00 -0.12113803007E+03  0.12113803007E+03  0.00000000000E+00 0.  1.
         23    2    1    2    0    0 -0.27902669233E+02 -0.71899975918E+02  0.15381889176E+03  0.21268874573E+03  0.12501234183E+03 0.  0.
          5    1    3    3  502    0 -0.33171286545E+02  0.25675941369E+02  0.78845806154E+02  0.89433435382E+02  0.47000000000E+01 0.  1.
         -5    1    3    3    0  502  0.52686173121E+01 -0.97575917287E+02  0.74973085609E+02  0.12325531035E+03  0.47000000000E+01 0.  1.
        -11    1    1    2    0    0 -0.28246028488E+02  0.24889784857E+01 -0.72922216381E+01  0.29278142627E+02  0.00000000000E+00 0. -1.
         11    1    1    2    0    0  0.56148697721E+02  0.69410997432E+02 -0.46276854043E+02  0.10055898786E+03  0.00000000000E+00 0.  1.
<mgrwt>
<rscale>  0 0.13914275E+03</rscale>
<asrwt>0</asrwt>
<pdfrwt beam="1">  1        2 0.34059669E-01 0.14688857E+03</pdfrwt>
<pdfrwt beam="2">  1       -2 0.18636620E-01 0.14688857E+03</pdfrwt>
<totfact> 0.34995764E+03</totfact>
</mgrwt>
</event>
<event>
 7    1  0.5206756E-006  0.1251046E+03  0.7546771E-02  0.1252312E+00
          4   -1    0    0  501    0  0.00000000000E+00  0.00000000000E+00  0.20597994108E+02  0.20597994108E+02  0.00000000000E+00 0. -1.
         -4   -1    0    0    0  501 -0.00000000000E+00 -0.00000000000E+00 -0.56409336387E+03  0.56409336387E+03  0.00000000000E+00 0.  1.
         23    2    1    2    0    0 -0.42147700637E+01  0.26646897384E+01 -0.27468990075E+03  0.30183720058E+03  0.12500515677E+03 0.  0.
          5    1    3    3  502    0  0.51589447879E+02  0.32507099612E+02 -0.12148929539E+03  0.13601441670E+03  0.47000000000E+01 0. -1.
         -5    1    3    3    0  502 -0.55804217943E+02 -0.29842409874E+02 -0.15320060537E+03  0.16582278387E+03  0.47000000000E+01 0. -1.
        -11    1    1    2    0    0  0.37003278226E+02 -0.13363444912E+02 -0.21752506535E+03  0.22105424292E+03  0.00000000000E+00 0.  1.
         11    1    1    2    0    0 -0.32788508162E+02  0.10698755173E+02 -0.51280403662E+02  0.61799914478E+02  0.00000000000E+00 0. -1.
<mgrwt>
<rscale>  0 0.11458249E+03</rscale>
<asrwt>0</asrwt>
<pdfrwt beam="1">  1        4 0.31689224E-02 0.12510457E+03</pdfrwt>
<pdfrwt beam="2">  1       -4 0.86783589E-01 0.12510457E+03</pdfrwt>
<totfact> 0.95316019E+02</totfact>
</mgrwt>
</event>
<event>
 7    1  0.5206756E-006  0.1358751E+03  0.7546771E-02  0.1231267E+00
         -1   -1    0    0    0  501 -0.00000000000E+00  0.00000000000E+00  0.43839734454E+02  0.43839734454E+02  0.00000000000E+00 0.  1.
          1   -1    0    0  501    0  0.00000000000E+00 -0.00000000000E+00 -0.37139746652E+03  0.37139746652E+03  0.00000000000E+00 0. -1.
         23    2    1    2    0    0  0.46230043372E+02  0.26447731208E+02 -0.24991535230E+03  0.28446392980E+03  0.12500137857E+03 0.  0.
          5    1    3    3  502    0  0.67087384199E+02  0.73197334164E+01 -0.24645167685E+03  0.25556763222E+03  0.47000000000E+01 0.  1.
         -5    1    3    3    0  502 -0.20857340827E+02  0.19127997792E+02 -0.34636754480E+01  0.28896297574E+02  0.47000000000E+01 0.  1.
        -11    1    1    2    0    0 -0.53570095394E+02  0.29961163570E+01 -0.72788237560E+01  0.54145296278E+02  0.00000000000E+00 0.  1.
         11    1    1    2    0    0  0.73400520217E+01 -0.29443847565E+02 -0.70363556012E+02  0.76627974904E+02  0.00000000000E+00 0. -1.
<mgrwt>
<rscale>  0 0.12746460E+03</rscale>
<asrwt>0</asrwt>
<pdfrwt beam="2">  1        1 0.57138072E-01 0.13587510E+03</pdfrwt>
<pdfrwt beam="1">  1       -1 0.67445745E-02 0.13587510E+03</pdfrwt>
<totfact> 0.71164624E+03</totfact>
</mgrwt>
</event>
<event>
 7    1  0.5206756E-006  0.2144711E+03  0.7546771E-02  0.1141802E+00
         -2   -1    0    0    0  501 -0.00000000000E+00  0.00000000000E+00  0.30988484034E+02  0.30988484034E+02  0.00000000000E+00 0.  1.
          2   -1    0    0  501    0  0.00000000000E+00 -0.00000000000E+00 -0.13739587846E+04  0.13739587846E+04  0.00000000000E+00 0. -1.
         23    2    1    2    0    0 -0.11335462233E+03 -0.13236902017E+03 -0.77353837839E+03  0.80272006141E+03  0.12500818468E+03 0.  0.
          5    1    3    3  502    0 -0.97668120983E+02 -0.20452452509E+02 -0.31635398109E+03  0.33175185910E+03  0.47000000000E+01 0. -1.
         -5    1    3    3    0  502 -0.15686501348E+02 -0.11191656766E+03 -0.45718439731E+03  0.47096820231E+03  0.47000000000E+01 0. -1.
        -11    1    1    2    0    0  0.48089167296E+02  0.12141232405E+02 -0.24773983266E+03  0.25265589687E+03  0.00000000000E+00 0. -1.
         11    1    1    2    0    0  0.65265455034E+02  0.12022778777E+03 -0.32169208955E+03  0.34957131039E+03  0.00000000000E+00 0.  1.
<mgrwt>
<rscale>  0 0.20970233E+03</rscale>
<asrwt>0</asrwt>
<pdfrwt beam="2">  1        2 0.21137826E+00 0.21447115E+03</pdfrwt>
<pdfrwt beam="1">  1       -2 0.47674595E-02 0.21447115E+03</pdfrwt>
<totfact> 0.33538717E+03</totfact>
</mgrwt>
</event>
<event>
 7    1  0.5206756E-006  0.1280780E+03  0.7546771E-02  0.1244830E+00
         -4   -1    0    0    0  501 -0.00000000000E+00  0.00000000000E+00  0.10598303977E+03  0.10598303977E+03  0.00000000000E+00 0.  1.
          4   -1    0    0  501    0  0.00000000000E+00 -0.00000000000E+00 -0.13111425679E+03  0.13111425679E+03  0.00000000000E+00 0. -1.
         23    2    1    2    0    0 -0.26338592515E+02 -0.90264111162E+01 -0.51760085903E+02  0.13814155518E+03  0.12501513997E+03 0.  0.
          5    1    3    3  502    0 -0.34768794084E+02  0.53420561864E+02 -0.17506715318E+02  0.66266134286E+02  0.47000000000E+01 0.  1.
         -5    1    3    3    0  502  0.84302015696E+01 -0.62446972980E+02 -0.34253370585E+02  0.71875420898E+02  0.47000000000E+01 0.  1.
        -11    1    1    2    0    0 -0.83172537649E+01  0.41947336255E+02 -0.27449204367E+01  0.42851958150E+02  0.00000000000E+00 0. -1.
         11    1    1    2    0    0  0.34655846280E+02 -0.32920925139E+02  0.29373789324E+02  0.56103783229E+02  0.00000000000E+00 0.  1.
<mgrwt>
<rscale>  0 0.11895577E+03</rscale>
<asrwt>0</asrwt>
<pdfrwt beam="2">  1        4 0.20171424E-01 0.12807803E+03</pdfrwt>
<pdfrwt beam="1">  1       -4 0.16305083E-01 0.12807803E+03</pdfrwt>
<totfact> 0.11767165E+03</totfact>
</mgrwt>
</event>
<event>
 7    1  0.5206756E-006  0.2121592E+03  0.7546771E-02  0.1143439E+00
         -2   -1    0    0    0  501 -0.00000000000E+00  0.00000000000E+00  0.65740355547E+03  0.65740355547E+03  0.00000000000E+00 0.  1.
          2   -1    0    0  501    0  0.00000000000E+00 -0.00000000000E+00 -0.72079830515E+02  0.72079830515E+02  0.00000000000E+00 0. -1.
         23    2    1    2    0    0 -0.10534542924E+03  0.13523226098E+03  0.17391573413E+03  0.27433228620E+03  0.12500438712E+03 0.  0.
          5    1    3    3  502    0 -0.12234106060E+03  0.66701787270E+02  0.13250166293E+03  0.19234147814E+03  0.47000000000E+01 0. -1.
         -5    1    3    3    0  502  0.16995631362E+02  0.68530473713E+02  0.41414071209E+02  0.81990808062E+02  0.47000000000E+01 0. -1.
        -11    1    1    2    0    0 -0.15356837372E+00 -0.59636366309E+02  0.18265393443E+03  0.19214312253E+03  0.00000000000E+00 0.  1.
         11    1    1    2    0    0  0.10549899761E+03 -0.75595894673E+02  0.22875405638E+03  0.26300797726E+03  0.00000000000E+00 0. -1.
<mgrwt>
<rscale>  0 0.20765140E+03</rscale>
<asrwt>0</asrwt>
<pdfrwt beam="2">  1        2 0.11089205E-01 0.21215919E+03</pdfrwt>
<pdfrwt beam="1">  1       -2 0.10113900E+00 0.21215919E+03</pdfrwt>
<totfact> 0.46896978E+02</totfact>
</mgrwt>
</event>
<event>
 7    1  0.5206756E-006  0.1371287E+03  0.7546771E-02  0.1228410E+00
         -2   -1    0    0    0  501 -0.00000000000E+00  0.00000000000E+00  0.20434034806E+03  0.20434034806E+03  0.00000000000E+00 0.  1.
          2   -1    0    0  501    0  0.00000000000E+00 -0.00000000000E+00 -0.88976626740E+02  0.88976626740E+02  0.00000000000E+00 0. -1.
         23    2    1    2    0    0  0.22660282287E+02 -0.51651215888E+02  0.31531494821E+01  0.13716499205E+03  0.12499182452E+03 0.  0.
          5    1    3    3  502    0 -0.33774561052E+02 -0.66720827900E+02  0.17255467069E+02  0.76891033247E+02  0.47000000000E+01 0. -1.
         -5    1    3    3    0  502  0.56434843338E+02  0.15069612012E+02 -0.14102317587E+02  0.60273958806E+02  0.47000000000E+01 0. -1.
        -11    1    1    2    0    0  0.19358928382E+02  0.61034787451E+02  0.79508810630E+02  0.10208655325E+03  0.00000000000E+00 0. -1.
         11    1    1    2    0    0 -0.42019210669E+02 -0.93835715630E+01  0.32701761212E+02  0.54065429498E+02  0.00000000000E+00 0.  1.
<mgrwt>
<rscale>  0 0.12935877E+03</rscale>
<asrwt>0</asrwt>
<pdfrwt beam="2">  1        2 0.13688712E-01 0.13712874E+03</pdfrwt>
<pdfrwt beam="1">  1       -2 0.31436976E-01 0.13712874E+03</pdfrwt>
<totfact> 0.39087753E+03</totfact>
</mgrwt>
</event>
<event>
 6    1  0.5206756E-006  0.2390128E+03  0.7546771E-02  0.1146352E+00
          1   -1    0    0  501    0  0.00000000000E+00  0.00000000000E+00  0.38972679800E+03  0.38972679800E+03  0.00000000000E+00 0. -1.
         -1   -1    0    0    0  501 -0.00000000000E+00 -0.00000000000E+00 -0.90208268688E+02  0.90208268688E+02  0.00000000000E+00 0.  1.
          5    1    1    2  502    0  0.37138047553E+02  0.72688187880E+02  0.82437844333E+02  0.11610725822E+03  0.47000000000E+01 0. -1.
         -5    1    1    2    0  502 -0.25130148438E+02 -0.15515671388E+03  0.16079732104E+03  0.22490664436E+03  0.47000000000E+01 0.  1.
        -11    1    1    2    0    0 -0.88141184589E+01  0.10443276396E+03  0.45793288632E+02  0.11437183288E+03  0.00000000000E+00 0.  1.
         11    1    1    2    0    0 -0.31937806565E+01 -0.21964237956E+02  0.10490075300E+02  0.24549331227E+02  0.00000000000E+00 0. -1.
<mgrwt>
<rscale>  0 0.20406781E+03</rscale>
<asrwt>0</asrwt>
<pdfrwt beam="1">  1        1 0.59957968E-01 0.23901284E+03</pdfrwt>
<pdfrwt beam="2">  1       -1 0.13878195E-01 0.23901284E+03</pdfrwt>
<totfact> 0.22669294E+03</totfact>
</mgrwt>
</event>
<event>
 7    1  0.5206756E-006  0.1799125E+03  0.7546771E-02  0.1173428E+00
         -1   -1    0    0    0  501 -0.00000000000E+00  0.00000000000E+00  0.29138939050E+02  0.29138939050E+02  0.00000000000E+00 0.  1.
          1   -1    0    0  501    0  0.00000000000E+00 -0.00000000000E+00 -0.13854473827E+04  0.13854473827E+04  0.00000000000E+00 0. -1.
         23    2    1    2    0    0  0.10372321095E+03 -0.77360237449E+02 -0.10893648047E+04  0.11041214518E+04  0.12500156665E+03 0.  0.
          5    1    3    3  502    0  0.69402387789E+02  0.18495583313E+02 -0.59658915468E+03  0.60091554108E+03  0.47000000000E+01 0.  1.
         -5    1    3    3    0  502  0.34320823158E+02 -0.95855820762E+02 -0.49277565005E+03  0.50320591070E+03  0.47000000000E+01 0.  1.
        -11    1    1    2    0    0 -0.17099844541E+02  0.47110625089E+01  0.28284514795E+01  0.17961039254E+02  0.00000000000E+00 0.  1.
         11    1    1    2    0    0 -0.86623366406E+02  0.72649174940E+02 -0.26977209042E+03  0.29250383074E+03  0.00000000000E+00 0. -1.
<mgrwt>
<rscale>  0 0.17430868E+03</rscale>
<asrwt>0</asrwt>
<pdfrwt beam="2">  1        1 0.21314572E+00 0.17991249E+03</pdfrwt>
<pdfrwt beam="1">  1       -1 0.44829143E-02 0.17991249E+03</pdfrwt>
<totfact> 0.17712845E+03</totfact>
</mgrwt>
</event>
<event>
 7    1  0.5206756E-006  0.1195356E+03  0.7546771E-02  0.1255385E+00
         -2   -1    0    0    0  501 -0.00000000000E+00  0.00000000000E+00  0.13768199709E+03  0.13768199709E+03  0.00000000000E+00 0.  1.
          2   -1    0    0  501    0  0.00000000000E+00 -0.00000000000E+00 -0.97680398314E+02  0.97680398314E+02  0.00000000000E+00 0. -1.
         23    2    1    2    0    0 -0.16872790116E+02  0.18506329056E+02 -0.22575988580E+02  0.12164882721E+03  0.11688279018E+03 0.  0.
          5    1    3    3  502    0  0.31513568979E+02 -0.82872389245E+01 -0.49897986340E+02  0.59780284372E+02  0.47000000000E+01 0. -1.
         -5    1    3    3    0  502 -0.48386359095E+02  0.26793567981E+02  0.27321997760E+02  0.61868542841E+02  0.47000000000E+01 0.  1.
        -11    1    1    2    0    0 -0.30221482178E+02  0.94089649630E+01  0.47232598856E+02  0.56857585258E+02  0.00000000000E+00 0.  1.
         11    1    1    2    0    0  0.47094272294E+02 -0.27915294019E+02  0.15344988499E+02  0.56855982931E+02  0.00000000000E+00 0. -1.
<mgrwt>
<rscale>  0 0.11284767E+03</rscale>
<asrwt>0</asrwt>
<pdfrwt beam="2">  1        2 0.15027753E-01 0.11953561E+03</pdfrwt>
<pdfrwt beam="1">  1       -2 0.21181846E-01 0.11953561E+03</pdfrwt>
<totfact> 0.69345407E+03</totfact>
</mgrwt>
</event>
<event>
 7    1  0.5206756E-006  0.1338493E+03  0.7546771E-02  0.1230292E+00
         -2   -1    0    0    0  501 -0.00000000000E+00  0.00000000000E+00  0.63388939945E+02  0.63388939945E+02  0.00000000000E+00 0.  1.
          2   -1    0    0  501    0  0.00000000000E+00 -0.00000000000E+00 -0.31725429766E+03  0.31725429766E+03  0.00000000000E+00 0. -1.
         23    2    1    2    0    0 -0.45919547523E+02 -0.13463458377E+02 -0.22955307935E+03  0.26572587073E+03  0.12500301029E+03 0.  0.
          5    1    3    3  502    0 -0.78585568858E+02 -0.30167908918E+02 -0.20409455272E+03  0.22082226068E+03  0.47000000000E+01 0.  1.
         -5    1    3    3    0  502  0.32666021335E+02  0.16704450540E+02 -0.25458526626E+02  0.44903610052E+02  0.47000000000E+01 0.  1.
        -11    1    1    2    0    0  0.34384982940E+02 -0.25279528434E+02  0.26309835012E+02  0.50135706118E+02  0.00000000000E+00 0.  1.
         11    1    1    2    0    0  0.11534564583E+02  0.38742986811E+02 -0.50622113381E+02  0.64781660756E+02  0.00000000000E+00 0. -1.
<mgrwt>
<rscale>  0 0.12810689E+03</rscale>
<asrwt>0</asrwt>
<pdfrwt beam="2">  1        2 0.48808353E-01 0.13384925E+03</pdfrwt>
<pdfrwt beam="1">  1       -2 0.97521446E-02 0.13384925E+03</pdfrwt>
<totfact> 0.67713271E+03</totfact>
</mgrwt>
</event>
<event>
 7    1  0.5206756E-006  0.1460910E+03  0.7546771E-02  0.1215115E+00
          2   -1    0    0  501    0  0.00000000000E+00  0.00000000000E+00  0.87030957224E+03  0.87030957224E+03  0.00000000000E+00 0. -1.
         -2   -1    0    0    0  501 -0.00000000000E+00 -0.00000000000E+00 -0.20226746504E+02  0.20226746504E+02  0.00000000000E+00 0.  1.
         23    2    1    2    0    0  0.50520552384E+02 -0.56282913997E+02  0.49957144507E+03  0.52049419284E+03  0.12498993333E+03 0.  0.
          5    1    3    3  502    0  0.56329522869E+02 -0.35523455333E+02  0.99541651164E+02  0.11985641969E+03  0.47000000000E+01 0.  1.
         -5    1    3    3    0  502 -0.58089704857E+01 -0.20759458664E+02  0.40002979390E+03  0.40063777315E+03  0.47000000000E+01 0.  1.
        -11    1    1    2    0    0 -0.28302796814E+02 -0.14084834398E+02  0.40545682151E+02  0.51413842578E+02  0.00000000000E+00 0.  1.
         11    1    1    2    0    0 -0.22217755569E+02  0.70367748395E+02  0.30996569851E+03  0.31862828332E+03  0.00000000000E+00 0. -1.
<mgrwt>
<rscale>  0 0.13868059E+03</rscale>
<asrwt>0</asrwt>
<pdfrwt beam="1">  1        2 0.13389375E+00 0.14609099E+03</pdfrwt>
<pdfrwt beam="2">  1       -2 0.31118078E-02 0.14609099E+03</pdfrwt>
<totfact> 0.12266947E+04</totfact>
</mgrwt>
</event>
<event>
 7    1  0.5206756E-006  0.1366111E+03  0.7546771E-02  0.1231198E+00
          1   -1    0    0  501    0  0.00000000000E+00  0.00000000000E+00  0.29324080561E+03  0.29324080561E+03  0.00000000000E+00 0. -1.
         -1   -1    0    0    0  501 -0.00000000000E+00 -0.00000000000E+00 -0.82084294051E+02  0.82084294051E+02  0.00000000000E+00 0.  1.
         23    2    1    2    0    0 -0.35172966095E+02 -0.42405545572E+02  0.23231268241E+03  0.26950280411E+03  0.12500884440E+03 0.  0.
          5    1    3    3  502    0  0.21719445188E+02 -0.34536852876E+02  0.13501846991E+02  0.43230988631E+02  0.47000000000E+01 0.  1.
         -5    1    3    3    0  502 -0.56892411282E+02 -0.78686926967E+01  0.21881083542E+03  0.22627181548E+03  0.47000000000E+01 0.  1.
        -11    1    1    2    0    0 -0.12130140628E+02  0.40435930170E+02  0.16502848099E+02  0.45327130460E+02  0.00000000000E+00 0. -1.
         11    1    1    2    0    0  0.47303106722E+02  0.19696154025E+01 -0.37659018950E+02  0.60495165085E+02  0.00000000000E+00 0.  1.
<mgrwt>
<rscale>  0 0.12751003E+03</rscale>
<asrwt>0</asrwt>
<pdfrwt beam="1">  1        1 0.45113969E-01 0.13661105E+03</pdfrwt>
<pdfrwt beam="2">  1       -1 0.12628353E-01 0.13661105E+03</pdfrwt>
<totfact> 0.36797903E+03</totfact>
</mgrwt>
</event>
<event>
 7    1  0.5206756E-006  0.1352555E+03  0.7546771E-02  0.1231882E+00
          1   -1    0    0  501    0  0.00000000000E+00  0.00000000000E+00  0.15545970872E+03  0.15545970872E+03  0.00000000000E+00 0. -1.
         -1   -1    0    0    0  501 -0.00000000000E+00 -0.00000000000E+00 -0.11511018011E+03  0.11511018011E+03  0.00000000000E+00 0.  1.
         23    2    1    2    0    0 -0.51139680390E+02 -0.73284383997E+01  0.81005166608E+02  0.15765747762E+03  0.12500028125E+03 0.  0.
          5    1    3    3  502    0 -0.54325384283E+02  0.37820381051E+02  0.18876632095E+01  0.66387362297E+02  0.47000000000E+01 0. -1.
         -5    1    3    3    0  502  0.31857038929E+01 -0.45148819451E+02  0.79117503398E+02  0.91270115323E+02  0.47000000000E+01 0. -1.
        -11    1    1    2    0    0  0.13210373208E+02 -0.41410869238E+02 -0.14222933123E+02  0.45734733824E+02  0.00000000000E+00 0.  1.
         11    1    1    2    0    0  0.37929307182E+02  0.48739307637E+02 -0.26432704875E+02  0.67177677388E+02  0.00000000000E+00 0. -1.
<mgrwt>
<rscale>  0 0.12706138E+03</rscale>
<asrwt>0</asrwt>
<pdfrwt beam="1">  1        1 0.23916878E-01 0.13525547E+03</pdfrwt>
<pdfrwt beam="2">  1       -1 0.17709258E-01 0.13525547E+03</pdfrwt>
<totfact> 0.47634199E+03</totfact>
</mgrwt>
</event>
<event>
 7    1  0.5206756E-006  0.2373573E+03  0.7546771E-02  0.1124358E+00
         -2   -1    0    0    0  501 -0.00000000000E+00  0.00000000000E+00  0.10468454686E+04  0.10468454686E+04  0.00000000000E+00 0.  1.
          2   -1    0    0  501    0  0.00000000000E+00 -0.00000000000E+00 -0.50299893248E+02  0.50299893248E+02  0.00000000000E+00 0. -1.
         23    2    1    2    0    0 -0.91025458185E+02  0.18008143608E+03  0.52955188923E+03  0.58031343136E+03  0.12499407015E+03 0.  0.
          5    1    3    3  502    0 -0.44030060782E+02  0.14466960537E+03  0.23207310440E+03  0.27703421586E+03  0.47000000000E+01 0. -1.
         -5    1    3    3    0  502 -0.46995397403E+02  0.35411830702E+02  0.29747878483E+03  0.30327921550E+03  0.47000000000E+01 0. -1.
        -11    1    1    2    0    0  0.18316289892E+02 -0.58505635330E+02  0.25210494376E+03  0.25945191946E+03  0.00000000000E+00 0.  1.
         11    1    1    2    0    0  0.72709168293E+02 -0.12157580074E+03  0.21488874231E+03  0.25738001098E+03  0.00000000000E+00 0. -1.
<mgrwt>
<rscale>  0 0.23327168E+03</rscale>
<asrwt>0</asrwt>
<pdfrwt beam="2">  1        2 0.77384459E-02 0.23735727E+03</pdfrwt>
<pdfrwt beam="1">  1       -2 0.16105313E+00 0.23735727E+03</pdfrwt>
<totfact> 0.23335239E+02</totfact>
</mgrwt>
</event>
<event>
 7    1  0.5206756E-006  0.1402518E+03  0.7546771E-02  0.1223580E+00
          1   -1    0    0  501    0  0.00000000000E+00  0.00000000000E+00  0.52815518749E+02  0.52815518749E+02  0.00000000000E+00 0. -1.
         -1   -1    0    0    0  501 -0.00000000000E+00 -0.00000000000E+00 -0.39164427456E+03  0.39164427456E+03  0.00000000000E+00 0.  1.
         23    2    1    2    0    0  0.37879693916E+02 -0.51104138197E+02 -0.77925593584E+02  0.16044611443E+03  0.12499621334E+03 0.  0.
          5    1    3    3  502    0 -0.14062100167E+02 -0.31324063677E+02  0.25439926093E+02  0.42990923065E+02  0.47000000000E+01 0.  1.
         -5    1    3    3    0  502  0.51941794083E+02 -0.19780074520E+02 -0.10336551968E+03  0.11745519137E+03  0.47000000000E+01 0.  1.
        -11    1    1    2    0    0 -0.58558500925E+02  0.24698978220E+01 -0.15359778000E+03  0.16440035416E+03  0.00000000000E+00 0.  1.
         11    1    1    2    0    0  0.20678807009E+02  0.48634240375E+02 -0.10730538223E+03  0.11961332472E+03  0.00000000000E+00 0. -1.
<mgrwt>
<rscale>  0 0.13264740E+03</rscale>
<asrwt>0</asrwt>
<pdfrwt beam="1">  1        1 0.81254645E-02 0.14025176E+03</pdfrwt>
<pdfrwt beam="2">  1       -1 0.60252965E-01 0.14025176E+03</pdfrwt>
<totfact> 0.23801938E+03</totfact>
</mgrwt>
</event>
<event>
 7    1  0.5206756E-006  0.1459306E+03  0.7546771E-02  0.1215562E+00
         -1   -1    0    0    0  501 -0.00000000000E+00  0.00000000000E+00  0.67141999876E+02  0.67141999876E+02  0.00000000000E+00 0.  1.
          1   -1    0    0  501    0  0.00000000000E+00 -0.00000000000E+00 -0.26377461953E+03  0.26377461953E+03  0.00000000000E+00 0. -1.
         23    2    1    2    0    0  0.35420984068E+02 -0.66460039656E+02 -0.13030067162E+03  0.19563740525E+03  0.12499658525E+03 0.  0.
          5    1    3    3  502    0  0.24960679042E+02 -0.83791741755E+02 -0.29011173761E+02  0.92237897241E+02  0.47000000000E+01 0. -1.
         -5    1    3    3    0  502  0.10460305026E+02  0.17331702099E+02 -0.10128949786E+03  0.10339950801E+03  0.47000000000E+01 0. -1.
        -11    1    1    2    0    0 -0.74385527689E+01  0.23817577361E+02  0.22009052932E+02  0.33271721771E+02  0.00000000000E+00 0.  1.
         11    1    1    2    0    0 -0.27982431299E+02  0.42642462295E+02 -0.88341000963E+02  0.10200749239E+03  0.00000000000E+00 0. -1.
<mgrwt>
<rscale>  0 0.13835302E+03</rscale>
<asrwt>0</asrwt>
<pdfrwt beam="2">  1        1 0.40580711E-01 0.14593056E+03</pdfrwt>
<pdfrwt beam="1">  1       -1 0.10329538E-01 0.14593056E+03</pdfrwt>
<totfact> 0.57366450E+03</totfact>
</mgrwt>
</event>
<event>
 7    1  0.5206756E-006  0.1369023E+03  0.7546771E-02  0.1229115E+00
         -2   -1    0    0    0  501 -0.00000000000E+00  0.00000000000E+00  0.58984645815E+02  0.58984645815E+02  0.00000000000E+00 0.  1.
          2   -1    0    0  501    0  0.00000000000E+00 -0.00000000000E+00 -0.26751958933E+03  0.26751958933E+03  0.00000000000E+00 0. -1.
         23    2    1    2    0    0 -0.24235702899E+02 -0.50290115212E+02 -0.15352979626E+03  0.20570281998E+03  0.12500314726E+03 0.  0.
          5    1    3    3  502    0 -0.53045479282E+02 -0.58109014120E+02 -0.40329682503E+02  0.88538430554E+02  0.47000000000E+01 0.  1.
         -5    1    3    3    0  502  0.28809776383E+02  0.78188989077E+01 -0.11320011375E+03  0.11716438943E+03  0.47000000000E+01 0.  1.
        -11    1    1    2    0    0  0.49927841046E+02  0.48549502370E+02 -0.11987131374E+02  0.70664947538E+02  0.00000000000E+00 0.  1.
         11    1    1    2    0    0 -0.25692138148E+02  0.17406128421E+01 -0.43018015888E+02  0.50136467632E+02  0.00000000000E+00 0. -1.
<mgrwt>
<rscale>  0 0.12888807E+03</rscale>
<asrwt>0</asrwt>
<pdfrwt beam="2">  1        2 0.41156861E-01 0.13690234E+03</pdfrwt>
<pdfrwt beam="1">  1       -2 0.90745606E-02 0.13690234E+03</pdfrwt>
<totfact> 0.90929304E+03</totfact>
</mgrwt>
</event>
<event>
 6    1  0.5206756E-006  0.2413031E+03  0.7546771E-02  0.1133517E+00
         -2   -1    0    0    0  501 -0.00000000000E+00  0.00000000000E+00  0.64652036341E+02  0.64652036341E+02  0.00000000000E+00 0.  1.
          2   -1    0    0  501    0  0.00000000000E+00 -0.00000000000E+00 -0.66155653753E+03  0.66155653753E+03  0.00000000000E+00 0. -1.
          5    1    1    2  502    0  0.21357953825E+02 -0.15125105944E+02 -0.33716198237E+03  0.33820884580E+03  0.47000000000E+01 0. -1.
         -5    1    1    2    0  502  0.95178979086E+02 -0.60634100740E+02 -0.63690349882E+02  0.12966912856E+03  0.47000000000E+01 0.  1.
        -11    1    1    2    0    0 -0.91041909564E+01 -0.10771767972E+02 -0.70192211121E+02  0.71595137965E+02  0.00000000000E+00 0.  1.
         11    1    1    2    0    0 -0.10743274196E+03  0.86530974656E+02 -0.12585995782E+03  0.18673546155E+03  0.00000000000E+00 0. -1.
<mgrwt>
<rscale>  0 0.22049166E+03</rscale>
<asrwt>0</asrwt>
<pdfrwt beam="2">  1        2 0.10177793E+00 0.24130314E+03</pdfrwt>
<pdfrwt beam="1">  1       -2 0.99464668E-02 0.24130314E+03</pdfrwt>
<totfact> 0.29901963E+03</totfact>
</mgrwt>
</event>
<event>
 7    1  0.5206756E-006  0.2114357E+03  0.7546771E-02  0.1144038E+00
          1   -1    0    0  501    0  0.00000000000E+00  0.00000000000E+00  0.13759682447E+03  0.13759682447E+03  0.00000000000E+00 0. -1.
         -1   -1    0    0    0  501 -0.00000000000E+00 -0.00000000000E+00 -0.30004017052E+03  0.30004017052E+03  0.00000000000E+00 0.  1.
         23    2    1    2    0    0 -0.87617081762E+00 -0.17052602314E+03 -0.10033938995E+03  0.23403644436E+03  0.12500068748E+03 0.  0.
          5    1    3    3  502    0  0.35924333750E+01 -0.16274199539E+03 -0.33279042498E+02  0.16621506343E+03  0.47000000000E+01 0.  1.
         -5    1    3    3    0  502 -0.44686041927E+01 -0.77840277514E+01 -0.67060347456E+02  0.67821380938E+02  0.47000000000E+01 0.  1.
        -11    1    1    2    0    0 -0.38020034645E+02  0.32868858697E+02 -0.92547727802E+01  0.51103187041E+02  0.00000000000E+00 0.  1.
         11    1    1    2    0    0  0.38896205463E+02  0.13765716444E+03 -0.52849183319E+02  0.15249736358E+03  0.00000000000E+00 0. -1.
<mgrwt>
<rscale>  0 0.20690781E+03</rscale>
<asrwt>0</asrwt>
<pdfrwt beam="1">  1        1 0.21168742E-01 0.21143572E+03</pdfrwt>
<pdfrwt beam="2">  1       -1 0.46160026E-01 0.21143572E+03</pdfrwt>
<totfact> 0.11249268E+03</totfact>
</mgrwt>
</event>
<event>
 7    1  0.5206756E-006  0.2019680E+03  0.7546771E-02  0.1152307E+00
         -2   -1    0    0    0  501 -0.00000000000E+00  0.00000000000E+00  0.49296979679E+02  0.49296979679E+02  0.00000000000E+00 0.  1.
          2   -1    0    0  501    0  0.00000000000E+00 -0.00000000000E+00 -0.12389731485E+04  0.12389731485E+04  0.00000000000E+00 0. -1.
         23    2    1    2    0    0  0.91822755914E+02  0.12939035718E+03 -0.10169096749E+04  0.10367720828E+04  0.12497112398E+03 0.  0.
          5    1    3    3  502    0  0.71451972024E+02  0.21093251994E+02 -0.22124262962E+03  0.23349668251E+03  0.47000000000E+01 0.  1.
         -5    1    3    3    0  502  0.20370783889E+02  0.10829710518E+03 -0.79566704524E+03  0.80327540028E+03  0.47000000000E+01 0.  1.
        -11    1    1    2    0    0 -0.88197190132E+02 -0.71032219748E+02 -0.69625112874E+02  0.13293598810E+03  0.00000000000E+00 0.  1.
         11    1    1    2    0    0 -0.36255657817E+01 -0.58358137429E+02 -0.10314138107E+03  0.11856205725E+03  0.00000000000E+00 0. -1.
<mgrwt>
<rscale>  0 0.19698587E+03</rscale>
<asrwt>0</asrwt>
<pdfrwt beam="2">  1        2 0.19061125E+00 0.20196798E+03</pdfrwt>
<pdfrwt beam="1">  1       -2 0.75841510E-02 0.20196798E+03</pdfrwt>
<totfact> 0.19517421E+03</totfact>
</mgrwt>
</event>
<event>
 7    1  0.5206756E-006  0.1279844E+03  0.7546771E-02  0.1243308E+00
          2   -1    0    0  501    0  0.00000000000E+00  0.00000000000E+00  0.32735981574E+03  0.32735981574E+03  0.00000000000E+00 0. -1.
         -2   -1    0    0    0  501 -0.00000000000E+00 -0.00000000000E+00 -0.39277125675E+02  0.39277125675E+02  0.00000000000E+00 0.  1.
         23    2    1    2    0    0  0.10624810106E+02  0.25345539833E+02  0.17220357879E+03  0.21455553224E+03  0.12499888353E+03 0.  0.
          5    1    3    3  502    0 -0.26275518494E+02  0.61361182486E+02  0.13539523882E+03  0.15102833603E+03  0.47000000000E+01 0.  1.
         -5    1    3    3    0  502  0.36900328600E+02 -0.36015642653E+02  0.36808339975E+02  0.63527196209E+02  0.47000000000E+01 0.  1.
        -11    1    1    2    0    0 -0.52805388775E+02 -0.17009620224E+02  0.66755536623E+02  0.86798836015E+02  0.00000000000E+00 0.  1.
         11    1    1    2    0    0  0.42180578669E+02 -0.83359196088E+01  0.49123574650E+02  0.65282573164E+02  0.00000000000E+00 0. -1.
<mgrwt>
<rscale>  0 0.11987224E+03</rscale>
<asrwt>0</asrwt>
<pdfrwt beam="1">  1        2 0.50363047E-01 0.12798439E+03</pdfrwt>
<pdfrwt beam="2">  1       -2 0.60426349E-02 0.12798439E+03</pdfrwt>
<totfact> 0.13639326E+04</totfact>
</mgrwt>
</event>
<event>
 7    1  0.5206756E-006  0.1338564E+03  0.7546771E-02  0.1233878E+00
          2   -1    0    0  501    0  0.00000000000E+00  0.00000000000E+00  0.29236540095E+03  0.29236540095E+03  0.00000000000E+00 0. -1.
         -2   -1    0    0    0  501 -0.00000000000E+00 -0.00000000000E+00 -0.79306840811E+02  0.79306840811E+02  0.00000000000E+00 0.  1.
         23    2    1    2    0    0  0.46781449487E+02 -0.10162727386E+02  0.22988185758E+03  0.26601352055E+03  0.12500295848E+03 0.  0.
          5    1    3    3  502    0  0.74739625299E+02 -0.45100320398E+02  0.16945735136E+03  0.19067756664E+03  0.47000000000E+01 0.  1.
         -5    1    3    3    0  502 -0.27958175813E+02  0.34937593012E+02  0.60424506216E+02  0.75335953911E+02  0.47000000000E+01 0.  1.
        -11    1    1    2    0    0  0.10543276292E+02  0.26475086804E+02 -0.33293821343E+02  0.43824301887E+02  0.00000000000E+00 0. -1.
         11    1    1    2    0    0 -0.57324725778E+02 -0.16312359418E+02  0.16470523908E+02  0.61834419324E+02  0.00000000000E+00 0.  1.
<mgrwt>
<rscale>  0 0.12576551E+03</rscale>
<asrwt>0</asrwt>
<pdfrwt beam="1">  1        2 0.44979292E-01 0.13385636E+03</pdfrwt>
<pdfrwt beam="2">  1       -2 0.12201053E-01 0.13385636E+03</pdfrwt>
<totfact> 0.51792515E+03</totfact>
</mgrwt>
</event>
<event>
 7    1  0.5206756E-006  0.1495383E+03  0.7546771E-02  0.1210165E+00
          2   -1    0    0  501    0  0.00000000000E+00  0.00000000000E+00  0.76368223742E+02  0.76368223742E+02  0.00000000000E+00 0. -1.
         -2   -1    0    0    0  501 -0.00000000000E+00 -0.00000000000E+00 -0.37957194797E+03  0.37957194797E+03  0.00000000000E+00 0.  1.
         23    2    1    2    0    0 -0.66670941413E+02 -0.48231361497E+02 -0.24746925130E+02  0.15157213987E+03  0.12486162189E+03 0.  0.
          5    1    3    3  502    0 -0.17080167410E+01 -0.38623317211E+02  0.42373388117E+02  0.57552341170E+02  0.47000000000E+01 0. -1.
         -5    1    3    3    0  502 -0.64962924672E+02 -0.96080442856E+01 -0.67120313247E+02  0.94019798698E+02  0.47000000000E+01 0. -1.
        -11    1    1    2    0    0  0.45185047034E+02  0.58168687543E+02 -0.26895687627E+03  0.27886033418E+03  0.00000000000E+00 0.  1.
         11    1    1    2    0    0  0.21485894379E+02 -0.99373260465E+01 -0.94999228220E+01  0.25507697658E+02  0.00000000000E+00 0. -1.
<mgrwt>
<rscale>  0 0.14237790E+03</rscale>
<asrwt>0</asrwt>
<pdfrwt beam="1">  1        2 0.11748957E-01 0.14953830E+03</pdfrwt>
<pdfrwt beam="2">  1       -2 0.58395685E-01 0.14953830E+03</pdfrwt>
<totfact> 0.14329420E+03</totfact>
</mgrwt>
</event>
<event>
 7    1  0.5206756E-006  0.1309646E+03  0.7546771E-02  0.1238039E+00
          1   -1    0    0  501    0  0.00000000000E+00  0.00000000000E+00  0.16604186949E+03  0.16604186949E+03  0.00000000000E+00 0. -1.
         -1   -1    0    0    0  501 -0.00000000000E+00 -0.00000000000E+00 -0.82372891528E+02  0.82372891528E+02  0.00000000000E+00 0.  1.
         23    2    1    2    0    0  0.30223647360E+02 -0.24703120169E+02  0.56098469562E+02  0.14247377635E+03  0.12501210203E+03 0.  0.
          5    1    3    3  502    0 -0.77071868662E+01  0.31424790053E+02  0.66187493977E+02  0.73822710044E+02  0.47000000000E+01 0. -1.
         -5    1    3    3    0  502  0.37930834226E+02 -0.56127910222E+02 -0.10089024415E+02  0.68651066304E+02  0.47000000000E+01 0. -1.
        -11    1    1    2    0    0 -0.36405712294E+02  0.56118823268E+02  0.31023632981E+02  0.73737127798E+02  0.00000000000E+00 0. -1.
         11    1    1    2    0    0  0.61820649339E+01 -0.31415703099E+02 -0.34531245813E+01  0.32203856872E+02  0.00000000000E+00 0.  1.
<mgrwt>
<rscale>  0 0.12311882E+03</rscale>
<asrwt>0</asrwt>
<pdfrwt beam="1">  1        1 0.25544903E-01 0.13096465E+03</pdfrwt>
<pdfrwt beam="2">  1       -1 0.12672753E-01 0.13096465E+03</pdfrwt>
<totfact> 0.73919549E+03</totfact>
</mgrwt>
</event>
<event>
 7    1  0.5206756E-006  0.1317363E+03  0.7546771E-02  0.1236753E+00
         -2   -1    0    0    0  501 -0.00000000000E+00  0.00000000000E+00  0.11711283802E+02  0.11711283802E+02  0.00000000000E+00 0.  1.
          2   -1    0    0  501    0  0.00000000000E+00 -0.00000000000E+00 -0.20029514635E+04  0.20029514635E+04  0.00000000000E+00 0. -1.
         23    2    1    2    0    0 -0.26820354789E+02 -0.31793795903E+02 -0.17104783328E+04  0.17155438130E+04  0.12499708086E+03 0.  0.
          5    1    3    3  502    0 -0.40606243602E+02  0.35238830526E+02 -0.10793739161E+04  0.10807223432E+04  0.47000000000E+01 0. -1.
         -5    1    3    3    0  502  0.13785888813E+02 -0.67032626429E+02 -0.63110441669E+03  0.63482146979E+03  0.47000000000E+01 0. -1.
        -11    1    1    2    0    0  0.34806510708E+02  0.62399546977E+02 -0.20037019290E+03  0.21272849093E+03  0.00000000000E+00 0. -1.
         11    1    1    2    0    0 -0.79861559194E+01 -0.30605751075E+02 -0.80391653995E+02  0.86390443437E+02  0.00000000000E+00 0.  1.
<mgrwt>
<rscale>  0 0.12392869E+03</rscale>
<asrwt>0</asrwt>
<pdfrwt beam="2">  1        2 0.30814621E+00 0.13173628E+03</pdfrwt>
<pdfrwt beam="1">  1       -2 0.18017370E-02 0.13173628E+03</pdfrwt>
<totfact> 0.65985862E+03</totfact>
</mgrwt>
</event>
<event>
 7    1  0.5206756E-006  0.1992009E+03  0.7546771E-02  0.1154714E+00
         -2   -1    0    0    0  501 -0.00000000000E+00  0.00000000000E+00  0.17808643058E+03  0.17808643058E+03  0.00000000000E+00 0.  1.
          2   -1    0    0  501    0  0.00000000000E+00 -0.00000000000E+00 -0.20710392435E+03  0.20710392435E+03  0.00000000000E+00 0. -1.
         23    2    1    2    0    0  0.15504905787E+03  0.30115801945E+01 -0.45853524649E+02  0.20441019547E+03  0.12502680643E+03 0.  0.
          5    1    3    3  502    0  0.11754772379E+03 -0.54351210323E+02 -0.39225864486E+02  0.13539674987E+03  0.47000000000E+01 0.  1.
         -5    1    3    3    0  502  0.37501334087E+02  0.57362790517E+02 -0.66276601634E+01  0.69013445599E+02  0.47000000000E+01 0.  1.
        -11    1    1    2    0    0 -0.88883115623E+02  0.13619983883E+02  0.52159842711E+02  0.10395365023E+03  0.00000000000E+00 0.  1.
         11    1    1    2    0    0 -0.66165942251E+02 -0.16631564077E+02 -0.35323811839E+02  0.76826509230E+02  0.00000000000E+00 0. -1.
<mgrwt>
<rscale>  0 0.19421519E+03</rscale>
<asrwt>0</asrwt>
<pdfrwt beam="2">  1        2 0.31862142E-01 0.19920086E+03</pdfrwt>
<pdfrwt beam="1">  1       -2 0.27397913E-01 0.19920086E+03</pdfrwt>
<totfact> 0.19554352E+03</totfact>
</mgrwt>
</event>
<event>
 7    1  0.5206756E-006  0.1464626E+03  0.7546771E-02  0.1214907E+00
         -1   -1    0    0    0  501 -0.00000000000E+00  0.00000000000E+00  0.10230272148E+02  0.10230272148E+02  0.00000000000E+00 0.  1.
          1   -1    0    0  501    0  0.00000000000E+00 -0.00000000000E+00 -0.20024562288E+04  0.20024562288E+04  0.00000000000E+00 0. -1.
         23    2    1    2    0    0  0.40678739727E+02  0.64586096378E+02 -0.14680497515E+04  0.14753377136E+04  0.12500069034E+03 0.  0.
          5    1    3    3  502    0 -0.15110770768E+02 -0.28596231501E+02 -0.20172242697E+03  0.20435289915E+03  0.47000000000E+01 0.  1.
         -5    1    3    3    0  502  0.55789510495E+02  0.93182327879E+02 -0.12663273245E+04  0.12709848144E+04  0.47000000000E+01 0.  1.
        -11    1    1    2    0    0  0.26643982036E+02 -0.16138399391E+02 -0.87855491927E+02  0.93214468702E+02  0.00000000000E+00 0. -1.
         11    1    1    2    0    0 -0.67322721763E+02 -0.48447696987E+02 -0.43632071331E+03  0.44413431872E+03  0.00000000000E+00 0.  1.
<mgrwt>
<rscale>  0 0.13883380E+03</rscale>
<asrwt>0</asrwt>
<pdfrwt beam="2">  1        1 0.30806975E+00 0.14646261E+03</pdfrwt>
<pdfrwt beam="1">  1       -1 0.15738903E-02 0.14646261E+03</pdfrwt>
<totfact> 0.32584781E+03</totfact>
</mgrwt>
</event>
<event>
 7    1  0.5206756E-006  0.1461977E+03  0.7546771E-02  0.1214933E+00
         -3   -1    0    0    0  501 -0.00000000000E+00  0.00000000000E+00  0.12848858317E+03  0.12848858317E+03  0.00000000000E+00 0.  1.
          3   -1    0    0  501    0  0.00000000000E+00 -0.00000000000E+00 -0.14272073585E+03  0.14272073585E+03  0.00000000000E+00 0. -1.
         23    2    1    2    0    0  0.61636750448E+02  0.44833346991E+02 -0.35611349338E+02  0.15047234597E+03  0.12475832915E+03 0.  0.
          5    1    3    3  502    0  0.60382089205E+02  0.67835615510E+02 -0.65771959734E+02  0.11223060240E+03  0.47000000000E+01 0. -1.
         -5    1    3    3    0  502  0.12546612436E+01 -0.23002268518E+02  0.30160610396E+02  0.38241743570E+02  0.47000000000E+01 0.  1.
        -11    1    1    2    0    0 -0.57833344583E+02  0.48987670401E+01  0.36566271432E+02  0.68598730823E+02  0.00000000000E+00 0.  1.
         11    1    1    2    0    0 -0.38034058653E+01 -0.49732114032E+02 -0.15187074767E+02  0.52138242224E+02  0.00000000000E+00 0. -1.
<mgrwt>
<rscale>  0 0.13881488E+03</rscale>
<asrwt>0</asrwt>
<pdfrwt beam="2">  1        3 0.21957036E-01 0.14619767E+03</pdfrwt>
<pdfrwt beam="1">  1       -3 0.19767474E-01 0.14619767E+03</pdfrwt>
<totfact> 0.10152071E+03</totfact>
</mgrwt>
</event>
<event>
 7    1  0.5206756E-006  0.1821917E+03  0.7546771E-02  0.1170850E+00
          1   -1    0    0  501    0  0.00000000000E+00  0.00000000000E+00  0.18223753571E+04  0.18223753571E+04  0.00000000000E+00 0. -1.
         -1   -1    0    0    0  501 -0.00000000000E+00 -0.00000000000E+00 -0.25730446169E+02  0.25730446169E+02  0.00000000000E+00 0.  1.
         23    2    1    2    0    0 -0.16344901782E+01  0.13253146925E+03  0.14923551447E+04  0.15034353032E+04  0.12500628519E+03 0.  0.
          5    1    3    3  502    0  0.78911119577E+01  0.13949155492E+02  0.84854422291E+03  0.84870857002E+03  0.47000000000E+01 0.  1.
         -5    1    3    3    0  502 -0.95256021360E+01  0.11858231376E+03  0.64381092175E+03  0.65472673322E+03  0.47000000000E+01 0.  1.
        -11    1    1    2    0    0 -0.73864795228E+01  0.13594044413E+02  0.28204998156E+02  0.32169551508E+02  0.00000000000E+00 0.  1.
         11    1    1    2    0    0  0.90209697010E+01 -0.14612551367E+03  0.27608476809E+03  0.31250094849E+03  0.00000000000E+00 0. -1.
<mgrwt>
<rscale>  0 0.17688686E+03</rscale>
<asrwt>0</asrwt>
<pdfrwt beam="1">  1        1 0.28036534E+00 0.18219175E+03</pdfrwt>
<pdfrwt beam="2">  1       -1 0.39585316E-02 0.18219175E+03</pdfrwt>
<totfact> 0.11070372E+03</totfact>
</mgrwt>
</event>
<event>
 7    1  0.5206756E-006  0.1332360E+03  0.7546771E-02  0.1228199E+00
          3   -1    0    0  501    0  0.00000000000E+00  0.00000000000E+00  0.45722138379E+03  0.45722138379E+03  0.00000000000E+00 0. -1.
         -3   -1    0    0    0  501 -0.00000000000E+00 -0.00000000000E+00 -0.40582633524E+02  0.40582633524E+02  0.00000000000E+00 0.  1.
         23    2    1    2    0    0 -0.24367957220E+01 -0.46051912088E+02  0.31258200962E+03  0.33979307156E+03  0.12500040864E+03 0.  0.
          5    1    3    3  502    0  0.57512215926E+02 -0.44126400525E+02  0.15730271649E+03  0.17326577510E+03  0.47000000000E+01 0.  1.
         -5    1    3    3    0  502 -0.59949011648E+02 -0.19255115634E+01  0.15527929313E+03  0.16652729646E+03  0.47000000000E+01 0.  1.
        -11    1    1    2    0    0 -0.95329992469E+01  0.65993313519E+02  0.11451249706E+03  0.13251078253E+03  0.00000000000E+00 0. -1.
         11    1    1    2    0    0  0.11969794969E+02 -0.19941401431E+02 -0.10455756410E+02  0.25500163230E+02  0.00000000000E+00 0.  1.
<mgrwt>
<rscale>  0 0.12950034E+03</rscale>
<asrwt>0</asrwt>
<pdfrwt beam="1">  1        3 0.70341748E-01 0.13323595E+03</pdfrwt>
<pdfrwt beam="2">  1       -3 0.62434824E-02 0.13323595E+03</pdfrwt>
<totfact> 0.72588476E+02</totfact>
</mgrwt>
</event>
<event>
 7    1  0.5206756E-006  0.1612115E+03  0.7546771E-02  0.1194888E+00
          2   -1    0    0  501    0  0.00000000000E+00  0.00000000000E+00  0.34914581081E+03  0.34914581081E+03  0.00000000000E+00 0. -1.
         -2   -1    0    0    0  501 -0.00000000000E+00 -0.00000000000E+00 -0.72040651114E+02  0.72040651114E+02  0.00000000000E+00 0.  1.
         23    2    1    2    0    0 -0.72341800268E+01 -0.10155192076E+03  0.22117478376E+03  0.27369225113E+03  0.12499614949E+03 0.  0.
          5    1    3    3  502    0  0.52554411455E+01 -0.19941526096E+01 -0.15192335622E+02  0.16866931194E+02  0.47000000000E+01 0. -1.
         -5    1    3    3    0  502 -0.12489621172E+02 -0.99557768148E+02  0.23636711938E+03  0.25682531994E+03  0.47000000000E+01 0. -1.
        -11    1    1    2    0    0  0.22374238019E+02  0.11372098707E+03  0.40801353229E+02  0.12287318606E+03  0.00000000000E+00 0.  1.
         11    1    1    2    0    0 -0.15140057992E+02 -0.12169066310E+02  0.15129022705E+02  0.24621024732E+02  0.00000000000E+00 0. -1.
<mgrwt>
<rscale>  0 0.15463687E+03</rscale>
<asrwt>0</asrwt>
<pdfrwt beam="1">  1        2 0.53714739E-01 0.16121155E+03</pdfrwt>
<pdfrwt beam="2">  1       -2 0.11083177E-01 0.16121155E+03</pdfrwt>
<totfact> 0.50511952E+03</totfact>
</mgrwt>
</event>
<event>
 7    1  0.5206756E-006  0.1295685E+03  0.7546771E-02  0.1248551E+00
         -2   -1    0    0    0  501 -0.00000000000E+00  0.00000000000E+00  0.24512745721E+02  0.24512745721E+02  0.00000000000E+00 0.  1.
          2   -1    0    0  501    0  0.00000000000E+00 -0.00000000000E+00 -0.50699949182E+03  0.50699949182E+03  0.00000000000E+00 0. -1.
         23    2    1    2    0    0 -0.13569723254E+02 -0.31266108341E+02 -0.35632072417E+03  0.37914701896E+03  0.12500518626E+03 0.  0.
          5    1    3    3  502    0  0.39867334274E+02  0.16073525078E+02 -0.22949307872E+03  0.23353142344E+03  0.47000000000E+01 0.  1.
         -5    1    3    3    0  502 -0.53437057528E+02 -0.47339633418E+02 -0.12682764545E+03  0.14561559552E+03  0.47000000000E+01 0.  1.
        -11    1    1    2    0    0 -0.12490887983E+02  0.75427035700E+00  0.62608786308E+01  0.13992491115E+02  0.00000000000E+00 0.  1.
         11    1    1    2    0    0  0.26060611236E+02  0.30511837984E+02 -0.13242690056E+03  0.13837272747E+03  0.00000000000E+00 0. -1.
<mgrwt>
<rscale>  0 0.11675349E+03</rscale>
<asrwt>0</asrwt>
<pdfrwt beam="2">  1        2 0.77999912E-01 0.12956853E+03</pdfrwt>
<pdfrwt beam="1">  1       -2 0.37711921E-02 0.12956853E+03</pdfrwt>
<totfact> 0.17297775E+04</totfact>
</mgrwt>
</event>
<event>
 6    1  0.5206756E-006  0.2405731E+03  0.7546771E-02  0.1131984E+00
          1   -1    0    0  501    0  0.00000000000E+00  0.00000000000E+00  0.39812629221E+04  0.39812629221E+04  0.00000000000E+00 0. -1.
         -1   -1    0    0    0  501 -0.00000000000E+00 -0.00000000000E+00 -0.34400407979E+02  0.34400407979E+02  0.00000000000E+00 0.  1.
          5    1    1    2  502    0  0.10136696040E+03  0.58554489161E+02  0.34312286116E+04  0.34332281840E+04  0.47000000000E+01 0. -1.
         -5    1    1    2    0  502 -0.54843950820E+01  0.57832397459E+02  0.29171163201E+03  0.29747677394E+03  0.47000000000E+01 0.  1.
        -11    1    1    2    0    0 -0.18651845672E+02  0.12233834398E+02  0.12064927826E+02  0.25359821263E+02  0.00000000000E+00 0. -1.
         11    1    1    2    0    0 -0.77230719641E+02 -0.12862072102E+03  0.21185734272E+03  0.25959855084E+03  0.00000000000E+00 0.  1.
<mgrwt>
<rscale>  0 0.22256695E+03</rscale>
<asrwt>0</asrwt>
<pdfrwt beam="1">  1        1 0.61250162E+00 0.24057312E+03</pdfrwt>
<pdfrwt beam="2">  1       -1 0.52923736E-02 0.24057312E+03</pdfrwt>
<totfact> 0.21320235E+01</totfact>
</mgrwt>
</event>
<event>
 7    1  0.5206756E-006  0.1377059E+03  0.7546771E-02  0.1228403E+00
         -1   -1    0    0    0  501 -0.00000000000E+00  0.00000000000E+00  0.26153163507E+02  0.26153163507E+02  0.00000000000E+00 0.  1.
          1   -1    0    0  501    0  0.00000000000E+00 -0.00000000000E+00 -0.57739917037E+03  0.57739917037E+03  0.00000000000E+00 0. -1.
         23    2    1    2    0    0 -0.56245058574E+01  0.57523008837E+02 -0.28529731440E+03  0.31679245831E+03  0.12498948928E+03 0.  0.
          5    1    3    3  502    0 -0.64674251495E+02  0.27196558403E+02 -0.16399706546E+03  0.17843637263E+03  0.47000000000E+01 0.  1.
         -5    1    3    3    0  502  0.59049745637E+02  0.30326450434E+02 -0.12130024893E+03  0.13835608569E+03  0.47000000000E+01 0.  1.
        -11    1    1    2    0    0 -0.52158567286E+01 -0.48474468846E+02 -0.26808187397E+03  0.27247911927E+03  0.00000000000E+00 0. -1.
         11    1    1    2    0    0  0.10840362586E+02 -0.90485399911E+01  0.21331814958E+01  0.14280756292E+02  0.00000000000E+00 0.  1.
<mgrwt>
<rscale>  0 0.12936400E+03</rscale>
<asrwt>0</asrwt>
<pdfrwt beam="2">  1        1 0.88830648E-01 0.13770586E+03</pdfrwt>
<pdfrwt beam="1">  1       -1 0.40235633E-02 0.13770586E+03</pdfrwt>
<totfact> 0.86647545E+03</totfact>
</mgrwt>
</event>
<event>
 7    1  0.5206756E-006  0.1634513E+03  0.7546771E-02  0.1192736E+00
         -1   -1    0    0    0  501 -0.00000000000E+00  0.00000000000E+00  0.90517514075E+02  0.90517514075E+02  0.00000000000E+00 0.  1.
          1   -1    0    0  501    0  0.00000000000E+00 -0.00000000000E+00 -0.29578296427E+03  0.29578296427E+03  0.00000000000E+00 0. -1.
         23    2    1    2    0    0  0.83931889783E+02 -0.63627215077E+02 -0.18610140252E+03  0.24768947179E+03  0.12499343101E+03 0.  0.
          5    1    3    3  502    0  0.20954741025E+02  0.37502055926E+02 -0.62199346554E+02  0.75738722474E+02  0.47000000000E+01 0. -1.
         -5    1    3    3    0  502  0.62977148758E+02 -0.10112927100E+03 -0.12390205596E+03  0.17195074932E+03  0.47000000000E+01 0. -1.
        -11    1    1    2    0    0 -0.88830498219E+02  0.75546598141E+02 -0.13430455065E+01  0.11661882213E+03  0.00000000000E+00 0.  1.
         11    1    1    2    0    0  0.48986084354E+01 -0.11919383063E+02 -0.17821002176E+02  0.21992184425E+02  0.00000000000E+00 0. -1.
<mgrwt>
<rscale>  0 0.15647431E+03</rscale>
<asrwt>0</asrwt>
<pdfrwt beam="2">  1        1 0.45505071E-01 0.16345135E+03</pdfrwt>
<pdfrwt beam="1">  1       -1 0.13925771E-01 0.16345135E+03</pdfrwt>
<totfact> 0.31521349E+03</totfact>
</mgrwt>
</event>
<event>
 7    1  0.5206756E-006  0.1623576E+03  0.7546771E-02  0.1193323E+00
          2   -1    0    0  501    0  0.00000000000E+00  0.00000000000E+00  0.73744790400E+02  0.73744790400E+02  0.00000000000E+00 0. -1.
         -2   -1    0    0    0  501 -0.00000000000E+00 -0.00000000000E+00 -0.38295915155E+03  0.38295915155E+03  0.00000000000E+00 0.  1.
         23    2    1    2    0    0 -0.75640700736E+02  0.70782726489E+02 -0.62674675933E+02  0.17403475045E+03  0.12501307685E+03 0.  0.
          5    1    3    3  502    0 -0.39907047464E+02  0.95900664272E+02 -0.75236103936E+02  0.12834356696E+03  0.47000000000E+01 0. -1.
         -5    1    3    3    0  502 -0.35733653272E+02 -0.25117937783E+02  0.12561428003E+02  0.45691183483E+02  0.47000000000E+01 0. -1.
        -11    1    1    2    0    0  0.63343879471E+02 -0.10287799620E+02 -0.18367181231E+03  0.19456006920E+03  0.00000000000E+00 0.  1.
         11    1    1    2    0    0  0.12296821265E+02 -0.60494926869E+02 -0.62867872898E+02  0.88109122302E+02  0.00000000000E+00 0. -1.
<mgrwt>
<rscale>  0 0.15596981E+03</rscale>
<asrwt>0</asrwt>
<pdfrwt beam="1">  1        2 0.11345353E-01 0.16235757E+03</pdfrwt>
<pdfrwt beam="2">  1       -2 0.58916792E-01 0.16235757E+03</pdfrwt>
<totfact> 0.14730803E+03</totfact>
</mgrwt>
</event>
<event>
 7    1  0.5472798E-006  0.1844591E+03  0.7546771E-02  0.1169044E+00
          1   -1    0    0  501    0  0.00000000000E+00  0.00000000000E+00  0.68700434726E+02  0.68700434726E+02  0.00000000000E+00 0. -1.
         -1   -1    0    0    0  501 -0.00000000000E+00 -0.00000000000E+00 -0.43993098689E+03  0.43993098689E+03  0.00000000000E+00 0.  1.
         23    2    1    2    0    0  0.10410910558E+03 -0.86955844081E+02 -0.18147660275E+03  0.25876418395E+03  0.12500048346E+03 0.  0.
          5    1    3    3  502    0  0.81995729891E+01  0.16921411402E+02  0.91093963676E+01  0.21415841408E+02  0.47000000000E+01 0.  1.
         -5    1    3    3    0  502  0.95909532590E+02 -0.10387725548E+03 -0.19058599912E+03  0.23734834254E+03  0.47000000000E+01 0.  1.
        -11    1    1    2    0    0 -0.89863345380E+02  0.43810251796E+02 -0.70726285956E+02  0.12246210243E+03  0.00000000000E+00 0.  1.
         11    1    1    2    0    0 -0.14245760199E+02  0.43145592285E+02 -0.11902766346E+03  0.12740513524E+03  0.00000000000E+00 0. -1.
<mgrwt>
<rscale>  0 0.17872328E+03</rscale>
<asrwt>0</asrwt>
<pdfrwt beam="1">  1        1 0.10569298E-01 0.18445906E+03</pdfrwt>
<pdfrwt beam="2">  1       -1 0.67681691E-01 0.18445906E+03</pdfrwt>
<totfact> 0.13506216E+03</totfact>
</mgrwt>
</event>
<event>
 7    1  0.5206756E-006  0.1269151E+03  0.7546771E-02  0.1271051E+00
          2   -1    0    0  501    0  0.00000000000E+00  0.00000000000E+00  0.22366381495E+03  0.22366381495E+03  0.00000000000E+00 0. -1.
         -2   -1    0    0    0  501 -0.00000000000E+00 -0.00000000000E+00 -0.55248859180E+02  0.55248859180E+02  0.00000000000E+00 0.  1.
         23    2    1    2    0    0 -0.18784953041E+02  0.25077561979E+02  0.17913581090E+03  0.21953835638E+03  0.12298655455E+03 0.  0.
          5    1    3    3  502    0 -0.16541265884E+02  0.42160069037E+02  0.19213061184E+03  0.19745213826E+03  0.47000000000E+01 0. -1.
         -5    1    3    3    0  502 -0.22436871571E+01 -0.17082507058E+02 -0.12994800939E+02  0.22086218121E+02  0.47000000000E+01 0.  1.
        -11    1    1    2    0    0  0.30892776335E+02 -0.29480508896E+02 -0.15792137121E+02  0.45528624285E+02  0.00000000000E+00 0. -1.
         11    1    1    2    0    0 -0.12107823294E+02  0.44029469170E+01  0.50712819908E+01  0.13845693464E+02  0.00000000000E+00 0.  1.
<mgrwt>
<rscale>  0 0.10452864E+03</rscale>
<asrwt>0</asrwt>
<pdfrwt beam="1">  1        2 0.34409817E-01 0.12691513E+03</pdfrwt>
<pdfrwt beam="2">  1       -2 0.84998246E-02 0.12691513E+03</pdfrwt>
<totfact> 0.12110068E+04</totfact>
</mgrwt>
</event>
<event>
 7    1  0.5206756E-006  0.1377267E+03  0.7546771E-02  0.1228168E+00
          3   -1    0    0  501    0  0.00000000000E+00  0.00000000000E+00  0.10459149734E+03  0.10459149734E+03  0.00000000000E+00 0. -1.
         -3   -1    0    0    0  501 -0.00000000000E+00 -0.00000000000E+00 -0.14414467842E+03  0.14414467842E+03  0.00000000000E+00 0.  1.
         23    2    1    2    0    0 -0.22410891344E+02 -0.53297869870E+02 -0.18305282184E+02  0.13893781088E+03  0.12500288378E+03 0.  0.
          5    1    3    3  502    0  0.40589397855E+02 -0.53180437416E+02 -0.31979121903E+02  0.74299477654E+02  0.47000000000E+01 0.  1.
         -5    1    3    3    0  502 -0.63000289199E+02 -0.11743245371E+00  0.13673839719E+02  0.64638333225E+02  0.47000000000E+01 0.  1.
        -11    1    1    2    0    0  0.44992233383E+02 -0.48845626814E+01 -0.71951764881E+01  0.45824999531E+02  0.00000000000E+00 0.  1.
         11    1    1    2    0    0 -0.22581342039E+02  0.58182432552E+02 -0.14052722408E+02  0.63973365340E+02  0.00000000000E+00 0. -1.
<mgrwt>
<rscale>  0 0.12952108E+03</rscale>
<asrwt>0</asrwt>
<pdfrwt beam="1">  1        3 0.16091000E-01 0.13772666E+03</pdfrwt>
<pdfrwt beam="2">  1       -3 0.22176104E-01 0.13772666E+03</pdfrwt>
<totfact> 0.14137801E+03</totfact>
</mgrwt>
</event>
<event>
 6    1  0.5206756E-006  0.4127453E+03  0.7546771E-02  0.1039454E+00
          2   -1    0    0  501    0  0.00000000000E+00  0.00000000000E+00  0.96188596636E+03  0.96188596636E+03  0.00000000000E+00 0. -1.
         -2   -1    0    0    0  501 -0.00000000000E+00 -0.00000000000E+00 -0.44277262338E+02  0.44277262338E+02  0.00000000000E+00 0.  1.
          5    1    1    2  502    0  0.34077179495E+02  0.17127010735E+03  0.46145574064E+03  0.49341482994E+03  0.47000000000E+01 0. -1.
         -5    1    1    2    0  502 -0.72104959597E+01 -0.13935886496E+02  0.17921902123E+03  0.17996596277E+03  0.47000000000E+01 0.  1.
        -11    1    1    2    0    0 -0.51895719865E+01 -0.12244881670E+03  0.12367429856E+03  0.17411483709E+03  0.00000000000E+00 0.  1.
         11    1    1    2    0    0 -0.21677111549E+02 -0.34885404153E+02  0.15325964359E+03  0.15866759890E+03  0.00000000000E+00 0. -1.
<mgrwt>
<rscale>  0 0.41274533E+03</rscale>
<asrwt>0</asrwt>
<pdfrwt beam="1">  1        2 0.14798244E+00 0.41274533E+03</pdfrwt>
<pdfrwt beam="2">  1       -2 0.68118872E-02 0.41274533E+03</pdfrwt>
<totfact> 0.33857214E+03</totfact>
</mgrwt>
</event>
<event>
 7    1  0.5206756E-006  0.1650832E+03  0.7546771E-02  0.1189653E+00
          1   -1    0    0  501    0  0.00000000000E+00  0.00000000000E+00  0.66665863190E+03  0.66665863190E+03  0.00000000000E+00 0. -1.
         -1   -1    0    0    0  501 -0.00000000000E+00 -0.00000000000E+00 -0.35643582759E+02  0.35643582759E+02  0.00000000000E+00 0.  1.
         23    2    1    2    0    0 -0.45813614974E+02  0.97621384509E+02  0.36019726958E+03  0.39622536118E+03  0.12499456707E+03 0.  0.
          5    1    3    3  502    0 -0.60460797037E+02  0.91285388824E+02  0.36315210068E+03  0.37932844399E+03  0.47000000000E+01 0.  1.
         -5    1    3    3    0  502  0.14647182063E+02  0.63359956843E+01 -0.29548310987E+01  0.16896917190E+02  0.47000000000E+01 0.  1.
        -11    1    1    2    0    0 -0.54713664534E+01 -0.24866373916E+02  0.52616396569E+01  0.25999177957E+02  0.00000000000E+00 0.  1.
         11    1    1    2    0    0  0.51284981427E+02 -0.72755010593E+02  0.26555613991E+03  0.28007767553E+03  0.00000000000E+00 0. -1.
<mgrwt>
<rscale>  0 0.15915603E+03</rscale>
<asrwt>0</asrwt>
<pdfrwt beam="1">  1        1 0.10256286E+00 0.16508320E+03</pdfrwt>
<pdfrwt beam="2">  1       -1 0.54836286E-02 0.16508320E+03</pdfrwt>
<totfact> 0.45361569E+03</totfact>
</mgrwt>
</event>
<event>
 7    1  0.5206756E-006  0.1446120E+03  0.7546771E-02  0.1216816E+00
          4   -1    0    0  501    0  0.00000000000E+00  0.00000000000E+00  0.46986624200E+03  0.46986624200E+03  0.00000000000E+00 0. -1.
         -4   -1    0    0    0  501 -0.00000000000E+00 -0.00000000000E+00 -0.60057598952E+02  0.60057598952E+02  0.00000000000E+00 0.  1.
         23    2    1    2    0    0 -0.61444659481E+02 -0.38925625857E+02  0.38235029371E+03  0.40878400669E+03  0.12498786539E+03 0.  0.
          5    1    3    3  502    0 -0.10141746201E+02 -0.52397662238E+02  0.32925793291E+03  0.33358843866E+03  0.47000000000E+01 0. -1.
         -5    1    3    3    0  502 -0.51302913280E+02  0.13472036381E+02  0.53092360800E+02  0.75195568025E+02  0.47000000000E+01 0. -1.
        -11    1    1    2    0    0  0.19256686141E+02 -0.16643184785E+02 -0.23579348154E+02  0.34695838659E+02  0.00000000000E+00 0.  1.
         11    1    1    2    0    0  0.42187973340E+02  0.55568810642E+02  0.51037697483E+02  0.86443995598E+02  0.00000000000E+00 0. -1.
<mgrwt>
<rscale>  0 0.13743950E+03</rscale>
<asrwt>0</asrwt>
<pdfrwt beam="1">  1        4 0.72287112E-01 0.14461195E+03</pdfrwt>
<pdfrwt beam="2">  1       -4 0.92396309E-02 0.14461195E+03</pdfrwt>
<totfact> 0.25999440E+02</totfact>
</mgrwt>
</event>
<event>
 7    1  0.5206756E-006  0.1267911E+03  0.7546771E-02  0.1246480E+00
         -2   -1    0    0    0  501 -0.00000000000E+00  0.00000000000E+00  0.76725337198E+02  0.76725337198E+02  0.00000000000E+00 0. -1.
          2   -1    0    0  501    0  0.00000000000E+00 -0.00000000000E+00 -0.16879850725E+03  0.16879850725E+03  0.00000000000E+00 0.  1.
         23    2    1    2    0    0 -0.19920288571E+02 -0.73917894275E+01 -0.79534877226E+02  0.14967226867E+03  0.12499813945E+03 0.  0.
          5    1    3    3  502    0 -0.69378083121E+02 -0.22259270133E+02 -0.33507568143E+02  0.80334554503E+02  0.47000000000E+01 0.  1.
         -5    1    3    3    0  502  0.49457794550E+02  0.14867480705E+02 -0.46027309084E+02  0.69337714166E+02  0.47000000000E+01 0.  1.
        -11    1    1    2    0    0 -0.20016313240E+02  0.14804790842E+02 -0.39790718897E+02  0.46937574904E+02  0.00000000000E+00 0.  1.
         11    1    1    2    0    0  0.39936601811E+02 -0.74130014144E+01  0.27252426075E+02  0.48914000871E+02  0.00000000000E+00 0. -1.
<mgrwt>
<rscale>  0 0.11797216E+03</rscale>
<asrwt>0</asrwt>
<pdfrwt beam="2">  1        2 0.25969001E-01 0.12679113E+03</pdfrwt>
<pdfrwt beam="1">  1       -2 0.11803898E-01 0.12679113E+03</pdfrwt>
<totfact> 0.98072117E+03</totfact>
</mgrwt>
</event>
<event>
 7    1  0.5206756E-006  0.2281440E+03  0.7546771E-02  0.1131213E+00
         -2   -1    0    0    0  501 -0.00000000000E+00  0.00000000000E+00  0.35914080141E+03  0.35914080141E+03  0.00000000000E+00 0.  1.
          2   -1    0    0  501    0  0.00000000000E+00 -0.00000000000E+00 -0.13640799935E+03  0.13640799935E+03  0.00000000000E+00 0. -1.
         23    2    1    2    0    0  0.25316114485E+02 -0.18916710153E+03  0.82750912294E+02  0.24268790291E+03  0.12499842710E+03 0.  0.
          5    1    3    3  502    0 -0.47566037322E+02 -0.48302495150E+02  0.37856023020E+02  0.77787064626E+02  0.47000000000E+01 0. -1.
         -5    1    3    3    0  502  0.72882151807E+02 -0.14086460638E+03  0.44894889275E+02  0.16490083828E+03  0.47000000000E+01 0. -1.
        -11    1    1    2    0    0 -0.57651302705E+02  0.11109274430E+03  0.71905824088E+02  0.14434582806E+03  0.00000000000E+00 0.  1.
         11    1    1    2    0    0  0.32335188220E+02  0.78074357227E+02  0.68076065684E+02  0.10851506980E+03  0.00000000000E+00 0. -1.
<mgrwt>
<rscale>  0 0.22362011E+03</rscale>
<asrwt>0</asrwt>
<pdfrwt beam="2">  1        2 0.20985846E-01 0.22814404E+03</pdfrwt>
<pdfrwt beam="1">  1       -2 0.55252431E-01 0.22814404E+03</pdfrwt>
<totfact> 0.82199661E+02</totfact>
</mgrwt>
</event>
<event>
 7    1  0.5206756E-006  0.1626063E+03  0.7546771E-02  0.1193149E+00
          2   -1    0    0  501    0  0.00000000000E+00  0.00000000000E+00  0.40396142298E+03  0.40396142298E+03  0.00000000000E+00 0. -1.
         -2   -1    0    0    0  501 -0.00000000000E+00 -0.00000000000E+00 -0.13375924583E+03  0.13375924583E+03  0.00000000000E+00 0.  1.
         23    2    1    2    0    0 -0.58211146446E+02  0.86185181787E+02  0.34442264355E+03  0.38087764238E+03  0.12499759177E+03 0.  0.
          5    1    3    3  502    0 -0.33150190124E+02  0.94410300177E+02  0.33906889346E+03  0.35355628179E+03  0.47000000000E+01 0.  1.
         -5    1    3    3    0  502 -0.25060956323E+02 -0.82251183904E+01  0.53537500889E+01  0.27321360588E+02  0.47000000000E+01 0.  1.
        -11    1    1    2    0    0 -0.13195257365E+02 -0.17356280754E+02  0.12470842367E+02  0.25117269117E+02  0.00000000000E+00 0. -1.
         11    1    1    2    0    0  0.71406403812E+02 -0.68828901033E+02 -0.86691308765E+02  0.13172575731E+03  0.00000000000E+00 0.  1.
<mgrwt>
<rscale>  0 0.15611939E+03</rscale>
<asrwt>0</asrwt>
<pdfrwt beam="1">  1        2 0.62147910E-01 0.16260634E+03</pdfrwt>
<pdfrwt beam="2">  1       -2 0.20578346E-01 0.16260634E+03</pdfrwt>
<totfact> 0.15625477E+03</totfact>
</mgrwt>
</event>
<event>
 7    1  0.5206756E-006  0.1929495E+03  0.7546771E-02  0.1159693E+00
          1   -1    0    0  501    0  0.00000000000E+00  0.00000000000E+00  0.10920935292E+04  0.10920935292E+04  0.00000000000E+00 0. -1.
         -1   -1    0    0    0  501 -0.00000000000E+00 -0.00000000000E+00 -0.37702962580E+02  0.37702962580E+02  0.00000000000E+00 0.  1.
         23    2    1    2    0    0 -0.60227938105E+02 -0.13408201544E+03  0.78113258588E+03  0.80461023617E+03  0.12499649608E+03 0.  0.
          5    1    3    3  502    0 -0.70238131418E+02 -0.15423382412E+03  0.70389445206E+03  0.72402414135E+03  0.47000000000E+01 0.  1.
         -5    1    3    3    0  502  0.10010193313E+02  0.20151808679E+02  0.77238133817E+02  0.80586094822E+02  0.47000000000E+01 0.  1.
        -11    1    1    2    0    0  0.11277433198E+02  0.39106989569E+02  0.11246023774E+02  0.42225705245E+02  0.00000000000E+00 0.  1.
         11    1    1    2    0    0  0.48950504907E+02  0.94975025868E+02  0.26201195695E+03  0.28296055035E+03  0.00000000000E+00 0. -1.
<mgrwt>
<rscale>  0 0.18864106E+03</rscale>
<asrwt>0</asrwt>
<pdfrwt beam="1">  1        1 0.16801437E+00 0.19294952E+03</pdfrwt>
<pdfrwt beam="2">  1       -1 0.58004566E-02 0.19294952E+03</pdfrwt>
<totfact> 0.19186730E+03</totfact>
</mgrwt>
</event>
<event>
 7    1  0.5206756E-006  0.1821515E+03  0.7546771E-02  0.1170748E+00
          1   -1    0    0  501    0  0.00000000000E+00  0.00000000000E+00  0.26917017635E+03  0.26917017635E+03  0.00000000000E+00 0. -1.
         -1   -1    0    0    0  501 -0.00000000000E+00 -0.00000000000E+00 -0.13138013502E+03  0.13138013502E+03  0.00000000000E+00 0.  1.
         23    2    1    2    0    0 -0.10362920029E+03  0.82539088431E+02  0.15243918531E+03  0.23752236390E+03  0.12500982307E+03 0.  0.
          5    1    3    3  502    0 -0.46933317746E+02  0.50335174757E+02  0.15751011338E+03  0.17195316790E+03  0.47000000000E+01 0.  1.
         -5    1    3    3    0  502 -0.56695882547E+02  0.32203913674E+02 -0.50709280678E+01  0.65569196008E+02  0.47000000000E+01 0.  1.
        -11    1    1    2    0    0  0.50408201667E+02  0.12452776249E+02 -0.15335358964E+02  0.54140850253E+02  0.00000000000E+00 0.  1.
         11    1    1    2    0    0  0.53220998627E+02 -0.94991864681E+02  0.68621498248E+00  0.10888709722E+03  0.00000000000E+00 0. -1.
<mgrwt>
<rscale>  0 0.17699051E+03</rscale>
<asrwt>0</asrwt>
<pdfrwt beam="1">  1        1 0.41410796E-01 0.18215150E+03</pdfrwt>
<pdfrwt beam="2">  1       -1 0.20212329E-01 0.18215150E+03</pdfrwt>
<totfact> 0.19671583E+03</totfact>
</mgrwt>
</event>
<event>
 6    1  0.5206756E-006  0.2036860E+03  0.7546771E-02  0.1159823E+00
         -2   -1    0    0    0  501 -0.00000000000E+00  0.00000000000E+00  0.28234167750E+02  0.28234167750E+02  0.00000000000E+00 0.  1.
          2   -1    0    0  501    0  0.00000000000E+00 -0.00000000000E+00 -0.18560086004E+04  0.18560086004E+04  0.00000000000E+00 0. -1.
          5    1    1    2  502    0  0.56705912556E+02 -0.25994490990E+02 -0.14512687577E+04  0.14526163881E+04  0.47000000000E+01 0. -1.
         -5    1    1    2    0  502  0.39156461517E+02 -0.43283476837E+02 -0.14170451316E+03  0.15332627594E+03  0.47000000000E+01 0.  1.
        -11    1    1    2    0    0 -0.59350179803E+02  0.47524337772E+02 -0.55771112256E+02  0.94294344929E+02  0.00000000000E+00 0.  1.
         11    1    1    2    0    0 -0.36512194271E+02  0.21753630055E+02 -0.17903004962E+03  0.18400575920E+03  0.00000000000E+00 0. -1.
<mgrwt>
<rscale>  0 0.18849774E+03</rscale>
<asrwt>0</asrwt>
<pdfrwt beam="2">  1        2 0.28553982E+00 0.20368603E+03</pdfrwt>
<pdfrwt beam="1">  1       -2 0.43437176E-02 0.20368603E+03</pdfrwt>
<totfact> 0.21515822E+03</totfact>
</mgrwt>
</event>
<event>
 7    1  0.5206756E-006  0.1339712E+03  0.7546771E-02  0.1236132E+00
         -1   -1    0    0    0  501 -0.00000000000E+00  0.00000000000E+00  0.73035378721E+02  0.73035378721E+02  0.00000000000E+00 0.  1.
          1   -1    0    0  501    0  0.00000000000E+00 -0.00000000000E+00 -0.53866335122E+03  0.53866335122E+03  0.00000000000E+00 0. -1.
         23    2    1    2    0    0 -0.35328515446E+02  0.32809200997E+02 -0.49117547508E+03  0.50911849115E+03  0.12499497205E+03 0.  0.
          5    1    3    3  502    0 -0.94240648544E+01 -0.44526213255E+02 -0.25849973087E+03  0.26251780420E+03  0.47000000000E+01 0. -1.
         -5    1    3    3    0  502 -0.25904450591E+02  0.77335414252E+02 -0.23267574421E+03  0.24660068694E+03  0.47000000000E+01 0. -1.
        -11    1    1    2    0    0  0.61307876086E+02 -0.58780918061E+01  0.11760832089E+02  0.62701872420E+02  0.00000000000E+00 0.  1.
         11    1    1    2    0    0 -0.25979360641E+02 -0.26931109191E+02  0.13786670487E+02  0.39878366374E+02  0.00000000000E+00 0. -1.
<mgrwt>
<rscale>  0 0.12432214E+03</rscale>
<asrwt>0</asrwt>
<pdfrwt beam="2">  1        1 0.82871285E-01 0.13397123E+03</pdfrwt>
<pdfrwt beam="1">  1       -1 0.11236212E-01 0.13397123E+03</pdfrwt>
<totfact> 0.20375347E+03</totfact>
</mgrwt>
</event>
<event>
 7    1  0.5206756E-006  0.1736877E+03  0.7546771E-02  0.1177191E+00
          2   -1    0    0  501    0  0.00000000000E+00  0.00000000000E+00  0.39949908137E+03  0.39949908137E+03  0.00000000000E+00 0. -1.
         -2   -1    0    0    0  501 -0.00000000000E+00 -0.00000000000E+00 -0.73608490507E+02  0.73608490507E+02  0.00000000000E+00 0.  1.
         23    2    1    2    0    0 -0.14211763782E+02 -0.13317234808E+03  0.21764032585E+03  0.27845058072E+03  0.11059188915E+03 0.  0.
          5    1    3    3  502    0 -0.51530131505E+02 -0.66736493623E+02  0.16610914155E+03  0.18634229509E+03  0.47000000000E+01 0.  1.
         -5    1    3    3    0  502  0.37318367724E+02 -0.66435854455E+02  0.51531184305E+02  0.92108285635E+02  0.47000000000E+01 0. -1.
        -11    1    1    2    0    0  0.28189791713E+01  0.40941699573E+02 -0.11929834558E+02  0.42737458513E+02  0.00000000000E+00 0.  1.
         11    1    1    2    0    0  0.11392784610E+02  0.92230648505E+02  0.12018009957E+03  0.15191953264E+03  0.00000000000E+00 0. -1.
<mgrwt>
<rscale>  0 0.17063139E+03</rscale>
<asrwt>0</asrwt>
<pdfrwt beam="1">  1        2 0.61461396E-01 0.17368769E+03</pdfrwt>
<pdfrwt beam="2">  1       -2 0.11324383E-01 0.17368769E+03</pdfrwt>
<totfact> 0.42392033E+03</totfact>
</mgrwt>
</event>
<event>
 7    1  0.5206756E-006  0.1426707E+03  0.7546771E-02  0.1219934E+00
         -2   -1    0    0    0  501 -0.00000000000E+00  0.00000000000E+00  0.35457374996E+02  0.35457374996E+02  0.00000000000E+00 0.  1.
          2   -1    0    0  501    0  0.00000000000E+00 -0.00000000000E+00 -0.47866948330E+03  0.47866948330E+03  0.00000000000E+00 0. -1.
         23    2    1    2    0    0  0.19593222192E+02 -0.65923752710E+02 -0.20730390795E+03  0.25165420332E+03  0.12500036907E+03 0.  0.
          5    1    3    3  502    0 -0.10870731268E+01 -0.96458925093E+02 -0.18391540881E+03  0.20773173459E+03  0.47000000000E+01 0. -1.
         -5    1    3    3    0  502  0.20680295319E+02  0.30535172383E+02 -0.23388499144E+02  0.43922468728E+02  0.47000000000E+01 0. -1.
        -11    1    1    2    0    0  0.29413877434E+02  0.51975329505E+02 -0.16238882866E+03  0.17302237640E+03  0.00000000000E+00 0. -1.
         11    1    1    2    0    0 -0.49007099626E+02  0.13948423205E+02 -0.73519371697E+02  0.89450278582E+02  0.00000000000E+00 0.  1.
<mgrwt>
<rscale>  0 0.13520223E+03</rscale>
<asrwt>0</asrwt>
<pdfrwt beam="2">  1        2 0.73641454E-01 0.14267070E+03</pdfrwt>
<pdfrwt beam="1">  1       -2 0.54549811E-02 0.14267070E+03</pdfrwt>
<totfact> 0.10688429E+04</totfact>
</mgrwt>
</event>
<event>
 7    1  0.5206756E-006  0.1667532E+03  0.7546771E-02  0.1188164E+00
          1   -1    0    0  501    0  0.00000000000E+00  0.00000000000E+00  0.10756518526E+03  0.10756518526E+03  0.00000000000E+00 0. -1.
         -1   -1    0    0    0  501 -0.00000000000E+00 -0.00000000000E+00 -0.23633263428E+03  0.23633263428E+03  0.00000000000E+00 0.  1.
         23    2    1    2    0    0  0.10804957470E+03  0.22481455049E+02 -0.28339936195E+02  0.16914431185E+03  0.12500607919E+03 0.  0.
          5    1    3    3  502    0  0.31475835730E+01 -0.35031596475E+02  0.19174860648E+02  0.40334666415E+02  0.47000000000E+01 0. -1.
         -5    1    3    3    0  502  0.10490199112E+03  0.57513051524E+02 -0.47514796843E+02  0.12880964543E+03  0.47000000000E+01 0. -1.
        -11    1    1    2    0    0 -0.95010033362E+02 -0.11336144718E+02 -0.27101814061E+02  0.99448091696E+02  0.00000000000E+00 0. -1.
         11    1    1    2    0    0 -0.13039541334E+02 -0.11145310332E+02 -0.73325698762E+02  0.75305416003E+02  0.00000000000E+00 0.  1.
<mgrwt>
<rscale>  0 0.16047250E+03</rscale>
<asrwt>0</asrwt>
<pdfrwt beam="1">  1        1 0.16548490E-01 0.16675325E+03</pdfrwt>
<pdfrwt beam="2">  1       -1 0.36358867E-01 0.16675325E+03</pdfrwt>
<totfact> 0.23435821E+03</totfact>
</mgrwt>
</event>
<event>
 7    1  0.5206756E-006  0.1326856E+03  0.7546771E-02  0.1236370E+00
         -2   -1    0    0    0  501 -0.00000000000E+00  0.00000000000E+00  0.18660212872E+02  0.18660212872E+02  0.00000000000E+00 0.  1.
          2   -1    0    0  501    0  0.00000000000E+00 -0.00000000000E+00 -0.90338745376E+03  0.90338745376E+03  0.00000000000E+00 0. -1.
         23    2    1    2    0    0 -0.29608003495E+02 -0.33218940496E+02 -0.68669427305E+03  0.69939580086E+03  0.12500131896E+03 0.  0.
          5    1    3    3  502    0  0.60698263871E+01 -0.76050141925E+02 -0.37277093042E+03  0.38052690240E+03  0.47000000000E+01 0.  1.
         -5    1    3    3    0  502 -0.35677829882E+02  0.42831201430E+02 -0.31392334263E+03  0.31886889846E+03  0.47000000000E+01 0.  1.
        -11    1    1    2    0    0  0.16317077863E+02  0.12461662129E+01  0.46660025140E+01  0.17016801688E+02  0.00000000000E+00 0.  1.
         11    1    1    2    0    0  0.13290925632E+02  0.31972774283E+02 -0.20269897036E+03  0.20563506409E+03  0.00000000000E+00 0. -1.
<mgrwt>
<rscale>  0 0.12417122E+03</rscale>
<asrwt>0</asrwt>
<pdfrwt beam="2">  1        2 0.13898271E+00 0.13268557E+03</pdfrwt>
<pdfrwt beam="1">  1       -2 0.28708015E-02 0.13268557E+03</pdfrwt>
<totfact> 0.13077722E+04</totfact>
</mgrwt>
</event>
<event>
 7    1  0.5206756E-006  0.2140701E+03  0.7546771E-02  0.1142076E+00
          3   -1    0    0  501    0  0.00000000000E+00  0.00000000000E+00  0.11352212748E+03  0.11352212748E+03  0.00000000000E+00 0. -1.
         -3   -1    0    0    0  501 -0.00000000000E+00 -0.00000000000E+00 -0.37006398542E+03  0.37006398542E+03  0.00000000000E+00 0.  1.
         23    2    1    2    0    0  0.11776513500E+02  0.17338421070E+03 -0.13685274560E+03  0.25407617003E+03  0.12500102163E+03 0.  0.
          5    1    3    3  502    0  0.50096912393E+02  0.16302160548E+03 -0.91415460489E+02  0.19355779731E+03  0.47000000000E+01 0.  1.
         -5    1    3    3    0  502 -0.38320398893E+02  0.10362605228E+02 -0.45437285108E+02  0.60518372718E+02  0.47000000000E+01 0.  1.
        -11    1    1    2    0    0 -0.30327652508E+02 -0.16303911448E+03 -0.79177758879E+02  0.18376788854E+03  0.00000000000E+00 0.  1.
         11    1    1    2    0    0  0.18551139008E+02 -0.10345096226E+02 -0.40511353470E+02  0.45742054330E+02  0.00000000000E+00 0. -1.
<mgrwt>
<rscale>  0 0.20935667E+03</rscale>
<asrwt>0</asrwt>
<pdfrwt beam="1">  1        3 0.17464943E-01 0.21407014E+03</pdfrwt>
<pdfrwt beam="2">  1       -3 0.56932921E-01 0.21407014E+03</pdfrwt>
<totfact> 0.21498089E+02</totfact>
</mgrwt>
</event>
<event>
 6    1  0.5206756E-006  0.2364102E+03  0.7546771E-02  0.1122208E+00
         -2   -1    0    0    0  501 -0.00000000000E+00  0.00000000000E+00  0.11730953289E+03  0.11730953289E+03  0.00000000000E+00 0.  1.
          2   -1    0    0  501    0  0.00000000000E+00 -0.00000000000E+00 -0.11910753381E+03  0.11910753381E+03  0.00000000000E+00 0. -1.
          5    1    1    2  502    0 -0.95806121921E+01 -0.85483390715E+01 -0.68810034337E+02  0.70155349449E+02  0.47000000000E+01 0. -1.
         -5    1    1    2    0  502  0.14232119926E+02 -0.34911495727E+02  0.56542535515E+02  0.68121318939E+02  0.47000000000E+01 0.  1.
        -11    1    1    2    0    0  0.37222320645E+02  0.14935217747E+02 -0.13192858222E+02  0.42221006518E+02  0.00000000000E+00 0. -1.
         11    1    1    2    0    0 -0.41873828379E+02  0.28524617051E+02  0.23662356129E+02  0.55919391794E+02  0.00000000000E+00 0.  1.
<mgrwt>
<rscale>  0 0.23641023E+03</rscale>
<asrwt>0</asrwt>
<pdfrwt beam="2">  1        2 0.18324236E-01 0.23641023E+03</pdfrwt>
<pdfrwt beam="1">  1       -2 0.18047621E-01 0.23641023E+03</pdfrwt>
<totfact> 0.75707614E+03</totfact>
</mgrwt>
</event>
<event>
 7    1  0.5206756E-006  0.1542099E+03  0.7546771E-02  0.1203883E+00
         -2   -1    0    0    0  501 -0.00000000000E+00  0.00000000000E+00  0.95008189526E+02  0.95008189526E+02  0.00000000000E+00 0.  1.
          2   -1    0    0  501    0  0.00000000000E+00 -0.00000000000E+00 -0.24898323998E+03  0.24898323998E+03  0.00000000000E+00 0. -1.
         23    2    1    2    0    0  0.52374507316E+02 -0.73565470923E+02 -0.15085531530E+03  0.21572672620E+03  0.12500290682E+03 0.  0.
          5    1    3    3  502    0  0.69988156614E+02 -0.97502742646E+02 -0.13815281848E+03  0.18306670408E+03  0.47000000000E+01 0.  1.
         -5    1    3    3    0  502 -0.17613649298E+02  0.23937271723E+02 -0.12702496819E+02  0.32660022115E+02  0.47000000000E+01 0.  1.
        -11    1    1    2    0    0 -0.12457992036E+01  0.75123977137E+02 -0.12764677984E+02  0.76210897912E+02  0.00000000000E+00 0. -1.
         11    1    1    2    0    0 -0.51128708113E+02 -0.15585062136E+01  0.96449428220E+01  0.52053805403E+02  0.00000000000E+00 0.  1.
<mgrwt>
<rscale>  0 0.14725799E+03</rscale>
<asrwt>0</asrwt>
<pdfrwt beam="2">  1        2 0.38305114E-01 0.15420990E+03</pdfrwt>
<pdfrwt beam="1">  1       -2 0.14616644E-01 0.15420990E+03</pdfrwt>
<totfact> 0.46252658E+03</totfact>
</mgrwt>
</event>
<event>
 7    1  0.5206756E-006  0.1372818E+03  0.7546771E-02  0.1229129E+00
         -2   -1    0    0    0  501 -0.00000000000E+00  0.00000000000E+00  0.15147242390E+03  0.15147242390E+03  0.00000000000E+00 0.  1.
          2   -1    0    0  501    0  0.00000000000E+00 -0.00000000000E+00 -0.11562104799E+03  0.11562104799E+03  0.00000000000E+00 0. -1.
         23    2    1    2    0    0  0.53314190968E+02 -0.19484375450E+02 -0.31662766631E+02  0.14088582244E+03  0.12499696127E+03 0.  0.
          5    1    3    3  502    0 -0.11504785302E+02  0.12410958946E+02 -0.60471267352E+02  0.62970279990E+02  0.47000000000E+01 0.  1.
         -5    1    3    3    0  502  0.64818976270E+02 -0.31895334396E+02  0.28808500721E+02  0.77915542447E+02  0.47000000000E+01 0.  1.
        -11    1    1    2    0    0 -0.38313004724E+02 -0.17022135852E+02 -0.64057858448E+01  0.42410771418E+02  0.00000000000E+00 0. -1.
         11    1    1    2    0    0 -0.15001186244E+02  0.36506511301E+02  0.73919928386E+02  0.83796878037E+02  0.00000000000E+00 0.  1.
<mgrwt>
<rscale>  0 0.12887857E+03</rscale>
<asrwt>0</asrwt>
<pdfrwt beam="2">  1        2 0.17787853E-01 0.13728177E+03</pdfrwt>
<pdfrwt beam="1">  1       -2 0.23303450E-01 0.13728177E+03</pdfrwt>
<totfact> 0.48923141E+03</totfact>
</mgrwt>
</event>
<event>
 7    1  0.5206756E-006  0.2768952E+03  0.7546771E-02  0.1099461E+00
         -2   -1    0    0    0  501 -0.00000000000E+00  0.00000000000E+00  0.18997616896E+03  0.18997616896E+03  0.00000000000E+00 0.  1.
          2   -1    0    0  501    0  0.00000000000E+00 -0.00000000000E+00 -0.64940894971E+03  0.64940894971E+03  0.00000000000E+00 0. -1.
         23    2    1    2    0    0  0.10968052958E+03 -0.22139388168E+03 -0.50222767331E+03  0.57350117587E+03  0.12500357383E+03 0.  0.
          5    1    3    3  502    0  0.72300095658E+02 -0.12768730381E+03 -0.41447266456E+03  0.43970561863E+03  0.47000000000E+01 0. -1.
         -5    1    3    3    0  502  0.37380433925E+02 -0.93706577873E+02 -0.87755008756E+02  0.13379555725E+03  0.47000000000E+01 0. -1.
        -11    1    1    2    0    0 -0.12470303320E+03  0.20056803392E+03  0.33321265033E+02  0.23851349946E+03  0.00000000000E+00 0.  1.
         11    1    1    2    0    0  0.15022503616E+02  0.20825847760E+02  0.94736275352E+01  0.27370443338E+02  0.00000000000E+00 0. -1.
<mgrwt>
<rscale>  0 0.27320254E+03</rscale>
<asrwt>0</asrwt>
<pdfrwt beam="2">  1        2 0.99909069E-01 0.27689522E+03</pdfrwt>
<pdfrwt beam="1">  1       -2 0.29227103E-01 0.27689522E+03</pdfrwt>
<totfact> 0.49534708E+02</totfact>
</mgrwt>
</event>
<event>
 6    1  0.5206756E-006  0.4475694E+03  0.7546771E-02  0.1028449E+00
         -2   -1    0    0    0  501 -0.00000000000E+00  0.00000000000E+00  0.75723909591E+02  0.75723909591E+02  0.00000000000E+00 0.  1.
          2   -1    0    0  501    0  0.00000000000E+00 -0.00000000000E+00 -0.66134456620E+03  0.66134456620E+03  0.00000000000E+00 0. -1.
          5    1    1    2  502    0  0.17442606531E+03  0.29076016154E+02 -0.42027457564E+03  0.45598539001E+03  0.47000000000E+01 0. -1.
         -5    1    1    2    0  502 -0.10039187640E+02 -0.85606231083E+00  0.15364166274E+02  0.18964855297E+02  0.47000000000E+01 0.  1.
        -11    1    1    2    0    0 -0.13898537724E+03 -0.58035618505E+02 -0.14650759437E+03  0.21011792715E+03  0.00000000000E+00 0.  1.
         11    1    1    2    0    0 -0.25401500433E+02  0.29815664661E+02 -0.34202652877E+02  0.52000303338E+02  0.00000000000E+00 0. -1.
<mgrwt>
<rscale>  0 0.44756942E+03</rscale>
<asrwt>0</asrwt>
<pdfrwt beam="2">  1        2 0.10174531E+00 0.44756942E+03</pdfrwt>
<pdfrwt beam="1">  1       -2 0.11649833E-01 0.44756942E+03</pdfrwt>
<totfact> 0.23434080E+03</totfact>
</mgrwt>
</event>
<event>
 7    1  0.5206756E-006  0.1316942E+03  0.7546771E-02  0.1237342E+00
          1   -1    0    0  501    0  0.00000000000E+00  0.00000000000E+00  0.39268736532E+03  0.39268736532E+03  0.00000000000E+00 0. -1.
         -1   -1    0    0    0  501 -0.00000000000E+00 -0.00000000000E+00 -0.79201159544E+02  0.79201159544E+02  0.00000000000E+00 0.  1.
         23    2    1    2    0    0  0.38560060270E+01 -0.41273915317E+02  0.34154986383E+03  0.36605966440E+03  0.12499985420E+03 0.  0.
          5    1    3    3  502    0 -0.45549340048E+02 -0.11855387217E+02  0.49890934834E+02  0.68749457914E+02  0.47000000000E+01 0. -1.
         -5    1    3    3    0  502  0.49405346075E+02 -0.29418528100E+02  0.29165892899E+03  0.29731020648E+03  0.47000000000E+01 0. -1.
        -11    1    1    2    0    0 -0.34451790926E+00 -0.29306086232E+02 -0.18141150781E+02  0.34468343947E+02  0.00000000000E+00 0.  1.
         11    1    1    2    0    0 -0.35114881178E+01  0.70580001549E+02 -0.99225072715E+01  0.71360516520E+02  0.00000000000E+00 0. -1.
<mgrwt>
<rscale>  0 0.12355711E+03</rscale>
<asrwt>0</asrwt>
<pdfrwt beam="1">  1        1 0.60413439E-01 0.13169422E+03</pdfrwt>
<pdfrwt beam="2">  1       -1 0.12184794E-01 0.13169422E+03</pdfrwt>
<totfact> 0.26989743E+03</totfact>
</mgrwt>
</event>
<event>
 7    1  0.5206756E-006  0.3232929E+03  0.7546771E-02  0.1074250E+00
         -2   -1    0    0    0  501 -0.00000000000E+00  0.00000000000E+00  0.38091367167E+03  0.38091367167E+03  0.00000000000E+00 0.  1.
          2   -1    0    0  501    0  0.00000000000E+00 -0.00000000000E+00 -0.28676285610E+03  0.28676285610E+03  0.00000000000E+00 0. -1.
         23    2    1    2    0    0  0.13547211527E+03 -0.26559018521E+03 -0.24401939659E+02  0.32421247423E+03  0.12500973279E+03 0.  0.
          5    1    3    3  502    0  0.63607348903E+02 -0.41706357781E+02 -0.44373458991E+02  0.88183949654E+02  0.47000000000E+01 0.  1.
         -5    1    3    3    0  502  0.71864766371E+02 -0.22388382743E+03  0.19971519332E+02  0.23602852458E+03  0.47000000000E+01 0.  1.
        -11    1    1    2    0    0 -0.12974060511E+03  0.12614911672E+03  0.48689354226E+02  0.18739497719E+03  0.00000000000E+00 0. -1.
         11    1    1    2    0    0 -0.57315101654E+01  0.13944106849E+03  0.69863401003E+02  0.15606907635E+03  0.00000000000E+00 0.  1.
<mgrwt>
<rscale>  0 0.32305816E+03</rscale>
<asrwt>0</asrwt>
<pdfrwt beam="2">  1        2 0.44117362E-01 0.32329286E+03</pdfrwt>
<pdfrwt beam="1">  1       -2 0.58602103E-01 0.32329286E+03</pdfrwt>
<totfact> 0.32030598E+02</totfact>
</mgrwt>
</event>
<event>
 7    1  0.5206756E-006  0.1735092E+03  0.7546771E-02  0.1177514E+00
         -2   -1    0    0    0  501 -0.00000000000E+00  0.00000000000E+00  0.41471279735E+02  0.41471279735E+02  0.00000000000E+00 0.  1.
          2   -1    0    0  501    0  0.00000000000E+00 -0.00000000000E+00 -0.67561412796E+03  0.67561412796E+03  0.00000000000E+00 0. -1.
         23    2    1    2    0    0  0.72595610782E+02  0.95984049374E+02 -0.31762051987E+03  0.36192296585E+03  0.12498951207E+03 0.  0.
          5    1    3    3  502    0  0.39513508354E+02  0.93467277802E+02 -0.31177587838E+03  0.32790812388E+03  0.47000000000E+01 0.  1.
         -5    1    3    3    0  502  0.33082102429E+02  0.25167715720E+01 -0.58446414855E+01  0.34014841971E+02  0.47000000000E+01 0.  1.
        -11    1    1    2    0    0 -0.93592203452E+02 -0.42486519326E+02 -0.18508241334E+03  0.21170759221E+03  0.00000000000E+00 0.  1.
         11    1    1    2    0    0  0.20996592670E+02 -0.53497530048E+02 -0.13143991501E+03  0.14345484964E+03  0.00000000000E+00 0. -1.
<mgrwt>
<rscale>  0 0.17032067E+03</rscale>
<asrwt>0</asrwt>
<pdfrwt beam="2">  1        2 0.10394063E+00 0.17350919E+03</pdfrwt>
<pdfrwt beam="1">  1       -2 0.63801974E-02 0.17350919E+03</pdfrwt>
<totfact> 0.57633836E+03</totfact>
</mgrwt>
</event>
<event>
 7    1  0.5206756E-006  0.1349612E+03  0.7546771E-02  0.1232458E+00
          3   -1    0    0  501    0  0.00000000000E+00  0.00000000000E+00  0.10279915955E+02  0.10279915955E+02  0.00000000000E+00 0. -1.
         -3   -1    0    0    0  501 -0.00000000000E+00 -0.00000000000E+00 -0.14180167380E+04  0.14180167380E+04  0.00000000000E+00 0.  1.
         23    2    1    2    0    0  0.19590161541E+02 -0.46975966022E+02 -0.87583235766E+03  0.88616975361E+03  0.12499599069E+03 0.  0.
          5    1    3    3  502    0  0.59100731810E+02 -0.62816117544E+02 -0.45199626349E+03  0.46017548102E+03  0.47000000000E+01 0.  1.
         -5    1    3    3    0  502 -0.39510570269E+02  0.15840151522E+02 -0.42383609417E+03  0.42599427259E+03  0.47000000000E+01 0.  1.
        -11    1    1    2    0    0 -0.55464208357E+02  0.17337931075E+02 -0.28150835890E+03  0.28744362647E+03  0.00000000000E+00 0.  1.
         11    1    1    2    0    0  0.35874046816E+02  0.29638034947E+02 -0.25039610544E+03  0.25468327384E+03  0.00000000000E+00 0. -1.
<mgrwt>
<rscale>  0 0.12668582E+03</rscale>
<asrwt>0</asrwt>
<pdfrwt beam="1">  1        3 0.15815257E-02 0.13496116E+03</pdfrwt>
<pdfrwt beam="2">  1       -3 0.21815640E+00 0.13496116E+03</pdfrwt>
<totfact> 0.39893456E+02</totfact>
</mgrwt>
</event>
<event>
 7    1  0.5206756E-006  0.1424219E+03  0.7546771E-02  0.1216709E+00
         -1   -1    0    0    0  501 -0.00000000000E+00  0.00000000000E+00  0.49661165862E+02  0.49661165862E+02  0.00000000000E+00 0.  1.
          1   -1    0    0  501    0  0.00000000000E+00 -0.00000000000E+00 -0.57957656719E+03  0.57957656719E+03  0.00000000000E+00 0. -1.
         23    2    1    2    0    0 -0.53428998389E+02  0.28629234615E+01 -0.44832042127E+03  0.46509838671E+03  0.11163536620E+03 0.  0.
          5    1    3    3  502    0  0.30383535525E+02  0.21356594761E+02 -0.11932504097E+03  0.12505926105E+03  0.47000000000E+01 0.  1.
         -5    1    3    3    0  502 -0.83812533915E+02 -0.18493671300E+02 -0.32899538030E+03  0.34003912566E+03  0.47000000000E+01 0. -1.
        -11    1    1    2    0    0 -0.83242300885E+01  0.35860245030E+02 -0.83467443801E+02  0.91225348203E+02  0.00000000000E+00 0. -1.
         11    1    1    2    0    0  0.61753228478E+02 -0.38723168491E+02  0.18724637398E+01  0.72913998148E+02  0.00000000000E+00 0.  1.
<mgrwt>
<rscale>  0 0.13751771E+03</rscale>
<asrwt>0</asrwt>
<pdfrwt beam="2">  1        1 0.89165629E-01 0.14242185E+03</pdfrwt>
<pdfrwt beam="1">  1       -1 0.76401791E-02 0.14242185E+03</pdfrwt>
<totfact> 0.33283055E+03</totfact>
</mgrwt>
</event>
<event>
 6    1  0.5206756E-006  0.1743119E+03  0.7546771E-02  0.1187228E+00
         -1   -1    0    0    0  501 -0.00000000000E+00  0.00000000000E+00  0.17729403192E+02  0.17729403192E+02  0.00000000000E+00 0.  1.
          1   -1    0    0  501    0  0.00000000000E+00 -0.00000000000E+00 -0.13255828445E+04  0.13255828445E+04  0.00000000000E+00 0. -1.
          5    1    1    2  502    0 -0.50643137478E+02  0.14380500483E+02 -0.51683262206E+03  0.51952822387E+03  0.47000000000E+01 0. -1.
         -5    1    1    2    0  502 -0.23685986399E+02 -0.99277836493E+02 -0.34764230778E+03  0.36234566222E+03  0.47000000000E+01 0.  1.
        -11    1    1    2    0    0  0.41151389129E+02  0.76008555168E+01 -0.11237019566E+03  0.11990942709E+03  0.00000000000E+00 0. -1.
         11    1    1    2    0    0  0.33177734747E+02  0.77296480494E+02 -0.33100831582E+03  0.34152893453E+03  0.00000000000E+00 0.  1.
<mgrwt>
<rscale>  0 0.16130754E+03</rscale>
<asrwt>0</asrwt>
<pdfrwt beam="2">  1        1 0.20393591E+00 0.17431192E+03</pdfrwt>
<pdfrwt beam="1">  1       -1 0.27275993E-02 0.17431192E+03</pdfrwt>
<totfact> 0.40349704E+03</totfact>
</mgrwt>
</event>
<event>
 7    1  0.5206756E-006  0.2371083E+03  0.7546771E-02  0.1124446E+00
          1   -1    0    0  501    0  0.00000000000E+00  0.00000000000E+00  0.17193007884E+03  0.17193007884E+03  0.00000000000E+00 0.  1.
         -1   -1    0    0    0  501 -0.00000000000E+00 -0.00000000000E+00 -0.33047439418E+03  0.33047439418E+03  0.00000000000E+00 0. -1.
         23    2    1    2    0    0 -0.37893516718E+02  0.19786543123E+03 -0.13446667644E+02  0.23748923194E+03  0.12503469491E+03 0.  0.
          5    1    3    3  502    0 -0.57237084156E+02  0.11855088121E+03 -0.58489473725E+02  0.14413016262E+03  0.47000000000E+01 0. -1.
         -5    1    3    3    0  502  0.19343567438E+02  0.79314550015E+02  0.45042806081E+02  0.93359069323E+02  0.47000000000E+01 0. -1.
        -11    1    1    2    0    0 -0.18207187433E+02 -0.18698962015E+02 -0.45335999909E+02  0.52311621485E+02  0.00000000000E+00 0.  1.
         11    1    1    2    0    0  0.56100704151E+02 -0.17916646921E+03 -0.99761647792E+02  0.21260361960E+03  0.00000000000E+00 0. -1.
<mgrwt>
<rscale>  0 0.23314428E+03</rscale>
<asrwt>0</asrwt>
<pdfrwt beam="1">  1        1 0.26450782E-01 0.23710825E+03</pdfrwt>
<pdfrwt beam="2">  1       -1 0.50842214E-01 0.23710825E+03</pdfrwt>
<totfact> 0.70976948E+02</totfact>
</mgrwt>
</event>
<event>
 7    1  0.5206756E-006  0.1439253E+03  0.7546771E-02  0.1217150E+00
          3   -1    0    0  501    0  0.00000000000E+00  0.00000000000E+00  0.11336520734E+03  0.11336520734E+03  0.00000000000E+00 0. -1.
         -3   -1    0    0    0  501 -0.00000000000E+00 -0.00000000000E+00 -0.15232454953E+03  0.15232454953E+03  0.00000000000E+00 0.  1.
         23    2    1    2    0    0  0.22346862633E+02  0.67734260319E+02 -0.23856946714E+02  0.14588917496E+03  0.12500874039E+03 0.  0.
          5    1    3    3  502    0  0.32036393762E+02  0.98434616220E+02 -0.38057075910E+02  0.11039082943E+03  0.47000000000E+01 0.  1.
         -5    1    3    3    0  502 -0.96895311295E+01 -0.30700355901E+02  0.14200129196E+02  0.35498345527E+02  0.47000000000E+01 0.  1.
        -11    1    1    2    0    0 -0.45742502109E+02  0.83627763632E+00 -0.11926444548E+02  0.47279127942E+02  0.00000000000E+00 0.  1.
         11    1    1    2    0    0  0.23395639476E+02 -0.68570537955E+02 -0.31759509274E+01  0.72521453972E+02  0.00000000000E+00 0. -1.
<mgrwt>
<rscale>  0 0.13719807E+03</rscale>
<asrwt>0</asrwt>
<pdfrwt beam="1">  1        3 0.17440801E-01 0.14392532E+03</pdfrwt>
<pdfrwt beam="2">  1       -3 0.23434546E-01 0.14392532E+03</pdfrwt>
<totfact> 0.11221247E+03</totfact>
</mgrwt>
</event>
<event>
 7    1  0.5206756E-006  0.1469238E+03  0.7546771E-02  0.1213873E+00
          1   -1    0    0  501    0  0.00000000000E+00  0.00000000000E+00  0.80476064955E+02  0.80476064955E+02  0.00000000000E+00 0. -1.
         -1   -1    0    0    0  501 -0.00000000000E+00 -0.00000000000E+00 -0.30686421696E+03  0.30686421696E+03  0.00000000000E+00 0.  1.
         23    2    1    2    0    0  0.13200988193E+02 -0.76071921866E+02 -0.19376764773E+02  0.14819603147E+03  0.12500160537E+03 0.  0.
          5    1    3    3  502    0  0.62044762060E+02 -0.59690926838E+02 -0.36602924182E+02  0.93671891752E+02  0.47000000000E+01 0.  1.
         -5    1    3    3    0  502 -0.48843773867E+02 -0.16380995028E+02  0.17226159409E+02  0.54524139715E+02  0.47000000000E+01 0.  1.
        -11    1    1    2    0    0 -0.27332532203E+02  0.44073759977E+02 -0.19558748926E+03  0.20234631104E+03  0.00000000000E+00 0.  1.
         11    1    1    2    0    0  0.14131544010E+02  0.31998161889E+02 -0.11423897978E+02  0.36797939418E+02  0.00000000000E+00 0. -1.
<mgrwt>
<rscale>  0 0.13959620E+03</rscale>
<asrwt>0</asrwt>
<pdfrwt beam="1">  1        1 0.12380933E-01 0.14692381E+03</pdfrwt>
<pdfrwt beam="2">  1       -1 0.47209880E-01 0.14692381E+03</pdfrwt>
<totfact> 0.21432222E+03</totfact>
</mgrwt>
</event>
<event>
 7    1  0.5206756E-006  0.2929978E+03  0.7546771E-02  0.1090239E+00
          2   -1    0    0  501    0  0.00000000000E+00  0.00000000000E+00  0.21088328948E+04  0.21088328948E+04  0.00000000000E+00 0. -1.
         -2   -1    0    0    0  501 -0.00000000000E+00 -0.00000000000E+00 -0.40483143620E+02  0.40483143620E+02  0.00000000000E+00 0.  1.
         23    2    1    2    0    0 -0.23255398736E+03 -0.12706272776E+03  0.12448527777E+04  0.12788690793E+04  0.12498555894E+03 0.  0.
          5    1    3    3  502    0 -0.23380857645E+03 -0.96029321768E+02  0.97687318030E+03  0.10090546970E+04  0.47000000000E+01 0.  1.
         -5    1    3    3    0  502  0.12545890835E+01 -0.31033405988E+02  0.26797959741E+03  0.26981438233E+03  0.47000000000E+01 0.  1.
        -11    1    1    2    0    0  0.21952736479E+03  0.82059452615E+02  0.66031007092E+03  0.70066782959E+03  0.00000000000E+00 0.  1.
         11    1    1    2    0    0  0.13026622574E+02  0.45003275141E+02  0.16318690253E+03  0.16977912954E+03  0.00000000000E+00 0. -1.
<mgrwt>
<rscale>  0 0.29021178E+03</rscale>
<asrwt>0</asrwt>
<pdfrwt beam="1">  1        2 0.32443574E+00 0.29299775E+03</pdfrwt>
<pdfrwt beam="2">  1       -2 0.62281776E-02 0.29299775E+03</pdfrwt>
<totfact> 0.90696885E+02</totfact>
</mgrwt>
</event>
<event>
 7    1  0.5206756E-006  0.1775238E+03  0.7546771E-02  0.1175954E+00
          3   -1    0    0  501    0  0.00000000000E+00  0.00000000000E+00  0.43816823708E+02  0.43816823708E+02  0.00000000000E+00 0. -1.
         -3   -1    0    0    0  501 -0.00000000000E+00 -0.00000000000E+00 -0.64585594877E+03  0.64585594877E+03  0.00000000000E+00 0.  1.
         23    2    1    2    0    0 -0.66626101039E+02  0.10700048184E+03 -0.36693156049E+03  0.40761928140E+03  0.12500627197E+03 0.  0.
          5    1    3    3  502    0  0.42768656493E+01 -0.23576017850E+02 -0.90663075484E+02  0.93893575145E+02  0.47000000000E+01 0.  1.
         -5    1    3    3    0  502 -0.70902966689E+02  0.13057649969E+03 -0.27626848501E+03  0.31372570625E+03  0.47000000000E+01 0.  1.
        -11    1    1    2    0    0  0.83871058581E+02 -0.94371005357E+02 -0.15916098132E+03  0.20315624306E+03  0.00000000000E+00 0. -1.
         11    1    1    2    0    0 -0.17244957542E+02 -0.12629476486E+02 -0.75946583254E+02  0.78897248019E+02  0.00000000000E+00 0.  1.
<mgrwt>
<rscale>  0 0.17182860E+03</rscale>
<asrwt>0</asrwt>
<pdfrwt beam="1">  1        3 0.67410503E-02 0.17752383E+03</pdfrwt>
<pdfrwt beam="2">  1       -3 0.99362446E-01 0.17752383E+03</pdfrwt>
<totfact> 0.31202717E+02</totfact>
</mgrwt>
</event>
<event>
 7    1  0.5206756E-006  0.1442372E+03  0.7546771E-02  0.1217607E+00
         -2   -1    0    0    0  501 -0.00000000000E+00  0.00000000000E+00  0.16795190443E+03  0.16795190443E+03  0.00000000000E+00 0.  1.
          2   -1    0    0  501    0  0.00000000000E+00 -0.00000000000E+00 -0.11857807187E+03  0.11857807187E+03  0.00000000000E+00 0. -1.
         23    2    1    2    0    0  0.71454368197E+02  0.85431466054E+01 -0.27158252189E+02  0.14677171041E+03  0.12500260888E+03 0.  0.
          5    1    3    3  502    0  0.13102663456E+02 -0.24540904166E+02  0.41816006985E+02  0.50444070088E+02  0.47000000000E+01 0.  1.
         -5    1    3    3    0  502  0.58351704741E+02  0.33084050772E+02 -0.68974259174E+02  0.96327640323E+02  0.47000000000E+01 0.  1.
        -11    1    1    2    0    0 -0.77693727850E+02  0.12069110381E+02  0.85743225641E+02  0.11633520325E+03  0.00000000000E+00 0.  1.
         11    1    1    2    0    0  0.62393596536E+01 -0.20612256986E+02 -0.92111408854E+01  0.23423062638E+02  0.00000000000E+00 0. -1.
<mgrwt>
<rscale>  0 0.13686729E+03</rscale>
<asrwt>0</asrwt>
<pdfrwt beam="2">  1        2 0.18242780E-01 0.14423718E+03</pdfrwt>
<pdfrwt beam="1">  1       -2 0.25838755E-01 0.14423718E+03</pdfrwt>
<totfact> 0.39817682E+03</totfact>
</mgrwt>
</event>
<event>
 7    1  0.5206756E-006  0.1240820E+03  0.7546771E-02  0.1247934E+00
         -1   -1    0    0    0  501 -0.00000000000E+00  0.00000000000E+00  0.10723063924E+03  0.10723063924E+03  0.00000000000E+00 0.  1.
          1   -1    0    0  501    0  0.00000000000E+00 -0.00000000000E+00 -0.25182159646E+03  0.25182159646E+03  0.00000000000E+00 0. -1.
         23    2    1    2    0    0  0.12546395017E+02 -0.36360560698E+02 -0.20780718866E+03  0.24203339407E+03  0.11796963077E+03 0.  0.
          5    1    3    3  502    0 -0.48964964841E+02 -0.34877453197E+02 -0.12477331887E+03  0.13858021369E+03  0.47000000000E+01 0. -1.
         -5    1    3    3    0  502  0.61511359858E+02 -0.14831075011E+01 -0.83033869796E+02  0.10345318039E+03  0.47000000000E+01 0.  1.
        -11    1    1    2    0    0 -0.27808337881E+02  0.51530722865E+02  0.97196041603E+01  0.59356463504E+02  0.00000000000E+00 0. -1.
         11    1    1    2    0    0  0.15261942864E+02 -0.15170162167E+02  0.53496627287E+02  0.57662378127E+02  0.00000000000E+00 0.  1.
<mgrwt>
<rscale>  0 0.11711482E+03</rscale>
<asrwt>0</asrwt>
<pdfrwt beam="2">  1        1 0.38741784E-01 0.12408197E+03</pdfrwt>
<pdfrwt beam="1">  1       -1 0.16497022E-01 0.12408197E+03</pdfrwt>
<totfact> 0.29122423E+03</totfact>
</mgrwt>
</event>
<event>
 7    1  0.5206756E-006  0.2731676E+03  0.7546771E-02  0.1101614E+00
         -2   -1    0    0    0  501 -0.00000000000E+00  0.00000000000E+00  0.77996484660E+02  0.77996484660E+02  0.00000000000E+00 0.  1.
          2   -1    0    0  501    0  0.00000000000E+00 -0.00000000000E+00 -0.96940525174E+03  0.96940525174E+03  0.00000000000E+00 0. -1.
         23    2    1    2    0    0 -0.12584658723E+03  0.20774625180E+03 -0.59118831983E+03  0.65124814887E+03  0.12499861301E+03 0.  0.
          5    1    3    3  502    0 -0.57009793529E+02  0.86044101133E+02 -0.11346022998E+03  0.15345689195E+03  0.47000000000E+01 0.  1.
         -5    1    3    3    0  502 -0.68836793702E+02  0.12170215067E+03 -0.47772808985E+03  0.49779125693E+03  0.47000000000E+01 0.  1.
        -11    1    1    2    0    0 -0.23357782862E+01 -0.23490744545E+02 -0.73173099852E+02  0.76886757517E+02  0.00000000000E+00 0. -1.
         11    1    1    2    0    0  0.12818236552E+03 -0.18425550726E+03 -0.22704734740E+03  0.31926683001E+03  0.00000000000E+00 0.  1.
<mgrwt>
<rscale>  0 0.26941592E+03</rscale>
<asrwt>0</asrwt>
<pdfrwt beam="2">  1        2 0.14913928E+00 0.27316757E+03</pdfrwt>
<pdfrwt beam="1">  1       -2 0.11999459E-01 0.27316757E+03</pdfrwt>
<totfact> 0.13569979E+03</totfact>
</mgrwt>
</event>
<event>
 7    1  0.5206756E-006  0.1460790E+03  0.7546771E-02  0.1215249E+00
          2   -1    0    0  501    0  0.00000000000E+00  0.00000000000E+00  0.64575857001E+03  0.64575857001E+03  0.00000000000E+00 0.  1.
         -2   -1    0    0    0  501 -0.00000000000E+00 -0.00000000000E+00 -0.37076631607E+02  0.37076631607E+02  0.00000000000E+00 0. -1.
         23    2    1    2    0    0 -0.24746726719E+02 -0.71415239178E+02  0.50436309555E+03  0.52509161413E+03  0.12500613667E+03 0.  0.
          5    1    3    3  502    0 -0.16957022044E+02 -0.10364549247E+03  0.29735050616E+03  0.31538760631E+03  0.47000000000E+01 0. -1.
         -5    1    3    3    0  502 -0.77897046747E+01  0.32230253290E+02  0.20701258940E+03  0.20970400782E+03  0.47000000000E+01 0. -1.
        -11    1    1    2    0    0  0.42884786892E+02  0.18647741856E+02  0.87924812187E+02  0.99587227199E+02  0.00000000000E+00 0.  1.
         11    1    1    2    0    0 -0.18138060173E+02  0.52767497322E+02  0.16394030666E+02  0.58156360288E+02  0.00000000000E+00 0. -1.
<mgrwt>
<rscale>  0 0.13858276E+03</rscale>
<asrwt>0</asrwt>
<pdfrwt beam="1">  1        2 0.99347464E-01 0.14607899E+03</pdfrwt>
<pdfrwt beam="2">  1       -2 0.57040977E-02 0.14607899E+03</pdfrwt>
<totfact> 0.71464986E+03</totfact>
</mgrwt>
</event>
<event>
 7    1  0.5206756E-006  0.1356879E+03  0.7546771E-02  0.1231781E+00
         -3   -1    0    0    0  501 -0.00000000000E+00  0.00000000000E+00  0.29049161027E+03  0.29049161027E+03  0.00000000000E+00 0.  1.
          3   -1    0    0  501    0  0.00000000000E+00 -0.00000000000E+00 -0.51410435864E+02  0.51410435864E+02  0.00000000000E+00 0. -1.
         23    2    1    2    0    0 -0.41886934488E+02 -0.32115876080E+02  0.10331818693E+03  0.17054578053E+03  0.12500108291E+03 0.  0.
          5    1    3    3  502    0  0.12446046489E+02 -0.68031859433E+02  0.63846972888E+02  0.94243110720E+02  0.47000000000E+01 0. -1.
         -5    1    3    3    0  502 -0.54332980978E+02  0.35915983353E+02  0.39471214047E+02  0.76302669812E+02  0.47000000000E+01 0. -1.
        -11    1    1    2    0    0 -0.13815630223E+02  0.20432614369E+02  0.57011215949E+00  0.24671611141E+02  0.00000000000E+00 0. -1.
         11    1    1    2    0    0  0.55702564712E+02  0.11683261712E+02  0.13519287531E+03  0.14668465446E+03  0.00000000000E+00 0.  1.
<mgrwt>
<rscale>  0 0.12712773E+03</rscale>
<asrwt>0</asrwt>
<pdfrwt beam="2">  1        3 0.79092980E-02 0.13568793E+03</pdfrwt>
<pdfrwt beam="1">  1       -3 0.44691016E-01 0.13568793E+03</pdfrwt>
<totfact> 0.12503790E+03</totfact>
</mgrwt>
</event>
<event>
 7    1  0.1747647E-005  0.3313438E+03  0.7546771E-02  0.1071829E+00
         -1   -1    0    0    0  501 -0.00000000000E+00  0.00000000000E+00  0.19178778962E+03  0.19178778962E+03  0.00000000000E+00 0.  1.
          1   -1    0    0  501    0  0.00000000000E+00 -0.00000000000E+00 -0.60385317221E+03  0.60385317221E+03  0.00000000000E+00 0. -1.
         23    2    1    2    0    0 -0.29272935523E+03  0.92051398464E+02 -0.32498535399E+03  0.46411654382E+03  0.12499900228E+03 0.  0.
          5    1    3    3  502    0 -0.50904397041E+01 -0.19111769708E+02 -0.79750801807E+01  0.21837221015E+02  0.47000000000E+01 0.  1.
         -5    1    3    3    0  502 -0.28763891553E+03  0.11116316817E+03 -0.31701027381E+03  0.44227932281E+03  0.47000000000E+01 0.  1.
        -11    1    1    2    0    0  0.23528487590E+03 -0.34153461705E+02 -0.56108484658E+02  0.24428179184E+03  0.00000000000E+00 0.  1.
         11    1    1    2    0    0  0.57444479336E+02 -0.57897936759E+02 -0.30971543939E+02  0.87242626170E+02  0.00000000000E+00 0. -1.
<mgrwt>
<rscale>  0 0.32844079E+03</rscale>
<asrwt>0</asrwt>
<pdfrwt beam="2">  1        1 0.92900488E-01 0.33134376E+03</pdfrwt>
<pdfrwt beam="1">  1       -1 0.29505814E-01 0.33134376E+03</pdfrwt>
<totfact> 0.36736120E+02</totfact>
</mgrwt>
</event>
<event>
 7    1  0.5206756E-006  0.2151577E+03  0.7546771E-02  0.1140921E+00
         -1   -1    0    0    0  501 -0.00000000000E+00  0.00000000000E+00  0.82714704184E+03  0.82714704184E+03  0.00000000000E+00 0.  1.
          1   -1    0    0  501    0  0.00000000000E+00 -0.00000000000E+00 -0.51746132472E+02  0.51746132472E+02  0.00000000000E+00 0. -1.
         23    2    1    2    0    0 -0.10379627476E+03 -0.14104673337E+03  0.42024064805E+03  0.47211760995E+03  0.12499995083E+03 0.  0.
          5    1    3    3  502    0 -0.11395653987E+02 -0.40729177078E+02  0.15998598915E+02  0.45461763741E+02  0.47000000000E+01 0. -1.
         -5    1    3    3    0  502 -0.92400620778E+02 -0.10031755629E+03  0.40424204913E+03  0.42665584621E+03  0.47000000000E+01 0. -1.
        -11    1    1    2    0    0  0.10066414807E+03  0.12015862561E+03  0.35212208649E+03  0.38543654447E+03  0.00000000000E+00 0.  1.
         11    1    1    2    0    0  0.31321266918E+01  0.20888107762E+02  0.30381748249E+01  0.21339019888E+02  0.00000000000E+00 0. -1.
<mgrwt>
<rscale>  0 0.21081659E+03</rscale>
<asrwt>0</asrwt>
<pdfrwt beam="2">  1        1 0.79609441E-02 0.21515770E+03</pdfrwt>
<pdfrwt beam="1">  1       -1 0.12725338E+00 0.21515770E+03</pdfrwt>
<totfact> 0.50206890E+02</totfact>
</mgrwt>
</event>
<event>
 7    1  0.5206756E-006  0.1335783E+03  0.7546771E-02  0.1235113E+00
          2   -1    0    0  501    0  0.00000000000E+00  0.00000000000E+00  0.79649840138E+03  0.79649840138E+03  0.00000000000E+00 0.  1.
         -2   -1    0    0    0  501 -0.00000000000E+00 -0.00000000000E+00 -0.20379448679E+02  0.20379448679E+02  0.00000000000E+00 0. -1.
         23    2    1    2    0    0  0.44904821341E+02 -0.14203613705E+02  0.58527913240E+03  0.60032891987E+03  0.12499985437E+03 0.  0.
          5    1    3    3  502    0  0.77363734785E+02 -0.34816343607E+02  0.49269355034E+03  0.49996634865E+03  0.47000000000E+01 0.  1.
         -5    1    3    3    0  502 -0.32458913444E+02  0.20612729902E+02  0.92585582057E+02  0.10036257121E+03  0.47000000000E+01 0.  1.
        -11    1    1    2    0    0 -0.71690958080E+02  0.17341573368E+01  0.12000768855E+03  0.13980145236E+03  0.00000000000E+00 0.  1.
         11    1    1    2    0    0  0.26786136739E+02  0.12469456368E+02  0.70832131758E+02  0.76747477828E+02  0.00000000000E+00 0. -1.
<mgrwt>
<rscale>  0 0.12497232E+03</rscale>
<asrwt>0</asrwt>
<pdfrwt beam="1">  1        2 0.12253819E+00 0.13357825E+03</pdfrwt>
<pdfrwt beam="2">  1       -2 0.31353004E-02 0.13357825E+03</pdfrwt>
<totfact> 0.13493015E+04</totfact>
</mgrwt>
</event>
<event>
 7    1  0.5206756E-006  0.1301877E+03  0.7546771E-02  0.1241627E+00
         -2   -1    0    0    0  501 -0.00000000000E+00  0.00000000000E+00  0.34668170170E+02  0.34668170170E+02  0.00000000000E+00 0.  1.
          2   -1    0    0  501    0  0.00000000000E+00 -0.00000000000E+00 -0.37165588289E+03  0.37165588289E+03  0.00000000000E+00 0. -1.
         23    2    1    2    0    0  0.35132688891E+02  0.97076890588E+01 -0.19598400390E+03  0.23528401390E+03  0.12498116802E+03 0.  0.
          5    1    3    3  502    0  0.58361482377E+02 -0.25402726316E+02 -0.44034184359E+02  0.77540057530E+02  0.47000000000E+01 0.  1.
         -5    1    3    3    0  502 -0.23228793486E+02  0.35110415375E+02 -0.15194981954E+03  0.15774395637E+03  0.47000000000E+01 0.  1.
        -11    1    1    2    0    0 -0.32297266119E+02  0.10671596890E+02 -0.14596407244E+03  0.14987497063E+03  0.00000000000E+00 0. -1.
         11    1    1    2    0    0 -0.28354227724E+01 -0.20379285949E+02  0.49603636228E+01  0.21165068518E+02  0.00000000000E+00 0.  1.
<mgrwt>
<rscale>  0 0.12089554E+03</rscale>
<asrwt>0</asrwt>
<pdfrwt beam="2">  1        2 0.57177825E-01 0.13018770E+03</pdfrwt>
<pdfrwt beam="1">  1       -2 0.53335649E-02 0.13018770E+03</pdfrwt>
<totfact> 0.14414114E+04</totfact>
</mgrwt>
</event>
<event>
 7    1  0.5206756E-006  0.1377925E+03  0.7546771E-02  0.1228201E+00
         -1   -1    0    0    0  501 -0.00000000000E+00  0.00000000000E+00  0.52079617110E+03  0.52079617110E+03  0.00000000000E+00 0.  1.
          1   -1    0    0  501    0  0.00000000000E+00 -0.00000000000E+00 -0.34752297265E+02  0.34752297265E+02  0.00000000000E+00 0. -1.
         23    2    1    2    0    0  0.21164636111E+02  0.53997448543E+02  0.15452678974E+03  0.20703938346E+03  0.12499244492E+03 0.  0.
          5    1    3    3  502    0 -0.26458939367E+02  0.51557880883E+02  0.15769801398E+02  0.60241739598E+02  0.47000000000E+01 0.  1.
         -5    1    3    3    0  502  0.47623575478E+02  0.24395676594E+01  0.13875698834E+03  0.14679764386E+03  0.47000000000E+01 0.  1.
        -11    1    1    2    0    0 -0.38371876332E+02  0.79187583819E+01  0.17461712842E+03  0.17895879181E+03  0.00000000000E+00 0.  1.
         11    1    1    2    0    0  0.17207240221E+02 -0.61916206925E+02  0.15689995568E+03  0.16955029309E+03  0.00000000000E+00 0. -1.
<mgrwt>
<rscale>  0 0.12949872E+03</rscale>
<asrwt>0</asrwt>
<pdfrwt beam="2">  1        1 0.53465077E-02 0.13779252E+03</pdfrwt>
<pdfrwt beam="1">  1       -1 0.80122482E-01 0.13779252E+03</pdfrwt>
<totfact> 0.23886755E+03</totfact>
</mgrwt>
</event>
<event>
 7    1  0.5206756E-006  0.1439927E+03  0.7546771E-02  0.1218203E+00
          2   -1    0    0  501    0  0.00000000000E+00  0.00000000000E+00  0.15073852921E+03  0.15073852921E+03  0.00000000000E+00 0. -1.
         -2   -1    0    0    0  501 -0.00000000000E+00 -0.00000000000E+00 -0.11217973347E+03  0.11217973347E+03  0.00000000000E+00 0.  1.
         23    2    1    2    0    0 -0.92865116474E+01 -0.70886239647E+02  0.22575512299E+02  0.14575168056E+03  0.12499120114E+03 0.  0.
          5    1    3    3  502    0  0.54249330141E+02 -0.90371447615E+01  0.82542492049E+01  0.55811131829E+02  0.47000000000E+01 0. -1.
         -5    1    3    3    0  502 -0.63535841788E+02 -0.61849094885E+02  0.14321263094E+02  0.89940548733E+02  0.47000000000E+01 0. -1.
        -11    1    1    2    0    0  0.25384535738E+02  0.47767247246E+02 -0.31028141377E+02  0.62360485257E+02  0.00000000000E+00 0.  1.
         11    1    1    2    0    0 -0.16098024091E+02  0.23118992400E+02  0.47011424815E+02  0.54806096854E+02  0.00000000000E+00 0. -1.
<mgrwt>
<rscale>  0 0.13643838E+03</rscale>
<asrwt>0</asrwt>
<pdfrwt beam="1">  1        2 0.23190543E-01 0.14399270E+03</pdfrwt>
<pdfrwt beam="2">  1       -2 0.17258420E-01 0.14399270E+03</pdfrwt>
<totfact> 0.60492005E+03</totfact>
</mgrwt>
</event>
<event>
 7    1  0.5206756E-006  0.1267071E+03  0.7546771E-02  0.1247190E+00
         -2   -1    0    0    0  501 -0.00000000000E+00  0.00000000000E+00  0.47475340068E+03  0.47475340068E+03  0.00000000000E+00 0.  1.
          2   -1    0    0  501    0  0.00000000000E+00 -0.00000000000E+00 -0.25626150848E+02  0.25626150848E+02  0.00000000000E+00 0. -1.
         23    2    1    2    0    0 -0.17336185413E+02  0.11134685180E+02  0.25433105526E+03  0.28414604933E+03  0.12502066684E+03 0.  0.
          5    1    3    3  502    0 -0.39554657975E+02 -0.95731499660E+01  0.24973219820E+03  0.25307010291E+03  0.47000000000E+01 0. -1.
         -5    1    3    3    0  502  0.22218472562E+02  0.20707835146E+02  0.45988570604E+01  0.31075946416E+02  0.47000000000E+01 0. -1.
        -11    1    1    2    0    0 -0.99295821313E+01 -0.36966275597E+02  0.16171429495E+03  0.16618247598E+03  0.00000000000E+00 0.  1.
         11    1    1    2    0    0  0.27265767545E+02  0.25831590417E+02  0.33081899626E+02  0.50051026225E+02  0.00000000000E+00 0. -1.
<mgrwt>
<rscale>  0 0.11755231E+03</rscale>
<asrwt>0</asrwt>
<pdfrwt beam="2">  1        2 0.39424851E-02 0.12670711E+03</pdfrwt>
<pdfrwt beam="1">  1       -2 0.73038978E-01 0.12670711E+03</pdfrwt>
<totfact> 0.35613355E+03</totfact>
</mgrwt>
</event>
<event>
 7    1  0.5206756E-006  0.1585881E+03  0.7546771E-02  0.1198157E+00
         -2   -1    0    0    0  501 -0.00000000000E+00  0.00000000000E+00  0.37934071045E+03  0.37934071045E+03  0.00000000000E+00 0.  1.
          2   -1    0    0  501    0  0.00000000000E+00 -0.00000000000E+00 -0.57189913670E+02  0.57189913670E+02  0.00000000000E+00 0. -1.
         23    2    1    2    0    0  0.89474316525E+02 -0.38952812848E+02  0.20301376411E+03  0.25761358633E+03  0.12500878568E+03 0.  0.
          5    1    3    3  502    0  0.82450188876E+02 -0.79973692026E+02  0.13085478401E+03  0.17418062338E+03  0.47000000000E+01 0.  1.
         -5    1    3    3    0  502  0.70241276488E+01  0.41020879178E+02  0.72158980104E+02  0.83432962955E+02  0.47000000000E+01 0.  1.
        -11    1    1    2    0    0 -0.96624274922E+01  0.43617524155E+02  0.13962919092E+02  0.46806132376E+02  0.00000000000E+00 0.  1.
         11    1    1    2    0    0 -0.79811889033E+02 -0.46647113069E+01  0.10517411358E+03  0.13211090542E+03  0.00000000000E+00 0. -1.
<mgrwt>
<rscale>  0 0.15190051E+03</rscale>
<asrwt>0</asrwt>
<pdfrwt beam="2">  1        2 0.87984485E-02 0.15858806E+03</pdfrwt>
<pdfrwt beam="1">  1       -2 0.58360108E-01 0.15858806E+03</pdfrwt>
<totfact> 0.20526507E+03</totfact>
</mgrwt>
</event>
<event>
 7    1  0.5206756E-006  0.1943495E+03  0.7546771E-02  0.1159221E+00
          1   -1    0    0  501    0  0.00000000000E+00  0.00000000000E+00  0.36834101033E+02  0.36834101033E+02  0.00000000000E+00 0. -1.
         -1   -1    0    0    0  501 -0.00000000000E+00 -0.00000000000E+00 -0.99464867177E+03  0.99464867177E+03  0.00000000000E+00 0.  1.
         23    2    1    2    0    0  0.11932101629E+03 -0.88940616602E+02 -0.36465246878E+03  0.41321076746E+03  0.12499510847E+03 0.  0.
          5    1    3    3  502    0  0.13953886442E+03 -0.98937163920E+02 -0.32704981317E+03  0.36911153787E+03  0.47000000000E+01 0.  1.
         -5    1    3    3    0  502 -0.20217848133E+02  0.99965473178E+01 -0.37602655611E+02  0.44099229590E+02  0.47000000000E+01 0.  1.
        -11    1    1    2    0    0 -0.60849710596E+02  0.73745353519E+02 -0.48543912865E+03  0.49476480480E+03  0.00000000000E+00 0.  1.
         11    1    1    2    0    0 -0.58471305693E+02  0.15195263083E+02 -0.10772297330E+03  0.12350720054E+03  0.00000000000E+00 0. -1.
<mgrwt>
<rscale>  0 0.18916057E+03</rscale>
<asrwt>0</asrwt>
<pdfrwt beam="1">  1        1 0.56667860E-02 0.19434947E+03</pdfrwt>
<pdfrwt beam="2">  1       -1 0.15302284E+00 0.19434947E+03</pdfrwt>
<totfact> 0.50086195E+02</totfact>
</mgrwt>
</event>
<event>
 7    1  0.6801731E-006  0.3203502E+03  0.7546771E-02  0.1076807E+00
         -1   -1    0    0    0  501 -0.00000000000E+00  0.00000000000E+00  0.84328662290E+02  0.84328662290E+02  0.00000000000E+00 0.  1.
          1   -1    0    0  501    0  0.00000000000E+00 -0.00000000000E+00 -0.11950958399E+04  0.11950958399E+04  0.00000000000E+00 0. -1.
         23    2    1    2    0    0 -0.12971627160E+03 -0.26490444633E+03 -0.64900479813E+03  0.72376202092E+03  0.12499423239E+03 0.  0.
          5    1    3    3  502    0  0.96948589200E+01  0.61981410386E+01 -0.51353721842E+02  0.52836559207E+02  0.47000000000E+01 0.  1.
         -5    1    3    3    0  502 -0.13941113052E+03 -0.27110258737E+03 -0.59765107629E+03  0.67092546172E+03  0.47000000000E+01 0.  1.
        -11    1    1    2    0    0  0.39823614626E+02  0.13015892099E+03 -0.28543858960E+03  0.31623164520E+03  0.00000000000E+00 0. -1.
         11    1    1    2    0    0  0.89892656979E+02  0.13474552534E+03 -0.17632378986E+03  0.23943083604E+03  0.00000000000E+00 0.  1.
<mgrwt>
<rscale>  0 0.31749711E+03</rscale>
<asrwt>0</asrwt>
<pdfrwt beam="2">  1        1 0.18386089E+00 0.32035018E+03</pdfrwt>
<pdfrwt beam="1">  1       -1 0.12973641E-01 0.32035018E+03</pdfrwt>
<totfact> 0.46690987E+02</totfact>
</mgrwt>
</event>
<event>
 7    1  0.5206756E-006  0.1536502E+03  0.7546771E-02  0.1205985E+00
         -2   -1    0    0    0  501 -0.00000000000E+00  0.00000000000E+00  0.81634811229E+02  0.81634811229E+02  0.00000000000E+00 0.  1.
          2   -1    0    0  501    0  0.00000000000E+00 -0.00000000000E+00 -0.24430124025E+03  0.24430124025E+03  0.00000000000E+00 0. -1.
         23    2    1    2    0    0  0.10537856744E+02 -0.88774680362E+02 -0.11980114427E+03  0.19483508680E+03  0.12496562160E+03 0.  0.
          5    1    3    3  502    0 -0.11553440589E+02  0.28989187321E+02 -0.39328442843E+02  0.50424908403E+02  0.47000000000E+01 0.  1.
         -5    1    3    3    0  502  0.22091297332E+02 -0.11776386768E+03 -0.80472701427E+02  0.14441017840E+03  0.47000000000E+01 0.  1.
        -11    1    1    2    0    0 -0.15907968268E+02  0.70358665898E+02  0.11867066386E+02  0.73104258329E+02  0.00000000000E+00 0.  1.
         11    1    1    2    0    0  0.53701115245E+01  0.18416014464E+02 -0.54732351140E+02  0.57996706354E+02  0.00000000000E+00 0. -1.
<mgrwt>
<rscale>  0 0.14560074E+03</rscale>
<asrwt>0</asrwt>
<pdfrwt beam="2">  1        2 0.37584806E-01 0.15365024E+03</pdfrwt>
<pdfrwt beam="1">  1       -2 0.12559202E-01 0.15365024E+03</pdfrwt>
<totfact> 0.60351338E+03</totfact>
</mgrwt>
</event>
<event>
 7    1  0.5206756E-006  0.1479405E+03  0.7546771E-02  0.1212489E+00
          2   -1    0    0  501    0  0.00000000000E+00  0.00000000000E+00  0.39499466886E+03  0.39499466886E+03  0.00000000000E+00 0. -1.
         -2   -1    0    0    0  501 -0.00000000000E+00 -0.00000000000E+00 -0.45767188451E+02  0.45767188451E+02  0.00000000000E+00 0.  1.
         23    2    1    2    0    0 -0.75067900792E+02  0.25004059176E+02  0.18411144531E+03  0.23618514265E+03  0.12500401837E+03 0.  0.
          5    1    3    3  502    0 -0.60857551748E+02  0.56891907859E+02  0.18279023867E+03  0.20093454690E+03  0.47000000000E+01 0.  1.
         -5    1    3    3    0  502 -0.14210349044E+02 -0.31887848683E+02  0.13212066374E+01  0.35250595748E+02  0.47000000000E+01 0.  1.
        -11    1    1    2    0    0  0.81387109587E+02  0.90664934733E+01  0.88989239378E+02  0.12093447662E+03  0.00000000000E+00 0.  1.
         11    1    1    2    0    0 -0.63192087947E+01 -0.34070552649E+02  0.76126795722E+02  0.83642238041E+02  0.00000000000E+00 0. -1.
<mgrwt>
<rscale>  0 0.14062614E+03</rscale>
<asrwt>0</asrwt>
<pdfrwt beam="1">  1        2 0.60768408E-01 0.14794052E+03</pdfrwt>
<pdfrwt beam="2">  1       -2 0.70411062E-02 0.14794052E+03</pdfrwt>
<totfact> 0.89427312E+03</totfact>
</mgrwt>
</event>
<event>
 7    1  0.5206756E-006  0.1288748E+03  0.7546771E-02  0.1244789E+00
          2   -1    0    0  501    0  0.00000000000E+00  0.00000000000E+00  0.17211851379E+04  0.17211851379E+04  0.00000000000E+00 0. -1.
         -2   -1    0    0    0  501 -0.00000000000E+00 -0.00000000000E+00 -0.10527511938E+02  0.10527511938E+02  0.00000000000E+00 0.  1.
         23    2    1    2    0    0  0.19464693191E+02 -0.24578967121E+02  0.14311598350E+04  0.14369506547E+04  0.12500284229E+03 0.  0.
          5    1    3    3  502    0  0.29892049209E+02  0.31852341777E+02  0.21575374292E+03  0.22018145668E+03  0.47000000000E+01 0.  1.
         -5    1    3    3    0  502 -0.10427356018E+02 -0.56431308898E+02  0.12154060921E+04  0.12167691980E+04  0.47000000000E+01 0.  1.
        -11    1    1    2    0    0 -0.42253024781E+02 -0.12429649552E+02  0.19296784287E+03  0.19793029751E+03  0.00000000000E+00 0.  1.
         11    1    1    2    0    0  0.22788331590E+02  0.37008616673E+02  0.86529948099E+02  0.96831697717E+02  0.00000000000E+00 0. -1.
<mgrwt>
<rscale>  0 0.11897995E+03</rscale>
<asrwt>0</asrwt>
<pdfrwt beam="1">  1        2 0.26479749E+00 0.12887479E+03</pdfrwt>
<pdfrwt beam="2">  1       -2 0.16196186E-02 0.12887479E+03</pdfrwt>
<totfact> 0.10708680E+04</totfact>
</mgrwt>
</event>
<event>
 6    1  0.5206756E-006  0.4761189E+03  0.7546771E-02  0.1047980E+00
         -1   -1    0    0    0  501 -0.00000000000E+00  0.00000000000E+00  0.90983283583E+02  0.90983283583E+02  0.00000000000E+00 0.  1.
          1   -1    0    0  501    0  0.00000000000E+00 -0.00000000000E+00 -0.16434939533E+04  0.16434939533E+04  0.00000000000E+00 0. -1.
          5    1    1    2  502    0 -0.91650563256E+02 -0.28941344953E+03 -0.12431028355E+04  0.12796432003E+04  0.47000000000E+01 0. -1.
         -5    1    1    2    0  502  0.80391781240E+01  0.11916470079E+03 -0.14540674560E+03  0.18822875967E+03  0.47000000000E+01 0.  1.
        -11    1    1    2    0    0  0.87348338124E+01  0.40062105329E+02 -0.90595168687E+02  0.99442215354E+02  0.00000000000E+00 0. -1.
         11    1    1    2    0    0  0.74876551320E+02  0.13018664341E+03 -0.73405919922E+02  0.16716306153E+03  0.00000000000E+00 0.  1.
<mgrwt>
<rscale>  0 0.38809878E+03</rscale>
<asrwt>0</asrwt>
<pdfrwt beam="2">  1        1 0.25284520E+00 0.47611893E+03</pdfrwt>
<pdfrwt beam="1">  1       -1 0.13997429E-01 0.47611893E+03</pdfrwt>
<totfact> 0.20108941E+02</totfact>
</mgrwt>
</event>
<event>
 7    1  0.5206756E-006  0.1362640E+03  0.7546771E-02  0.1229389E+00
          1   -1    0    0  501    0  0.00000000000E+00  0.00000000000E+00  0.13181094237E+04  0.13181094237E+04  0.00000000000E+00 0. -1.
         -1   -1    0    0    0  501 -0.00000000000E+00 -0.00000000000E+00 -0.13367556528E+02  0.13367556528E+02  0.00000000000E+00 0.  1.
         23    2    1    2    0    0  0.39503150163E+02  0.37191852688E+02  0.97204174894E+03  0.98154624641E+03  0.12499655748E+03 0.  0.
          5    1    3    3  502    0 -0.33321313801E+02  0.41087821360E+01  0.95288967664E+02  0.10113985071E+03  0.47000000000E+01 0.  1.
         -5    1    3    3    0  502  0.72824463965E+02  0.33083070552E+02  0.87675278127E+03  0.88040639569E+03  0.47000000000E+01 0.  1.
        -11    1    1    2    0    0 -0.26038090416E+02 -0.67497383319E+02  0.18705307349E+03  0.20055605504E+03  0.00000000000E+00 0.  1.
         11    1    1    2    0    0 -0.13465059748E+02  0.30305530631E+02  0.14564704477E+03  0.14937467882E+03  0.00000000000E+00 0. -1.
<mgrwt>
<rscale>  0 0.12870536E+03</rscale>
<asrwt>0</asrwt>
<pdfrwt beam="1">  1        1 0.20278596E+00 0.13626398E+03</pdfrwt>
<pdfrwt beam="2">  1       -1 0.20565482E-02 0.13626398E+03</pdfrwt>
<totfact> 0.61053356E+03</totfact>
</mgrwt>
</event>
<event>
 7    1  0.5206756E-006  0.1303745E+03  0.7546771E-02  0.1240505E+00
          2   -1    0    0  501    0  0.00000000000E+00  0.00000000000E+00  0.68514403848E+02  0.68514403848E+02  0.00000000000E+00 0.  1.
         -2   -1    0    0    0  501 -0.00000000000E+00 -0.00000000000E+00 -0.20834470068E+03  0.20834470068E+03  0.00000000000E+00 0. -1.
         23    2    1    2    0    0  0.35757963221E+02 -0.95997823819E+01 -0.39615306635E+02  0.13626036685E+03  0.12500690901E+03 0.  0.
          5    1    3    3  502    0  0.75740907099E+02 -0.85648374832E+01  0.45340067358E+01  0.76502867047E+02  0.47000000000E+01 0. -1.
         -5    1    3    3    0  502 -0.39982943878E+02 -0.10349448988E+01 -0.44149313371E+02  0.59757499807E+02  0.47000000000E+01 0. -1.
        -11    1    1    2    0    0 -0.59705068587E+02  0.10506901499E+02 -0.32534898710E+02  0.68801234205E+02  0.00000000000E+00 0.  1.
         11    1    1    2    0    0  0.23947105366E+02 -0.90711911660E+00 -0.67680091485E+02  0.71797503466E+02  0.00000000000E+00 0. -1.
<mgrwt>
<rscale>  0 0.12158515E+03</rscale>
<asrwt>0</asrwt>
<pdfrwt beam="1">  1        2 0.10540678E-01 0.13037452E+03</pdfrwt>
<pdfrwt beam="2">  1       -2 0.32053031E-01 0.13037452E+03</pdfrwt>
<totfact> 0.51479867E+03</totfact>
</mgrwt>
</event>
<event>
 7    1  0.5206756E-006  0.1308459E+03  0.7546771E-02  0.1240394E+00
          1   -1    0    0  501    0  0.00000000000E+00  0.00000000000E+00  0.82539859732E+03  0.82539859732E+03  0.00000000000E+00 0. -1.
         -1   -1    0    0    0  501 -0.00000000000E+00 -0.00000000000E+00 -0.19292381081E+02  0.19292381081E+02  0.00000000000E+00 0.  1.
         23    2    1    2    0    0 -0.25550927861E+02  0.29022621782E+02  0.62826407344E+03  0.64174480037E+03  0.12500192135E+03 0.  0.
          5    1    3    3  502    0  0.26861895919E+02  0.58104733074E+02  0.22330124995E+03  0.23234297856E+03  0.47000000000E+01 0. -1.
         -5    1    3    3    0  502 -0.52412823780E+02 -0.29082111292E+02  0.40496282349E+03  0.40940182181E+03  0.47000000000E+01 0. -1.
        -11    1    1    2    0    0  0.13648979489E+02 -0.58284006173E+02  0.78608937202E+02  0.98806300532E+02  0.00000000000E+00 0.  1.
         11    1    1    2    0    0  0.11901948372E+02  0.29261384391E+02  0.99233205596E+02  0.10413987749E+03  0.00000000000E+00 0. -1.
<mgrwt>
<rscale>  0 0.12165317E+03</rscale>
<asrwt>0</asrwt>
<pdfrwt beam="1">  1        1 0.12698437E+00 0.13084587E+03</pdfrwt>
<pdfrwt beam="2">  1       -1 0.29680593E-02 0.13084587E+03</pdfrwt>
<totfact> 0.80935435E+03</totfact>
</mgrwt>
</event>
<event>
 7    1  0.5206756E-006  0.1332997E+03  0.7546771E-02  0.1235278E+00
          2   -1    0    0  501    0  0.00000000000E+00  0.00000000000E+00  0.11947009955E+04  0.11947009955E+04  0.00000000000E+00 0. -1.
         -2   -1    0    0    0  501 -0.00000000000E+00 -0.00000000000E+00 -0.11868348902E+02  0.11868348902E+02  0.00000000000E+00 0.  1.
         23    2    1    2    0    0 -0.44963588461E+02  0.11091574387E+02  0.74831706869E+03  0.76009687298E+03  0.12499629476E+03 0.  0.
          5    1    3    3  502    0 -0.23245275775E+02  0.54950582859E+02  0.61668008864E+03  0.61957754247E+03  0.47000000000E+01 0.  1.
         -5    1    3    3    0  502 -0.21718312686E+02 -0.43859008472E+02  0.13163698005E+03  0.14051933051E+03  0.47000000000E+01 0.  1.
        -11    1    1    2    0    0  0.28794226296E+02 -0.49781885670E+02  0.19460309435E+03  0.20292291132E+03  0.00000000000E+00 0.  1.
         11    1    1    2    0    0  0.16169362165E+02  0.38690311283E+02  0.23991248357E+03  0.24354956011E+03  0.00000000000E+00 0. -1.
<mgrwt>
<rscale>  0 0.12486638E+03</rscale>
<asrwt>0</asrwt>
<pdfrwt beam="1">  1        2 0.18380006E+00 0.13329974E+03</pdfrwt>
<pdfrwt beam="2">  1       -2 0.18259008E-02 0.13329974E+03</pdfrwt>
<totfact> 0.17067736E+04</totfact>
</mgrwt>
</event>
<event>
 7    1  0.5206756E-006  0.1283830E+03  0.7546771E-02  0.1243069E+00
         -1   -1    0    0    0  501 -0.00000000000E+00  0.00000000000E+00  0.54282224853E+03  0.54282224853E+03  0.00000000000E+00 0.  1.
          1   -1    0    0  501    0  0.00000000000E+00 -0.00000000000E+00 -0.23858010913E+02  0.23858010913E+02  0.00000000000E+00 0. -1.
         23    2    1    2    0    0  0.12556754429E+02 -0.26449205390E+02  0.26546026856E+03  0.29487514932E+03  0.12499986781E+03 0.  0.
          5    1    3    3  502    0  0.37018476189E+02  0.33158482967E+02  0.52989169632E+02  0.72799688669E+02  0.47000000000E+01 0. -1.
         -5    1    3    3    0  502 -0.24461721760E+02 -0.59607688357E+02  0.21247109893E+03  0.22207546065E+03  0.47000000000E+01 0. -1.
        -11    1    1    2    0    0 -0.31545325414E+02 -0.17085980465E+02  0.42956526474E+02  0.55966967495E+02  0.00000000000E+00 0. -1.
         11    1    1    2    0    0  0.18988570985E+02  0.43535185855E+02  0.21054744259E+03  0.21583814263E+03  0.00000000000E+00 0.  1.
<mgrwt>
<rscale>  0 0.12001688E+03</rscale>
<asrwt>0</asrwt>
<pdfrwt beam="2">  1        1 0.36704636E-02 0.12838302E+03</pdfrwt>
<pdfrwt beam="1">  1       -1 0.83511106E-01 0.12838302E+03</pdfrwt>
<totfact> 0.36586170E+03</totfact>
</mgrwt>
</event>
<event>
 7    1  0.5206756E-006  0.1340442E+03  0.7546771E-02  0.1236155E+00
          2   -1    0    0  501    0  0.00000000000E+00  0.00000000000E+00  0.15310242581E+03  0.15310242581E+03  0.00000000000E+00 0. -1.
         -2   -1    0    0    0  501 -0.00000000000E+00 -0.00000000000E+00 -0.10210604204E+03  0.10210604204E+03  0.00000000000E+00 0.  1.
         23    2    1    2    0    0  0.41780354997E+02  0.24467423899E+02  0.74449263738E+02  0.15333150817E+03  0.12499442240E+03 0.  0.
          5    1    3    3  502    0  0.10763460047E+02 -0.29341634424E+02  0.84520672747E+02  0.90236454410E+02  0.47000000000E+01 0. -1.
         -5    1    3    3    0  502  0.31016894949E+02  0.53809058323E+02 -0.10071409009E+02  0.63095053763E+02  0.47000000000E+01 0. -1.
        -11    1    1    2    0    0 -0.36546342336E+02  0.13763180205E+02 -0.43446169325E+02  0.58417719029E+02  0.00000000000E+00 0.  1.
         11    1    1    2    0    0 -0.52340126605E+01 -0.38230604104E+02  0.19993289352E+02  0.43459240649E+02  0.00000000000E+00 0. -1.
<mgrwt>
<rscale>  0 0.12430801E+03</rscale>
<asrwt>0</asrwt>
<pdfrwt beam="1">  1        2 0.23554219E-01 0.13404424E+03</pdfrwt>
<pdfrwt beam="2">  1       -2 0.15708622E-01 0.13404424E+03</pdfrwt>
<totfact> 0.69118408E+03</totfact>
</mgrwt>
</event>
<event>
 7    1  0.5206756E-006  0.1197203E+03  0.7546771E-02  0.1253110E+00
         -1   -1    0    0    0  501 -0.00000000000E+00  0.00000000000E+00  0.13281572068E+03  0.13281572068E+03  0.00000000000E+00 0.  1.
          1   -1    0    0  501    0  0.00000000000E+00 -0.00000000000E+00 -0.30180705144E+03  0.30180705144E+03  0.00000000000E+00 0. -1.
         23    2    1    2    0    0  0.24348466753E+02  0.30121743789E+02 -0.26872473329E+03  0.29418691262E+03  0.11328190497E+03 0.  0.
          5    1    3    3  502    0  0.13239152131E+02  0.64457038943E+02 -0.88826565202E+02  0.11064462799E+03  0.47000000000E+01 0. -1.
         -5    1    3    3    0  502  0.11109314621E+02 -0.34335295154E+02 -0.17989816809E+03  0.18354228462E+03  0.47000000000E+01 0.  1.
        -11    1    1    2    0    0 -0.38906364259E+02 -0.55880172145E+02  0.79068300476E+02  0.10434603471E+03  0.00000000000E+00 0.  1.
         11    1    1    2    0    0  0.14557897507E+02  0.25758428356E+02  0.20665102047E+02  0.36089824796E+02  0.00000000000E+00 0. -1.
<mgrwt>
<rscale>  0 0.11412826E+03</rscale>
<asrwt>0</asrwt>
<pdfrwt beam="2">  1        1 0.46431853E-01 0.11972033E+03</pdfrwt>
<pdfrwt beam="1">  1       -1 0.20433188E-01 0.11972033E+03</pdfrwt>
<totfact> 0.16561841E+03</totfact>
</mgrwt>
</event>
<event>
 7    1  0.5206756E-006  0.1277489E+03  0.7546771E-02  0.1245905E+00
         -2   -1    0    0    0  501 -0.00000000000E+00  0.00000000000E+00  0.20026542604E+02  0.20026542604E+02  0.00000000000E+00 0. -1.
          2   -1    0    0  501    0  0.00000000000E+00 -0.00000000000E+00 -0.62291235043E+03  0.62291235043E+03  0.00000000000E+00 0.  1.
         23    2    1    2    0    0 -0.80379009935E+01 -0.25088575511E+02 -0.38516483830E+03  0.40579766423E+03  0.12500298859E+03 0.  0.
          5    1    3    3  502    0  0.34209414707E+02 -0.50141021256E+02 -0.10543787644E+03  0.12175237926E+03  0.47000000000E+01 0.  1.
         -5    1    3    3    0  502 -0.42247315700E+02  0.25052445745E+02 -0.27972696187E+03  0.28404528498E+03  0.47000000000E+01 0.  1.
        -11    1    1    2    0    0  0.48904674215E+02  0.18521657631E+02 -0.13087231318E+03  0.14093360606E+03  0.00000000000E+00 0. -1.
         11    1    1    2    0    0 -0.40866773222E+02  0.65669178800E+01 -0.86848656352E+02  0.96207622745E+02  0.00000000000E+00 0.  1.
<mgrwt>
<rscale>  0 0.11831365E+03</rscale>
<asrwt>0</asrwt>
<pdfrwt beam="2">  1        2 0.95832661E-01 0.12774894E+03</pdfrwt>
<pdfrwt beam="1">  1       -2 0.30810068E-02 0.12774894E+03</pdfrwt>
<totfact> 0.18482716E+04</totfact>
</mgrwt>
</event>
<event>
 6    1  0.5206756E-006  0.1508433E+03  0.7546771E-02  0.1213977E+00
          2   -1    0    0  501    0  0.00000000000E+00  0.00000000000E+00  0.14759492568E+03  0.14759492568E+03  0.00000000000E+00 0. -1.
         -2   -1    0    0    0  501 -0.00000000000E+00 -0.00000000000E+00 -0.12219717201E+03  0.12219717201E+03  0.00000000000E+00 0.  1.
          5    1    1    2  502    0 -0.43218638635E+00 -0.69274515646E+02  0.48889281323E+02  0.84919945427E+02  0.47000000000E+01 0. -1.
         -5    1    1    2    0  502  0.56858365923E+02  0.44854958966E+02 -0.33400609912E+01  0.72650444780E+02  0.47000000000E+01 0.  1.
        -11    1    1    2    0    0 -0.77098610994E+02  0.17829010849E+02 -0.34375762064E+02  0.86277241857E+02  0.00000000000E+00 0.  1.
         11    1    1    2    0    0  0.20672431457E+02  0.65905458307E+01  0.14224295404E+02  0.25944465623E+02  0.00000000000E+00 0. -1.
<mgrwt>
<rscale>  0 0.13951933E+03</rscale>
<asrwt>0</asrwt>
<pdfrwt beam="1">  1        2 0.22706912E-01 0.15084328E+03</pdfrwt>
<pdfrwt beam="2">  1       -2 0.18799565E-01 0.15084328E+03</pdfrwt>
<totfact> 0.53839179E+03</totfact>
</mgrwt>
</event>
<event>
 7    1  0.5206756E-006  0.3356071E+03  0.7546771E-02  0.1069933E+00
         -1   -1    0    0    0  501 -0.00000000000E+00  0.00000000000E+00  0.86086438575E+02  0.86086438575E+02  0.00000000000E+00 0.  1.
          1   -1    0    0  501    0  0.00000000000E+00 -0.00000000000E+00 -0.13367368197E+04  0.13367368197E+04  0.00000000000E+00 0. -1.
         23    2    1    2    0    0  0.54922096952E+02  0.30658575991E+03 -0.80080426658E+03  0.86828543352E+03  0.12498342197E+03 0.  0.
          5    1    3    3  502    0  0.13251290143E+01  0.74876852388E+02 -0.82030292767E+02  0.11117264916E+03  0.47000000000E+01 0.  1.
         -5    1    3    3    0  502  0.53596967938E+02  0.23170890752E+03 -0.71877397381E+03  0.75711278435E+03  0.47000000000E+01 0.  1.
        -11    1    1    2    0    0 -0.67250785564E+02 -0.24996536403E+03 -0.40750946183E+03  0.48277252703E+03  0.00000000000E+00 0. -1.
         11    1    1    2    0    0  0.12328688612E+02 -0.56620395882E+02 -0.42336652674E+02  0.71765297689E+02  0.00000000000E+00 0.  1.
<mgrwt>
<rscale>  0 0.33273605E+03</rscale>
<asrwt>0</asrwt>
<pdfrwt beam="2">  1        1 0.20565181E+00 0.33560709E+03</pdfrwt>
<pdfrwt beam="1">  1       -1 0.13244068E-01 0.33560709E+03</pdfrwt>
<totfact> 0.35965811E+02</totfact>
</mgrwt>
</event>
<event>
 7    1  0.5206756E-006  0.1493551E+03  0.7546771E-02  0.1210478E+00
         -1   -1    0    0    0  501 -0.00000000000E+00  0.00000000000E+00  0.38476620921E+02  0.38476620921E+02  0.00000000000E+00 0.  1.
          1   -1    0    0  501    0  0.00000000000E+00 -0.00000000000E+00 -0.73316831372E+03  0.73316831372E+03  0.00000000000E+00 0. -1.
         23    2    1    2    0    0  0.48582099881E+02  0.65739465094E+02 -0.59568433703E+03  0.61412276833E+03  0.12500019002E+03 0.  0.
          5    1    3    3  502    0 -0.19761840030E+02  0.75807100613E+02 -0.36125632952E+03  0.36968293502E+03  0.47000000000E+01 0.  1.
         -5    1    3    3    0  502  0.68343939912E+02 -0.10067635520E+02 -0.23442800751E+03  0.24443983331E+03  0.47000000000E+01 0.  1.
        -11    1    1    2    0    0 -0.75730669228E+02 -0.43702076711E+02 -0.73776694869E+02  0.11440282547E+03  0.00000000000E+00 0. -1.
         11    1    1    2    0    0  0.27148569347E+02 -0.22037388383E+02 -0.25230660901E+02  0.43119340832E+02  0.00000000000E+00 0.  1.
<mgrwt>
<rscale>  0 0.14213971E+03</rscale>
<asrwt>0</asrwt>
<pdfrwt beam="2">  1        1 0.11279514E+00 0.14935510E+03</pdfrwt>
<pdfrwt beam="1">  1       -1 0.59194796E-02 0.14935510E+03</pdfrwt>
<totfact> 0.35166208E+03</totfact>
</mgrwt>
</event>
<event>
 7    1  0.5206756E-006  0.1288419E+03  0.7546771E-02  0.1243472E+00
          1   -1    0    0  501    0  0.00000000000E+00  0.00000000000E+00  0.13097772012E+03  0.13097772012E+03  0.00000000000E+00 0. -1.
         -1   -1    0    0    0  501 -0.00000000000E+00 -0.00000000000E+00 -0.96754197904E+02  0.96754197904E+02  0.00000000000E+00 0.  1.
         23    2    1    2    0    0  0.29274496671E+02  0.10867131922E+02  0.22666100281E+02  0.13082046711E+03  0.12500060720E+03 0.  0.
          5    1    3    3  502    0 -0.13128194660E+02  0.38871441628E+00 -0.46685987504E+02  0.48725476120E+02  0.47000000000E+01 0.  1.
         -5    1    3    3    0  502  0.42402691331E+02  0.10478417506E+02  0.69352087786E+02  0.82094990990E+02  0.47000000000E+01 0.  1.
        -11    1    1    2    0    0 -0.82901628912E+01  0.12227599405E+02  0.47247816836E+02  0.49503506782E+02  0.00000000000E+00 0. -1.
         11    1    1    2    0    0 -0.20984333779E+02 -0.23094731327E+02 -0.35690394897E+02  0.47407944135E+02  0.00000000000E+00 0.  1.
<mgrwt>
<rscale>  0 0.11977304E+03</rscale>
<asrwt>0</asrwt>
<pdfrwt beam="1">  1        1 0.20150419E-01 0.12884193E+03</pdfrwt>
<pdfrwt beam="2">  1       -1 0.14885261E-01 0.12884193E+03</pdfrwt>
<totfact> 0.77509138E+03</totfact>
</mgrwt>
</event>
<event>
 7    1  0.5206756E-006  0.1267039E+03  0.7546771E-02  0.1247452E+00
         -2   -1    0    0    0  501 -0.00000000000E+00  0.00000000000E+00  0.38904587492E+02  0.38904587492E+02  0.00000000000E+00 0.  1.
          2   -1    0    0  501    0  0.00000000000E+00 -0.00000000000E+00 -0.34528406743E+03  0.34528406743E+03  0.00000000000E+00 0. -1.
         23    2    1    2    0    0  0.79388588705E+01  0.19065718170E+02 -0.23376183442E+03  0.26589182985E+03  0.12500937109E+03 0.  0.
          5    1    3    3  502    0 -0.55737661691E+02  0.24874923560E+02 -0.13375352157E+03  0.14709705396E+03  0.47000000000E+01 0. -1.
         -5    1    3    3    0  502  0.63676520562E+02 -0.58092053905E+01 -0.10000831286E+03  0.11879477589E+03  0.47000000000E+01 0. -1.
        -11    1    1    2    0    0 -0.33141132047E+02 -0.41566084080E+02 -0.64436916907E+02  0.83535562724E+02  0.00000000000E+00 0. -1.
         11    1    1    2    0    0  0.25202273176E+02  0.22500365911E+02 -0.81807286066E+01  0.34761262346E+02  0.00000000000E+00 0.  1.
<mgrwt>
<rscale>  0 0.11739836E+03</rscale>
<asrwt>0</asrwt>
<pdfrwt beam="2">  1        2 0.53120624E-01 0.12670387E+03</pdfrwt>
<pdfrwt beam="1">  1       -2 0.59853214E-02 0.12670387E+03</pdfrwt>
<totfact> 0.13067209E+04</totfact>
</mgrwt>
</event>
<event>
 7    1  0.5206756E-006  0.1336401E+03  0.7546771E-02  0.1235276E+00
          2   -1    0    0  501    0  0.00000000000E+00  0.00000000000E+00  0.74653587628E+03  0.74653587628E+03  0.00000000000E+00 0. -1.
         -2   -1    0    0    0  501 -0.00000000000E+00 -0.00000000000E+00 -0.19592010980E+02  0.19592010980E+02  0.00000000000E+00 0.  1.
         23    2    1    2    0    0  0.38397872354E+02 -0.27563561497E+02  0.49662373044E+03  0.51429059689E+03  0.12500216752E+03 0.  0.
          5    1    3    3  502    0  0.78188272179E+02 -0.35769514931E+02  0.25286982255E+03  0.26712937177E+03  0.47000000000E+01 0. -1.
         -5    1    3    3    0  502 -0.39790399825E+02  0.82059534343E+01  0.24375390789E+03  0.24716122512E+03  0.47000000000E+01 0. -1.
        -11    1    1    2    0    0 -0.41470634749E+02  0.16231240961E+02  0.23501108207E+03  0.23919338500E+03  0.00000000000E+00 0. -1.
         11    1    1    2    0    0  0.30727623948E+01  0.11332320536E+02 -0.46909472110E+01  0.12643905378E+02  0.00000000000E+00 0.  1.
<mgrwt>
<rscale>  0 0.12486750E+03</rscale>
<asrwt>0</asrwt>
<pdfrwt beam="1">  1        2 0.11485165E+00 0.13364015E+03</pdfrwt>
<pdfrwt beam="2">  1       -2 0.30141561E-02 0.13364015E+03</pdfrwt>
<totfact> 0.15480299E+04</totfact>
</mgrwt>
</event>
<event>
 7    1  0.5206756E-006  0.1386144E+03  0.7546771E-02  0.1226671E+00
         -1   -1    0    0    0  501 -0.00000000000E+00  0.00000000000E+00  0.22621589022E+02  0.22621589022E+02  0.00000000000E+00 0.  1.
          1   -1    0    0  501    0  0.00000000000E+00 -0.00000000000E+00 -0.10942765721E+04  0.10942765721E+04  0.00000000000E+00 0. -1.
         23    2    1    2    0    0  0.59909732627E+02 -0.30938614019E+00 -0.91859336212E+03  0.92899285050E+03  0.12499871829E+03 0.  0.
          5    1    3    3  502    0  0.24647290394E+02  0.16650826359E+02 -0.42905546464E+02  0.52418649922E+02  0.47000000000E+01 0.  1.
         -5    1    3    3    0  502  0.35262442233E+02 -0.16960212500E+02 -0.87568781565E+03  0.87657420058E+03  0.47000000000E+01 0.  1.
        -11    1    1    2    0    0 -0.43720213058E+02 -0.41454960382E+02 -0.11181914945E+03  0.12701768757E+03  0.00000000000E+00 0. -1.
         11    1    1    2    0    0 -0.16189519569E+02  0.41764346522E+02 -0.41242471483E+02  0.60887623030E+02  0.00000000000E+00 0.  1.
<mgrwt>
<rscale>  0 0.13053014E+03</rscale>
<asrwt>0</asrwt>
<pdfrwt beam="2">  1        1 0.16835023E+00 0.13861440E+03</pdfrwt>
<pdfrwt beam="1">  1       -1 0.34802447E-02 0.13861440E+03</pdfrwt>
<totfact> 0.40478445E+03</totfact>
</mgrwt>
</event>
<event>
 6    1  0.5206756E-006  0.1614998E+03  0.7546771E-02  0.1197631E+00
          2   -1    0    0  501    0  0.00000000000E+00  0.00000000000E+00  0.62886803494E+03  0.62886803494E+03  0.00000000000E+00 0. -1.
         -2   -1    0    0    0  501 -0.00000000000E+00 -0.00000000000E+00 -0.35279110862E+02  0.35279110862E+02  0.00000000000E+00 0.  1.
          5    1    1    2  502    0 -0.39784511265E+02  0.35189913449E+02  0.98976754639E+02  0.11242608818E+03  0.47000000000E+01 0. -1.
         -5    1    1    2    0  502 -0.20227450246E+02 -0.10520562783E+03  0.15190197004E+03  0.18593996981E+03  0.47000000000E+01 0.  1.
        -11    1    1    2    0    0  0.76748398945E-02  0.16079556345E+02  0.26695385805E+01  0.16299651143E+02  0.00000000000E+00 0.  1.
         11    1    1    2    0    0  0.60004286670E+02  0.53936158041E+02  0.34004066082E+03  0.34948143667E+03  0.00000000000E+00 0. -1.
<mgrwt>
<rscale>  0 0.15233642E+03</rscale>
<asrwt>0</asrwt>
<pdfrwt beam="1">  1        2 0.96748920E-01 0.16149975E+03</pdfrwt>
<pdfrwt beam="2">  1       -2 0.54275560E-02 0.16149975E+03</pdfrwt>
<totfact> 0.79903363E+03</totfact>
</mgrwt>
</event>
<event>
 7    1  0.5206756E-006  0.1305659E+03  0.7546771E-02  0.1241247E+00
          3   -1    0    0  501    0  0.00000000000E+00  0.00000000000E+00  0.86790054652E+02  0.86790054652E+02  0.00000000000E+00 0. -1.
         -3   -1    0    0    0  501 -0.00000000000E+00 -0.00000000000E+00 -0.14893170282E+03  0.14893170282E+03  0.00000000000E+00 0.  1.
         23    2    1    2    0    0 -0.19332576771E+02  0.32382106381E+02 -0.32202112957E+02  0.13447836739E+03  0.12500042351E+03 0.  0.
          5    1    3    3  502    0 -0.15047609968E+02 -0.27225170960E+02 -0.60498836518E+02  0.68189733242E+02  0.47000000000E+01 0.  1.
         -5    1    3    3    0  502 -0.42849668028E+01  0.59607277341E+02  0.28296723561E+02  0.66288634145E+02  0.47000000000E+01 0.  1.
        -11    1    1    2    0    0  0.10839212385E+02 -0.38778777719E+01 -0.58730644158E+02  0.59848266677E+02  0.00000000000E+00 0.  1.
         11    1    1    2    0    0  0.84933643860E+01 -0.28504228609E+02  0.28791108949E+02  0.41395123405E+02  0.00000000000E+00 0. -1.
<mgrwt>
<rscale>  0 0.12112844E+03</rscale>
<asrwt>0</asrwt>
<pdfrwt beam="1">  1        3 0.13352316E-01 0.13056590E+03</pdfrwt>
<pdfrwt beam="2">  1       -3 0.22912569E-01 0.13056590E+03</pdfrwt>
<totfact> 0.18172924E+03</totfact>
</mgrwt>
</event>
<event>
 7    1  0.5206756E-006  0.1251981E+03  0.7546771E-02  0.1249590E+00
         -1   -1    0    0    0  501 -0.00000000000E+00  0.00000000000E+00  0.16458962110E+02  0.16458962110E+02  0.00000000000E+00 0.  1.
          1   -1    0    0  501    0  0.00000000000E+00 -0.00000000000E+00 -0.97560701636E+03  0.97560701636E+03  0.00000000000E+00 0. -1.
         23    2    1    2    0    0 -0.18879199478E+01 -0.10027183725E+02 -0.78349518644E+03  0.79343511328E+03  0.12478166193E+03 0.  0.
          5    1    3    3  502    0  0.28452379936E+02 -0.22894941292E+02 -0.72648259576E+03  0.72741512784E+03  0.47000000000E+01 0.  1.
         -5    1    3    3    0  502 -0.30340299883E+02  0.12867757567E+02 -0.57012590676E+02  0.66019985440E+02  0.47000000000E+01 0.  1.
        -11    1    1    2    0    0  0.11125893823E+02 -0.22651264091E+02 -0.64412408923E+01  0.26045246448E+02  0.00000000000E+00 0.  1.
         11    1    1    2    0    0 -0.92379738756E+01  0.32678447816E+02 -0.16921162692E+03  0.17258561875E+03  0.00000000000E+00 0. -1.
<mgrwt>
<rscale>  0 0.11614821E+03</rscale>
<asrwt>0</asrwt>
<pdfrwt beam="2">  1        1 0.15009340E+00 0.12519813E+03</pdfrwt>
<pdfrwt beam="1">  1       -1 0.25321477E-02 0.12519813E+03</pdfrwt>
<totfact> 0.77952707E+03</totfact>
</mgrwt>
</event>
<event>
 7    1  0.5206756E-006  0.2074458E+03  0.7546771E-02  0.1147557E+00
          1   -1    0    0  501    0  0.00000000000E+00  0.00000000000E+00  0.40368677031E+03  0.40368677031E+03  0.00000000000E+00 0. -1.
         -1   -1    0    0    0  501 -0.00000000000E+00 -0.00000000000E+00 -0.98200957344E+02  0.98200957344E+02  0.00000000000E+00 0.  1.
         23    2    1    2    0    0 -0.12843795873E+03 -0.10447796474E+03  0.18495643378E+03  0.27792563686E+03  0.12498729082E+03 0.  0.
          5    1    3    3  502    0 -0.23901885320E+02 -0.83263143077E+02  0.34337561102E+02  0.93301710699E+02  0.47000000000E+01 0. -1.
         -5    1    3    3    0  502 -0.10453607341E+03 -0.21214821658E+02  0.15061887268E+03  0.18462392616E+03  0.47000000000E+01 0. -1.
        -11    1    1    2    0    0  0.48584763903E+02  0.10678935766E+02  0.80140357389E+02  0.94323887935E+02  0.00000000000E+00 0. -1.
         11    1    1    2    0    0  0.79853194831E+02  0.93799028969E+02  0.40389021795E+02  0.12963820286E+03  0.00000000000E+00 0.  1.
<mgrwt>
<rscale>  0 0.20260870E+03</rscale>
<asrwt>0</asrwt>
<pdfrwt beam="1">  1        1 0.62105656E-01 0.20744584E+03</pdfrwt>
<pdfrwt beam="2">  1       -1 0.15107840E-01 0.20744584E+03</pdfrwt>
<totfact> 0.18882499E+03</totfact>
</mgrwt>
</event>
<event>
 7    1  0.5206756E-006  0.1328460E+03  0.7546771E-02  0.1237247E+00
          2   -1    0    0  501    0  0.00000000000E+00  0.00000000000E+00  0.18150876614E+03  0.18150876614E+03  0.00000000000E+00 0. -1.
         -2   -1    0    0    0  501 -0.00000000000E+00 -0.00000000000E+00 -0.79527029865E+02  0.79527029865E+02  0.00000000000E+00 0.  1.
         23    2    1    2    0    0 -0.42598887187E+02 -0.14458793764E+02  0.90572285123E+02  0.16078368767E+03  0.12499733390E+03 0.  0.
          5    1    3    3  502    0 -0.20500538908E+01  0.47680843683E+02  0.62435054250E+01  0.48360489403E+02  0.47000000000E+01 0. -1.
         -5    1    3    3    0  502 -0.40548833296E+02 -0.62139637447E+02  0.84328779698E+02  0.11242319827E+03  0.47000000000E+01 0. -1.
        -11    1    1    2    0    0  0.51869474777E+02  0.20803597228E+02 -0.25676415545E+02  0.61502116927E+02  0.00000000000E+00 0.  1.
         11    1    1    2    0    0 -0.92705875894E+01 -0.63448034641E+01  0.37085866693E+02  0.38749991402E+02  0.00000000000E+00 0. -1.
<mgrwt>
<rscale>  0 0.12361665E+03</rscale>
<asrwt>0</asrwt>
<pdfrwt beam="1">  1        2 0.27924425E-01 0.13284598E+03</pdfrwt>
<pdfrwt beam="2">  1       -2 0.12234928E-01 0.13284598E+03</pdfrwt>
<totfact> 0.85869808E+03</totfact>
</mgrwt>
</event>
<event>
 7    1  0.5206756E-006  0.1265873E+03  0.7546771E-02  0.1245004E+00
          2   -1    0    0  501    0  0.00000000000E+00  0.00000000000E+00  0.48011710179E+03  0.48011710179E+03  0.00000000000E+00 0. -1.
         -2   -1    0    0    0  501 -0.00000000000E+00 -0.00000000000E+00 -0.26367592435E+02  0.26367592435E+02  0.00000000000E+00 0.  1.
         23    2    1    2    0    0  0.19951219744E+02 -0.80533497378E+00  0.24877937511E+03  0.27913350484E+03  0.12500254522E+03 0.  0.
          5    1    3    3  502    0 -0.44248445906E+02 -0.21364911382E+02  0.54960706796E+02  0.73872550348E+02  0.47000000000E+01 0. -1.
         -5    1    3    3    0  502  0.64199665650E+02  0.20559576409E+02  0.19381866832E+03  0.20526095450E+03  0.47000000000E+01 0. -1.
        -11    1    1    2    0    0  0.20960049167E+02 -0.36015580100E+02  0.68223263973E+02  0.79942850951E+02  0.00000000000E+00 0.  1.
         11    1    1    2    0    0 -0.40911268911E+02  0.36820915074E+02  0.13674687026E+03  0.14740833843E+03  0.00000000000E+00 0. -1.
<mgrwt>
<rscale>  0 0.11885116E+03</rscale>
<asrwt>0</asrwt>
<pdfrwt beam="1">  1        2 0.73864163E-01 0.12658727E+03</pdfrwt>
<pdfrwt beam="2">  1       -2 0.40565531E-02 0.12658727E+03</pdfrwt>
<totfact> 0.16445328E+04</totfact>
</mgrwt>
</event>
<event>
 7    1  0.5206756E-006  0.1933602E+03  0.7546771E-02  0.1160216E+00
         -1   -1    0    0    0  501 -0.00000000000E+00  0.00000000000E+00  0.11343614061E+03  0.11343614061E+03  0.00000000000E+00 0.  1.
          1   -1    0    0  501    0  0.00000000000E+00 -0.00000000000E+00 -0.31310341360E+03  0.31310341360E+03  0.00000000000E+00 0. -1.
         23    2    1    2    0    0 -0.14729456819E+03 -0.86520455448E+01 -0.15502042763E+03  0.24782955587E+03  0.12497042878E+03 0.  0.
          5    1    3    3  502    0 -0.10508478043E+02  0.44689561623E+02 -0.31130741265E+02  0.55666849027E+02  0.47000000000E+01 0. -1.
         -5    1    3    3    0  502 -0.13678609015E+03 -0.53341607168E+02 -0.12388968637E+03  0.19216270684E+03  0.47000000000E+01 0. -1.
        -11    1    1    2    0    0  0.11987778414E+02 -0.16719150499E+02  0.18116729569E+02  0.27412637870E+02  0.00000000000E+00 0.  1.
         11    1    1    2    0    0  0.13530678978E+03  0.25371196044E+02 -0.62763574919E+02  0.15129736047E+03  0.00000000000E+00 0. -1.
<mgrwt>
<rscale>  0 0.18806754E+03</rscale>
<asrwt>0</asrwt>
<pdfrwt beam="2">  1        1 0.48169756E-01 0.19336017E+03</pdfrwt>
<pdfrwt beam="1">  1       -1 0.17451714E-01 0.19336017E+03</pdfrwt>
<totfact> 0.20663116E+03</totfact>
</mgrwt>
</event>
<event>
 7    1  0.5206756E-006  0.1704359E+03  0.7546771E-02  0.1184033E+00
          1   -1    0    0  501    0  0.00000000000E+00  0.00000000000E+00  0.14372850676E+03  0.14372850676E+03  0.00000000000E+00 0. -1.
         -1   -1    0    0    0  501 -0.00000000000E+00 -0.00000000000E+00 -0.21165993423E+03  0.21165993423E+03  0.00000000000E+00 0.  1.
         23    2    1    2    0    0  0.44566307197E+02 -0.10694680202E+03  0.37638383085E+02  0.17454238760E+03  0.12499849195E+03 0.  0.
          5    1    3    3  502    0 -0.24269826032E+02  0.12722833987E+02  0.22138969670E+02  0.35540384611E+02  0.47000000000E+01 0.  1.
         -5    1    3    3    0  502  0.68836133228E+02 -0.11966963601E+03  0.15499413416E+02  0.13900200299E+03  0.47000000000E+01 0.  1.
        -11    1    1    2    0    0  0.39110151045E+01  0.94578336928E+02 -0.83264289889E+02  0.12606863141E+03  0.00000000000E+00 0.  1.
         11    1    1    2    0    0 -0.48477322301E+02  0.12368465091E+02 -0.22305520673E+02  0.54777421979E+02  0.00000000000E+00 0. -1.
<mgrwt>
<rscale>  0 0.16420172E+03</rscale>
<asrwt>0</asrwt>
<pdfrwt beam="1">  1        1 0.22112078E-01 0.17043590E+03</pdfrwt>
<pdfrwt beam="2">  1       -1 0.32563067E-01 0.17043590E+03</pdfrwt>
<totfact> 0.19551462E+03</totfact>
</mgrwt>
</event>
<event>
 7    1  0.5206756E-006  0.1483498E+03  0.7546771E-02  0.1211374E+00
          2   -1    0    0  501    0  0.00000000000E+00  0.00000000000E+00  0.66641126684E+03  0.66641126684E+03  0.00000000000E+00 0. -1.
         -2   -1    0    0    0  501 -0.00000000000E+00 -0.00000000000E+00 -0.27582706524E+02  0.27582706524E+02  0.00000000000E+00 0.  1.
         23    2    1    2    0    0 -0.44964945133E+01  0.79768161550E+02  0.36089662906E+03  0.39019743031E+03  0.12499791878E+03 0.  0.
          5    1    3    3  502    0  0.43438564139E+02  0.11685620532E+02  0.46259739088E+02  0.64695564316E+02  0.47000000000E+01 0. -1.
         -5    1    3    3    0  502 -0.47935058652E+02  0.68082541018E+02  0.31463688997E+03  0.32550186600E+03  0.47000000000E+01 0. -1.
        -11    1    1    2    0    0  0.31703678194E+02 -0.51941806968E+02  0.24612168047E+03  0.25353294878E+03  0.00000000000E+00 0. -1.
         11    1    1    2    0    0 -0.27207183681E+02 -0.27826354582E+02  0.31810250791E+02  0.50263594267E+02  0.00000000000E+00 0.  1.
<mgrwt>
<rscale>  0 0.14146320E+03</rscale>
<asrwt>0</asrwt>
<pdfrwt beam="1">  1        2 0.10252480E+00 0.14834978E+03</pdfrwt>
<pdfrwt beam="2">  1       -2 0.42434938E-02 0.14834978E+03</pdfrwt>
<totfact> 0.10756388E+04</totfact>
</mgrwt>
</event>
<event>
 7    1  0.5206756E-006  0.1386358E+03  0.7546771E-02  0.1226422E+00
         -3   -1    0    0    0  501 -0.00000000000E+00  0.00000000000E+00  0.96127516106E+02  0.96127516106E+02  0.00000000000E+00 0.  1.
          3   -1    0    0  501    0  0.00000000000E+00 -0.00000000000E+00 -0.16564260431E+03  0.16564260431E+03  0.00000000000E+00 0. -1.
         23    2    1    2    0    0 -0.20394220609E+02 -0.56383075103E+02 -0.62386025829E+02  0.15202601874E+03  0.12499967505E+03 0.  0.
          5    1    3    3  502    0  0.39906422025E+02 -0.57062442522E+02 -0.72250826413E+01  0.70163642184E+02  0.47000000000E+01 0.  1.
         -5    1    3    3    0  502 -0.60300642634E+02  0.67936741847E+00 -0.55160943187E+02  0.81862376557E+02  0.47000000000E+01 0.  1.
        -11    1    1    2    0    0 -0.16227868497E+02  0.42065537668E+02  0.31202213544E+02  0.54830933835E+02  0.00000000000E+00 0.  1.
         11    1    1    2    0    0  0.36622089106E+02  0.14317537436E+02 -0.38331275918E+02  0.54913167840E+02  0.00000000000E+00 0. -1.
<mgrwt>
<rscale>  0 0.13069903E+03</rscale>
<asrwt>0</asrwt>
<pdfrwt beam="2">  1        3 0.25483477E-01 0.13863583E+03</pdfrwt>
<pdfrwt beam="1">  1       -3 0.14788849E-01 0.13863583E+03</pdfrwt>
<totfact> 0.12743321E+03</totfact>
</mgrwt>
</event>
<event>
 7    1  0.5206756E-006  0.1555602E+03  0.7546771E-02  0.1202100E+00
         -2   -1    0    0    0  501 -0.00000000000E+00  0.00000000000E+00  0.37597348446E+02  0.37597348446E+02  0.00000000000E+00 0. -1.
          2   -1    0    0  501    0  0.00000000000E+00 -0.00000000000E+00 -0.54661114982E+03  0.54661114982E+03  0.00000000000E+00 0.  1.
         23    2    1    2    0    0 -0.84577680541E+02 -0.37681014885E+02 -0.30522980699E+03  0.34258460461E+03  0.12500293323E+03 0.  0.
          5    1    3    3  502    0 -0.96540120157E+02  0.14783914376E+02 -0.15856274033E+03  0.18628685285E+03  0.47000000000E+01 0.  1.
         -5    1    3    3    0  502  0.11962439616E+02 -0.52464929261E+02 -0.14666706665E+03  0.15629775176E+03  0.47000000000E+01 0.  1.
        -11    1    1    2    0    0  0.42461450417E+02 -0.27638310767E+02 -0.63344842278E+02  0.81113624237E+02  0.00000000000E+00 0.  1.
         11    1    1    2    0    0  0.42116230124E+02  0.65319325652E+02 -0.14043915211E+03  0.16051026942E+03  0.00000000000E+00 0. -1.
<mgrwt>
<rscale>  0 0.14868336E+03</rscale>
<asrwt>0</asrwt>
<pdfrwt beam="2">  1        2 0.84094017E-01 0.15556020E+03</pdfrwt>
<pdfrwt beam="1">  1       -2 0.57842079E-02 0.15556020E+03</pdfrwt>
<totfact> 0.84929669E+03</totfact>
</mgrwt>
</event>
<event>
 7    1  0.5206756E-006  0.1691958E+03  0.7546771E-02  0.1184940E+00
          2   -1    0    0  501    0  0.00000000000E+00  0.00000000000E+00  0.53468082332E+03  0.53468082332E+03  0.00000000000E+00 0. -1.
         -2   -1    0    0    0  501 -0.00000000000E+00 -0.00000000000E+00 -0.56856065494E+02  0.56856065494E+02  0.00000000000E+00 0.  1.
         23    2    1    2    0    0  0.11315753701E+03  0.14041893966E+02  0.37697209200E+03  0.41320111337E+03  0.12500159588E+03 0.  0.
          5    1    3    3  502    0  0.67651684633E+02 -0.48884731981E+02  0.25661612109E+03  0.26988959049E+03  0.47000000000E+01 0.  1.
         -5    1    3    3    0  502  0.45505852381E+02  0.62926625947E+02  0.12035597091E+03  0.14331152287E+03  0.47000000000E+01 0.  1.
        -11    1    1    2    0    0 -0.46931261186E+02  0.46327376792E+01  0.98820885586E+02  0.10949690846E+03  0.00000000000E+00 0. -1.
         11    1    1    2    0    0 -0.66226275828E+02 -0.18674631645E+02  0.20317802438E+01  0.68838866987E+02  0.00000000000E+00 0.  1.
<mgrwt>
<rscale>  0 0.16337295E+03</rscale>
<asrwt>0</asrwt>
<pdfrwt beam="1">  1        2 0.82258585E-01 0.16919575E+03</pdfrwt>
<pdfrwt beam="2">  1       -2 0.87470874E-02 0.16919575E+03</pdfrwt>
<totfact> 0.46258535E+03</totfact>
</mgrwt>
</event>
<event>
 7    1  0.5206756E-006  0.1368973E+03  0.7546771E-02  0.1228839E+00
         -2   -1    0    0    0  501 -0.00000000000E+00  0.00000000000E+00  0.52923023139E+02  0.52923023139E+02  0.00000000000E+00 0.  1.
          2   -1    0    0  501    0  0.00000000000E+00 -0.00000000000E+00 -0.70046847163E+03  0.70046847163E+03  0.00000000000E+00 0. -1.
         23    2    1    2    0    0  0.27523248518E+00 -0.55815303905E+02 -0.62888813573E+03  0.64361568460E+03  0.12500175318E+03 0.  0.
          5    1    3    3  502    0 -0.59774540588E+02 -0.10272753608E+02 -0.30955746253E+03  0.31547810983E+03  0.47000000000E+01 0.  1.
         -5    1    3    3    0  502  0.60049773073E+02 -0.45542550296E+02 -0.31933067319E+03  0.32813757477E+03  0.47000000000E+01 0.  1.
        -11    1    1    2    0    0 -0.22834078102E+02  0.32717310517E+02 -0.50546822183E+02  0.64395642423E+02  0.00000000000E+00 0. -1.
         11    1    1    2    0    0  0.22558845617E+02  0.23097993388E+02  0.31889509419E+02  0.45380167750E+02  0.00000000000E+00 0.  1.
<mgrwt>
<rscale>  0 0.12907185E+03</rscale>
<asrwt>0</asrwt>
<pdfrwt beam="2">  1        2 0.10776438E+00 0.13689727E+03</pdfrwt>
<pdfrwt beam="1">  1       -2 0.81420035E-02 0.13689727E+03</pdfrwt>
<totfact> 0.37571655E+03</totfact>
</mgrwt>
</event>
<event>
 7    1  0.5206756E-006  0.1268473E+03  0.7546771E-02  0.1246617E+00
          1   -1    0    0  501    0  0.00000000000E+00  0.00000000000E+00  0.96868350904E+02  0.96868350904E+02  0.00000000000E+00 0. -1.
         -1   -1    0    0    0  501 -0.00000000000E+00 -0.00000000000E+00 -0.12673795125E+03  0.12673795125E+03  0.00000000000E+00 0.  1.
         23    2    1    2    0    0 -0.92712092340E+01  0.19407295500E+02 -0.13572987896E+02  0.12757145350E+03  0.12501060479E+03 0.  0.
          5    1    3    3  502    0  0.54890521269E+02  0.81631184311E+01 -0.25381031044E+02  0.61203697312E+02  0.47000000000E+01 0.  1.
         -5    1    3    3    0  502 -0.64161730503E+02  0.11244177069E+02  0.11808043148E+02  0.66367756193E+02  0.47000000000E+01 0.  1.
        -11    1    1    2    0    0 -0.35539064068E+02  0.11657587817E+02 -0.17946132905E+02  0.41484793778E+02  0.00000000000E+00 0.  1.
         11    1    1    2    0    0  0.44810273302E+02 -0.31064883317E+02  0.16495204538E+01  0.54550054873E+02  0.00000000000E+00 0. -1.
<mgrwt>
<rscale>  0 0.11789138E+03</rscale>
<asrwt>0</asrwt>
<pdfrwt beam="1">  1        1 0.14902823E-01 0.12684735E+03</pdfrwt>
<pdfrwt beam="2">  1       -1 0.19498146E-01 0.12684735E+03</pdfrwt>
<totfact> 0.74348434E+03</totfact>
</mgrwt>
</event>
<event>
 7    1  0.5206756E-006  0.1270584E+03  0.7546771E-02  0.1264529E+00
          1   -1    0    0  501    0  0.00000000000E+00  0.00000000000E+00  0.35001383550E+03  0.35001383550E+03  0.00000000000E+00 0. -1.
         -1   -1    0    0    0  501 -0.00000000000E+00 -0.00000000000E+00 -0.31224797858E+02  0.31224797858E+02  0.00000000000E+00 0.  1.
         23    2    1    2    0    0 -0.13284453682E+02 -0.18472218547E+02  0.27223700240E+03  0.30042775112E+03  0.12500459432E+03 0.  0.
          5    1    3    3  502    0 -0.15297115722E+02 -0.59453896496E+02  0.24073923415E+03  0.24848789994E+03  0.47000000000E+01 0.  1.
         -5    1    3    3    0  502  0.20126620403E+01  0.40981677949E+02  0.31497768250E+02  0.51939851182E+02  0.47000000000E+01 0.  1.
        -11    1    1    2    0    0  0.30588318128E+02 -0.10237655158E+02  0.19130262983E+02  0.37502289941E+02  0.00000000000E+00 0.  1.
         11    1    1    2    0    0 -0.17303864446E+02  0.28709873705E+02  0.27421772266E+02  0.43308592301E+02  0.00000000000E+00 0. -1.
<mgrwt>
<rscale>  0 0.10788961E+03</rscale>
<asrwt>0</asrwt>
<pdfrwt beam="1">  1        1 0.53848280E-01 0.12705844E+03</pdfrwt>
<pdfrwt beam="2">  1       -1 0.48038153E-02 0.12705844E+03</pdfrwt>
<totfact> 0.12623632E+04</totfact>
</mgrwt>
</event>
<event>
 7    1  0.5206756E-006  0.1277826E+03  0.7546771E-02  0.1248097E+00
         -2   -1    0    0    0  501 -0.00000000000E+00  0.00000000000E+00  0.17344606880E+02  0.17344606880E+02  0.00000000000E+00 0.  1.
          2   -1    0    0  501    0  0.00000000000E+00 -0.00000000000E+00 -0.80192468002E+03  0.80192468002E+03  0.00000000000E+00 0. -1.
         23    2    1    2    0    0  0.25948322140E+02 -0.54226103862E+01 -0.60629043632E+03  0.61960993936E+03  0.12500265457E+03 0.  0.
          5    1    3    3  502    0  0.89304817349E+01  0.13502958672E+02 -0.47512580374E+01  0.17514218505E+02  0.47000000000E+01 0.  1.
         -5    1    3    3    0  502  0.17017840405E+02 -0.18925569058E+02 -0.60153917829E+03  0.60209572085E+03  0.47000000000E+01 0.  1.
        -11    1    1    2    0    0  0.29589075855E+02 -0.29337222091E+01 -0.92147102126E+02  0.96825660680E+02  0.00000000000E+00 0. -1.
         11    1    1    2    0    0 -0.55537397996E+02  0.83563325953E+01 -0.86142534690E+02  0.10283368686E+03  0.00000000000E+00 0.  1.
<mgrwt>
<rscale>  0 0.11701935E+03</rscale>
<asrwt>0</asrwt>
<pdfrwt beam="2">  1        2 0.12337303E+00 0.12778256E+03</pdfrwt>
<pdfrwt beam="1">  1       -2 0.26684010E-02 0.12778256E+03</pdfrwt>
<totfact> 0.16894403E+04</totfact>
</mgrwt>
</event>
<event>
 7    1  0.5206756E-006  0.1552134E+03  0.7546771E-02  0.1202570E+00
          2   -1    0    0  501    0  0.00000000000E+00  0.00000000000E+00  0.77438409577E+02  0.77438409577E+02  0.00000000000E+00 0. -1.
         -2   -1    0    0    0  501 -0.00000000000E+00 -0.00000000000E+00 -0.30040621814E+03  0.30040621814E+03  0.00000000000E+00 0.  1.
         23    2    1    2    0    0  0.84557969091E+02  0.36300517214E+02 -0.52518906546E+02  0.16385792605E+03  0.12499362663E+03 0.  0.
          5    1    3    3  502    0  0.84477242915E+02 -0.18146853724E+02  0.21487034440E+01  0.86558764993E+02  0.47000000000E+01 0.  1.
         -5    1    3    3    0  502  0.80726176329E-01  0.54447370938E+02 -0.54667609991E+02  0.77299161062E+02  0.47000000000E+01 0.  1.
        -11    1    1    2    0    0 -0.85718173994E+02 -0.22485088462E+02 -0.17753000823E+03  0.19841897182E+03  0.00000000000E+00 0.  1.
         11    1    1    2    0    0  0.11602049027E+01 -0.13815428752E+02  0.70811062189E+01  0.15567729838E+02  0.00000000000E+00 0. -1.
<mgrwt>
<rscale>  0 0.14830578E+03</rscale>
<asrwt>0</asrwt>
<pdfrwt beam="1">  1        2 0.11913602E-01 0.15521335E+03</pdfrwt>
<pdfrwt beam="2">  1       -2 0.46216341E-01 0.15521335E+03</pdfrwt>
<totfact> 0.22523529E+03</totfact>
</mgrwt>
</event>
<event>
 7    1  0.5206756E-006  0.1524461E+03  0.7546771E-02  0.1206297E+00
         -2   -1    0    0    0  501 -0.00000000000E+00  0.00000000000E+00  0.31992971732E+02  0.31992971732E+02  0.00000000000E+00 0.  1.
          2   -1    0    0  501    0  0.00000000000E+00 -0.00000000000E+00 -0.60897474728E+03  0.60897474728E+03  0.00000000000E+00 0. -1.
         23    2    1    2    0    0  0.53607537553E+02  0.68858455699E+02 -0.33848214302E+03  0.37122763850E+03  0.12499817375E+03 0.  0.
          5    1    3    3  502    0  0.22588226752E+02  0.81782062342E+00  0.14540046139E+01  0.23132249087E+02  0.47000000000E+01 0.  1.
         -5    1    3    3    0  502  0.31019310800E+02  0.68040635075E+02 -0.33993614763E+03  0.34809538941E+03  0.47000000000E+01 0.  1.
        -11    1    1    2    0    0 -0.58121439735E+02 -0.18107420862E+02 -0.65624622867E+02  0.89512968745E+02  0.00000000000E+00 0.  1.
         11    1    1    2    0    0  0.45139021825E+01 -0.50751034837E+02 -0.17287500966E+03  0.18022711177E+03  0.00000000000E+00 0. -1.
<mgrwt>
<rscale>  0 0.14535680E+03</rscale>
<asrwt>0</asrwt>
<pdfrwt beam="2">  1        2 0.93688420E-01 0.15244605E+03</pdfrwt>
<pdfrwt beam="1">  1       -2 0.49219958E-02 0.15244605E+03</pdfrwt>
<totfact> 0.95780147E+03</totfact>
</mgrwt>
</event>
<event>
 7    1  0.5206756E-006  0.1539331E+03  0.7546771E-02  0.1199518E+00
         -3   -1    0    0    0  501 -0.00000000000E+00  0.00000000000E+00  0.96580734030E+02  0.96580734030E+02  0.00000000000E+00 0.  1.
          3   -1    0    0  501    0  0.00000000000E+00 -0.00000000000E+00 -0.29376115001E+03  0.29376115001E+03  0.00000000000E+00 0. -1.
         23    2    1    2    0    0 -0.54635264526E+02  0.71312003718E+02 -0.19524214054E+03  0.24862603190E+03  0.12499998516E+03 0.  0.
          5    1    3    3  502    0  0.36300821204E+02 -0.67320002856E+00 -0.34102742041E+02  0.50032887515E+02  0.47000000000E+01 0.  1.
         -5    1    3    3    0  502 -0.90936085730E+02  0.71985203747E+02 -0.16113939850E+03  0.19859314438E+03  0.47000000000E+01 0.  1.
        -11    1    1    2    0    0 -0.13588986290E+02 -0.71290453327E+02  0.69899995275E+01  0.72909871604E+02  0.00000000000E+00 0.  1.
         11    1    1    2    0    0  0.68224250816E+02 -0.21550391244E-01 -0.89282749646E+01  0.68805980538E+02  0.00000000000E+00 0. -1.
<mgrwt>
<rscale>  0 0.15077993E+03</rscale>
<asrwt>0</asrwt>
<pdfrwt beam="2">  1        3 0.45194023E-01 0.15393314E+03</pdfrwt>
<pdfrwt beam="1">  1       -3 0.14858575E-01 0.15393314E+03</pdfrwt>
<totfact> 0.43589420E+02</totfact>
</mgrwt>
</event>
<event>
 7    1  0.5206756E-006  0.1708464E+03  0.7546771E-02  0.1182987E+00
          2   -1    0    0  501    0  0.00000000000E+00  0.00000000000E+00  0.93249855660E+03  0.93249855660E+03  0.00000000000E+00 0.  1.
         -2   -1    0    0    0  501 -0.00000000000E+00 -0.00000000000E+00 -0.27468804855E+02  0.27468804855E+02  0.00000000000E+00 0. -1.
         23    2    1    2    0    0  0.11568455764E+03  0.13452994014E+02  0.48854516309E+03  0.51755663291E+03  0.12499836788E+03 0.  0.
          5    1    3    3  502    0  0.89457512288E+02 -0.10634024606E+02  0.13607592447E+03  0.16326198640E+03  0.47000000000E+01 0.  1.
         -5    1    3    3    0  502  0.26227045348E+02  0.24087018620E+02  0.35246923862E+03  0.35429464651E+03  0.47000000000E+01 0.  1.
        -11    1    1    2    0    0 -0.12140670956E+03  0.12535948217E+02  0.35565417116E+03  0.37601413350E+03  0.00000000000E+00 0.  1.
         11    1    1    2    0    0  0.57221519231E+01 -0.25988942232E+02  0.60830417494E+02  0.66396595044E+02  0.00000000000E+00 0. -1.
<mgrwt>
<rscale>  0 0.16516352E+03</rscale>
<asrwt>0</asrwt>
<pdfrwt beam="1">  1        2 0.14346129E+00 0.17084640E+03</pdfrwt>
<pdfrwt beam="2">  1       -2 0.42259707E-02 0.17084640E+03</pdfrwt>
<totfact> 0.71677423E+03</totfact>
</mgrwt>
</event>
<event>
 7    1  0.5206756E-006  0.1448772E+03  0.7546771E-02  0.1216883E+00
         -4   -1    0    0    0  501 -0.00000000000E+00  0.00000000000E+00  0.51837121733E+03  0.51837121733E+03  0.00000000000E+00 0.  1.
          4   -1    0    0  501    0  0.00000000000E+00 -0.00000000000E+00 -0.50365347777E+02  0.50365347777E+02  0.00000000000E+00 0. -1.
         23    2    1    2    0    0  0.72334963250E+02  0.11442728236E+02  0.84477795859E+02  0.16770775275E+03  0.12500443752E+03 0.  0.
          5    1    3    3  502    0  0.56174306710E+01  0.51392432763E+02  0.72070939762E+02  0.88820313166E+02  0.47000000000E+01 0.  1.
         -5    1    3    3    0  502  0.66717532579E+02 -0.39949704527E+02  0.12406856097E+02  0.78887439580E+02  0.47000000000E+01 0.  1.
        -11    1    1    2    0    0  0.61352234532E+01 -0.33856442214E+02  0.89521483639E+02  0.95906181652E+02  0.00000000000E+00 0.  1.
         11    1    1    2    0    0 -0.78470186703E+02  0.22413713978E+02  0.29400659005E+03  0.30512263071E+03  0.00000000000E+00 0. -1.
<mgrwt>
<rscale>  0 0.13739156E+03</rscale>
<asrwt>0</asrwt>
<pdfrwt beam="2">  1        4 0.77485154E-02 0.14487716E+03</pdfrwt>
<pdfrwt beam="1">  1       -4 0.79749414E-01 0.14487716E+03</pdfrwt>
<totfact> 0.28110057E+02</totfact>
</mgrwt>
</event>
<event>
 7    1  0.5206756E-006  0.1477040E+03  0.7546771E-02  0.1212438E+00
          2   -1    0    0  501    0  0.00000000000E+00  0.00000000000E+00  0.61148230438E+03  0.61148230438E+03  0.00000000000E+00 0. -1.
         -2   -1    0    0    0  501 -0.00000000000E+00 -0.00000000000E+00 -0.36215954041E+02  0.36215954041E+02  0.00000000000E+00 0.  1.
         23    2    1    2    0    0  0.29616398063E+02 -0.72902054902E+02  0.44813021209E+03  0.47184443249E+03  0.12499856337E+03 0.  0.
          5    1    3    3  502    0 -0.45252384212E+02 -0.37267172466E+01  0.13558136482E+03  0.14305964905E+03  0.47000000000E+01 0.  1.
         -5    1    3    3    0  502  0.74868782274E+02 -0.69175337655E+02  0.31254884726E+03  0.32878478345E+03  0.47000000000E+01 0.  1.
        -11    1    1    2    0    0  0.81981923949E+01 -0.16314222513E+02  0.32048211754E+01  0.18537397161E+02  0.00000000000E+00 0.  1.
         11    1    1    2    0    0 -0.37814590458E+02  0.89216277415E+02  0.12393131707E+03  0.15731642876E+03  0.00000000000E+00 0. -1.
<mgrwt>
<rscale>  0 0.14066422E+03</rscale>
<asrwt>0</asrwt>
<pdfrwt beam="1">  1        2 0.94074193E-01 0.14770403E+03</pdfrwt>
<pdfrwt beam="2">  1       -2 0.55716857E-02 0.14770403E+03</pdfrwt>
<totfact> 0.78915069E+03</totfact>
</mgrwt>
</event>
<event>
 7    1  0.5206756E-006  0.1274130E+03  0.7546771E-02  0.1248240E+00
          1   -1    0    0  501    0  0.00000000000E+00  0.00000000000E+00  0.54773023622E+03  0.54773023622E+03  0.00000000000E+00 0. -1.
         -1   -1    0    0    0  501 -0.00000000000E+00 -0.00000000000E+00 -0.26639750191E+02  0.26639750191E+02  0.00000000000E+00 0.  1.
         23    2    1    2    0    0 -0.23620197408E+02 -0.71878739750E+01  0.41931943717E+03  0.43824977050E+03  0.12499796675E+03 0.  0.
          5    1    3    3  502    0 -0.61434322136E+02 -0.23077318544E+02  0.36009017711E+03  0.36605158682E+03  0.47000000000E+01 0.  1.
         -5    1    3    3    0  502  0.37814124727E+02  0.15889444569E+02  0.59229260067E+02  0.72198183673E+02  0.47000000000E+01 0.  1.
        -11    1    1    2    0    0 -0.12316086038E+02 -0.26833580680E+02  0.88154769495E+01  0.30812978779E+02  0.00000000000E+00 0.  1.
         11    1    1    2    0    0  0.35936283446E+02  0.34021454655E+02  0.92955571901E+02  0.10530723713E+03  0.00000000000E+00 0. -1.
<mgrwt>
<rscale>  0 0.11693570E+03</rscale>
<asrwt>0</asrwt>
<pdfrwt beam="1">  1        1 0.84266182E-01 0.12741299E+03</pdfrwt>
<pdfrwt beam="2">  1       -1 0.40984235E-02 0.12741299E+03</pdfrwt>
<totfact> 0.90036876E+03</totfact>
</mgrwt>
</event>
<event>
 7    1  0.5206756E-006  0.1934257E+03  0.7546771E-02  0.1159440E+00
          2   -1    0    0  501    0  0.00000000000E+00  0.00000000000E+00  0.72815532244E+03  0.72815532244E+03  0.00000000000E+00 0. -1.
         -2   -1    0    0    0  501 -0.00000000000E+00 -0.00000000000E+00 -0.53052617789E+02  0.53052617789E+02  0.00000000000E+00 0.  1.
         23    2    1    2    0    0  0.70977086526E+02 -0.12941800193E+03  0.48489935121E+03  0.52205447807E+03  0.12500692472E+03 0.  0.
          5    1    3    3  502    0  0.74682558400E+02 -0.11883167324E+03  0.48935266241E+03  0.50910369209E+03  0.47000000000E+01 0.  1.
         -5    1    3    3    0  502 -0.37054718745E+01 -0.10586328692E+02 -0.44533111911E+01  0.12950785982E+02  0.47000000000E+01 0.  1.
        -11    1    1    2    0    0 -0.58181316060E+02  0.32904441889E+02  0.33743794516E+02  0.74875974136E+02  0.00000000000E+00 0.  1.
         11    1    1    2    0    0 -0.12795770466E+02  0.96513560044E+02  0.15645955892E+03  0.18427748802E+03  0.00000000000E+00 0. -1.
<mgrwt>
<rscale>  0 0.18891933E+03</rscale>
<asrwt>0</asrwt>
<pdfrwt beam="1">  1        2 0.11202389E+00 0.19342569E+03</pdfrwt>
<pdfrwt beam="2">  1       -2 0.81619417E-02 0.19342569E+03</pdfrwt>
<totfact> 0.36150436E+03</totfact>
</mgrwt>
</event>
<event>
 6    1  0.5206756E-006  0.2333830E+03  0.7546771E-02  0.1159731E+00
         -1   -1    0    0    0  501 -0.00000000000E+00  0.00000000000E+00  0.29584550339E+02  0.29584550339E+02  0.00000000000E+00 0.  1.
          1   -1    0    0  501    0  0.00000000000E+00 -0.00000000000E+00 -0.94538879592E+03  0.94538879592E+03  0.00000000000E+00 0. -1.
          5    1    1    2  502    0  0.10596301546E+03  0.51499006610E+02 -0.49646468099E+03  0.51027402226E+03  0.47000000000E+01 0. -1.
         -5    1    1    2    0  502 -0.57570616178E+02 -0.81320688579E+02 -0.18701436382E+03  0.21195257138E+03  0.47000000000E+01 0.  1.
        -11    1    1    2    0    0 -0.55464770735E+02  0.15805657238E+02 -0.22969989630E+03  0.23682947865E+03  0.00000000000E+00 0.  1.
         11    1    1    2    0    0  0.70723714507E+01  0.14016024730E+02 -0.26253044665E+01  0.15917273973E+02  0.00000000000E+00 0. -1.
<mgrwt>
<rscale>  0 0.18859877E+03</rscale>
<asrwt>0</asrwt>
<pdfrwt beam="2">  1        1 0.14544444E+00 0.23338305E+03</pdfrwt>
<pdfrwt beam="1">  1       -1 0.45514690E-02 0.23338305E+03</pdfrwt>
<totfact> 0.35513453E+03</totfact>
</mgrwt>
</event>
<event>
 7    1  0.5206756E-006  0.1327348E+03  0.7546771E-02  0.1234920E+00
          1   -1    0    0  501    0  0.00000000000E+00  0.00000000000E+00  0.48459491580E+03  0.48459491580E+03  0.00000000000E+00 0. -1.
         -1   -1    0    0    0  501 -0.00000000000E+00 -0.00000000000E+00 -0.38646055263E+02  0.38646055263E+02  0.00000000000E+00 0.  1.
         23    2    1    2    0    0 -0.23489978253E+02 -0.37962206015E+02  0.37220241347E+03  0.39516221595E+03  0.12500252861E+03 0.  0.
          5    1    3    3  502    0 -0.58558353959E+02  0.21420918624E+02  0.20205101469E+03  0.21150564794E+03  0.47000000000E+01 0. -1.
         -5    1    3    3    0  502  0.35068375706E+02 -0.59383124639E+02  0.17015139877E+03  0.18365656800E+03  0.47000000000E+01 0. -1.
        -11    1    1    2    0    0  0.37545148629E+02  0.45430037211E+02  0.68714056474E+01  0.59335846519E+02  0.00000000000E+00 0.  1.
         11    1    1    2    0    0 -0.14055170376E+02 -0.74678311955E+01  0.66875041422E+02  0.68742908596E+02  0.00000000000E+00 0. -1.
<mgrwt>
<rscale>  0 0.12509585E+03</rscale>
<asrwt>0</asrwt>
<pdfrwt beam="1">  1        1 0.74553060E-01 0.13273485E+03</pdfrwt>
<pdfrwt beam="2">  1       -1 0.59455473E-02 0.13273485E+03</pdfrwt>
<totfact> 0.61175209E+03</totfact>
</mgrwt>
</event>
<event>
 7    1  0.5206756E-006  0.1780209E+03  0.7546771E-02  0.1175510E+00
         -1   -1    0    0    0  501 -0.00000000000E+00  0.00000000000E+00  0.83875510215E+02  0.83875510215E+02  0.00000000000E+00 0. -1.
          1   -1    0    0  501    0  0.00000000000E+00 -0.00000000000E+00 -0.33278585813E+03  0.33278585813E+03  0.00000000000E+00 0.  1.
         23    2    1    2    0    0  0.86934749227E+02 -0.92241213962E+02 -0.13604309570E+03  0.22405169284E+03  0.12500138000E+03 0.  0.
          5    1    3    3  502    0  0.10577512658E+03 -0.93959363237E+02 -0.14496171128E+03  0.20261472572E+03  0.47000000000E+01 0.  1.
         -5    1    3    3    0  502 -0.18840377352E+02  0.17181492749E+01  0.89186155750E+01  0.21436967124E+02  0.47000000000E+01 0.  1.
        -11    1    1    2    0    0 -0.15158244130E+02  0.82009310744E+02 -0.55825624828E+02  0.10035835691E+03  0.00000000000E+00 0. -1.
         11    1    1    2    0    0 -0.71776505097E+02  0.10231903219E+02 -0.57041627389E+02  0.92251318596E+02  0.00000000000E+00 0.  1.
<mgrwt>
<rscale>  0 0.17226090E+03</rscale>
<asrwt>0</asrwt>
<pdfrwt beam="2">  1        1 0.51197825E-01 0.17802089E+03</pdfrwt>
<pdfrwt beam="1">  1       -1 0.12903924E-01 0.17802089E+03</pdfrwt>
<totfact> 0.30752916E+03</totfact>
</mgrwt>
</event>
<event>
 7    1  0.5206756E-006  0.1325025E+03  0.7546771E-02  0.1237185E+00
         -1   -1    0    0    0  501 -0.00000000000E+00  0.00000000000E+00  0.85715801532E+02  0.85715801532E+02  0.00000000000E+00 0.  1.
          1   -1    0    0  501    0  0.00000000000E+00 -0.00000000000E+00 -0.33165590700E+03  0.33165590700E+03  0.00000000000E+00 0. -1.
         23    2    1    2    0    0 -0.11392647583E+02 -0.42415819412E+02 -0.28120531737E+03  0.31085905114E+03  0.12501209943E+03 0.  0.
          5    1    3    3  502    0  0.19963659013E+02  0.39497265357E+02 -0.10194868788E+03  0.11123941123E+03  0.47000000000E+01 0. -1.
         -5    1    3    3    0  502 -0.31356306596E+02 -0.81913084769E+02 -0.17925662949E+03  0.19961963991E+03  0.47000000000E+01 0. -1.
        -11    1    1    2    0    0  0.48555751423E+02  0.83047737244E+01  0.24131468802E+02  0.54853970224E+02  0.00000000000E+00 0.  1.
         11    1    1    2    0    0 -0.37163103840E+02  0.34111045688E+02  0.11133743094E+02  0.51658687171E+02  0.00000000000E+00 0. -1.
<mgrwt>
<rscale>  0 0.12365604E+03</rscale>
<asrwt>0</asrwt>
<pdfrwt beam="2">  1        1 0.51023986E-01 0.13250253E+03</pdfrwt>
<pdfrwt beam="1">  1       -1 0.13187046E-01 0.13250253E+03</pdfrwt>
<totfact> 0.29499969E+03</totfact>
</mgrwt>
</event>
<event>
 7    1  0.5206756E-006  0.1425638E+03  0.7546771E-02  0.1220422E+00
          1   -1    0    0  501    0  0.00000000000E+00  0.00000000000E+00  0.29013917710E+03  0.29013917710E+03  0.00000000000E+00 0. -1.
         -1   -1    0    0    0  501 -0.00000000000E+00 -0.00000000000E+00 -0.62213569283E+02  0.62213569283E+02  0.00000000000E+00 0.  1.
         23    2    1    2    0    0  0.90327501627E+01  0.67935768295E+02  0.17723425281E+03  0.22745643572E+03  0.12501036193E+03 0.  0.
          5    1    3    3  502    0 -0.18599903037E+02  0.60036921450E+02  0.18652754800E+03  0.19688830461E+03  0.47000000000E+01 0.  1.
         -5    1    3    3    0  502  0.27632653200E+02  0.78988468449E+01 -0.92932951816E+01  0.30568131112E+02  0.47000000000E+01 0.  1.
        -11    1    1    2    0    0 -0.49942403500E+02 -0.38053401181E+02  0.21166545603E+02  0.66259547701E+02  0.00000000000E+00 0.  1.
         11    1    1    2    0    0  0.40909653338E+02 -0.29882367114E+02  0.29524809400E+02  0.58636762962E+02  0.00000000000E+00 0. -1.
<mgrwt>
<rscale>  0 0.13485682E+03</rscale>
<asrwt>0</asrwt>
<pdfrwt beam="1">  1        1 0.44636796E-01 0.14256384E+03</pdfrwt>
<pdfrwt beam="2">  1       -1 0.95713185E-02 0.14256384E+03</pdfrwt>
<totfact> 0.57203255E+03</totfact>
</mgrwt>
</event>
<event>
 7    1  0.5206756E-006  0.1327049E+03  0.7546771E-02  0.1235566E+00
          2   -1    0    0  501    0  0.00000000000E+00  0.00000000000E+00  0.95708698871E+03  0.95708698871E+03  0.00000000000E+00 0. -1.
         -2   -1    0    0    0  501 -0.00000000000E+00 -0.00000000000E+00 -0.16736812144E+02  0.16736812144E+02  0.00000000000E+00 0.  1.
         23    2    1    2    0    0 -0.11140976843E+01  0.44543823805E+02  0.69524603475E+03  0.70779773800E+03  0.12500078257E+03 0.  0.
          5    1    3    3  502    0 -0.62390581117E+02  0.27317555963E+02  0.39305823312E+03  0.39894322666E+03  0.47000000000E+01 0. -1.
         -5    1    3    3    0  502  0.61276483432E+02  0.17226267842E+02  0.30218780162E+03  0.30885451134E+03  0.47000000000E+01 0. -1.
        -11    1    1    2    0    0 -0.53344963164E+01 -0.63939381536E+02  0.23426065598E+03  0.24288836181E+03  0.00000000000E+00 0. -1.
         11    1    1    2    0    0  0.64485940007E+01  0.19395557731E+02  0.10843485842E+02  0.23137701042E+02  0.00000000000E+00 0.  1.
<mgrwt>
<rscale>  0 0.12468289E+03</rscale>
<asrwt>0</asrwt>
<pdfrwt beam="1">  1        2 0.14724411E+00 0.13270489E+03</pdfrwt>
<pdfrwt beam="2">  1       -2 0.25748949E-02 0.13270489E+03</pdfrwt>
<totfact> 0.14205639E+04</totfact>
</mgrwt>
</event>
<event>
 7    1  0.5206756E-006  0.1417835E+03  0.7546771E-02  0.1221740E+00
         -2   -1    0    0    0  501 -0.00000000000E+00  0.00000000000E+00  0.55605433872E+02  0.55605433872E+02  0.00000000000E+00 0.  1.
          2   -1    0    0  501    0  0.00000000000E+00 -0.00000000000E+00 -0.32946006825E+03  0.32946006825E+03  0.00000000000E+00 0. -1.
         23    2    1    2    0    0  0.35438030338E+02 -0.56752488300E+02 -0.21559313736E+03  0.25803676936E+03  0.12500349812E+03 0.  0.
          5    1    3    3  502    0 -0.39066696756E+02  0.75634679589E+01 -0.89084368525E+02  0.97680743028E+02  0.47000000000E+01 0.  1.
         -5    1    3    3    0  502  0.74504727094E+02 -0.64315956258E+02 -0.12650876883E+03  0.16035602633E+03  0.47000000000E+01 0.  1.
        -11    1    1    2    0    0 -0.24350509287E+02 -0.19469926674E+02 -0.12538419853E+01  0.31202523407E+02  0.00000000000E+00 0.  1.
         11    1    1    2    0    0 -0.11087521050E+02  0.76222414974E+02 -0.57007655038E+02  0.95826209360E+02  0.00000000000E+00 0. -1.
<mgrwt>
<rscale>  0 0.13392869E+03</rscale>
<asrwt>0</asrwt>
<pdfrwt beam="2">  1        2 0.50686165E-01 0.14178354E+03</pdfrwt>
<pdfrwt beam="1">  1       -2 0.85546820E-02 0.14178354E+03</pdfrwt>
<totfact> 0.80110239E+03</totfact>
</mgrwt>
</event>
<event>
 7    1  0.5208454E-006  0.2825462E+03  0.7546771E-02  0.1096806E+00
          3   -1    0    0  501    0  0.00000000000E+00  0.00000000000E+00  0.56088040357E+02  0.56088040357E+02  0.00000000000E+00 0.  1.
         -3   -1    0    0    0  501 -0.00000000000E+00 -0.00000000000E+00 -0.15990002607E+04  0.15990002607E+04  0.00000000000E+00 0. -1.
         23    2    1    2    0    0 -0.15724865469E+03 -0.19869649100E+03 -0.45618607330E+03  0.53659864380E+03  0.12499974448E+03 0.  0.
          5    1    3    3  502    0 -0.12527099267E+03 -0.20231909594E+03 -0.44005084200E+03  0.50029258612E+03  0.47000000000E+01 0. -1.
         -5    1    3    3    0  502 -0.31977662026E+02  0.36226049394E+01 -0.16135231301E+02  0.36306057681E+02  0.47000000000E+01 0. -1.
        -11    1    1    2    0    0  0.90094717212E+02  0.15559304982E+03 -0.84558583134E+03  0.86448924423E+03  0.00000000000E+00 0. -1.
         11    1    1    2    0    0  0.67153937480E+02  0.43103441178E+02 -0.24114031573E+03  0.25400041305E+03  0.00000000000E+00 0.  1.
<mgrwt>
<rscale>  0 0.27796466E+03</rscale>
<asrwt>0</asrwt>
<pdfrwt beam="1">  1        3 0.86289288E-02 0.28254623E+03</pdfrwt>
<pdfrwt beam="2">  1       -3 0.24600005E+00 0.28254623E+03</pdfrwt>
<totfact> 0.20228527E+01</totfact>
</mgrwt>
</event>
<event>
 7    1  0.5206756E-006  0.1331352E+03  0.7546771E-02  0.1235206E+00
          1   -1    0    0  501    0  0.00000000000E+00  0.00000000000E+00  0.70309207560E+03  0.70309207560E+03  0.00000000000E+00 0. -1.
         -1   -1    0    0    0  501 -0.00000000000E+00 -0.00000000000E+00 -0.25018247447E+02  0.25018247447E+02  0.00000000000E+00 0.  1.
         23    2    1    2    0    0  0.23750644768E+00 -0.45806755056E+02  0.53748565298E+03  0.55372899692E+03  0.12500663845E+03 0.  0.
          5    1    3    3  502    0 -0.13591670926E+02 -0.50974427703E+02  0.53549555397E+03  0.53810845015E+03  0.47000000000E+01 0.  1.
         -5    1    3    3    0  502  0.13829177374E+02  0.51676726465E+01  0.19900990070E+01  0.15620546773E+02  0.47000000000E+01 0.  1.
        -11    1    1    2    0    0 -0.38172197051E+02  0.35615420605E+02  0.38121546454E+02  0.64643848250E+02  0.00000000000E+00 0.  1.
         11    1    1    2    0    0  0.37934690603E+02  0.10191334451E+02  0.10246662872E+03  0.10973747788E+03  0.00000000000E+00 0. -1.
<mgrwt>
<rscale>  0 0.12491275E+03</rscale>
<asrwt>0</asrwt>
<pdfrwt beam="1">  1        1 0.10816800E+00 0.13313518E+03</pdfrwt>
<pdfrwt beam="2">  1       -1 0.38489617E-02 0.13313518E+03</pdfrwt>
<totfact> 0.70235078E+03</totfact>
</mgrwt>
</event>
<event>
 7    1  0.5206756E-006  0.1260776E+03  0.7546771E-02  0.1248842E+00
         -2   -1    0    0    0  501 -0.00000000000E+00  0.00000000000E+00  0.21646366059E+03  0.21646366059E+03  0.00000000000E+00 0.  1.
          2   -1    0    0  501    0  0.00000000000E+00 -0.00000000000E+00 -0.55110137041E+02  0.55110137041E+02  0.00000000000E+00 0. -1.
         23    2    1    2    0    0 -0.15494617857E+02  0.55208307334E+01  0.87651321507E+02  0.15355234013E+03  0.12500001697E+03 0.  0.
          5    1    3    3  502    0  0.43697423456E+01  0.40807493834E+02  0.10222818969E+03  0.11025896321E+03  0.47000000000E+01 0.  1.
         -5    1    3    3    0  502 -0.19864360203E+02 -0.35286663100E+02 -0.14576868180E+02  0.43293376918E+02  0.47000000000E+01 0.  1.
        -11    1    1    2    0    0 -0.36384311069E+02  0.58921083516E+01  0.43124708131E+02  0.56729846502E+02  0.00000000000E+00 0.  1.
         11    1    1    2    0    0  0.51878928926E+02 -0.11412939085E+02  0.30577493907E+02  0.61291610998E+02  0.00000000000E+00 0. -1.
<mgrwt>
<rscale>  0 0.11658348E+03</rscale>
<asrwt>0</asrwt>
<pdfrwt beam="2">  1        2 0.84784828E-02 0.12607762E+03</pdfrwt>
<pdfrwt beam="1">  1       -2 0.33302101E-01 0.12607762E+03</pdfrwt>
<totfact> 0.62626966E+03</totfact>
</mgrwt>
</event>
<event>
 7    1  0.5206756E-006  0.1538196E+03  0.7546771E-02  0.1204626E+00
          1   -1    0    0  501    0  0.00000000000E+00  0.00000000000E+00  0.51155943212E+03  0.51155943212E+03  0.00000000000E+00 0. -1.
         -1   -1    0    0    0  501 -0.00000000000E+00 -0.00000000000E+00 -0.40386166962E+02  0.40386166962E+02  0.00000000000E+00 0.  1.
         23    2    1    2    0    0 -0.47448302867E+02  0.76034789988E+02  0.31504832693E+03  0.35059366984E+03  0.12501136866E+03 0.  0.
          5    1    3    3  502    0 -0.58904066241E+02 -0.63242061952E+00  0.22028168313E+03  0.22807060069E+03  0.47000000000E+01 0. -1.
         -5    1    3    3    0  502  0.11455763374E+02  0.76667210608E+02  0.94766643804E+02  0.12252306915E+03  0.47000000000E+01 0. -1.
        -11    1    1    2    0    0  0.65056370304E+02 -0.51749894217E+02  0.14884385179E+03  0.17048423705E+03  0.00000000000E+00 0. -1.
         11    1    1    2    0    0 -0.17608067437E+02 -0.24284895771E+02  0.72810864418E+01  0.30867692192E+02  0.00000000000E+00 0.  1.
<mgrwt>
<rscale>  0 0.14666939E+03</rscale>
<asrwt>0</asrwt>
<pdfrwt beam="1">  1        1 0.78701447E-01 0.15381961E+03</pdfrwt>
<pdfrwt beam="2">  1       -1 0.62132568E-02 0.15381961E+03</pdfrwt>
<totfact> 0.53802409E+03</totfact>
</mgrwt>
</event>
<event>
 6    1  0.5206756E-006  0.3168179E+03  0.7546771E-02  0.1080182E+00
          1   -1    0    0  501    0  0.00000000000E+00  0.00000000000E+00  0.14170310670E+03  0.14170310670E+03  0.00000000000E+00 0. -1.
         -1   -1    0    0    0  501 -0.00000000000E+00 -0.00000000000E+00 -0.92447223301E+03  0.92447223301E+03  0.00000000000E+00 0.  1.
          5    1    1    2  502    0  0.15253886181E+03 -0.75608189603E+02 -0.39052498520E+02  0.17473376988E+03  0.47000000000E+01 0. -1.
         -5    1    1    2    0  502  0.18320977471E+02 -0.14229993002E+03 -0.75200520059E+02  0.16205596724E+03  0.47000000000E+01 0.  1.
        -11    1    1    2    0    0 -0.10702489538E+03  0.18912309286E+03 -0.44621030712E+03  0.49631190864E+03  0.00000000000E+00 0.  1.
         11    1    1    2    0    0 -0.63834943899E+02  0.28785026767E+02 -0.22230580061E+03  0.23307369395E+03  0.00000000000E+00 0. -1.
<mgrwt>
<rscale>  0 0.31034290E+03</rscale>
<asrwt>0</asrwt>
<pdfrwt beam="1">  1        1 0.21800478E-01 0.31681789E+03</pdfrwt>
<pdfrwt beam="2">  1       -1 0.14222650E+00 0.31681789E+03</pdfrwt>
<totfact> 0.99102589E+01</totfact>
</mgrwt>
</event>
<event>
 7    1  0.5206756E-006  0.1940281E+03  0.7546771E-02  0.1159255E+00
         -2   -1    0    0    0  501 -0.00000000000E+00  0.00000000000E+00  0.17351571288E+03  0.17351571288E+03  0.00000000000E+00 0.  1.
          2   -1    0    0  501    0  0.00000000000E+00 -0.00000000000E+00 -0.19723604143E+03  0.19723604143E+03  0.00000000000E+00 0. -1.
         23    2    1    2    0    0  0.10185676096E+03 -0.10792681750E+03 -0.24826265208E+02  0.19560995743E+03  0.12499565718E+03 0.  0.
          5    1    3    3  502    0  0.60401785066E+02 -0.42867748137E+02  0.48835182159E+02  0.88842470058E+02  0.47000000000E+01 0.  1.
         -5    1    3    3    0  502  0.41454975891E+02 -0.65059069360E+02 -0.73661447367E+02  0.10676748737E+03  0.47000000000E+01 0.  1.
        -11    1    1    2    0    0 -0.82083685411E+01 -0.11903316973E+02  0.16899322519E+02  0.22240804182E+02  0.00000000000E+00 0.  1.
         11    1    1    2    0    0 -0.93648392416E+02  0.11983013447E+03 -0.15793385865E+02  0.15290099269E+03  0.00000000000E+00 0. -1.
<mgrwt>
<rscale>  0 0.18912276E+03</rscale>
<asrwt>0</asrwt>
<pdfrwt beam="2">  1        2 0.30344006E-01 0.19402812E+03</pdfrwt>
<pdfrwt beam="1">  1       -2 0.26694725E-01 0.19402812E+03</pdfrwt>
<totfact> 0.21584173E+03</totfact>
</mgrwt>
</event>
<event>
 6    1  0.5206756E-006  0.3531059E+03  0.7546771E-02  0.1094014E+00
         -2   -1    0    0    0  501 -0.00000000000E+00  0.00000000000E+00  0.22270081167E+03  0.22270081167E+03  0.00000000000E+00 0.  1.
          2   -1    0    0  501    0  0.00000000000E+00 -0.00000000000E+00 -0.27990306085E+03  0.27990306085E+03  0.00000000000E+00 0. -1.
          5    1    1    2  502    0  0.53457256412E+02  0.13880243370E+03 -0.68022416474E+02  0.16362436557E+03  0.47000000000E+01 0. -1.
         -5    1    1    2    0  502  0.57347933627E+02 -0.18313165181E+03  0.18880010199E+02  0.19288476396E+03  0.47000000000E+01 0.  1.
        -11    1    1    2    0    0 -0.89790781631E+02 -0.72220894019E+01 -0.78769865783E+01  0.90424498665E+02  0.00000000000E+00 0.  1.
         11    1    1    2    0    0 -0.21014408407E+02  0.51551307506E+02 -0.18285633198E+00  0.55670244321E+02  0.00000000000E+00 0. -1.
<mgrwt>
<rscale>  0 0.28308829E+03</rscale>
<asrwt>0</asrwt>
<pdfrwt beam="2">  1        2 0.43062009E-01 0.35310591E+03</pdfrwt>
<pdfrwt beam="1">  1       -2 0.34261663E-01 0.35310591E+03</pdfrwt>
<totfact> 0.94638672E+02</totfact>
</mgrwt>
</event>
<event>
 7    1  0.5744153E-006  0.2772656E+03  0.7546771E-02  0.1099303E+00
          1   -1    0    0  501    0  0.00000000000E+00  0.00000000000E+00  0.10543515698E+04  0.10543515698E+04  0.00000000000E+00 0. -1.
         -1   -1    0    0    0  501 -0.00000000000E+00 -0.00000000000E+00 -0.71846699188E+02  0.71846699188E+02  0.00000000000E+00 0.  1.
         23    2    1    2    0    0 -0.18045707326E+03 -0.16937064290E+03  0.61494424172E+03  0.67456108251E+03  0.12500025459E+03 0.  0.
          5    1    3    3  502    0 -0.78145396812E+02 -0.15443285379E+03  0.36270442297E+03  0.40191143032E+03  0.47000000000E+01 0.  1.
         -5    1    3    3    0  502 -0.10231167645E+03 -0.14937789103E+02  0.25223981875E+03  0.27264965220E+03  0.47000000000E+01 0.  1.
        -11    1    1    2    0    0  0.24879090213E+02  0.33628037688E+02  0.17756872694E+02  0.45443597750E+02  0.00000000000E+00 0.  1.
         11    1    1    2    0    0  0.15557798305E+03  0.13574260521E+03  0.34980375624E+03  0.40619358877E+03  0.00000000000E+00 0. -1.
<mgrwt>
<rscale>  0 0.27348279E+03</rscale>
<asrwt>0</asrwt>
<pdfrwt beam="1">  1        1 0.16220792E+00 0.27726564E+03</pdfrwt>
<pdfrwt beam="2">  1       -1 0.11053339E-01 0.27726564E+03</pdfrwt>
<totfact> 0.76098560E+02</totfact>
</mgrwt>
</event>
<event>
 7    1  0.5206756E-006  0.3095890E+03  0.7546771E-02  0.1082074E+00
         -2   -1    0    0    0  501 -0.00000000000E+00  0.00000000000E+00  0.49432560814E+02  0.49432560814E+02  0.00000000000E+00 0. -1.
          2   -1    0    0  501    0  0.00000000000E+00 -0.00000000000E+00 -0.36438974039E+04  0.36438974039E+04  0.00000000000E+00 0.  1.
         23    2    1    2    0    0  0.59964709693E+01  0.28316859495E+03 -0.31074871030E+04  0.31228707066E+04  0.12499977760E+03 0.  0.
          5    1    3    3  502    0  0.51787501162E+01  0.25336823545E+02 -0.89818731333E+03  0.89857181901E+03  0.47000000000E+01 0. -1.
         -5    1    3    3    0  502  0.81772085305E+00  0.25783177140E+03 -0.22092997896E+04  0.22242988876E+04  0.47000000000E+01 0. -1.
        -11    1    1    2    0    0  0.35096323802E+02 -0.58719761682E+02 -0.98493456084E+02  0.11991965330E+03  0.00000000000E+00 0.  1.
         11    1    1    2    0    0 -0.41092794771E+02 -0.22444883327E+03 -0.38848428405E+03  0.45053960480E+03  0.00000000000E+00 0. -1.
<mgrwt>
<rscale>  0 0.30642187E+03</rscale>
<asrwt>0</asrwt>
<pdfrwt beam="2">  1        2 0.56059970E+00 0.30958901E+03</pdfrwt>
<pdfrwt beam="1">  1       -2 0.76050080E-02 0.30958901E+03</pdfrwt>
<totfact> 0.81892653E+01</totfact>
</mgrwt>
</event>
<event>
 7    1  0.5206756E-006  0.1606852E+03  0.7546771E-02  0.1195095E+00
         -3   -1    0    0    0  501 -0.00000000000E+00  0.00000000000E+00  0.80265494864E+03  0.80265494864E+03  0.00000000000E+00 0.  1.
          3   -1    0    0  501    0  0.00000000000E+00 -0.00000000000E+00 -0.27772193668E+02  0.27772193668E+02  0.00000000000E+00 0. -1.
         23    2    1    2    0    0 -0.71088557284E+02 -0.71691832856E+02  0.38911483210E+03  0.42098705032E+03  0.12500576827E+03 0.  0.
          5    1    3    3  502    0 -0.47769023073E+01 -0.48704670961E+02  0.36000783632E+02  0.60935295119E+02  0.47000000000E+01 0.  1.
         -5    1    3    3    0  502 -0.66311654977E+02 -0.22987161895E+02  0.35311404847E+03  0.36005175520E+03  0.47000000000E+01 0.  1.
        -11    1    1    2    0    0  0.62295612542E+02  0.69278628240E+01  0.26291891685E+03  0.27028706122E+03  0.00000000000E+00 0.  1.
         11    1    1    2    0    0  0.87929447426E+01  0.64763970032E+02  0.12284900602E+03  0.13915303076E+03  0.00000000000E+00 0. -1.
<mgrwt>
<rscale>  0 0.15446206E+03</rscale>
<asrwt>0</asrwt>
<pdfrwt beam="2">  1        3 0.42726458E-02 0.16068523E+03</pdfrwt>
<pdfrwt beam="1">  1       -3 0.12348536E+00 0.16068523E+03</pdfrwt>
<totfact> 0.38448561E+02</totfact>
</mgrwt>
</event>
<event>
 7    1  0.5206756E-006  0.1212781E+03  0.7546771E-02  0.1253132E+00
         -1   -1    0    0    0  501 -0.00000000000E+00  0.00000000000E+00  0.15750444875E+02  0.15750444875E+02  0.00000000000E+00 0.  1.
          1   -1    0    0  501    0  0.00000000000E+00 -0.00000000000E+00 -0.15338051775E+04  0.15338051775E+04  0.00000000000E+00 0. -1.
         23    2    1    2    0    0 -0.20910869770E+02 -0.47088020044E+01 -0.13579281834E+04  0.13633331698E+04  0.11936893758E+03 0.  0.
          5    1    3    3  502    0 -0.42413795255E+02 -0.28658927927E+02 -0.12381542353E+04  0.12392208296E+04  0.47000000000E+01 0. -1.
         -5    1    3    3    0  502  0.21502925485E+02  0.23950125922E+02 -0.11977394812E+03  0.12411234018E+03  0.47000000000E+01 0.  1.
        -11    1    1    2    0    0 -0.69928048269E+01 -0.40867964544E+02 -0.75479099531E+02  0.86117270691E+02  0.00000000000E+00 0. -1.
         11    1    1    2    0    0  0.27903674597E+02  0.45576766548E+02 -0.84647449712E+02  0.10010518192E+03  0.00000000000E+00 0.  1.
<mgrwt>
<rscale>  0 0.11411628E+03</rscale>
<asrwt>0</asrwt>
<pdfrwt beam="2">  1        1 0.23597003E+00 0.12127811E+03</pdfrwt>
<pdfrwt beam="1">  1       -1 0.24231454E-02 0.12127811E+03</pdfrwt>
<totfact> 0.34703970E+03</totfact>
</mgrwt>
</event>
<event>
 7    1  0.5206756E-006  0.1341343E+03  0.7546771E-02  0.1231499E+00
         -2   -1    0    0    0  501 -0.00000000000E+00  0.00000000000E+00  0.53036949042E+02  0.53036949042E+02  0.00000000000E+00 0.  1.
          2   -1    0    0  501    0  0.00000000000E+00 -0.00000000000E+00 -0.41099870093E+03  0.41099870093E+03  0.00000000000E+00 0. -1.
         23    2    1    2    0    0 -0.16812638525E+01 -0.48612303784E+02 -0.32292852543E+03  0.34967819181E+03  0.12500409018E+03 0.  0.
          5    1    3    3  502    0 -0.51084571252E+02 -0.54101739170E+02 -0.25298209209E+03  0.26373975908E+03  0.47000000000E+01 0. -1.
         -5    1    3    3    0  502  0.49403307400E+02  0.54894353860E+01 -0.69946433341E+02  0.85938432730E+02  0.47000000000E+01 0. -1.
        -11    1    1    2    0    0  0.15109409838E+02 -0.15372615867E+02  0.19617488971E+02  0.29145453467E+02  0.00000000000E+00 0.  1.
         11    1    1    2    0    0 -0.13428145986E+02  0.63984919651E+02 -0.54650715423E+02  0.85212004692E+02  0.00000000000E+00 0. -1.
<mgrwt>
<rscale>  0 0.12731249E+03</rscale>
<asrwt>0</asrwt>
<pdfrwt beam="2">  1        2 0.63230570E-01 0.13413428E+03</pdfrwt>
<pdfrwt beam="1">  1       -2 0.81595306E-02 0.13413428E+03</pdfrwt>
<totfact> 0.67870959E+03</totfact>
</mgrwt>
</event>
<event>
 7    1  0.5206756E-006  0.1252972E+03  0.7546771E-02  0.1249779E+00
         -1   -1    0    0    0  501 -0.00000000000E+00  0.00000000000E+00  0.25341936745E+02  0.25341936745E+02  0.00000000000E+00 0.  1.
          1   -1    0    0  501    0  0.00000000000E+00 -0.00000000000E+00 -0.51430311561E+03  0.51430311561E+03  0.00000000000E+00 0. -1.
         23    2    1    2    0    0  0.43211763993E+01 -0.73900736592E+01 -0.35962734563E+03  0.38082964921E+03  0.12500443287E+03 0.  0.
          5    1    3    3  502    0 -0.25206941866E+02 -0.48094183238E+02 -0.28845018761E+03  0.29355415363E+03  0.47000000000E+01 0. -1.
         -5    1    3    3    0  502  0.29528118265E+02  0.40704109578E+02 -0.71177158016E+02  0.87275495576E+02  0.47000000000E+01 0. -1.
        -11    1    1    2    0    0  0.36422007610E+02  0.80692614793E+00 -0.19153875764E+02  0.41159260500E+02  0.00000000000E+00 0.  1.
         11    1    1    2    0    0 -0.40743184009E+02  0.65831475113E+01 -0.11017995747E+03  0.11765614265E+03  0.00000000000E+00 0. -1.
<mgrwt>
<rscale>  0 0.11603850E+03</rscale>
<asrwt>0</asrwt>
<pdfrwt beam="2">  1        1 0.79123553E-01 0.12529722E+03</pdfrwt>
<pdfrwt beam="1">  1       -1 0.38987597E-02 0.12529722E+03</pdfrwt>
<totfact> 0.10512458E+04</totfact>
</mgrwt>
</event>
<event>
 7    1  0.5206756E-006  0.1295656E+03  0.7546771E-02  0.1241621E+00
          1   -1    0    0  501    0  0.00000000000E+00  0.00000000000E+00  0.38109120686E+02  0.38109120686E+02  0.00000000000E+00 0. -1.
         -1   -1    0    0    0  501 -0.00000000000E+00 -0.00000000000E+00 -0.46713595207E+03  0.46713595207E+03  0.00000000000E+00 0.  1.
         23    2    1    2    0    0 -0.17043850677E+01  0.39275030919E+02 -0.10534414809E+03  0.16698689665E+03  0.12345768965E+03 0.  0.
          5    1    3    3  502    0  0.11201848150E+02  0.43618448035E+02  0.13519279327E+02  0.47253691120E+02  0.47000000000E+01 0. -1.
         -5    1    3    3    0  502 -0.12906233217E+02 -0.43434171163E+01 -0.11886342742E+03  0.11973320553E+03  0.47000000000E+01 0.  1.
        -11    1    1    2    0    0  0.37527724143E+02 -0.45291107644E+02 -0.23865351373E+03  0.24579486188E+03  0.00000000000E+00 0. -1.
         11    1    1    2    0    0 -0.35823339075E+02  0.60160767249E+01 -0.85029169568E+02  0.92463314234E+02  0.00000000000E+00 0.  1.
<mgrwt>
<rscale>  0 0.12089894E+03</rscale>
<asrwt>0</asrwt>
<pdfrwt beam="1">  1        1 0.58629420E-02 0.12956556E+03</pdfrwt>
<pdfrwt beam="2">  1       -1 0.71867066E-01 0.12956556E+03</pdfrwt>
<totfact> 0.26150257E+03</totfact>
</mgrwt>
</event>
<event>
 7    1  0.5206756E-006  0.1336822E+03  0.7546771E-02  0.1235440E+00
          2   -1    0    0  501    0  0.00000000000E+00  0.00000000000E+00  0.53082711249E+03  0.53082711249E+03  0.00000000000E+00 0. -1.
         -2   -1    0    0    0  501 -0.00000000000E+00 -0.00000000000E+00 -0.26226836375E+02  0.26226836375E+02  0.00000000000E+00 0.  1.
         23    2    1    2    0    0 -0.38007415891E+02 -0.28333295089E+02  0.31046494914E+03  0.33802279893E+03  0.12499435458E+03 0.  0.
          5    1    3    3  502    0  0.83832943386E+01 -0.68383282690E+02  0.20030663528E+03  0.21187588610E+03  0.47000000000E+01 0.  1.
         -5    1    3    3    0  502 -0.46390710230E+02  0.40049987601E+02  0.11015831386E+03  0.12614691282E+03  0.47000000000E+01 0.  1.
        -11    1    1    2    0    0  0.11898499923E+02  0.50548270364E+02  0.54620782217E+02  0.75366649038E+02  0.00000000000E+00 0.  1.
         11    1    1    2    0    0  0.26108915968E+02 -0.22214975275E+02  0.13951454476E+03  0.14366450090E+03  0.00000000000E+00 0. -1.
<mgrwt>
<rscale>  0 0.12476323E+03</rscale>
<asrwt>0</asrwt>
<pdfrwt beam="1">  1        2 0.81665701E-01 0.13368219E+03</pdfrwt>
<pdfrwt beam="2">  1       -2 0.40348983E-02 0.13368219E+03</pdfrwt>
<totfact> 0.14912453E+04</totfact>
</mgrwt>
</event>
<event>
 7    1  0.5206756E-006  0.2115596E+03  0.7546771E-02  0.1144160E+00
          2   -1    0    0  501    0  0.00000000000E+00  0.00000000000E+00  0.40566905075E+03  0.40566905075E+03  0.00000000000E+00 0. -1.
         -2   -1    0    0    0  501 -0.00000000000E+00 -0.00000000000E+00 -0.10121260224E+03  0.10121260224E+03  0.00000000000E+00 0.  1.
         23    2    1    2    0    0 -0.16039312703E+03 -0.58354290092E+02  0.17411968354E+03  0.27399839865E+03  0.12500511947E+03 0.  0.
          5    1    3    3  502    0 -0.16402677180E+03 -0.26344626007E+02  0.10233266918E+03  0.19517398999E+03  0.47000000000E+01 0.  1.
         -5    1    3    3    0  502  0.36336447688E+01 -0.32009664085E+02  0.71787014358E+02  0.78824408654E+02  0.47000000000E+01 0.  1.
        -11    1    1    2    0    0  0.32303970031E+02  0.23931728052E+02  0.82700054552E+02  0.91954190281E+02  0.00000000000E+00 0. -1.
         11    1    1    2    0    0  0.12808915700E+03  0.34422562041E+02  0.47636710415E+02  0.14092906407E+03  0.00000000000E+00 0.  1.
<mgrwt>
<rscale>  0 0.20675730E+03</rscale>
<asrwt>0</asrwt>
<pdfrwt beam="1">  1        2 0.62410622E-01 0.21155959E+03</pdfrwt>
<pdfrwt beam="2">  1       -2 0.15571170E-01 0.21155959E+03</pdfrwt>
<totfact> 0.25024620E+03</totfact>
</mgrwt>
</event>
<event>
 7    1  0.5206756E-006  0.3374768E+03  0.7546771E-02  0.1067876E+00
         -2   -1    0    0    0  501 -0.00000000000E+00  0.00000000000E+00  0.70136525195E+02  0.70136525195E+02  0.00000000000E+00 0. -1.
          2   -1    0    0  501    0  0.00000000000E+00 -0.00000000000E+00 -0.40596022171E+03  0.40596022171E+03  0.00000000000E+00 0.  1.
         23    2    1    2    0    0  0.36681758754E+02 -0.41346423647E+01 -0.15122313185E+03  0.19959959150E+03  0.12493564195E+03 0.  0.
          5    1    3    3  502    0  0.72122578522E+02  0.21967481345E+02 -0.54253218058E+02  0.93003968942E+02  0.47000000000E+01 0.  1.
         -5    1    3    3    0  502 -0.35440819769E+02 -0.26102123709E+02 -0.96969913790E+02  0.10659562256E+03  0.47000000000E+01 0.  1.
        -11    1    1    2    0    0 -0.78961707786E+02  0.31106607357E+02 -0.20537088573E+03  0.22221560031E+03  0.00000000000E+00 0.  1.
         11    1    1    2    0    0  0.42279949032E+02 -0.26971964993E+02  0.20770321064E+02  0.54281555089E+02  0.00000000000E+00 0. -1.
<mgrwt>
<rscale>  0 0.33747675E+03</rscale>
<asrwt>0</asrwt>
<pdfrwt beam="2">  1        2 0.62455421E-01 0.33747675E+03</pdfrwt>
<pdfrwt beam="1">  1       -2 0.10790234E-01 0.33747675E+03</pdfrwt>
<totfact> 0.46237836E+03</totfact>
</mgrwt>
</event>
<event>
 7    1  0.5206756E-006  0.1506197E+03  0.7546771E-02  0.1206477E+00
         -2   -1    0    0    0  501 -0.00000000000E+00  0.00000000000E+00  0.25609070974E+03  0.25609070974E+03  0.00000000000E+00 0.  1.
          2   -1    0    0  501    0  0.00000000000E+00 -0.00000000000E+00 -0.10572095416E+03  0.10572095416E+03  0.00000000000E+00 0. -1.
         23    2    1    2    0    0  0.69077503963E+02 -0.47891383941E+02 -0.15009521139E+02  0.15136575179E+03  0.12498407451E+03 0.  0.
          5    1    3    3  502    0  0.94778930750E+02 -0.64351675798E+02 -0.27738522627E+02  0.11796482327E+03  0.47000000000E+01 0.  1.
         -5    1    3    3    0  502 -0.25701426787E+02  0.16460291857E+02  0.12729001488E+02  0.33400928516E+02  0.47000000000E+01 0.  1.
        -11    1    1    2    0    0 -0.32099078393E+02 -0.28207401948E+02  0.36088227721E+02  0.55931820445E+02  0.00000000000E+00 0.  1.
         11    1    1    2    0    0 -0.36978425571E+02  0.76098785889E+02  0.12929104900E+03  0.15451409167E+03  0.00000000000E+00 0. -1.
<mgrwt>
<rscale>  0 0.14521669E+03</rscale>
<asrwt>0</asrwt>
<pdfrwt beam="2">  1        2 0.16264762E-01 0.15061974E+03</pdfrwt>
<pdfrwt beam="1">  1       -2 0.39398571E-01 0.15061974E+03</pdfrwt>
<totfact> 0.21129835E+03</totfact>
</mgrwt>
</event>
<event>
 7    1  0.5206756E-006  0.1530723E+03  0.7546771E-02  0.1203912E+00
         -1   -1    0    0    0  501 -0.00000000000E+00  0.00000000000E+00  0.43744842183E+03  0.43744842183E+03  0.00000000000E+00 0.  1.
          1   -1    0    0  501    0  0.00000000000E+00 -0.00000000000E+00 -0.46128664646E+02  0.46128664646E+02  0.00000000000E+00 0. -1.
         23    2    1    2    0    0 -0.41165764605E+02  0.78184234991E+02  0.21263371779E+03  0.26200040500E+03  0.12499487791E+03 0.  0.
          5    1    3    3  502    0  0.28097000449E+01  0.87748759556E+02  0.70063522482E+02  0.11242209036E+03  0.47000000000E+01 0. -1.
         -5    1    3    3    0  502 -0.43975464650E+02 -0.95645245655E+01  0.14257019530E+03  0.14957831464E+03  0.47000000000E+01 0. -1.
        -11    1    1    2    0    0  0.23254740792E+02 -0.10004408009E+03  0.13749303153E+03  0.17162148656E+03  0.00000000000E+00 0. -1.
         11    1    1    2    0    0  0.17911023813E+02  0.21859845099E+02  0.41193007867E+02  0.49955194914E+02  0.00000000000E+00 0.  1.
<mgrwt>
<rscale>  0 0.14723492E+03</rscale>
<asrwt>0</asrwt>
<pdfrwt beam="2">  1        1 0.70967179E-02 0.15307225E+03</pdfrwt>
<pdfrwt beam="1">  1       -1 0.67299754E-01 0.15307225E+03</pdfrwt>
<totfact> 0.23165978E+03</totfact>
</mgrwt>
</event>
<event>
 7    1  0.5206756E-006  0.2678912E+03  0.7546771E-02  0.1104162E+00
          1   -1    0    0  501    0  0.00000000000E+00  0.00000000000E+00  0.31370438947E+03  0.31370438947E+03  0.00000000000E+00 0. -1.
         -1   -1    0    0    0  501 -0.00000000000E+00 -0.00000000000E+00 -0.22200585766E+03  0.22200585766E+03  0.00000000000E+00 0.  1.
         23    2    1    2    0    0  0.12252306405E+03 -0.20280417375E+03  0.76762256952E+02  0.27867207884E+03  0.12499699724E+03 0.  0.
          5    1    3    3  502    0  0.20847334890E+01 -0.55890295363E+02  0.68370815002E+02  0.88457501511E+02  0.47000000000E+01 0.  1.
         -5    1    3    3    0  502  0.12043833056E+03 -0.14691387839E+03  0.83914419495E+01  0.19021457733E+03  0.47000000000E+01 0.  1.
        -11    1    1    2    0    0 -0.10969325073E+03  0.10724717728E+03  0.37697130186E+02  0.15797354182E+03  0.00000000000E+00 0. -1.
         11    1    1    2    0    0 -0.12829813318E+02  0.95556996470E+02 -0.22760855332E+02  0.99064626479E+02  0.00000000000E+00 0.  1.
<mgrwt>
<rscale>  0 0.26502363E+03</rscale>
<asrwt>0</asrwt>
<pdfrwt beam="1">  1        1 0.48262214E-01 0.26789118E+03</pdfrwt>
<pdfrwt beam="2">  1       -1 0.34154747E-01 0.26789118E+03</pdfrwt>
<totfact> 0.67795632E+02</totfact>
</mgrwt>
</event>
<event>
 7    1  0.5206756E-006  0.1445985E+03  0.7546771E-02  0.1215997E+00
          4   -1    0    0  501    0  0.00000000000E+00  0.00000000000E+00  0.33030001773E+03  0.33030001773E+03  0.00000000000E+00 0.  1.
         -4   -1    0    0    0  501 -0.00000000000E+00 -0.00000000000E+00 -0.53207563339E+02  0.53207563339E+02  0.00000000000E+00 0. -1.
         23    2    1    2    0    0  0.14790100865E+02  0.71174721182E+02  0.16257007818E+03  0.21757242686E+03  0.12499657032E+03 0.  0.
          5    1    3    3  502    0  0.19231554036E+02 -0.32260566519E+02  0.65084431828E+02  0.75290571051E+02  0.47000000000E+01 0. -1.
         -5    1    3    3    0  502 -0.44414531716E+01  0.10343528770E+03  0.97485646355E+02  0.14228185581E+03  0.47000000000E+01 0. -1.
        -11    1    1    2    0    0  0.24136292447E+02 -0.64219781861E+02  0.10472594005E+03  0.12519689898E+03  0.00000000000E+00 0.  1.
         11    1    1    2    0    0 -0.38926393311E+02 -0.69549393209E+01  0.97964361577E+01  0.40738255223E+02  0.00000000000E+00 0. -1.
<mgrwt>
<rscale>  0 0.13803529E+03</rscale>
<asrwt>0</asrwt>
<pdfrwt beam="1">  1        4 0.50815386E-01 0.14459852E+03</pdfrwt>
<pdfrwt beam="2">  1       -4 0.81857792E-02 0.14459852E+03</pdfrwt>
<totfact> 0.66879387E+02</totfact>
</mgrwt>
</event>
<event>
 7    1  0.5206756E-006  0.1362556E+03  0.7546771E-02  0.1232229E+00
         -2   -1    0    0    0  501 -0.00000000000E+00  0.00000000000E+00  0.22235353643E+02  0.22235353643E+02  0.00000000000E+00 0.  1.
          2   -1    0    0  501    0  0.00000000000E+00 -0.00000000000E+00 -0.65578098048E+03  0.65578098048E+03  0.00000000000E+00 0. -1.
         23    2    1    2    0    0 -0.52442914394E+02 -0.13805686980E+02 -0.41305330686E+03  0.43494669652E+03  0.12499895297E+03 0.  0.
          5    1    3    3  502    0 -0.58148770732E+02  0.46793704476E+02 -0.21029979158E+03  0.22320175325E+03  0.47000000000E+01 0.  1.
         -5    1    3    3    0  502  0.57058563379E+01 -0.60599391456E+02 -0.20275351527E+03  0.21174494326E+03  0.47000000000E+01 0.  1.
        -11    1    1    2    0    0 -0.41996881830E+01  0.35775588896E+02 -0.12327446735E+03  0.12842945317E+03  0.00000000000E+00 0. -1.
         11    1    1    2    0    0  0.56642602577E+02 -0.21969901916E+02 -0.97217852633E+02  0.11464018444E+03  0.00000000000E+00 0.  1.
<mgrwt>
<rscale>  0 0.12683477E+03</rscale>
<asrwt>0</asrwt>
<pdfrwt beam="2">  1        2 0.10088937E+00 0.13625562E+03</pdfrwt>
<pdfrwt beam="1">  1       -2 0.34208240E-02 0.13625562E+03</pdfrwt>
<totfact> 0.15005676E+04</totfact>
</mgrwt>
</event>
<event>
 7    1  0.5206756E-006  0.1408053E+03  0.7546771E-02  0.1223882E+00
         -1   -1    0    0    0  501 -0.00000000000E+00  0.00000000000E+00  0.30319587222E+03  0.30319587222E+03  0.00000000000E+00 0.  1.
          1   -1    0    0  501    0  0.00000000000E+00 -0.00000000000E+00 -0.57422141817E+02  0.57422141817E+02  0.00000000000E+00 0. -1.
         23    2    1    2    0    0  0.95440938702E+01 -0.64116473237E+02  0.81161277399E+02  0.16252165828E+03  0.12499649832E+03 0.  0.
          5    1    3    3  502    0  0.47368344362E+02 -0.46158564705E+02 -0.51191048890E+01  0.66503145625E+02  0.47000000000E+01 0.  1.
         -5    1    3    3    0  502 -0.37824250491E+02 -0.17957908533E+02  0.86280382288E+02  0.96018512652E+02  0.47000000000E+01 0.  1.
        -11    1    1    2    0    0 -0.26430045661E+02  0.41862374642E+02  0.16273387926E+03  0.17009797525E+03  0.00000000000E+00 0.  1.
         11    1    1    2    0    0  0.16885951791E+02  0.22254098595E+02  0.18785737464E+01  0.27998380516E+02  0.00000000000E+00 0. -1.
<mgrwt>
<rscale>  0 0.13243829E+03</rscale>
<asrwt>0</asrwt>
<pdfrwt beam="2">  1        1 0.88341758E-02 0.14080531E+03</pdfrwt>
<pdfrwt beam="1">  1       -1 0.46645518E-01 0.14080531E+03</pdfrwt>
<totfact> 0.34179578E+03</totfact>
</mgrwt>
</event>
<event>
 7    1  0.5206756E-006  0.1544557E+03  0.7546771E-02  0.1204016E+00
          3   -1    0    0  501    0  0.00000000000E+00  0.00000000000E+00  0.13440044449E+03  0.13440044449E+03  0.00000000000E+00 0. -1.
         -3   -1    0    0    0  501 -0.00000000000E+00 -0.00000000000E+00 -0.16056006709E+03  0.16056006709E+03  0.00000000000E+00 0.  1.
         23    2    1    2    0    0 -0.64631924295E+02 -0.63681381274E+02  0.27453933313E+02  0.15687661118E+03  0.12499579482E+03 0.  0.
          5    1    3    3  502    0 -0.17780239892E+02 -0.74495860193E+02 -0.29485482434E+02  0.82202516938E+02  0.47000000000E+01 0. -1.
         -5    1    3    3    0  502 -0.46851684403E+02  0.10814478920E+02  0.56939415747E+02  0.74674094245E+02  0.47000000000E+01 0. -1.
        -11    1    1    2    0    0  0.17665828055E+02  0.50676680761E+02 -0.68599729245E+02  0.87098394396E+02  0.00000000000E+00 0.  1.
         11    1    1    2    0    0  0.46966096240E+02  0.13004700513E+02  0.14986173328E+02  0.50985506004E+02  0.00000000000E+00 0. -1.
<mgrwt>
<rscale>  0 0.14715261E+03</rscale>
<asrwt>0</asrwt>
<pdfrwt beam="1">  1        3 0.20676992E-01 0.15445567E+03</pdfrwt>
<pdfrwt beam="2">  1       -3 0.24701549E-01 0.15445567E+03</pdfrwt>
<totfact> 0.76520077E+02</totfact>
</mgrwt>
</event>
<event>
 7    1  0.5206756E-006  0.1379833E+03  0.7546771E-02  0.1227422E+00
          2   -1    0    0  501    0  0.00000000000E+00  0.00000000000E+00  0.74734786322E+03  0.74734786322E+03  0.00000000000E+00 0. -1.
         -2   -1    0    0    0  501 -0.00000000000E+00 -0.00000000000E+00 -0.32730026357E+02  0.32730026357E+02  0.00000000000E+00 0.  1.
         23    2    1    2    0    0 -0.36762514322E+02  0.45364756317E+02  0.62224248178E+03  0.63735789447E+03  0.12501974220E+03 0.  0.
          5    1    3    3  502    0 -0.77743105181E+02  0.40357574121E+02  0.51366164645E+03  0.52109797661E+03  0.47000000000E+01 0.  1.
         -5    1    3    3    0  502  0.40980590858E+02  0.50071821961E+01  0.10858083533E+03  0.11625991787E+03  0.47000000000E+01 0.  1.
        -11    1    1    2    0    0  0.31335845268E+02 -0.60551383565E+02  0.23706981945E+02  0.72183282298E+02  0.00000000000E+00 0.  1.
         11    1    1    2    0    0  0.54266690543E+01  0.15186627248E+02  0.68668373138E+02  0.70536712807E+02  0.00000000000E+00 0. -1.
<mgrwt>
<rscale>  0 0.13002278E+03</rscale>
<asrwt>0</asrwt>
<pdfrwt beam="1">  1        2 0.11497658E+00 0.13798326E+03</pdfrwt>
<pdfrwt beam="2">  1       -2 0.50353892E-02 0.13798326E+03</pdfrwt>
<totfact> 0.72298227E+03</totfact>
</mgrwt>
</event>
<event>
 7    1  0.5206756E-006  0.1471354E+03  0.7546771E-02  0.1210913E+00
          2   -1    0    0  501    0  0.00000000000E+00  0.00000000000E+00  0.40409819220E+02  0.40409819220E+02  0.00000000000E+00 0. -1.
         -2   -1    0    0    0  501 -0.00000000000E+00 -0.00000000000E+00 -0.47810639651E+03  0.47810639651E+03  0.00000000000E+00 0.  1.
         23    2    1    2    0    0  0.87880286426E+02  0.11347540735E+02 -0.19137608444E+03  0.24139929039E+03  0.11746105858E+03 0.  0.
          5    1    3    3  502    0  0.11341768879E+02  0.51095857590E+02 -0.11361706999E+03  0.12518127247E+03  0.47000000000E+01 0. -1.
         -5    1    3    3    0  502  0.76538517546E+02 -0.39748316855E+02 -0.77759014458E+02  0.11621801793E+03  0.47000000000E+01 0.  1.
        -11    1    1    2    0    0 -0.10414230189E+03 -0.22620960046E+02 -0.21681389505E+03  0.24158971825E+03  0.00000000000E+00 0. -1.
         11    1    1    2    0    0  0.16262015469E+02  0.11273419312E+02 -0.29506597797E+02  0.35527207090E+02  0.00000000000E+00 0.  1.
<mgrwt>
<rscale>  0 0.14181051E+03</rscale>
<asrwt>0</asrwt>
<pdfrwt beam="1">  1        2 0.62168954E-02 0.14713535E+03</pdfrwt>
<pdfrwt beam="2">  1       -2 0.73554828E-01 0.14713535E+03</pdfrwt>
<totfact> 0.19545492E+03</totfact>
</mgrwt>
</event>
<event>
 7    1  0.5206756E-006  0.1394425E+03  0.7546771E-02  0.1222442E+00
          3   -1    0    0  501    0  0.00000000000E+00  0.00000000000E+00  0.28689223255E+03  0.28689223255E+03  0.00000000000E+00 0. -1.
         -3   -1    0    0    0  501 -0.00000000000E+00 -0.00000000000E+00 -0.57506314305E+02  0.57506314305E+02  0.00000000000E+00 0.  1.
         23    2    1    2    0    0  0.57433684309E+02  0.38575505799E+02  0.13559219965E+03  0.19449793184E+03  0.12106817561E+03 0.  0.
          5    1    3    3  502    0  0.94608546097E+02  0.32272088747E+02  0.10987110384E+03  0.14861364057E+03  0.47000000000E+01 0. -1.
         -5    1    3    3    0  502 -0.37174861788E+02  0.63034170525E+01  0.25721095814E+02  0.45884291271E+02  0.47000000000E+01 0.  1.
        -11    1    1    2    0    0  0.11727437496E+02  0.16847738004E+02 -0.44611859116E+00  0.20532366836E+02  0.00000000000E+00 0. -1.
         11    1    1    2    0    0 -0.69161121805E+02 -0.55423243803E+02  0.94239837187E+02  0.12936824818E+03  0.00000000000E+00 0.  1.
<mgrwt>
<rscale>  0 0.13343784E+03</rscale>
<asrwt>0</asrwt>
<pdfrwt beam="1">  1        3 0.44137266E-01 0.13944246E+03</pdfrwt>
<pdfrwt beam="2">  1       -3 0.88471254E-02 0.13944246E+03</pdfrwt>
<totfact> 0.10722282E+03</totfact>
</mgrwt>
</event>
<event>
 7    1  0.5206756E-006  0.1313403E+03  0.7546771E-02  0.1239046E+00
          1   -1    0    0  501    0  0.00000000000E+00  0.00000000000E+00  0.34040713304E+03  0.34040713304E+03  0.00000000000E+00 0. -1.
         -1   -1    0    0    0  501 -0.00000000000E+00 -0.00000000000E+00 -0.40743124546E+02  0.40743124546E+02  0.00000000000E+00 0.  1.
         23    2    1    2    0    0  0.12052718011E+00 -0.40305253266E+02  0.20783065047E+03  0.24585329287E+03  0.12500293745E+03 0.  0.
          5    1    3    3  502    0 -0.27118159300E+02  0.22100082305E+02  0.15655699750E+03  0.16048673362E+03  0.47000000000E+01 0.  1.
         -5    1    3    3    0  502  0.27238686480E+02 -0.62405335571E+02  0.51273652979E+02  0.85366559253E+02  0.47000000000E+01 0.  1.
        -11    1    1    2    0    0 -0.38305633964E+02  0.37266165826E+02  0.26715603443E+02  0.59747905203E+02  0.00000000000E+00 0.  1.
         11    1    1    2    0    0  0.38185106783E+02  0.30390874400E+01  0.65117754572E+02  0.75549059512E+02  0.00000000000E+00 0. -1.
<mgrwt>
<rscale>  0 0.12248940E+03</rscale>
<asrwt>0</asrwt>
<pdfrwt beam="1">  1        1 0.52370326E-01 0.13134025E+03</pdfrwt>
<pdfrwt beam="2">  1       -1 0.62681732E-02 0.13134025E+03</pdfrwt>
<totfact> 0.88314306E+03</totfact>
</mgrwt>
</event>
<event>
 7    1  0.5206756E-006  0.1434786E+03  0.7546771E-02  0.1218560E+00
          3   -1    0    0  501    0  0.00000000000E+00  0.00000000000E+00  0.11755067097E+04  0.11755067097E+04  0.00000000000E+00 0. -1.
         -3   -1    0    0    0  501 -0.00000000000E+00 -0.00000000000E+00 -0.14420406233E+02  0.14420406233E+02  0.00000000000E+00 0.  1.
         23    2    1    2    0    0  0.59041695305E+02  0.38398793055E+02  0.67626616248E+03  0.69131905674E+03  0.12500290637E+03 0.  0.
          5    1    3    3  502    0 -0.13814997760E+02  0.33673170852E+02  0.48737130090E+03  0.48875107318E+03  0.47000000000E+01 0. -1.
         -5    1    3    3    0  502  0.72856693066E+02  0.47256222029E+01  0.18889486158E+03  0.20256798355E+03  0.47000000000E+01 0. -1.
        -11    1    1    2    0    0 -0.46447888871E+02  0.23839507105E+02  0.19118518449E+03  0.19818552734E+03  0.00000000000E+00 0. -1.
         11    1    1    2    0    0 -0.12593806435E+02 -0.62238300160E+02  0.29363495650E+03  0.30042253186E+03  0.00000000000E+00 0.  1.
<mgrwt>
<rscale>  0 0.13618227E+03</rscale>
<asrwt>0</asrwt>
<pdfrwt beam="1">  1        3 0.18084711E+00 0.14347862E+03</pdfrwt>
<pdfrwt beam="2">  1       -3 0.22185250E-02 0.14347862E+03</pdfrwt>
<totfact> 0.40504759E+02</totfact>
</mgrwt>
</event>
<event>
 7    1  0.5206756E-006  0.1852869E+03  0.7546771E-02  0.1167953E+00
         -2   -1    0    0    0  501 -0.00000000000E+00  0.00000000000E+00  0.23598085625E+02  0.23598085625E+02  0.00000000000E+00 0.  1.
          2   -1    0    0  501    0  0.00000000000E+00 -0.00000000000E+00 -0.14166771045E+04  0.14166771045E+04  0.00000000000E+00 0. -1.
         23    2    1    2    0    0 -0.70681720152E+02  0.11709453999E+03 -0.94440805057E+03  0.96241249880E+03  0.12499685997E+03 0.  0.
          5    1    3    3  502    0 -0.72696925669E-01  0.11008007106E+03 -0.66676934749E+03  0.67581142347E+03  0.47000000000E+01 0.  1.
         -5    1    3    3    0  502 -0.70609023227E+02  0.70144689266E+01 -0.27763870308E+03  0.28660107534E+03  0.47000000000E+01 0.  1.
        -11    1    1    2    0    0  0.11148854729E+02 -0.68351209748E+02 -0.32432636555E+03  0.33163801987E+03  0.00000000000E+00 0. -1.
         11    1    1    2    0    0  0.59532865423E+02 -0.48743330241E+02 -0.12434460279E+03  0.14622467148E+03  0.00000000000E+00 0.  1.
<mgrwt>
<rscale>  0 0.17984515E+03</rscale>
<asrwt>0</asrwt>
<pdfrwt beam="2">  1        2 0.21795042E+00 0.18528694E+03</pdfrwt>
<pdfrwt beam="1">  1       -2 0.36304731E-02 0.18528694E+03</pdfrwt>
<totfact> 0.47796989E+03</totfact>
</mgrwt>
</event>
<event>
 6    1  0.5206756E-006  0.1635971E+03  0.7546771E-02  0.1207376E+00
          1   -1    0    0  501    0  0.00000000000E+00  0.00000000000E+00  0.80761135507E+03  0.80761135507E+03  0.00000000000E+00 0. -1.
         -1   -1    0    0    0  501 -0.00000000000E+00 -0.00000000000E+00 -0.11657437430E+03  0.11657437430E+03  0.00000000000E+00 0.  1.
          5    1    1    2  502    0 -0.73282289658E+02 -0.33229548028E+01  0.17080293057E+03  0.18594909814E+03  0.47000000000E+01 0.  1.
         -5    1    1    2    0  502  0.45012945674E+02 -0.16311324251E+02  0.60531680641E+03  0.60722545294E+03  0.47000000000E+01 0. -1.
        -11    1    1    2    0    0  0.27089905668E+02 -0.31438816814E+02 -0.62806473717E+02  0.75278916920E+02  0.00000000000E+00 0.  1.
         11    1    1    2    0    0  0.11794383159E+01  0.51073095868E+02 -0.22276282495E+02  0.55732261376E+02  0.00000000000E+00 0. -1.
<mgrwt>
<rscale>  0 0.14451811E+03</rscale>
<asrwt>0</asrwt>
<pdfrwt beam="1">  1        1 0.12424790E+00 0.16359713E+03</pdfrwt>
<pdfrwt beam="2">  1       -1 0.17934520E-01 0.16359713E+03</pdfrwt>
<totfact> 0.55422185E+02</totfact>
</mgrwt>
</event>
<event>
 7    1  0.5206756E-006  0.1487778E+03  0.7546771E-02  0.1212662E+00
         -3   -1    0    0    0  501 -0.00000000000E+00  0.00000000000E+00  0.17731085033E+02  0.17731085033E+02  0.00000000000E+00 0.  1.
          3   -1    0    0  501    0  0.00000000000E+00 -0.00000000000E+00 -0.10803037886E+04  0.10803037886E+04  0.00000000000E+00 0. -1.
         23    2    1    2    0    0  0.54091945737E+02  0.59880394655E+02 -0.73094794593E+03  0.74593548306E+03  0.12499297969E+03 0.  0.
          5    1    3    3  502    0  0.79230637116E+02  0.74262124903E+01 -0.27669391794E+03  0.28794835772E+03  0.47000000000E+01 0. -1.
         -5    1    3    3    0  502 -0.25138691379E+02  0.52454182165E+02 -0.45425402799E+03  0.45798712534E+03  0.47000000000E+01 0. -1.
        -11    1    1    2    0    0  0.22592123660E+02 -0.13756770235E+02 -0.49518490048E+02  0.56140303129E+02  0.00000000000E+00 0.  1.
         11    1    1    2    0    0 -0.76684069397E+02 -0.46123624420E+02 -0.28210626762E+03  0.29595908748E+03  0.00000000000E+00 0. -1.
<mgrwt>
<rscale>  0 0.14049660E+03</rscale>
<asrwt>0</asrwt>
<pdfrwt beam="2">  1        3 0.16620065E+00 0.14877784E+03</pdfrwt>
<pdfrwt beam="1">  1       -3 0.27278581E-02 0.14877784E+03</pdfrwt>
<totfact> 0.36915063E+02</totfact>
</mgrwt>
</event>
<event>
 7    1  0.5206756E-006  0.1539876E+03  0.7546771E-02  0.1203332E+00
         -2   -1    0    0    0  501 -0.00000000000E+00  0.00000000000E+00  0.17719618407E+03  0.17719618407E+03  0.00000000000E+00 0. -1.
          2   -1    0    0  501    0  0.00000000000E+00 -0.00000000000E+00 -0.11404432174E+03  0.11404432174E+03  0.00000000000E+00 0.  1.
         23    2    1    2    0    0  0.45790432855E+02 -0.77398218426E+02  0.34105316404E+02  0.15771921279E+03  0.12499971807E+03 0.  0.
          5    1    3    3  502    0  0.39521852918E+02  0.23228805793E+02 -0.10669398738E+02  0.47302012073E+02  0.47000000000E+01 0. -1.
         -5    1    3    3    0  502  0.62685799364E+01 -0.10062702422E+03  0.44774715141E+02  0.11041720071E+03  0.47000000000E+01 0. -1.
        -11    1    1    2    0    0  0.25074271680E+02  0.38955419061E+02  0.25364813708E+02  0.52816830167E+02  0.00000000000E+00 0. -1.
         11    1    1    2    0    0 -0.70864704534E+02  0.38442799366E+02  0.36817322200E+01  0.80704462850E+02  0.00000000000E+00 0.  1.
<mgrwt>
<rscale>  0 0.14769644E+03</rscale>
<asrwt>0</asrwt>
<pdfrwt beam="2">  1        2 0.17545280E-01 0.15398759E+03</pdfrwt>
<pdfrwt beam="1">  1       -2 0.27260951E-01 0.15398759E+03</pdfrwt>
<totfact> 0.38026817E+03</totfact>
</mgrwt>
</event>
<event>
 6    1  0.5206756E-006  0.1699048E+03  0.7546771E-02  0.1202399E+00
         -2   -1    0    0    0  501 -0.00000000000E+00  0.00000000000E+00  0.11532738031E+02  0.11532738031E+02  0.00000000000E+00 0.  1.
          2   -1    0    0  501    0  0.00000000000E+00 -0.00000000000E+00 -0.15954602915E+04  0.15954602915E+04  0.00000000000E+00 0. -1.
          5    1    1    2  502    0 -0.25468731754E+02 -0.17223115525E+02 -0.10176853546E+04  0.10181605291E+04  0.47000000000E+01 0. -1.
         -5    1    1    2    0  502  0.46282377310E+02 -0.77772679971E+01 -0.82201254336E+02  0.94771728703E+02  0.47000000000E+01 0.  1.
        -11    1    1    2    0    0 -0.57643607890E+02  0.23139613889E+02 -0.30622332743E+03  0.31245952302E+03  0.00000000000E+00 0.  1.
         11    1    1    2    0    0  0.36829962334E+02  0.18607696334E+01 -0.17781761707E+03  0.18160124870E+03  0.00000000000E+00 0. -1.
<mgrwt>
<rscale>  0 0.14844305E+03</rscale>
<asrwt>0</asrwt>
<pdfrwt beam="2">  1        2 0.24545530E+00 0.16990485E+03</pdfrwt>
<pdfrwt beam="1">  1       -2 0.17742683E-02 0.16990485E+03</pdfrwt>
<totfact> 0.11011631E+04</totfact>
</mgrwt>
</event>
<event>
 7    1  0.5206756E-006  0.1408101E+03  0.7546771E-02  0.1223404E+00
         -3   -1    0    0    0  501 -0.00000000000E+00  0.00000000000E+00  0.22066098281E+03  0.22066098281E+03  0.00000000000E+00 0.  1.
          3   -1    0    0  501    0  0.00000000000E+00 -0.00000000000E+00 -0.10291923976E+03  0.10291923976E+03  0.00000000000E+00 0. -1.
         23    2    1    2    0    0 -0.13804184420E+02  0.63283382227E+02 -0.24547449225E+02  0.14293377013E+03  0.12502857037E+03 0.  0.
          5    1    3    3  502    0 -0.71446392840E+01  0.52280938264E+02  0.46554802162E+02  0.70525045059E+02  0.47000000000E+01 0.  1.
         -5    1    3    3    0  502 -0.66595451361E+01  0.11002443962E+02 -0.71102251387E+02  0.72408725074E+02  0.47000000000E+01 0.  1.
        -11    1    1    2    0    0  0.26579793041E+02 -0.18575591966E+02  0.15934954866E+01  0.32466555759E+02  0.00000000000E+00 0. -1.
         11    1    1    2    0    0 -0.12775608621E+02 -0.44707790260E+02  0.14069569679E+03  0.14817989668E+03  0.00000000000E+00 0.  1.
<mgrwt>
<rscale>  0 0.13276873E+03</rscale>
<asrwt>0</asrwt>
<pdfrwt beam="2">  1        3 0.15833729E-01 0.14081010E+03</pdfrwt>
<pdfrwt beam="1">  1       -3 0.33947843E-01 0.14081010E+03</pdfrwt>
<totfact> 0.66912647E+02</totfact>
</mgrwt>
</event>
<event>
 7    1  0.5206756E-006  0.1385966E+03  0.7546771E-02  0.1227266E+00
          1   -1    0    0  501    0  0.00000000000E+00  0.00000000000E+00  0.25362400130E+02  0.25362400130E+02  0.00000000000E+00 0. -1.
         -1   -1    0    0    0  501 -0.00000000000E+00 -0.00000000000E+00 -0.61290959171E+03  0.61290959171E+03  0.00000000000E+00 0.  1.
         23    2    1    2    0    0  0.10168772086E+02  0.58995185626E+02 -0.28027316423E+03  0.31266925941E+03  0.12500073336E+03 0.  0.
          5    1    3    3  502    0 -0.13090363644E+02  0.36591312920E+02 -0.27713299290E+03  0.27988402519E+03  0.47000000000E+01 0.  1.
         -5    1    3    3    0  502  0.23259135730E+02  0.22403872706E+02 -0.31401713298E+01  0.32785234224E+02  0.47000000000E+01 0.  1.
        -11    1    1    2    0    0 -0.42151665709E+02 -0.59492740129E+02 -0.17636008578E+03  0.19083770305E+03  0.00000000000E+00 0.  1.
         11    1    1    2    0    0  0.31982893623E+02  0.49755450243E+00 -0.13091394157E+03  0.13476502938E+03  0.00000000000E+00 0. -1.
<mgrwt>
<rscale>  0 0.13012802E+03</rscale>
<asrwt>0</asrwt>
<pdfrwt beam="1">  1        1 0.39019081E-02 0.13859661E+03</pdfrwt>
<pdfrwt beam="2">  1       -1 0.94293775E-01 0.13859661E+03</pdfrwt>
<totfact> 0.26142017E+03</totfact>
</mgrwt>
</event>
<event>
 7    1  0.5206756E-006  0.1254782E+03  0.7546771E-02  0.1250713E+00
         -1   -1    0    0    0  501 -0.00000000000E+00  0.00000000000E+00  0.96601255198E+01  0.96601255198E+01  0.00000000000E+00 0.  1.
          1   -1    0    0  501    0  0.00000000000E+00 -0.00000000000E+00 -0.14777510244E+04  0.14777510244E+04  0.00000000000E+00 0. -1.
         23    2    1    2    0    0 -0.34240658427E+01 -0.10391956580E+02 -0.11496082418E+04  0.11564358584E+04  0.12500027193E+03 0.  0.
          5    1    3    3  502    0  0.48042526140E+02 -0.42664019641E+02 -0.61662146522E+03  0.61997776111E+03  0.47000000000E+01 0.  1.
         -5    1    3    3    0  502 -0.51466591983E+02  0.32272063061E+02 -0.53298677660E+03  0.53645809731E+03  0.47000000000E+01 0.  1.
        -11    1    1    2    0    0  0.46749326114E+01 -0.39681546968E+02 -0.14554377388E+03  0.15092869269E+03  0.00000000000E+00 0.  1.
         11    1    1    2    0    0 -0.12508667687E+01  0.50073503548E+02 -0.17293888318E+03  0.18004659880E+03  0.00000000000E+00 0. -1.
<mgrwt>
<rscale>  0 0.11549865E+03</rscale>
<asrwt>0</asrwt>
<pdfrwt beam="2">  1        1 0.22734626E+00 0.12547823E+03</pdfrwt>
<pdfrwt beam="1">  1       -1 0.14861735E-02 0.12547823E+03</pdfrwt>
<totfact> 0.76250795E+03</totfact>
</mgrwt>
</event>
<event>
 7    1  0.5206756E-006  0.2073609E+03  0.7546771E-02  0.1147581E+00
         -1   -1    0    0    0  501 -0.00000000000E+00  0.00000000000E+00  0.15574747781E+03  0.15574747781E+03  0.00000000000E+00 0.  1.
          1   -1    0    0  501    0  0.00000000000E+00 -0.00000000000E+00 -0.25250230499E+03  0.25250230499E+03  0.00000000000E+00 0. -1.
         23    2    1    2    0    0  0.16180446381E+03  0.34537204252E+02 -0.59484526476E+02  0.21572425083E+03  0.12500016208E+03 0.  0.
          5    1    3    3  502    0  0.30107799872E+02  0.25346681296E+02 -0.72864963534E+02  0.82947735211E+02  0.47000000000E+01 0.  1.
         -5    1    3    3    0  502  0.13169666394E+03  0.91905229554E+01  0.13380437058E+02  0.13277651562E+03  0.47000000000E+01 0.  1.
        -11    1    1    2    0    0 -0.11341659243E+03  0.50254404559E+01  0.10278534802E+02  0.11399222240E+03  0.00000000000E+00 0.  1.
         11    1    1    2    0    0 -0.48387871377E+02 -0.39562644707E+02 -0.47548835506E+02  0.78533309561E+02  0.00000000000E+00 0. -1.
<mgrwt>
<rscale>  0 0.20257866E+03</rscale>
<asrwt>0</asrwt>
<pdfrwt beam="2">  1        1 0.38846508E-01 0.20736090E+03</pdfrwt>
<pdfrwt beam="1">  1       -1 0.23961151E-01 0.20736090E+03</pdfrwt>
<totfact> 0.16186779E+03</totfact>
</mgrwt>
</event>
<event>
 7    1  0.5206756E-006  0.1264066E+03  0.7546771E-02  0.1249507E+00
          3   -1    0    0  501    0  0.00000000000E+00  0.00000000000E+00  0.13756507945E+03  0.13756507945E+03  0.00000000000E+00 0. -1.
         -3   -1    0    0    0  501 -0.00000000000E+00 -0.00000000000E+00 -0.91995246496E+02  0.91995246496E+02  0.00000000000E+00 0.  1.
         23    2    1    2    0    0  0.88775057812E+01  0.16486734535E+02  0.56855685628E+02  0.13860450953E+03  0.12501207362E+03 0.  0.
          5    1    3    3  502    0  0.39859197767E+02 -0.13233793209E+02 -0.22781456910E+02  0.48010141723E+02  0.47000000000E+01 0. -1.
         -5    1    3    3    0  502 -0.30981691985E+02  0.29720527744E+02  0.79637142538E+02  0.90594367812E+02  0.47000000000E+01 0. -1.
        -11    1    1    2    0    0 -0.68582235583E+01  0.21052976820E+02  0.28584173172E+02  0.36156853006E+02  0.00000000000E+00 0.  1.
         11    1    1    2    0    0 -0.20192822229E+01 -0.37539711355E+02 -0.39870025846E+02  0.54798963405E+02  0.00000000000E+00 0. -1.
<mgrwt>
<rscale>  0 0.11619642E+03</rscale>
<asrwt>0</asrwt>
<pdfrwt beam="1">  1        3 0.21163858E-01 0.12640665E+03</pdfrwt>
<pdfrwt beam="2">  1       -3 0.14153115E-01 0.12640665E+03</pdfrwt>
<totfact> 0.18852432E+03</totfact>
</mgrwt>
</event>
<event>
 7    1  0.5206756E-006  0.1338691E+03  0.7546771E-02  0.1238149E+00
          1   -1    0    0  501    0  0.00000000000E+00  0.00000000000E+00  0.93491630541E+03  0.93491630541E+03  0.00000000000E+00 0. -1.
         -1   -1    0    0    0  501 -0.00000000000E+00 -0.00000000000E+00 -0.19494801311E+02  0.19494801311E+02  0.00000000000E+00 0.  1.
         23    2    1    2    0    0  0.37727380757E+02  0.29533947605E+02  0.76194297175E+03  0.77361361725E+03  0.12500130914E+03 0.  0.
          5    1    3    3  502    0  0.34760852956E+02  0.32594183036E+02  0.76505139013E+03  0.76654837891E+03  0.47000000000E+01 0.  1.
         -5    1    3    3    0  502  0.29665278012E+01 -0.30602354308E+01 -0.31084183810E+01  0.70652383483E+01  0.47000000000E+01 0.  1.
        -11    1    1    2    0    0 -0.62979841905E+02 -0.10393858191E+02  0.99967132984E+02  0.11860826469E+03  0.00000000000E+00 0.  1.
         11    1    1    2    0    0  0.25252461148E+02 -0.19140089413E+02  0.53511399370E+02  0.62189224785E+02  0.00000000000E+00 0. -1.
<mgrwt>
<rscale>  0 0.12304995E+03</rscale>
<asrwt>0</asrwt>
<pdfrwt beam="1">  1        1 0.14383324E+00 0.13386910E+03</pdfrwt>
<pdfrwt beam="2">  1       -1 0.29992009E-02 0.13386910E+03</pdfrwt>
<totfact> 0.65611301E+03</totfact>
</mgrwt>
</event>
<event>
 7    1  0.5206756E-006  0.1390998E+03  0.7546771E-02  0.1226177E+00
         -2   -1    0    0    0  501 -0.00000000000E+00  0.00000000000E+00  0.15225298802E+02  0.15225298802E+02  0.00000000000E+00 0.  1.
          2   -1    0    0  501    0  0.00000000000E+00 -0.00000000000E+00 -0.12103269485E+04  0.12103269485E+04  0.00000000000E+00 0. -1.
         23    2    1    2    0    0  0.60752280133E+02  0.57728283291E+01 -0.90558088911E+03  0.91620166316E+03  0.12499830307E+03 0.  0.
          5    1    3    3  502    0  0.14150977026E+02  0.41129643083E+02 -0.72512120743E+03  0.72643977944E+03  0.47000000000E+01 0. -1.
         -5    1    3    3    0  502  0.46601303107E+02 -0.35356814754E+02 -0.18045968168E+03  0.18976188372E+03  0.47000000000E+01 0. -1.
        -11    1    1    2    0    0 -0.59133419332E+02  0.33547399104E+02 -0.15647367575E+03  0.17060539403E+03  0.00000000000E+00 0.  1.
         11    1    1    2    0    0 -0.16188608014E+01 -0.39320227433E+02 -0.13304708487E+03  0.13874519015E+03  0.00000000000E+00 0. -1.
<mgrwt>
<rscale>  0 0.13086584E+03</rscale>
<asrwt>0</asrwt>
<pdfrwt beam="2">  1        2 0.18620420E+00 0.13909975E+03</pdfrwt>
<pdfrwt beam="1">  1       -2 0.23423530E-02 0.13909975E+03</pdfrwt>
<totfact> 0.11678833E+04</totfact>
</mgrwt>
</event>
<event>
 7    1  0.5206756E-006  0.2109325E+03  0.7546771E-02  0.1144444E+00
          1   -1    0    0  501    0  0.00000000000E+00  0.00000000000E+00  0.52831285685E+03  0.52831285685E+03  0.00000000000E+00 0. -1.
         -1   -1    0    0    0  501 -0.00000000000E+00 -0.00000000000E+00 -0.77947269755E+02  0.77947269755E+02  0.00000000000E+00 0.  1.
         23    2    1    2    0    0  0.69701360236E+02 -0.15496627037E+03  0.20864824303E+03  0.29669278182E+03  0.12497876977E+03 0.  0.
          5    1    3    3  502    0  0.10452531719E+03 -0.11526013483E+03  0.13570609736E+03  0.20651555747E+03  0.47000000000E+01 0. -1.
         -5    1    3    3    0  502 -0.34823956954E+02 -0.39706135541E+02  0.72942145662E+02  0.90177224349E+02  0.47000000000E+01 0. -1.
        -11    1    1    2    0    0 -0.81864063492E+02  0.90811483745E+02  0.11930275927E+03  0.17082622410E+03  0.00000000000E+00 0.  1.
         11    1    1    2    0    0  0.12162703256E+02  0.64154786626E+02  0.12241458480E+03  0.13874112068E+03  0.00000000000E+00 0. -1.
<mgrwt>
<rscale>  0 0.20640649E+03</rscale>
<asrwt>0</asrwt>
<pdfrwt beam="1">  1        1 0.81278899E-01 0.21093250E+03</pdfrwt>
<pdfrwt beam="2">  1       -1 0.11991888E-01 0.21093250E+03</pdfrwt>
<totfact> 0.19108721E+03</totfact>
</mgrwt>
</event>
<event>
 7    1  0.5206756E-006  0.1285702E+03  0.7546771E-02  0.1243262E+00
          2   -1    0    0  501    0  0.00000000000E+00  0.00000000000E+00  0.44065429256E+03  0.44065429256E+03  0.00000000000E+00 0. -1.
         -2   -1    0    0    0  501 -0.00000000000E+00 -0.00000000000E+00 -0.32696224113E+02  0.32696224113E+02  0.00000000000E+00 0.  1.
         23    2    1    2    0    0 -0.30077331639E+02  0.11544290573E+01  0.30866008223E+03  0.33436708735E+03  0.12499729660E+03 0.  0.
          5    1    3    3  502    0  0.12573109573E+02 -0.18563390129E+02  0.27600424026E+03  0.27695326895E+03  0.47000000000E+01 0.  1.
         -5    1    3    3    0  502 -0.42650441213E+02  0.19717819186E+02  0.32655841966E+02  0.57413818403E+02  0.47000000000E+01 0.  1.
        -11    1    1    2    0    0  0.19647482604E+02  0.17241008903E+02 -0.97539759837E+01  0.27900107673E+02  0.00000000000E+00 0.  1.
         11    1    1    2    0    0  0.10429849035E+02 -0.18395437961E+02  0.10905196220E+03  0.11108332165E+03  0.00000000000E+00 0. -1.
<mgrwt>
<rscale>  0 0.11990036E+03</rscale>
<asrwt>0</asrwt>
<pdfrwt beam="1">  1        2 0.67792964E-01 0.12857022E+03</pdfrwt>
<pdfrwt beam="2">  1       -2 0.50301886E-02 0.12857022E+03</pdfrwt>
<totfact> 0.13107889E+04</totfact>
</mgrwt>
</event>
<event>
 7    1  0.5206756E-006  0.1311524E+03  0.7546771E-02  0.1239758E+00
         -2   -1    0    0    0  501 -0.00000000000E+00  0.00000000000E+00  0.95804931355E+02  0.95804931355E+02  0.00000000000E+00 0.  1.
          2   -1    0    0  501    0  0.00000000000E+00 -0.00000000000E+00 -0.16108107172E+03  0.16108107172E+03  0.00000000000E+00 0. -1.
         23    2    1    2    0    0  0.38114092559E+02  0.11086661371E+02 -0.85389561236E+02  0.15650027613E+03  0.12500144459E+03 0.  0.
          5    1    3    3  502    0 -0.30639800703E+01 -0.27482140738E+02  0.21635194116E+02  0.35423546658E+02  0.47000000000E+01 0.  1.
         -5    1    3    3    0  502  0.41178072629E+02  0.38568802109E+02 -0.10702475535E+03  0.12107672947E+03  0.47000000000E+01 0.  1.
        -11    1    1    2    0    0 -0.13745678765E+02  0.20691007105E+02  0.46296808829E+02  0.52540041563E+02  0.00000000000E+00 0.  1.
         11    1    1    2    0    0 -0.24368413793E+02 -0.31777668476E+02 -0.26183387954E+02  0.47845685378E+02  0.00000000000E+00 0. -1.
<mgrwt>
<rscale>  0 0.12204668E+03</rscale>
<asrwt>0</asrwt>
<pdfrwt beam="2">  1        2 0.24781703E-01 0.13115243E+03</pdfrwt>
<pdfrwt beam="1">  1       -2 0.14739220E-01 0.13115243E+03</pdfrwt>
<totfact> 0.72402525E+03</totfact>
</mgrwt>
</event>
<event>
 7    1  0.5206756E-006  0.1737490E+03  0.7546771E-02  0.1180272E+00
         -1   -1    0    0    0  501 -0.00000000000E+00  0.00000000000E+00  0.18166159735E+03  0.18166159735E+03  0.00000000000E+00 0.  1.
          1   -1    0    0  501    0  0.00000000000E+00 -0.00000000000E+00 -0.23123786254E+03  0.23123786254E+03  0.00000000000E+00 0. -1.
         23    2    1    2    0    0 -0.86657338549E+02  0.83989904185E+02 -0.15181524203E+03  0.23073052952E+03  0.12499964484E+03 0.  0.
          5    1    3    3  502    0 -0.10444569249E+03  0.39064882528E+02 -0.14298325429E+03  0.18138706881E+03  0.47000000000E+01 0. -1.
         -5    1    3    3    0  502  0.17788353938E+02  0.44925021657E+02 -0.88319877386E+01  0.49343460703E+02  0.47000000000E+01 0. -1.
        -11    1    1    2    0    0 -0.13911787936E+02 -0.28575676276E+02  0.41489564718E+02  0.52263669013E+02  0.00000000000E+00 0.  1.
         11    1    1    2    0    0  0.10056912648E+03 -0.55414227909E+02  0.60749412124E+02  0.12990526136E+03  0.00000000000E+00 0. -1.
<mgrwt>
<rscale>  0 0.16769616E+03</rscale>
<asrwt>0</asrwt>
<pdfrwt beam="2">  1        1 0.35575056E-01 0.17374898E+03</pdfrwt>
<pdfrwt beam="1">  1       -1 0.27947938E-01 0.17374898E+03</pdfrwt>
<totfact> 0.13931276E+03</totfact>
</mgrwt>
</event>
<event>
 7    1  0.5206756E-006  0.1396426E+03  0.7546771E-02  0.1226890E+00
          1   -1    0    0  501    0  0.00000000000E+00  0.00000000000E+00  0.42765508675E+02  0.42765508675E+02  0.00000000000E+00 0. -1.
         -1   -1    0    0    0  501 -0.00000000000E+00 -0.00000000000E+00 -0.35727622375E+03  0.35727622375E+03  0.00000000000E+00 0.  1.
         23    2    1    2    0    0  0.48474191009E+02 -0.39327109480E+02 -0.15701516684E+03  0.21012810052E+03  0.12491472001E+03 0.  0.
          5    1    3    3  502    0  0.10733137892E+02  0.42165431007E+02 -0.82290765914E+02  0.93203991200E+02  0.47000000000E+01 0.  1.
         -5    1    3    3    0  502  0.37741053117E+02 -0.81492540487E+02 -0.74724400930E+02  0.11692410932E+03  0.47000000000E+01 0.  1.
        -11    1    1    2    0    0 -0.90619343864E+01  0.45461171047E+02 -0.13788135137E+03  0.14546512910E+03  0.00000000000E+00 0.  1.
         11    1    1    2    0    0 -0.39412256622E+02 -0.61340615661E+01 -0.19614196858E+02  0.44448502807E+02  0.00000000000E+00 0. -1.
<mgrwt>
<rscale>  0 0.13038182E+03</rscale>
<asrwt>0</asrwt>
<pdfrwt beam="1">  1        1 0.65793090E-02 0.13964260E+03</pdfrwt>
<pdfrwt beam="2">  1       -1 0.54965573E-01 0.13964260E+03</pdfrwt>
<totfact> 0.37596660E+03</totfact>
</mgrwt>
</event>
<event>
 6    1  0.5206756E-006  0.1805830E+03  0.7546771E-02  0.1181017E+00
          1   -1    0    0  501    0  0.00000000000E+00  0.00000000000E+00  0.16941741909E+03  0.16941741909E+03  0.00000000000E+00 0. -1.
         -1   -1    0    0    0  501 -0.00000000000E+00 -0.00000000000E+00 -0.15872383961E+03  0.15872383961E+03  0.00000000000E+00 0.  1.
          5    1    1    2  502    0 -0.10551195408E+01 -0.86277220129E+02  0.57586285288E+02  0.10384190986E+03  0.47000000000E+01 0. -1.
         -5    1    1    2    0  502  0.61098272730E+02  0.58799663419E+02 -0.24782354169E+01  0.84962527032E+02  0.47000000000E+01 0.  1.
        -11    1    1    2    0    0 -0.76632650505E+00  0.45768210897E+02 -0.59910410698E+02  0.75396111936E+02  0.00000000000E+00 0.  1.
         11    1    1    2    0    0 -0.59276826684E+02 -0.18290654187E+02  0.15495940315E+02  0.63940709869E+02  0.00000000000E+00 0. -1.
<mgrwt>
<rscale>  0 0.16699655E+03</rscale>
<asrwt>0</asrwt>
<pdfrwt beam="1">  1        1 0.26064218E-01 0.18058300E+03</pdfrwt>
<pdfrwt beam="2">  1       -1 0.24419052E-01 0.18058300E+03</pdfrwt>
<totfact> 0.25781332E+03</totfact>
</mgrwt>
</event>
<event>
 7    1  0.5206756E-006  0.1742761E+03  0.7546771E-02  0.1179741E+00
          1   -1    0    0  501    0  0.00000000000E+00  0.00000000000E+00  0.14192795277E+04  0.14192795277E+04  0.00000000000E+00 0. -1.
         -1   -1    0    0    0  501 -0.00000000000E+00 -0.00000000000E+00 -0.18671734342E+02  0.18671734342E+02  0.00000000000E+00 0.  1.
         23    2    1    2    0    0 -0.16076149831E+02 -0.12036870467E+03  0.73227789824E+03  0.75273041528E+03  0.12500036073E+03 0.  0.
          5    1    3    3  502    0 -0.45721338311E+02 -0.98769702537E+02  0.68014411151E+03  0.68881347065E+03  0.47000000000E+01 0.  1.
         -5    1    3    3    0  502  0.29645188480E+02 -0.21599002134E+02  0.52133786723E+02  0.63916944633E+02  0.47000000000E+01 0.  1.
        -11    1    1    2    0    0 -0.98069675656E+01  0.49909838049E+01  0.62302070173E+01  0.12645236718E+02  0.00000000000E+00 0.  1.
         11    1    1    2    0    0  0.25883117397E+02  0.11537772087E+03  0.66209968807E+03  0.67257561001E+03  0.00000000000E+00 0. -1.
<mgrwt>
<rscale>  0 0.16819747E+03</rscale>
<asrwt>0</asrwt>
<pdfrwt beam="1">  1        1 0.21835061E+00 0.17427610E+03</pdfrwt>
<pdfrwt beam="2">  1       -1 0.28725756E-02 0.17427610E+03</pdfrwt>
<totfact> 0.32401002E+03</totfact>
</mgrwt>
</event>
<event>
 7    1  0.5206756E-006  0.1389838E+03  0.7546771E-02  0.1225774E+00
         -1   -1    0    0    0  501 -0.00000000000E+00  0.00000000000E+00  0.83079931200E+02  0.83079931200E+02  0.00000000000E+00 0. -1.
          1   -1    0    0  501    0  0.00000000000E+00 -0.00000000000E+00 -0.20471774795E+03  0.20471774795E+03  0.00000000000E+00 0.  1.
         23    2    1    2    0    0 -0.34136800622E+02 -0.50266906162E+02 -0.10955506656E+03  0.17697124458E+03  0.12499770313E+03 0.  0.
          5    1    3    3  502    0  0.80949778474E+01  0.34411216841E+02 -0.60635982303E+02  0.70345382653E+02  0.47000000000E+01 0. -1.
         -5    1    3    3    0  502 -0.42231778470E+02 -0.84678123003E+02 -0.48919084258E+02  0.10662586193E+03  0.47000000000E+01 0. -1.
        -11    1    1    2    0    0 -0.17066356031E+02  0.52647002282E+02 -0.20228000953E+02  0.58924862155E+02  0.00000000000E+00 0.  1.
         11    1    1    2    0    0  0.51203156653E+02 -0.23800961198E+01  0.81452507624E+01  0.51901572411E+02  0.00000000000E+00 0. -1.
<mgrwt>
<rscale>  0 0.13113993E+03</rscale>
<asrwt>0</asrwt>
<pdfrwt beam="2">  1        1 0.31495037E-01 0.13898384E+03</pdfrwt>
<pdfrwt beam="1">  1       -1 0.12781528E-01 0.13898384E+03</pdfrwt>
<totfact> 0.56408384E+03</totfact>
</mgrwt>
</event>
<event>
 7    1  0.5206756E-006  0.1391299E+03  0.7546771E-02  0.1226090E+00
          3   -1    0    0  501    0  0.00000000000E+00  0.00000000000E+00  0.12331021637E+03  0.12331021637E+03  0.00000000000E+00 0. -1.
         -3   -1    0    0    0  501 -0.00000000000E+00 -0.00000000000E+00 -0.13216484575E+03  0.13216484575E+03  0.00000000000E+00 0.  1.
         23    2    1    2    0    0  0.53019394845E+02  0.30356114726E+02  0.24755605952E+02  0.14131513568E+03  0.12499831045E+03 0.  0.
          5    1    3    3  502    0  0.29341895377E+02  0.23470973397E+02 -0.49848991961E+02  0.62600682233E+02  0.47000000000E+01 0. -1.
         -5    1    3    3    0  502  0.23677499468E+02  0.68851413298E+01  0.74604597913E+02  0.78714453450E+02  0.47000000000E+01 0. -1.
        -11    1    1    2    0    0 -0.48169124034E+01  0.30132863188E+02 -0.19267671247E+01  0.30576208408E+02  0.00000000000E+00 0.  1.
         11    1    1    2    0    0 -0.48202482442E+02 -0.60488977915E+02 -0.31683468201E+02  0.83583718031E+02  0.00000000000E+00 0. -1.
<mgrwt>
<rscale>  0 0.13092473E+03</rscale>
<asrwt>0</asrwt>
<pdfrwt beam="1">  1        3 0.18970803E-01 0.13912989E+03</pdfrwt>
<pdfrwt beam="2">  1       -3 0.20333053E-01 0.13912989E+03</pdfrwt>
<totfact> 0.12409467E+03</totfact>
</mgrwt>
</event>
<event>
 7    1  0.5206756E-006  0.1327232E+03  0.7546771E-02  0.1236407E+00
          2   -1    0    0  501    0  0.00000000000E+00  0.00000000000E+00  0.60658531080E+03  0.60658531080E+03  0.00000000000E+00 0. -1.
         -2   -1    0    0    0  501 -0.00000000000E+00 -0.00000000000E+00 -0.24360536992E+02  0.24360536992E+02  0.00000000000E+00 0.  1.
         23    2    1    2    0    0 -0.42761174858E+02 -0.12773588115E+02  0.41039395213E+03  0.43132198285E+03  0.12499509719E+03 0.  0.
          5    1    3    3  502    0 -0.33916540877E+02 -0.67371752830E+02  0.26924706959E+03  0.27965221134E+03  0.47000000000E+01 0. -1.
         -5    1    3    3    0  502 -0.88446339810E+01  0.54598164716E+02  0.14114688254E+03  0.15166977151E+03  0.47000000000E+01 0. -1.
        -11    1    1    2    0    0  0.24067540643E+01  0.47368703554E+02  0.95229864824E+02  0.10638756363E+03  0.00000000000E+00 0.  1.
         11    1    1    2    0    0  0.40354420794E+02 -0.34595115439E+02  0.76600956857E+02  0.93236301307E+02  0.00000000000E+00 0. -1.
<mgrwt>
<rscale>  0 0.12414821E+03</rscale>
<asrwt>0</asrwt>
<pdfrwt beam="1">  1        2 0.93320806E-01 0.13272323E+03</pdfrwt>
<pdfrwt beam="2">  1       -2 0.37477754E-02 0.13272323E+03</pdfrwt>
<totfact> 0.14315138E+04</totfact>
</mgrwt>
</event>
<event>
 7    1  0.5206756E-006  0.1680353E+03  0.7546771E-02  0.1186503E+00
          2   -1    0    0  501    0  0.00000000000E+00  0.00000000000E+00  0.88660014389E+03  0.88660014389E+03  0.00000000000E+00 0.  1.
         -2   -1    0    0    0  501 -0.00000000000E+00 -0.00000000000E+00 -0.46740284331E+02  0.46740284331E+02  0.00000000000E+00 0. -1.
         23    2    1    2    0    0 -0.32059605978E+02 -0.10761532436E+03  0.73607858457E+03  0.75501493060E+03  0.12500794533E+03 0.  0.
          5    1    3    3  502    0 -0.72606256710E+02 -0.27851243373E+02  0.37231082745E+03  0.38037455555E+03  0.47000000000E+01 0.  1.
         -5    1    3    3    0  502  0.40546650731E+02 -0.79764080987E+02  0.36376775711E+03  0.37464037505E+03  0.47000000000E+01 0.  1.
        -11    1    1    2    0    0  0.39142896649E+02  0.46267045244E+02  0.99395361573E+02  0.11641410454E+03  0.00000000000E+00 0.  1.
         11    1    1    2    0    0 -0.70832906714E+01  0.61348279115E+02  0.43859134217E+01  0.61911393084E+02  0.00000000000E+00 0. -1.
<mgrwt>
<rscale>  0 0.16195853E+03</rscale>
<asrwt>0</asrwt>
<pdfrwt beam="1">  1        2 0.13640001E+00 0.16803530E+03</pdfrwt>
<pdfrwt beam="2">  1       -2 0.71908136E-02 0.16803530E+03</pdfrwt>
<totfact> 0.34175280E+03</totfact>
</mgrwt>
</event>
<event>
 7    1  0.5206756E-006  0.1432976E+03  0.7546771E-02  0.1219260E+00
         -1   -1    0    0    0  501 -0.00000000000E+00  0.00000000000E+00  0.41324003314E+02  0.41324003314E+02  0.00000000000E+00 0.  1.
          1   -1    0    0  501    0  0.00000000000E+00 -0.00000000000E+00 -0.45307162823E+03  0.45307162823E+03  0.00000000000E+00 0. -1.
         23    2    1    2    0    0  0.58572096296E+02  0.38464844335E+02 -0.30662075872E+03  0.33845310069E+03  0.12499590783E+03 0.  0.
          5    1    3    3  502    0  0.59512872568E+02  0.36492189072E+02 -0.31818142816E+03  0.32578362925E+03  0.47000000000E+01 0. -1.
         -5    1    3    3    0  502 -0.94077627158E+00  0.19726552633E+01  0.11560669435E+02  0.12669471440E+02  0.47000000000E+01 0. -1.
        -11    1    1    2    0    0 -0.24354040062E+02 -0.66472975887E+02 -0.60590688526E+02  0.93182655718E+02  0.00000000000E+00 0.  1.
         11    1    1    2    0    0 -0.34218056234E+02  0.28008131552E+02 -0.44536177666E+02  0.62759875132E+02  0.00000000000E+00 0. -1.
<mgrwt>
<rscale>  0 0.13568238E+03</rscale>
<asrwt>0</asrwt>
<pdfrwt beam="2">  1        1 0.69703326E-01 0.14329763E+03</pdfrwt>
<pdfrwt beam="1">  1       -1 0.63575391E-02 0.14329763E+03</pdfrwt>
<totfact> 0.60635942E+03</totfact>
</mgrwt>
</event>
<event>
 7    1  0.5206756E-006  0.1298654E+03  0.7546771E-02  0.1240922E+00
          2   -1    0    0  501    0  0.00000000000E+00  0.00000000000E+00  0.26208576004E+03  0.26208576004E+03  0.00000000000E+00 0. -1.
         -2   -1    0    0    0  501 -0.00000000000E+00 -0.00000000000E+00 -0.51566367326E+02  0.51566367326E+02  0.00000000000E+00 0.  1.
         23    2    1    2    0    0  0.67307440776E+01 -0.34577037494E+02  0.14666384736E+03  0.19589615877E+03  0.12499658579E+03 0.  0.
          5    1    3    3  502    0 -0.91101112556E+01  0.34507922641E+02  0.11044151069E+03  0.11616026918E+03  0.47000000000E+01 0. -1.
         -5    1    3    3    0  502  0.15840855333E+02 -0.69084960134E+02  0.36222336670E+02  0.79735889587E+02  0.47000000000E+01 0. -1.
        -11    1    1    2    0    0  0.18136173876E+02 -0.20306811701E+02  0.48429627682E+02  0.55558223890E+02  0.00000000000E+00 0. -1.
         11    1    1    2    0    0 -0.24866917954E+02  0.54883849195E+02  0.15425917671E+02  0.62197744710E+02  0.00000000000E+00 0.  1.
<mgrwt>
<rscale>  0 0.12132828E+03</rscale>
<asrwt>0</asrwt>
<pdfrwt beam="1">  1        2 0.40320885E-01 0.12986540E+03</pdfrwt>
<pdfrwt beam="2">  1       -2 0.79332874E-02 0.12986540E+03</pdfrwt>
<totfact> 0.11399923E+04</totfact>
</mgrwt>
</event>
<event>
 6    1  0.5206756E-006  0.1537593E+03  0.7546771E-02  0.1218242E+00
          2   -1    0    0  501    0  0.00000000000E+00  0.00000000000E+00  0.91881669131E+02  0.91881669131E+02  0.00000000000E+00 0. -1.
         -2   -1    0    0    0  501 -0.00000000000E+00 -0.00000000000E+00 -0.17506388650E+03  0.17506388650E+03  0.00000000000E+00 0.  1.
          5    1    1    2  502    0 -0.69173309395E+02 -0.19554177167E+02  0.30393024759E+02  0.78186562345E+02  0.47000000000E+01 0. -1.
         -5    1    1    2    0  502  0.45010645786E+02  0.28182888806E+02 -0.56662249462E+02  0.77800603916E+02  0.47000000000E+01 0.  1.
        -11    1    1    2    0    0  0.34494483112E+02  0.17508162874E+02 -0.69983348947E+02  0.79962955562E+02  0.00000000000E+00 0.  1.
         11    1    1    2    0    0 -0.10331819503E+02 -0.26136874513E+02  0.13070356283E+02  0.30995433807E+02  0.00000000000E+00 0. -1.
<mgrwt>
<rscale>  0 0.13641056E+03</rscale>
<asrwt>0</asrwt>
<pdfrwt beam="1">  1        2 0.14135641E-01 0.15375930E+03</pdfrwt>
<pdfrwt beam="2">  1       -2 0.26932905E-01 0.15375930E+03</pdfrwt>
<totfact> 0.50002323E+03</totfact>
</mgrwt>
</event>
<event>
 7    1  0.5206756E-006  0.1441087E+03  0.7546771E-02  0.1212642E+00
          1   -1    0    0  501    0  0.00000000000E+00  0.00000000000E+00  0.27824182686E+03  0.27824182686E+03  0.00000000000E+00 0. -1.
         -1   -1    0    0    0  501 -0.00000000000E+00 -0.00000000000E+00 -0.38711207822E+03  0.38711207822E+03  0.00000000000E+00 0.  1.
         23    2    1    2    0    0  0.19496842301E+02  0.90250983336E+02  0.24723870969E+03  0.28617180849E+03  0.11064338008E+03 0.  0.
          5    1    3    3  502    0  0.87187296854E+01  0.11190407044E+03  0.23039550750E+03  0.25632541252E+03  0.47000000000E+01 0. -1.
         -5    1    3    3    0  502  0.10778112615E+02 -0.21653087104E+02  0.16843202191E+02  0.29846395976E+02  0.47000000000E+01 0.  1.
        -11    1    1    2    0    0 -0.22942087808E+02 -0.10837812887E+03 -0.31998348509E+03  0.33861717165E+03  0.00000000000E+00 0.  1.
         11    1    1    2    0    0  0.34452455068E+01  0.18127145531E+02 -0.36125475954E+02  0.40564924930E+02  0.00000000000E+00 0. -1.
<mgrwt>
<rscale>  0 0.14051201E+03</rscale>
<asrwt>0</asrwt>
<pdfrwt beam="1">  1        1 0.42806435E-01 0.14410872E+03</pdfrwt>
<pdfrwt beam="2">  1       -1 0.59555704E-01 0.14410872E+03</pdfrwt>
<totfact> 0.28939730E+02</totfact>
</mgrwt>
</event>
<event>
 7    1  0.5206756E-006  0.1223069E+03  0.7546771E-02  0.1246828E+00
         -1   -1    0    0    0  501 -0.00000000000E+00  0.00000000000E+00  0.21149850313E+02  0.21149850313E+02  0.00000000000E+00 0.  1.
          1   -1    0    0  501    0  0.00000000000E+00 -0.00000000000E+00 -0.10073672394E+04  0.10073672394E+04  0.00000000000E+00 0. -1.
         23    2    1    2    0    0  0.51865353565E+02 -0.33023439793E+00 -0.83755242399E+03  0.84643549453E+03  0.11076488394E+03 0.  0.
          5    1    3    3  502    0  0.74028636009E+02  0.25599012040E+02 -0.40614652468E+03  0.41365763365E+03  0.47000000000E+01 0. -1.
         -5    1    3    3    0  502 -0.22163282444E+02 -0.25929246438E+02 -0.43140589931E+03  0.43277786088E+03  0.47000000000E+01 0.  1.
        -11    1    1    2    0    0 -0.30209758671E+01  0.41273832459E+02 -0.57226145666E+02  0.70622144465E+02  0.00000000000E+00 0. -1.
         11    1    1    2    0    0 -0.48844377697E+02 -0.40943598061E+02 -0.91438819418E+02  0.11145945070E+03  0.00000000000E+00 0.  1.
<mgrwt>
<rscale>  0 0.11776616E+03</rscale>
<asrwt>0</asrwt>
<pdfrwt beam="2">  1        1 0.15497961E+00 0.12230692E+03</pdfrwt>
<pdfrwt beam="1">  1       -1 0.32538224E-02 0.12230692E+03</pdfrwt>
<totfact> 0.51295252E+03</totfact>
</mgrwt>
</event>
<event>
 7    1  0.5206756E-006  0.1267994E+03  0.7546771E-02  0.1249842E+00
          2   -1    0    0  501    0  0.00000000000E+00  0.00000000000E+00  0.47127047687E+02  0.47127047687E+02  0.00000000000E+00 0. -1.
         -2   -1    0    0    0  501 -0.00000000000E+00 -0.00000000000E+00 -0.27845358521E+03  0.27845358521E+03  0.00000000000E+00 0.  1.
         23    2    1    2    0    0  0.68037117664E+01 -0.20192897326E+02 -0.79436417866E+02  0.14962695513E+03  0.12499615043E+03 0.  0.
          5    1    3    3  502    0  0.14086150744E+02 -0.70500484544E+02 -0.28402882269E+02  0.77443861506E+02  0.47000000000E+01 0.  1.
         -5    1    3    3    0  502 -0.72824389778E+01  0.50307587219E+02 -0.51033535597E+02  0.72183093621E+02  0.47000000000E+01 0.  1.
        -11    1    1    2    0    0  0.25738782308E+02 -0.20382996367E+02 -0.85687623339E+02  0.91762302985E+02  0.00000000000E+00 0.  1.
         11    1    1    2    0    0 -0.32542494074E+02  0.40575893692E+02 -0.66202496321E+02  0.84191374788E+02  0.00000000000E+00 0. -1.
<mgrwt>
<rscale>  0 0.11600219E+03</rscale>
<asrwt>0</asrwt>
<pdfrwt beam="1">  1        2 0.72503149E-02 0.12679937E+03</pdfrwt>
<pdfrwt beam="2">  1       -2 0.42839014E-01 0.12679937E+03</pdfrwt>
<totfact> 0.47613801E+03</totfact>
</mgrwt>
</event>
<event>
 7    1  0.5206756E-006  0.1486370E+03  0.7546771E-02  0.1211314E+00
         -1   -1    0    0    0  501 -0.00000000000E+00  0.00000000000E+00  0.22221816862E+03  0.22221816862E+03  0.00000000000E+00 0.  1.
          1   -1    0    0  501    0  0.00000000000E+00 -0.00000000000E+00 -0.83370036528E+02  0.83370036528E+02  0.00000000000E+00 0. -1.
         23    2    1    2    0    0  0.76880260083E+02 -0.23616235647E+02  0.60322644448E+02  0.16041130614E+03  0.12499865890E+03 0.  0.
          5    1    3    3  502    0  0.20578152844E+02  0.37271948289E+01  0.88898198505E+02  0.91445787509E+02  0.47000000000E+01 0.  1.
         -5    1    3    3    0  502  0.56302107238E+02 -0.27343430476E+02 -0.28575554057E+02  0.68965518626E+02  0.47000000000E+01 0.  1.
        -11    1    1    2    0    0 -0.57725611075E+02  0.38347427488E+01  0.96343694771E+02  0.11237908590E+03  0.00000000000E+00 0.  1.
         11    1    1    2    0    0 -0.19154649008E+02  0.19781492899E+02 -0.17818207125E+02  0.32797813114E+02  0.00000000000E+00 0. -1.
<mgrwt>
<rscale>  0 0.14150776E+03</rscale>
<asrwt>0</asrwt>
<pdfrwt beam="2">  1        1 0.12826160E-01 0.14863703E+03</pdfrwt>
<pdfrwt beam="1">  1       -1 0.34187410E-01 0.14863703E+03</pdfrwt>
<totfact> 0.36118560E+03</totfact>
</mgrwt>
</event>
<event>
 7    1  0.5206756E-006  0.1551216E+03  0.7546771E-02  0.1203015E+00
          2   -1    0    0  501    0  0.00000000000E+00  0.00000000000E+00  0.34628793999E+02  0.34628793999E+02  0.00000000000E+00 0. -1.
         -2   -1    0    0    0  501 -0.00000000000E+00 -0.00000000000E+00 -0.62992772513E+03  0.62992772513E+03  0.00000000000E+00 0.  1.
         23    2    1    2    0    0  0.53962269170E+02 -0.74330539863E+02 -0.41652133561E+03  0.44446905625E+03  0.12500305318E+03 0.  0.
          5    1    3    3  502    0  0.92558284501E+01 -0.10168785009E+03 -0.28741991530E+03  0.30505472776E+03  0.47000000000E+01 0. -1.
         -5    1    3    3    0  502  0.44706440720E+02  0.27357310232E+02 -0.12910142030E+03  0.13941432849E+03  0.47000000000E+01 0. -1.
        -11    1    1    2    0    0 -0.47404850543E+02 -0.37842531682E+01 -0.88956613884E+02  0.10087031070E+03  0.00000000000E+00 0. -1.
         11    1    1    2    0    0 -0.65574186263E+01  0.78114793031E+02 -0.89820981644E+02  0.11921715217E+03  0.00000000000E+00 0.  1.
<mgrwt>
<rscale>  0 0.14794975E+03</rscale>
<asrwt>0</asrwt>
<pdfrwt beam="1">  1        2 0.53275067E-02 0.15512163E+03</pdfrwt>
<pdfrwt beam="2">  1       -2 0.96911959E-01 0.15512163E+03</pdfrwt>
<totfact> 0.12986823E+03</totfact>
</mgrwt>
</event>
<event>
 7    1  0.5206756E-006  0.2482495E+03  0.7546771E-02  0.1117396E+00
         -2   -1    0    0    0  501 -0.00000000000E+00  0.00000000000E+00  0.49308973814E+02  0.49308973814E+02  0.00000000000E+00 0.  1.
          2   -1    0    0  501    0  0.00000000000E+00 -0.00000000000E+00 -0.11698610922E+04  0.11698610922E+04  0.00000000000E+00 0. -1.
         23    2    1    2    0    0 -0.19187891686E+03 -0.95836512428E+02 -0.63393924932E+03  0.68081331952E+03  0.12500259343E+03 0.  0.
          5    1    3    3  502    0 -0.20444787098E+03 -0.96236435196E+02 -0.53236025268E+03  0.57835102839E+03  0.47000000000E+01 0. -1.
         -5    1    3    3    0  502  0.12568954122E+02  0.39992276714E+00 -0.10157899664E+03  0.10246229113E+03  0.47000000000E+01 0. -1.
        -11    1    1    2    0    0  0.11860626615E+03  0.14195605804E+02 -0.22680518493E+03  0.25633874757E+03  0.00000000000E+00 0. -1.
         11    1    1    2    0    0  0.73272650713E+02  0.81640906625E+02 -0.25980768409E+03  0.28201799887E+03  0.00000000000E+00 0.  1.
<mgrwt>
<rscale>  0 0.24363378E+03</rscale>
<asrwt>0</asrwt>
<pdfrwt beam="2">  1        2 0.17997862E+00 0.24824948E+03</pdfrwt>
<pdfrwt beam="1">  1       -2 0.75859965E-02 0.24824948E+03</pdfrwt>
<totfact> 0.21357604E+03</totfact>
</mgrwt>
</event>
<event>
 7    1  0.5206756E-006  0.1776528E+03  0.7546771E-02  0.1175592E+00
         -1   -1    0    0    0  501 -0.00000000000E+00  0.00000000000E+00  0.23891049604E+03  0.23891049604E+03  0.00000000000E+00 0.  1.
          1   -1    0    0  501    0  0.00000000000E+00 -0.00000000000E+00 -0.12046345975E+03  0.12046345975E+03  0.00000000000E+00 0. -1.
         23    2    1    2    0    0  0.55061840086E+02  0.11359380846E+03  0.32498588877E+02  0.18060087914E+03  0.12500063885E+03 0.  0.
          5    1    3    3  502    0  0.80579667469E+02  0.12408108248E+03  0.18097838385E+02  0.14912685738E+03  0.47000000000E+01 0. -1.
         -5    1    3    3    0  502 -0.25517827383E+02 -0.10487274022E+02  0.14400750492E+02  0.31474021757E+02  0.47000000000E+01 0. -1.
        -11    1    1    2    0    0 -0.37806213544E+02 -0.11151113096E+03  0.10149646558E+03  0.15545280517E+03  0.00000000000E+00 0.  1.
         11    1    1    2    0    0 -0.17255626542E+02 -0.20826774928E+01 -0.15548018167E+02  0.23320271478E+02  0.00000000000E+00 0. -1.
<mgrwt>
<rscale>  0 0.17218115E+03</rscale>
<asrwt>0</asrwt>
<pdfrwt beam="2">  1        1 0.18532840E-01 0.17765281E+03</pdfrwt>
<pdfrwt beam="1">  1       -1 0.36755461E-01 0.17765281E+03</pdfrwt>
<totfact> 0.19917265E+03</totfact>
</mgrwt>
</event>
<event>
 7    1  0.5206756E-006  0.1460381E+03  0.7546771E-02  0.1215456E+00
         -1   -1    0    0    0  501 -0.00000000000E+00  0.00000000000E+00  0.62531320401E+02  0.62531320401E+02  0.00000000000E+00 0.  1.
          1   -1    0    0  501    0  0.00000000000E+00 -0.00000000000E+00 -0.31609519107E+03  0.31609519107E+03  0.00000000000E+00 0. -1.
         23    2    1    2    0    0 -0.19189790663E+02 -0.73035667310E+02 -0.20362898441E+03  0.25058311898E+03  0.12499871785E+03 0.  0.
          5    1    3    3  502    0  0.36930407195E+01 -0.66166901647E+02 -0.21403092028E+03  0.22410493582E+03  0.47000000000E+01 0. -1.
         -5    1    3    3    0  502 -0.22882831383E+02 -0.68687656624E+01  0.10401935871E+02  0.26478183164E+02  0.47000000000E+01 0. -1.
        -11    1    1    2    0    0  0.20466239383E+02  0.13556256873E+02  0.23192856618E+02  0.33771995099E+02  0.00000000000E+00 0.  1.
         11    1    1    2    0    0 -0.12764487200E+01  0.59479410437E+02 -0.73127742881E+02  0.94271397391E+02  0.00000000000E+00 0. -1.
<mgrwt>
<rscale>  0 0.13843085E+03</rscale>
<asrwt>0</asrwt>
<pdfrwt beam="2">  1        1 0.48630028E-01 0.14603813E+03</pdfrwt>
<pdfrwt beam="1">  1       -1 0.96202033E-02 0.14603813E+03</pdfrwt>
<totfact> 0.51107068E+03</totfact>
</mgrwt>
</event>
<event>
 6    1  0.5206756E-006  0.1690466E+03  0.7546771E-02  0.1190219E+00
         -2   -1    0    0    0  501 -0.00000000000E+00  0.00000000000E+00  0.11779943658E+03  0.11779943658E+03  0.00000000000E+00 0.  1.
          2   -1    0    0  501    0  0.00000000000E+00 -0.00000000000E+00 -0.20538384005E+03  0.20538384005E+03  0.00000000000E+00 0. -1.
          5    1    1    2  502    0 -0.17128976584E+02 -0.98921103650E+02 -0.11453205677E+03  0.15237607625E+03  0.47000000000E+01 0. -1.
         -5    1    1    2    0  502  0.30905738834E+02  0.59183051688E+01  0.23564271602E+02  0.39592372057E+02  0.47000000000E+01 0.  1.
        -11    1    1    2    0    0 -0.29644410921E+02  0.85598251217E+02  0.33331133540E+02  0.96523656030E+02  0.00000000000E+00 0.  1.
         11    1    1    2    0    0  0.15867648670E+02  0.74045472644E+01 -0.29947751845E+02  0.34691172293E+02  0.00000000000E+00 0. -1.
<mgrwt>
<rscale>  0 0.15865889E+03</rscale>
<asrwt>0</asrwt>
<pdfrwt beam="2">  1        2 0.31597514E-01 0.16904658E+03</pdfrwt>
<pdfrwt beam="1">  1       -2 0.18122990E-01 0.16904658E+03</pdfrwt>
<totfact> 0.40058643E+03</totfact>
</mgrwt>
</event>
<event>
 7    1  0.5206756E-006  0.1356457E+03  0.7546771E-02  0.1221732E+00
          2   -1    0    0  501    0  0.00000000000E+00  0.00000000000E+00  0.42730723477E+03  0.42730723477E+03  0.00000000000E+00 0.  1.
         -2   -1    0    0    0  501 -0.00000000000E+00 -0.00000000000E+00 -0.40997532705E+02  0.40997532705E+02  0.00000000000E+00 0. -1.
         23    2    1    2    0    0 -0.74802114593E+01  0.52142494274E+02  0.20570988294E+03  0.24640682711E+03  0.12499990094E+03 0.  0.
          5    1    3    3  502    0 -0.63413275454E+02  0.47406878249E+02  0.12093022593E+03  0.14461972602E+03  0.47000000000E+01 0. -1.
         -5    1    3    3    0  502  0.55933063994E+02  0.47356160251E+01  0.84779657002E+02  0.10178710109E+03  0.47000000000E+01 0. -1.
        -11    1    1    2    0    0 -0.31747938252E+02 -0.75080967444E+02  0.13372080331E+03  0.15660886467E+03  0.00000000000E+00 0.  1.
         11    1    1    2    0    0  0.39228149711E+02  0.22938473171E+02  0.46879015821E+02  0.65289075698E+02  0.00000000000E+00 0. -1.
<mgrwt>
<rscale>  0 0.13393416E+03</rscale>
<asrwt>0</asrwt>
<pdfrwt beam="1">  1        2 0.65739572E-01 0.13564575E+03</pdfrwt>
<pdfrwt beam="2">  1       -2 0.63073130E-02 0.13564575E+03</pdfrwt>
<totfact> 0.96667282E+03</totfact>
</mgrwt>
</event>
<event>
 7    1  0.5206756E-006  0.1328488E+03  0.7546771E-02  0.1236461E+00
         -1   -1    0    0    0  501 -0.00000000000E+00  0.00000000000E+00  0.26908582065E+02  0.26908582065E+02  0.00000000000E+00 0.  1.
          1   -1    0    0  501    0  0.00000000000E+00 -0.00000000000E+00 -0.51068143398E+03  0.51068143398E+03  0.00000000000E+00 0. -1.
         23    2    1    2    0    0  0.24625453642E+02 -0.37650599904E+02 -0.28992584012E+03  0.31891346715E+03  0.12499930447E+03 0.  0.
          5    1    3    3  502    0  0.57854664536E+02 -0.60618535481E+02 -0.13692097921E+03  0.16059643085E+03  0.47000000000E+01 0.  1.
         -5    1    3    3    0  502 -0.33229210894E+02  0.22967935577E+02 -0.15300486091E+03  0.15831703630E+03  0.47000000000E+01 0.  1.
        -11    1    1    2    0    0 -0.39735548440E+02  0.55427129747E+02 -0.93962898765E+02  0.11610386241E+03  0.00000000000E+00 0.  1.
         11    1    1    2    0    0  0.15110094797E+02 -0.17776529843E+02 -0.99884113032E+02  0.10257268649E+03  0.00000000000E+00 0. -1.
<mgrwt>
<rscale>  0 0.12411390E+03</rscale>
<asrwt>0</asrwt>
<pdfrwt beam="2">  1        1 0.78566364E-01 0.13284881E+03</pdfrwt>
<pdfrwt beam="1">  1       -1 0.41397824E-02 0.13284881E+03</pdfrwt>
<totfact> 0.97578523E+03</totfact>
</mgrwt>
</event>
<event>
 7    1  0.5206756E-006  0.1388548E+03  0.7546771E-02  0.1222076E+00
          1   -1    0    0  501    0  0.00000000000E+00  0.00000000000E+00  0.20502281193E+03  0.20502281193E+03  0.00000000000E+00 0. -1.
         -1   -1    0    0    0  501 -0.00000000000E+00 -0.00000000000E+00 -0.10741525134E+03  0.10741525134E+03  0.00000000000E+00 0.  1.
         23    2    1    2    0    0 -0.27407426052E+02 -0.75101391203E+02  0.12847943286E+03  0.18917619630E+03  0.11353097646E+03 0.  0.
          5    1    3    3  502    0 -0.41469952339E+02 -0.10040069087E+03  0.10908716987E+03  0.15401998670E+03  0.47000000000E+01 0. -1.
         -5    1    3    3    0  502  0.14062526287E+02  0.25299299668E+02  0.19392262990E+02  0.35156209596E+02  0.47000000000E+01 0.  1.
        -11    1    1    2    0    0 -0.10392110818E+02  0.14502018220E+01  0.22456812517E+02  0.24787244321E+02  0.00000000000E+00 0. -1.
         11    1    1    2    0    0  0.37799536870E+02  0.73651189381E+02 -0.53328684787E+02  0.98474622649E+02  0.00000000000E+00 0.  1.
<mgrwt>
<rscale>  0 0.13369375E+03</rscale>
<asrwt>0</asrwt>
<pdfrwt beam="1">  1        1 0.31541971E-01 0.13885485E+03</pdfrwt>
<pdfrwt beam="2">  1       -1 0.16525423E-01 0.13885485E+03</pdfrwt>
<totfact> 0.37667031E+03</totfact>
</mgrwt>
</event>
<event>
 7    1  0.5206756E-006  0.1369815E+03  0.7546771E-02  0.1229443E+00
         -2   -1    0    0    0  501 -0.00000000000E+00  0.00000000000E+00  0.26278415432E+02  0.26278415432E+02  0.00000000000E+00 0.  1.
          2   -1    0    0  501    0  0.00000000000E+00 -0.00000000000E+00 -0.65786434395E+03  0.65786434395E+03  0.00000000000E+00 0. -1.
         23    2    1    2    0    0 -0.25427194885E+02  0.49924679199E+02 -0.47745571188E+03  0.49671712372E+03  0.12499971344E+03 0.  0.
          5    1    3    3  502    0  0.31333092078E+01  0.73078739019E+01  0.56795705416E+01  0.10842977870E+02  0.47000000000E+01 0.  1.
         -5    1    3    3    0  502 -0.28560504093E+02  0.42616805297E+02 -0.48313528242E+03  0.48587414585E+03  0.47000000000E+01 0.  1.
        -11    1    1    2    0    0  0.59189995252E+02 -0.37037451314E+02 -0.91233241029E+02  0.11488573718E+03  0.00000000000E+00 0.  1.
         11    1    1    2    0    0 -0.33762800367E+02 -0.12887227885E+02 -0.62896975615E+02  0.72539898488E+02  0.00000000000E+00 0. -1.
<mgrwt>
<rscale>  0 0.12867001E+03</rscale>
<asrwt>0</asrwt>
<pdfrwt beam="2">  1        2 0.10120990E+00 0.13698155E+03</pdfrwt>
<pdfrwt beam="1">  1       -2 0.40428332E-02 0.13698155E+03</pdfrwt>
<totfact> 0.11676148E+04</totfact>
</mgrwt>
</event>
<event>
 7    1  0.5206756E-006  0.1392083E+03  0.7546771E-02  0.1226655E+00
         -2   -1    0    0    0  501 -0.00000000000E+00  0.00000000000E+00  0.11440834283E+03  0.11440834283E+03  0.00000000000E+00 0. -1.
          2   -1    0    0  501    0  0.00000000000E+00 -0.00000000000E+00 -0.15381941352E+03  0.15381941352E+03  0.00000000000E+00 0.  1.
         23    2    1    2    0    0 -0.60152651753E+02  0.11602641947E+02 -0.70693207851E+02  0.15612968625E+03  0.12500394585E+03 0.  0.
          5    1    3    3  502    0  0.34923058089E+02  0.26034329386E+01  0.29269091738E+01  0.35454966459E+02  0.47000000000E+01 0. -1.
         -5    1    3    3    0  502 -0.95075709842E+02  0.89992090083E+01 -0.73620117025E+02  0.12067471979E+03  0.47000000000E+01 0. -1.
        -11    1    1    2    0    0  0.67728087682E+02  0.25195007398E+01 -0.93527571712E+01  0.68417218678E+02  0.00000000000E+00 0.  1.
         11    1    1    2    0    0 -0.75754359284E+01 -0.14122142687E+02  0.40634894339E+02  0.43680851429E+02  0.00000000000E+00 0. -1.
<mgrwt>
<rscale>  0 0.13054105E+03</rscale>
<asrwt>0</asrwt>
<pdfrwt beam="2">  1        2 0.23664525E-01 0.13920829E+03</pdfrwt>
<pdfrwt beam="1">  1       -2 0.17601283E-01 0.13920829E+03</pdfrwt>
<totfact> 0.57115539E+03</totfact>
</mgrwt>
</event>
<event>
 7    1  0.6965649E-006  0.1470323E+03  0.7546771E-02  0.1213494E+00
          1   -1    0    0  501    0  0.00000000000E+00  0.00000000000E+00  0.48103959307E+03  0.48103959307E+03  0.00000000000E+00 0. -1.
         -1   -1    0    0    0  501 -0.00000000000E+00 -0.00000000000E+00 -0.37242451708E+02  0.37242451708E+02  0.00000000000E+00 0.  1.
         23    2    1    2    0    0 -0.75187455148E+02 -0.18452025042E+02  0.23331497463E+03  0.27577955097E+03  0.12499941083E+03 0.  0.
          5    1    3    3  502    0 -0.40971619717E+02  0.24604680215E+01  0.24236344632E+01  0.41384677468E+02  0.47000000000E+01 0. -1.
         -5    1    3    3    0  502 -0.34215835431E+02 -0.20912493063E+02  0.23089134017E+03  0.23439487351E+03  0.47000000000E+01 0. -1.
        -11    1    1    2    0    0  0.32419158340E+02  0.13864702080E+02  0.88769724930E+01  0.36359763914E+02  0.00000000000E+00 0.  1.
         11    1    1    2    0    0  0.42768296808E+02  0.45873229619E+01  0.20160519424E+03  0.20614272989E+03  0.00000000000E+00 0. -1.
<mgrwt>
<rscale>  0 0.13987758E+03</rscale>
<asrwt>0</asrwt>
<pdfrwt beam="1">  1        1 0.74006087E-01 0.14703225E+03</pdfrwt>
<pdfrwt beam="2">  1       -1 0.57296083E-02 0.14703225E+03</pdfrwt>
<totfact> 0.65643450E+03</totfact>
</mgrwt>
</event>
<event>
 7    1  0.5206756E-006  0.1754002E+03  0.7546771E-02  0.1178134E+00
          3   -1    0    0  501    0  0.00000000000E+00  0.00000000000E+00  0.69728649516E+02  0.69728649516E+02  0.00000000000E+00 0. -1.
         -3   -1    0    0    0  501 -0.00000000000E+00 -0.00000000000E+00 -0.60523713288E+03  0.60523713288E+03  0.00000000000E+00 0.  1.
         23    2    1    2    0    0 -0.51245301237E+02  0.11185909583E+03 -0.77369376811E+02  0.19170611343E+03  0.12500670077E+03 0.  0.
          5    1    3    3  502    0  0.35596805878E+02  0.52920390780E+01 -0.26952139220E+02  0.45206703871E+02  0.47000000000E+01 0.  1.
         -5    1    3    3    0  502 -0.86842107115E+02  0.10656705676E+03 -0.50417237591E+02  0.14649940956E+03  0.47000000000E+01 0.  1.
        -11    1    1    2    0    0  0.42060142737E+02 -0.20684291736E+02 -0.26944726024E+03  0.27349354944E+03  0.00000000000E+00 0.  1.
         11    1    1    2    0    0  0.91851584999E+01 -0.91174804099E+02 -0.18869184631E+03  0.20976611953E+03  0.00000000000E+00 0. -1.
<mgrwt>
<rscale>  0 0.16972579E+03</rscale>
<asrwt>0</asrwt>
<pdfrwt beam="1">  1        3 0.10727484E-01 0.17540015E+03</pdfrwt>
<pdfrwt beam="2">  1       -3 0.93113408E-01 0.17540015E+03</pdfrwt>
<totfact> 0.16822216E+02</totfact>
</mgrwt>
</event>
<event>
 7    1  0.5206756E-006  0.3451747E+03  0.7546771E-02  0.1064613E+00
         -1   -1    0    0    0  501 -0.00000000000E+00  0.00000000000E+00  0.53434199655E+03  0.53434199655E+03  0.00000000000E+00 0.  1.
          1   -1    0    0  501    0  0.00000000000E+00 -0.00000000000E+00 -0.55744047264E+02  0.55744047264E+02  0.00000000000E+00 0. -1.
         23    2    1    2    0    0 -0.46805118437E+01  0.33277164080E+02  0.95709777523E+02  0.16098623344E+03  0.12500771577E+03 0.  0.
          5    1    3    3  502    0 -0.98460332635E+01  0.66075861491E+02  0.10645870236E+03  0.12577165480E+03  0.47000000000E+01 0.  1.
         -5    1    3    3    0  502  0.51655214198E+01 -0.32798697411E+02 -0.10748924839E+02  0.35214578637E+02  0.47000000000E+01 0.  1.
        -11    1    1    2    0    0  0.16312551846E+02  0.56201891945E+02  0.30295263030E+03  0.30855315297E+03  0.00000000000E+00 0.  1.
         11    1    1    2    0    0 -0.11632040003E+02 -0.89479056025E+02  0.79935541468E+02  0.12054665741E+03  0.00000000000E+00 0. -1.
<mgrwt>
<rscale>  0 0.34517465E+03</rscale>
<asrwt>0</asrwt>
<pdfrwt beam="2">  1        1 0.85760076E-02 0.34517465E+03</pdfrwt>
<pdfrwt beam="1">  1       -1 0.82206458E-01 0.34517465E+03</pdfrwt>
<totfact> 0.12221216E+03</totfact>
</mgrwt>
</event>
<event>
 7    1  0.5206756E-006  0.1301073E+03  0.7546771E-02  0.1239952E+00
          2   -1    0    0  501    0  0.00000000000E+00  0.00000000000E+00  0.51231042262E+03  0.51231042262E+03  0.00000000000E+00 0. -1.
         -2   -1    0    0    0  501 -0.00000000000E+00 -0.00000000000E+00 -0.45306982716E+02  0.45306982716E+02  0.00000000000E+00 0.  1.
         23    2    1    2    0    0  0.15681205034E+02 -0.39452294426E+02  0.43227967998E+03  0.45143506624E+03  0.12298582675E+03 0.  0.
          5    1    3    3  502    0  0.30409273921E+02 -0.56631290424E+02  0.42065734539E+03  0.42556611617E+03  0.47000000000E+01 0. -1.
         -5    1    3    3    0  502 -0.14728068886E+02  0.17178995998E+02  0.11622334584E+02  0.25868950072E+02  0.47000000000E+01 0.  1.
        -11    1    1    2    0    0  0.35439211299E+02  0.15785714852E+02  0.31118406837E+02  0.49734110376E+02  0.00000000000E+00 0.  1.
         11    1    1    2    0    0 -0.51120416333E+02  0.23666579574E+02  0.36053530895E+01  0.56448228720E+02  0.00000000000E+00 0. -1.
<mgrwt>
<rscale>  0 0.12192679E+03</rscale>
<asrwt>0</asrwt>
<pdfrwt beam="1">  1        2 0.78816984E-01 0.13010725E+03</pdfrwt>
<pdfrwt beam="2">  1       -2 0.69703054E-02 0.13010725E+03</pdfrwt>
<totfact> 0.67964781E+03</totfact>
</mgrwt>
</event>
<event>
 7    1  0.5206756E-006  0.1777387E+03  0.7546771E-02  0.1175878E+00
         -1   -1    0    0    0  501 -0.00000000000E+00  0.00000000000E+00  0.15442591979E+03  0.15442591979E+03  0.00000000000E+00 0.  1.
          1   -1    0    0  501    0  0.00000000000E+00 -0.00000000000E+00 -0.23080435115E+03  0.23080435115E+03  0.00000000000E+00 0. -1.
         23    2    1    2    0    0  0.48030741421E+02 -0.11685918066E+03 -0.13056558495E+03  0.22054120760E+03  0.12501212761E+03 0.  0.
          5    1    3    3  502    0 -0.24929902276E+01 -0.29500729534E+02 -0.11436027633E+03  0.11822381675E+03  0.47000000000E+01 0. -1.
         -5    1    3    3    0  502  0.50523731648E+02 -0.87358451130E+02 -0.16205308615E+02  0.10231739085E+03  0.47000000000E+01 0. -1.
        -11    1    1    2    0    0 -0.13980643517E+01  0.31048301270E+02 -0.24255114617E+02  0.39424131960E+02  0.00000000000E+00 0.  1.
         11    1    1    2    0    0 -0.46632677069E+02  0.85810879394E+02  0.78442268207E+02  0.12526493138E+03  0.00000000000E+00 0. -1.
<mgrwt>
<rscale>  0 0.17190265E+03</rscale>
<asrwt>0</asrwt>
<pdfrwt beam="2">  1        1 0.35508362E-01 0.17773872E+03</pdfrwt>
<pdfrwt beam="1">  1       -1 0.23757834E-01 0.17773872E+03</pdfrwt>
<totfact> 0.18293900E+03</totfact>
</mgrwt>
</event>
<event>
 7    1  0.5206756E-006  0.1285672E+03  0.7546771E-02  0.1244703E+00
         -2   -1    0    0    0  501 -0.00000000000E+00  0.00000000000E+00  0.60064931501E+02  0.60064931501E+02  0.00000000000E+00 0.  1.
          2   -1    0    0  501    0  0.00000000000E+00 -0.00000000000E+00 -0.21710980923E+03  0.21710980923E+03  0.00000000000E+00 0. -1.
         23    2    1    2    0    0  0.18655007062E+02 -0.23609245612E+02 -0.60452669330E+02  0.14207053911E+03  0.12499642830E+03 0.  0.
          5    1    3    3  502    0  0.34099876360E+01 -0.31640280458E+02 -0.96565325539E+02  0.10178254988E+03  0.47000000000E+01 0. -1.
         -5    1    3    3    0  502  0.15245019426E+02  0.80310348459E+01  0.36112656209E+02  0.40287989233E+02  0.47000000000E+01 0. -1.
        -11    1    1    2    0    0  0.93920631073E+01 -0.30111855148E+02 -0.19652713959E+02  0.37164012644E+02  0.00000000000E+00 0. -1.
         11    1    1    2    0    0 -0.28047070169E+02  0.53721100760E+02 -0.76939494441E+02  0.97940188976E+02  0.00000000000E+00 0.  1.
<mgrwt>
<rscale>  0 0.11903151E+03</rscale>
<asrwt>0</asrwt>
<pdfrwt beam="2">  1        2 0.33401509E-01 0.12856715E+03</pdfrwt>
<pdfrwt beam="1">  1       -2 0.92407586E-02 0.12856715E+03</pdfrwt>
<totfact> 0.10991459E+04</totfact>
</mgrwt>
</event>
<event>
 7    1  0.5206756E-006  0.1391663E+03  0.7546771E-02  0.1225586E+00
          2   -1    0    0  501    0  0.00000000000E+00  0.00000000000E+00  0.53062276287E+03  0.53062276287E+03  0.00000000000E+00 0.  1.
         -2   -1    0    0    0  501 -0.00000000000E+00 -0.00000000000E+00 -0.29395462505E+02  0.29395462505E+02  0.00000000000E+00 0. -1.
         23    2    1    2    0    0  0.52419048290E+02 -0.31536751540E+02  0.29640136246E+03  0.32744624079E+03  0.12499979848E+03 0.  0.
          5    1    3    3  502    0 -0.40780018230E+01 -0.26571898756E+02  0.17471279357E+01  0.27346633402E+02  0.47000000000E+01 0.  1.
         -5    1    3    3    0  502  0.56497050113E+02 -0.49648527839E+01  0.29465423452E+03  0.30009960739E+03  0.47000000000E+01 0.  1.
        -11    1    1    2    0    0 -0.34967802086E+02 -0.28530303301E+02  0.11082379253E+03  0.11966051303E+03  0.00000000000E+00 0.  1.
         11    1    1    2    0    0 -0.17451246205E+02  0.60067054841E+02  0.94002145375E+02  0.11291147155E+03  0.00000000000E+00 0. -1.
<mgrwt>
<rscale>  0 0.13126846E+03</rscale>
<asrwt>0</asrwt>
<pdfrwt beam="1">  1        2 0.81634264E-01 0.13916635E+03</pdfrwt>
<pdfrwt beam="2">  1       -2 0.45223792E-02 0.13916635E+03</pdfrwt>
<totfact> 0.12624318E+04</totfact>
</mgrwt>
</event>
<event>
 7    1  0.5206756E-006  0.1315096E+03  0.7546771E-02  0.1238328E+00
          2   -1    0    0  501    0  0.00000000000E+00  0.00000000000E+00  0.16153561352E+03  0.16153561352E+03  0.00000000000E+00 0. -1.
         -2   -1    0    0    0  501 -0.00000000000E+00 -0.00000000000E+00 -0.83967300996E+02  0.83967300996E+02  0.00000000000E+00 0.  1.
         23    2    1    2    0    0  0.26694909277E+02 -0.30942505247E+02  0.55124423357E+02  0.14259553373E+03  0.12499890951E+03 0.  0.
          5    1    3    3  502    0 -0.24055867822E+02  0.36316861170E+02  0.41609079645E+01  0.44011388720E+02  0.47000000000E+01 0.  1.
         -5    1    3    3    0  502  0.50750777099E+02 -0.67259366417E+02  0.50963515392E+02  0.98584145014E+02  0.47000000000E+01 0.  1.
        -11    1    1    2    0    0 -0.47200309628E+02  0.41956962896E+02 -0.89946596874E+01  0.63789966823E+02  0.00000000000E+00 0.  1.
         11    1    1    2    0    0  0.20505400351E+02 -0.11014457649E+02  0.31438548857E+02  0.39117413962E+02  0.00000000000E+00 0. -1.
<mgrwt>
<rscale>  0 0.12293743E+03</rscale>
<asrwt>0</asrwt>
<pdfrwt beam="1">  1        2 0.24851633E-01 0.13150964E+03</pdfrwt>
<pdfrwt beam="2">  1       -2 0.12918046E-01 0.13150964E+03</pdfrwt>
<totfact> 0.89368610E+03</totfact>
</mgrwt>
</event>
<event>
 7    1  0.5206756E-006  0.1306973E+03  0.7546771E-02  0.1234998E+00
          1   -1    0    0  501    0  0.00000000000E+00  0.00000000000E+00  0.35554284670E+03  0.35554284670E+03  0.00000000000E+00 0. -1.
         -1   -1    0    0    0  501 -0.00000000000E+00 -0.00000000000E+00 -0.43493685556E+02  0.43493685556E+02  0.00000000000E+00 0.  1.
         23    2    1    2    0    0 -0.38118779416E+02 -0.20373798231E+01  0.22036910077E+03  0.25621148396E+03  0.12499836671E+03 0.  0.
          5    1    3    3  502    0 -0.68000523605E+01  0.15004413516E+02 -0.12102463731E+02  0.20974574261E+02  0.47000000000E+01 0. -1.
         -5    1    3    3    0  502 -0.31318727056E+02 -0.17041793339E+02  0.23247156450E+03  0.23523690970E+03  0.47000000000E+01 0. -1.
        -11    1    1    2    0    0 -0.23707634560E+02 -0.18595425672E+02  0.66398946590E+02  0.72915443499E+02  0.00000000000E+00 0. -1.
         11    1    1    2    0    0  0.61826413977E+02  0.20632805495E+02  0.25281113779E+02  0.69909604789E+02  0.00000000000E+00 0.  1.
<mgrwt>
<rscale>  0 0.12504588E+03</rscale>
<asrwt>0</asrwt>
<pdfrwt beam="1">  1        1 0.54698898E-01 0.13069730E+03</pdfrwt>
<pdfrwt beam="2">  1       -1 0.66913365E-02 0.13069730E+03</pdfrwt>
<totfact> 0.75856008E+03</totfact>
</mgrwt>
</event>
<event>
 7    1  0.5206756E-006  0.1348373E+03  0.7546771E-02  0.1233185E+00
          2   -1    0    0  501    0  0.00000000000E+00  0.00000000000E+00  0.56938340423E+03  0.56938340423E+03  0.00000000000E+00 0.  1.
         -2   -1    0    0    0  501 -0.00000000000E+00 -0.00000000000E+00 -0.26382798273E+02  0.26382798273E+02  0.00000000000E+00 0. -1.
         23    2    1    2    0    0 -0.13171592880E+02 -0.48819715197E+02  0.37423429768E+03  0.39778438886E+03  0.12499702001E+03 0.  0.
          5    1    3    3  502    0 -0.61740918538E+02  0.41439504693E+01  0.15229424412E+03  0.16445285081E+03  0.47000000000E+01 0. -1.
         -5    1    3    3    0  502  0.48569325658E+02 -0.52963665666E+02  0.22194005356E+03  0.23333153805E+03  0.47000000000E+01 0. -1.
        -11    1    1    2    0    0 -0.13521300798E+01  0.69472244025E+02  0.81319066394E+02  0.10696266407E+03  0.00000000000E+00 0.  1.
         11    1    1    2    0    0  0.14523722959E+02 -0.20652528829E+02  0.87447241884E+02  0.91019149571E+02  0.00000000000E+00 0. -1.
<mgrwt>
<rscale>  0 0.12621336E+03</rscale>
<asrwt>0</asrwt>
<pdfrwt beam="1">  1        2 0.87597437E-01 0.13483735E+03</pdfrwt>
<pdfrwt beam="2">  1       -2 0.40588925E-02 0.13483735E+03</pdfrwt>
<totfact> 0.13677960E+04</totfact>
</mgrwt>
</event>
<event>
 7    1  0.5206756E-006  0.1737752E+03  0.7546771E-02  0.1181042E+00
          1   -1    0    0  501    0  0.00000000000E+00  0.00000000000E+00  0.14265757321E+03  0.14265757321E+03  0.00000000000E+00 0.  1.
         -1   -1    0    0    0  501 -0.00000000000E+00 -0.00000000000E+00 -0.26128722938E+03  0.26128722938E+03  0.00000000000E+00 0. -1.
         23    2    1    2    0    0  0.12039518219E+03  0.89054725230E+01  0.48702950653E+02  0.18047107349E+03  0.12499409438E+03 0.  0.
          5    1    3    3  502    0  0.90726752889E+02 -0.10169652997E+02 -0.28256749887E+02  0.95683328987E+02  0.47000000000E+01 0.  1.
         -5    1    3    3    0  502  0.29668429303E+02  0.19075125520E+02  0.76959700540E+02  0.84787744505E+02  0.47000000000E+01 0.  1.
        -11    1    1    2    0    0 -0.24665382168E+02 -0.38835513288E+02 -0.69607614409E+02  0.83437390620E+02  0.00000000000E+00 0. -1.
         11    1    1    2    0    0 -0.95729800024E+02  0.29930040765E+02 -0.97724992418E+02  0.14003633848E+03  0.00000000000E+00 0.  1.
<mgrwt>
<rscale>  0 0.16697300E+03</rscale>
<asrwt>0</asrwt>
<pdfrwt beam="1">  1        1 0.21947319E-01 0.17377523E+03</pdfrwt>
<pdfrwt beam="2">  1       -1 0.40198035E-01 0.17377523E+03</pdfrwt>
<totfact> 0.13703210E+03</totfact>
</mgrwt>
</event>
<event>
 7    1  0.5206756E-006  0.1344955E+03  0.7546771E-02  0.1233244E+00
          1   -1    0    0  501    0  0.00000000000E+00  0.00000000000E+00  0.43114642780E+03  0.43114642780E+03  0.00000000000E+00 0. -1.
         -1   -1    0    0    0  501 -0.00000000000E+00 -0.00000000000E+00 -0.34074149164E+02  0.34074149164E+02  0.00000000000E+00 0.  1.
         23    2    1    2    0    0 -0.39590869684E+02  0.29985751722E+02  0.26337129171E+03  0.29572535816E+03  0.12498987117E+03 0.  0.
          5    1    3    3  502    0 -0.10555173977E+02  0.50198423360E+02  0.25352195752E+03  0.25870208030E+03  0.47000000000E+01 0.  1.
         -5    1    3    3    0  502 -0.29035695707E+02 -0.20212671638E+02  0.98493341917E+01  0.37023277866E+02  0.47000000000E+01 0.  1.
        -11    1    1    2    0    0 -0.12790307711E+02 -0.90440502281E+01 -0.75548549442E+01  0.17391453335E+02  0.00000000000E+00 0.  1.
         11    1    1    2    0    0  0.52381177395E+02 -0.20941701494E+02  0.14125584187E+03  0.15210376547E+03  0.00000000000E+00 0. -1.
<mgrwt>
<rscale>  0 0.12617491E+03</rscale>
<asrwt>0</asrwt>
<pdfrwt beam="1">  1        1 0.66330216E-01 0.13449554E+03</pdfrwt>
<pdfrwt beam="2">  1       -1 0.52421771E-02 0.13449554E+03</pdfrwt>
<totfact> 0.85750388E+03</totfact>
</mgrwt>
</event>
<event>
 7    1  0.5206756E-006  0.1311798E+03  0.7546771E-02  0.1239165E+00
         -1   -1    0    0    0  501 -0.00000000000E+00  0.00000000000E+00  0.25882681052E+02  0.25882681052E+02  0.00000000000E+00 0.  1.
          1   -1    0    0  501    0  0.00000000000E+00 -0.00000000000E+00 -0.53784636308E+03  0.53784636308E+03  0.00000000000E+00 0. -1.
         23    2    1    2    0    0  0.38334274416E+02 -0.10634540390E+02 -0.34852552235E+03  0.37239520740E+03  0.12500216285E+03 0.  0.
          5    1    3    3  502    0  0.51487340581E+02  0.48194144160E+02 -0.18351878542E+03  0.19665923923E+03  0.47000000000E+01 0. -1.
         -5    1    3    3    0  502 -0.13153066165E+02 -0.58828684550E+02 -0.16500673693E+03  0.17573596816E+03  0.47000000000E+01 0. -1.
        -11    1    1    2    0    0 -0.58270808324E+02 -0.20061753851E+02 -0.87375256670E+02  0.10692238563E+03  0.00000000000E+00 0.  1.
         11    1    1    2    0    0  0.19936533908E+02  0.30696294241E+02 -0.76062903006E+02  0.84411451108E+02  0.00000000000E+00 0. -1.
<mgrwt>
<rscale>  0 0.12241541E+03</rscale>
<asrwt>0</asrwt>
<pdfrwt beam="2">  1        1 0.82745600E-01 0.13117984E+03</pdfrwt>
<pdfrwt beam="1">  1       -1 0.39819507E-02 0.13117984E+03</pdfrwt>
<totfact> 0.96413677E+03</totfact>
</mgrwt>
</event>
<event>
 7    1  0.5206756E-006  0.1359338E+03  0.7546771E-02  0.1231149E+00
          1   -1    0    0  501    0  0.00000000000E+00  0.00000000000E+00  0.72672668198E+03  0.72672668198E+03  0.00000000000E+00 0. -1.
         -1   -1    0    0    0  501 -0.00000000000E+00 -0.00000000000E+00 -0.28734502813E+02  0.28734502813E+02  0.00000000000E+00 0.  1.
         23    2    1    2    0    0  0.47985753148E+02 -0.23424369723E+02  0.58659264226E+03  0.60213696349E+03  0.12500664477E+03 0.  0.
          5    1    3    3  502    0 -0.11775150700E+02 -0.26178485395E+02  0.28145802576E+02  0.40475220497E+02  0.47000000000E+01 0. -1.
         -5    1    3    3    0  502  0.59760903848E+02  0.27541156723E+01  0.55844683969E+03  0.56166174299E+03  0.47000000000E+01 0. -1.
        -11    1    1    2    0    0  0.20798923562E+02  0.11236126056E+01  0.37997497004E+00  0.20832717240E+02  0.00000000000E+00 0.  1.
         11    1    1    2    0    0 -0.68784676710E+02  0.22300757118E+02  0.11101956194E+03  0.13249150407E+03  0.00000000000E+00 0. -1.
<mgrwt>
<rscale>  0 0.12754205E+03</rscale>
<asrwt>0</asrwt>
<pdfrwt beam="1">  1        1 0.11180409E+00 0.13593379E+03</pdfrwt>
<pdfrwt beam="2">  1       -1 0.44206933E-02 0.13593379E+03</pdfrwt>
<totfact> 0.54698244E+03</totfact>
</mgrwt>
</event>
<event>
 7    1  0.5206756E-006  0.1290139E+03  0.7546771E-02  0.1242913E+00
         -4   -1    0    0    0  501 -0.00000000000E+00  0.00000000000E+00  0.66517991982E+02  0.66517991982E+02  0.00000000000E+00 0. -1.
          4   -1    0    0  501    0  0.00000000000E+00 -0.00000000000E+00 -0.19530313878E+03  0.19530313878E+03  0.00000000000E+00 0.  1.
         23    2    1    2    0    0  0.23516956838E+02 -0.21568515414E+02 -0.90595699608E+02  0.15764568727E+03  0.12500533513E+03 0.  0.
          5    1    3    3  502    0 -0.20255232537E+02  0.41230467716E+02 -0.58446405364E+02  0.74486899608E+02  0.47000000000E+01 0.  1.
         -5    1    3    3    0  502  0.43772189375E+02 -0.62798983130E+02 -0.32149294244E+02  0.83158787661E+02  0.47000000000E+01 0.  1.
        -11    1    1    2    0    0 -0.21984334147E+02 -0.33877051062E+02 -0.23784813684E+02  0.46868783839E+02  0.00000000000E+00 0.  1.
         11    1    1    2    0    0 -0.15326226909E+01  0.55445566476E+02 -0.14404633505E+02  0.57306659653E+02  0.00000000000E+00 0. -1.
<mgrwt>
<rscale>  0 0.12011138E+03</rscale>
<asrwt>0</asrwt>
<pdfrwt beam="2">  1        4 0.30046636E-01 0.12901388E+03</pdfrwt>
<pdfrwt beam="1">  1       -4 0.10233537E-01 0.12901388E+03</pdfrwt>
<totfact> 0.12610854E+03</totfact>
</mgrwt>
</event>
<event>
 7    1  0.5206756E-006  0.3063811E+03  0.7546771E-02  0.1083563E+00
          2   -1    0    0  501    0  0.00000000000E+00  0.00000000000E+00  0.17568662557E+04  0.17568662557E+04  0.00000000000E+00 0. -1.
         -2   -1    0    0    0  501 -0.00000000000E+00 -0.00000000000E+00 -0.51553022841E+02  0.51553022841E+02  0.00000000000E+00 0.  1.
         23    2    1    2    0    0  0.54758248520E+02 -0.27430478300E+03  0.81800943505E+03  0.87350376827E+03  0.12501126983E+03 0.  0.
          5    1    3    3  502    0  0.44628375489E+02 -0.27724338377E+03  0.68990924429E+03  0.74488417966E+03  0.47000000000E+01 0.  1.
         -5    1    3    3    0  502  0.10129873032E+02  0.29386007636E+01  0.12810019076E+03  0.12861958861E+03  0.47000000000E+01 0.  1.
        -11    1    1    2    0    0 -0.39899114797E+02  0.82979698929E+02  0.18190903571E+03  0.20388346443E+03  0.00000000000E+00 0.  1.
         11    1    1    2    0    0 -0.14859133724E+02  0.19132508407E+03  0.70539476207E+03  0.73103204581E+03  0.00000000000E+00 0. -1.
<mgrwt>
<rscale>  0 0.30337921E+03</rscale>
<asrwt>0</asrwt>
<pdfrwt beam="1">  1        2 0.27028707E+00 0.30638113E+03</pdfrwt>
<pdfrwt beam="2">  1       -2 0.79312357E-02 0.30638113E+03</pdfrwt>
<totfact> 0.95321940E+02</totfact>
</mgrwt>
</event>
<event>
 7    1  0.5206756E-006  0.1843784E+03  0.7546771E-02  0.1170282E+00
         -2   -1    0    0    0  501 -0.00000000000E+00  0.00000000000E+00  0.14068443279E+03  0.14068443279E+03  0.00000000000E+00 0.  1.
          2   -1    0    0  501    0  0.00000000000E+00 -0.00000000000E+00 -0.32641931727E+03  0.32641931727E+03  0.00000000000E+00 0. -1.
         23    2    1    2    0    0  0.13532267206E+03 -0.76059936195E+01 -0.23745529285E+03  0.30063336284E+03  0.12500130415E+03 0.  0.
          5    1    3    3  502    0  0.12971561526E+03  0.65621064286E+01 -0.24904715727E+03  0.28091952340E+03  0.47000000000E+01 0.  1.
         -5    1    3    3    0  502  0.56070567930E+01 -0.14168100048E+02  0.11591864418E+02  0.19713839442E+02  0.47000000000E+01 0.  1.
        -11    1    1    2    0    0 -0.25208980019E+02  0.50939160800E+01  0.50100561252E+02  0.56316133500E+02  0.00000000000E+00 0.  1.
         11    1    1    2    0    0 -0.11011369204E+03  0.25120775395E+01  0.16198471240E+01  0.11015425372E+03  0.00000000000E+00 0. -1.
<mgrwt>
<rscale>  0 0.17746234E+03</rscale>
<asrwt>0</asrwt>
<pdfrwt beam="2">  1        2 0.50218356E-01 0.18437842E+03</pdfrwt>
<pdfrwt beam="1">  1       -2 0.21643759E-01 0.18437842E+03</pdfrwt>
<totfact> 0.18070160E+03</totfact>
</mgrwt>
</event>
<event>
 7    1  0.5206756E-006  0.1544501E+03  0.7546771E-02  0.1203397E+00
         -2   -1    0    0    0  501 -0.00000000000E+00  0.00000000000E+00  0.31194332737E+02  0.31194332737E+02  0.00000000000E+00 0. -1.
          2   -1    0    0  501    0  0.00000000000E+00 -0.00000000000E+00 -0.73536023448E+03  0.73536023448E+03  0.00000000000E+00 0.  1.
         23    2    1    2    0    0  0.90506116374E+02  0.61725035545E+01 -0.51455532721E+03  0.53723553234E+03  0.12500150215E+03 0.  0.
          5    1    3    3  502    0  0.10367299109E+03 -0.13202603845E+02 -0.49619437142E+03  0.50710289100E+03  0.47000000000E+01 0. -1.
         -5    1    3    3    0  502 -0.13166874712E+02  0.19375107400E+02 -0.18360955793E+02  0.30132641339E+02  0.47000000000E+01 0. -1.
        -11    1    1    2    0    0 -0.50992364796E+02 -0.23695868860E+02 -0.17480926231E+03  0.18363004563E+03  0.00000000000E+00 0.  1.
         11    1    1    2    0    0 -0.39513751578E+02  0.17523365305E+02 -0.14801312220E+02  0.45688989252E+02  0.00000000000E+00 0. -1.
<mgrwt>
<rscale>  0 0.14764514E+03</rscale>
<asrwt>0</asrwt>
<pdfrwt beam="2">  1        2 0.11313233E+00 0.15445010E+03</pdfrwt>
<pdfrwt beam="1">  1       -2 0.47991288E-02 0.15445010E+03</pdfrwt>
<totfact> 0.79732133E+03</totfact>
</mgrwt>
</event>
<event>
 7    1  0.5206756E-006  0.1291899E+03  0.7546771E-02  0.1242923E+00
         -1   -1    0    0    0  501 -0.00000000000E+00  0.00000000000E+00  0.32336690477E+03  0.32336690477E+03  0.00000000000E+00 0.  1.
          1   -1    0    0  501    0  0.00000000000E+00 -0.00000000000E+00 -0.40114910753E+02  0.40114910753E+02  0.00000000000E+00 0. -1.
         23    2    1    2    0    0 -0.31926392658E+02  0.68136040078E+01  0.13744994695E+03  0.18863330828E+03  0.12499726928E+03 0.  0.
          5    1    3    3  502    0 -0.41055786240E+02  0.77654807817E+01 -0.80141282705E+01  0.42804164838E+02  0.47000000000E+01 0.  1.
         -5    1    3    3    0  502  0.91293935819E+01 -0.95187677389E+00  0.14546407522E+03  0.14582914344E+03  0.47000000000E+01 0.  1.
        -11    1    1    2    0    0  0.37383701546E+02 -0.28228208527E+02  0.14538509463E+03  0.15274553558E+03  0.00000000000E+00 0.  1.
         11    1    1    2    0    0 -0.54573088877E+01  0.21414604519E+02  0.41695243139E+00  0.22102971663E+02  0.00000000000E+00 0. -1.
<mgrwt>
<rscale>  0 0.12010529E+03</rscale>
<asrwt>0</asrwt>
<pdfrwt beam="2">  1        1 0.61715249E-02 0.12918993E+03</pdfrwt>
<pdfrwt beam="1">  1       -1 0.49748753E-01 0.12918993E+03</pdfrwt>
<totfact> 0.49019686E+03</totfact>
</mgrwt>
</event>
<event>
 7    1  0.5206756E-006  0.1754387E+03  0.7546771E-02  0.1179325E+00
         -2   -1    0    0    0  501 -0.00000000000E+00  0.00000000000E+00  0.15014793381E+02  0.15014793381E+02  0.00000000000E+00 0.  1.
          2   -1    0    0  501    0  0.00000000000E+00 -0.00000000000E+00 -0.20041661404E+04  0.20041661404E+04  0.00000000000E+00 0. -1.
         23    2    1    2    0    0  0.10477692769E+03  0.64613369589E+02 -0.14159009398E+04  0.14267284927E+04  0.12500251452E+03 0.  0.
          5    1    3    3  502    0  0.12950358129E+03  0.69979706175E+02 -0.11063540665E+04  0.11161136803E+04  0.47000000000E+01 0. -1.
         -5    1    3    3    0  502 -0.24726653604E+02 -0.53663365865E+01 -0.30954687322E+03  0.31061481241E+03  0.47000000000E+01 0. -1.
        -11    1    1    2    0    0 -0.11573525365E+03 -0.46484067503E+02 -0.52737241849E+03  0.54191981441E+03  0.00000000000E+00 0. -1.
         11    1    1    2    0    0  0.10958325956E+02 -0.18129302086E+02 -0.45877988767E+02  0.50532626640E+02  0.00000000000E+00 0.  1.
<mgrwt>
<rscale>  0 0.16859157E+03</rscale>
<asrwt>0</asrwt>
<pdfrwt beam="2">  1        2 0.30833347E+00 0.17543865E+03</pdfrwt>
<pdfrwt beam="1">  1       -2 0.23099666E-02 0.17543865E+03</pdfrwt>
<totfact> 0.46067383E+03</totfact>
</mgrwt>
</event>
<event>
 7    1  0.5206756E-006  0.1735710E+03  0.7546771E-02  0.1180263E+00
         -3   -1    0    0    0  501 -0.00000000000E+00  0.00000000000E+00  0.33942464023E+02  0.33942464023E+02  0.00000000000E+00 0.  1.
          3   -1    0    0  501    0  0.00000000000E+00 -0.00000000000E+00 -0.96872577847E+03  0.96872577847E+03  0.00000000000E+00 0. -1.
         23    2    1    2    0    0  0.99905459506E+02  0.67241197931E+02 -0.71563290339E+03  0.73638125631E+03  0.12499769073E+03 0.  0.
          5    1    3    3  502    0 -0.19071123575E+01  0.31605527005E+02 -0.35783361824E+02  0.48011304900E+02  0.47000000000E+01 0. -1.
         -5    1    3    3    0  502  0.10181257186E+03  0.35635670926E+02 -0.67984954157E+03  0.68836995141E+03  0.47000000000E+01 0. -1.
        -11    1    1    2    0    0 -0.65609024672E+02 -0.81391291682E+02 -0.19715193125E+03  0.22315458874E+03  0.00000000000E+00 0.  1.
         11    1    1    2    0    0 -0.34296434834E+02  0.14150093751E+02 -0.21998479803E+02  0.43132397443E+02  0.00000000000E+00 0. -1.
<mgrwt>
<rscale>  0 0.16770435E+03</rscale>
<asrwt>0</asrwt>
<pdfrwt beam="2">  1        3 0.14903471E+00 0.17357103E+03</pdfrwt>
<pdfrwt beam="1">  1       -3 0.52219184E-02 0.17357103E+03</pdfrwt>
<totfact> 0.17904953E+02</totfact>
</mgrwt>
</event>
<event>
 7    1  0.5206756E-006  0.1645732E+03  0.7546771E-02  0.1190627E+00
          1   -1    0    0  501    0  0.00000000000E+00  0.00000000000E+00  0.94385082021E+03  0.94385082021E+03  0.00000000000E+00 0. -1.
         -1   -1    0    0    0  501 -0.00000000000E+00 -0.00000000000E+00 -0.27817151190E+02  0.27817151190E+02  0.00000000000E+00 0.  1.
         23    2    1    2    0    0  0.26865849484E+02  0.10360598805E+03  0.65139591720E+03  0.67186379839E+03  0.12501339130E+03 0.  0.
          5    1    3    3  502    0  0.69180500144E+02  0.45986117106E+02  0.23372401508E+03  0.24809205911E+03  0.47000000000E+01 0. -1.
         -5    1    3    3    0  502 -0.42314650660E+02  0.57619870948E+02  0.41767190212E+03  0.42377173927E+03  0.47000000000E+01 0. -1.
        -11    1    1    2    0    0  0.83760820993E+01 -0.58295524362E+02  0.48865150324E+02  0.76526660898E+02  0.00000000000E+00 0.  1.
         11    1    1    2    0    0 -0.35241931583E+02 -0.45310463692E+02  0.21577260149E+03  0.22327751212E+03  0.00000000000E+00 0. -1.
<mgrwt>
<rscale>  0 0.15830246E+03</rscale>
<asrwt>0</asrwt>
<pdfrwt beam="1">  1        1 0.14520779E+00 0.16457315E+03</pdfrwt>
<pdfrwt beam="2">  1       -1 0.42795624E-02 0.16457315E+03</pdfrwt>
<totfact> 0.38662797E+03</totfact>
</mgrwt>
</event>
<event>
 7    1  0.5206756E-006  0.1833406E+03  0.7546771E-02  0.1173640E+00
          2   -1    0    0  501    0  0.00000000000E+00  0.00000000000E+00  0.60605599422E+02  0.60605599422E+02  0.00000000000E+00 0. -1.
         -2   -1    0    0    0  501 -0.00000000000E+00 -0.00000000000E+00 -0.46626045456E+03  0.46626045456E+03  0.00000000000E+00 0.  1.
         23    2    1    2    0    0 -0.57911659809E+01  0.13402140438E+03 -0.18404102440E+03  0.25977850495E+03  0.12497399142E+03 0.  0.
          5    1    3    3  502    0  0.37703245444E+02  0.69551132532E+02 -0.25714257455E+02  0.83319912325E+02  0.47000000000E+01 0. -1.
         -5    1    3    3    0  502 -0.43494411425E+02  0.64470271853E+02 -0.15832676695E+03  0.17645859262E+03  0.47000000000E+01 0. -1.
        -11    1    1    2    0    0  0.27572483976E+02 -0.71045818757E+02 -0.15574744529E+03  0.17339266695E+03  0.00000000000E+00 0.  1.
         11    1    1    2    0    0 -0.21781317995E+02 -0.62975585627E+02 -0.65866385450E+02  0.93694882096E+02  0.00000000000E+00 0. -1.
<mgrwt>
<rscale>  0 0.17409828E+03</rscale>
<asrwt>0</asrwt>
<pdfrwt beam="1">  1        2 0.93239386E-02 0.18334059E+03</pdfrwt>
<pdfrwt beam="2">  1       -2 0.71732376E-01 0.18334059E+03</pdfrwt>
<totfact> 0.12468907E+03</totfact>
</mgrwt>
</event>
<event>
 7    1  0.5206756E-006  0.1680611E+03  0.7546771E-02  0.1186834E+00
          2   -1    0    0  501    0  0.00000000000E+00  0.00000000000E+00  0.10983270285E+04  0.10983270285E+04  0.00000000000E+00 0.  1.
         -2   -1    0    0    0  501 -0.00000000000E+00 -0.00000000000E+00 -0.25344867229E+02  0.25344867229E+02  0.00000000000E+00 0. -1.
         23    2    1    2    0    0 -0.11232081551E+03 -0.19527989794E+01  0.77177196524E+03  0.78985853016E+03  0.12499900924E+03 0.  0.
          5    1    3    3  502    0 -0.84910701563E+02  0.51551672686E+02  0.59063091050E+03  0.59894437524E+03  0.47000000000E+01 0. -1.
         -5    1    3    3    0  502 -0.27410113945E+02 -0.53504471665E+02  0.18114105474E+03  0.19091415492E+03  0.47000000000E+01 0. -1.
        -11    1    1    2    0    0  0.11912382571E+03 -0.12520869260E+02  0.29138508124E+03  0.31504368520E+03  0.00000000000E+00 0.  1.
         11    1    1    2    0    0 -0.68030102049E+01  0.14473668240E+02  0.98251147805E+01  0.18769680354E+02  0.00000000000E+00 0. -1.
<mgrwt>
<rscale>  0 0.16166150E+03</rscale>
<asrwt>0</asrwt>
<pdfrwt beam="1">  1        2 0.16897335E+00 0.16806109E+03</pdfrwt>
<pdfrwt beam="2">  1       -2 0.38992112E-02 0.16806109E+03</pdfrwt>
<totfact> 0.64254525E+03</totfact>
</mgrwt>
</event>
<event>
 7    1  0.5206756E-006  0.1675038E+03  0.7546771E-02  0.1191467E+00
          1   -1    0    0  501    0  0.00000000000E+00  0.00000000000E+00  0.14853208867E+03  0.14853208867E+03  0.00000000000E+00 0. -1.
         -1   -1    0    0    0  501 -0.00000000000E+00 -0.00000000000E+00 -0.15743545907E+03  0.15743545907E+03  0.00000000000E+00 0.  1.
         23    2    1    2    0    0 -0.97068934928E+02  0.54862884657E+02  0.27719453214E+02  0.16978186018E+03  0.12500079088E+03 0.  0.
          5    1    3    3  502    0 -0.32255619855E+02  0.54090068161E+02  0.68412399837E+02  0.93104816939E+02  0.47000000000E+01 0.  1.
         -5    1    3    3    0  502 -0.64813315073E+02  0.77281649563E+00 -0.40692946622E+02  0.76677043245E+02  0.47000000000E+01 0.  1.
        -11    1    1    2    0    0  0.25061582275E+02 -0.53186868490E+02 -0.11548069975E+02  0.59918977011E+02  0.00000000000E+00 0.  1.
         11    1    1    2    0    0  0.72007352652E+02 -0.16760161672E+01 -0.25074753639E+02  0.76266710538E+02  0.00000000000E+00 0. -1.
<mgrwt>
<rscale>  0 0.15757098E+03</rscale>
<asrwt>0</asrwt>
<pdfrwt beam="1">  1        1 0.22851091E-01 0.16750377E+03</pdfrwt>
<pdfrwt beam="2">  1       -1 0.24220840E-01 0.16750377E+03</pdfrwt>
<totfact> 0.30768201E+03</totfact>
</mgrwt>
</event>
<event>
 7    1  0.5206756E-006  0.2242431E+03  0.7546771E-02  0.1133987E+00
          1   -1    0    0  501    0  0.00000000000E+00  0.00000000000E+00  0.11344551851E+04  0.11344551851E+04  0.00000000000E+00 0. -1.
         -1   -1    0    0    0  501 -0.00000000000E+00 -0.00000000000E+00 -0.41117694262E+02  0.41117694262E+02  0.00000000000E+00 0.  1.
         23    2    1    2    0    0 -0.11873414955E+03 -0.14339024030E+03  0.59613513560E+03  0.63691607704E+03  0.12500571994E+03 0.  0.
          5    1    3    3  502    0 -0.12673575630E+03 -0.15163501471E+03  0.46606153642E+03  0.50625149416E+03  0.47000000000E+01 0.  1.
         -5    1    3    3    0  502  0.80016067542E+01  0.82447744097E+01  0.13007359918E+03  0.13066458288E+03  0.47000000000E+01 0.  1.
        -11    1    1    2    0    0  0.65809273675E+02  0.78169326282E+02  0.38601395390E+03  0.39930949986E+03  0.00000000000E+00 0. -1.
         11    1    1    2    0    0  0.52924875870E+02  0.65220914023E+02  0.11118840136E+03  0.13934730248E+03  0.00000000000E+00 0.  1.
<mgrwt>
<rscale>  0 0.21986108E+03</rscale>
<asrwt>0</asrwt>
<pdfrwt beam="1">  1        1 0.17453154E+00 0.22424315E+03</pdfrwt>
<pdfrwt beam="2">  1       -1 0.63258000E-02 0.22424315E+03</pdfrwt>
<totfact> 0.15716665E+03</totfact>
</mgrwt>
</event>
<event>
 7    1  0.5206756E-006  0.1438860E+03  0.7546771E-02  0.1218210E+00
          1   -1    0    0  501    0  0.00000000000E+00  0.00000000000E+00  0.53996104602E+03  0.53996104602E+03  0.00000000000E+00 0. -1.
         -1   -1    0    0    0  501 -0.00000000000E+00 -0.00000000000E+00 -0.34771555717E+02  0.34771555717E+02  0.00000000000E+00 0.  1.
         23    2    1    2    0    0  0.59940862943E+02  0.38531792565E+02  0.36646044371E+03  0.39369585798E+03  0.12500226279E+03 0.  0.
          5    1    3    3  502    0 -0.25469328722E+02  0.49340093089E+02  0.11342141810E+03  0.12637103931E+03  0.47000000000E+01 0. -1.
         -5    1    3    3    0  502  0.85410191665E+02 -0.10808300524E+02  0.25303902561E+03  0.26732481868E+03  0.47000000000E+01 0. -1.
        -11    1    1    2    0    0 -0.22846095000E+02 -0.65458815107E+02  0.95638621260E+02  0.11812513030E+03  0.00000000000E+00 0. -1.
         11    1    1    2    0    0 -0.37094767943E+02  0.26927022542E+02  0.43090425337E+02  0.62911613454E+02  0.00000000000E+00 0.  1.
<mgrwt>
<rscale>  0 0.13643326E+03</rscale>
<asrwt>0</asrwt>
<pdfrwt beam="1">  1        1 0.83070924E-01 0.14388597E+03</pdfrwt>
<pdfrwt beam="2">  1       -1 0.53494705E-02 0.14388597E+03</pdfrwt>
<totfact> 0.62393649E+03</totfact>
</mgrwt>
</event>
<event>
 7    1  0.5206756E-006  0.1989572E+03  0.7546771E-02  0.1155085E+00
          1   -1    0    0  501    0  0.00000000000E+00  0.00000000000E+00  0.61159214262E+03  0.61159214262E+03  0.00000000000E+00 0. -1.
         -1   -1    0    0    0  501 -0.00000000000E+00 -0.00000000000E+00 -0.58480045332E+02  0.58480045332E+02  0.00000000000E+00 0.  1.
         23    2    1    2    0    0  0.85723817942E+01 -0.15430455148E+03  0.28039240892E+03  0.34380790424E+03  0.12530200198E+03 0.  0.
          5    1    3    3  502    0  0.28587535223E+02  0.55109526435E+01  0.14405307463E+02  0.32821039780E+02  0.47000000000E+01 0.  1.
         -5    1    3    3    0  502 -0.20015153429E+02 -0.15981550413E+03  0.26598710145E+03  0.31098686446E+03  0.47000000000E+01 0.  1.
        -11    1    1    2    0    0  0.81453217285E+01  0.18246395818E+02 -0.11375102470E+01  0.20014273806E+02  0.00000000000E+00 0.  1.
         11    1    1    2    0    0 -0.16717703523E+02  0.13605815566E+03  0.27385719861E+03  0.30625000991E+03  0.00000000000E+00 0. -1.
<mgrwt>
<rscale>  0 0.19379212E+03</rscale>
<asrwt>0</asrwt>
<pdfrwt beam="1">  1        1 0.94091094E-01 0.19895721E+03</pdfrwt>
<pdfrwt beam="2">  1       -1 0.89969305E-02 0.19895721E+03</pdfrwt>
<totfact> 0.24373848E+03</totfact>
</mgrwt>
</event>
<event>
 6    1  0.5206756E-006  0.1513805E+03  0.7546771E-02  0.1218761E+00
          1   -1    0    0  501    0  0.00000000000E+00  0.00000000000E+00  0.56416741028E+03  0.56416741028E+03  0.00000000000E+00 0. -1.
         -1   -1    0    0    0  501 -0.00000000000E+00 -0.00000000000E+00 -0.49441988834E+02  0.49441988834E+02  0.00000000000E+00 0.  1.
          5    1    1    2  502    0 -0.35028904471E+02  0.46595019257E+02  0.47773546848E+03  0.48130176378E+03  0.47000000000E+01 0. -1.
         -5    1    1    2    0  502 -0.32532952018E+00 -0.27766293795E+02  0.10821611824E+02  0.30170684329E+02  0.47000000000E+01 0.  1.
        -11    1    1    2    0    0  0.33052263118E+01  0.35496229532E+02  0.90126655186E+01  0.36771387949E+02  0.00000000000E+00 0. -1.
         11    1    1    2    0    0  0.32049007679E+02 -0.54324954993E+02  0.17155675623E+02  0.65365563062E+02  0.00000000000E+00 0.  1.
<mgrwt>
<rscale>  0 0.13603862E+03</rscale>
<asrwt>0</asrwt>
<pdfrwt beam="1">  1        1 0.86794982E-01 0.15138046E+03</pdfrwt>
<pdfrwt beam="2">  1       -1 0.76064602E-02 0.15138046E+03</pdfrwt>
<totfact> 0.34827345E+03</totfact>
</mgrwt>
</event>
<event>
 7    1  0.5206756E-006  0.1353071E+03  0.7546771E-02  0.1231777E+00
          2   -1    0    0  501    0  0.00000000000E+00  0.00000000000E+00  0.33923562890E+03  0.33923562890E+03  0.00000000000E+00 0.  1.
         -2   -1    0    0    0  501 -0.00000000000E+00 -0.00000000000E+00 -0.53785110806E+02  0.53785110806E+02  0.00000000000E+00 0. -1.
         23    2    1    2    0    0 -0.48933302399E+02  0.17037491805E+02  0.24538496085E+03  0.28021738954E+03  0.12499304850E+03 0.  0.
          5    1    3    3  502    0 -0.25169429409E+02 -0.12122749747E+02  0.24030491606E+03  0.24196901438E+03  0.47000000000E+01 0. -1.
         -5    1    3    3    0  502 -0.23763872990E+02  0.29160241551E+02  0.50800447939E+01  0.38248375154E+02  0.47000000000E+01 0. -1.
        -11    1    1    2    0    0 -0.13789777128E+01 -0.14293419508E+02  0.57668891630E+02  0.59429828223E+02  0.00000000000E+00 0.  1.
         11    1    1    2    0    0  0.50312280112E+02 -0.27440722962E+01 -0.17603334393E+02  0.53373521943E+02  0.00000000000E+00 0. -1.
<mgrwt>
<rscale>  0 0.12713066E+03</rscale>
<asrwt>0</asrwt>
<pdfrwt beam="1">  1        2 0.52190095E-01 0.13530708E+03</pdfrwt>
<pdfrwt beam="2">  1       -2 0.82746326E-02 0.13530708E+03</pdfrwt>
<totfact> 0.81520184E+03</totfact>
</mgrwt>
</event>
<event>
 7    1  0.5206756E-006  0.1315285E+03  0.7546771E-02  0.1238176E+00
         -2   -1    0    0    0  501 -0.00000000000E+00  0.00000000000E+00  0.15692588901E+03  0.15692588901E+03  0.00000000000E+00 0. -1.
          2   -1    0    0  501    0  0.00000000000E+00 -0.00000000000E+00 -0.88413279945E+02  0.88413279945E+02  0.00000000000E+00 0.  1.
         23    2    1    2    0    0  0.27175944900E+02 -0.30480345294E+02  0.18235720977E+02  0.13278659428E+03  0.12502861540E+03 0.  0.
          5    1    3    3  502    0 -0.33459142656E+02 -0.49827498920E+02  0.30980125694E+02  0.67706366495E+02  0.47000000000E+01 0. -1.
         -5    1    3    3    0  502  0.60635087556E+02  0.19347153626E+02 -0.12744404717E+02  0.65080227781E+02  0.47000000000E+01 0. -1.
        -11    1    1    2    0    0 -0.60366224820E+02  0.30104155789E+02  0.32011867046E+02  0.74666598467E+02  0.00000000000E+00 0.  1.
         11    1    1    2    0    0  0.33190279920E+02  0.37618950489E+00  0.18265021038E+02  0.37885976208E+02  0.00000000000E+00 0. -1.
<mgrwt>
<rscale>  0 0.12303290E+03</rscale>
<asrwt>0</asrwt>
<pdfrwt beam="2">  1        2 0.13602043E-01 0.13152847E+03</pdfrwt>
<pdfrwt beam="1">  1       -2 0.24142444E-01 0.13152847E+03</pdfrwt>
<totfact> 0.62721740E+03</totfact>
</mgrwt>
</event>
<event>
 7    1  0.5206756E-006  0.1253243E+03  0.7546771E-02  0.1250112E+00
         -1   -1    0    0    0  501 -0.00000000000E+00  0.00000000000E+00  0.10039042579E+03  0.10039042579E+03  0.00000000000E+00 0.  1.
          1   -1    0    0  501    0  0.00000000000E+00 -0.00000000000E+00 -0.12790828894E+03  0.12790828894E+03  0.00000000000E+00 0. -1.
         23    2    1    2    0    0  0.33506721669E+01 -0.83597759124E+01 -0.48575729422E+02  0.13440898598E+03  0.12500024467E+03 0.  0.
          5    1    3    3  502    0  0.43220739246E+02  0.15668680702E+02  0.20842347696E+02  0.50695495987E+02  0.47000000000E+01 0. -1.
         -5    1    3    3    0  502 -0.39870067079E+02 -0.24028456614E+02 -0.69418077118E+02  0.83713489994E+02  0.47000000000E+01 0. -1.
        -11    1    1    2    0    0 -0.49327445603E+01 -0.30484200942E+02  0.40090205160E+02  0.50604772757E+02  0.00000000000E+00 0.  1.
         11    1    1    2    0    0  0.15820723934E+01  0.38843976855E+02 -0.19032338888E+02  0.43284955983E+02  0.00000000000E+00 0. -1.
<mgrwt>
<rscale>  0 0.11584547E+03</rscale>
<asrwt>0</asrwt>
<pdfrwt beam="2">  1        1 0.19678198E-01 0.12532428E+03</pdfrwt>
<pdfrwt beam="1">  1       -1 0.15444681E-01 0.12532428E+03</pdfrwt>
<totfact> 0.75234568E+03</totfact>
</mgrwt>
</event>
<event>
 7    1  0.2052185E-005  0.3330502E+03  0.7546771E-02  0.1070988E+00
         -2   -1    0    0    0  501 -0.00000000000E+00  0.00000000000E+00  0.13215100271E+03  0.13215100271E+03  0.00000000000E+00 0.  1.
          2   -1    0    0  501    0  0.00000000000E+00 -0.00000000000E+00 -0.81357926872E+03  0.81357926872E+03  0.00000000000E+00 0. -1.
         23    2    1    2    0    0  0.80023363826E+02 -0.29815146387E+03 -0.36302630815E+03  0.49265663288E+03  0.12499769337E+03 0.  0.
          5    1    3    3  502    0 -0.28054668998E+02 -0.13020352186E+03 -0.14440748240E+03  0.19650860676E+03  0.47000000000E+01 0. -1.
         -5    1    3    3    0  502  0.10807803282E+03 -0.16794794201E+03 -0.21861882575E+03  0.29614802612E+03  0.47000000000E+01 0. -1.
        -11    1    1    2    0    0 -0.28825038299E+02  0.73379208317E+02 -0.31179348109E+02  0.84779377178E+02  0.00000000000E+00 0.  1.
         11    1    1    2    0    0 -0.51198325526E+02  0.22477225555E+03 -0.28722260976E+03  0.36829426137E+03  0.00000000000E+00 0. -1.
<mgrwt>
<rscale>  0 0.33033692E+03</rscale>
<asrwt>0</asrwt>
<pdfrwt beam="2">  1        2 0.12516604E+00 0.33305023E+03</pdfrwt>
<pdfrwt beam="1">  1       -2 0.20330924E-01 0.33305023E+03</pdfrwt>
<totfact> 0.71003642E+02</totfact>
</mgrwt>
</event>
<event>
 7    1  0.5206756E-006  0.1502997E+03  0.7546771E-02  0.1209158E+00
         -2   -1    0    0    0  501 -0.00000000000E+00  0.00000000000E+00  0.33207229416E+03  0.33207229416E+03  0.00000000000E+00 0.  1.
          2   -1    0    0  501    0  0.00000000000E+00 -0.00000000000E+00 -0.56912485627E+02  0.56912485627E+02  0.00000000000E+00 0. -1.
         23    2    1    2    0    0  0.81576098689E+02 -0.17609133235E+02  0.13448660826E+03  0.20168452080E+03  0.12500102671E+03 0.  0.
          5    1    3    3  502    0  0.86176678688E+02  0.99562183785E+00  0.15232855195E+03  0.17508137809E+03  0.47000000000E+01 0. -1.
         -5    1    3    3    0  502 -0.46005799993E+01 -0.18604755073E+02 -0.17841943691E+02  0.26603142715E+02  0.47000000000E+01 0. -1.
        -11    1    1    2    0    0 -0.21015157799E+02 -0.35639494181E+02  0.62745236933E+02  0.75158333939E+02  0.00000000000E+00 0.  1.
         11    1    1    2    0    0 -0.60560940890E+02  0.53248627416E+02  0.77927963340E+02  0.11214192505E+03  0.00000000000E+00 0. -1.
<mgrwt>
<rscale>  0 0.14314565E+03</rscale>
<asrwt>0</asrwt>
<pdfrwt beam="2">  1        2 0.87557672E-02 0.15029969E+03</pdfrwt>
<pdfrwt beam="1">  1       -2 0.51088044E-01 0.15029969E+03</pdfrwt>
<totfact> 0.26937483E+03</totfact>
</mgrwt>
</event>
<event>
 7    1  0.5206756E-006  0.1140191E+03  0.7546771E-02  0.1263857E+00
          1   -1    0    0  501    0  0.00000000000E+00  0.00000000000E+00  0.45416604291E+03  0.45416604291E+03  0.00000000000E+00 0. -1.
         -1   -1    0    0    0  501 -0.00000000000E+00 -0.00000000000E+00 -0.26669023093E+02  0.26669023093E+02  0.00000000000E+00 0.  1.
         23    2    1    2    0    0 -0.53573494803E+01 -0.11296925143E+02  0.31570177573E+03  0.33566048684E+03  0.11333150276E+03 0.  0.
          5    1    3    3  502    0  0.22332436328E+02  0.42205771688E+02  0.19316251612E+03  0.19903244085E+03  0.47000000000E+01 0. -1.
         -5    1    3    3    0  502 -0.27689785808E+02 -0.53502696831E+02  0.12253925961E+03  0.13662804599E+03  0.47000000000E+01 0.  1.
        -11    1    1    2    0    0  0.34698934058E+02 -0.63574184003E+01  0.84090319564E+01  0.36264922610E+02  0.00000000000E+00 0.  1.
         11    1    1    2    0    0 -0.29341584577E+02  0.17654343543E+02  0.10338621213E+03  0.10890965655E+03  0.00000000000E+00 0. -1.
<mgrwt>
<rscale>  0 0.10824383E+03</rscale>
<asrwt>0</asrwt>
<pdfrwt beam="1">  1        1 0.69871693E-01 0.11401908E+03</pdfrwt>
<pdfrwt beam="2">  1       -1 0.41029270E-02 0.11401908E+03</pdfrwt>
<totfact> 0.11371695E+04</totfact>
</mgrwt>
</event>
<event>
 7    1  0.5206756E-006  0.1552072E+03  0.7546771E-02  0.1202193E+00
         -1   -1    0    0    0  501 -0.00000000000E+00  0.00000000000E+00  0.63857367305E+02  0.63857367305E+02  0.00000000000E+00 0.  1.
          1   -1    0    0  501    0  0.00000000000E+00 -0.00000000000E+00 -0.37178327632E+03  0.37178327632E+03  0.00000000000E+00 0. -1.
         23    2    1    2    0    0  0.15267814773E+02 -0.90724731151E+02 -0.24687675004E+03  0.29161173883E+03  0.12500077401E+03 0.  0.
          5    1    3    3  502    0  0.27575037892E+02  0.50513686981E+01 -0.21797052840E+01  0.28508597924E+02  0.47000000000E+01 0. -1.
         -5    1    3    3    0  502 -0.12307223119E+02 -0.95776099849E+02 -0.24469704475E+03  0.26310314091E+03  0.47000000000E+01 0. -1.
        -11    1    1    2    0    0  0.34486763030E+02  0.13890126569E+02 -0.28613308361E+02  0.46914750940E+02  0.00000000000E+00 0. -1.
         11    1    1    2    0    0 -0.49754577803E+02  0.76834604582E+02 -0.32435850616E+02  0.97114153854E+02  0.00000000000E+00 0.  1.
<mgrwt>
<rscale>  0 0.14860907E+03</rscale>
<asrwt>0</asrwt>
<pdfrwt beam="2">  1        1 0.57197427E-01 0.15520721E+03</pdfrwt>
<pdfrwt beam="1">  1       -1 0.98242104E-02 0.15520721E+03</pdfrwt>
<totfact> 0.40534519E+03</totfact>
</mgrwt>
</event>
<event>
 7    1  0.5206756E-006  0.1320140E+03  0.7546771E-02  0.1258257E+00
          2   -1    0    0  501    0  0.00000000000E+00  0.00000000000E+00  0.30621894913E+03  0.30621894913E+03  0.00000000000E+00 0.  1.
         -2   -1    0    0    0  501 -0.00000000000E+00 -0.00000000000E+00 -0.32902366748E+02  0.32902366748E+02  0.00000000000E+00 0. -1.
         23    2    1    2    0    0 -0.42455984957E+02  0.10326551907E+01  0.20404694152E+03  0.24302851914E+03  0.12499651889E+03 0.  0.
          5    1    3    3  502    0 -0.69228605522E+02 -0.12481363544E+02  0.20041750519E+03  0.21245623231E+03  0.47000000000E+01 0. -1.
         -5    1    3    3    0  502  0.26772620565E+02  0.13514018734E+02  0.36294363325E+01  0.30572286836E+02  0.47000000000E+01 0. -1.
        -11    1    1    2    0    0  0.23330005855E+02  0.94732558502E+01  0.18707401883E+01  0.25249384516E+02  0.00000000000E+00 0. -1.
         11    1    1    2    0    0  0.19125979102E+02 -0.10505911041E+02  0.67398900669E+02  0.70843412218E+02  0.00000000000E+00 0.  1.
<mgrwt>
<rscale>  0 0.11125856E+03</rscale>
<asrwt>0</asrwt>
<pdfrwt beam="1">  1        2 0.47110606E-01 0.13201404E+03</pdfrwt>
<pdfrwt beam="2">  1       -2 0.50619028E-02 0.13201404E+03</pdfrwt>
<totfact> 0.19170407E+04</totfact>
</mgrwt>
</event>
<event>
 7    1  0.5206756E-006  0.1251348E+03  0.7546771E-02  0.1249401E+00
         -3   -1    0    0    0  501 -0.00000000000E+00  0.00000000000E+00  0.98026950282E+02  0.98026950282E+02  0.00000000000E+00 0.  1.
          3   -1    0    0  501    0  0.00000000000E+00 -0.00000000000E+00 -0.12699800662E+03  0.12699800662E+03  0.00000000000E+00 0. -1.
         23    2    1    2    0    0 -0.10336132827E+01 -0.56632661084E+01 -0.39454564561E+02  0.13120735337E+03  0.12500226387E+03 0.  0.
          5    1    3    3  502    0 -0.52812120082E+01 -0.54620898582E+02  0.15618006461E+02  0.57248108161E+02  0.47000000000E+01 0. -1.
         -5    1    3    3    0  502  0.42475987255E+01  0.48957632474E+02 -0.55072571022E+02  0.73959245206E+02  0.47000000000E+01 0. -1.
        -11    1    1    2    0    0 -0.40962099169E+02 -0.75951698196E+00 -0.15743749611E+02  0.43890045411E+02  0.00000000000E+00 0.  1.
         11    1    1    2    0    0  0.41995712452E+02  0.64227830904E+01  0.26227257832E+02  0.49927558125E+02  0.00000000000E+00 0. -1.
<mgrwt>
<rscale>  0 0.11625789E+03</rscale>
<asrwt>0</asrwt>
<pdfrwt beam="2">  1        3 0.19538155E-01 0.12513476E+03</pdfrwt>
<pdfrwt beam="1">  1       -3 0.15081069E-01 0.12513476E+03</pdfrwt>
<totfact> 0.19441668E+03</totfact>
</mgrwt>
</event>
<event>
 7    1  0.5206756E-006  0.1340490E+03  0.7546771E-02  0.1232211E+00
          2   -1    0    0  501    0  0.00000000000E+00  0.00000000000E+00  0.58244621105E+03  0.58244621105E+03  0.00000000000E+00 0. -1.
         -2   -1    0    0    0  501 -0.00000000000E+00 -0.00000000000E+00 -0.25187145121E+02  0.25187145121E+02  0.00000000000E+00 0.  1.
         23    2    1    2    0    0  0.21283906210E+02 -0.43447823859E+02  0.33222750109E+03  0.35825163625E+03  0.12501361659E+03 0.  0.
          5    1    3    3  502    0  0.10813918780E+02  0.25446618621E+02  0.24456311564E+03  0.24616595778E+03  0.47000000000E+01 0. -1.
         -5    1    3    3    0  502  0.10469987430E+02 -0.68894442480E+02  0.87664385455E+02  0.11208567847E+03  0.47000000000E+01 0. -1.
        -11    1    1    2    0    0  0.13767962553E+01  0.64954809899E+02  0.91346711946E+02  0.11209480220E+03  0.00000000000E+00 0.  1.
         11    1    1    2    0    0 -0.22660702465E+02 -0.21506986040E+02  0.13368485289E+03  0.13728691772E+03  0.00000000000E+00 0. -1.
<mgrwt>
<rscale>  0 0.12684691E+03</rscale>
<asrwt>0</asrwt>
<pdfrwt beam="1">  1        2 0.89607099E-01 0.13404896E+03</pdfrwt>
<pdfrwt beam="2">  1       -2 0.38749459E-02 0.13404896E+03</pdfrwt>
<totfact> 0.14277255E+04</totfact>
</mgrwt>
</event>
<event>
 7    1  0.5206756E-006  0.1492811E+03  0.7546771E-02  0.1209823E+00
         -3   -1    0    0    0  501 -0.00000000000E+00  0.00000000000E+00  0.69862868719E+02  0.69862868719E+02  0.00000000000E+00 0.  1.
          3   -1    0    0  501    0  0.00000000000E+00 -0.00000000000E+00 -0.27235047390E+03  0.27235047390E+03  0.00000000000E+00 0. -1.
         23    2    1    2    0    0  0.66333256655E+02  0.47543242618E+02 -0.13161086693E+03  0.19901321223E+03  0.12499750994E+03 0.  0.
          5    1    3    3  502    0  0.57508603961E+01 -0.22949329144E+02  0.12726550934E+02  0.27272682342E+02  0.47000000000E+01 0.  1.
         -5    1    3    3    0  502  0.60582396258E+02  0.70492571762E+02 -0.14433741787E+03  0.17174052989E+03  0.47000000000E+01 0.  1.
        -11    1    1    2    0    0 -0.83702719733E+02 -0.56961863718E+02 -0.70615478792E+02  0.12343964134E+03  0.00000000000E+00 0. -1.
         11    1    1    2    0    0  0.17369463078E+02  0.94186210996E+01 -0.26125945867E+00  0.19760489051E+02  0.00000000000E+00 0.  1.
<mgrwt>
<rscale>  0 0.14263780E+03</rscale>
<asrwt>0</asrwt>
<pdfrwt beam="2">  1        3 0.41900073E-01 0.14928107E+03</pdfrwt>
<pdfrwt beam="1">  1       -3 0.10748134E-01 0.14928107E+03</pdfrwt>
<totfact> 0.86942636E+02</totfact>
</mgrwt>
</event>
<event>
 7    1  0.5206756E-006  0.1388533E+03  0.7546771E-02  0.1222770E+00
         -2   -1    0    0    0  501 -0.00000000000E+00  0.00000000000E+00  0.20636425918E+02  0.20636425918E+02  0.00000000000E+00 0. -1.
          2   -1    0    0  501    0  0.00000000000E+00 -0.00000000000E+00 -0.80170060003E+03  0.80170060003E+03  0.00000000000E+00 0.  1.
         23    2    1    2    0    0  0.18584192656E+02  0.57531333748E+02 -0.39083237620E+03  0.41476520950E+03  0.12500002459E+03 0.  0.
          5    1    3    3  502    0  0.52317157024E+02  0.48067599009E+02 -0.10566775639E+03  0.12741798827E+03  0.47000000000E+01 0.  1.
         -5    1    3    3    0  502 -0.33732964369E+02  0.94637347383E+01 -0.28516461981E+03  0.28734722123E+03  0.47000000000E+01 0.  1.
        -11    1    1    2    0    0  0.32378476034E+02 -0.40020616248E+02 -0.28207937623E+03  0.28673819057E+03  0.00000000000E+00 0.  1.
         11    1    1    2    0    0 -0.50962668689E+02 -0.17510717500E+02 -0.10815242168E+03  0.12083362588E+03  0.00000000000E+00 0. -1.
<mgrwt>
<rscale>  0 0.13320953E+03</rscale>
<asrwt>0</asrwt>
<pdfrwt beam="2">  1        2 0.12333853E+00 0.13885328E+03</pdfrwt>
<pdfrwt beam="1">  1       -2 0.31748354E-02 0.13885328E+03</pdfrwt>
<totfact> 0.13173662E+04</totfact>
</mgrwt>
</event>
<event>
 7    1  0.5206756E-006  0.1315981E+03  0.7546771E-02  0.1242410E+00
          1   -1    0    0  501    0  0.00000000000E+00  0.00000000000E+00  0.54266704136E+02  0.54266704136E+02  0.00000000000E+00 0. -1.
         -1   -1    0    0    0  501 -0.00000000000E+00 -0.00000000000E+00 -0.23797697524E+03  0.23797697524E+03  0.00000000000E+00 0.  1.
         23    2    1    2    0    0  0.11251126055E+02  0.39575499570E+02 -0.82624924716E+02  0.15538644942E+03  0.12500104990E+03 0.  0.
          5    1    3    3  502    0 -0.13192000989E+01  0.84359960607E+02 -0.47745783869E+02  0.97057164186E+02  0.47000000000E+01 0. -1.
         -5    1    3    3    0  502  0.12570326154E+02 -0.44784461037E+02 -0.34879140847E+02  0.58329285236E+02  0.47000000000E+01 0. -1.
        -11    1    1    2    0    0  0.15926939143E+02 -0.46033573536E+01 -0.89573135795E+02  0.91094483617E+02  0.00000000000E+00 0.  1.
         11    1    1    2    0    0 -0.27178065198E+02 -0.34972142217E+02 -0.11512210590E+02  0.45762746332E+02  0.00000000000E+00 0. -1.
<mgrwt>
<rscale>  0 0.12041735E+03</rscale>
<asrwt>0</asrwt>
<pdfrwt beam="1">  1        1 0.83487237E-02 0.13159814E+03</pdfrwt>
<pdfrwt beam="2">  1       -1 0.36611842E-01 0.13159814E+03</pdfrwt>
<totfact> 0.56262477E+03</totfact>
</mgrwt>
</event>
<event>
 7    1  0.5206756E-006  0.1262401E+03  0.7546771E-02  0.1246643E+00
          1   -1    0    0  501    0  0.00000000000E+00  0.00000000000E+00  0.25503280753E+03  0.25503280753E+03  0.00000000000E+00 0. -1.
         -1   -1    0    0    0  501 -0.00000000000E+00 -0.00000000000E+00 -0.59369030518E+02  0.59369030518E+02  0.00000000000E+00 0.  1.
         23    2    1    2    0    0  0.14234608870E+02  0.10218750034E+02  0.17575615828E+03  0.21639500666E+03  0.12501809785E+03 0.  0.
          5    1    3    3  502    0  0.28878167379E+02 -0.42711193768E+02  0.14344945462E+03  0.15250583811E+03  0.47000000000E+01 0. -1.
         -5    1    3    3    0  502 -0.14643558509E+02  0.52929943802E+02  0.32306703660E+02  0.63889168550E+02  0.47000000000E+01 0. -1.
        -11    1    1    2    0    0 -0.14871419064E+02  0.16370470106E+02  0.51892137977E+02  0.56408734964E+02  0.00000000000E+00 0. -1.
         11    1    1    2    0    0  0.63681019404E+00 -0.26589220140E+02 -0.31984519249E+02  0.41598096428E+02  0.00000000000E+00 0.  1.
<mgrwt>
<rscale>  0 0.11787584E+03</rscale>
<asrwt>0</asrwt>
<pdfrwt beam="1">  1        1 0.39235816E-01 0.12624014E+03</pdfrwt>
<pdfrwt beam="2">  1       -1 0.91336971E-02 0.12624014E+03</pdfrwt>
<totfact> 0.71463207E+03</totfact>
</mgrwt>
</event>
<event>
 7    1  0.5206756E-006  0.2344136E+03  0.7546771E-02  0.1126852E+00
          1   -1    0    0  501    0  0.00000000000E+00  0.00000000000E+00  0.50575576935E+03  0.50575576935E+03  0.00000000000E+00 0. -1.
         -1   -1    0    0    0  501 -0.00000000000E+00 -0.00000000000E+00 -0.12080716465E+03  0.12080716465E+03  0.00000000000E+00 0.  1.
         23    2    1    2    0    0 -0.25123055493E+02  0.19670705720E+03  0.32785241757E+03  0.40303468931E+03  0.12499967524E+03 0.  0.
          5    1    3    3  502    0  0.35094393798E+02  0.83772071552E+01  0.57929476691E+02  0.68408393823E+02  0.47000000000E+01 0. -1.
         -5    1    3    3    0  502 -0.60217449291E+02  0.18832985004E+03  0.26992294088E+03  0.33462629549E+03  0.47000000000E+01 0. -1.
        -11    1    1    2    0    0  0.20333276633E+02 -0.18779461391E+03  0.25810865429E+02  0.19064747553E+03  0.00000000000E+00 0.  1.
         11    1    1    2    0    0  0.47897788603E+01 -0.89124432905E+01  0.31285321701E+02  0.32880769165E+02  0.00000000000E+00 0. -1.
<mgrwt>
<rscale>  0 0.22969813E+03</rscale>
<asrwt>0</asrwt>
<pdfrwt beam="1">  1        1 0.77808579E-01 0.23441364E+03</pdfrwt>
<pdfrwt beam="2">  1       -1 0.18585718E-01 0.23441364E+03</pdfrwt>
<totfact> 0.10121711E+03</totfact>
</mgrwt>
</event>
<event>
 7    1  0.5206756E-006  0.1799772E+03  0.7546771E-02  0.1173687E+00
          3   -1    0    0  501    0  0.00000000000E+00  0.00000000000E+00  0.13542965697E+04  0.13542965697E+04  0.00000000000E+00 0. -1.
         -3   -1    0    0    0  501 -0.00000000000E+00 -0.00000000000E+00 -0.21183504643E+02  0.21183504643E+02  0.00000000000E+00 0.  1.
         23    2    1    2    0    0 -0.45502203380E+02  0.12123087291E+03  0.77208800434E+03  0.79278728523E+03  0.12499767247E+03 0.  0.
          5    1    3    3  502    0  0.37742435545E+02  0.19185281126E+02  0.11547990016E+03  0.12308640783E+03  0.47000000000E+01 0.  1.
         -5    1    3    3    0  502 -0.83244638925E+02  0.10204559178E+03  0.65660810418E+03  0.66970087740E+03  0.47000000000E+01 0.  1.
        -11    1    1    2    0    0 -0.18491379217E+02 -0.91591031738E+01  0.31420974723E+02  0.37591194831E+02  0.00000000000E+00 0.  1.
         11    1    1    2    0    0  0.63993582597E+02 -0.11207176974E+03  0.52960408601E+03  0.54510159430E+03  0.00000000000E+00 0. -1.
<mgrwt>
<rscale>  0 0.17405226E+03</rscale>
<asrwt>0</asrwt>
<pdfrwt beam="1">  1        3 0.20835325E+00 0.17997720E+03</pdfrwt>
<pdfrwt beam="2">  1       -3 0.32590018E-02 0.17997720E+03</pdfrwt>
<totfact> 0.15577095E+02</totfact>
</mgrwt>
</event>
<event>
 7    1  0.5206756E-006  0.1882096E+03  0.7546771E-02  0.1165256E+00
          1   -1    0    0  501    0  0.00000000000E+00  0.00000000000E+00  0.28766538886E+03  0.28766538886E+03  0.00000000000E+00 0. -1.
         -1   -1    0    0    0  501 -0.00000000000E+00 -0.00000000000E+00 -0.11548851013E+03  0.11548851013E+03  0.00000000000E+00 0.  1.
         23    2    1    2    0    0  0.18899098913E+02  0.13942991281E+03  0.13629607014E+03  0.23237782499E+03  0.12499983316E+03 0.  0.
          5    1    3    3  502    0 -0.20775011107E+02  0.47824920377E+02  0.12025971584E+03  0.13116140191E+03  0.47000000000E+01 0. -1.
         -5    1    3    3    0  502  0.39674110020E+02  0.91604992429E+02  0.16036354295E+02  0.10121642309E+03  0.47000000000E+01 0. -1.
        -11    1    1    2    0    0  0.30264185515E+02 -0.91925668980E+02  0.85689049761E+01  0.97157993366E+02  0.00000000000E+00 0.  1.
         11    1    1    2    0    0 -0.49163284428E+02 -0.47504243826E+02  0.27311903613E+02  0.73618080633E+02  0.00000000000E+00 0. -1.
<mgrwt>
<rscale>  0 0.18265731E+03</rscale>
<asrwt>0</asrwt>
<pdfrwt beam="1">  1        1 0.44256213E-01 0.18820955E+03</pdfrwt>
<pdfrwt beam="2">  1       -1 0.17767463E-01 0.18820955E+03</pdfrwt>
<totfact> 0.22305648E+03</totfact>
</mgrwt>
</event>
<event>
 7    1  0.5206756E-006  0.2017250E+03  0.7546771E-02  0.1153137E+00
         -1   -1    0    0    0  501 -0.00000000000E+00  0.00000000000E+00  0.91008862014E+02  0.91008862014E+02  0.00000000000E+00 0.  1.
          1   -1    0    0  501    0  0.00000000000E+00 -0.00000000000E+00 -0.40017584103E+03  0.40017584103E+03  0.00000000000E+00 0. -1.
         23    2    1    2    0    0 -0.51693781635E+01 -0.15824988857E+03 -0.15835832023E+03  0.25645726322E+03  0.12499288207E+03 0.  0.
          5    1    3    3  502    0 -0.40294978718E+02 -0.25782223311E+01 -0.20532038565E+02  0.45541049043E+02  0.47000000000E+01 0. -1.
         -5    1    3    3    0  502  0.35125600554E+02 -0.15567166624E+03 -0.13782628166E+03  0.21091621417E+03  0.47000000000E+01 0. -1.
        -11    1    1    2    0    0  0.17311584644E+02  0.14906621460E+03 -0.96717971977E+02  0.17853513212E+03  0.00000000000E+00 0.  1.
         11    1    1    2    0    0 -0.12142206480E+02  0.91836739693E+01 -0.54090686813E+02  0.56192307709E+02  0.00000000000E+00 0. -1.
<mgrwt>
<rscale>  0 0.19602447E+03</rscale>
<asrwt>0</asrwt>
<pdfrwt beam="2">  1        1 0.61565516E-01 0.20172499E+03</pdfrwt>
<pdfrwt beam="1">  1       -1 0.14001363E-01 0.20172499E+03</pdfrwt>
<totfact> 0.21517310E+03</totfact>
</mgrwt>
</event>
<event>
 7    1  0.5206756E-006  0.1257264E+03  0.7546771E-02  0.1249778E+00
          1   -1    0    0  501    0  0.00000000000E+00  0.00000000000E+00  0.51532239916E+02  0.51532239916E+02  0.00000000000E+00 0. -1.
         -1   -1    0    0    0  501 -0.00000000000E+00 -0.00000000000E+00 -0.23100394178E+03  0.23100394178E+03  0.00000000000E+00 0.  1.
         23    2    1    2    0    0 -0.70922788368E+01 -0.87717227080E+01 -0.11877955055E+03  0.17296157804E+03  0.12521933681E+03 0.  0.
          5    1    3    3  502    0 -0.13478150627E+02  0.19280570665E+02  0.19950901237E+02  0.31201432814E+02  0.47000000000E+01 0.  1.
         -5    1    3    3    0  502  0.63858717898E+01 -0.28052293373E+02 -0.13873045179E+03  0.14176014523E+03  0.47000000000E+01 0.  1.
        -11    1    1    2    0    0  0.16799320758E+02 -0.14993701549E+01 -0.82159639155E+02  0.83872949124E+02  0.00000000000E+00 0.  1.
         11    1    1    2    0    0 -0.97070419208E+01  0.10271092863E+02  0.21467487840E+02  0.25701654531E+02  0.00000000000E+00 0. -1.
<mgrwt>
<rscale>  0 0.11603933E+03</rscale>
<asrwt>0</asrwt>
<pdfrwt beam="1">  1        1 0.79280370E-02 0.12572639E+03</pdfrwt>
<pdfrwt beam="2">  1       -1 0.35539067E-01 0.12572639E+03</pdfrwt>
<totfact> 0.63244597E+03</totfact>
</mgrwt>
</event>
<event>
 7    1  0.5206756E-006  0.1252500E+03  0.7546771E-02  0.1241228E+00
         -2   -1    0    0    0  501 -0.00000000000E+00  0.00000000000E+00  0.23266894160E+03  0.23266894160E+03  0.00000000000E+00 0.  1.
          2   -1    0    0  501    0  0.00000000000E+00 -0.00000000000E+00 -0.62200986226E+02  0.62200986226E+02  0.00000000000E+00 0. -1.
         23    2    1    2    0    0 -0.35430891022E+01 -0.70259382704E+01  0.58675288124E+02  0.13831251451E+03  0.12500257975E+03 0.  0.
          5    1    3    3  502    0 -0.31500117324E+02 -0.49054151750E+02 -0.28936842593E+01  0.58557925202E+02  0.47000000000E+01 0.  1.
         -5    1    3    3    0  502  0.27957028222E+02  0.42028213480E+02  0.61568972384E+02  0.79754589308E+02  0.47000000000E+01 0.  1.
        -11    1    1    2    0    0 -0.96787799558E+01 -0.26914989891E+02 -0.93225472618E+01  0.30083306828E+02  0.00000000000E+00 0. -1.
         11    1    1    2    0    0  0.13221869058E+02  0.33940928161E+02  0.12111521452E+03  0.12647410649E+03  0.00000000000E+00 0.  1.
<mgrwt>
<rscale>  0 0.12114013E+03</rscale>
<asrwt>0</asrwt>
<pdfrwt beam="2">  1        2 0.95693826E-02 0.12525000E+03</pdfrwt>
<pdfrwt beam="1">  1       -2 0.35795221E-01 0.12525000E+03</pdfrwt>
<totfact> 0.47188063E+03</totfact>
</mgrwt>
</event>
<event>
 7    1  0.5206756E-006  0.1365201E+03  0.7546771E-02  0.1248049E+00
         -1   -1    0    0    0  501 -0.00000000000E+00  0.00000000000E+00  0.72652779387E+02  0.72652779387E+02  0.00000000000E+00 0.  1.
          1   -1    0    0  501    0  0.00000000000E+00 -0.00000000000E+00 -0.17502353230E+03  0.17502353230E+03  0.00000000000E+00 0. -1.
         23    2    1    2    0    0 -0.63955897129E+02 -0.27878231184E+02 -0.10745332786E+03  0.17373530625E+03  0.11734643760E+03 0.  0.
          5    1    3    3  502    0  0.21145967583E+02 -0.42111059498E+02 -0.22036386810E+02  0.52232036345E+02  0.47000000000E+01 0. -1.
         -5    1    3    3    0  502 -0.85101864712E+02  0.14232828314E+02 -0.85416941046E+02  0.12150326990E+03  0.47000000000E+01 0.  1.
        -11    1    1    2    0    0  0.18518234832E+02  0.20642392435E+02  0.28341542331E+01  0.27875900289E+02  0.00000000000E+00 0.  1.
         11    1    1    2    0    0  0.45437662296E+02  0.72358387497E+01  0.22484207049E+01  0.46065105156E+02  0.00000000000E+00 0. -1.
<mgrwt>
<rscale>  0 0.11704738E+03</rscale>
<asrwt>0</asrwt>
<pdfrwt beam="2">  1        1 0.26926697E-01 0.13652010E+03</pdfrwt>
<pdfrwt beam="1">  1       -1 0.11177351E-01 0.13652010E+03</pdfrwt>
<totfact> 0.84235287E+03</totfact>
</mgrwt>
</event>
<event>
 7    1  0.5206756E-006  0.1968475E+03  0.7546771E-02  0.1157389E+00
         -1   -1    0    0    0  501 -0.00000000000E+00  0.00000000000E+00  0.45683040028E+02  0.45683040028E+02  0.00000000000E+00 0.  1.
          1   -1    0    0  501    0  0.00000000000E+00 -0.00000000000E+00 -0.97822167677E+03  0.97822167677E+03  0.00000000000E+00 0. -1.
         23    2    1    2    0    0  0.13216079767E+03 -0.75219298854E+02 -0.73018026282E+03  0.75624873276E+03  0.12499804088E+03 0.  0.
          5    1    3    3  502    0  0.48140729500E+02  0.90113854025E+01 -0.70877058324E+02  0.86280833911E+02  0.47000000000E+01 0.  1.
         -5    1    3    3    0  502  0.84020068175E+02 -0.84230684256E+02 -0.65930320450E+03  0.66996789885E+03  0.47000000000E+01 0.  1.
        -11    1    1    2    0    0 -0.44497132829E+02  0.15275769730E+02 -0.13233722820E+03  0.14045100904E+03  0.00000000000E+00 0. -1.
         11    1    1    2    0    0 -0.87663664845E+02  0.59943529123E+02 -0.70021145718E+02  0.12720497500E+03  0.00000000000E+00 0.  1.
<mgrwt>
<rscale>  0 0.19119364E+03</rscale>
<asrwt>0</asrwt>
<pdfrwt beam="2">  1        1 0.15049564E+00 0.19684748E+03</pdfrwt>
<pdfrwt beam="1">  1       -1 0.70281602E-02 0.19684748E+03</pdfrwt>
<totfact> 0.17407639E+03</totfact>
</mgrwt>
</event>
<event>
 7    1  0.5206756E-006  0.1541511E+03  0.7546771E-02  0.1203794E+00
          4   -1    0    0  501    0  0.00000000000E+00  0.00000000000E+00  0.23611330274E+03  0.23611330274E+03  0.00000000000E+00 0.  1.
         -4   -1    0    0    0  501 -0.00000000000E+00 -0.00000000000E+00 -0.93006091000E+02  0.93006091000E+02  0.00000000000E+00 0. -1.
         23    2    1    2    0    0 -0.70256017432E+02  0.56559768342E+02  0.12653606493E+03  0.19943406682E+03  0.12501062314E+03 0.  0.
          5    1    3    3  502    0 -0.85926026390E+02 -0.45128818335E+01  0.96691762111E+02  0.12951847348E+03  0.47000000000E+01 0.  1.
         -5    1    3    3    0  502  0.15670008958E+02  0.61072650175E+02  0.29844302822E+02  0.69915593333E+02  0.47000000000E+01 0.  1.
        -11    1    1    2    0    0  0.39797024806E+02 -0.71860759003E+02  0.36840593504E+02  0.90027780144E+02  0.00000000000E+00 0. -1.
         11    1    1    2    0    0  0.30458992626E+02  0.15300990661E+02 -0.20269446698E+02  0.39657546778E+02  0.00000000000E+00 0.  1.
<mgrwt>
<rscale>  0 0.14732928E+03</rscale>
<asrwt>0</asrwt>
<pdfrwt beam="1">  1        4 0.36325123E-01 0.15415113E+03</pdfrwt>
<pdfrwt beam="2">  1       -4 0.14308630E-01 0.15415113E+03</pdfrwt>
<totfact> 0.51162735E+02</totfact>
</mgrwt>
</event>
<event>
 7    1  0.5206756E-006  0.1291698E+03  0.7546771E-02  0.1242332E+00
          2   -1    0    0  501    0  0.00000000000E+00  0.00000000000E+00  0.69812517303E+02  0.69812517303E+02  0.00000000000E+00 0. -1.
         -2   -1    0    0    0  501 -0.00000000000E+00 -0.00000000000E+00 -0.19134123782E+03  0.19134123782E+03  0.00000000000E+00 0.  1.
         23    2    1    2    0    0  0.19481831997E+02  0.25350852732E+02 -0.44134246070E+02  0.13650153980E+03  0.12515043420E+03 0.  0.
          5    1    3    3  502    0  0.80878169194E+01  0.53594313300E+02 -0.75152589996E+02  0.92778041495E+02  0.47000000000E+01 0.  1.
         -5    1    3    3    0  502  0.11394015078E+02 -0.28243460567E+02  0.31018343926E+02  0.43723498308E+02  0.47000000000E+01 0.  1.
        -11    1    1    2    0    0  0.11471770715E+02 -0.51010856070E+01  0.18223261223E+02  0.22129388769E+02  0.00000000000E+00 0. -1.
         11    1    1    2    0    0 -0.30953602712E+02 -0.20249767125E+02 -0.95617735670E+02  0.10252282655E+03  0.00000000000E+00 0.  1.
<mgrwt>
<rscale>  0 0.12046513E+03</rscale>
<asrwt>0</asrwt>
<pdfrwt beam="1">  1        2 0.10740387E-01 0.12916981E+03</pdfrwt>
<pdfrwt beam="2">  1       -2 0.29437113E-01 0.12916981E+03</pdfrwt>
<totfact> 0.58627742E+03</totfact>
</mgrwt>
</event>
<event>
 7    1  0.5206756E-006  0.1417831E+03  0.7546771E-02  0.1222022E+00
         -3   -1    0    0    0  501 -0.00000000000E+00  0.00000000000E+00  0.35893286652E+03  0.35893286652E+03  0.00000000000E+00 0.  1.
          3   -1    0    0  501    0  0.00000000000E+00 -0.00000000000E+00 -0.49519598080E+02  0.49519598080E+02  0.00000000000E+00 0. -1.
         23    2    1    2    0    0  0.57427070860E+02 -0.34335282934E+02  0.10929503729E+03  0.17901915282E+03  0.12500268709E+03 0.  0.
          5    1    3    3  502    0  0.66791665310E+02  0.32276724727E+02  0.58870734109E+02  0.94819654336E+02  0.47000000000E+01 0. -1.
         -5    1    3    3    0  502 -0.93645944493E+01 -0.66612007661E+02  0.50424303181E+02  0.84199498485E+02  0.47000000000E+01 0. -1.
        -11    1    1    2    0    0 -0.34679476729E+02  0.35616429570E+02  0.20057662849E+03  0.20664505815E+03  0.00000000000E+00 0.  1.
         11    1    1    2    0    0 -0.22747594131E+02 -0.12811466352E+01 -0.45839733781E+00  0.22788253631E+02  0.00000000000E+00 0. -1.
<mgrwt>
<rscale>  0 0.13373087E+03</rscale>
<asrwt>0</asrwt>
<pdfrwt beam="2">  1        3 0.76183999E-02 0.14178312E+03</pdfrwt>
<pdfrwt beam="1">  1       -3 0.55220439E-01 0.14178312E+03</pdfrwt>
<totfact> 0.87731899E+02</totfact>
</mgrwt>
</event>
<event>
 7    1  0.5206756E-006  0.1580614E+03  0.7546771E-02  0.1199491E+00
         -2   -1    0    0    0  501 -0.00000000000E+00  0.00000000000E+00  0.38359858944E+02  0.38359858944E+02  0.00000000000E+00 0.  1.
          2   -1    0    0  501    0  0.00000000000E+00 -0.00000000000E+00 -0.54592686733E+03  0.54592686733E+03  0.00000000000E+00 0. -1.
         23    2    1    2    0    0  0.91708848310E+02  0.30797050837E+02 -0.26224678571E+03  0.30619729473E+03  0.12499774191E+03 0.  0.
          5    1    3    3  502    0  0.37908306210E+02  0.12749681152E+01 -0.14618077444E+01  0.38247772553E+02  0.47000000000E+01 0. -1.
         -5    1    3    3    0  502  0.53800542100E+02  0.29522082722E+02 -0.26078497797E+03  0.26794952217E+03  0.47000000000E+01 0. -1.
        -11    1    1    2    0    0 -0.83095675302E+02 -0.55855546570E+02 -0.15996118712E+03  0.18871225376E+03  0.00000000000E+00 0.  1.
         11    1    1    2    0    0 -0.86131730081E+01  0.25058495733E+02 -0.85359035554E+02  0.89377177783E+02  0.00000000000E+00 0. -1.
<mgrwt>
<rscale>  0 0.15080225E+03</rscale>
<asrwt>0</asrwt>
<pdfrwt beam="2">  1        2 0.83988753E-01 0.15806140E+03</pdfrwt>
<pdfrwt beam="1">  1       -2 0.59015165E-02 0.15806140E+03</pdfrwt>
<totfact> 0.82573880E+03</totfact>
</mgrwt>
</event>
<event>
 7    1  0.5206756E-006  0.1580775E+03  0.7546771E-02  0.1198134E+00
          2   -1    0    0  501    0  0.00000000000E+00  0.00000000000E+00  0.22032622795E+03  0.22032622795E+03  0.00000000000E+00 0. -1.
         -2   -1    0    0    0  501 -0.00000000000E+00 -0.00000000000E+00 -0.10471636713E+03  0.10471636713E+03  0.00000000000E+00 0.  1.
         23    2    1    2    0    0  0.82352422499E+02 -0.50851917146E+02  0.10501424348E+03  0.18978010789E+03  0.12498263499E+03 0.  0.
          5    1    3    3  502    0  0.38662615188E+02  0.18750233834E+02  0.98071903169E+02  0.10717535758E+03  0.47000000000E+01 0.  1.
         -5    1    3    3    0  502  0.43689807311E+02 -0.69602150980E+02  0.69423403065E+01  0.82604750304E+02  0.47000000000E+01 0.  1.
        -11    1    1    2    0    0 -0.62349370815E+02 -0.55658106162E+00  0.38666557052E+02  0.73367952525E+02  0.00000000000E+00 0. -1.
         11    1    1    2    0    0 -0.20003051684E+02  0.51408498208E+02 -0.28070939712E+02  0.61894534662E+02  0.00000000000E+00 0.  1.
<mgrwt>
<rscale>  0 0.15191923E+03</rscale>
<asrwt>0</asrwt>
<pdfrwt beam="1">  1        2 0.33896343E-01 0.15807751E+03</pdfrwt>
<pdfrwt beam="2">  1       -2 0.16110210E-01 0.15807751E+03</pdfrwt>
<totfact> 0.45012818E+03</totfact>
</mgrwt>
</event>
<event>
 7    1  0.5206756E-006  0.1574313E+03  0.7546771E-02  0.1199277E+00
          2   -1    0    0  501    0  0.00000000000E+00  0.00000000000E+00  0.27712944746E+03  0.27712944746E+03  0.00000000000E+00 0.  1.
         -2   -1    0    0    0  501 -0.00000000000E+00 -0.00000000000E+00 -0.76922333182E+02  0.76922333182E+02  0.00000000000E+00 0. -1.
         23    2    1    2    0    0 -0.84835392446E+02  0.44293271554E+02  0.12574736084E+03  0.20148698622E+03  0.12500267654E+03 0.  0.
          5    1    3    3  502    0 -0.14810356154E+02 -0.37346878840E+02  0.67397148388E+01  0.41007923193E+02  0.47000000000E+01 0.  1.
         -5    1    3    3    0  502 -0.70025036292E+02  0.81640150394E+02  0.11900764600E+03  0.16047906303E+03  0.47000000000E+01 0.  1.
        -11    1    1    2    0    0  0.13333531407E+02  0.15269588208E+02  0.53445939187E+02  0.57161278847E+02  0.00000000000E+00 0.  1.
         11    1    1    2    0    0  0.71501861040E+02 -0.59562859762E+02  0.21013814259E+02  0.95403515579E+02  0.00000000000E+00 0. -1.
<mgrwt>
<rscale>  0 0.15097751E+03</rscale>
<asrwt>0</asrwt>
<pdfrwt beam="1">  1        2 0.42635299E-01 0.15743128E+03</pdfrwt>
<pdfrwt beam="2">  1       -2 0.11834205E-01 0.15743128E+03</pdfrwt>
<totfact> 0.58115417E+03</totfact>
</mgrwt>
</event>
<event>
 7    1  0.5206756E-006  0.1832701E+03  0.7546771E-02  0.1170024E+00
         -2   -1    0    0    0  501 -0.00000000000E+00  0.00000000000E+00  0.10441547293E+03  0.10441547293E+03  0.00000000000E+00 0.  1.
          2   -1    0    0  501    0  0.00000000000E+00 -0.00000000000E+00 -0.31704694986E+03  0.31704694986E+03  0.00000000000E+00 0. -1.
         23    2    1    2    0    0  0.13039556444E+03  0.30990755263E+02 -0.17850599998E+03  0.25583653098E+03  0.12499803366E+03 0.  0.
          5    1    3    3  502    0  0.30641770985E+02  0.60382574004E+02 -0.29358470271E+02  0.73952573648E+02  0.47000000000E+01 0.  1.
         -5    1    3    3    0  502  0.99753793456E+02 -0.29391818741E+02 -0.14914752971E+03  0.18188395734E+03  0.47000000000E+01 0.  1.
        -11    1    1    2    0    0 -0.33943657523E+02 -0.22890289326E+02  0.28909063182E+02  0.50118571064E+02  0.00000000000E+00 0. -1.
         11    1    1    2    0    0 -0.96451906918E+02 -0.81004659367E+01 -0.63034540123E+02  0.11550732074E+03  0.00000000000E+00 0.  1.
<mgrwt>
<rscale>  0 0.17772391E+03</rscale>
<asrwt>0</asrwt>
<pdfrwt beam="2">  1        2 0.48776454E-01 0.18327012E+03</pdfrwt>
<pdfrwt beam="1">  1       -2 0.16063919E-01 0.18327012E+03</pdfrwt>
<totfact> 0.30836401E+03</totfact>
</mgrwt>
</event>
<event>
 7    1  0.5206756E-006  0.1310056E+03  0.7546771E-02  0.1239499E+00
         -1   -1    0    0    0  501 -0.00000000000E+00  0.00000000000E+00  0.17832406970E+02  0.17832406970E+02  0.00000000000E+00 0.  1.
          1   -1    0    0  501    0  0.00000000000E+00 -0.00000000000E+00 -0.74775896064E+03  0.74775896064E+03  0.00000000000E+00 0. -1.
         23    2    1    2    0    0 -0.16720174403E+02 -0.35472108601E+02 -0.44538412743E+03  0.46425153522E+03  0.12499852905E+03 0.  0.
          5    1    3    3  502    0 -0.19820983045E+02  0.44777971306E+02 -0.20256829831E+03  0.20845609505E+03  0.47000000000E+01 0.  1.
         -5    1    3    3    0  502  0.31008086424E+01 -0.80250079907E+02 -0.24281582912E+03  0.25579544017E+03  0.47000000000E+01 0.  1.
        -11    1    1    2    0    0 -0.88024811542E-01 -0.27616801936E+02 -0.42805418760E+02  0.50941136351E+02  0.00000000000E+00 0.  1.
         11    1    1    2    0    0  0.16808199215E+02  0.63088910537E+02 -0.24173700748E+03  0.25039869604E+03  0.00000000000E+00 0. -1.
<mgrwt>
<rscale>  0 0.12220781E+03</rscale>
<asrwt>0</asrwt>
<pdfrwt beam="2">  1        1 0.11503983E+00 0.13100560E+03</pdfrwt>
<pdfrwt beam="1">  1       -1 0.27434476E-02 0.13100560E+03</pdfrwt>
<totfact> 0.10516982E+04</totfact>
</mgrwt>
</event>
<event>
 7    1  0.5206756E-006  0.1495949E+03  0.7546771E-02  0.1209089E+00
          1   -1    0    0  501    0  0.00000000000E+00  0.00000000000E+00  0.57997355069E+03  0.57997355069E+03  0.00000000000E+00 0. -1.
         -1   -1    0    0    0  501 -0.00000000000E+00 -0.00000000000E+00 -0.33970295280E+02  0.33970295280E+02  0.00000000000E+00 0.  1.
         23    2    1    2    0    0  0.82230354754E+02  0.12815512899E+01  0.35627808573E+03  0.38641001948E+03  0.12496061445E+03 0.  0.
          5    1    3    3  502    0  0.71132186003E+01 -0.25316051620E+02  0.25988897138E+03  0.26125823966E+03  0.47000000000E+01 0. -1.
         -5    1    3    3    0  502  0.75117136154E+02  0.26597602910E+02  0.96389114354E+02  0.12515177981E+03  0.47000000000E+01 0. -1.
        -11    1    1    2    0    0 -0.72402845712E+02 -0.23300065613E+02  0.63664533960E+02  0.99187892452E+02  0.00000000000E+00 0.  1.
         11    1    1    2    0    0 -0.98275090421E+01  0.22018514323E+02  0.12606063572E+03  0.12834593404E+03  0.00000000000E+00 0. -1.
<mgrwt>
<rscale>  0 0.14319807E+03</rscale>
<asrwt>0</asrwt>
<pdfrwt beam="1">  1        1 0.89226693E-01 0.14959488E+03</pdfrwt>
<pdfrwt beam="2">  1       -1 0.52261997E-02 0.14959488E+03</pdfrwt>
<totfact> 0.58811476E+03</totfact>
</mgrwt>
</event>
