<event>
 8    1  0.4798744E-006  0.2274594E+03  0.7561462E-02  0.1128441E+00
         -1   -1    0    0    0  501 -0.00000000000E+00  0.00000000000E+00  0.61698679235E+02  0.61698679235E+02  0.00000000000E+00 0.  1.
          1   -1    0    0  501    0  0.00000000000E+00 -0.00000000000E+00 -0.11082535822E+04  0.11082535822E+04  0.00000000000E+00 0. -1.
         23    2    1    2    0    0 -0.42648829365E+02  0.21508353111E+03 -0.33422999141E+03  0.41885702188E+03  0.12510663300E+03 0.  0.
         23    2    1    2    0    0  0.42648829365E+02 -0.21508353111E+03 -0.71232491156E+03  0.75109523955E+03  0.93045318288E+02 0.  0.
          5    1    3    3  502    0 -0.27863622966E+02  0.62769620948E+02 -0.21222684990E+03  0.22310113181E+03  0.41800000000E+01 0. -1.
         -5    1    3    3    0  502 -0.14785206399E+02  0.15231391016E+03 -0.12200314151E+03  0.19575589007E+03  0.41800000000E+01 0. -1.
        -11    1    4    4    0    0 -0.21005512382E+02 -0.25462408533E+02 -0.16732707991E+03  0.17055180289E+03  0.00000000000E+00 0.  1.
         11    1    4    4    0    0  0.63654341748E+02 -0.18962112258E+03 -0.54499783165E+03  0.58054343666E+03  0.00000000000E+00 0. -1.
</event>
<event>
 8    1  0.4798744E-006  0.3527227E+02  0.7561462E-02  0.1546196E+00
          3   -1    0    0  501    0  0.00000000000E+00  0.00000000000E+00  0.36015018183E+02  0.36015018183E+02  0.00000000000E+00 0.  1.
         -3   -1    0    0    0  501 -0.00000000000E+00 -0.00000000000E+00 -0.40881482174E+03  0.40881482174E+03  0.00000000000E+00 0. -1.
         23    2    1    2    0    0  0.17717023555E+02 -0.10706122720E+02 -0.29633240798E+03  0.32231802902E+03  0.12508997492E+03 0.  0.
         23    2    1    2    0    0 -0.17717023555E+02  0.10706122720E+02 -0.76467395579E+02  0.12251181091E+03  0.93452486524E+02 0.  0.
          5    1    3    3  502    0  0.11256176895E+02  0.95387270103E+01 -0.29996566994E+03  0.30035739441E+03  0.41800000000E+01 0. -1.
         -5    1    3    3    0  502  0.64608466594E+01 -0.20244849730E+02  0.36332619609E+01  0.21960634614E+02  0.41800000000E+01 0. -1.
        -11    1    4    4    0    0  0.46679061421E+01  0.10136196441E+02  0.20312049896E+02  0.23175659581E+02  0.00000000000E+00 0.  1.
         11    1    4    4    0    0 -0.22384929697E+02  0.56992627866E+00 -0.96779445475E+02  0.99336151325E+02  0.00000000000E+00 0. -1.
</event>
<event>
 8    1  0.4798744E-006  0.1439661E+03  0.7561462E-02  0.1208090E+00
          1   -1    0    0  501    0  0.00000000000E+00  0.00000000000E+00  0.20215783090E+03  0.20215783090E+03  0.00000000000E+00 0. -1.
         -1   -1    0    0    0  501 -0.00000000000E+00 -0.00000000000E+00 -0.11727042727E+03  0.11727042727E+03  0.00000000000E+00 0.  1.
         23    2    1    2    0    0  0.11574065104E+03 -0.21698626541E+01  0.51600795123E+02  0.17809441714E+03  0.12511743584E+03 0.  0.
         23    2    1    2    0    0 -0.11574065104E+03  0.21698626541E+01  0.33286608502E+02  0.14133384103E+03  0.73936795364E+02 0.  0.
          5    1    3    3  502    0  0.91827001439E+02  0.48745251560E+02  0.61444644821E+02  0.12083548535E+03  0.41800000000E+01 0. -1.
         -5    1    3    3    0  502  0.23913649598E+02 -0.50915114214E+02 -0.98438496985E+01  0.57258931787E+02  0.41800000000E+01 0. -1.
        -11    1    4    4    0    0 -0.92565228974E+02 -0.20773492378E+02  0.47101562050E+02  0.10591702766E+03  0.00000000000E+00 0. -1.
         11    1    4    4    0    0 -0.23175422064E+02  0.22943355032E+02 -0.13814953548E+02  0.35416813373E+02  0.00000000000E+00 0.  1.
</event>
<event>
 8    1  0.4798744E-006  0.1146881E+03  0.7561462E-02  0.1252126E+00
          1   -1    0    0  501    0  0.00000000000E+00  0.00000000000E+00  0.12216826156E+03  0.12216826156E+03  0.00000000000E+00 0. -1.
         -1   -1    0    0    0  501 -0.00000000000E+00 -0.00000000000E+00 -0.14266472006E+03  0.14266472006E+03  0.00000000000E+00 0.  1.
         23    2    1    2    0    0  0.30108851497E+02  0.23113246789E+02 -0.71846667131E+02  0.14916469971E+03  0.12508956370E+03 0.  0.
         23    2    1    2    0    0 -0.30108851497E+02 -0.23113246789E+02  0.51350208631E+02  0.11566828191E+03  0.96444504245E+02 0.  0.
          5    1    3    3  502    0 -0.47368189700E+02  0.16717762104E+02 -0.42612516258E+02  0.66003999175E+02  0.41800000000E+01 0.  1.
         -5    1    3    3    0  502  0.77477041196E+02  0.63954846852E+01 -0.29234150873E+02  0.83160700539E+02  0.41800000000E+01 0.  1.
        -11    1    4    4    0    0 -0.97411084462E+01  0.36679742701E+02  0.72690965412E+01  0.38641072487E+02  0.00000000000E+00 0.  1.
         11    1    4    4    0    0 -0.20367743051E+02 -0.59792989491E+02  0.44081112090E+02  0.77027209428E+02  0.00000000000E+00 0. -1.
</event>
<event>
 8    1  0.4798744E-006  0.1076826E+03  0.7561462E-02  0.1264923E+00
         -1   -1    0    0    0  501 -0.00000000000E+00  0.00000000000E+00  0.66000543656E+03  0.66000543656E+03  0.00000000000E+00 0.  1.
          1   -1    0    0  501    0  0.00000000000E+00 -0.00000000000E+00 -0.18884547775E+02  0.18884547775E+02  0.00000000000E+00 0. -1.
         23    2    1    2    0    0  0.35283396920E+01 -0.33197211937E+02  0.42319330335E+03  0.44255247071E+03  0.12508242591E+03 0.  0.
         23    2    1    2    0    0 -0.35283396920E+01  0.33197211937E+02  0.21792758544E+03  0.23633751363E+03  0.85138027876E+02 0.  0.
          5    1    3    3  502    0  0.53888839525E+01 -0.78293914942E+02  0.32553527682E+03  0.33488754238E+03  0.41800000000E+01 0. -1.
         -5    1    3    3    0  502 -0.18605442605E+01  0.45096703005E+02  0.97658026532E+02  0.10766492833E+03  0.41800000000E+01 0. -1.
        -11    1    4    4    0    0  0.97712517619E+01 -0.27565145041E+02  0.70558172529E+02  0.76379122100E+02  0.00000000000E+00 0.  1.
         11    1    4    4    0    0 -0.13299591454E+02  0.60762356978E+02  0.14736941291E+03  0.15995839153E+03  0.00000000000E+00 0. -1.
</event>
<event>
 8    1  0.4798744E-006  0.9228028E+02  0.7561462E-02  0.1297422E+00
         -1   -1    0    0    0  501 -0.00000000000E+00  0.00000000000E+00  0.34098489761E+03  0.34098489761E+03  0.00000000000E+00 0.  1.
          1   -1    0    0  501    0  0.00000000000E+00 -0.00000000000E+00 -0.43355219047E+02  0.43355219047E+02  0.00000000000E+00 0. -1.
         23    2    1    2    0    0  0.27283952979E+02 -0.38458699333E+02  0.21907432932E+03  0.25664083900E+03  0.12508985902E+03 0.  0.
         23    2    1    2    0    0 -0.27283952979E+02  0.38458699333E+02  0.78555349245E+02  0.12769927766E+03  0.88953229149E+02 0.  0.
          5    1    3    3  502    0  0.58844104970E+02  0.22640108347E+02  0.85145001517E+02  0.10602993388E+03  0.41800000000E+01 0. -1.
         -5    1    3    3    0  502 -0.31560151991E+02 -0.61098807680E+02  0.13392932780E+03  0.15061090512E+03  0.41800000000E+01 0. -1.
        -11    1    4    4    0    0 -0.17241205518E+02  0.56146630771E+01 -0.17798019788E+02  0.25407737357E+02  0.00000000000E+00 0. -1.
         11    1    4    4    0    0 -0.10042747460E+02  0.32844036255E+02  0.96353369033E+02  0.10229154031E+03  0.00000000000E+00 0.  1.
</event>
<event>
 8    1  0.4798744E-006  0.1813608E+03  0.7561462E-02  0.1166493E+00
         -1   -1    0    0    0  501 -0.00000000000E+00  0.00000000000E+00  0.10127859375E+03  0.10127859375E+03  0.00000000000E+00 0.  1.
          1   -1    0    0  501    0  0.00000000000E+00 -0.00000000000E+00 -0.38573819916E+03  0.38573819916E+03  0.00000000000E+00 0. -1.
         23    2    1    2    0    0  0.97136737824E+02 -0.12303184524E+03 -0.85734915299E+02  0.21811391341E+03  0.12510324832E+03 0.  0.
         23    2    1    2    0    0 -0.97136737824E+02  0.12303184524E+03 -0.19872469010E+03  0.26890287951E+03  0.90801296090E+02 0.  0.
          5    1    3    3  502    0  0.11452198564E+03 -0.96624010278E+02 -0.10297609836E+03  0.18185992904E+03  0.41800000000E+01 0.  1.
         -5    1    3    3    0  502 -0.17385247819E+02 -0.26407834962E+02  0.17241183058E+02  0.36253984365E+02  0.41800000000E+01 0.  1.
        -11    1    4    4    0    0 -0.64163813987E+01  0.80469249946E+02 -0.82071386397E+02  0.11511812456E+03  0.00000000000E+00 0.  1.
         11    1    4    4    0    0 -0.90720356426E+02  0.42562595294E+02 -0.11665330371E+03  0.15378475495E+03  0.00000000000E+00 0. -1.
</event>
<event>
 8    1  0.4798744E-006  0.7783358E+02  0.7561462E-02  0.1335314E+00
         -1   -1    0    0    0  501 -0.00000000000E+00  0.00000000000E+00  0.83138039286E+02  0.83138039286E+02  0.00000000000E+00 0.  1.
          1   -1    0    0  501    0  0.00000000000E+00 -0.00000000000E+00 -0.20568399231E+03  0.20568399231E+03  0.00000000000E+00 0. -1.
         23    2    1    2    0    0  0.23973086339E+02  0.64680321026E+02 -0.40550319723E+02  0.14849100583E+03  0.12508795939E+03 0.  0.
         23    2    1    2    0    0 -0.23973086339E+02 -0.64680321026E+02 -0.81995633303E+02  0.14033102577E+03  0.90616003644E+02 0.  0.
          5    1    3    3  502    0  0.19676879462E+02  0.11061533476E+02  0.43168531418E+02  0.48893063036E+02  0.41800000000E+01 0.  1.
         -5    1    3    3    0  502  0.42962068778E+01  0.53618787549E+02 -0.83718851142E+02  0.99597942792E+02  0.41800000000E+01 0.  1.
        -11    1    4    4    0    0  0.10202168092E+02 -0.20535673151E+02 -0.81328917576E+02  0.84499650530E+02  0.00000000000E+00 0. -1.
         11    1    4    4    0    0 -0.34175254431E+02 -0.44144647875E+02 -0.66671572622E+00  0.55831375241E+02  0.00000000000E+00 0.  1.
</event>
<event>
 8    1  0.4798744E-006  0.1103066E+03  0.7561462E-02  0.1260003E+00
          1   -1    0    0  501    0  0.00000000000E+00  0.00000000000E+00  0.41730250292E+02  0.41730250292E+02  0.00000000000E+00 0. -1.
         -1   -1    0    0    0  501 -0.00000000000E+00 -0.00000000000E+00 -0.40014123477E+03  0.40014123477E+03  0.00000000000E+00 0.  1.
         23    2    1    2    0    0 -0.44114725359E+02 -0.34195572923E+02 -0.27224476629E+03  0.30475777338E+03  0.12507854118E+03 0.  0.
         23    2    1    2    0    0  0.44114725359E+02  0.34195572923E+02 -0.86166218190E+02  0.13711371168E+03  0.90885128448E+02 0.  0.
          5    1    3    3  502    0 -0.67098665118E+02 -0.52741471763E+02 -0.25784794815E+03  0.27163749828E+03  0.41800000000E+01 0.  1.
         -5    1    3    3    0  502  0.22983939758E+02  0.18545898840E+02 -0.14396818141E+02  0.33120275107E+02  0.41800000000E+01 0.  1.
        -11    1    4    4    0    0 -0.53434201938E+01 -0.26505484391E+02 -0.32056987435E+02  0.41937373375E+02  0.00000000000E+00 0. -1.
         11    1    4    4    0    0  0.49458145553E+02  0.60701057314E+02 -0.54109230756E+02  0.95176338307E+02  0.00000000000E+00 0.  1.
</event>
<event>
 8    1  0.4798744E-006  0.1135068E+03  0.7561462E-02  0.1254210E+00
         -1   -1    0    0    0  501 -0.00000000000E+00  0.00000000000E+00  0.48267940076E+03  0.48267940076E+03  0.00000000000E+00 0.  1.
          1   -1    0    0  501    0  0.00000000000E+00 -0.00000000000E+00 -0.33410258683E+02  0.33410258683E+02  0.00000000000E+00 0. -1.
         23    2    1    2    0    0  0.29024540211E+02 -0.58491035064E+02  0.27361456189E+03  0.30785706641E+03  0.12508964682E+03 0.  0.
         23    2    1    2    0    0 -0.29024540211E+02  0.58491035064E+02  0.17565458019E+03  0.20823259304E+03  0.90789075030E+02 0.  0.
          5    1    3    3  502    0 -0.27271038703E+02  0.22193687615E+02  0.35294534613E+02  0.49994458647E+02  0.41800000000E+01 0. -1.
         -5    1    3    3    0  502  0.56295578914E+02 -0.80684722679E+02  0.23832002728E+03  0.25786260776E+03  0.41800000000E+01 0. -1.
        -11    1    4    4    0    0 -0.28332031402E+01  0.65863540664E+02  0.16722038362E+03  0.17974618140E+03  0.00000000000E+00 0.  1.
         11    1    4    4    0    0 -0.26191337070E+02 -0.73725055999E+01  0.84341965670E+01  0.28486411639E+02  0.00000000000E+00 0. -1.
</event>
<event>
 8    1  0.4798744E-006  0.1059851E+03  0.7561462E-02  0.1268191E+00
         -2   -1    0    0    0  501 -0.00000000000E+00  0.00000000000E+00  0.10684823912E+03  0.10684823912E+03  0.00000000000E+00 0.  1.
          2   -1    0    0  501    0  0.00000000000E+00 -0.00000000000E+00 -0.13316687463E+03  0.13316687463E+03  0.00000000000E+00 0. -1.
         23    2    1    2    0    0 -0.20573138951E+02 -0.45746801139E+02 -0.32726546938E+01  0.13482144445E+03  0.12510031076E+03 0.  0.
         23    2    1    2    0    0  0.20573138951E+02  0.45746801139E+02 -0.23045980820E+02  0.10519366930E+03  0.89546451460E+02 0.  0.
          5    1    3    3  502    0 -0.68722838662E+02 -0.44501895343E+02  0.14613224880E+02  0.83272240178E+02  0.41800000000E+01 0.  1.
         -5    1    3    3    0  502  0.48149699711E+02 -0.12449057959E+01 -0.17885879574E+02  0.51549204270E+02  0.41800000000E+01 0.  1.
        -11    1    4    4    0    0  0.41050620309E+02  0.13071198303E+02 -0.43770483020E+02  0.61415509740E+02  0.00000000000E+00 0. -1.
         11    1    4    4    0    0 -0.20477481358E+02  0.32675602835E+02  0.20724502200E+02  0.43778159564E+02  0.00000000000E+00 0.  1.
</event>
<event>
 8    1  0.4798744E-006  0.1205251E+03  0.7561462E-02  0.1242233E+00
         -2   -1    0    0    0  501 -0.00000000000E+00  0.00000000000E+00  0.94777627745E+02  0.94777627745E+02  0.00000000000E+00 0.  1.
          2   -1    0    0  501    0  0.00000000000E+00 -0.00000000000E+00 -0.27051993538E+03  0.27051993538E+03  0.00000000000E+00 0. -1.
         23    2    1    2    0    0 -0.98998409353E+01  0.10838707787E+03 -0.44914039080E+02  0.17178264105E+03  0.12508492859E+03 0.  0.
         23    2    1    2    0    0  0.98998409353E+01 -0.10838707787E+03 -0.13082826856E+03  0.19351492208E+03  0.92120701868E+02 0.  0.
          5    1    3    3  502    0 -0.30120154054E+02  0.92460882328E+02 -0.81435545568E+02  0.12690728475E+03  0.41800000000E+01 0. -1.
         -5    1    3    3    0  502  0.20220313118E+02  0.15926195542E+02  0.36521506488E+02  0.44875356301E+02  0.41800000000E+01 0. -1.
        -11    1    4    4    0    0  0.22875072714E+02 -0.99045095419E+02 -0.54126659229E+02  0.11516464352E+03  0.00000000000E+00 0.  1.
         11    1    4    4    0    0 -0.12975231779E+02 -0.93419824504E+01 -0.76701609329E+02  0.78350278554E+02  0.00000000000E+00 0. -1.
</event>
<event>
 8    1  0.4798744E-006  0.1665132E+03  0.7561462E-02  0.1181534E+00
         -1   -1    0    0    0  501 -0.00000000000E+00  0.00000000000E+00  0.11434572924E+03  0.11434572924E+03  0.00000000000E+00 0.  1.
          1   -1    0    0  501    0  0.00000000000E+00 -0.00000000000E+00 -0.30507065229E+03  0.30507065229E+03  0.00000000000E+00 0. -1.
         23    2    1    2    0    0 -0.10011769572E+03 -0.11191047114E+03 -0.77290636878E+02  0.21016549213E+03  0.12509270558E+03 0.  0.
         23    2    1    2    0    0  0.10011769572E+03  0.11191047114E+03 -0.11343428618E+03  0.20925088940E+03  0.91493665820E+02 0.  0.
          5    1    3    3  502    0 -0.74267040748E+02 -0.70737055818E+01  0.41792247096E+01  0.74836949239E+02  0.41800000000E+01 0. -1.
         -5    1    3    3    0  502 -0.25850654970E+02 -0.10483676556E+03 -0.81469861587E+02  0.13532854290E+03  0.41800000000E+01 0. -1.
        -11    1    4    4    0    0  0.76256570532E+02  0.81833185995E+02 -0.12634573591E+03  0.16874531063E+03  0.00000000000E+00 0. -1.
         11    1    4    4    0    0  0.23861125186E+02  0.30077285146E+02  0.12911449725E+02  0.40505578763E+02  0.00000000000E+00 0.  1.
</event>
<event>
 8    1  0.4798744E-006  0.1994711E+03  0.7561462E-02  0.1150186E+00
         -1   -1    0    0    0  501 -0.00000000000E+00  0.00000000000E+00  0.30849060031E+03  0.30849060031E+03  0.00000000000E+00 0.  1.
          1   -1    0    0  501    0  0.00000000000E+00 -0.00000000000E+00 -0.14731632115E+03  0.14731632115E+03  0.00000000000E+00 0. -1.
         23    2    1    2    0    0 -0.41424346028E+01 -0.17421263306E+03  0.14232578350E+03  0.25743251803E+03  0.12509065275E+03 0.  0.
         23    2    1    2    0    0  0.41424346028E+01  0.17421263306E+03  0.18848495661E+02  0.19837440343E+03  0.92897453481E+02 0.  0.
          5    1    3    3  502    0  0.47365141494E+02 -0.63900833706E+02  0.14687742410E+02  0.80993674779E+02  0.41800000000E+01 0. -1.
         -5    1    3    3    0  502 -0.51507576097E+02 -0.11031179936E+03  0.12763804109E+03  0.17643884325E+03  0.41800000000E+01 0. -1.
        -11    1    4    4    0    0 -0.44413924002E+02  0.81411539275E+02  0.84334209280E+01  0.93121200384E+02  0.00000000000E+00 0.  1.
         11    1    4    4    0    0  0.48556358605E+02  0.92801093788E+02  0.10415074733E+02  0.10525320304E+03  0.00000000000E+00 0. -1.
</event>
<event>
 8    1  0.4798744E-006  0.1253120E+03  0.7561462E-02  0.1234582E+00
         -2   -1    0    0    0  501 -0.00000000000E+00  0.00000000000E+00  0.37832228938E+02  0.37832228938E+02  0.00000000000E+00 0.  1.
          2   -1    0    0  501    0  0.00000000000E+00 -0.00000000000E+00 -0.59240832922E+03  0.59240832922E+03  0.00000000000E+00 0. -1.
         23    2    1    2    0    0 -0.66455998320E+02  0.67946749177E+02 -0.21830492240E+03  0.26895704177E+03  0.12509073001E+03 0.  0.
         23    2    1    2    0    0  0.66455998320E+02 -0.67946749177E+02 -0.33627117788E+03  0.36128351639E+03  0.91729568342E+02 0.  0.
          5    1    3    3  502    0 -0.43906731154E+02  0.94761094917E+02 -0.20702430309E+03  0.23191377842E+03  0.41800000000E+01 0.  1.
         -5    1    3    3    0  502 -0.22549267166E+02 -0.26814345741E+02 -0.11280619311E+02  0.37043263345E+02  0.41800000000E+01 0.  1.
        -11    1    4    4    0    0  0.60805284928E+02 -0.22212042352E+02 -0.90737272251E+02  0.11146259496E+03  0.00000000000E+00 0.  1.
         11    1    4    4    0    0  0.56507133919E+01 -0.45734706824E+02 -0.24553390563E+03  0.24982092143E+03  0.00000000000E+00 0. -1.
</event>
<event>
 8    1  0.4798744E-006  0.1448947E+03  0.7561462E-02  0.1206890E+00
          2   -1    0    0  501    0  0.00000000000E+00  0.00000000000E+00  0.21359241258E+03  0.21359241258E+03  0.00000000000E+00 0. -1.
         -2   -1    0    0    0  501 -0.00000000000E+00 -0.00000000000E+00 -0.12731181724E+03  0.12731181724E+03  0.00000000000E+00 0.  1.
         23    2    1    2    0    0  0.41912462381E+02  0.11583862680E+03  0.70831886770E+02  0.18931526715E+03  0.12509145546E+03 0.  0.
         23    2    1    2    0    0 -0.41912462381E+02 -0.11583862680E+03  0.15448708574E+02  0.15158896268E+03  0.86978785033E+02 0.  0.
          5    1    3    3  502    0 -0.21556071863E+02  0.67834621907E+01  0.58034905549E+02  0.62419566288E+02  0.41800000000E+01 0. -1.
         -5    1    3    3    0  502  0.63468534245E+02  0.10905516461E+03  0.12796981221E+02  0.12689570086E+03  0.41800000000E+01 0. -1.
        -11    1    4    4    0    0 -0.52626082742E+01 -0.10081046763E+03 -0.14428140014E+02  0.10197360764E+03  0.00000000000E+00 0.  1.
         11    1    4    4    0    0 -0.36649854107E+02 -0.15028159171E+02  0.29876848588E+02  0.49615355039E+02  0.00000000000E+00 0. -1.
</event>
<event>
 8    1  0.4798744E-006  0.7718534E+02  0.7561462E-02  0.1337234E+00
          2   -1    0    0  501    0  0.00000000000E+00  0.00000000000E+00  0.57193088930E+02  0.57193088930E+02  0.00000000000E+00 0. -1.
         -2   -1    0    0    0  501 -0.00000000000E+00 -0.00000000000E+00 -0.23348364324E+03  0.23348364324E+03  0.00000000000E+00 0.  1.
         23    2    1    2    0    0  0.30993491463E+02  0.93451203652E+01 -0.12925647977E+03  0.18276472833E+03  0.12509108909E+03 0.  0.
         23    2    1    2    0    0 -0.30993491463E+02 -0.93451203652E+01 -0.47034074542E+02  0.10791200384E+03  0.91568928234E+02 0.  0.
          5    1    3    3  502    0  0.39746960682E+02  0.43603968802E+02 -0.12175084797E+02  0.60389006190E+02  0.41800000000E+01 0. -1.
         -5    1    3    3    0  502 -0.87534692190E+01 -0.34258848437E+02 -0.11708139497E+03  0.12237572214E+03  0.41800000000E+01 0. -1.
        -11    1    4    4    0    0  0.11456968936E+02 -0.12613406592E+02  0.21374945351E+02  0.27335845548E+02  0.00000000000E+00 0. -1.
         11    1    4    4    0    0 -0.42450460400E+02  0.32682862269E+01 -0.68409019893E+02  0.80576158296E+02  0.00000000000E+00 0.  1.
</event>
<event>
 8    1  0.4798744E-006  0.8515460E+02  0.7561462E-02  0.1315029E+00
          2   -1    0    0  501    0  0.00000000000E+00  0.00000000000E+00  0.63464567181E+03  0.63464567181E+03  0.00000000000E+00 0. -1.
         -2   -1    0    0    0  501 -0.00000000000E+00 -0.00000000000E+00 -0.15569358248E+02  0.15569358248E+02  0.00000000000E+00 0.  1.
         23    2    1    2    0    0 -0.35927797244E+01 -0.11250529486E+02  0.40238886484E+03  0.42155051192E+03  0.12509417683E+03 0.  0.
         23    2    1    2    0    0  0.35927797244E+01  0.11250529486E+02  0.21668744873E+03  0.22866451814E+03  0.72073080553E+02 0.  0.
          5    1    3    3  502    0  0.49706701701E+02 -0.64560278525E+01  0.31501647738E+03  0.31900672392E+03  0.41800000000E+01 0. -1.
         -5    1    3    3    0  502 -0.53299481426E+02 -0.47945016334E+01  0.87372387460E+02  0.10254378800E+03  0.41800000000E+01 0. -1.
        -11    1    4    4    0    0  0.25487529280E+02 -0.16966353000E+02  0.14919978747E+03  0.15230905378E+03  0.00000000000E+00 0. -1.
         11    1    4    4    0    0 -0.21894749556E+02  0.28216882486E+02  0.67487661262E+02  0.76355464363E+02  0.00000000000E+00 0.  1.
</event>
<event>
 8    1  0.4798744E-006  0.1047907E+03  0.7561462E-02  0.1270532E+00
         -2   -1    0    0    0  501 -0.00000000000E+00  0.00000000000E+00  0.94481103135E+03  0.94481103135E+03  0.00000000000E+00 0.  1.
          2   -1    0    0  501    0  0.00000000000E+00 -0.00000000000E+00 -0.15615032127E+02  0.15615032127E+02  0.00000000000E+00 0. -1.
         23    2    1    2    0    0  0.19721497961E+02  0.13683907102E+02  0.71336009771E+03  0.72464591525E+03  0.12511149700E+03 0.  0.
         23    2    1    2    0    0 -0.19721497961E+02 -0.13683907102E+02  0.21583590150E+03  0.23578014822E+03  0.91820232640E+02 0.  0.
          5    1    3    3  502    0 -0.17148223628E+02 -0.49205592514E+02  0.36416317950E+03  0.36789610709E+03  0.41800000000E+01 0.  1.
         -5    1    3    3    0  502  0.36869721589E+02  0.62889499616E+02  0.34919691822E+03  0.35674980816E+03  0.41800000000E+01 0.  1.
        -11    1    4    4    0    0 -0.34833072435E+02 -0.40552758194E+02  0.18339840409E+03  0.19103100208E+03  0.00000000000E+00 0.  1.
         11    1    4    4    0    0  0.15111574474E+02  0.26868851092E+02  0.32437497418E+02  0.44749146146E+02  0.00000000000E+00 0. -1.
</event>
<event>
 8    1  0.4798744E-006  0.8956138E+02  0.7561462E-02  0.1303917E+00
         -1   -1    0    0    0  501 -0.00000000000E+00  0.00000000000E+00  0.22595033258E+02  0.22595033258E+02  0.00000000000E+00 0.  1.
          1   -1    0    0  501    0  0.00000000000E+00 -0.00000000000E+00 -0.55570799379E+03  0.55570799379E+03  0.00000000000E+00 0. -1.
         23    2    1    2    0    0  0.90092629037E+01  0.57118668236E+01 -0.26375526121E+03  0.29314757566E+03  0.12749459227E+03 0.  0.
         23    2    1    2    0    0 -0.90092629037E+01 -0.57118668236E+01 -0.26935769932E+03  0.28515545138E+03  0.92985316217E+02 0.  0.
          5    1    3    3  502    0  0.55011470313E+02  0.45798631754E+01 -0.50463587388E+02  0.74908497948E+02  0.41800000000E+01 0. -1.
         -5    1    3    3    0  502 -0.46002207410E+02  0.11320036483E+01 -0.21329167382E+03  0.21823907771E+03  0.41800000000E+01 0.  1.
        -11    1    4    4    0    0 -0.38603085047E+02 -0.21320613574E+02 -0.68074316570E+02  0.81110291054E+02  0.00000000000E+00 0.  1.
         11    1    4    4    0    0  0.29593822143E+02  0.15608746751E+02 -0.20128338275E+03  0.20404516033E+03  0.00000000000E+00 0. -1.
</event>
<event>
 8    1  0.4798744E-006  0.1216874E+03  0.7561462E-02  0.1240339E+00
         -3   -1    0    0    0  501 -0.00000000000E+00  0.00000000000E+00  0.29266872811E+03  0.29266872811E+03  0.00000000000E+00 0.  1.
          3   -1    0    0  501    0  0.00000000000E+00 -0.00000000000E+00 -0.75581371758E+02  0.75581371758E+02  0.00000000000E+00 0. -1.
         23    2    1    2    0    0  0.83589178684E+02  0.14120161186E+02  0.18653695867E+03  0.24006347402E+03  0.12509158591E+03 0.  0.
         23    2    1    2    0    0 -0.83589178684E+02 -0.14120161186E+02  0.30550397683E+02  0.12818662585E+03  0.91169921040E+02 0.  0.
          5    1    3    3  502    0  0.94905024417E+02 -0.12416325378E+02  0.66711601115E+02  0.11674347484E+03  0.41800000000E+01 0.  1.
         -5    1    3    3    0  502 -0.11315845733E+02  0.26536486564E+02  0.11982535755E+03  0.12331999918E+03  0.41800000000E+01 0.  1.
        -11    1    4    4    0    0  0.91196954719E+01 -0.23529447837E+02  0.23912949731E+02  0.34765398399E+02  0.00000000000E+00 0.  1.
         11    1    4    4    0    0 -0.92708874155E+02  0.94092866511E+01  0.66374479523E+01  0.93421227447E+02  0.00000000000E+00 0. -1.
</event>
<event>
 8    1  0.4798744E-006  0.9964074E+02  0.7561462E-02  0.1281053E+00
         -1   -1    0    0    0  501 -0.00000000000E+00  0.00000000000E+00  0.90301817441E+02  0.90301817441E+02  0.00000000000E+00 0.  1.
          1   -1    0    0  501    0  0.00000000000E+00 -0.00000000000E+00 -0.14969733930E+03  0.14969733930E+03  0.00000000000E+00 0. -1.
         23    2    1    2    0    0 -0.42272673238E+02  0.19642508419E+01 -0.24930179022E+02  0.13438748361E+03  0.12509054617E+03 0.  0.
         23    2    1    2    0    0  0.42272673238E+02 -0.19642508419E+01 -0.34465342841E+02  0.10561167313E+03  0.90416416986E+02 0.  0.
          5    1    3    3  502    0  0.28611032970E+02  0.11106602929E+02 -0.49758346878E+02  0.58611545964E+02  0.41800000000E+01 0. -1.
         -5    1    3    3    0  502 -0.70883706208E+02 -0.91423520873E+01  0.24828167856E+02  0.75775937649E+02  0.41800000000E+01 0. -1.
        -11    1    4    4    0    0 -0.17444023321E+02 -0.26850366404E+02 -0.24136908511E+02  0.40097711632E+02  0.00000000000E+00 0.  1.
         11    1    4    4    0    0  0.59716696559E+02  0.24886115562E+02 -0.10328434329E+02  0.65513961500E+02  0.00000000000E+00 0. -1.
</event>
<event>
 8    1  0.4798744E-006  0.1590586E+03  0.7561462E-02  0.1189764E+00
          3   -1    0    0  501    0  0.00000000000E+00  0.00000000000E+00  0.65712393057E+02  0.65712393057E+02  0.00000000000E+00 0. -1.
         -3   -1    0    0    0  501 -0.00000000000E+00 -0.00000000000E+00 -0.41122434333E+03  0.41122434333E+03  0.00000000000E+00 0.  1.
         23    2    1    2    0    0  0.10609256695E+03 -0.56194847002E+02 -0.14855894099E+03  0.22831707373E+03  0.12508170777E+03 0.  0.
         23    2    1    2    0    0 -0.10609256695E+03  0.56194847002E+02 -0.19695300929E+03  0.24861966266E+03  0.92777988782E+02 0.  0.
          5    1    3    3  502    0  0.13717208181E+01 -0.62318965688E+02 -0.28019562948E+02  0.68469726232E+02  0.41800000000E+01 0.  1.
         -5    1    3    3    0  502  0.10472084613E+03  0.61241186866E+01 -0.12053937804E+03  0.15984734750E+03  0.41800000000E+01 0.  1.
        -11    1    4    4    0    0  0.89382033250E+01  0.31851437818E+02 -0.31795761042E+02  0.45884376317E+02  0.00000000000E+00 0.  1.
         11    1    4    4    0    0 -0.11503077027E+03  0.24343409183E+02 -0.16515724825E+03  0.20273528634E+03  0.00000000000E+00 0. -1.
</event>
<event>
 8    1  0.4798744E-006  0.2406383E+03  0.7561462E-02  0.1119368E+00
         -2   -1    0    0    0  501 -0.00000000000E+00  0.00000000000E+00  0.23574770595E+03  0.23574770595E+03  0.00000000000E+00 0.  1.
          2   -1    0    0  501    0  0.00000000000E+00 -0.00000000000E+00 -0.29134976684E+03  0.29134976684E+03  0.00000000000E+00 0. -1.
         23    2    1    2    0    0 -0.22106738954E+03  0.37353006167E+02  0.52230701825E+02  0.26199107394E+03  0.12508092909E+03 0.  0.
         23    2    1    2    0    0  0.22106738954E+03 -0.37353006167E+02 -0.10783276271E+03  0.26510639884E+03  0.91583078165E+02 0.  0.
          5    1    3    3  502    0 -0.16435967950E+03 -0.12919945741E+02 -0.79761238855E+01  0.16511244712E+03  0.41800000000E+01 0.  1.
         -5    1    3    3    0  502 -0.56707710045E+02  0.50272951908E+02  0.60206825711E+02  0.96878626818E+02  0.41800000000E+01 0.  1.
        -11    1    4    4    0    0  0.88083931917E+02 -0.58589267223E+02 -0.63220402258E+02  0.12324082342E+03  0.00000000000E+00 0.  1.
         11    1    4    4    0    0  0.13298345762E+03  0.21236261056E+02 -0.44612360454E+02  0.14186557542E+03  0.00000000000E+00 0. -1.
</event>
<event>
 8    1  0.4798744E-006  0.1002235E+03  0.7561462E-02  0.1279827E+00
          3   -1    0    0  501    0  0.00000000000E+00  0.00000000000E+00  0.22810613314E+03  0.22810613314E+03  0.00000000000E+00 0. -1.
         -3   -1    0    0    0  501 -0.00000000000E+00 -0.00000000000E+00 -0.64911322124E+02  0.64911322124E+02  0.00000000000E+00 0.  1.
         23    2    1    2    0    0 -0.11358128192E+02 -0.51875526803E+02  0.10720237142E+03  0.17308976252E+03  0.12509052759E+03 0.  0.
         23    2    1    2    0    0  0.11358128192E+02  0.51875526803E+02  0.55992439599E+02  0.11992769275E+03  0.91800984954E+02 0.  0.
          5    1    3    3  502    0 -0.19033033606E+02 -0.72622648996E+02  0.12398933246E+03  0.14500735319E+03  0.41800000000E+01 0. -1.
         -5    1    3    3    0  502  0.76749054136E+01  0.20747122193E+02 -0.16786961043E+02  0.28082409325E+02  0.41800000000E+01 0. -1.
        -11    1    4    4    0    0 -0.38434685628E+02  0.27800011209E+02  0.40809322628E+02  0.62573688527E+02  0.00000000000E+00 0. -1.
         11    1    4    4    0    0  0.49792813820E+02  0.24075515594E+02  0.15183116970E+02  0.57354004220E+02  0.00000000000E+00 0.  1.
</event>
<event>
 8    1  0.4798744E-006  0.9025968E+02  0.7561462E-02  0.1302224E+00
         -1   -1    0    0    0  501 -0.00000000000E+00  0.00000000000E+00  0.37993833943E+02  0.37993833943E+02  0.00000000000E+00 0.  1.
          1   -1    0    0  501    0  0.00000000000E+00 -0.00000000000E+00 -0.35500592844E+03  0.35500592844E+03  0.00000000000E+00 0. -1.
         23    2    1    2    0    0 -0.22423418900E+02  0.13557417134E+01 -0.12078649967E+03  0.17532181122E+03  0.12507482255E+03 0.  0.
         23    2    1    2    0    0  0.22423418900E+02 -0.13557417134E+01 -0.19622559482E+03  0.21767795116E+03  0.91512614469E+02 0.  0.
          5    1    3    3  502    0 -0.26609697536E+01 -0.49089663124E+02 -0.78058339107E+01  0.49952769980E+02  0.41800000000E+01 0.  1.
         -5    1    3    3    0  502 -0.19762449147E+02  0.50445404837E+02 -0.11298066576E+03  0.12536904124E+03  0.41800000000E+01 0.  1.
        -11    1    4    4    0    0 -0.20707651404E+02  0.19932595790E+02 -0.20024553703E+02  0.35029957930E+02  0.00000000000E+00 0.  1.
         11    1    4    4    0    0  0.43131070304E+02 -0.21288337503E+02 -0.17620104112E+03  0.18264799323E+03  0.00000000000E+00 0. -1.
</event>
<event>
 8    1  0.4798744E-006  0.9826031E+02  0.7561462E-02  0.1283997E+00
          1   -1    0    0  501    0  0.00000000000E+00  0.00000000000E+00  0.35374511821E+03  0.35374511821E+03  0.00000000000E+00 0. -1.
         -1   -1    0    0    0  501 -0.00000000000E+00 -0.00000000000E+00 -0.54154195986E+02  0.54154195986E+02  0.00000000000E+00 0.  1.
         23    2    1    2    0    0 -0.58208884746E+02  0.62044901262E+02  0.19141359894E+03  0.24397637389E+03  0.12508981221E+03 0.  0.
         23    2    1    2    0    0  0.58208884746E+02 -0.62044901262E+02  0.10817732327E+03  0.16392294030E+03  0.89053652655E+02 0.  0.
          5    1    3    3  502    0 -0.65231829271E+02  0.36548811480E+02  0.30519455132E+02  0.80869751528E+02  0.41800000000E+01 0. -1.
         -5    1    3    3    0  502  0.70229445255E+01  0.25496089782E+02  0.16089414381E+03  0.16310662236E+03  0.41800000000E+01 0. -1.
        -11    1    4    4    0    0  0.41556695821E+02 -0.13751026905E+02  0.10379938302E+03  0.11265150520E+03  0.00000000000E+00 0. -1.
         11    1    4    4    0    0  0.16652188925E+02 -0.48293874357E+02  0.43779402497E+01  0.51271435100E+02  0.00000000000E+00 0.  1.
</event>
<event>
 8    1  0.4798744E-006  0.1372709E+03  0.7561462E-02  0.1217049E+00
          2   -1    0    0  501    0  0.00000000000E+00  0.00000000000E+00  0.87270626226E+03  0.87270626226E+03  0.00000000000E+00 0.  1.
         -2   -1    0    0    0  501 -0.00000000000E+00 -0.00000000000E+00 -0.37922780446E+02  0.37922780446E+02  0.00000000000E+00 0. -1.
         23    2    1    2    0    0  0.11526995207E+03  0.68206190037E+01  0.23003356882E+03  0.28617484137E+03  0.12508762670E+03 0.  0.
         23    2    1    2    0    0 -0.11526995207E+03 -0.68206190037E+01  0.60474991299E+03  0.62445420134E+03  0.10434035469E+03 0.  0.
          5    1    3    3  502    0  0.11218928259E+03  0.11303466976E+02  0.24498717995E+03  0.26972281000E+03  0.41800000000E+01 0.  1.
         -5    1    3    3    0  502  0.30806694725E+01 -0.44828479726E+01 -0.14953611126E+02  0.16452031366E+02  0.41800000000E+01 0.  1.
        -11    1    4    4    0    0 -0.62284664428E+02 -0.55104510885E+02  0.29337332076E+03  0.30493243822E+03  0.00000000000E+00 0. -1.
         11    1    4    4    0    0 -0.52985287638E+02  0.48283891881E+02  0.31137659222E+03  0.31952176312E+03  0.00000000000E+00 0.  1.
</event>
<event>
 8    1  0.4893209E-006  0.1169737E+03  0.7561462E-02  0.1248175E+00
          2   -1    0    0  501    0  0.00000000000E+00  0.00000000000E+00  0.63048080202E+02  0.63048080202E+02  0.00000000000E+00 0. -1.
         -2   -1    0    0    0  501 -0.00000000000E+00 -0.00000000000E+00 -0.23407083596E+03  0.23407083596E+03  0.00000000000E+00 0.  1.
         23    2    1    2    0    0 -0.52251743340E+02 -0.14727574511E+02 -0.10709384861E+03  0.17338883027E+03  0.12508975944E+03 0.  0.
         23    2    1    2    0    0  0.52251743340E+02  0.14727574511E+02 -0.63928907149E+02  0.12373008590E+03  0.90967482398E+02 0.  0.
          5    1    3    3  502    0  0.34098080317E+02  0.17231621577E+02 -0.10423537496E+02  0.39821230486E+02  0.41800000000E+01 0.  1.
         -5    1    3    3    0  502 -0.86349823656E+02 -0.31959196088E+02 -0.96670311117E+02  0.13356759978E+03  0.41800000000E+01 0.  1.
        -11    1    4    4    0    0  0.74699473478E+02  0.24845220280E+02 -0.36200768201E+02  0.86647515412E+02  0.00000000000E+00 0.  1.
         11    1    4    4    0    0 -0.22447730138E+02 -0.10117645770E+02 -0.27728138948E+02  0.37082570486E+02  0.00000000000E+00 0. -1.
</event>
<event>
 7    1  0.4798744E-006  0.1187428E+03  0.7561462E-02  0.1245186E+00
         -1   -1    0    0    0  501 -0.00000000000E+00  0.00000000000E+00  0.29307425088E+03  0.29307425088E+03  0.00000000000E+00 0.  1.
          1   -1    0    0  501    0  0.00000000000E+00 -0.00000000000E+00 -0.54678784952E+02  0.54678784952E+02  0.00000000000E+00 0. -1.
         23    2    1    2    0    0 -0.59475567271E+02 -0.60634939287E+02  0.17825307003E+03  0.23374235091E+03  0.12508953060E+03 0.  0.
          5    1    3    3  502    0  0.54945363696E+01 -0.81309523448E+02  0.11206642130E+03  0.13862822121E+03  0.41800000000E+01 0.  1.
         -5    1    3    3    0  502 -0.64970103640E+02  0.20674584161E+02  0.66186648732E+02  0.95114129695E+02  0.41800000000E+01 0.  1.
        -11    1    1    2    0    0  0.13645253835E+02  0.28509710304E+02 -0.33603300211E+00  0.31608692665E+02  0.00000000000E+00 0. -1.
         11    1    1    2    0    0  0.45830313436E+02  0.32125228983E+02  0.60478428901E+02  0.82401992265E+02  0.00000000000E+00 0.  1.
</event>
<event>
 8    1  0.4798744E-006  0.1317908E+03  0.7561462E-02  0.1224822E+00
         -1   -1    0    0    0  501 -0.00000000000E+00  0.00000000000E+00  0.75886387011E+03  0.75886387011E+03  0.00000000000E+00 0.  1.
          1   -1    0    0  501    0  0.00000000000E+00 -0.00000000000E+00 -0.28646647654E+02  0.28646647654E+02  0.00000000000E+00 0. -1.
         23    2    1    2    0    0  0.57176737496E+02 -0.59196332965E+02  0.54394383437E+03  0.56417694817E+03  0.12508936304E+03 0.  0.
         23    2    1    2    0    0 -0.57176737496E+02  0.59196332965E+02  0.18627338808E+03  0.22333356960E+03  0.91688183828E+02 0.  0.
          5    1    3    3  502    0  0.14373587940E+02  0.36233259737E+02  0.87436357648E+02  0.95822952262E+02  0.41800000000E+01 0. -1.
         -5    1    3    3    0  502  0.42803149556E+02 -0.95429592703E+02  0.45650747673E+03  0.46835399591E+03  0.41800000000E+01 0. -1.
        -11    1    4    4    0    0 -0.18628101274E+02 -0.22595723795E+02  0.25283685708E+02  0.38688986209E+02  0.00000000000E+00 0. -1.
         11    1    4    4    0    0 -0.38548636221E+02  0.81792056760E+02  0.16098970238E+03  0.18464458339E+03  0.00000000000E+00 0.  1.
</event>
<event>
 8    1  0.4798744E-006  0.4942270E+03  0.7561462E-02  0.1015297E+00
         -2   -1    0    0    0  501 -0.00000000000E+00  0.00000000000E+00  0.24275206607E+03  0.24275206607E+03  0.00000000000E+00 0.  1.
          2   -1    0    0  501    0  0.00000000000E+00 -0.00000000000E+00 -0.10924864901E+04  0.10924864901E+04  0.00000000000E+00 0. -1.
         23    2    1    2    0    0 -0.37644092126E+03 -0.30121389189E+03 -0.24120822002E+03  0.55341404684E+03  0.12509246966E+03 0.  0.
         23    2    1    2    0    0  0.37644092126E+03  0.30121389189E+03 -0.60852620403E+03  0.78182450934E+03  0.92237988678E+02 0.  0.
          5    1    3    3  502    0 -0.78973304963E+02 -0.13630852551E+03 -0.86062971032E+02  0.17955808087E+03  0.41800000000E+01 0.  1.
         -5    1    3    3    0  502 -0.29746761630E+03 -0.16490536638E+03 -0.15514524899E+03  0.37385596597E+03  0.41800000000E+01 0.  1.
        -11    1    4    4    0    0  0.11200294121E+03  0.39754074644E+02 -0.13943597725E+03  0.18321418352E+03  0.00000000000E+00 0.  1.
         11    1    4    4    0    0  0.26443798005E+03  0.26145981725E+03 -0.46909022678E+03  0.59861032583E+03  0.00000000000E+00 0. -1.
</event>
<event>
 8    1  0.4798744E-006  0.9377245E+02  0.7561462E-02  0.1293965E+00
          1   -1    0    0  501    0  0.00000000000E+00  0.00000000000E+00  0.48126732523E+03  0.48126732523E+03  0.00000000000E+00 0. -1.
         -1   -1    0    0    0  501 -0.00000000000E+00 -0.00000000000E+00 -0.29761164319E+02  0.29761164319E+02  0.00000000000E+00 0.  1.
         23    2    1    2    0    0 -0.12431174793E+02  0.10597171590E+02  0.15124735544E+03  0.19695335090E+03  0.12509206910E+03 0.  0.
         23    2    1    2    0    0  0.12431174793E+02 -0.10597171590E+02  0.30025880546E+03  0.31407513864E+03  0.90669776118E+02 0.  0.
          5    1    3    3  502    0 -0.28200274569E+02  0.54201074210E+02  0.13395424482E+03  0.14728959242E+03  0.41800000000E+01 0. -1.
         -5    1    3    3    0  502  0.15769099776E+02 -0.43603902621E+02  0.17293110628E+02  0.49663758483E+02  0.41800000000E+01 0. -1.
        -11    1    4    4    0    0  0.45712443897E+02 -0.47735037944E+01  0.24524437286E+03  0.24951396010E+03  0.00000000000E+00 0. -1.
         11    1    4    4    0    0 -0.33281269104E+02 -0.58236677953E+01  0.55014432600E+02  0.64561178536E+02  0.00000000000E+00 0.  1.
</event>
<event>
 8    1  0.4798744E-006  0.1529098E+03  0.7561462E-02  0.1196942E+00
         -1   -1    0    0    0  501 -0.00000000000E+00  0.00000000000E+00  0.28700660861E+03  0.28700660861E+03  0.00000000000E+00 0.  1.
          1   -1    0    0  501    0  0.00000000000E+00 -0.00000000000E+00 -0.15503063204E+03  0.15503063204E+03  0.00000000000E+00 0. -1.
         23    2    1    2    0    0 -0.11736088033E+03 -0.63406680337E+02  0.19613454874E+03  0.26816823143E+03  0.12510577843E+03 0.  0.
         23    2    1    2    0    0  0.11736088033E+03  0.63406680337E+02 -0.64158572160E+02  0.17386900922E+03  0.91214728222E+02 0.  0.
          5    1    3    3  502    0 -0.69816477702E+02  0.18040537138E+02  0.32389708419E+02  0.79160388771E+02  0.41800000000E+01 0. -1.
         -5    1    3    3    0  502 -0.47544402625E+02 -0.81447217475E+02  0.16374484032E+03  0.18900784266E+03  0.41800000000E+01 0. -1.
        -11    1    4    4    0    0  0.49747736940E+02  0.52864954007E+01  0.17465533991E+02  0.52988953960E+02  0.00000000000E+00 0.  1.
         11    1    4    4    0    0  0.67613143387E+02  0.58120184936E+02 -0.81624106151E+02  0.12088005526E+03  0.00000000000E+00 0. -1.
</event>
<event>
 8    1  0.4798744E-006  0.1606877E+03  0.7561462E-02  0.1187922E+00
         -2   -1    0    0    0  501 -0.00000000000E+00  0.00000000000E+00  0.40977170149E+02  0.40977170149E+02  0.00000000000E+00 0. -1.
          2   -1    0    0  501    0  0.00000000000E+00 -0.00000000000E+00 -0.97457835897E+03  0.97457835897E+03  0.00000000000E+00 0.  1.
         23    2    1    2    0    0  0.20075716709E+02 -0.11686966068E+03 -0.19074722473E+03  0.25708684597E+03  0.12509032990E+03 0.  0.
         23    2    1    2    0    0 -0.20075716709E+02  0.11686966068E+03 -0.74285396409E+03  0.75846868315E+03  0.96856488550E+02 0.  0.
          5    1    3    3  502    0  0.38780613166E+02 -0.13650355991E+03 -0.13993593342E+03  0.19934065237E+03  0.41800000000E+01 0. -1.
         -5    1    3    3    0  502 -0.18704896456E+02  0.19633899222E+02 -0.50811291313E+02  0.57746193598E+02  0.41800000000E+01 0. -1.
        -11    1    4    4    0    0 -0.36758850356E+02  0.29953249490E+01 -0.22281636550E+03  0.22584799708E+03  0.00000000000E+00 0.  1.
         11    1    4    4    0    0  0.16683133646E+02  0.11387433573E+03 -0.52003759859E+03  0.53262068608E+03  0.00000000000E+00 0. -1.
</event>
<event>
 8    1  0.4798744E-006  0.1268159E+03  0.7561462E-02  0.1232258E+00
         -2   -1    0    0    0  501 -0.00000000000E+00  0.00000000000E+00  0.37699518510E+03  0.37699518510E+03  0.00000000000E+00 0.  1.
          2   -1    0    0  501    0  0.00000000000E+00 -0.00000000000E+00 -0.46260713305E+02  0.46260713305E+02  0.00000000000E+00 0. -1.
         23    2    1    2    0    0 -0.74081627024E+02 -0.62227095298E+01  0.16702740051E+03  0.22151878068E+03  0.12508240524E+03 0.  0.
         23    2    1    2    0    0  0.74081627024E+02  0.62227095298E+01  0.16370707129E+03  0.20173711772E+03  0.91493441839E+02 0.  0.
          5    1    3    3  502    0  0.30445439931E+02  0.18039913919E+02  0.60767674369E+02  0.70445340194E+02  0.41800000000E+01 0.  1.
         -5    1    3    3    0  502 -0.10452706696E+03 -0.24262623448E+02  0.10625972614E+03  0.15107344049E+03  0.41800000000E+01 0.  1.
        -11    1    4    4    0    0  0.44206904084E+02 -0.37286025652E+02  0.12000991650E+03  0.13321740928E+03  0.00000000000E+00 0.  1.
         11    1    4    4    0    0  0.29874722940E+02  0.43508735181E+02  0.43697154791E+02  0.68519708440E+02  0.00000000000E+00 0. -1.
</event>
<event>
 8    1  0.4798744E-006  0.9578774E+02  0.7561462E-02  0.1289412E+00
         -4   -1    0    0    0  501 -0.00000000000E+00  0.00000000000E+00  0.78328902431E+02  0.78328902431E+02  0.00000000000E+00 0.  1.
          4   -1    0    0  501    0  0.00000000000E+00 -0.00000000000E+00 -0.29449923682E+03  0.29449923682E+03  0.00000000000E+00 0. -1.
         23    2    1    2    0    0 -0.44912471259E+01  0.88846925755E+02 -0.45223450259E+02  0.16001279412E+03  0.12507991970E+03 0.  0.
         23    2    1    2    0    0  0.44912471259E+01 -0.88846925755E+02 -0.17094688413E+03  0.21281534513E+03  0.90297211541E+02 0.  0.
          5    1    3    3  502    0 -0.77715836130E+01  0.71632708295E+02 -0.87873449939E+02  0.11371393061E+03  0.41800000000E+01 0. -1.
         -5    1    3    3    0  502  0.32803364871E+01  0.17214217460E+02  0.42649999680E+02  0.46298863516E+02  0.41800000000E+01 0. -1.
        -11    1    4    4    0    0  0.25451629219E+02 -0.64021155556E+02 -0.16628438956E+03  0.17999164425E+03  0.00000000000E+00 0.  1.
         11    1    4    4    0    0 -0.20960382093E+02 -0.24825770198E+02 -0.46624945624E+01  0.32823700872E+02  0.00000000000E+00 0. -1.
</event>
<event>
 8    1  0.4798744E-006  0.6224075E+02  0.7561462E-02  0.1388662E+00
          1   -1    0    0  501    0  0.00000000000E+00  0.00000000000E+00  0.22778428789E+03  0.22778428789E+03  0.00000000000E+00 0. -1.
         -1   -1    0    0    0  501 -0.00000000000E+00 -0.00000000000E+00 -0.63506811163E+02  0.63506811163E+02  0.00000000000E+00 0.  1.
         23    2    1    2    0    0  0.28454065917E+02 -0.17544475636E+02  0.45501199332E+02  0.13726292278E+03  0.12511318211E+03 0.  0.
         23    2    1    2    0    0 -0.28454065917E+02  0.17544475636E+02  0.11877627740E+03  0.15402817628E+03  0.92192366941E+02 0.  0.
          5    1    3    3  502    0  0.50990957973E+01 -0.67683039519E+01  0.87406698895E+02  0.87915949225E+02  0.41800000000E+01 0. -1.
         -5    1    3    3    0  502  0.23354970119E+02 -0.10776171684E+02 -0.41905499563E+02  0.49346973555E+02  0.41800000000E+01 0. -1.
        -11    1    4    4    0    0  0.28938229079E+02  0.11953623370E+02  0.76101608363E+02  0.82290734650E+02  0.00000000000E+00 0. -1.
         11    1    4    4    0    0 -0.57392294996E+02  0.55908522659E+01  0.42674669037E+02  0.71737441628E+02  0.00000000000E+00 0.  1.
</event>
<event>
 8    1  0.4798744E-006  0.1130812E+03  0.7561462E-02  0.1254968E+00
          1   -1    0    0  501    0  0.00000000000E+00  0.00000000000E+00  0.48408058008E+03  0.48408058008E+03  0.00000000000E+00 0. -1.
         -1   -1    0    0    0  501 -0.00000000000E+00 -0.00000000000E+00 -0.47013103305E+02  0.47013103305E+02  0.00000000000E+00 0.  1.
         23    2    1    2    0    0 -0.23577830992E+02 -0.52665059984E+02  0.78656943329E+02  0.15863121271E+03  0.12508966486E+03 0.  0.
         23    2    1    2    0    0  0.23577830992E+02  0.52665059984E+02  0.35841053345E+03  0.37246247068E+03  0.83310617084E+02 0.  0.
          5    1    3    3  502    0  0.36362291174E+02  0.11987241086E+02 -0.26783384185E+01  0.38607720277E+02  0.41800000000E+01 0.  1.
         -5    1    3    3    0  502 -0.59940122166E+02 -0.64652301070E+02  0.81335281747E+02  0.12002349243E+03  0.41800000000E+01 0.  1.
        -11    1    4    4    0    0  0.23529652734E+02  0.74204657141E+02  0.30712889313E+03  0.31684086336E+03  0.00000000000E+00 0.  1.
         11    1    4    4    0    0  0.48178257525E-01 -0.21539597157E+02  0.51281640317E+02  0.55621607316E+02  0.00000000000E+00 0. -1.
</event>
<event>
 8    1  0.4798744E-006  0.1639145E+03  0.7561462E-02  0.1184347E+00
          3   -1    0    0  501    0  0.00000000000E+00  0.00000000000E+00  0.26328707262E+03  0.26328707262E+03  0.00000000000E+00 0. -1.
         -3   -1    0    0    0  501 -0.00000000000E+00 -0.00000000000E+00 -0.13584106281E+03  0.13584106281E+03  0.00000000000E+00 0.  1.
         23    2    1    2    0    0 -0.30720710993E+02 -0.15065076502E+03  0.27260479477E+02  0.20007633417E+03  0.12509192887E+03 0.  0.
         23    2    1    2    0    0  0.30720710993E+02  0.15065076502E+03  0.10018553033E+03  0.19905180126E+03  0.77104241202E+02 0.  0.
          5    1    3    3  502    0  0.10815624294E+01 -0.13533058677E+03  0.63291793530E+02  0.14946190491E+03  0.41800000000E+01 0. -1.
         -5    1    3    3    0  502 -0.31802273423E+02 -0.15320178251E+02 -0.36031314054E+02  0.50614429256E+02  0.41800000000E+01 0. -1.
        -11    1    4    4    0    0  0.36297027046E+02  0.10957615921E+03  0.32909475766E+02  0.12003100614E+03  0.00000000000E+00 0.  1.
         11    1    4    4    0    0 -0.55763160528E+01  0.41074605805E+02  0.67276054565E+02  0.79020795115E+02  0.00000000000E+00 0. -1.
</event>
<event>
 8    1  0.4798744E-006  0.1171647E+03  0.7561462E-02  0.1247849E+00
         -4   -1    0    0    0  501 -0.00000000000E+00  0.00000000000E+00  0.71224651097E+03  0.71224651097E+03  0.00000000000E+00 0. -1.
          4   -1    0    0  501    0  0.00000000000E+00 -0.00000000000E+00 -0.24601472492E+02  0.24601472492E+02  0.00000000000E+00 0.  1.
         23    2    1    2    0    0  0.46779923006E+02  0.43606714311E+02  0.51947325153E+03  0.53813536391E+03  0.12508918458E+03 0.  0.
         23    2    1    2    0    0 -0.46779923006E+02 -0.43606714311E+02  0.16817178695E+03  0.19871261956E+03  0.84350746986E+02 0.  0.
          5    1    3    3  502    0 -0.53843529687E+01  0.77694807632E+02  0.29493929482E+03  0.30507725975E+03  0.41800000000E+01 0.  1.
         -5    1    3    3    0  502  0.52164275975E+02 -0.34088093321E+02  0.22453395672E+03  0.23305810416E+03  0.41800000000E+01 0.  1.
        -11    1    4    4    0    0 -0.51876273022E+02 -0.58471731473E+02  0.16514409495E+03  0.18270923124E+03  0.00000000000E+00 0. -1.
         11    1    4    4    0    0  0.50963500159E+01  0.14865017163E+02  0.30276919960E+01  0.16003388315E+02  0.00000000000E+00 0.  1.
</event>
<event>
 7    1  0.4798744E-006  0.5741927E+03  0.7561462E-02  0.9960443E-01
          1   -1    0    0  501    0  0.00000000000E+00  0.00000000000E+00  0.95547965714E+03  0.95547965714E+03  0.00000000000E+00 0. -1.
         -1   -1    0    0    0  501 -0.00000000000E+00 -0.00000000000E+00 -0.36195224628E+03  0.36195224628E+03  0.00000000000E+00 0.  1.
         23    2    1    2    0    0  0.29378740115E+03 -0.19015618345E+03  0.15802708283E+03  0.40384597859E+03  0.12509438172E+03 0.  0.
          5    1    3    3  502    0  0.11171922562E+03 -0.14044676899E+03  0.49999021196E+02  0.18634337878E+03  0.41800000000E+01 0.  1.
         -5    1    3    3    0  502  0.18206817553E+03 -0.49709414462E+02  0.10802806163E+03  0.21750259982E+03  0.41800000000E+01 0.  1.
        -11    1    1    2    0    0 -0.19332604384E+03 -0.25711165864E+03  0.74767119449E+02  0.33025972565E+03  0.00000000000E+00 0. -1.
         11    1    1    2    0    0 -0.10046135731E+03  0.44726784209E+03  0.36073320858E+03  0.58332619919E+03  0.00000000000E+00 0.  1.
</event>
<event>
 8    1  0.4798744E-006  0.1042056E+03  0.7561462E-02  0.1271693E+00
          1   -1    0    0  501    0  0.00000000000E+00  0.00000000000E+00  0.29366808589E+03  0.29366808589E+03  0.00000000000E+00 0. -1.
         -1   -1    0    0    0  501 -0.00000000000E+00 -0.00000000000E+00 -0.88179033819E+02  0.88179033819E+02  0.00000000000E+00 0.  1.
         23    2    1    2    0    0 -0.84852964238E+02  0.17237487057E+02  0.15276518970E+02  0.15290094094E+03  0.12509264250E+03 0.  0.
         23    2    1    2    0    0  0.84852964238E+02 -0.17237487057E+02  0.19021253310E+03  0.22894617877E+03  0.93479348114E+02 0.  0.
          5    1    3    3  502    0 -0.82084807251E+02  0.13692019074E+02 -0.43369082648E+02  0.93934747019E+02  0.41800000000E+01 0.  1.
         -5    1    3    3    0  502 -0.27681569871E+01  0.35454679829E+01  0.58645601619E+02  0.58966193921E+02  0.41800000000E+01 0.  1.
        -11    1    4    4    0    0  0.43265613688E+02 -0.49915625245E+02  0.63455919221E+02  0.91597689139E+02  0.00000000000E+00 0.  1.
         11    1    4    4    0    0  0.41587350550E+02  0.32678138188E+02  0.12675661388E+03  0.13734848963E+03  0.00000000000E+00 0. -1.
</event>
<event>
 8    1  0.4798744E-006  0.3637103E+03  0.7561462E-02  0.1057124E+00
         -2   -1    0    0    0  501 -0.00000000000E+00  0.00000000000E+00  0.40726389234E+03  0.40726389234E+03  0.00000000000E+00 0.  1.
          2   -1    0    0  501    0  0.00000000000E+00 -0.00000000000E+00 -0.46642208618E+03  0.46642208618E+03  0.00000000000E+00 0. -1.
         23    2    1    2    0    0  0.10848128572E+03  0.33109149130E+03  0.20821414840E+03  0.42472399245E+03  0.12509026023E+03 0.  0.
         23    2    1    2    0    0 -0.10848128572E+03 -0.33109149130E+03 -0.26737234223E+03  0.44896198607E+03  0.93215506124E+02 0.  0.
          5    1    3    3  502    0  0.78215096763E+01  0.22003588243E+03  0.12638555787E+03  0.25390499643E+03  0.41800000000E+01 0.  1.
         -5    1    3    3    0  502  0.10065977605E+03  0.11105560887E+03  0.81828590523E+02  0.17081899602E+03  0.41800000000E+01 0.  1.
        -11    1    4    4    0    0 -0.11247428248E+03 -0.22937155009E+03 -0.16227765644E+03  0.30264799684E+03  0.00000000000E+00 0.  1.
         11    1    4    4    0    0  0.39929967613E+01 -0.10171994121E+03 -0.10509468579E+03  0.14631398923E+03  0.00000000000E+00 0. -1.
</event>
<event>
 8    1  0.4798744E-006  0.8973255E+02  0.7561462E-02  0.1303501E+00
          2   -1    0    0  501    0  0.00000000000E+00  0.00000000000E+00  0.12879064866E+03  0.12879064866E+03  0.00000000000E+00 0. -1.
         -2   -1    0    0    0  501 -0.00000000000E+00 -0.00000000000E+00 -0.30608168479E+03  0.30608168479E+03  0.00000000000E+00 0.  1.
         23    2    1    2    0    0 -0.29292184110E+02 -0.55210839931E+02 -0.26202948515E+03  0.29700745125E+03  0.12509079149E+03 0.  0.
         23    2    1    2    0    0  0.29292184110E+02  0.55210839931E+02  0.84738449020E+02  0.13786488220E+03  0.88993550926E+02 0.  0.
          5    1    3    3  502    0 -0.14238135406E+02 -0.70065456752E+02 -0.58875851608E+02  0.92713165367E+02  0.41800000000E+01 0. -1.
         -5    1    3    3    0  502 -0.15054048705E+02  0.14854616822E+02 -0.20315363354E+03  0.20429428589E+03  0.41800000000E+01 0. -1.
        -11    1    4    4    0    0  0.27251779048E+02  0.68041189958E+02  0.95923967888E+02  0.12072145877E+03  0.00000000000E+00 0. -1.
         11    1    4    4    0    0  0.20404050624E+01 -0.12830350027E+02 -0.11185518868E+02  0.17143423432E+02  0.00000000000E+00 0.  1.
</event>
<event>
 8    1  0.4798744E-006  0.1975547E+03  0.7561462E-02  0.1151819E+00
          1   -1    0    0  501    0  0.00000000000E+00  0.00000000000E+00  0.31920703400E+03  0.31920703400E+03  0.00000000000E+00 0. -1.
         -1   -1    0    0    0  501 -0.00000000000E+00 -0.00000000000E+00 -0.14082374825E+03  0.14082374825E+03  0.00000000000E+00 0.  1.
         23    2    1    2    0    0  0.15022820945E+03 -0.81600614657E+02  0.25782573330E+02  0.21339844096E+03  0.12508788227E+03 0.  0.
         23    2    1    2    0    0 -0.15022820945E+03  0.81600614657E+02  0.15260071242E+03  0.24663234129E+03  0.91177623974E+02 0.  0.
          5    1    3    3  502    0  0.38870038397E+02  0.29555147007E+02 -0.14158717439E+02  0.51013020682E+02  0.41800000000E+01 0.  1.
         -5    1    3    3    0  502  0.11135817105E+03 -0.11115576166E+03  0.39941290769E+02  0.16238542028E+03  0.41800000000E+01 0.  1.
        -11    1    4    4    0    0 -0.77281697614E+02  0.86003409956E+02  0.11990617010E+03  0.16657291778E+03  0.00000000000E+00 0. -1.
         11    1    4    4    0    0 -0.72946511831E+02 -0.44027952988E+01  0.32694542317E+02  0.80059423506E+02  0.00000000000E+00 0.  1.
</event>
<event>
 8    1  0.4798744E-006  0.1260688E+03  0.7561462E-02  0.1233408E+00
          2   -1    0    0  501    0  0.00000000000E+00  0.00000000000E+00  0.17890952464E+03  0.17890952464E+03  0.00000000000E+00 0. -1.
         -2   -1    0    0    0  501 -0.00000000000E+00 -0.00000000000E+00 -0.11493075941E+03  0.11493075941E+03  0.00000000000E+00 0.  1.
         23    2    1    2    0    0 -0.51121708035E+02  0.47862538461E+02 -0.30130817050E+02  0.14649586667E+03  0.12509564819E+03 0.  0.
         23    2    1    2    0    0  0.51121708035E+02 -0.47862538461E+02  0.94109582275E+02  0.14734441738E+03  0.89160037223E+02 0.  0.
          5    1    3    3  502    0  0.12818093321E+02  0.69776043175E+02 -0.33762066414E+02  0.78678772526E+02  0.41800000000E+01 0. -1.
         -5    1    3    3    0  502 -0.63939801356E+02 -0.21913504715E+02  0.36312493640E+01  0.67817094145E+02  0.41800000000E+01 0. -1.
        -11    1    4    4    0    0  0.58328215238E+02 -0.69390589588E+02  0.74055002208E+02  0.11705288535E+03  0.00000000000E+00 0.  1.
         11    1    4    4    0    0 -0.72065072029E+01  0.21528051127E+02  0.20054580066E+02  0.30291532035E+02  0.00000000000E+00 0. -1.
</event>
<event>
 7    1  0.4798744E-006  0.1380929E+03  0.7561462E-02  0.1215918E+00
          2   -1    0    0  501    0  0.00000000000E+00  0.00000000000E+00  0.10466782478E+03  0.10466782478E+03  0.00000000000E+00 0. -1.
         -2   -1    0    0    0  501 -0.00000000000E+00 -0.00000000000E+00 -0.26790387642E+03  0.26790387642E+03  0.00000000000E+00 0.  1.
         23    2    1    2    0    0  0.10531517686E+03  0.14292424098E+02 -0.32091149081E+02  0.14521899541E+03  0.93611724243E+02 0.  0.
          5    1    1    2  502    0 -0.13742728955E+01  0.40299494739E+02  0.11899720506E+02  0.42249421893E+02  0.41800000000E+01 0. -1.
         -5    1    1    2    0  502 -0.10394090396E+03 -0.54591918837E+02 -0.14304462307E+03  0.18510328390E+03  0.41800000000E+01 0.  1.
        -11    1    3    3    0    0  0.95646477248E+02  0.29547162421E+02  0.88244397946E+01  0.10049454789E+03  0.00000000000E+00 0. -1.
         11    1    3    3    0    0  0.96686996107E+01 -0.15254738323E+02 -0.40915588876E+02  0.44724447526E+02  0.00000000000E+00 0.  1.
</event>
<event>
 8    1  0.4798744E-006  0.1003710E+03  0.7561462E-02  0.1279518E+00
         -2   -1    0    0    0  501 -0.00000000000E+00  0.00000000000E+00  0.14836789634E+03  0.14836789634E+03  0.00000000000E+00 0.  1.
          2   -1    0    0  501    0  0.00000000000E+00 -0.00000000000E+00 -0.98162479280E+02  0.98162479280E+02  0.00000000000E+00 0. -1.
         23    2    1    2    0    0  0.26492027932E+01  0.43024317153E+02  0.62026333782E+02  0.14603906577E+03  0.12498812946E+03 0.  0.
         23    2    1    2    0    0 -0.26492027932E+01 -0.43024317153E+02 -0.11820916722E+02  0.10049130985E+03  0.90003661823E+02 0.  0.
          5    1    3    3  502    0  0.26899461647E+02  0.71736940617E+02  0.40687753137E+01  0.76836169989E+02  0.41800000000E+01 0.  1.
         -5    1    3    3    0  502 -0.24250258854E+02 -0.28712623464E+02  0.57957558468E+02  0.69202895779E+02  0.41800000000E+01 0.  1.
        -11    1    4    4    0    0 -0.38201260263E+02 -0.29078858990E+02  0.18782262260E+02  0.51552785583E+02  0.00000000000E+00 0.  1.
         11    1    4    4    0    0  0.35552057470E+02 -0.13945458164E+02 -0.30603178982E+02  0.48938524268E+02  0.00000000000E+00 0. -1.
</event>
<event>
 8    1  0.4798744E-006  0.1658642E+03  0.7561462E-02  0.1182231E+00
          2   -1    0    0  501    0  0.00000000000E+00  0.00000000000E+00  0.12066667166E+03  0.12066667166E+03  0.00000000000E+00 0. -1.
         -2   -1    0    0    0  501 -0.00000000000E+00 -0.00000000000E+00 -0.29136222780E+03  0.29136222780E+03  0.00000000000E+00 0.  1.
         23    2    1    2    0    0  0.44526925145E+02  0.14487545089E+03 -0.10608173160E+03  0.22330820104E+03  0.12506668438E+03 0.  0.
         23    2    1    2    0    0 -0.44526925145E+02 -0.14487545089E+03 -0.64613824537E+02  0.18872069841E+03  0.92027237026E+02 0.  0.
          5    1    3    3  502    0 -0.27522570429E+02  0.71752874935E+02 -0.18977624147E+01  0.76987277173E+02  0.41800000000E+01 0.  1.
         -5    1    3    3    0  502  0.72049495574E+02  0.73122575951E+02 -0.10418396919E+03  0.14632092387E+03  0.41800000000E+01 0.  1.
        -11    1    4    4    0    0 -0.27972387007E+02 -0.10869309424E+03  0.70495688198E+00  0.11223698203E+03  0.00000000000E+00 0. -1.
         11    1    4    4    0    0 -0.16554538138E+02 -0.36182356643E+02 -0.65318781419E+02  0.76483716380E+02  0.00000000000E+00 0.  1.
</event>
<event>
 8    1  0.4798744E-006  0.1259884E+03  0.7561462E-02  0.1233533E+00
         -1   -1    0    0    0  501 -0.00000000000E+00  0.00000000000E+00  0.24461572000E+03  0.24461572000E+03  0.00000000000E+00 0.  1.
          1   -1    0    0  501    0  0.00000000000E+00 -0.00000000000E+00 -0.87962220368E+02  0.87962220368E+02  0.00000000000E+00 0. -1.
         23    2    1    2    0    0  0.79092321855E+02 -0.38457441601E+02  0.13632831375E+03  0.20485713633E+03  0.12508583846E+03 0.  0.
         23    2    1    2    0    0 -0.79092321855E+02  0.38457441601E+02  0.20325185881E+02  0.12772080404E+03  0.90359949162E+02 0.  0.
          5    1    3    3  502    0  0.10602907733E+02 -0.54443354836E+02  0.12039541100E+03  0.13262363261E+03  0.41800000000E+01 0. -1.
         -5    1    3    3    0  502  0.68489414122E+02  0.15985913235E+02  0.15932902752E+02  0.72233503714E+02  0.41800000000E+01 0. -1.
        -11    1    4    4    0    0  0.20392665652E+02  0.61678286679E+01  0.79955695181E+00  0.21319995642E+02  0.00000000000E+00 0.  1.
         11    1    4    4    0    0 -0.99484987507E+02  0.32289612933E+02  0.19525628929E+02  0.10640080840E+03  0.00000000000E+00 0. -1.
</event>
<event>
 8    1  0.4798744E-006  0.1210331E+03  0.7561462E-02  0.1241402E+00
         -2   -1    0    0    0  501 -0.00000000000E+00  0.00000000000E+00  0.30263471162E+02  0.30263471162E+02  0.00000000000E+00 0.  1.
          2   -1    0    0  501    0  0.00000000000E+00 -0.00000000000E+00 -0.51199733622E+03  0.51199733622E+03  0.00000000000E+00 0. -1.
         23    2    1    2    0    0 -0.60673001071E+02 -0.10459072946E+02 -0.26287669783E+03  0.29755497456E+03  0.12507677385E+03 0.  0.
         23    2    1    2    0    0  0.60673001071E+02  0.10459072946E+02 -0.21885716723E+03  0.24470583282E+03  0.90509003446E+02 0.  0.
          5    1    3    3  502    0  0.25916574738E+02  0.28967390604E+02 -0.11686609541E+03  0.12323122665E+03  0.41800000000E+01 0. -1.
         -5    1    3    3    0  502 -0.86589575809E+02 -0.39426463551E+02 -0.14601060242E+03  0.17432374791E+03  0.41800000000E+01 0. -1.
        -11    1    4    4    0    0  0.23856900955E+02  0.48963004573E+02 -0.13224325116E+03  0.14302029582E+03  0.00000000000E+00 0. -1.
         11    1    4    4    0    0  0.36816100116E+02 -0.38503931626E+02 -0.86613916072E+02  0.10168553700E+03  0.00000000000E+00 0.  1.
</event>
<event>
 8    1  0.4798744E-006  0.1752401E+03  0.7561462E-02  0.1172491E+00
          1   -1    0    0  501    0  0.00000000000E+00  0.00000000000E+00  0.87143491987E+03  0.87143491987E+03  0.00000000000E+00 0. -1.
         -1   -1    0    0    0  501 -0.00000000000E+00 -0.00000000000E+00 -0.41080984933E+02  0.41080984933E+02  0.00000000000E+00 0.  1.
         23    2    1    2    0    0 -0.88741082701E+02 -0.11613361084E+03  0.31395596478E+03  0.36820923146E+03  0.12509074700E+03 0.  0.
         23    2    1    2    0    0  0.88741082701E+02  0.11613361084E+03  0.51639797016E+03  0.54430667335E+03  0.90779379479E+02 0.  0.
          5    1    3    3  502    0  0.23738301052E+02 -0.62082197434E+02  0.92528280615E+02  0.11400290035E+03  0.41800000000E+01 0. -1.
         -5    1    3    3    0  502 -0.11247938375E+03 -0.54051413405E+02  0.22142768417E+03  0.25420633111E+03  0.41800000000E+01 0. -1.
        -11    1    4    4    0    0  0.45689390026E+02  0.13373261151E+02  0.73198566441E+02  0.87317779426E+02  0.00000000000E+00 0.  1.
         11    1    4    4    0    0  0.43051692675E+02  0.10276034969E+03  0.44319940372E+03  0.45698889392E+03  0.00000000000E+00 0. -1.
</event>
<event>
 8    1  0.4798744E-006  0.1161841E+03  0.7561462E-02  0.1249528E+00
          4   -1    0    0  501    0  0.00000000000E+00  0.00000000000E+00  0.11994944029E+02  0.11994944029E+02  0.00000000000E+00 0. -1.
         -4   -1    0    0    0  501 -0.00000000000E+00 -0.00000000000E+00 -0.12695480902E+04  0.12695480902E+04  0.00000000000E+00 0.  1.
         23    2    1    2    0    0 -0.53257911857E+01  0.44339479995E+02 -0.88063018896E+03  0.89065209369E+03  0.12552796006E+03 0.  0.
         23    2    1    2    0    0  0.53257911857E+01 -0.44339479995E+02 -0.37692295726E+03  0.39089094058E+03  0.93436920875E+02 0.  0.
          5    1    3    3  502    0 -0.61015119620E+02  0.39611214748E+02 -0.38246487955E+03  0.38934399911E+03  0.41800000000E+01 0. -1.
         -5    1    3    3    0  502  0.55689328434E+02  0.47282652471E+01 -0.49816530940E+03  0.50130809458E+03  0.41800000000E+01 0. -1.
        -11    1    4    4    0    0  0.48930688424E+02 -0.30719032923E+02 -0.21912909731E+03  0.22661737035E+03  0.00000000000E+00 0.  1.
         11    1    4    4    0    0 -0.43604897238E+02 -0.13620447072E+02 -0.15779385994E+03  0.16427357023E+03  0.00000000000E+00 0. -1.
</event>
<event>
 8    1  0.4798744E-006  0.1464135E+03  0.7561462E-02  0.1204951E+00
         -2   -1    0    0    0  501 -0.00000000000E+00  0.00000000000E+00  0.22803933577E+02  0.22803933577E+02  0.00000000000E+00 0.  1.
          2   -1    0    0  501    0  0.00000000000E+00 -0.00000000000E+00 -0.11696004502E+04  0.11696004502E+04  0.00000000000E+00 0. -1.
         23    2    1    2    0    0 -0.41775679682E+02  0.10405864455E+03 -0.43438830486E+03  0.46574043935E+03  0.12509016160E+03 0.  0.
         23    2    1    2    0    0  0.41775679682E+02 -0.10405864455E+03 -0.71240821181E+03  0.72666394447E+03  0.89115761940E+02 0.  0.
          5    1    3    3  502    0 -0.54008399529E+02  0.11884470238E+03 -0.42371390144E+03  0.44338686627E+03  0.41800000000E+01 0. -1.
         -5    1    3    3    0  502  0.12232719847E+02 -0.14786057837E+02 -0.10674403420E+02  0.22353573083E+02  0.41800000000E+01 0. -1.
        -11    1    4    4    0    0  0.48194523489E+02 -0.11174308360E+02 -0.21520837618E+03  0.22082169830E+03  0.00000000000E+00 0.  1.
         11    1    4    4    0    0 -0.64188438065E+01 -0.92884336186E+02 -0.49719983563E+03  0.50584224617E+03  0.00000000000E+00 0. -1.
</event>
<event>
 8    1  0.4798744E-006  0.8485938E+02  0.7561462E-02  0.1315801E+00
          1   -1    0    0  501    0  0.00000000000E+00  0.00000000000E+00  0.84269919753E+02  0.84269919753E+02  0.00000000000E+00 0. -1.
         -1   -1    0    0    0  501 -0.00000000000E+00 -0.00000000000E+00 -0.15876361642E+03  0.15876361642E+03  0.00000000000E+00 0.  1.
         23    2    1    2    0    0  0.43198493904E+02 -0.51058772863E+00 -0.43410381946E+02  0.13927855193E+03  0.12509069987E+03 0.  0.
         23    2    1    2    0    0 -0.43198493904E+02  0.51058772863E+00 -0.31083314720E+02  0.10375498424E+03  0.89064884914E+02 0.  0.
          5    1    3    3  502    0  0.16762220736E+02 -0.35271273246E+02  0.32914767971E+02  0.51243429929E+02  0.41800000000E+01 0.  1.
         -5    1    3    3    0  502  0.26436273168E+02  0.34760685517E+02 -0.76325149917E+02  0.88035122005E+02  0.41800000000E+01 0.  1.
        -11    1    4    4    0    0 -0.57022442692E+02 -0.21199288337E+02 -0.43882163818E+02  0.75010753215E+02  0.00000000000E+00 0.  1.
         11    1    4    4    0    0  0.13823948787E+02  0.21709876065E+02  0.12798849098E+02  0.28744231023E+02  0.00000000000E+00 0. -1.
</event>
<event>
 8    1  0.4798744E-006  0.1070928E+03  0.7561462E-02  0.1266050E+00
          1   -1    0    0  501    0  0.00000000000E+00  0.00000000000E+00  0.19834183066E+03  0.19834183066E+03  0.00000000000E+00 0. -1.
         -1   -1    0    0    0  501 -0.00000000000E+00 -0.00000000000E+00 -0.68703381596E+02  0.68703381596E+02  0.00000000000E+00 0.  1.
         23    2    1    2    0    0 -0.19406770793E+02  0.15025136003E+02  0.31170405436E+02  0.13123513962E+03  0.12509472503E+03 0.  0.
         23    2    1    2    0    0  0.19406770793E+02 -0.15025136003E+02  0.98468043631E+02  0.13581007264E+03  0.90255430581E+02 0.  0.
          5    1    3    3  502    0  0.42263789343E+02  0.39457686020E+02  0.35103866050E+00  0.57971825086E+02  0.41800000000E+01 0. -1.
         -5    1    3    3    0  502 -0.61670560136E+02 -0.24432550017E+02  0.30819366775E+02  0.73263314532E+02  0.41800000000E+01 0. -1.
        -11    1    4    4    0    0  0.42326522797E+02  0.20845652271E+02  0.70659631950E+02  0.84963870780E+02  0.00000000000E+00 0.  1.
         11    1    4    4    0    0 -0.22919752005E+02 -0.35870788274E+02  0.27808411681E+02  0.50846201859E+02  0.00000000000E+00 0. -1.
</event>
<event>
 8    1  0.4798744E-006  0.1434027E+03  0.7561462E-02  0.1208822E+00
          1   -1    0    0  501    0  0.00000000000E+00  0.00000000000E+00  0.42551147231E+02  0.42551147231E+02  0.00000000000E+00 0.  1.
         -1   -1    0    0    0  501 -0.00000000000E+00 -0.00000000000E+00 -0.56825840845E+03  0.56825840845E+03  0.00000000000E+00 0. -1.
         23    2    1    2    0    0 -0.73268029771E+02  0.84967195020E+02 -0.32789246672E+03  0.36843996456E+03  0.12508760666E+03 0.  0.
         23    2    1    2    0    0  0.73268029771E+02 -0.84967195020E+02 -0.19781479450E+03  0.24236959112E+03  0.83813467649E+02 0.  0.
          5    1    3    3  502    0  0.20309341466E+02  0.57750209993E+02 -0.72076027877E+02  0.94657183032E+02  0.41800000000E+01 0. -1.
         -5    1    3    3    0  502 -0.93577371237E+02  0.27216985027E+02 -0.25581643884E+03  0.27378278153E+03  0.41800000000E+01 0. -1.
        -11    1    4    4    0    0  0.60942673756E+02 -0.23671990440E+02 -0.51400465991E+02  0.83164779324E+02  0.00000000000E+00 0. -1.
         11    1    4    4    0    0  0.12325356015E+02 -0.61295204580E+02 -0.14641432851E+03  0.15920481179E+03  0.00000000000E+00 0.  1.
</event>
<event>
 7    1  0.4798744E-006  0.1327009E+03  0.7561462E-02  0.1223502E+00
          1   -1    0    0  501    0  0.00000000000E+00  0.00000000000E+00  0.85314673873E+03  0.85314673873E+03  0.00000000000E+00 0. -1.
         -1   -1    0    0    0  501 -0.00000000000E+00 -0.00000000000E+00 -0.27851754547E+02  0.27851754547E+02  0.00000000000E+00 0.  1.
         23    2    1    2    0    0  0.51970783650E+02  0.52263378673E+02  0.59526990591E+03  0.60682884368E+03  0.91992181963E+02 0.  0.
          5    1    1    2  502    0  0.43182387825E+02 -0.19786089123E+02  0.60563999095E+02  0.77082282838E+02  0.41800000000E+01 0. -1.
         -5    1    1    2    0  502 -0.95153171475E+02 -0.32477289550E+02  0.16946107918E+03  0.19708736676E+03  0.41800000000E+01 0.  1.
        -11    1    3    3    0    0  0.77495895590E+02  0.29606824752E+02  0.45198394077E+03  0.45953417786E+03  0.00000000000E+00 0. -1.
         11    1    3    3    0    0 -0.25525111940E+02  0.22656553921E+02  0.14328596514E+03  0.14729466582E+03  0.00000000000E+00 0.  1.
</event>
<event>
 8    1  0.4798744E-006  0.1469395E+03  0.7561462E-02  0.1204285E+00
          2   -1    0    0  501    0  0.00000000000E+00  0.00000000000E+00  0.60468153456E+03  0.60468153456E+03  0.00000000000E+00 0.  1.
         -2   -1    0    0    0  501 -0.00000000000E+00 -0.00000000000E+00 -0.50476024448E+02  0.50476024448E+02  0.00000000000E+00 0. -1.
         23    2    1    2    0    0 -0.73222456670E+02  0.96822996557E+02  0.17694634998E+03  0.24838151237E+03  0.12508854502E+03 0.  0.
         23    2    1    2    0    0  0.73222456670E+02 -0.96822996557E+02  0.37725916014E+03  0.40677604664E+03  0.91684553702E+02 0.  0.
          5    1    3    3  502    0 -0.86634362475E+02  0.49934738036E+02  0.17224275627E+03  0.19920850963E+03  0.41800000000E+01 0. -1.
         -5    1    3    3    0  502  0.13411905805E+02  0.46888258521E+02  0.47035937098E+01  0.49173002737E+02  0.41800000000E+01 0. -1.
        -11    1    4    4    0    0  0.88473929304E+02 -0.65733611627E+02  0.22394174401E+03  0.24959657164E+03  0.00000000000E+00 0. -1.
         11    1    4    4    0    0 -0.15251472633E+02 -0.31089384929E+02  0.15331741612E+03  0.15717947499E+03  0.00000000000E+00 0.  1.
</event>
<event>
 8    1  0.4798744E-006  0.1338595E+03  0.7561462E-02  0.1221839E+00
          1   -1    0    0  501    0  0.00000000000E+00  0.00000000000E+00  0.30318755110E+03  0.30318755110E+03  0.00000000000E+00 0. -1.
         -1   -1    0    0    0  501 -0.00000000000E+00 -0.00000000000E+00 -0.69781841548E+02  0.69781841548E+02  0.00000000000E+00 0.  1.
         23    2    1    2    0    0  0.92318658871E+02  0.16822127212E+02  0.98625692193E+02  0.18487692968E+03  0.12508690271E+03 0.  0.
         23    2    1    2    0    0 -0.92318658871E+02 -0.16822127212E+02  0.13478001736E+03  0.18809246296E+03  0.91691890611E+02 0.  0.
          5    1    3    3  502    0  0.71137419014E+02 -0.36413801990E+02  0.11979295510E+02  0.80916458649E+02  0.41800000000E+01 0. -1.
         -5    1    3    3    0  502  0.21181239857E+02  0.53235929202E+02  0.86646396683E+02  0.10396047104E+03  0.41800000000E+01 0. -1.
        -11    1    4    4    0    0 -0.11063642787E+03 -0.16959296774E+02  0.12304677737E+03  0.16633864956E+03  0.00000000000E+00 0. -1.
         11    1    4    4    0    0  0.18317768998E+02  0.13716956234E+00  0.11733239991E+02  0.21753813395E+02  0.00000000000E+00 0.  1.
</event>
<event>
 8    1  0.4798744E-006  0.1110388E+03  0.7561462E-02  0.1258658E+00
         -1   -1    0    0    0  501 -0.00000000000E+00  0.00000000000E+00  0.93834891978E+02  0.93834891978E+02  0.00000000000E+00 0.  1.
          1   -1    0    0  501    0  0.00000000000E+00 -0.00000000000E+00 -0.25385677243E+03  0.25385677243E+03  0.00000000000E+00 0. -1.
         23    2    1    2    0    0 -0.54518719875E+02 -0.83992772534E+02 -0.34165658507E+02  0.16383611713E+03  0.12509158405E+03 0.  0.
         23    2    1    2    0    0  0.54518719875E+02  0.83992772534E+02 -0.12585622195E+03  0.18385554728E+03  0.89084213019E+02 0.  0.
          5    1    3    3  502    0 -0.38238629979E+02 -0.73573278970E+02 -0.79144421163E+02  0.11470192676E+03  0.41800000000E+01 0. -1.
         -5    1    3    3    0  502 -0.16280089896E+02 -0.10419493564E+02  0.44978762656E+02  0.49134190369E+02  0.41800000000E+01 0. -1.
        -11    1    4    4    0    0  0.27515565011E+02 -0.34790915008E+01  0.60014353358E+00  0.27741134941E+02  0.00000000000E+00 0.  1.
         11    1    4    4    0    0  0.27003154864E+02  0.87471864035E+02 -0.12645636548E+03  0.15611441234E+03  0.00000000000E+00 0. -1.
</event>
<event>
 8    1  0.6557860E-006  0.1708673E+03  0.7561462E-02  0.1176946E+00
         -2   -1    0    0    0  501 -0.00000000000E+00  0.00000000000E+00  0.71087943176E+02  0.71087943176E+02  0.00000000000E+00 0.  1.
          2   -1    0    0  501    0  0.00000000000E+00 -0.00000000000E+00 -0.47458230268E+03  0.47458230268E+03  0.00000000000E+00 0. -1.
         23    2    1    2    0    0  0.11276710866E+03  0.93466472704E+02 -0.18623587804E+03  0.26792455593E+03  0.12508942035E+03 0.  0.
         23    2    1    2    0    0 -0.11276710866E+03 -0.93466472704E+02 -0.21725848146E+03  0.27774568993E+03  0.92135868104E+02 0.  0.
          5    1    3    3  502    0 -0.14519399109E+02 -0.81497915858E+01  0.38252028254E+01  0.17587968332E+02  0.41800000000E+01 0. -1.
         -5    1    3    3    0  502  0.12728650777E+03  0.10161626429E+03 -0.19006108087E+03  0.25033658760E+03  0.41800000000E+01 0. -1.
        -11    1    4    4    0    0 -0.69309830911E+02 -0.13476200711E+02 -0.47434840442E+02  0.85061887672E+02  0.00000000000E+00 0.  1.
         11    1    4    4    0    0 -0.43457277752E+02 -0.79990271993E+02 -0.16982364102E+03  0.19268380226E+03  0.00000000000E+00 0. -1.
</event>
<event>
 7    1  0.4798744E-006  0.1955662E+03  0.7561462E-02  0.1153535E+00
         -1   -1    0    0    0  501 -0.00000000000E+00  0.00000000000E+00  0.68791677542E+02  0.68791677542E+02  0.00000000000E+00 0.  1.
          1   -1    0    0  501    0  0.00000000000E+00 -0.00000000000E+00 -0.75208321657E+03  0.75208321657E+03  0.00000000000E+00 0. -1.
         23    2    1    2    0    0 -0.88824948738E+02 -0.50313868285E+02 -0.37832978743E+03  0.40294360862E+03  0.93855030832E+02 0.  0.
          5    1    1    2  502    0  0.32435969183E+02  0.14746830380E+03 -0.25168753038E+03  0.29353548009E+03  0.41800000000E+01 0. -1.
         -5    1    1    2    0  502  0.56388979555E+02 -0.97154435514E+02 -0.53274221219E+02  0.12439580540E+03  0.41800000000E+01 0.  1.
        -11    1    3    3    0    0 -0.29650931634E+02 -0.60734457347E+02 -0.12005323846E+03  0.13777021493E+03  0.00000000000E+00 0.  1.
         11    1    3    3    0    0 -0.59174017104E+02  0.10420589061E+02 -0.25827654897E+03  0.26517339370E+03  0.00000000000E+00 0. -1.
</event>
<event>
 8    1  0.4798744E-006  0.1331405E+03  0.7561462E-02  0.1222869E+00
          1   -1    0    0  501    0  0.00000000000E+00  0.00000000000E+00  0.12024674609E+03  0.12024674609E+03  0.00000000000E+00 0. -1.
         -1   -1    0    0    0  501 -0.00000000000E+00 -0.00000000000E+00 -0.18300928802E+03  0.18300928802E+03  0.00000000000E+00 0.  1.
         23    2    1    2    0    0 -0.72262216554E+02  0.67380739678E+02 -0.52254385317E+02  0.16774920015E+03  0.12508909363E+03 0.  0.
         23    2    1    2    0    0  0.72262216554E+02 -0.67380739678E+02 -0.10508156615E+02  0.13550683396E+03  0.92139506592E+02 0.  0.
          5    1    3    3  502    0 -0.34421532117E+02 -0.25786443027E+02  0.16070125530E+02  0.46103187002E+02  0.41800000000E+01 0.  1.
         -5    1    3    3    0  502 -0.37840684437E+02  0.93167182704E+02 -0.68324510846E+02  0.12164601315E+03  0.41800000000E+01 0.  1.
        -11    1    4    4    0    0  0.85189104788E+02 -0.44421118071E+02  0.16830092209E+02  0.97538050570E+02  0.00000000000E+00 0. -1.
         11    1    4    4    0    0 -0.12926888234E+02 -0.22959621607E+02 -0.27338248824E+02  0.37968783395E+02  0.00000000000E+00 0.  1.
</event>
<event>
 8    1  0.4798744E-006  0.2105124E+03  0.7561462E-02  0.1141161E+00
          2   -1    0    0  501    0  0.00000000000E+00  0.00000000000E+00  0.10678003759E+04  0.10678003759E+04  0.00000000000E+00 0. -1.
         -2   -1    0    0    0  501 -0.00000000000E+00 -0.00000000000E+00 -0.90520311238E+02  0.90520311238E+02  0.00000000000E+00 0.  1.
         23    2    1    2    0    0 -0.14187629919E+03  0.14851113543E+03  0.11374567110E+03  0.26602778393E+03  0.12509301542E+03 0.  0.
         23    2    1    2    0    0  0.14187629919E+03 -0.14851113543E+03  0.86353439360E+03  0.89229290325E+03  0.91162133836E+02 0.  0.
          5    1    3    3  502    0 -0.64065569872E+02  0.10722694984E+03  0.37321462374E+01  0.12503366479E+03  0.41800000000E+01 0. -1.
         -5    1    3    3    0  502 -0.77810729321E+02  0.41284185589E+02  0.11001352487E+03  0.14099411914E+03  0.41800000000E+01 0. -1.
        -11    1    4    4    0    0  0.72538990742E+02 -0.53002963420E+02  0.21351949638E+03  0.23165015571E+03  0.00000000000E+00 0. -1.
         11    1    4    4    0    0  0.69337308451E+02 -0.95508172012E+02  0.65001489722E+03  0.66064274754E+03  0.00000000000E+00 0.  1.
</event>
<event>
 8    1  0.4798744E-006  0.9029333E+02  0.7561462E-02  0.1302143E+00
          2   -1    0    0  501    0  0.00000000000E+00  0.00000000000E+00  0.11518269322E+03  0.11518269322E+03  0.00000000000E+00 0. -1.
         -2   -1    0    0    0  501 -0.00000000000E+00 -0.00000000000E+00 -0.10712706442E+03  0.10712706442E+03  0.00000000000E+00 0.  1.
         23    2    1    2    0    0  0.19432256976E+02 -0.58952993960E+01  0.56341593724E+01  0.12684967353E+03  0.12508688483E+03 0.  0.
         23    2    1    2    0    0 -0.19432256976E+02  0.58952993960E+01  0.24214694303E+01  0.95460084108E+02  0.93243750341E+02 0.  0.
          5    1    3    3  502    0 -0.40336897536E+01 -0.41741235773E+02 -0.44150140976E+02  0.61035307528E+02  0.41800000000E+01 0.  1.
         -5    1    3    3    0  502  0.23465946730E+02  0.35845936377E+02  0.49784300348E+02  0.65814365999E+02  0.41800000000E+01 0.  1.
        -11    1    4    4    0    0 -0.17479960564E+02  0.49114714094E+02  0.25789014955E+01  0.52196311122E+02  0.00000000000E+00 0. -1.
         11    1    4    4    0    0 -0.19522964124E+01 -0.43219414698E+02 -0.15743206520E+00  0.43263772986E+02  0.00000000000E+00 0.  1.
</event>
<event>
 8    1  0.4798744E-006  0.6339316E+02  0.7561462E-02  0.1384120E+00
         -2   -1    0    0    0  501 -0.00000000000E+00  0.00000000000E+00  0.74568581924E+02  0.74568581924E+02  0.00000000000E+00 0.  1.
          2   -1    0    0  501    0  0.00000000000E+00 -0.00000000000E+00 -0.19579516053E+03  0.19579516053E+03  0.00000000000E+00 0. -1.
         23    2    1    2    0    0 -0.84701657435E+01 -0.97800793122E+01 -0.33642452291E+02  0.13022345469E+03  0.12513568594E+03 0.  0.
         23    2    1    2    0    0  0.84701657435E+01  0.97800793122E+01 -0.87584126318E+02  0.14014028777E+03  0.10863207360E+03 0.  0.
          5    1    3    3  502    0  0.32643461404E+02 -0.17416562047E+02  0.34109480295E+02  0.50496150863E+02  0.41800000000E+01 0.  1.
         -5    1    3    3    0  502 -0.41113627148E+02  0.76364827350E+01 -0.67751932586E+02  0.79727303823E+02  0.41800000000E+01 0.  1.
        -11    1    4    4    0    0  0.11637580290E+01  0.27933667788E+02  0.17675772789E+02  0.33076835890E+02  0.00000000000E+00 0.  1.
         11    1    4    4    0    0  0.73064077144E+01 -0.18153588476E+02 -0.10525989911E+03  0.10706345188E+03  0.00000000000E+00 0. -1.
</event>
<event>
 8    1  0.4798744E-006  0.1170613E+03  0.7561462E-02  0.1248025E+00
          2   -1    0    0  501    0  0.00000000000E+00  0.00000000000E+00  0.49604539144E+03  0.49604539144E+03  0.00000000000E+00 0.  1.
         -2   -1    0    0    0  501 -0.00000000000E+00 -0.00000000000E+00 -0.28894125709E+02  0.28894125709E+02  0.00000000000E+00 0. -1.
         23    2    1    2    0    0 -0.42438664088E+02 -0.16080207825E+02  0.21610654049E+03  0.25379020487E+03  0.12509123852E+03 0.  0.
         23    2    1    2    0    0  0.42438664088E+02  0.16080207825E+02  0.25104472524E+03  0.27114931228E+03  0.91863388702E+02 0.  0.
          5    1    3    3  502    0  0.54693623908E+01 -0.64348636575E+02  0.98028450606E+02  0.11746365601E+03  0.41800000000E+01 0.  1.
         -5    1    3    3    0  502 -0.47908026478E+02  0.48268428751E+02  0.11807808988E+03  0.13632654887E+03  0.41800000000E+01 0.  1.
        -11    1    4    4    0    0 -0.31524780043E+01  0.46407337290E+02  0.94995830964E+02  0.10577233557E+03  0.00000000000E+00 0.  1.
         11    1    4    4    0    0  0.45591142092E+02 -0.30327129466E+02  0.15604889428E+03  0.16537697670E+03  0.00000000000E+00 0. -1.
</event>
<event>
 7    1  0.4798744E-006  0.1269511E+03  0.7561462E-02  0.1232051E+00
         -1   -1    0    0    0  501 -0.00000000000E+00  0.00000000000E+00  0.58101090528E+02  0.58101090528E+02  0.00000000000E+00 0.  1.
          1   -1    0    0  501    0  0.00000000000E+00 -0.00000000000E+00 -0.36691948569E+03  0.36691948569E+03  0.00000000000E+00 0. -1.
         23    2    1    2    0    0 -0.70072766334E+02 -0.27073274927E+02 -0.15614649349E+03  0.19664113416E+03  0.92966947998E+02 0.  0.
          5    1    1    2  502    0 -0.28004316977E+02 -0.34328973089E+02 -0.11816243522E+02  0.46041461464E+02  0.41800000000E+01 0. -1.
         -5    1    1    2    0  502  0.98077083311E+02  0.61402248017E+02 -0.14085565815E+03  0.18233798059E+03  0.41800000000E+01 0.  1.
        -11    1    3    3    0    0 -0.38614211415E+02  0.14703019031E+02 -0.11586498380E+02  0.42912504431E+02  0.00000000000E+00 0.  1.
         11    1    3    3    0    0 -0.31458554918E+02 -0.41776293958E+02 -0.14455999511E+03  0.15372862973E+03  0.00000000000E+00 0. -1.
</event>
<event>
 8    1  0.4798744E-006  0.1072796E+03  0.7561462E-02  0.1265692E+00
         -3   -1    0    0    0  501 -0.00000000000E+00  0.00000000000E+00  0.57704194065E+03  0.57704194065E+03  0.00000000000E+00 0.  1.
          3   -1    0    0  501    0  0.00000000000E+00 -0.00000000000E+00 -0.23995955509E+02  0.23995955509E+02  0.00000000000E+00 0. -1.
         23    2    1    2    0    0 -0.29408180993E+02 -0.28687096838E+02  0.36213756268E+03  0.38533185909E+03  0.12509690919E+03 0.  0.
         23    2    1    2    0    0  0.29408180993E+02  0.28687096838E+02  0.19090842247E+03  0.21570603708E+03  0.91625749812E+02 0.  0.
          5    1    3    3  502    0 -0.58690629587E+00 -0.69453883567E+02  0.12598393575E+03  0.14392223896E+03  0.41800000000E+01 0.  1.
         -5    1    3    3    0  502 -0.28821274697E+02  0.40766786729E+02  0.23615362693E+03  0.24140962012E+03  0.41800000000E+01 0.  1.
        -11    1    4    4    0    0  0.46768398203E+02 -0.13979884603E+02  0.13323276314E+03  0.14189323246E+03  0.00000000000E+00 0.  1.
         11    1    4    4    0    0 -0.17360217209E+02  0.42666981441E+02  0.57675659329E+02  0.73812804620E+02  0.00000000000E+00 0. -1.
</event>
<event>
 8    1  0.4798744E-006  0.8355891E+02  0.7561462E-02  0.1319245E+00
          2   -1    0    0  501    0  0.00000000000E+00  0.00000000000E+00  0.94408799611E+02  0.94408799611E+02  0.00000000000E+00 0. -1.
         -2   -1    0    0    0  501 -0.00000000000E+00 -0.00000000000E+00 -0.13776618928E+03  0.13776618928E+03  0.00000000000E+00 0.  1.
         23    2    1    2    0    0  0.20098110643E+02  0.21781901065E+02 -0.17847819921E+02  0.12978335259E+03  0.12508712431E+03 0.  0.
         23    2    1    2    0    0 -0.20098110643E+02 -0.21781901065E+02 -0.25509569746E+02  0.10239163629E+03  0.94630458992E+02 0.  0.
          5    1    3    3  502    0 -0.78697315458E+01 -0.48274954175E+02  0.84014678940E+01  0.49804226106E+02  0.41800000000E+01 0. -1.
         -5    1    3    3    0  502  0.27967842189E+02  0.70056855241E+02 -0.26249287815E+02  0.79979126487E+02  0.41800000000E+01 0. -1.
        -11    1    4    4    0    0 -0.64580424133E+01  0.76667466560E+01  0.33542847515E+02  0.35008683716E+02  0.00000000000E+00 0. -1.
         11    1    4    4    0    0 -0.13640068230E+02 -0.29448647721E+02 -0.59052417261E+02  0.67382952579E+02  0.00000000000E+00 0.  1.
</event>
<event>
 8    1  0.4798744E-006  0.1851302E+03  0.7561462E-02  0.1162928E+00
          2   -1    0    0  501    0  0.00000000000E+00  0.00000000000E+00  0.64317581792E+03  0.64317581792E+03  0.00000000000E+00 0. -1.
         -2   -1    0    0    0  501 -0.00000000000E+00 -0.00000000000E+00 -0.66526113875E+02  0.66526113875E+02  0.00000000000E+00 0.  1.
         23    2    1    2    0    0 -0.78072734234E+02  0.15680852975E+03  0.26843150324E+03  0.34407620291E+03  0.12509474266E+03 0.  0.
         23    2    1    2    0    0  0.78072734234E+02 -0.15680852975E+03  0.30821820080E+03  0.36562572888E+03  0.89439630384E+02 0.  0.
          5    1    3    3  502    0  0.42900453959E+01  0.17321295120E+02  0.12902269282E+03  0.13031791671E+03  0.41800000000E+01 0. -1.
         -5    1    3    3    0  502 -0.82362779630E+02  0.13948723463E+03  0.13940881042E+03  0.21375828620E+03  0.41800000000E+01 0. -1.
        -11    1    4    4    0    0 -0.10930582633E+02 -0.17029743192E+01  0.52055012455E+02  0.53217497874E+02  0.00000000000E+00 0.  1.
         11    1    4    4    0    0  0.89003316867E+02 -0.15510555543E+03  0.25616318835E+03  0.31240823101E+03  0.00000000000E+00 0. -1.
</event>
<event>
 8    1  0.4798744E-006  0.1358331E+03  0.7561462E-02  0.1219048E+00
          1   -1    0    0  501    0  0.00000000000E+00  0.00000000000E+00  0.13047599500E+04  0.13047599500E+04  0.00000000000E+00 0. -1.
         -1   -1    0    0    0  501 -0.00000000000E+00 -0.00000000000E+00 -0.21899223026E+02  0.21899223026E+02  0.00000000000E+00 0.  1.
         23    2    1    2    0    0 -0.11222436755E+03  0.44562402593E+02  0.49858351805E+03  0.52802579060E+03  0.12508235156E+03 0.  0.
         23    2    1    2    0    0  0.11222436755E+03 -0.44562402593E+02  0.78427720894E+03  0.79863338244E+03  0.90246455286E+02 0.  0.
          5    1    3    3  502    0 -0.41249218603E+02  0.22190383714E+02  0.40808203107E+03  0.41078257953E+03  0.41800000000E+01 0. -1.
         -5    1    3    3    0  502 -0.70975148943E+02  0.22372018879E+02  0.90501486983E+02  0.11724321107E+03  0.41800000000E+01 0. -1.
        -11    1    4    4    0    0  0.79840256478E+02  0.16001086406E+02  0.46180971058E+03  0.46893358817E+03  0.00000000000E+00 0. -1.
         11    1    4    4    0    0  0.32384111068E+02 -0.60563488999E+02  0.32246749836E+03  0.32969979428E+03  0.00000000000E+00 0.  1.
</event>
<event>
 8    1  0.4798744E-006  0.1762136E+03  0.7561462E-02  0.1171519E+00
          2   -1    0    0  501    0  0.00000000000E+00  0.00000000000E+00  0.49962262098E+03  0.49962262098E+03  0.00000000000E+00 0. -1.
         -2   -1    0    0    0  501 -0.00000000000E+00 -0.00000000000E+00 -0.85181067121E+02  0.85181067121E+02  0.00000000000E+00 0.  1.
         23    2    1    2    0    0  0.13992128531E+03 -0.90870944316E+02  0.14242127764E+03  0.25252019642E+03  0.12508850735E+03 0.  0.
         23    2    1    2    0    0 -0.13992128531E+03  0.90870944316E+02  0.27202027622E+03  0.33228349168E+03  0.92637970436E+02 0.  0.
          5    1    3    3  502    0  0.10539944069E+03 -0.23287633223E+02  0.22186917645E+02  0.11027732167E+03  0.41800000000E+01 0.  1.
         -5    1    3    3    0  502  0.34521844618E+02 -0.67583311093E+02  0.12023435999E+03  0.14224287475E+03  0.41800000000E+01 0.  1.
        -11    1    4    4    0    0 -0.38393917471E+02  0.37629897384E+02  0.17179139096E+03  0.18000662233E+03  0.00000000000E+00 0. -1.
         11    1    4    4    0    0 -0.10152736784E+03  0.53241046932E+02  0.10022888526E+03  0.15227686935E+03  0.00000000000E+00 0.  1.
</event>
<event>
 8    1  0.4798744E-006  0.1853717E+03  0.7561462E-02  0.1162703E+00
         -3   -1    0    0    0  501 -0.00000000000E+00  0.00000000000E+00  0.84691583060E+03  0.84691583060E+03  0.00000000000E+00 0.  1.
          3   -1    0    0  501    0  0.00000000000E+00 -0.00000000000E+00 -0.44661085185E+02  0.44661085185E+02  0.00000000000E+00 0. -1.
         23    2    1    2    0    0 -0.80679058538E+02 -0.13750343051E+03  0.47549231865E+03  0.51687215161E+03  0.12509025591E+03 0.  0.
         23    2    1    2    0    0  0.80679058538E+02  0.13750343051E+03  0.32676242677E+03  0.37470476418E+03  0.90629315687E+02 0.  0.
          5    1    3    3  502    0  0.30334642666E+02 -0.32617737161E+02  0.16302930714E+03  0.16905660209E+03  0.41800000000E+01 0. -1.
         -5    1    3    3    0  502 -0.11101370120E+03 -0.10488569335E+03  0.31246301151E+03  0.34781554951E+03  0.41800000000E+01 0. -1.
        -11    1    4    4    0    0 -0.50812739279E+01  0.51556400597E+02  0.16170268509E+03  0.16979882259E+03  0.00000000000E+00 0.  1.
         11    1    4    4    0    0  0.85760332466E+02  0.85947029917E+02  0.16505974168E+03  0.20490594159E+03  0.00000000000E+00 0. -1.
</event>
<event>
 8    1  0.4798744E-006  0.7389067E+02  0.7561462E-02  0.1347341E+00
          2   -1    0    0  501    0  0.00000000000E+00  0.00000000000E+00  0.28229326376E+03  0.28229326376E+03  0.00000000000E+00 0.  1.
         -2   -1    0    0    0  501 -0.00000000000E+00 -0.00000000000E+00 -0.49684616872E+02  0.49684616872E+02  0.00000000000E+00 0. -1.
         23    2    1    2    0    0  0.34535872697E+01 -0.36051597281E+02  0.13698249742E+03  0.18900432577E+03  0.12508711216E+03 0.  0.
         23    2    1    2    0    0 -0.34535872697E+01  0.36051597281E+02  0.95626149460E+02  0.14297355486E+03  0.99927133437E+02 0.  0.
          5    1    3    3  502    0  0.66427756678E+01 -0.38234268547E+02 -0.11282985966E+02  0.40629594291E+02  0.41800000000E+01 0. -1.
         -5    1    3    3    0  502 -0.31891883981E+01  0.21826712658E+01  0.14826548339E+03  0.14837473148E+03  0.41800000000E+01 0. -1.
        -11    1    4    4    0    0 -0.17745342237E+02  0.66817482034E+02  0.79674323796E+02  0.10548682832E+03  0.00000000000E+00 0.  1.
         11    1    4    4    0    0  0.14291754967E+02 -0.30765884753E+02  0.15951825665E+02  0.37486726540E+02  0.00000000000E+00 0. -1.
</event>
<event>
 8    1  0.4798744E-006  0.1147797E+03  0.7561462E-02  0.1251966E+00
          2   -1    0    0  501    0  0.00000000000E+00  0.00000000000E+00  0.31579812652E+02  0.31579812652E+02  0.00000000000E+00 0. -1.
         -2   -1    0    0    0  501 -0.00000000000E+00 -0.00000000000E+00 -0.69568213674E+03  0.69568213674E+03  0.00000000000E+00 0.  1.
         23    2    1    2    0    0  0.44188401826E+02  0.51998234894E+02 -0.55029658359E+03  0.56602221522E+03  0.11357106552E+03 0.  0.
         23    2    1    2    0    0 -0.44188401826E+02 -0.51998234894E+02 -0.11380574050E+03  0.16123973418E+03  0.91597347220E+02 0.  0.
          5    1    3    3  502    0  0.16665381185E+02 -0.36117019391E+02 -0.15675985342E+03  0.16178163698E+03  0.41800000000E+01 0. -1.
         -5    1    3    3    0  502  0.27523020641E+02  0.88115254285E+02 -0.39353673017E+03  0.40424057824E+03  0.41800000000E+01 0.  1.
        -11    1    4    4    0    0  0.18142011470E+02 -0.20309107267E+02 -0.78132417626E+02  0.82742172453E+02  0.00000000000E+00 0.  1.
         11    1    4    4    0    0 -0.62330413296E+02 -0.31689127627E+02 -0.35673322877E+02  0.78497561723E+02  0.00000000000E+00 0. -1.
</event>
<event>
 7    1  0.4798744E-006  0.1709939E+03  0.7561462E-02  0.1176815E+00
         -2   -1    0    0    0  501 -0.00000000000E+00  0.00000000000E+00  0.77239185682E+03  0.77239185682E+03  0.00000000000E+00 0.  1.
          2   -1    0    0  501    0  0.00000000000E+00 -0.00000000000E+00 -0.57179687038E+02  0.57179687038E+02  0.00000000000E+00 0. -1.
         23    2    1    2    0    0 -0.32737637328E+02  0.28129144607E+02  0.98757700173E+02  0.13726545615E+03  0.85004237738E+02 0.  0.
          5    1    1    2  502    0 -0.23496086338E+02 -0.13325547263E+03  0.11739768917E+03  0.17918922089E+03  0.41800000000E+01 0. -1.
         -5    1    1    2    0  502  0.56233723666E+02  0.10512632802E+03  0.49905678043E+03  0.51311686682E+03  0.41800000000E+01 0.  1.
        -11    1    3    3    0    0 -0.44860215362E+02 -0.11137458442E+02  0.79320319217E+02  0.91805201070E+02  0.00000000000E+00 0.  1.
         11    1    3    3    0    0  0.12122578034E+02  0.39266603048E+02  0.19437380957E+02  0.45460255076E+02  0.00000000000E+00 0. -1.
</event>
<event>
 8    1  0.4798744E-006  0.7377409E+02  0.7561462E-02  0.1347710E+00
          2   -1    0    0  501    0  0.00000000000E+00  0.00000000000E+00  0.33179101354E+03  0.33179101354E+03  0.00000000000E+00 0. -1.
         -2   -1    0    0    0  501 -0.00000000000E+00 -0.00000000000E+00 -0.38751161167E+02  0.38751161167E+02  0.00000000000E+00 0.  1.
         23    2    1    2    0    0 -0.40135061773E+02 -0.15023151444E+02  0.11545748186E+03  0.16568328908E+03  0.11083322560E+03 0.  0.
         23    2    1    2    0    0  0.40135061773E+02  0.15023151444E+02  0.17758237050E+03  0.20485888563E+03  0.92710012642E+02 0.  0.
          5    1    3    3  502    0 -0.32006882915E+01  0.50144492591E+01  0.12263519454E+03  0.12285052888E+03  0.41800000000E+01 0. -1.
         -5    1    3    3    0  502 -0.36934373481E+02 -0.20037600703E+02 -0.71777126762E+01  0.42832760192E+02  0.41800000000E+01 0.  1.
        -11    1    4    4    0    0 -0.25670053410E+02  0.19285734181E+02  0.33493475988E+02  0.46397242576E+02  0.00000000000E+00 0.  1.
         11    1    4    4    0    0  0.65805115182E+02 -0.42625827369E+01  0.14408889452E+03  0.15846164305E+03  0.00000000000E+00 0. -1.
</event>
<event>
 8    1  0.4798744E-006  0.1293844E+03  0.7561462E-02  0.1228372E+00
         -1   -1    0    0    0  501 -0.00000000000E+00  0.00000000000E+00  0.16474949951E+03  0.16474949951E+03  0.00000000000E+00 0.  1.
          1   -1    0    0  501    0  0.00000000000E+00 -0.00000000000E+00 -0.13811104964E+03  0.13811104964E+03  0.00000000000E+00 0. -1.
         23    2    1    2    0    0 -0.65784727189E+02 -0.77949358009E+02  0.22608384246E+01  0.16141336768E+03  0.12508169782E+03 0.  0.
         23    2    1    2    0    0  0.65784727189E+02  0.77949358009E+02  0.24377611445E+02  0.14144718147E+03  0.94917355947E+02 0.  0.
          5    1    3    3  502    0  0.50966393705E+00  0.28803409624E+02 -0.17756388690E+02  0.34097769760E+02  0.41800000000E+01 0. -1.
         -5    1    3    3    0  502 -0.66294391127E+02 -0.10675276763E+03  0.20017227115E+02  0.12731559792E+03  0.41800000000E+01 0. -1.
        -11    1    4    4    0    0  0.90681144991E+01  0.23975285047E+02 -0.34859110373E+02  0.43268956189E+02  0.00000000000E+00 0. -1.
         11    1    4    4    0    0  0.56716612690E+02  0.53974072962E+02  0.59236721818E+02  0.98178225279E+02  0.00000000000E+00 0.  1.
</event>
<event>
 7    1  0.4798744E-006  0.9345190E+02  0.7561462E-02  0.1294701E+00
         -2   -1    0    0    0  501 -0.00000000000E+00  0.00000000000E+00  0.11489565282E+03  0.11489565282E+03  0.00000000000E+00 0.  1.
          2   -1    0    0  501    0  0.00000000000E+00 -0.00000000000E+00 -0.52802795009E+03  0.52802795009E+03  0.00000000000E+00 0. -1.
         23    2    1    2    0    0 -0.66294541104E+02 -0.22198618304E+02 -0.38198396255E+03  0.39899315442E+03  0.91629933927E+02 0.  0.
          5    1    1    2  502    0  0.71654597552E+02 -0.34655002639E+01 -0.12620855782E+03  0.14523244647E+03  0.41800000000E+01 0. -1.
         -5    1    1    2    0  502 -0.53600564482E+01  0.25664118568E+02  0.95060223099E+02  0.98698002019E+02  0.41800000000E+01 0.  1.
        -11    1    3    3    0    0 -0.15519804040E+02  0.17975882123E+02 -0.19375853370E+02  0.30649964916E+02  0.00000000000E+00 0.  1.
         11    1    3    3    0    0 -0.50774737064E+02 -0.40174500427E+02 -0.36260810918E+03  0.36834318950E+03  0.00000000000E+00 0. -1.
</event>
<event>
 8    1  0.4798744E-006  0.1311204E+03  0.7561462E-02  0.1225803E+00
         -4   -1    0    0    0  501 -0.00000000000E+00  0.00000000000E+00  0.24117432022E+02  0.24117432022E+02  0.00000000000E+00 0.  1.
          4   -1    0    0  501    0  0.00000000000E+00 -0.00000000000E+00 -0.74970527214E+03  0.74970527214E+03  0.00000000000E+00 0. -1.
         23    2    1    2    0    0 -0.29404124144E+02 -0.73251966621E+02 -0.39593527371E+03  0.42266166225E+03  0.12509071366E+03 0.  0.
         23    2    1    2    0    0  0.29404124144E+02  0.73251966621E+02 -0.32965256642E+03  0.35116104191E+03  0.91721369822E+02 0.  0.
          5    1    3    3  502    0 -0.23088772146E+01  0.34524403984E+02 -0.12559447787E+03  0.13034074825E+03  0.41800000000E+01 0.  1.
         -5    1    3    3    0  502 -0.27095246929E+02 -0.10777637060E+03 -0.27034079584E+03  0.29232091400E+03  0.41800000000E+01 0.  1.
        -11    1    4    4    0    0 -0.24485704764E+02  0.53404813696E+02 -0.11744521029E+03  0.13132022420E+03  0.00000000000E+00 0.  1.
         11    1    4    4    0    0  0.53889828908E+02  0.19847152925E+02 -0.21220735612E+03  0.21984081771E+03  0.00000000000E+00 0. -1.
</event>
<event>
 8    1  0.4798744E-006  0.1162218E+03  0.7561462E-02  0.1249463E+00
          1   -1    0    0  501    0  0.00000000000E+00  0.00000000000E+00  0.62865589080E+03  0.62865589080E+03  0.00000000000E+00 0. -1.
         -1   -1    0    0    0  501 -0.00000000000E+00 -0.00000000000E+00 -0.31288107032E+02  0.31288107032E+02  0.00000000000E+00 0.  1.
         23    2    1    2    0    0 -0.51150916630E+02  0.11294588025E+02  0.15748180184E+03  0.20781644404E+03  0.12507266893E+03 0.  0.
         23    2    1    2    0    0  0.51150916630E+02 -0.11294588025E+02  0.43988598193E+03  0.45212755379E+03  0.90419377391E+02 0.  0.
          5    1    3    3  502    0 -0.34052106613E+02 -0.54499730810E+02  0.54581535291E+02  0.84417906974E+02  0.41800000000E+01 0. -1.
         -5    1    3    3    0  502 -0.17098810017E+02  0.65794318835E+02  0.10290026655E+03  0.12339853707E+03  0.41800000000E+01 0. -1.
        -11    1    4    4    0    0  0.24986320774E+02 -0.48437915281E+02  0.30400658555E+03  0.30885360920E+03  0.00000000000E+00 0. -1.
         11    1    4    4    0    0  0.26164595856E+02  0.37143327256E+02  0.13587939638E+03  0.14327394458E+03  0.00000000000E+00 0.  1.
</event>
<event>
 7    1  0.4798744E-006  0.1230786E+03  0.7561462E-02  0.1238103E+00
         -2   -1    0    0    0  501 -0.00000000000E+00  0.00000000000E+00  0.54426128718E+02  0.54426128718E+02  0.00000000000E+00 0.  1.
          2   -1    0    0  501    0  0.00000000000E+00 -0.00000000000E+00 -0.44342739190E+03  0.44342739190E+03  0.00000000000E+00 0. -1.
         23    2    1    2    0    0 -0.61194497862E+01 -0.91860082815E+02 -0.21189968729E+03  0.24941475953E+03  0.93970858863E+02 0.  0.
          5    1    1    2  502    0 -0.36347495465E+02  0.22633460353E+02 -0.15954451566E+03  0.16524327167E+03  0.41800000000E+01 0. -1.
         -5    1    1    2    0  502  0.42466945251E+02  0.69226622462E+02 -0.17557060231E+02  0.83195489424E+02  0.41800000000E+01 0.  1.
        -11    1    3    3    0    0  0.36581160020E+02 -0.34320028620E+02 -0.43463127456E+02  0.66370845114E+02  0.00000000000E+00 0.  1.
         11    1    3    3    0    0 -0.42700609807E+02 -0.57540054196E+02 -0.16843655983E+03  0.18304391441E+03  0.00000000000E+00 0. -1.
</event>
<event>
 8    1  0.4798744E-006  0.2168838E+03  0.7561462E-02  0.1136228E+00
          2   -1    0    0  501    0  0.00000000000E+00  0.00000000000E+00  0.43444567376E+03  0.43444567376E+03  0.00000000000E+00 0. -1.
         -2   -1    0    0    0  501 -0.00000000000E+00 -0.00000000000E+00 -0.11881656953E+03  0.11881656953E+03  0.00000000000E+00 0.  1.
         23    2    1    2    0    0 -0.10783072699E+03 -0.16761869818E+03  0.17615422543E+03  0.29394122058E+03  0.12509051265E+03 0.  0.
         23    2    1    2    0    0  0.10783072699E+03  0.16761869818E+03  0.13947487880E+03  0.25932102271E+03  0.89836837328E+02 0.  0.
          5    1    3    3  502    0 -0.15936829870E+02 -0.13225368649E+03  0.75967768849E+02  0.15340663102E+03  0.41800000000E+01 0. -1.
         -5    1    3    3    0  502 -0.91893897124E+02 -0.35365011692E+02  0.10018645658E+03  0.14053458956E+03  0.41800000000E+01 0. -1.
        -11    1    4    4    0    0  0.60297440612E+02  0.63959667163E+02  0.12718570376E+02  0.88816566024E+02  0.00000000000E+00 0.  1.
         11    1    4    4    0    0  0.47533286382E+02  0.10365903102E+03  0.12675630842E+03  0.17050445669E+03  0.00000000000E+00 0. -1.
</event>
<event>
 8    1  0.4798744E-006  0.1356878E+03  0.7561462E-02  0.1219252E+00
          1   -1    0    0  501    0  0.00000000000E+00  0.00000000000E+00  0.52067029085E+03  0.52067029085E+03  0.00000000000E+00 0. -1.
         -1   -1    0    0    0  501 -0.00000000000E+00 -0.00000000000E+00 -0.43914737365E+02  0.43914737365E+02  0.00000000000E+00 0.  1.
         23    2    1    2    0    0 -0.85357945515E+02  0.52456974986E+02  0.19547230290E+03  0.25277322731E+03  0.12508864918E+03 0.  0.
         23    2    1    2    0    0  0.85357945515E+02 -0.52456974986E+02  0.28128325058E+03  0.31181180090E+03  0.89825492146E+02 0.  0.
          5    1    3    3  502    0  0.73296850636E+01 -0.18761659886E+02  0.99123215012E+02  0.10123541040E+03  0.41800000000E+01 0. -1.
         -5    1    3    3    0  502 -0.92687630579E+02  0.71218634873E+02  0.96349087892E+02  0.15153781691E+03  0.41800000000E+01 0. -1.
        -11    1    4    4    0    0 -0.18638410450E+02 -0.12448049380E+02  0.60179526948E+02  0.64217752539E+02  0.00000000000E+00 0.  1.
         11    1    4    4    0    0  0.10399635597E+03 -0.40008925607E+02  0.22110372363E+03  0.24759404837E+03  0.00000000000E+00 0. -1.
</event>
<event>
 8    1  0.4798744E-006  0.1077457E+03  0.7561462E-02  0.1264802E+00
         -2   -1    0    0    0  501 -0.00000000000E+00  0.00000000000E+00  0.27799720356E+02  0.27799720356E+02  0.00000000000E+00 0. -1.
          2   -1    0    0  501    0  0.00000000000E+00 -0.00000000000E+00 -0.80873825180E+03  0.80873825180E+03  0.00000000000E+00 0.  1.
         23    2    1    2    0    0  0.72653100014E+02  0.57412096584E+02 -0.29391401207E+03  0.33257754744E+03  0.12509099407E+03 0.  0.
         23    2    1    2    0    0 -0.72653100014E+02 -0.57412096584E+02 -0.48702451938E+03  0.50396042472E+03  0.90601354446E+02 0.  0.
          5    1    3    3  502    0  0.34958923950E+02  0.56807830426E+02 -0.28616266555E+03  0.29386357297E+03  0.41800000000E+01 0.  1.
         -5    1    3    3    0  502  0.37694176064E+02  0.60426615789E+00 -0.77513465134E+01  0.38713974473E+02  0.41800000000E+01 0.  1.
        -11    1    4    4    0    0 -0.74043174774E+02 -0.24799946551E+02 -0.43901449440E+03  0.44590487256E+03  0.00000000000E+00 0.  1.
         11    1    4    4    0    0  0.13900747598E+01 -0.32612150033E+02 -0.48010024980E+02  0.58055552157E+02  0.00000000000E+00 0. -1.
</event>
<event>
 8    1  0.4798744E-006  0.1238610E+03  0.7561462E-02  0.1236860E+00
          1   -1    0    0  501    0  0.00000000000E+00  0.00000000000E+00  0.34743262476E+03  0.34743262476E+03  0.00000000000E+00 0. -1.
         -1   -1    0    0    0  501 -0.00000000000E+00 -0.00000000000E+00 -0.56123703282E+02  0.56123703282E+02  0.00000000000E+00 0.  1.
         23    2    1    2    0    0  0.77589225706E+02  0.38827572780E+02  0.14918063714E+03  0.21314387273E+03  0.12509108533E+03 0.  0.
         23    2    1    2    0    0 -0.77589225706E+02 -0.38827572780E+02  0.14212828434E+03  0.19041245532E+03  0.92351424334E+02 0.  0.
          5    1    3    3  502    0  0.64254240370E+01 -0.35723223662E+02  0.65422639690E+01  0.37117494537E+02  0.41800000000E+01 0.  1.
         -5    1    3    3    0  502  0.71163801669E+02  0.74550796442E+02  0.14263837317E+03  0.17602637819E+03  0.41800000000E+01 0.  1.
        -11    1    4    4    0    0 -0.54654181191E+02 -0.56855799547E+02  0.14059020383E+03  0.16119946302E+03  0.00000000000E+00 0. -1.
         11    1    4    4    0    0 -0.22935044515E+02  0.18028226768E+02  0.15380805066E+01  0.29212992297E+02  0.00000000000E+00 0.  1.
</event>
<event>
 8    1  0.4798744E-006  0.8106587E+02  0.7561462E-02  0.1326054E+00
         -1   -1    0    0    0  501 -0.00000000000E+00  0.00000000000E+00  0.10900333537E+03  0.10900333537E+03  0.00000000000E+00 0.  1.
          1   -1    0    0  501    0  0.00000000000E+00 -0.00000000000E+00 -0.13090287913E+03  0.13090287913E+03  0.00000000000E+00 0. -1.
         23    2    1    2    0    0 -0.25748647835E+02  0.36818573528E+02 -0.35489260084E+02  0.13757076704E+03  0.12509047981E+03 0.  0.
         23    2    1    2    0    0  0.25748647835E+02 -0.36818573528E+02  0.13589716320E+02  0.10233544746E+03  0.90935489200E+02 0.  0.
          5    1    3    3  502    0  0.16044857744E+02 -0.10863826982E+02  0.36508227045E+02  0.41542547331E+02  0.41800000000E+01 0.  1.
         -5    1    3    3    0  502 -0.41793505579E+02  0.47682400509E+02 -0.71997487130E+02  0.96028219706E+02  0.41800000000E+01 0.  1.
        -11    1    4    4    0    0  0.12832322044E+02 -0.54992260565E+02 -0.21780441272E+02  0.60524415181E+02  0.00000000000E+00 0. -1.
         11    1    4    4    0    0  0.12916325790E+02  0.18173687037E+02  0.35370157592E+02  0.41811032282E+02  0.00000000000E+00 0.  1.
</event>
<event>
 8    1  0.4798744E-006  0.1120960E+03  0.7561462E-02  0.1256737E+00
          2   -1    0    0  501    0  0.00000000000E+00  0.00000000000E+00  0.55354927537E+03  0.55354927537E+03  0.00000000000E+00 0. -1.
         -2   -1    0    0    0  501 -0.00000000000E+00 -0.00000000000E+00 -0.42665588420E+02  0.42665588420E+02  0.00000000000E+00 0.  1.
         23    2    1    2    0    0 -0.48523234717E+00 -0.80978310926E+02  0.11397531401E+03  0.18110064220E+03  0.11510581267E+03 0.  0.
         23    2    1    2    0    0  0.48523234717E+00  0.80978310926E+02  0.39690837294E+03  0.41511422160E+03  0.90696406581E+02 0.  0.
          5    1    3    3  502    0 -0.23224319918E+01  0.21806360572E+02  0.61866690134E+02  0.65771352425E+02  0.41800000000E+01 0. -1.
         -5    1    3    3    0  502  0.18371996446E+01 -0.10278467150E+03  0.52108623875E+02  0.11532928977E+03  0.41800000000E+01 0.  1.
        -11    1    4    4    0    0 -0.20747912713E+02  0.73654196190E+02  0.37825576811E+03  0.38591818123E+03  0.00000000000E+00 0. -1.
         11    1    4    4    0    0  0.21233145060E+02  0.73241147360E+01  0.18652604840E+02  0.29196040367E+02  0.00000000000E+00 0.  1.
</event>
<event>
 8    1  0.4798744E-006  0.1576551E+03  0.7561462E-02  0.1191370E+00
         -4   -1    0    0    0  501 -0.00000000000E+00  0.00000000000E+00  0.10938033931E+03  0.10938033931E+03  0.00000000000E+00 0.  1.
          4   -1    0    0  501    0  0.00000000000E+00 -0.00000000000E+00 -0.28087035976E+03  0.28087035976E+03  0.00000000000E+00 0. -1.
         23    2    1    2    0    0  0.89978865232E+01  0.13296623768E+03 -0.57350065603E+02  0.19156511556E+03  0.12508869315E+03 0.  0.
         23    2    1    2    0    0 -0.89978865232E+01 -0.13296623768E+03 -0.11413995484E+03  0.19868558350E+03  0.93204342588E+02 0.  0.
          5    1    3    3  502    0 -0.45973079187E+02  0.11501893605E+03 -0.47652640257E+02  0.13278225101E+03  0.41800000000E+01 0. -1.
         -5    1    3    3    0  502  0.54970965711E+02  0.17947301627E+02 -0.96974253462E+01  0.58782864554E+02  0.41800000000E+01 0. -1.
        -11    1    4    4    0    0 -0.36641269160E+01 -0.22128671887E+02 -0.79251400135E+02  0.82364363465E+02  0.00000000000E+00 0. -1.
         11    1    4    4    0    0 -0.53337596073E+01 -0.11083756579E+03 -0.34888554704E+02  0.11632122004E+03  0.00000000000E+00 0.  1.
</event>
<event>
 8    1  0.4798744E-006  0.1396370E+03  0.7561462E-02  0.1213818E+00
         -1   -1    0    0    0  501 -0.00000000000E+00  0.00000000000E+00  0.78363355875E+02  0.78363355875E+02  0.00000000000E+00 0.  1.
          1   -1    0    0  501    0  0.00000000000E+00 -0.00000000000E+00 -0.30726543181E+03  0.30726543181E+03  0.00000000000E+00 0. -1.
         23    2    1    2    0    0 -0.43328011815E+02  0.92535014113E+02 -0.70633118186E+02  0.17627425411E+03  0.12507409737E+03 0.  0.
         23    2    1    2    0    0  0.43328011815E+02 -0.92535014113E+02 -0.15826895775E+03  0.20935453357E+03  0.91324762783E+02 0.  0.
          5    1    3    3  502    0 -0.43900544850E+02 -0.20251863736E+02 -0.24258644310E+02  0.54252650135E+02  0.41800000000E+01 0.  1.
         -5    1    3    3    0  502  0.57253303452E+00  0.11278687785E+03 -0.46374473876E+02  0.12202160397E+03  0.41800000000E+01 0.  1.
        -11    1    4    4    0    0  0.43619279729E+02 -0.24861078929E+02 -0.17510578581E+02  0.53172691975E+02  0.00000000000E+00 0.  1.
         11    1    4    4    0    0 -0.29126791378E+00 -0.67673935184E+02 -0.14075837917E+03  0.15618184160E+03  0.00000000000E+00 0. -1.
</event>
<event>
 8    1  0.4798744E-006  0.7926658E+02  0.7561462E-02  0.1331146E+00
          1   -1    0    0  501    0  0.00000000000E+00  0.00000000000E+00  0.10447778070E+03  0.10447778070E+03  0.00000000000E+00 0. -1.
         -1   -1    0    0    0  501 -0.00000000000E+00 -0.00000000000E+00 -0.14466833345E+03  0.14466833345E+03  0.00000000000E+00 0.  1.
         23    2    1    2    0    0 -0.42877042050E+02 -0.48868058428E+02 -0.58568167353E+02  0.15265659908E+03  0.12508908484E+03 0.  0.
         23    2    1    2    0    0  0.42877042050E+02  0.48868058428E+02  0.18377614597E+02  0.96489515072E+02  0.68890942300E+02 0.  0.
          5    1    3    3  502    0 -0.24596863290E+02 -0.61453463042E+01  0.37731363110E+02  0.45649743998E+02  0.41800000000E+01 0.  1.
         -5    1    3    3    0  502 -0.18280178760E+02 -0.42722712124E+02 -0.96299530463E+02  0.10700685508E+03  0.41800000000E+01 0.  1.
        -11    1    4    4    0    0  0.71512833866E+01  0.49929980590E+02 -0.92932388198E+01  0.51288479248E+02  0.00000000000E+00 0.  1.
         11    1    4    4    0    0  0.35725758664E+02 -0.10619221620E+01  0.27670853417E+02  0.45201035824E+02  0.00000000000E+00 0. -1.
</event>
<event>
 8    1  0.4798744E-006  0.1063863E+03  0.7561462E-02  0.1267412E+00
         -2   -1    0    0    0  501 -0.00000000000E+00  0.00000000000E+00  0.92177704867E+02  0.92177704867E+02  0.00000000000E+00 0.  1.
          2   -1    0    0  501    0  0.00000000000E+00 -0.00000000000E+00 -0.23625556857E+03  0.23625556857E+03  0.00000000000E+00 0. -1.
         23    2    1    2    0    0  0.70225155083E+02 -0.49860432416E+02 -0.20682752955E+02  0.15327050127E+03  0.12508571127E+03 0.  0.
         23    2    1    2    0    0 -0.70225155083E+02  0.49860432416E+02 -0.12339511075E+03  0.17516277216E+03  0.89654940008E+02 0.  0.
          5    1    3    3  502    0  0.77782348571E+02 -0.26142989206E+02  0.37147521287E+02  0.90171838018E+02  0.41800000000E+01 0.  1.
         -5    1    3    3    0  502 -0.75571934880E+01 -0.23717443210E+02 -0.57830274241E+02  0.63098663256E+02  0.41800000000E+01 0.  1.
        -11    1    4    4    0    0  0.79285680167E+00  0.32168912433E+02 -0.56812590723E+00  0.32183696432E+02  0.00000000000E+00 0.  1.
         11    1    4    4    0    0 -0.71018011885E+02  0.17691519983E+02 -0.12282698484E+03  0.14297907573E+03  0.00000000000E+00 0. -1.
</event>
<event>
 8    1  0.4798744E-006  0.9257504E+02  0.7561462E-02  0.1296733E+00
         -2   -1    0    0    0  501 -0.00000000000E+00  0.00000000000E+00  0.66041590549E+02  0.66041590549E+02  0.00000000000E+00 0.  1.
          2   -1    0    0  501    0  0.00000000000E+00 -0.00000000000E+00 -0.27643357818E+03  0.27643357818E+03  0.00000000000E+00 0. -1.
         23    2    1    2    0    0 -0.14684624799E+02 -0.73570300469E+02 -0.15252746964E+03  0.21100835106E+03  0.12502666878E+03 0.  0.
         23    2    1    2    0    0  0.14684624799E+02  0.73570300469E+02 -0.57864517987E+02  0.13146681766E+03  0.91142714401E+02 0.  0.
          5    1    3    3  502    0 -0.32181277494E+02 -0.83471405841E+02 -0.42588740864E+02  0.99168460019E+02  0.41800000000E+01 0. -1.
         -5    1    3    3    0  502  0.17496652695E+02  0.99011053710E+01 -0.10993872878E+03  0.11183989104E+03  0.41800000000E+01 0. -1.
        -11    1    4    4    0    0  0.75461666386E+01  0.31831676032E+02  0.23134209420E+02  0.40067341756E+02  0.00000000000E+00 0.  1.
         11    1    4    4    0    0  0.71384581608E+01  0.41738624438E+02 -0.80998727407E+02  0.91399475908E+02  0.00000000000E+00 0. -1.
</event>
<event>
 8    1  0.4798744E-006  0.2543634E+03  0.7561462E-02  0.1110578E+00
         -2   -1    0    0    0  501 -0.00000000000E+00  0.00000000000E+00  0.71675145977E+02  0.71675145977E+02  0.00000000000E+00 0.  1.
          2   -1    0    0  501    0  0.00000000000E+00 -0.00000000000E+00 -0.10151949108E+04  0.10151949108E+04  0.00000000000E+00 0. -1.
         23    2    1    2    0    0  0.24632181668E+03  0.13746425098E+02 -0.49252294195E+03  0.56487925051E+03  0.12508524189E+03 0.  0.
         23    2    1    2    0    0 -0.24632181668E+03 -0.13746425098E+02 -0.45099682287E+03  0.52199080626E+03  0.90624864159E+02 0.  0.
          5    1    3    3  502    0  0.15869367704E+03 -0.10608149957E+02 -0.41789144886E+03  0.44715428143E+03  0.41800000000E+01 0.  1.
         -5    1    3    3    0  502  0.87628139643E+02  0.24354575055E+02 -0.74631493094E+02  0.11772496908E+03  0.41800000000E+01 0.  1.
        -11    1    4    4    0    0 -0.30280547024E+02 -0.29094268666E+02 -0.43198259831E+02  0.60245146275E+02  0.00000000000E+00 0.  1.
         11    1    4    4    0    0 -0.21604126966E+03  0.15347843568E+02 -0.40779856304E+03  0.46174565998E+03  0.00000000000E+00 0. -1.
</event>
<event>
 7    1  0.4798744E-006  0.1727642E+03  0.7561462E-02  0.1174996E+00
         -1   -1    0    0    0  501 -0.00000000000E+00  0.00000000000E+00  0.74222841842E+02  0.74222841842E+02  0.00000000000E+00 0.  1.
          1   -1    0    0  501    0  0.00000000000E+00 -0.00000000000E+00 -0.46978621996E+03  0.46978621996E+03  0.00000000000E+00 0. -1.
         23    2    1    2    0    0  0.13861099873E+02  0.33367550733E+02 -0.11746172371E+03  0.15018382065E+03  0.86327283737E+02 0.  0.
          5    1    1    2  502    0  0.12375235814E+03 -0.34963860221E+02 -0.19301887921E+03  0.23197171766E+03  0.41800000000E+01 0. -1.
         -5    1    1    2    0  502 -0.13761345801E+03  0.15963094878E+01 -0.85082775202E+02  0.16185352349E+03  0.41800000000E+01 0.  1.
        -11    1    3    3    0    0  0.37077760500E+02 -0.17049877808E+01 -0.96080510191E+02  0.10300063954E+03  0.00000000000E+00 0. -1.
         11    1    3    3    0    0 -0.23216660627E+02  0.35072538514E+02 -0.21381213521E+02  0.47183181115E+02  0.00000000000E+00 0.  1.
</event>
<event>
 8    1  0.4798744E-006  0.1799900E+03  0.7561462E-02  0.1167813E+00
         -2   -1    0    0    0  501 -0.00000000000E+00  0.00000000000E+00  0.11728246143E+03  0.11728246143E+03  0.00000000000E+00 0.  1.
          2   -1    0    0  501    0  0.00000000000E+00 -0.00000000000E+00 -0.62732263800E+03  0.62732263800E+03  0.00000000000E+00 0. -1.
         23    2    1    2    0    0  0.15354445787E+03  0.48595873927E+02  0.59588402187E+01  0.19604185743E+03  0.11162187323E+03 0.  0.
         23    2    1    2    0    0 -0.15354445787E+03 -0.48595873927E+02 -0.51599901679E+03  0.54856324200E+03  0.93430110976E+02 0.  0.
          5    1    3    3  502    0  0.25105849905E+02  0.59664946543E+02 -0.11516220699E+02  0.65880993349E+02  0.41800000000E+01 0. -1.
         -5    1    3    3    0  502  0.12843860797E+03 -0.11069072616E+02  0.17475060917E+02  0.13016086408E+03  0.41800000000E+01 0.  1.
        -11    1    4    4    0    0 -0.94699747653E+02 -0.88321284983E+01 -0.41058499689E+03  0.42145710146E+03  0.00000000000E+00 0. -1.
         11    1    4    4    0    0 -0.58844710219E+02 -0.39763745428E+02 -0.10541401990E+03  0.12710614054E+03  0.00000000000E+00 0.  1.
</event>
<event>
 8    1  0.4798744E-006  0.8848051E+02  0.7561462E-02  0.1306574E+00
          1   -1    0    0  501    0  0.00000000000E+00  0.00000000000E+00  0.31638760349E+02  0.31638760349E+02  0.00000000000E+00 0. -1.
         -1   -1    0    0    0  501 -0.00000000000E+00 -0.00000000000E+00 -0.73404771255E+03  0.73404771255E+03  0.00000000000E+00 0.  1.
         23    2    1    2    0    0 -0.64243973807E+02 -0.16615439509E+01 -0.58751369601E+03  0.60411076247E+03  0.12508965359E+03 0.  0.
         23    2    1    2    0    0  0.64243973807E+02  0.16615439509E+01 -0.11489525619E+03  0.16157571043E+03  0.93678927227E+02 0.  0.
          5    1    3    3  502    0 -0.57680249226E+02 -0.10255463762E+02 -0.96557760192E+02  0.11301795937E+03  0.41800000000E+01 0. -1.
         -5    1    3    3    0  502 -0.65637245808E+01  0.85939198108E+01 -0.49095593582E+03  0.49109280310E+03  0.41800000000E+01 0. -1.
        -11    1    4    4    0    0  0.49050514086E+02  0.41338690700E+02 -0.40377903792E+02  0.75797199128E+02  0.00000000000E+00 0. -1.
         11    1    4    4    0    0  0.15193459720E+02 -0.39677146750E+02 -0.74517352396E+02  0.85778511299E+02  0.00000000000E+00 0.  1.
</event>
<event>
 8    1  0.4798744E-006  0.7952399E+02  0.7561462E-02  0.1330408E+00
         -2   -1    0    0    0  501 -0.00000000000E+00  0.00000000000E+00  0.35820266337E+03  0.35820266337E+03  0.00000000000E+00 0.  1.
          2   -1    0    0  501    0  0.00000000000E+00 -0.00000000000E+00 -0.56980964598E+02  0.56980964598E+02  0.00000000000E+00 0. -1.
         23    2    1    2    0    0  0.11643797152E+02 -0.52356257641E+01  0.29652819772E+03  0.32208419735E+03  0.12508504447E+03 0.  0.
         23    2    1    2    0    0 -0.11643797152E+02  0.52356257641E+01  0.46935010461E+01  0.93099430613E+02  0.92100408464E+02 0.  0.
          5    1    3    3  502    0  0.33051994157E+02 -0.43706233683E+02  0.25686900025E+03  0.26268198429E+03  0.41800000000E+01 0. -1.
         -5    1    3    3    0  502 -0.21408197004E+02  0.38470607919E+02  0.39659197473E+02  0.59402213063E+02  0.41800000000E+01 0. -1.
        -11    1    4    4    0    0 -0.35098359909E+02  0.86961053642E+01  0.37844964207E+02  0.52342701809E+02  0.00000000000E+00 0.  1.
         11    1    4    4    0    0  0.23454562756E+02 -0.34604796001E+01 -0.33151463161E+02  0.40756728805E+02  0.00000000000E+00 0. -1.
</event>
<event>
 8    1  0.4798744E-006  0.1026342E+03  0.7561462E-02  0.1274852E+00
         -2   -1    0    0    0  501 -0.00000000000E+00  0.00000000000E+00  0.25544918533E+03  0.25544918533E+03  0.00000000000E+00 0.  1.
          2   -1    0    0  501    0  0.00000000000E+00 -0.00000000000E+00 -0.46959395162E+02  0.46959395162E+02  0.00000000000E+00 0. -1.
         23    2    1    2    0    0 -0.20958436560E+02 -0.15327010900E+02  0.12974667477E+03  0.18209044449E+03  0.12509419265E+03 0.  0.
         23    2    1    2    0    0  0.20958436560E+02  0.15327010900E+02  0.78743115396E+02  0.12031813600E+03  0.87188315170E+02 0.  0.
          5    1    3    3  502    0 -0.52909183482E+02  0.28282619941E+02  0.27017982791E+02  0.65929751111E+02  0.41800000000E+01 0.  1.
         -5    1    3    3    0  502  0.31950746922E+02 -0.43609630840E+02  0.10272869198E+03  0.11616069338E+03  0.41800000000E+01 0.  1.
        -11    1    4    4    0    0  0.56418422833E+01  0.51403818506E+02  0.42510442469E+02  0.66942666964E+02  0.00000000000E+00 0.  1.
         11    1    4    4    0    0  0.15316594277E+02 -0.36076807607E+02  0.36232672928E+02  0.53375469036E+02  0.00000000000E+00 0. -1.
</event>
<event>
 8    1  0.4798744E-006  0.3195108E+03  0.7561462E-02  0.1075875E+00
          1   -1    0    0  501    0  0.00000000000E+00  0.00000000000E+00  0.22148242616E+03  0.22148242616E+03  0.00000000000E+00 0. -1.
         -1   -1    0    0    0  501 -0.00000000000E+00 -0.00000000000E+00 -0.83442844767E+03  0.83442844767E+03  0.00000000000E+00 0.  1.
         23    2    1    2    0    0 -0.21128523522E+03 -0.22978559982E+03 -0.64655015738E+03  0.72877693010E+03  0.12508331361E+03 0.  0.
         23    2    1    2    0    0  0.21128523522E+03  0.22978559982E+03  0.33604135868E+02  0.32713394372E+03  0.91893996988E+02 0.  0.
          5    1    3    3  502    0 -0.25745732074E+00 -0.12932774168E+02  0.13785702266E+01  0.13663666705E+02  0.41800000000E+01 0. -1.
         -5    1    3    3    0  502 -0.21102777790E+03 -0.21685282565E+03 -0.64792872760E+03  0.71511326340E+03  0.41800000000E+01 0. -1.
        -11    1    4    4    0    0  0.16368365505E+03  0.11940978842E+03  0.10987122877E+01  0.20261353280E+03  0.00000000000E+00 0.  1.
         11    1    4    4    0    0  0.47601580163E+02  0.11037581139E+03  0.32505423580E+02  0.12452041092E+03  0.00000000000E+00 0. -1.
</event>
<event>
 8    1  0.4798744E-006  0.1003347E+03  0.7561462E-02  0.1279594E+00
          3   -1    0    0  501    0  0.00000000000E+00  0.00000000000E+00  0.81384042240E+02  0.81384042240E+02  0.00000000000E+00 0. -1.
         -3   -1    0    0    0  501 -0.00000000000E+00 -0.00000000000E+00 -0.49507021038E+03  0.49507021038E+03  0.00000000000E+00 0.  1.
         23    2    1    2    0    0  0.47698436477E+02 -0.65658349546E+02 -0.42893185016E+03  0.45411249779E+03  0.12509783715E+03 0.  0.
         23    2    1    2    0    0 -0.47698436477E+02  0.65658349546E+02  0.15245682022E+02  0.12234175483E+03  0.90271337905E+02 0.  0.
          5    1    3    3  502    0  0.11418909606E+02 -0.18943829852E+01 -0.33321680491E+03  0.33344398579E+03  0.41800000000E+01 0. -1.
         -5    1    3    3    0  502  0.36279526871E+02 -0.63763966560E+02 -0.95715045252E+02  0.12066851200E+03  0.41800000000E+01 0. -1.
        -11    1    4    4    0    0  0.21178848978E+02  0.23143731023E+01 -0.12547334431E+02  0.24725201075E+02  0.00000000000E+00 0.  1.
         11    1    4    4    0    0 -0.68877285455E+02  0.63343976443E+02  0.27793016453E+02  0.97616553754E+02  0.00000000000E+00 0. -1.
</event>
<event>
 8    1  0.4798744E-006  0.1417934E+03  0.7561462E-02  0.1210936E+00
         -1   -1    0    0    0  501 -0.00000000000E+00  0.00000000000E+00  0.25132626868E+03  0.25132626868E+03  0.00000000000E+00 0.  1.
          1   -1    0    0  501    0  0.00000000000E+00 -0.00000000000E+00 -0.13974638081E+03  0.13974638081E+03  0.00000000000E+00 0. -1.
         23    2    1    2    0    0  0.97456235742E+02 -0.59078470310E+01  0.17119131970E+03  0.23342439098E+03  0.12509139788E+03 0.  0.
         23    2    1    2    0    0 -0.97456235742E+02  0.59078470310E+01 -0.59611431824E+02  0.15764825851E+03  0.10847502046E+03 0.  0.
          5    1    3    3  502    0  0.11339901502E+03  0.31490794542E+02  0.12450494046E+03  0.17137665928E+03  0.41800000000E+01 0. -1.
         -5    1    3    3    0  502 -0.15942779276E+02 -0.37398641573E+02  0.46686379236E+02  0.62047731697E+02  0.41800000000E+01 0. -1.
        -11    1    4    4    0    0 -0.89740651491E+01  0.31573073854E+02 -0.56649012560E+02  0.65471394226E+02  0.00000000000E+00 0. -1.
         11    1    4    4    0    0 -0.88482170593E+02 -0.25665226823E+02 -0.29624192639E+01  0.92176864281E+02  0.00000000000E+00 0.  1.
</event>
<event>
 8    1  0.4798744E-006  0.1144291E+03  0.7561462E-02  0.1252581E+00
         -3   -1    0    0    0  501 -0.00000000000E+00  0.00000000000E+00  0.41765201341E+03  0.41765201341E+03  0.00000000000E+00 0.  1.
          3   -1    0    0  501    0  0.00000000000E+00 -0.00000000000E+00 -0.35429304934E+02  0.35429304934E+02  0.00000000000E+00 0. -1.
         23    2    1    2    0    0 -0.47686687355E+02  0.43475665616E+02  0.23574491501E+03  0.27456910684E+03  0.12509346836E+03 0.  0.
         23    2    1    2    0    0  0.47686687355E+02 -0.43475665616E+02  0.14647779346E+03  0.17851221150E+03  0.79036143791E+02 0.  0.
          5    1    3    3  502    0 -0.41922127458E+01  0.81936198547E+02  0.12771264215E+03  0.15185225269E+03  0.41800000000E+01 0. -1.
         -5    1    3    3    0  502 -0.43494474610E+02 -0.38460532931E+02  0.10803227286E+03  0.12271685415E+03  0.41800000000E+01 0. -1.
        -11    1    4    4    0    0  0.16566453909E+02 -0.53338699961E+02  0.13094628791E+03  0.14236008790E+03  0.00000000000E+00 0.  1.
         11    1    4    4    0    0  0.31120233447E+02  0.98630343445E+01  0.15531505551E+02  0.36152123602E+02  0.00000000000E+00 0. -1.
</event>
<event>
 8    1  0.4798744E-006  0.1400950E+03  0.7561462E-02  0.1213201E+00
         -4   -1    0    0    0  501 -0.00000000000E+00  0.00000000000E+00  0.14431472247E+03  0.14431472247E+03  0.00000000000E+00 0.  1.
          4   -1    0    0  501    0  0.00000000000E+00 -0.00000000000E+00 -0.19160202313E+03  0.19160202313E+03  0.00000000000E+00 0. -1.
         23    2    1    2    0    0 -0.94525484679E+02  0.73358015830E+02 -0.22927671167E+02  0.17461428536E+03  0.12509198538E+03 0.  0.
         23    2    1    2    0    0  0.94525484679E+02 -0.73358015830E+02 -0.24359629496E+02  0.16130246025E+03  0.10539746862E+03 0.  0.
          5    1    3    3  502    0 -0.34062917462E+02  0.99357802496E+01  0.49366852616E+02  0.60938990904E+02  0.41800000000E+01 0.  1.
         -5    1    3    3    0  502 -0.60462567217E+02  0.63422235581E+02 -0.72294523784E+02  0.11367529446E+03  0.41800000000E+01 0.  1.
        -11    1    4    4    0    0 -0.21956003573E+02 -0.13527515552E+02  0.68555738017E+01  0.26684427333E+02  0.00000000000E+00 0.  1.
         11    1    4    4    0    0  0.11648148825E+03 -0.59830500278E+02 -0.31215203297E+02  0.13461803291E+03  0.00000000000E+00 0. -1.
</event>
<event>
 8    1  0.4798744E-006  0.1297106E+03  0.7561462E-02  0.1227886E+00
         -2   -1    0    0    0  501 -0.00000000000E+00  0.00000000000E+00  0.55825909618E+02  0.55825909618E+02  0.00000000000E+00 0.  1.
          2   -1    0    0  501    0  0.00000000000E+00 -0.00000000000E+00 -0.43083750973E+03  0.43083750973E+03  0.00000000000E+00 0. -1.
         23    2    1    2    0    0  0.95083462507E+02 -0.56705100533E+02 -0.18947307724E+03  0.25259636114E+03  0.12509413013E+03 0.  0.
         23    2    1    2    0    0 -0.95083462507E+02  0.56705100533E+02 -0.18553852288E+03  0.23406705821E+03  0.90036164958E+02 0.  0.
          5    1    3    3  502    0  0.54415063307E+02  0.22924665645E+02 -0.22849419907E+02  0.63451617787E+02  0.41800000000E+01 0. -1.
         -5    1    3    3    0  502  0.40668399200E+02 -0.79629766178E+02 -0.16662365733E+03  0.18914474335E+03  0.41800000000E+01 0. -1.
        -11    1    4    4    0    0 -0.39941480033E+02  0.23120185385E+02 -0.10262557996E+02  0.47277742079E+02  0.00000000000E+00 0.  1.
         11    1    4    4    0    0 -0.55141982474E+02  0.33584915148E+02 -0.17527596488E+03  0.18678931614E+03  0.00000000000E+00 0. -1.
</event>
<event>
 8    1  0.4798744E-006  0.9780013E+02  0.7561462E-02  0.1284991E+00
         -2   -1    0    0    0  501 -0.00000000000E+00  0.00000000000E+00  0.29010453470E+02  0.29010453470E+02  0.00000000000E+00 0.  1.
          2   -1    0    0  501    0  0.00000000000E+00 -0.00000000000E+00 -0.45257475502E+03  0.45257475502E+03  0.00000000000E+00 0. -1.
         23    2    1    2    0    0  0.18575336020E+02 -0.20771433909E+01 -0.17693209804E+03  0.21748941746E+03  0.12508925517E+03 0.  0.
         23    2    1    2    0    0 -0.18575336020E+02  0.20771433909E+01 -0.24663220351E+03  0.26409579103E+03  0.92573135388E+02 0.  0.
          5    1    3    3  502    0  0.44919389425E+02  0.38454076505E+02 -0.38209092915E+02  0.70525702602E+02  0.41800000000E+01 0. -1.
         -5    1    3    3    0  502 -0.26344053404E+02 -0.40531219896E+02 -0.13872300512E+03  0.14696371486E+03  0.41800000000E+01 0. -1.
        -11    1    4    4    0    0  0.20116637837E+02  0.32743960370E+02 -0.15834525428E+03  0.16294190870E+03  0.00000000000E+00 0. -1.
         11    1    4    4    0    0 -0.38691973857E+02 -0.30666816979E+02 -0.88286949238E+02  0.10115388233E+03  0.00000000000E+00 0.  1.
</event>
<event>
 8    1  0.4798744E-006  0.1521850E+03  0.7561462E-02  0.1197813E+00
          4   -1    0    0  501    0  0.00000000000E+00  0.00000000000E+00  0.45802150607E+03  0.45802150607E+03  0.00000000000E+00 0. -1.
         -4   -1    0    0    0  501 -0.00000000000E+00 -0.00000000000E+00 -0.56541985828E+02  0.56541985828E+02  0.00000000000E+00 0.  1.
         23    2    1    2    0    0  0.98963104012E+02 -0.58765889843E+02  0.20919162951E+03  0.26954713953E+03  0.12508955514E+03 0.  0.
         23    2    1    2    0    0 -0.98963104012E+02  0.58765889843E+02  0.19228789073E+03  0.24501635237E+03  0.99051775563E+02 0.  0.
          5    1    3    3  502    0  0.64945426084E+02  0.31916528970E+02  0.78817332461E+02  0.10708042532E+03  0.41800000000E+01 0. -1.
         -5    1    3    3    0  502  0.34017677928E+02 -0.90682418813E+02  0.13037429705E+03  0.16246671421E+03  0.41800000000E+01 0. -1.
        -11    1    4    4    0    0 -0.16223247780E+01 -0.13570092467E+02  0.75235434069E+02  0.76466658661E+02  0.00000000000E+00 0. -1.
         11    1    4    4    0    0 -0.97340779234E+02  0.72335982310E+02  0.11705245666E+03  0.16854969371E+03  0.00000000000E+00 0.  1.
</event>
<event>
 7    1  0.4798744E-006  0.1317584E+03  0.7561462E-02  0.1224870E+00
         -1   -1    0    0    0  501 -0.00000000000E+00  0.00000000000E+00  0.38079247202E+03  0.38079247202E+03  0.00000000000E+00 0.  1.
          1   -1    0    0  501    0  0.00000000000E+00 -0.00000000000E+00 -0.22286309615E+03  0.22286309615E+03  0.00000000000E+00 0. -1.
         23    2    1    2    0    0 -0.84795854228E+02  0.59687024567E+02 -0.14178306265E+03  0.19813909802E+03  0.91672174156E+02 0.  0.
          5    1    1    2  502    0  0.83987124644E+02 -0.73008147430E+02  0.60553105281E+01  0.11152652547E+03  0.41800000000E+01 0. -1.
         -5    1    1    2    0  502  0.80872958452E+00  0.13321122862E+02  0.29365712799E+03  0.29398994469E+03  0.41800000000E+01 0.  1.
        -11    1    3    3    0    0 -0.89126899613E+02  0.11588876483E+02 -0.97689559666E+02  0.13274470370E+03  0.00000000000E+00 0. -1.
         11    1    3    3    0    0  0.43310453848E+01  0.48098148084E+02 -0.44093502982E+02  0.65394394320E+02  0.00000000000E+00 0.  1.
</event>
<event>
 8    1  0.4798744E-006  0.1157885E+03  0.7561462E-02  0.1250211E+00
          4   -1    0    0  501    0  0.00000000000E+00  0.00000000000E+00  0.77279540313E+02  0.77279540313E+02  0.00000000000E+00 0.  1.
         -4   -1    0    0    0  501 -0.00000000000E+00 -0.00000000000E+00 -0.38348755632E+03  0.38348755632E+03  0.00000000000E+00 0. -1.
         23    2    1    2    0    0  0.73641538141E+02  0.63328518128E+02 -0.28483664948E+03  0.32590351039E+03  0.12509038271E+03 0.  0.
         23    2    1    2    0    0 -0.73641538141E+02 -0.63328518128E+02 -0.21371366526E+02  0.13486358625E+03  0.91092668419E+02 0.  0.
          5    1    3    3  502    0  0.13765323343E+02  0.71758318437E+02 -0.23887994726E+03  0.24983963256E+03  0.41800000000E+01 0. -1.
         -5    1    3    3    0  502  0.59876214798E+02 -0.84298003090E+01 -0.45956702217E+02  0.76063877829E+02  0.41800000000E+01 0. -1.
        -11    1    4    4    0    0 -0.57586786917E+01 -0.96520454842E+01  0.31503648091E+02  0.33448530690E+02  0.00000000000E+00 0.  1.
         11    1    4    4    0    0 -0.67882859449E+02 -0.53676472644E+02 -0.52875014617E+02  0.10141505556E+03  0.00000000000E+00 0. -1.
</event>
<event>
 8    1  0.4798744E-006  0.1820411E+03  0.7561462E-02  0.1165842E+00
         -1   -1    0    0    0  501 -0.00000000000E+00  0.00000000000E+00  0.85056336832E+02  0.85056336832E+02  0.00000000000E+00 0.  1.
          1   -1    0    0  501    0  0.00000000000E+00 -0.00000000000E+00 -0.46886072797E+03  0.46886072797E+03  0.00000000000E+00 0. -1.
         23    2    1    2    0    0  0.16675923794E+03 -0.14446618370E+02 -0.21325161406E+03  0.29856399133E+03  0.12508740065E+03 0.  0.
         23    2    1    2    0    0 -0.16675923794E+03  0.14446618370E+02 -0.17055277708E+03  0.25535307347E+03  0.89997745197E+02 0.  0.
          5    1    3    3  502    0  0.23552712403E+02  0.22168302740E+02 -0.11857790323E+03  0.12298111823E+03  0.41800000000E+01 0.  1.
         -5    1    3    3    0  502  0.14320652553E+03 -0.36614921110E+02 -0.94673710828E+02  0.17558287310E+03  0.41800000000E+01 0.  1.
        -11    1    4    4    0    0 -0.48229360046E+02 -0.30236665506E+02 -0.24365775856E+02  0.61919448838E+02  0.00000000000E+00 0.  1.
         11    1    4    4    0    0 -0.11852987789E+03  0.44683283876E+02 -0.14618700122E+03  0.19343362463E+03  0.00000000000E+00 0. -1.
</event>
<event>
 8    1  0.4798744E-006  0.1517343E+03  0.7561462E-02  0.1198358E+00
          2   -1    0    0  501    0  0.00000000000E+00  0.00000000000E+00  0.16439531425E+03  0.16439531425E+03  0.00000000000E+00 0. -1.
         -2   -1    0    0    0  501 -0.00000000000E+00 -0.00000000000E+00 -0.16218891322E+03  0.16218891322E+03  0.00000000000E+00 0.  1.
         23    2    1    2    0    0  0.13445767463E+02 -0.12041469518E+03 -0.15424657235E+02  0.17483425925E+03  0.12509440706E+03 0.  0.
         23    2    1    2    0    0 -0.13445767463E+02  0.12041469518E+03  0.17631058266E+02  0.15174996822E+03  0.89647705831E+02 0.  0.
          5    1    3    3  502    0 -0.66784398660E+01  0.21046219995E+02  0.17094812364E+02  0.28235614831E+02  0.41800000000E+01 0. -1.
         -5    1    3    3    0  502  0.20124207329E+02 -0.14146091517E+03 -0.32519469599E+02  0.14659864442E+03  0.41800000000E+01 0. -1.
        -11    1    4    4    0    0 -0.39603045989E+02  0.56572879126E+02 -0.21633975174E+02  0.72366572297E+02  0.00000000000E+00 0.  1.
         11    1    4    4    0    0  0.26157278526E+02  0.63841816052E+02  0.39265033440E+02  0.79383395920E+02  0.00000000000E+00 0. -1.
</event>
<event>
 8    1  0.4798744E-006  0.2028573E+03  0.7561462E-02  0.1147350E+00
         -2   -1    0    0    0  501 -0.00000000000E+00  0.00000000000E+00  0.11797924804E+03  0.11797924804E+03  0.00000000000E+00 0.  1.
          2   -1    0    0  501    0  0.00000000000E+00 -0.00000000000E+00 -0.40784910891E+03  0.40784910891E+03  0.00000000000E+00 0. -1.
         23    2    1    2    0    0  0.18519133071E+03 -0.43805777050E+02 -0.16670633788E+03  0.28223381928E+03  0.12510056189E+03 0.  0.
         23    2    1    2    0    0 -0.18519133071E+03  0.43805777050E+02 -0.12316352299E+03  0.24359453766E+03  0.89186716010E+02 0.  0.
          5    1    3    3  502    0  0.70701756233E+02 -0.40448899474E+02 -0.20167567668E+01  0.81586711608E+02  0.41800000000E+01 0. -1.
         -5    1    3    3    0  502  0.11448957447E+03 -0.33568775756E+01 -0.16468958112E+03  0.20064710768E+03  0.41800000000E+01 0. -1.
        -11    1    4    4    0    0 -0.65883157476E+02 -0.26548265594E+02 -0.50769427663E+02  0.87309424636E+02  0.00000000000E+00 0.  1.
         11    1    4    4    0    0 -0.11930817323E+03  0.70354042643E+02 -0.72394095323E+02  0.15628511303E+03  0.00000000000E+00 0. -1.
</event>
<event>
 8    1  0.4798744E-006  0.2111572E+03  0.7561462E-02  0.1140653E+00
          1   -1    0    0  501    0  0.00000000000E+00  0.00000000000E+00  0.29170847921E+03  0.29170847921E+03  0.00000000000E+00 0. -1.
         -1   -1    0    0    0  501 -0.00000000000E+00 -0.00000000000E+00 -0.20806523393E+03  0.20806523393E+03  0.00000000000E+00 0.  1.
         23    2    1    2    0    0 -0.18938359767E+03 -0.82156290516E+02 -0.36762437468E+02  0.24416329127E+03  0.12509369632E+03 0.  0.
         23    2    1    2    0    0  0.18938359767E+03  0.82156290516E+02  0.12040568275E+03  0.25561042187E+03  0.90682722662E+02 0.  0.
          5    1    3    3  502    0 -0.16967853212E+03 -0.71273296777E+02 -0.75658844577E+02  0.19902869205E+03  0.41800000000E+01 0.  1.
         -5    1    3    3    0  502 -0.19705065545E+02 -0.10882993740E+02  0.38896407109E+02  0.45134599221E+02  0.41800000000E+01 0.  1.
        -11    1    4    4    0    0  0.13573634120E+03  0.27013717426E+02  0.11234344493E+03  0.17825584105E+03  0.00000000000E+00 0. -1.
         11    1    4    4    0    0  0.53647256468E+02  0.55142573090E+02  0.80622378245E+01  0.77354580810E+02  0.00000000000E+00 0.  1.
</event>
<event>
 8    1  0.4798744E-006  0.1097576E+03  0.7561462E-02  0.1261019E+00
         -1   -1    0    0    0  501 -0.00000000000E+00  0.00000000000E+00  0.26449903435E+02  0.26449903435E+02  0.00000000000E+00 0.  1.
          1   -1    0    0  501    0  0.00000000000E+00 -0.00000000000E+00 -0.83078054989E+03  0.83078054989E+03  0.00000000000E+00 0. -1.
         23    2    1    2    0    0 -0.85568640946E+02  0.49656720832E+02 -0.40929214344E+03  0.43926791455E+03  0.12509380411E+03 0.  0.
         23    2    1    2    0    0  0.85568640946E+02 -0.49656720832E+02 -0.39503850301E+03  0.41796253878E+03  0.94071689281E+02 0.  0.
          5    1    3    3  502    0  0.95592397491E+01 -0.33989479538E+01 -0.22416701771E+03  0.22443541641E+03  0.41800000000E+01 0.  1.
         -5    1    3    3    0  502 -0.95127880696E+02  0.53055668786E+02 -0.18512512574E+03  0.21483249814E+03  0.41800000000E+01 0.  1.
        -11    1    4    4    0    0  0.66830417346E+02 -0.33304458993E+02 -0.38322079708E+03  0.39042754896E+03  0.00000000000E+00 0. -1.
         11    1    4    4    0    0  0.18738223601E+02 -0.16352261839E+02 -0.11817705933E+02  0.27534989822E+02  0.00000000000E+00 0.  1.
</event>
<event>
 8    1  0.4798744E-006  0.1670354E+03  0.7561462E-02  0.1180975E+00
         -2   -1    0    0    0  501 -0.00000000000E+00  0.00000000000E+00  0.86286122203E+02  0.86286122203E+02  0.00000000000E+00 0.  1.
          2   -1    0    0  501    0  0.00000000000E+00 -0.00000000000E+00 -0.50734647361E+03  0.50734647361E+03  0.00000000000E+00 0. -1.
         23    2    1    2    0    0 -0.14159792434E+03 -0.44738247596E+02 -0.78898645106E+02  0.20957948990E+03  0.12508830246E+03 0.  0.
         23    2    1    2    0    0  0.14159792434E+03  0.44738247596E+02 -0.34216170630E+03  0.38405310591E+03  0.91491376235E+02 0.  0.
          5    1    3    3  502    0 -0.30164909331E+02  0.36544113088E+02 -0.49184824853E+02  0.68425239145E+02  0.41800000000E+01 0.  1.
         -5    1    3    3    0  502 -0.11143301501E+03 -0.81282360684E+02 -0.29713820253E+02  0.14115425076E+03  0.41800000000E+01 0.  1.
        -11    1    4    4    0    0  0.83236355285E+02  0.25306890433E+02 -0.92742485903E+02  0.12716091473E+03  0.00000000000E+00 0.  1.
         11    1    4    4    0    0  0.58361569056E+02  0.19431357164E+02 -0.24941922040E+03  0.25689219117E+03  0.00000000000E+00 0. -1.
</event>
<event>
 7    1  0.4798744E-006  0.8171384E+02  0.7561462E-02  0.1324257E+00
         -3   -1    0    0    0  501 -0.00000000000E+00  0.00000000000E+00  0.51750896245E+03  0.51750896245E+03  0.00000000000E+00 0.  1.
          3   -1    0    0  501    0  0.00000000000E+00 -0.00000000000E+00 -0.14285674606E+03  0.14285674606E+03  0.00000000000E+00 0. -1.
         23    2    1    2    0    0 -0.52731624712E+02  0.11983594265E+02 -0.97518839884E+02  0.15731945464E+03  0.11097412266E+03 0.  0.
          5    1    1    2  502    0  0.51605834251E+02  0.10984036426E+02  0.31164400630E+02  0.61420708654E+02  0.41800000000E+01 0. -1.
         -5    1    1    2    0  502  0.11257904606E+01 -0.22967630691E+02  0.44100665565E+03  0.44162554522E+03  0.41800000000E+01 0.  1.
        -11    1    3    3    0    0  0.90886832218E+00 -0.23045474868E+02  0.15231562896E+02  0.27639111089E+02  0.00000000000E+00 0.  1.
         11    1    3    3    0    0 -0.53640493034E+02  0.35029069134E+02 -0.11275040278E+03  0.12968034355E+03  0.00000000000E+00 0. -1.
</event>
<event>
 8    1  0.4798744E-006  0.9459212E+02  0.7561462E-02  0.1292097E+00
          2   -1    0    0  501    0  0.00000000000E+00  0.00000000000E+00  0.20990574332E+03  0.20990574332E+03  0.00000000000E+00 0. -1.
         -2   -1    0    0    0  501 -0.00000000000E+00 -0.00000000000E+00 -0.71978854747E+02  0.71978854747E+02  0.00000000000E+00 0.  1.
         23    2    1    2    0    0  0.39501562123E+02  0.22855072201E+02  0.37183923233E+02  0.13828976745E+03  0.12513467904E+03 0.  0.
         23    2    1    2    0    0 -0.39501562123E+02 -0.22855072201E+02  0.10074296534E+03  0.14359483062E+03  0.91583855446E+02 0.  0.
          5    1    3    3  502    0  0.14768794354E+02  0.70824093973E+02  0.42311482254E+02  0.83916050338E+02  0.41800000000E+01 0. -1.
         -5    1    3    3    0  502  0.24732767769E+02 -0.47969021771E+02 -0.51275590218E+01  0.54373717114E+02  0.41800000000E+01 0. -1.
        -11    1    4    4    0    0 -0.39364198696E+01  0.12095898541E+02 -0.13739728371E+02  0.18723949867E+02  0.00000000000E+00 0.  1.
         11    1    4    4    0    0 -0.35565142253E+02 -0.34950970742E+02  0.11448269371E+03  0.12487088075E+03  0.00000000000E+00 0. -1.
</event>
<event>
 8    1  0.4798744E-006  0.1609082E+03  0.7561462E-02  0.1187675E+00
         -2   -1    0    0    0  501 -0.00000000000E+00  0.00000000000E+00  0.23165961948E+03  0.23165961948E+03  0.00000000000E+00 0.  1.
          2   -1    0    0  501    0  0.00000000000E+00 -0.00000000000E+00 -0.11685634362E+03  0.11685634362E+03  0.00000000000E+00 0. -1.
         23    2    1    2    0    0 -0.11095563008E+03  0.43511997367E+02  0.97330467682E+02  0.19829904838E+03  0.12507936235E+03 0.  0.
         23    2    1    2    0    0  0.11095563008E+03 -0.43511997367E+02  0.17472808174E+02  0.15021691472E+03  0.89751750296E+02 0.  0.
          5    1    3    3  502    0 -0.46602861205E+02 -0.43795615121E+02  0.39993667737E+02  0.75543685609E+02  0.41800000000E+01 0. -1.
         -5    1    3    3    0  502 -0.64352768875E+02  0.87307612489E+02  0.57336799945E+02  0.12275536277E+03  0.41800000000E+01 0. -1.
        -11    1    4    4    0    0  0.94257661802E+01  0.24989502032E+02  0.38464417573E+01  0.26983613437E+02  0.00000000000E+00 0.  1.
         11    1    4    4    0    0  0.10152986390E+03 -0.68501499400E+02  0.13626366416E+02  0.12323330128E+03  0.00000000000E+00 0. -1.
</event>
<event>
 8    1  0.4798744E-006  0.1551809E+03  0.7561462E-02  0.1194247E+00
         -3   -1    0    0    0  501 -0.00000000000E+00  0.00000000000E+00  0.86117881670E+02  0.86117881670E+02  0.00000000000E+00 0.  1.
          3   -1    0    0  501    0  0.00000000000E+00 -0.00000000000E+00 -0.29424037373E+03  0.29424037373E+03  0.00000000000E+00 0. -1.
         23    2    1    2    0    0 -0.10626777114E+03  0.40451321376E+02 -0.80854515626E+02  0.18738700201E+03  0.12508911720E+03 0.  0.
         23    2    1    2    0    0  0.10626777114E+03 -0.40451321376E+02 -0.12726797644E+03  0.19297125339E+03  0.90064522569E+02 0.  0.
          5    1    3    3  502    0  0.26567183245E+02 -0.12361172686E+01 -0.12343352671E+01  0.26950680789E+02  0.41800000000E+01 0. -1.
         -5    1    3    3    0  502 -0.13283495438E+03  0.41687438645E+02 -0.79620180359E+02  0.16043632122E+03  0.41800000000E+01 0. -1.
        -11    1    4    4    0    0  0.19414083877E+02  0.27649866652E+02 -0.39361324948E+02  0.51872301668E+02  0.00000000000E+00 0.  1.
         11    1    4    4    0    0  0.86853687260E+02 -0.68101188028E+02 -0.87906651487E+02  0.14109895172E+03  0.00000000000E+00 0. -1.
</event>
<event>
 8    1  0.4798744E-006  0.1035866E+03  0.7561462E-02  0.1272930E+00
         -2   -1    0    0    0  501 -0.00000000000E+00  0.00000000000E+00  0.67127257378E+02  0.67127257378E+02  0.00000000000E+00 0.  1.
          2   -1    0    0  501    0  0.00000000000E+00 -0.00000000000E+00 -0.25254143927E+03  0.25254143927E+03  0.00000000000E+00 0. -1.
         23    2    1    2    0    0 -0.21207047335E+02  0.75815969314E+01 -0.19381100176E+02  0.12857075599E+03  0.12509033849E+03 0.  0.
         23    2    1    2    0    0  0.21207047335E+02 -0.75815969314E+01 -0.16603308172E+03  0.19109794066E+03  0.91892432933E+02 0.  0.
          5    1    3    3  502    0 -0.55990154269E+02  0.41340317690E+02 -0.34271686347E+02  0.77691313072E+02  0.41800000000E+01 0.  1.
         -5    1    3    3    0  502  0.34783106934E+02 -0.33758720759E+02  0.14890586171E+02  0.50879442920E+02  0.41800000000E+01 0.  1.
        -11    1    4    4    0    0 -0.31405054825E+02 -0.16435792562E+02 -0.10065339200E+03  0.10671231450E+03  0.00000000000E+00 0. -1.
         11    1    4    4    0    0  0.52612102159E+02  0.88541956304E+01 -0.65379689721E+02  0.84385626157E+02  0.00000000000E+00 0.  1.
</event>
<event>
 8    1  0.4798744E-006  0.9263412E+02  0.7561462E-02  0.1296595E+00
         -1   -1    0    0    0  501 -0.00000000000E+00  0.00000000000E+00  0.28584465545E+02  0.28584465545E+02  0.00000000000E+00 0.  1.
          1   -1    0    0  501    0  0.00000000000E+00 -0.00000000000E+00 -0.40574943254E+03  0.40574943254E+03  0.00000000000E+00 0. -1.
         23    2    1    2    0    0 -0.32929365781E+02  0.77224673563E+01 -0.16950726957E+03  0.20550826284E+03  0.11116182810E+03 0.  0.
         23    2    1    2    0    0  0.32929365781E+02 -0.77224673563E+01 -0.20765769743E+03  0.22882563525E+03  0.89974843215E+02 0.  0.
          5    1    3    3  502    0 -0.42552717589E+02 -0.40794365062E+02 -0.12731149364E+03  0.14035883587E+03  0.41800000000E+01 0. -1.
         -5    1    3    3    0  502  0.96233518075E+01  0.48516832419E+02 -0.42195775926E+02  0.65149426965E+02  0.41800000000E+01 0.  1.
        -11    1    4    4    0    0 -0.96743120018E-02  0.27966912908E+02 -0.18498537747E+02  0.33531242297E+02  0.00000000000E+00 0. -1.
         11    1    4    4    0    0  0.32939040093E+02 -0.35689380264E+02 -0.18915915968E+03  0.19529439295E+03  0.00000000000E+00 0.  1.
</event>
<event>
 8    1  0.4798744E-006  0.1152595E+03  0.7561462E-02  0.1251129E+00
         -3   -1    0    0    0  501 -0.00000000000E+00  0.00000000000E+00  0.19589425974E+03  0.19589425974E+03  0.00000000000E+00 0.  1.
          3   -1    0    0  501    0  0.00000000000E+00 -0.00000000000E+00 -0.12055028701E+03  0.12055028701E+03  0.00000000000E+00 0. -1.
         23    2    1    2    0    0  0.15934898592E+02  0.89055242770E+02  0.10182916007E+03  0.18493353187E+03  0.12508587495E+03 0.  0.
         23    2    1    2    0    0 -0.15934898592E+02 -0.89055242770E+02 -0.26485187338E+02  0.13151101488E+03  0.91700188820E+02 0.  0.
          5    1    3    3  502    0  0.35235460205E+02  0.67071537088E+02  0.12578001802E+03  0.14689524865E+03  0.41800000000E+01 0.  1.
         -5    1    3    3    0  502 -0.19300561613E+02  0.21983705682E+02 -0.23950857947E+02  0.38038283222E+02  0.41800000000E+01 0.  1.
        -11    1    4    4    0    0 -0.50135054512E+02 -0.69490845458E+02 -0.32518068702E+02  0.91651110661E+02  0.00000000000E+00 0. -1.
         11    1    4    4    0    0  0.34200155920E+02 -0.19564397312E+02  0.60328813637E+01  0.39859904223E+02  0.00000000000E+00 0.  1.
</event>
<event>
 8    1  0.4798744E-006  0.9838135E+02  0.7561462E-02  0.1283737E+00
         -1   -1    0    0    0  501 -0.00000000000E+00  0.00000000000E+00  0.41695840565E+02  0.41695840565E+02  0.00000000000E+00 0.  1.
          1   -1    0    0  501    0  0.00000000000E+00 -0.00000000000E+00 -0.41124555918E+03  0.41124555918E+03  0.00000000000E+00 0. -1.
         23    2    1    2    0    0 -0.50053272468E+02 -0.18049708555E+01 -0.12000812830E+03  0.18043733583E+03  0.12508834197E+03 0.  0.
         23    2    1    2    0    0  0.50053272468E+02  0.18049708555E+01 -0.24954159032E+03  0.27250406392E+03  0.97359496455E+02 0.  0.
          5    1    3    3  502    0 -0.64859487694E+02 -0.18233346493E+02 -0.13667143180E+03  0.15243280729E+03  0.41800000000E+01 0. -1.
         -5    1    3    3    0  502  0.14806215226E+02  0.16428375638E+02  0.16663303495E+02  0.28004528541E+02  0.41800000000E+01 0. -1.
        -11    1    4    4    0    0  0.75583212823E+02  0.16403750055E+02 -0.15082007069E+03  0.16949512913E+03  0.00000000000E+00 0.  1.
         11    1    4    4    0    0 -0.25529940354E+02 -0.14598779199E+02 -0.98721519623E+02  0.10300893478E+03  0.00000000000E+00 0. -1.
</event>
<event>
 8    1  0.4798744E-006  0.1576275E+03  0.7561462E-02  0.1191402E+00
         -4   -1    0    0    0  501 -0.00000000000E+00  0.00000000000E+00  0.10519224407E+03  0.10519224407E+03  0.00000000000E+00 0.  1.
          4   -1    0    0  501    0  0.00000000000E+00 -0.00000000000E+00 -0.47631550387E+03  0.47631550387E+03  0.00000000000E+00 0. -1.
         23    2    1    2    0    0 -0.78622731445E+02 -0.11175144787E+03 -0.10953677837E+02  0.18557286895E+03  0.12508951447E+03 0.  0.
         23    2    1    2    0    0  0.78622731445E+02  0.11175144787E+03 -0.36016958197E+03  0.39593487899E+03  0.91500713782E+02 0.  0.
          5    1    3    3  502    0 -0.68855042761E+02 -0.13397209527E+03 -0.30966342171E+02  0.15383733608E+03  0.41800000000E+01 0. -1.
         -5    1    3    3    0  502 -0.97676886842E+01  0.22220647394E+02  0.20012664333E+02  0.31735532870E+02  0.41800000000E+01 0. -1.
        -11    1    4    4    0    0  0.28084579585E+02  0.17787085514E+02 -0.18607326736E+02  0.38096674786E+02  0.00000000000E+00 0.  1.
         11    1    4    4    0    0  0.50538151860E+02  0.93964362360E+02 -0.34156225523E+03  0.35783820420E+03  0.00000000000E+00 0. -1.
</event>
<event>
 8    1  0.4798744E-006  0.1203770E+03  0.7561462E-02  0.1242476E+00
         -2   -1    0    0    0  501 -0.00000000000E+00  0.00000000000E+00  0.34698910233E+03  0.34698910233E+03  0.00000000000E+00 0.  1.
          2   -1    0    0  501    0  0.00000000000E+00 -0.00000000000E+00 -0.12341129266E+03  0.12341129266E+03  0.00000000000E+00 0. -1.
         23    2    1    2    0    0  0.88790335114E+02 -0.79470133565E+02  0.26425988841E+03  0.31572210333E+03  0.12509169505E+03 0.  0.
         23    2    1    2    0    0 -0.88790335114E+02  0.79470133565E+02 -0.40682078733E+02  0.15467829166E+03  0.89839393608E+02 0.  0.
          5    1    3    3  502    0  0.24191283309E+02 -0.13853644669E+02  0.20322832640E+03  0.20517399131E+03  0.41800000000E+01 0.  1.
         -5    1    3    3    0  502  0.64599051804E+02 -0.65616488896E+02  0.61031562004E+02  0.11054811201E+03  0.41800000000E+01 0.  1.
        -11    1    4    4    0    0 -0.44979297574E+02  0.51666762485E+02 -0.67584513079E+02  0.96230234148E+02  0.00000000000E+00 0.  1.
         11    1    4    4    0    0 -0.43811037540E+02  0.27803371079E+02  0.26902434347E+02  0.58448057517E+02  0.00000000000E+00 0. -1.
</event>
<event>
 8    1  0.4798744E-006  0.1171034E+03  0.7561462E-02  0.1247954E+00
          1   -1    0    0  501    0  0.00000000000E+00  0.00000000000E+00  0.52284756833E+03  0.52284756833E+03  0.00000000000E+00 0. -1.
         -1   -1    0    0    0  501 -0.00000000000E+00 -0.00000000000E+00 -0.56150601719E+02  0.56150601719E+02  0.00000000000E+00 0.  1.
         23    2    1    2    0    0 -0.31542900120E+02  0.92864567834E+02  0.99546751764E+02  0.18755387727E+03  0.12509244016E+03 0.  0.
         23    2    1    2    0    0  0.31542900120E+02 -0.92864567834E+02  0.36715021485E+03  0.39144429278E+03  0.93864645011E+02 0.  0.
          5    1    3    3  502    0 -0.34351371914E+02  0.36477988223E+02  0.11779265861E+03  0.12807514669E+03  0.41800000000E+01 0.  1.
         -5    1    3    3    0  502  0.28084717941E+01  0.56386579611E+02 -0.18245906849E+02  0.59478730575E+02  0.41800000000E+01 0.  1.
        -11    1    4    4    0    0  0.23813413948E+01 -0.97722725645E+02  0.32879227738E+03  0.34301568996E+03  0.00000000000E+00 0. -1.
         11    1    4    4    0    0  0.29161558725E+02  0.48581578113E+01  0.38357937468E+02  0.48428602823E+02  0.00000000000E+00 0.  1.
</event>
<event>
 8    1  0.1127156E-005  0.2367331E+03  0.7561462E-02  0.1121988E+00
         -2   -1    0    0    0  501 -0.00000000000E+00  0.00000000000E+00  0.31296677398E+02  0.31296677398E+02  0.00000000000E+00 0.  1.
          2   -1    0    0  501    0  0.00000000000E+00 -0.00000000000E+00 -0.20724031559E+04  0.20724031559E+04  0.00000000000E+00 0. -1.
         23    2    1    2    0    0 -0.10994145120E+02 -0.22995910854E+03 -0.10436275229E+04  0.10760149178E+04  0.12509050325E+03 0.  0.
         23    2    1    2    0    0  0.10994145120E+02  0.22995910854E+03 -0.99747895560E+03  0.10276849155E+04  0.90387807775E+02 0.  0.
          5    1    3    3  502    0 -0.21607168559E+02 -0.65016447489E+02 -0.57487772423E+03  0.57896103357E+03  0.41800000000E+01 0.  1.
         -5    1    3    3    0  502  0.10613023439E+02 -0.16494266105E+03 -0.46874979867E+03  0.49705388425E+03  0.41800000000E+01 0.  1.
        -11    1    4    4    0    0  0.38674073160E+02  0.11883619010E+03 -0.39091003780E+03  0.41040027007E+03  0.00000000000E+00 0. -1.
         11    1    4    4    0    0 -0.27679928040E+02  0.11112291843E+03 -0.60656891780E+03  0.61728464541E+03  0.00000000000E+00 0.  1.
</event>
<event>
 7    1  0.4798744E-006  0.1201828E+03  0.7561462E-02  0.1242796E+00
          2   -1    0    0  501    0  0.00000000000E+00  0.00000000000E+00  0.11478163954E+03  0.11478163954E+03  0.00000000000E+00 0. -1.
         -2   -1    0    0    0  501 -0.00000000000E+00 -0.00000000000E+00 -0.15457697185E+03  0.15457697185E+03  0.00000000000E+00 0.  1.
         23    2    1    2    0    0  0.12412960766E+02 -0.90477892183E+02 -0.57858886924E+02  0.16297779243E+03  0.12195810535E+03 0.  0.
          5    1    3    3  502    0 -0.98936029524E+00  0.23968667469E+02  0.13037608897E+02  0.27621142261E+02  0.41800000000E+01 0. -1.
         -5    1    3    3    0  502  0.13402321061E+02 -0.11444655965E+03 -0.70896495821E+02  0.13535665017E+03  0.41800000000E+01 0.  1.
        -11    1    1    2    0    0  0.15676041978E+02  0.39675901357E+02  0.22372227658E+02  0.48170862675E+02  0.00000000000E+00 0. -1.
         11    1    1    2    0    0 -0.28089002744E+02  0.50801990826E+02 -0.43086730433E+01  0.58209956283E+02  0.00000000000E+00 0.  1.
</event>
<event>
 8    1  0.4798744E-006  0.1024286E+03  0.7561462E-02  0.1275270E+00
          2   -1    0    0  501    0  0.00000000000E+00  0.00000000000E+00  0.48371299396E+02  0.48371299396E+02  0.00000000000E+00 0. -1.
         -2   -1    0    0    0  501 -0.00000000000E+00 -0.00000000000E+00 -0.29109916929E+03  0.29109916929E+03  0.00000000000E+00 0.  1.
         23    2    1    2    0    0 -0.23460183849E+02 -0.13089553329E+02 -0.19586838437E+03  0.23395248907E+03  0.12509047331E+03 0.  0.
         23    2    1    2    0    0  0.23460183849E+02  0.13089553329E+02 -0.46859485519E+02  0.10551797961E+03  0.90644999894E+02 0.  0.
          5    1    3    3  502    0 -0.25656033158E+01  0.52981957678E+02 -0.52951996329E+02  0.75067013228E+02  0.41800000000E+01 0.  1.
         -5    1    3    3    0  502 -0.20894580533E+02 -0.66071511007E+02 -0.14291638804E+03  0.15888547584E+03  0.41800000000E+01 0.  1.
        -11    1    4    4    0    0  0.28617156570E+02  0.43122186887E+02 -0.26468664191E+01  0.51821525970E+02  0.00000000000E+00 0. -1.
         11    1    4    4    0    0 -0.51569727207E+01 -0.30032633558E+02 -0.44212619100E+02  0.53696453642E+02  0.00000000000E+00 0.  1.
</event>
<event>
 8    1  0.4798744E-006  0.8761057E+02  0.7561462E-02  0.1308743E+00
         -2   -1    0    0    0  501 -0.00000000000E+00  0.00000000000E+00  0.21792340608E+03  0.21792340608E+03  0.00000000000E+00 0.  1.
          2   -1    0    0  501    0  0.00000000000E+00 -0.00000000000E+00 -0.74065084340E+02  0.74065084340E+02  0.00000000000E+00 0. -1.
         23    2    1    2    0    0 -0.64479943020E+01  0.23464287917E+02  0.15201182563E+03  0.19833448677E+03  0.12504728734E+03 0.  0.
         23    2    1    2    0    0  0.64479943020E+01 -0.23464287917E+02 -0.81535038905E+01  0.93654003653E+02  0.90069103118E+02 0.  0.
          5    1    3    3  502    0  0.43506761795E+02 -0.93529169136E+01  0.12362990519E+02  0.46374899582E+02  0.41800000000E+01 0.  1.
         -5    1    3    3    0  502 -0.49954756097E+02  0.32817204831E+02  0.13964883511E+03  0.15195958718E+03  0.41800000000E+01 0.  1.
        -11    1    4    4    0    0 -0.17720138524E+02 -0.38334641748E+02  0.25733754372E+02  0.49454769045E+02  0.00000000000E+00 0.  1.
         11    1    4    4    0    0  0.24168132826E+02  0.14870353831E+02 -0.33887258262E+02  0.44199234607E+02  0.00000000000E+00 0. -1.
</event>
<event>
 8    1  0.4798744E-006  0.8940870E+02  0.7561462E-02  0.1304290E+00
          2   -1    0    0  501    0  0.00000000000E+00  0.00000000000E+00  0.28352536242E+03  0.28352536242E+03  0.00000000000E+00 0. -1.
         -2   -1    0    0    0  501 -0.00000000000E+00 -0.00000000000E+00 -0.73069000764E+02  0.73069000764E+02  0.00000000000E+00 0.  1.
         23    2    1    2    0    0  0.23833957785E+01 -0.18332025573E+01 -0.38008930555E+00  0.12512608706E+03  0.12508937600E+03 0.  0.
         23    2    1    2    0    0 -0.23833957785E+01  0.18332025573E+01  0.21083645096E+03  0.23146827612E+03  0.95480430401E+02 0.  0.
          5    1    3    3  502    0 -0.45445160438E+02 -0.60041328867E+01 -0.41347795791E+02  0.61874266345E+02  0.41800000000E+01 0.  1.
         -5    1    3    3    0  502  0.47828556216E+02  0.41709303294E+01  0.40967706485E+02  0.63251820719E+02  0.41800000000E+01 0.  1.
        -11    1    4    4    0    0 -0.43450088310E+02  0.25187954495E+01  0.54069099809E+02  0.69409812410E+02  0.00000000000E+00 0.  1.
         11    1    4    4    0    0  0.41066692531E+02 -0.68559289217E+00  0.15676735115E+03  0.16205846371E+03  0.00000000000E+00 0. -1.
</event>
<event>
 8    1  0.4798744E-006  0.1692489E+03  0.7561462E-02  0.1178633E+00
          2   -1    0    0  501    0  0.00000000000E+00  0.00000000000E+00  0.10209736980E+03  0.10209736980E+03  0.00000000000E+00 0. -1.
         -2   -1    0    0    0  501 -0.00000000000E+00 -0.00000000000E+00 -0.29354707997E+03  0.29354707997E+03  0.00000000000E+00 0.  1.
         23    2    1    2    0    0  0.13413477604E+03  0.10446783530E+02 -0.98299422046E+02  0.20835436443E+03  0.12508993314E+03 0.  0.
         23    2    1    2    0    0 -0.13413477604E+03 -0.10446783530E+02 -0.93150288127E+02  0.18729008534E+03  0.91100639169E+02 0.  0.
          5    1    3    3  502    0  0.68961131608E+02 -0.54538258725E+02 -0.68467786102E+02  0.11151398778E+03  0.41800000000E+01 0.  1.
         -5    1    3    3    0  502  0.65173644435E+02  0.64985042256E+02 -0.29831635944E+02  0.96840376647E+02  0.41800000000E+01 0.  1.
        -11    1    4    4    0    0 -0.12885035437E+02 -0.32632142998E+02 -0.43084757519E+01  0.35347473151E+02  0.00000000000E+00 0.  1.
         11    1    4    4    0    0 -0.12124974061E+03  0.22185359467E+02 -0.88841812375E+02  0.15194261219E+03  0.00000000000E+00 0. -1.
</event>
<event>
 8    1  0.4798744E-006  0.1074052E+03  0.7561462E-02  0.1265452E+00
          2   -1    0    0  501    0  0.00000000000E+00  0.00000000000E+00  0.48985799362E+02  0.48985799362E+02  0.00000000000E+00 0. -1.
         -2   -1    0    0    0  501 -0.00000000000E+00 -0.00000000000E+00 -0.34391400904E+03  0.34391400904E+03  0.00000000000E+00 0.  1.
         23    2    1    2    0    0 -0.64674250415E+02 -0.26834858628E+02 -0.19408385266E+03  0.24128605522E+03  0.12509016858E+03 0.  0.
         23    2    1    2    0    0  0.64674250415E+02  0.26834858628E+02 -0.10084435702E+03  0.15161375318E+03  0.88962225170E+02 0.  0.
          5    1    3    3  502    0 -0.68728576535E+02  0.58781192201E+01 -0.19617703449E+03  0.20799295848E+03  0.41800000000E+01 0.  1.
         -5    1    3    3    0  502  0.40543261196E+01 -0.32712977848E+02  0.20931818314E+01  0.33293096735E+02  0.41800000000E+01 0.  1.
        -11    1    4    4    0    0  0.83271586911E+02  0.37181443168E+02 -0.88143632898E+02  0.12683026817E+03  0.00000000000E+00 0.  1.
         11    1    4    4    0    0 -0.18597336496E+02 -0.10346584539E+02 -0.12700724122E+02  0.24783485017E+02  0.00000000000E+00 0. -1.
</event>
<event>
 8    1  0.4798744E-006  0.1143222E+03  0.7561462E-02  0.1252769E+00
         -2   -1    0    0    0  501 -0.00000000000E+00  0.00000000000E+00  0.27758099952E+03  0.27758099952E+03  0.00000000000E+00 0.  1.
          2   -1    0    0  501    0  0.00000000000E+00 -0.00000000000E+00 -0.54300813296E+02  0.54300813296E+02  0.00000000000E+00 0. -1.
         23    2    1    2    0    0  0.26243390581E+02 -0.24691354412E+02  0.17058500943E+03  0.21458009514E+03  0.12508794210E+03 0.  0.
         23    2    1    2    0    0 -0.26243390581E+02  0.24691354412E+02  0.52695176801E+02  0.11730171768E+03  0.98410023777E+02 0.  0.
          5    1    3    3  502    0 -0.47767307094E+02 -0.19369744964E+02  0.97389512981E+02  0.11026827416E+03  0.41800000000E+01 0.  1.
         -5    1    3    3    0  502  0.74010697675E+02 -0.53216094488E+01  0.73195496447E+02  0.10431182099E+03  0.41800000000E+01 0.  1.
        -11    1    4    4    0    0 -0.57835107683E+02 -0.65199370174E+01  0.17922376291E+02  0.60898446871E+02  0.00000000000E+00 0.  1.
         11    1    4    4    0    0  0.31591717102E+02  0.31211291430E+02  0.34772800510E+02  0.56403270805E+02  0.00000000000E+00 0. -1.
</event>
<event>
 8    1  0.4798744E-006  0.1720338E+03  0.7561462E-02  0.1175743E+00
         -2   -1    0    0    0  501 -0.00000000000E+00  0.00000000000E+00  0.39271285196E+02  0.39271285196E+02  0.00000000000E+00 0.  1.
          2   -1    0    0  501    0  0.00000000000E+00 -0.00000000000E+00 -0.86563831186E+03  0.86563831186E+03  0.00000000000E+00 0. -1.
         23    2    1    2    0    0 -0.72495816151E+02  0.12887751601E+03 -0.40295894376E+03  0.44709039193E+03  0.12509536644E+03 0.  0.
         23    2    1    2    0    0  0.72495816151E+02 -0.12887751601E+03 -0.42340808291E+03  0.45781920513E+03  0.91972617803E+02 0.  0.
          5    1    3    3  502    0  0.34448842945E+02  0.48321812024E+02 -0.11386017358E+03  0.12846529425E+03  0.41800000000E+01 0.  1.
         -5    1    3    3    0  502 -0.10694465910E+03  0.80555703983E+02 -0.28909877018E+03  0.31862509768E+03  0.41800000000E+01 0.  1.
        -11    1    4    4    0    0  0.30962583862E+02 -0.28874302254E+02 -0.36035569875E+02  0.55596485737E+02  0.00000000000E+00 0.  1.
         11    1    4    4    0    0  0.41533232289E+02 -0.10000321375E+03 -0.38737251303E+03  0.40222271939E+03  0.00000000000E+00 0. -1.
</event>
<event>
 8    1  0.4798744E-006  0.1325614E+03  0.7561462E-02  0.1223704E+00
         -1   -1    0    0    0  501 -0.00000000000E+00  0.00000000000E+00  0.16156072914E+03  0.16156072914E+03  0.00000000000E+00 0.  1.
          1   -1    0    0  501    0  0.00000000000E+00 -0.00000000000E+00 -0.14800706442E+03  0.14800706442E+03  0.00000000000E+00 0. -1.
         23    2    1    2    0    0  0.42234053146E+02 -0.91484228828E+02 -0.37843072934E+02  0.16502441385E+03  0.12509148504E+03 0.  0.
         23    2    1    2    0    0 -0.42234053146E+02  0.91484228828E+02  0.51396737658E+02  0.14454337970E+03  0.89989358287E+02 0.  0.
          5    1    3    3  502    0  0.65497499782E+02 -0.27770214158E+02 -0.60404849432E+02  0.93420155786E+02  0.41800000000E+01 0.  1.
         -5    1    3    3    0  502 -0.23263446637E+02 -0.63714014670E+02  0.22561776498E+02  0.71604258068E+02  0.41800000000E+01 0.  1.
        -11    1    4    4    0    0 -0.59405349250E+02  0.39968072742E+02  0.27730794927E+01  0.71652859874E+02  0.00000000000E+00 0. -1.
         11    1    4    4    0    0  0.17171296104E+02  0.51516156085E+02  0.48623658165E+02  0.72890519830E+02  0.00000000000E+00 0.  1.
</event>
<event>
 8    1  0.4798744E-006  0.1164427E+03  0.7561462E-02  0.1249084E+00
         -1   -1    0    0    0  501 -0.00000000000E+00  0.00000000000E+00  0.11249834642E+03  0.11249834642E+03  0.00000000000E+00 0.  1.
          1   -1    0    0  501    0  0.00000000000E+00 -0.00000000000E+00 -0.13602349994E+03  0.13602349994E+03  0.00000000000E+00 0. -1.
         23    2    1    2    0    0 -0.50626546144E+02  0.85668091154E+01  0.18511518223E+02  0.13647810023E+03  0.12508860117E+03 0.  0.
         23    2    1    2    0    0  0.50626546144E+02 -0.85668091154E+01 -0.42036671738E+02  0.11204374613E+03  0.90278911625E+02 0.  0.
          5    1    3    3  502    0  0.39163232252E+02 -0.15159218866E+02  0.74842082413E+01  0.42860779858E+02  0.41800000000E+01 0. -1.
         -5    1    3    3    0  502 -0.89789778396E+02  0.23726027982E+02  0.11027309982E+02  0.93617320372E+02  0.41800000000E+01 0. -1.
        -11    1    4    4    0    0  0.60057496901E+02  0.23349680929E+02 -0.88458097961E+01  0.65041209125E+02  0.00000000000E+00 0.  1.
         11    1    4    4    0    0 -0.94309507564E+01 -0.31916490044E+02 -0.33190861942E+02  0.47002537010E+02  0.00000000000E+00 0. -1.
</event>
<event>
 8    1  0.4798744E-006  0.1443259E+03  0.7561462E-02  0.1207624E+00
         -2   -1    0    0    0  501 -0.00000000000E+00  0.00000000000E+00  0.17294308777E+03  0.17294308777E+03  0.00000000000E+00 0.  1.
          2   -1    0    0  501    0  0.00000000000E+00 -0.00000000000E+00 -0.20185667418E+03  0.20185667418E+03  0.00000000000E+00 0. -1.
         23    2    1    2    0    0  0.72254907935E+02 -0.94261306415E+02  0.79777461905E+02  0.19004752753E+03  0.12509058192E+03 0.  0.
         23    2    1    2    0    0 -0.72254907935E+02  0.94261306415E+02 -0.10869104831E+03  0.18475223442E+03  0.90629346980E+02 0.  0.
          5    1    3    3  502    0  0.71819304052E+02 -0.12186641540E+03  0.52298236908E+02  0.15087085080E+03  0.41800000000E+01 0.  1.
         -5    1    3    3    0  502  0.43560388353E+00  0.27605108988E+02  0.27479224997E+02  0.39176676727E+02  0.41800000000E+01 0.  1.
        -11    1    4    4    0    0 -0.55054494181E+02  0.64158772584E+02 -0.16338406756E+02  0.86106265535E+02  0.00000000000E+00 0.  1.
         11    1    4    4    0    0 -0.17200413754E+02  0.30102533831E+02 -0.92352641550E+02  0.98645968887E+02  0.00000000000E+00 0. -1.
</event>
<event>
 8    1  0.4798744E-006  0.1797720E+03  0.7561462E-02  0.1168024E+00
         -1   -1    0    0    0  501 -0.00000000000E+00  0.00000000000E+00  0.31377722591E+03  0.31377722591E+03  0.00000000000E+00 0.  1.
          1   -1    0    0  501    0  0.00000000000E+00 -0.00000000000E+00 -0.10575554994E+03  0.10575554994E+03  0.00000000000E+00 0. -1.
         23    2    1    2    0    0 -0.14364204493E+03 -0.23291623397E+00  0.10736537441E+03  0.21863492969E+03  0.12506325415E+03 0.  0.
         23    2    1    2    0    0  0.14364204493E+03  0.23291623397E+00  0.10065630157E+03  0.20089784616E+03  0.97954898944E+02 0.  0.
          5    1    3    3  502    0 -0.11868569582E+03  0.51573078047E+02  0.92415219203E+02  0.15907269380E+03  0.41800000000E+01 0.  1.
         -5    1    3    3    0  502 -0.24956349105E+02 -0.51805994281E+02  0.14950155204E+02  0.59562235894E+02  0.41800000000E+01 0.  1.
        -11    1    4    4    0    0 -0.12634790073E+02 -0.95405854626E+01  0.17520220471E+02  0.23613953852E+02  0.00000000000E+00 0.  1.
         11    1    4    4    0    0  0.15627683500E+03  0.97735016966E+01  0.83136081095E+02  0.17728389231E+03  0.00000000000E+00 0. -1.
</event>
<event>
 8    1  0.4798744E-006  0.1182636E+03  0.7561462E-02  0.1245989E+00
         -2   -1    0    0    0  501 -0.00000000000E+00  0.00000000000E+00  0.15810086971E+03  0.15810086971E+03  0.00000000000E+00 0.  1.
          2   -1    0    0  501    0  0.00000000000E+00 -0.00000000000E+00 -0.91774773795E+02  0.91774773795E+02  0.00000000000E+00 0. -1.
         23    2    1    2    0    0  0.40923058433E+02  0.21274196799E+02  0.22071927338E+02  0.13513620850E+03  0.12508931493E+03 0.  0.
         23    2    1    2    0    0 -0.40923058433E+02 -0.21274196799E+02  0.44254168572E+02  0.11473943500E+03  0.95285981908E+02 0.  0.
          5    1    3    3  502    0 -0.32498981739E+02 -0.29375314244E+02  0.61913887896E+01  0.44439831189E+02  0.41800000000E+01 0.  1.
         -5    1    3    3    0  502  0.73422040172E+02  0.50649511043E+02  0.15880538548E+02  0.90696377306E+02  0.41800000000E+01 0.  1.
        -11    1    4    4    0    0 -0.61370349103E+02  0.13544282811E+02  0.39139666777E+02  0.74038374248E+02  0.00000000000E+00 0.  1.
         11    1    4    4    0    0  0.20447290670E+02 -0.34818479610E+02  0.51145017956E+01  0.40701060756E+02  0.00000000000E+00 0. -1.
</event>
<event>
 8    1  0.1023609E-005  0.2883353E+03  0.7561462E-02  0.1091222E+00
          2   -1    0    0  501    0  0.00000000000E+00  0.00000000000E+00  0.90873929432E+03  0.90873929432E+03  0.00000000000E+00 0. -1.
         -2   -1    0    0    0  501 -0.00000000000E+00 -0.00000000000E+00 -0.10780925217E+03  0.10780925217E+03  0.00000000000E+00 0.  1.
         23    2    1    2    0    0 -0.27481923621E+03 -0.64436911646E+01  0.24145620694E+03  0.38667208260E+03  0.12508823225E+03 0.  0.
         23    2    1    2    0    0  0.27481923621E+03  0.64436911646E+01  0.55947383521E+03  0.62987646389E+03  0.90367326621E+02 0.  0.
          5    1    3    3  502    0 -0.26662584953E+03 -0.26114113991E+02  0.18340895889E+03  0.32469617982E+03  0.41800000000E+01 0. -1.
         -5    1    3    3    0  502 -0.81933866785E+01  0.19670422826E+02  0.58047248053E+02  0.61975902784E+02  0.41800000000E+01 0. -1.
        -11    1    4    4    0    0  0.13796393433E+03  0.44518170860E+02  0.24251624798E+03  0.28254211235E+03  0.00000000000E+00 0.  1.
         11    1    4    4    0    0  0.13685530188E+03 -0.38074479696E+02  0.31695758723E+03  0.34733435154E+03  0.00000000000E+00 0. -1.
</event>
<event>
 8    1  0.4798744E-006  0.1494569E+03  0.7561462E-02  0.1201142E+00
         -2   -1    0    0    0  501 -0.00000000000E+00  0.00000000000E+00  0.34313614824E+02  0.34313614824E+02  0.00000000000E+00 0.  1.
          2   -1    0    0  501    0  0.00000000000E+00 -0.00000000000E+00 -0.74261710628E+03  0.74261710628E+03  0.00000000000E+00 0. -1.
         23    2    1    2    0    0 -0.96873205488E+02  0.52181047298E+02 -0.28290238472E+03  0.32831406717E+03  0.12509631401E+03 0.  0.
         23    2    1    2    0    0  0.96873205488E+02 -0.52181047298E+02 -0.42540110674E+03  0.44861665394E+03  0.90462815233E+02 0.  0.
          5    1    3    3  502    0  0.23845120544E+02  0.20247917409E+02 -0.11359427502E+03  0.11789698745E+03  0.41800000000E+01 0. -1.
         -5    1    3    3    0  502 -0.12071832603E+03  0.31933129890E+02 -0.16930810970E+03  0.21041707972E+03  0.41800000000E+01 0. -1.
        -11    1    4    4    0    0  0.28898799623E+02 -0.66889952790E+02 -0.21286504343E+03  0.22499096231E+03  0.00000000000E+00 0. -1.
         11    1    4    4    0    0  0.67974405865E+02  0.14708905492E+02 -0.21253606330E+03  0.22362569163E+03  0.00000000000E+00 0.  1.
</event>
<event>
 8    1  0.4798744E-006  0.7734844E+02  0.7561462E-02  0.1336749E+00
          1   -1    0    0  501    0  0.00000000000E+00  0.00000000000E+00  0.52413175313E+02  0.52413175313E+02  0.00000000000E+00 0. -1.
         -1   -1    0    0    0  501 -0.00000000000E+00 -0.00000000000E+00 -0.27210532283E+03  0.27210532283E+03  0.00000000000E+00 0.  1.
         23    2    1    2    0    0 -0.23811847112E+02  0.40741582111E+02 -0.14685425548E+03  0.19860350870E+03  0.12510116202E+03 0.  0.
         23    2    1    2    0    0  0.23811847112E+02 -0.40741582111E+02 -0.72837892036E+02  0.12591498944E+03  0.91226890084E+02 0.  0.
          5    1    3    3  502    0  0.20570944030E+01  0.28035935852E+02 -0.16289505204E+03  0.16535572477E+03  0.41800000000E+01 0. -1.
         -5    1    3    3    0  502 -0.25868941515E+02  0.12705646259E+02  0.16040796557E+02  0.33247783928E+02  0.41800000000E+01 0. -1.
        -11    1    4    4    0    0 -0.25048887498E+02 -0.41285835257E+02 -0.15802325503E+02  0.50810239608E+02  0.00000000000E+00 0.  1.
         11    1    4    4    0    0  0.48860734609E+02  0.54425314581E+00 -0.57035566533E+02  0.75104749835E+02  0.00000000000E+00 0. -1.
</event>
<event>
 8    1  0.4798744E-006  0.7394020E+02  0.7561462E-02  0.1347185E+00
          1   -1    0    0  501    0  0.00000000000E+00  0.00000000000E+00  0.16811543774E+03  0.16811543774E+03  0.00000000000E+00 0. -1.
         -1   -1    0    0    0  501 -0.00000000000E+00 -0.00000000000E+00 -0.79931656523E+02  0.79931656523E+02  0.00000000000E+00 0.  1.
         23    2    1    2    0    0 -0.60271123139E+01 -0.26805705740E+02  0.28684862719E+02  0.13124526245E+03  0.12509046975E+03 0.  0.
         23    2    1    2    0    0  0.60271123139E+01  0.26805705740E+02  0.59498918498E+02  0.11680183181E+03  0.96683373281E+02 0.  0.
          5    1    3    3  502    0  0.36781403165E+01 -0.41418316477E+02 -0.41431151495E+02  0.58847416002E+02  0.41800000000E+01 0. -1.
         -5    1    3    3    0  502 -0.97052526304E+01  0.14612610736E+02  0.70116014214E+02  0.72397846449E+02  0.41800000000E+01 0. -1.
        -11    1    4    4    0    0  0.44614479561E+02  0.19919693678E+02  0.42268620844E+01  0.49041944759E+02  0.00000000000E+00 0.  1.
         11    1    4    4    0    0 -0.38587367247E+02  0.68860120621E+01  0.55272056413E+02  0.67759887052E+02  0.00000000000E+00 0. -1.
</event>
<event>
 8    1  0.4798744E-006  0.1179951E+03  0.7561462E-02  0.1246442E+00
          1   -1    0    0  501    0  0.00000000000E+00  0.00000000000E+00  0.93580457758E+03  0.93580457758E+03  0.00000000000E+00 0. -1.
         -1   -1    0    0    0  501 -0.00000000000E+00 -0.00000000000E+00 -0.23692903916E+02  0.23692903916E+02  0.00000000000E+00 0.  1.
         23    2    1    2    0    0  0.69123417455E+02  0.70457714621E+02  0.42191709150E+03  0.45100513438E+03  0.12509701333E+03 0.  0.
         23    2    1    2    0    0 -0.69123417455E+02 -0.70457714621E+02  0.49019458216E+03  0.50849234712E+03  0.92365590487E+02 0.  0.
          5    1    3    3  502    0  0.54592091391E+02  0.84375967006E+02  0.41819321491E+03  0.43011932954E+03  0.41800000000E+01 0.  1.
         -5    1    3    3    0  502  0.14531326064E+02 -0.13918252385E+02  0.37238765897E+01  0.20885804832E+02  0.41800000000E+01 0.  1.
        -11    1    4    4    0    0  0.93659339775E+01 -0.18473769968E+02  0.19405286153E+02  0.28382495077E+02  0.00000000000E+00 0.  1.
         11    1    4    4    0    0 -0.78489351432E+02 -0.51983944653E+02  0.47078929601E+03  0.48010985204E+03  0.00000000000E+00 0. -1.
</event>
<event>
 7    1  0.4798744E-006  0.8168472E+02  0.7561462E-02  0.1324337E+00
          1   -1    0    0  501    0  0.00000000000E+00  0.00000000000E+00  0.14943019452E+03  0.14943019452E+03  0.00000000000E+00 0. -1.
         -1   -1    0    0    0  501 -0.00000000000E+00 -0.00000000000E+00 -0.91067741758E+02  0.91067741758E+02  0.00000000000E+00 0.  1.
         23    2    1    2    0    0 -0.16015926318E+02  0.20376654702E+02  0.33750013915E+02  0.10064820788E+03  0.91210089126E+02 0.  0.
          5    1    1    2  502    0  0.73485099727E+01  0.41878933537E+02 -0.33386289117E+02  0.54221419882E+02  0.41800000000E+01 0. -1.
         -5    1    1    2    0  502  0.86674163450E+01 -0.62255588239E+02  0.57998727965E+02  0.85628308512E+02  0.41800000000E+01 0.  1.
        -11    1    3    3    0    0 -0.63642348757E+01 -0.17469857292E+02  0.53673269777E+02  0.56802458467E+02  0.00000000000E+00 0.  1.
         11    1    3    3    0    0 -0.96516914420E+01  0.37846511994E+02 -0.19923255862E+02  0.43845749417E+02  0.00000000000E+00 0. -1.
</event>
<event>
 8    1  0.4798744E-006  0.1073605E+03  0.7561462E-02  0.1265537E+00
          1   -1    0    0  501    0  0.00000000000E+00  0.00000000000E+00  0.59526645999E+03  0.59526645999E+03  0.00000000000E+00 0. -1.
         -1   -1    0    0    0  501 -0.00000000000E+00 -0.00000000000E+00 -0.23526504444E+02  0.23526504444E+02  0.00000000000E+00 0.  1.
         23    2    1    2    0    0 -0.80532277629E+00  0.45652078956E+02  0.29916371662E+03  0.32746175889E+03  0.12509002091E+03 0.  0.
         23    2    1    2    0    0  0.80532277629E+00 -0.45652078956E+02  0.27257623893E+03  0.29133120555E+03  0.92148274224E+02 0.  0.
          5    1    3    3  502    0  0.19743252357E+01 -0.41046596154E+02  0.14217185795E+03  0.14805077038E+03  0.41800000000E+01 0.  1.
         -5    1    3    3    0  502 -0.27796480120E+01  0.86698675110E+02  0.15699185867E+03  0.17941098851E+03  0.41800000000E+01 0.  1.
        -11    1    4    4    0    0 -0.31139137278E+02 -0.35281714416E+00  0.32788073691E+02  0.45219775836E+02  0.00000000000E+00 0.  1.
         11    1    4    4    0    0  0.31944460054E+02 -0.45299261812E+02  0.23978816524E+03  0.24611142972E+03  0.00000000000E+00 0. -1.
</event>
<event>
 8    1  0.4798744E-006  0.9859024E+02  0.7561462E-02  0.1283289E+00
          1   -1    0    0  501    0  0.00000000000E+00  0.00000000000E+00  0.13777649756E+02  0.13777649756E+02  0.00000000000E+00 0. -1.
         -1   -1    0    0    0  501 -0.00000000000E+00 -0.00000000000E+00 -0.96633011632E+03  0.96633011632E+03  0.00000000000E+00 0.  1.
         23    2    1    2    0    0 -0.93821908389E+01 -0.38663213037E+02 -0.58889820566E+03  0.60335014423E+03  0.12508968931E+03 0.  0.
         23    2    1    2    0    0  0.93821908389E+01  0.38663213037E+02 -0.36365426091E+03  0.37675762184E+03  0.90105574713E+02 0.  0.
          5    1    3    3  502    0  0.20608768837E+02 -0.58792178038E+02 -0.14382266265E+03  0.15679181179E+03  0.41800000000E+01 0.  1.
         -5    1    3    3    0  502 -0.29990959676E+02  0.20128965001E+02 -0.44507554300E+03  0.44655833244E+03  0.41800000000E+01 0.  1.
        -11    1    4    4    0    0  0.37099731980E+02  0.54897608431E+02 -0.25341775038E+03  0.26193643070E+03  0.00000000000E+00 0.  1.
         11    1    4    4    0    0 -0.27717541141E+02 -0.16234395394E+02 -0.11023651053E+03  0.11482119114E+03  0.00000000000E+00 0. -1.
</event>
<event>
 8    1  0.4798744E-006  0.1275681E+03  0.7561462E-02  0.1231110E+00
         -1   -1    0    0    0  501 -0.00000000000E+00  0.00000000000E+00  0.67813561735E+02  0.67813561735E+02  0.00000000000E+00 0.  1.
          1   -1    0    0  501    0  0.00000000000E+00 -0.00000000000E+00 -0.39277894741E+03  0.39277894741E+03  0.00000000000E+00 0. -1.
         23    2    1    2    0    0  0.62025472134E+02  0.63319494600E+02 -0.56224459442E+02  0.16329526344E+03  0.12509050976E+03 0.  0.
         23    2    1    2    0    0 -0.62025472134E+02 -0.63319494600E+02 -0.26874092623E+03  0.29729724571E+03  0.91145209875E+02 0.  0.
          5    1    3    3  502    0 -0.23229180499E+02  0.63525635752E+02 -0.20909675231E+02  0.70920999306E+02  0.41800000000E+01 0.  1.
         -5    1    3    3    0  502  0.85254652633E+02 -0.20614115162E+00 -0.35314784210E+02  0.92374264130E+02  0.41800000000E+01 0.  1.
        -11    1    4    4    0    0 -0.32003413186E+02 -0.76857587959E-01 -0.18680625066E+03  0.18952783343E+03  0.00000000000E+00 0. -1.
         11    1    4    4    0    0 -0.30022058948E+02 -0.63242637012E+02 -0.81934675580E+02  0.10776941227E+03  0.00000000000E+00 0.  1.
</event>
<event>
 8    1  0.4798744E-006  0.9386679E+02  0.7561462E-02  0.1293749E+00
          1   -1    0    0  501    0  0.00000000000E+00  0.00000000000E+00  0.46512222909E+02  0.46512222909E+02  0.00000000000E+00 0. -1.
         -1   -1    0    0    0  501 -0.00000000000E+00 -0.00000000000E+00 -0.37987770116E+03  0.37987770116E+03  0.00000000000E+00 0.  1.
         23    2    1    2    0    0  0.58606149049E+02 -0.35604680501E+02 -0.24929837907E+03  0.28722673784E+03  0.12508854121E+03 0.  0.
         23    2    1    2    0    0 -0.58606149049E+02  0.35604680501E+02 -0.84067099180E+02  0.13916318623E+03  0.87159286695E+02 0.  0.
          5    1    3    3  502    0  0.54466689840E+02 -0.58360058990E+01 -0.24096895183E+02  0.59990099387E+02  0.41800000000E+01 0.  1.
         -5    1    3    3    0  502  0.41394592083E+01 -0.29768674602E+02 -0.22520148389E+03  0.22723663845E+03  0.41800000000E+01 0.  1.
        -11    1    4    4    0    0 -0.77123356877E+02  0.24800543274E+02 -0.40422958158E+02  0.90537807953E+02  0.00000000000E+00 0. -1.
         11    1    4    4    0    0  0.18517207829E+02  0.10804137227E+02 -0.43644141022E+02  0.48625378277E+02  0.00000000000E+00 0.  1.
</event>
<event>
 8    1  0.4798744E-006  0.1108791E+03  0.7561462E-02  0.1258951E+00
          2   -1    0    0  501    0  0.00000000000E+00  0.00000000000E+00  0.61753078459E+03  0.61753078459E+03  0.00000000000E+00 0. -1.
         -2   -1    0    0    0  501 -0.00000000000E+00 -0.00000000000E+00 -0.33495744999E+02  0.33495744999E+02  0.00000000000E+00 0.  1.
         23    2    1    2    0    0 -0.36940416814E+02 -0.87432253575E+02  0.33434850763E+03  0.36938578507E+03  0.12509172755E+03 0.  0.
         23    2    1    2    0    0  0.36940416814E+02  0.87432253575E+02  0.24968653197E+03  0.28164074452E+03  0.89270103441E+02 0.  0.
          5    1    3    3  502    0 -0.22172416697E+02 -0.72108267800E+02  0.33890389856E+03  0.34722405332E+03  0.41800000000E+01 0. -1.
         -5    1    3    3    0  502 -0.14768000117E+02 -0.15323985776E+02 -0.45553909338E+01  0.22161731748E+02  0.41800000000E+01 0. -1.
        -11    1    4    4    0    0  0.55940183351E+02  0.89350596932E+02  0.23496245430E+03  0.25752706308E+03  0.00000000000E+00 0. -1.
         11    1    4    4    0    0 -0.18999766537E+02 -0.19183433564E+01  0.14724077669E+02  0.24113681446E+02  0.00000000000E+00 0.  1.
</event>
<event>
 8    1  0.4798744E-006  0.8984737E+02  0.7561462E-02  0.1303222E+00
         -1   -1    0    0    0  501 -0.00000000000E+00  0.00000000000E+00  0.72741717443E+02  0.72741717443E+02  0.00000000000E+00 0.  1.
          1   -1    0    0  501    0  0.00000000000E+00 -0.00000000000E+00 -0.23830533320E+03  0.23830533320E+03  0.00000000000E+00 0. -1.
         23    2    1    2    0    0  0.46241593494E+02  0.32592926667E+02 -0.33988508379E+02  0.14143459076E+03  0.12509173004E+03 0.  0.
         23    2    1    2    0    0 -0.46241593494E+02 -0.32592926667E+02 -0.13157510738E+03  0.16961245989E+03  0.90861399002E+02 0.  0.
          5    1    3    3  502    0  0.53856991697E+02  0.51905405148E+01 -0.74247700509E+02  0.91965812650E+02  0.41800000000E+01 0.  1.
         -5    1    3    3    0  502 -0.76153982029E+01  0.27402386152E+02  0.40259192130E+02  0.49468778109E+02  0.41800000000E+01 0.  1.
        -11    1    4    4    0    0 -0.35476439720E+02  0.21529319594E+02 -0.22100004960E+02  0.47015950449E+02  0.00000000000E+00 0.  1.
         11    1    4    4    0    0 -0.10765153774E+02 -0.54122246261E+02 -0.10947510242E+03  0.12259650944E+03  0.00000000000E+00 0. -1.
</event>
<event>
 8    1  0.4798744E-006  0.1307086E+03  0.7561462E-02  0.1226408E+00
         -1   -1    0    0    0  501 -0.00000000000E+00  0.00000000000E+00  0.79278769683E+02  0.79278769683E+02  0.00000000000E+00 0.  1.
          1   -1    0    0  501    0  0.00000000000E+00 -0.00000000000E+00 -0.26301344654E+03  0.26301344654E+03  0.00000000000E+00 0. -1.
         23    2    1    2    0    0 -0.80321873632E+02 -0.51720874588E+02 -0.80170269812E+02  0.17663984296E+03  0.12509080585E+03 0.  0.
         23    2    1    2    0    0  0.80321873632E+02  0.51720874588E+02 -0.10356440705E+03  0.16565237326E+03  0.87111825307E+02 0.  0.
          5    1    3    3  502    0 -0.90479650475E+02 -0.69975468043E+02 -0.24525365759E+02  0.11705596629E+03  0.41800000000E+01 0. -1.
         -5    1    3    3    0  502  0.10157776843E+02  0.18254593455E+02 -0.55644904053E+02  0.59583876676E+02  0.41800000000E+01 0. -1.
        -11    1    4    4    0    0  0.14598728426E+02  0.57833959020E+02 -0.29836010479E+02  0.66693906835E+02  0.00000000000E+00 0. -1.
         11    1    4    4    0    0  0.65723145206E+02 -0.61130844321E+01 -0.73728396570E+02  0.98958466428E+02  0.00000000000E+00 0.  1.
</event>
<event>
 8    1  0.4798744E-006  0.8977354E+02  0.7561462E-02  0.1303401E+00
         -1   -1    0    0    0  501 -0.00000000000E+00  0.00000000000E+00  0.15703054012E+03  0.15703054012E+03  0.00000000000E+00 0.  1.
          1   -1    0    0  501    0  0.00000000000E+00 -0.00000000000E+00 -0.10055357663E+03  0.10055357663E+03  0.00000000000E+00 0. -1.
         23    2    1    2    0    0 -0.24158243153E+02  0.30647885211E+02  0.75161565130E+02  0.15106094163E+03  0.12508890291E+03 0.  0.
         23    2    1    2    0    0  0.24158243153E+02 -0.30647885211E+02 -0.18684601642E+02  0.10652317512E+03  0.97340427983E+02 0.  0.
          5    1    3    3  502    0  0.21782584013E+02  0.24459151780E+01 -0.27269389511E+02  0.35235713015E+02  0.41800000000E+01 0. -1.
         -5    1    3    3    0  502 -0.45940827166E+02  0.28201970033E+02  0.10243095464E+03  0.11582522861E+03  0.41800000000E+01 0. -1.
        -11    1    4    4    0    0  0.11083859333E+02 -0.65244682425E+02 -0.27072880207E+01  0.66234809058E+02  0.00000000000E+00 0.  1.
         11    1    4    4    0    0  0.13074383820E+02  0.34596797214E+02 -0.15977313622E+02  0.40288366067E+02  0.00000000000E+00 0. -1.
</event>
<event>
 8    1  0.4798744E-006  0.1442012E+03  0.7561462E-02  0.1207785E+00
          1   -1    0    0  501    0  0.00000000000E+00  0.00000000000E+00  0.50625390580E+03  0.50625390580E+03  0.00000000000E+00 0. -1.
         -1   -1    0    0    0  501 -0.00000000000E+00 -0.00000000000E+00 -0.41492552356E+02  0.41492552356E+02  0.00000000000E+00 0.  1.
         23    2    1    2    0    0  0.93369113449E+02 -0.29639418413E+02  0.27160084394E+03  0.31465683832E+03  0.12508245683E+03 0.  0.
         23    2    1    2    0    0 -0.93369113449E+02  0.29639418413E+02  0.19316050950E+03  0.23308961983E+03  0.86159746810E+02 0.  0.
          5    1    3    3  502    0  0.75630176159E+02 -0.76939035005E+02  0.19241443233E+03  0.22063618203E+03  0.41800000000E+01 0. -1.
         -5    1    3    3    0  502  0.17738937289E+02  0.47299616592E+02  0.79186411609E+02  0.94020656291E+02  0.41800000000E+01 0. -1.
        -11    1    4    4    0    0 -0.88554527365E+02 -0.10629114496E+02  0.14368990074E+03  0.16912028254E+03  0.00000000000E+00 0. -1.
         11    1    4    4    0    0 -0.48145860841E+01  0.40268532909E+02  0.49470608763E+02  0.63969337289E+02  0.00000000000E+00 0.  1.
</event>
<event>
 8    1  0.4798744E-006  0.1877620E+03  0.7561462E-02  0.1160495E+00
          2   -1    0    0  501    0  0.00000000000E+00  0.00000000000E+00  0.10142333942E+04  0.10142333942E+04  0.00000000000E+00 0. -1.
         -2   -1    0    0    0  501 -0.00000000000E+00 -0.00000000000E+00 -0.48381873267E+02  0.48381873267E+02  0.00000000000E+00 0.  1.
         23    2    1    2    0    0  0.13813992606E+03  0.87948030005E+02  0.25555278862E+03  0.32828333830E+03  0.12508088295E+03 0.  0.
         23    2    1    2    0    0 -0.13813992606E+03 -0.87948030005E+02  0.71029873227E+03  0.73433192912E+03  0.88890932682E+02 0.  0.
          5    1    3    3  502    0  0.10692061052E+03  0.11579222667E+03  0.16375643225E+03  0.22731805519E+03  0.41800000000E+01 0. -1.
         -5    1    3    3    0  502  0.31219315539E+02 -0.27844196668E+02  0.91796356368E+02  0.10096528311E+03  0.41800000000E+01 0. -1.
        -11    1    4    4    0    0 -0.89909621320E+01 -0.35175629965E+02  0.68314155351E+02  0.77362692332E+02  0.00000000000E+00 0.  1.
         11    1    4    4    0    0 -0.12914896393E+03 -0.52772400040E+02  0.64198457692E+03  0.65696923679E+03  0.00000000000E+00 0. -1.
</event>
<event>
 8    1  0.4798744E-006  0.1135206E+03  0.7561462E-02  0.1254186E+00
          3   -1    0    0  501    0  0.00000000000E+00  0.00000000000E+00  0.15546535531E+02  0.15546535531E+02  0.00000000000E+00 0. -1.
         -3   -1    0    0    0  501 -0.00000000000E+00 -0.00000000000E+00 -0.14088693783E+04  0.14088693783E+04  0.00000000000E+00 0.  1.
         23    2    1    2    0    0 -0.52356854403E+02 -0.47048332307E+02 -0.11178819804E+04  0.11262746251E+04  0.11781181262E+03 0.  0.
         23    2    1    2    0    0  0.52356854403E+02  0.47048332307E+02 -0.27544086236E+03  0.29814128875E+03  0.89809652194E+02 0.  0.
          5    1    3    3  502    0 -0.85177140216E+02 -0.53847882178E+02 -0.73170700938E+03  0.73862531746E+03  0.41800000000E+01 0. -1.
         -5    1    3    3    0  502  0.32820285813E+02  0.67995498713E+01 -0.38617497105E+03  0.38764930763E+03  0.41800000000E+01 0.  1.
        -11    1    4    4    0    0  0.63688569468E+02  0.26582548412E+02 -0.26247193191E+03  0.27139340596E+03  0.00000000000E+00 0.  1.
         11    1    4    4    0    0 -0.11331715065E+02  0.20465783895E+02 -0.12968930451E+02  0.26747882791E+02  0.00000000000E+00 0. -1.
</event>
<event>
 8    1  0.4798744E-006  0.1215636E+03  0.7561462E-02  0.1240540E+00
          1   -1    0    0  501    0  0.00000000000E+00  0.00000000000E+00  0.21402237463E+03  0.21402237463E+03  0.00000000000E+00 0. -1.
         -1   -1    0    0    0  501 -0.00000000000E+00 -0.00000000000E+00 -0.91891743827E+02  0.91891743827E+02  0.00000000000E+00 0.  1.
         23    2    1    2    0    0  0.73039887835E+02 -0.98828428794E+00  0.13242123813E+02  0.14546082098E+03  0.12509074577E+03 0.  0.
         23    2    1    2    0    0 -0.73039887835E+02  0.98828428794E+00  0.10888850698E+03  0.16045329747E+03  0.92481088845E+02 0.  0.
          5    1    3    3  502    0  0.32252422901E+02  0.52452666689E+02 -0.26596673144E+02  0.67203842510E+02  0.41800000000E+01 0.  1.
         -5    1    3    3    0  502  0.40787464934E+02 -0.53440950977E+02  0.39838796957E+02  0.78256978475E+02  0.41800000000E+01 0.  1.
        -11    1    4    4    0    0 -0.92957776375E+02  0.70728012298E+01  0.70875542297E+02  0.11710898856E+03  0.00000000000E+00 0.  1.
         11    1    4    4    0    0  0.19917888539E+02 -0.60845169419E+01  0.38012964688E+02  0.43344308907E+02  0.00000000000E+00 0. -1.
</event>
<event>
 8    1  0.4798744E-006  0.1123459E+03  0.7561462E-02  0.1256286E+00
          1   -1    0    0  501    0  0.00000000000E+00  0.00000000000E+00  0.24324830180E+03  0.24324830180E+03  0.00000000000E+00 0. -1.
         -1   -1    0    0    0  501 -0.00000000000E+00 -0.00000000000E+00 -0.59299266756E+02  0.59299266756E+02  0.00000000000E+00 0.  1.
         23    2    1    2    0    0  0.42729857325E+02  0.20746144436E+02  0.79776809596E+02  0.15578269788E+03  0.12509063272E+03 0.  0.
         23    2    1    2    0    0 -0.42729857325E+02 -0.20746144436E+02  0.10417222545E+03  0.14676487067E+03  0.91825004725E+02 0.  0.
          5    1    3    3  502    0  0.56167031240E+02  0.65598731480E+02  0.46342677817E+02  0.98097121045E+02  0.41800000000E+01 0. -1.
         -5    1    3    3    0  502 -0.13437173915E+02 -0.44852587044E+02  0.33434131779E+02  0.57685576838E+02  0.41800000000E+01 0. -1.
        -11    1    4    4    0    0 -0.16863244965E+02 -0.49649662306E+02  0.23926008054E+02  0.57636029177E+02  0.00000000000E+00 0.  1.
         11    1    4    4    0    0 -0.25866612360E+02  0.28903517870E+02  0.80246217394E+02  0.89128841495E+02  0.00000000000E+00 0. -1.
</event>
<event>
 8    1  0.4798744E-006  0.1554227E+03  0.7561462E-02  0.1193964E+00
          2   -1    0    0  501    0  0.00000000000E+00  0.00000000000E+00  0.82005209835E+03  0.82005209835E+03  0.00000000000E+00 0.  1.
         -2   -1    0    0    0  501 -0.00000000000E+00 -0.00000000000E+00 -0.34616672946E+02  0.34616672946E+02  0.00000000000E+00 0. -1.
         23    2    1    2    0    0 -0.11519980565E+03  0.32381134719E+02  0.30562589007E+03  0.35124746269E+03  0.12509221503E+03 0.  0.
         23    2    1    2    0    0  0.11519980565E+03 -0.32381134719E+02  0.47980953534E+03  0.50342130861E+03  0.94320149747E+02 0.  0.
          5    1    3    3  502    0 -0.89149969704E+02 -0.36829864755E+02  0.14291917544E+03  0.17247469132E+03  0.41800000000E+01 0.  1.
         -5    1    3    3    0  502 -0.26049835948E+02  0.69210999474E+02  0.16270671462E+03  0.17877277137E+03  0.41800000000E+01 0.  1.
        -11    1    4    4    0    0 -0.63505220827E+01  0.97046055534E+01  0.72713949216E+01  0.13688742958E+02  0.00000000000E+00 0. -1.
         11    1    4    4    0    0  0.12155032773E+03 -0.42085740272E+02  0.47253814042E+03  0.48973256565E+03  0.00000000000E+00 0.  1.
</event>
<event>
 8    1  0.4798744E-006  0.1066737E+03  0.7561462E-02  0.1266857E+00
         -1   -1    0    0    0  501 -0.00000000000E+00  0.00000000000E+00  0.55342759142E+03  0.55342759142E+03  0.00000000000E+00 0.  1.
          1   -1    0    0  501    0  0.00000000000E+00 -0.00000000000E+00 -0.31464666159E+02  0.31464666159E+02  0.00000000000E+00 0. -1.
         23    2    1    2    0    0 -0.31830197522E+02  0.59604946102E+02  0.36612970230E+03  0.39276547250E+03  0.12509135227E+03 0.  0.
         23    2    1    2    0    0  0.31830197522E+02 -0.59604946102E+02  0.15583322296E+03  0.19212678508E+03  0.89793079300E+02 0.  0.
          5    1    3    3  502    0  0.41503332022E+02  0.23128114006E+02  0.22079815747E+03  0.22589098028E+03  0.41800000000E+01 0.  1.
         -5    1    3    3    0  502 -0.73333529544E+02  0.36476832096E+02  0.14533154482E+03  0.16687449223E+03  0.41800000000E+01 0.  1.
        -11    1    4    4    0    0 -0.96082615802E+01 -0.33061835085E+02  0.13388932924E+03  0.13824527519E+03  0.00000000000E+00 0.  1.
         11    1    4    4    0    0  0.41438459102E+02 -0.26543111017E+02  0.21943893726E+02  0.53881509881E+02  0.00000000000E+00 0. -1.
</event>
<event>
 8    1  0.4798744E-006  0.1019504E+03  0.7561462E-02  0.1276247E+00
          1   -1    0    0  501    0  0.00000000000E+00  0.00000000000E+00  0.44398200813E+02  0.44398200813E+02  0.00000000000E+00 0. -1.
         -1   -1    0    0    0  501 -0.00000000000E+00 -0.00000000000E+00 -0.27244987048E+03  0.27244987048E+03  0.00000000000E+00 0.  1.
         23    2    1    2    0    0 -0.50566590550E+01 -0.72660583776E+01 -0.15224321726E+03  0.19723917283E+03  0.12508768402E+03 0.  0.
         23    2    1    2    0    0  0.50566590550E+01  0.72660583776E+01 -0.75808452408E+02  0.11960889846E+03  0.92092354343E+02 0.  0.
          5    1    3    3  502    0  0.56372460739E+02 -0.19735279741E+02 -0.53998975638E+02  0.80626902248E+02  0.41800000000E+01 0.  1.
         -5    1    3    3    0  502 -0.61429119794E+02  0.12469221363E+02 -0.98244241618E+02  0.11661227059E+03  0.41800000000E+01 0.  1.
        -11    1    4    4    0    0 -0.29182369749E+02  0.28603598129E+02 -0.94377430714E+01  0.41938616148E+02  0.00000000000E+00 0. -1.
         11    1    4    4    0    0  0.34239028804E+02 -0.21337539751E+02 -0.66370709336E+02  0.77670282309E+02  0.00000000000E+00 0.  1.
</event>
<event>
 8    1  0.4798744E-006  0.1195761E+03  0.7561462E-02  0.1243798E+00
         -1   -1    0    0    0  501 -0.00000000000E+00  0.00000000000E+00  0.99078249837E+01  0.99078249837E+01  0.00000000000E+00 0.  1.
          1   -1    0    0  501    0  0.00000000000E+00 -0.00000000000E+00 -0.24179512786E+04  0.24179512786E+04  0.00000000000E+00 0. -1.
         23    2    1    2    0    0  0.58704324522E+02  0.27280540271E+02 -0.19822625508E+04  0.19872593907E+04  0.12507853616E+03 0.  0.
         23    2    1    2    0    0 -0.58704324522E+02 -0.27280540271E+02 -0.42578090285E+03  0.44059971287E+03  0.92996258827E+02 0.  0.
          5    1    3    3  502    0  0.12751521720E+02 -0.43089026787E+02 -0.11178530683E+04  0.11187637017E+04  0.41800000000E+01 0. -1.
         -5    1    3    3    0  502  0.45952802802E+02  0.70369567058E+02 -0.86440948246E+03  0.86849568901E+03  0.41800000000E+01 0. -1.
        -11    1    4    4    0    0 -0.91037756577E+01  0.31600128195E+02 -0.18212552057E+03  0.18507066779E+03  0.00000000000E+00 0.  1.
         11    1    4    4    0    0 -0.49600548864E+02 -0.58880668466E+02 -0.24365538228E+03  0.25552904509E+03  0.00000000000E+00 0. -1.
</event>
<event>
 8    1  0.4798744E-006  0.2107336E+03  0.7561462E-02  0.1140986E+00
         -1   -1    0    0    0  501 -0.00000000000E+00  0.00000000000E+00  0.31428125653E+03  0.31428125653E+03  0.00000000000E+00 0.  1.
          1   -1    0    0  501    0  0.00000000000E+00 -0.00000000000E+00 -0.15142783939E+03  0.15142783939E+03  0.00000000000E+00 0. -1.
         23    2    1    2    0    0  0.17098304652E+03  0.65833448986E+02  0.13504699340E+03  0.25970352816E+03  0.12505593511E+03 0.  0.
         23    2    1    2    0    0 -0.17098304652E+03 -0.65833448986E+02  0.27806423748E+02  0.20600556776E+03  0.89976950068E+02 0.  0.
          5    1    3    3  502    0  0.67958536197E+02  0.90015907015E+02  0.91082890722E+02  0.14503376000E+03  0.41800000000E+01 0. -1.
         -5    1    3    3    0  502  0.10302451033E+03 -0.24182458029E+02  0.43964102678E+02  0.11466976816E+03  0.41800000000E+01 0. -1.
        -11    1    4    4    0    0 -0.11841141992E+03  0.43959533068E-01  0.28194358122E+02  0.12172176522E+03  0.00000000000E+00 0.  1.
         11    1    4    4    0    0 -0.52571626606E+02 -0.65877408519E+02 -0.38793437406E+00  0.84283802538E+02  0.00000000000E+00 0. -1.
</event>
<event>
 8    1  0.4798744E-006  0.2041303E+03  0.7561462E-02  0.1146300E+00
         -1   -1    0    0    0  501 -0.00000000000E+00  0.00000000000E+00  0.50480216445E+02  0.50480216445E+02  0.00000000000E+00 0.  1.
          1   -1    0    0  501    0  0.00000000000E+00 -0.00000000000E+00 -0.92389719355E+03  0.92389719355E+03  0.00000000000E+00 0. -1.
         23    2    1    2    0    0  0.14678396922E+03  0.10561320998E+03 -0.35824625925E+03  0.42034177432E+03  0.12508853355E+03 0.  0.
         23    2    1    2    0    0 -0.14678396922E+03 -0.10561320998E+03 -0.51517071785E+03  0.55403563568E+03  0.94100655282E+02 0.  0.
          5    1    3    3  502    0  0.24177824144E+02  0.73666728692E+02 -0.21739014149E+03  0.23084042132E+03  0.41800000000E+01 0. -1.
         -5    1    3    3    0  502  0.12260614508E+03  0.31946481285E+02 -0.14085611776E+03  0.18950135300E+03  0.41800000000E+01 0. -1.
        -11    1    4    4    0    0 -0.12555945487E+03 -0.35340269435E+02 -0.32817411090E+03  0.35314636968E+03  0.00000000000E+00 0.  1.
         11    1    4    4    0    0 -0.21224514351E+02 -0.70272940542E+02 -0.18699660695E+03  0.20088926600E+03  0.00000000000E+00 0. -1.
</event>
<event>
 8    1  0.4798744E-006  0.6760145E+02  0.7561462E-02  0.1368445E+00
          2   -1    0    0  501    0  0.00000000000E+00  0.00000000000E+00  0.42942913039E+03  0.42942913039E+03  0.00000000000E+00 0. -1.
         -2   -1    0    0    0  501 -0.00000000000E+00 -0.00000000000E+00 -0.39287842965E+02  0.39287842965E+02  0.00000000000E+00 0.  1.
         23    2    1    2    0    0  0.34400925224E+02  0.52617162534E+02  0.15644805171E+03  0.20994310615E+03  0.12509246775E+03 0.  0.
         23    2    1    2    0    0 -0.34400925224E+02 -0.52617162534E+02  0.23369323571E+03  0.25877386720E+03  0.91648221365E+02 0.  0.
          5    1    3    3  502    0  0.17464328869E+02  0.40920115199E+02  0.17579577610E+03  0.18138656484E+03  0.41800000000E+01 0. -1.
         -5    1    3    3    0  502  0.16936596355E+02  0.11697047335E+02 -0.19347724389E+02  0.28556541308E+02  0.41800000000E+01 0. -1.
        -11    1    4    4    0    0 -0.13964075274E+02 -0.10035838229E+01 -0.40990878322E+01  0.14587840820E+02  0.00000000000E+00 0.  1.
         11    1    4    4    0    0 -0.20436849950E+02 -0.51613578711E+02  0.23779232354E+03  0.24418602638E+03  0.00000000000E+00 0. -1.
</event>
<event>
 8    1  0.4798744E-006  0.8994656E+02  0.7561462E-02  0.1302981E+00
         -2   -1    0    0    0  501 -0.00000000000E+00  0.00000000000E+00  0.83759963092E+02  0.83759963092E+02  0.00000000000E+00 0.  1.
          2   -1    0    0  501    0  0.00000000000E+00 -0.00000000000E+00 -0.14642498880E+03  0.14642498880E+03  0.00000000000E+00 0. -1.
         23    2    1    2    0    0  0.12578541557E+02 -0.69410931753E+01 -0.20478675145E+02  0.12757412433E+03  0.12509749231E+03 0.  0.
         23    2    1    2    0    0 -0.12578541557E+02  0.69410931753E+01 -0.42186350559E+02  0.10261082755E+03  0.92427784111E+02 0.  0.
          5    1    3    3  502    0 -0.44224672480E+02 -0.33861498619E+02 -0.30723632154E+02  0.63748229132E+02  0.41800000000E+01 0.  1.
         -5    1    3    3    0  502  0.56803214037E+02  0.26920405444E+02  0.10244957009E+02  0.63825895202E+02  0.41800000000E+01 0.  1.
        -11    1    4    4    0    0 -0.70665102860E+01  0.33334856144E+02 -0.60903330123E+02  0.69787991960E+02  0.00000000000E+00 0. -1.
         11    1    4    4    0    0 -0.55120312711E+01 -0.26393762969E+02  0.18716979564E+02  0.32822835594E+02  0.00000000000E+00 0.  1.
</event>
<event>
 8    1  0.4798744E-006  0.1066497E+03  0.7561462E-02  0.1266903E+00
          1   -1    0    0  501    0  0.00000000000E+00  0.00000000000E+00  0.33205520587E+02  0.33205520587E+02  0.00000000000E+00 0. -1.
         -1   -1    0    0    0  501 -0.00000000000E+00 -0.00000000000E+00 -0.47795864708E+03  0.47795864708E+03  0.00000000000E+00 0.  1.
         23    2    1    2    0    0  0.46008233551E+02 -0.22484511999E+02 -0.31784892734E+03  0.34609811576E+03  0.12701832264E+03 0.  0.
         23    2    1    2    0    0 -0.46008233551E+02  0.22484511999E+02 -0.12690419915E+03  0.16506605190E+03  0.92302843374E+02 0.  0.
          5    1    3    3  502    0 -0.42968605681E+02 -0.35076995126E+01 -0.13578025468E+03  0.14252141942E+03  0.41800000000E+01 0. -1.
         -5    1    3    3    0  502  0.88976839232E+02 -0.18976812487E+02 -0.18206867265E+03  0.20357669634E+03  0.41800000000E+01 0.  1.
        -11    1    4    4    0    0 -0.59627307427E+02  0.10046648565E+02 -0.32052287062E+02  0.68437563109E+02  0.00000000000E+00 0. -1.
         11    1    4    4    0    0  0.13619073876E+02  0.12437863434E+02 -0.94851912088E+02  0.96628488795E+02  0.00000000000E+00 0.  1.
</event>
<event>
 8    1  0.4798744E-006  0.1063918E+03  0.7561462E-02  0.1267401E+00
          2   -1    0    0  501    0  0.00000000000E+00  0.00000000000E+00  0.31983744743E+03  0.31983744743E+03  0.00000000000E+00 0. -1.
         -2   -1    0    0    0  501 -0.00000000000E+00 -0.00000000000E+00 -0.50800494127E+02  0.50800494127E+02  0.00000000000E+00 0.  1.
         23    2    1    2    0    0  0.32017412075E+02  0.55570026198E+02  0.12180603135E+03  0.18600614166E+03  0.12509369678E+03 0.  0.
         23    2    1    2    0    0 -0.32017412075E+02 -0.55570026198E+02  0.14723092195E+03  0.18463179990E+03  0.91097830197E+02 0.  0.
          5    1    3    3  502    0 -0.34485159508E+02  0.62381814858E+02  0.46432205032E+02  0.85171234084E+02  0.41800000000E+01 0. -1.
         -5    1    3    3    0  502  0.66502571583E+02 -0.68117886593E+01  0.75373826318E+02  0.10083490758E+03  0.41800000000E+01 0. -1.
        -11    1    4    4    0    0 -0.31107519060E+00 -0.38290582080E+02  0.58788826102E+01  0.38740504701E+02  0.00000000000E+00 0.  1.
         11    1    4    4    0    0 -0.31706336884E+02 -0.17279444119E+02  0.14135203934E+03  0.14589129520E+03  0.00000000000E+00 0. -1.
</event>
<event>
 8    1  0.4798744E-006  0.1144827E+03  0.7561462E-02  0.1252487E+00
         -1   -1    0    0    0  501 -0.00000000000E+00  0.00000000000E+00  0.11397643815E+03  0.11397643815E+03  0.00000000000E+00 0.  1.
          1   -1    0    0  501    0  0.00000000000E+00 -0.00000000000E+00 -0.18221781963E+03  0.18221781963E+03  0.00000000000E+00 0. -1.
         23    2    1    2    0    0 -0.45841000950E+02 -0.87907590308E+01  0.47154024808E+02  0.14156169438E+03  0.12505013573E+03 0.  0.
         23    2    1    2    0    0  0.45841000950E+02  0.87907590308E+01 -0.11539540629E+03  0.15463256339E+03  0.91741239675E+02 0.  0.
          5    1    3    3  502    0 -0.46669109184E+02  0.53123672199E+02  0.18534919208E+02  0.73219846558E+02  0.41800000000E+01 0.  1.
         -5    1    3    3    0  502  0.82810823413E+00 -0.61914431230E+02  0.28619105600E+02  0.68341847818E+02  0.41800000000E+01 0.  1.
        -11    1    4    4    0    0  0.68170912838E+02  0.20054638880E+02 -0.10661549415E+03  0.12812620922E+03  0.00000000000E+00 0.  1.
         11    1    4    4    0    0 -0.22329911889E+02 -0.11263879850E+02 -0.87799121413E+01  0.26506354171E+02  0.00000000000E+00 0. -1.
</event>
<event>
 8    1  0.4798744E-006  0.8233894E+02  0.7561462E-02  0.1322542E+00
         -4   -1    0    0    0  501 -0.00000000000E+00  0.00000000000E+00  0.16659201350E+02  0.16659201350E+02  0.00000000000E+00 0.  1.
          4   -1    0    0  501    0  0.00000000000E+00 -0.00000000000E+00 -0.74846957308E+03  0.74846957308E+03  0.00000000000E+00 0. -1.
         23    2    1    2    0    0  0.24043235246E+02 -0.10015485484E+02 -0.45598029174E+03  0.47354484028E+03  0.12509317401E+03 0.  0.
         23    2    1    2    0    0 -0.24043235246E+02  0.10015485484E+02 -0.27583007998E+03  0.29158393415E+03  0.90887680796E+02 0.  0.
          5    1    3    3  502    0  0.59351645926E+02 -0.23025566680E+02 -0.40526575188E+03  0.41025674478E+03  0.41800000000E+01 0. -1.
         -5    1    3    3    0  502 -0.35308410680E+02  0.13010081196E+02 -0.50714539867E+02  0.63288095495E+02  0.41800000000E+01 0. -1.
        -11    1    4    4    0    0 -0.41920471803E+02  0.14894129643E+02 -0.26765979613E+03  0.27133176652E+03  0.00000000000E+00 0. -1.
         11    1    4    4    0    0  0.17877236556E+02 -0.48786441585E+01 -0.81702838486E+01  0.20252167634E+02  0.00000000000E+00 0.  1.
</event>
<event>
 8    1  0.4798744E-006  0.7866966E+02  0.7561462E-02  0.1332870E+00
         -1   -1    0    0    0  501 -0.00000000000E+00  0.00000000000E+00  0.40332153380E+02  0.40332153380E+02  0.00000000000E+00 0.  1.
          1   -1    0    0  501    0  0.00000000000E+00 -0.00000000000E+00 -0.34017622959E+03  0.34017622959E+03  0.00000000000E+00 0. -1.
         23    2    1    2    0    0  0.37220069622E+02 -0.29177134937E+02 -0.16027963744E+03  0.20874422495E+03  0.12509176826E+03 0.  0.
         23    2    1    2    0    0 -0.37220069622E+02  0.29177134937E+02 -0.13956443877E+03  0.17176415802E+03  0.88249955388E+02 0.  0.
          5    1    3    3  502    0 -0.22206137127E+02 -0.71844852658E+01  0.10950899016E+02  0.26117502635E+02  0.41800000000E+01 0.  1.
         -5    1    3    3    0  502  0.59426206749E+02 -0.21992649671E+02 -0.17123053646E+03  0.18262672231E+03  0.41800000000E+01 0.  1.
        -11    1    4    4    0    0 -0.23589535895E+02 -0.12202534807E+02 -0.10716163375E+01  0.26580376616E+02  0.00000000000E+00 0.  1.
         11    1    4    4    0    0 -0.13630533726E+02  0.41379669744E+02 -0.13849282244E+03  0.14518378141E+03  0.00000000000E+00 0. -1.
</event>
<event>
 8    1  0.4798744E-006  0.2282287E+03  0.7561462E-02  0.1127893E+00
          1   -1    0    0  501    0  0.00000000000E+00  0.00000000000E+00  0.29990149085E+03  0.29990149085E+03  0.00000000000E+00 0. -1.
         -1   -1    0    0    0  501 -0.00000000000E+00 -0.00000000000E+00 -0.21109780952E+03  0.21109780952E+03  0.00000000000E+00 0.  1.
         23    2    1    2    0    0  0.12162457582E+03  0.18614004923E+03 -0.50973235487E+00  0.25512105372E+03  0.12508331964E+03 0.  0.
         23    2    1    2    0    0 -0.12162457582E+03 -0.18614004923E+03  0.89313413687E+02  0.25587824664E+03  0.89755979581E+02 0.  0.
          5    1    3    3  502    0  0.85137700250E+02  0.64082389035E+02  0.50293915359E+02  0.11790644983E+03  0.41800000000E+01 0.  1.
         -5    1    3    3    0  502  0.36486875573E+02  0.12205766019E+03 -0.50803647714E+02  0.13721460389E+03  0.41800000000E+01 0.  1.
        -11    1    4    4    0    0 -0.21417607066E+02 -0.32822836201E+02 -0.18503601851E+02  0.43340924657E+02  0.00000000000E+00 0.  1.
         11    1    4    4    0    0 -0.10020696876E+03 -0.15331721303E+03  0.10781701554E+03  0.21253732199E+03  0.00000000000E+00 0. -1.
</event>
<event>
 8    1  0.4798744E-006  0.1077068E+03  0.7561462E-02  0.1264876E+00
         -2   -1    0    0    0  501 -0.00000000000E+00  0.00000000000E+00  0.21628420087E+02  0.21628420087E+02  0.00000000000E+00 0.  1.
          2   -1    0    0  501    0  0.00000000000E+00 -0.00000000000E+00 -0.56802760981E+03  0.56802760981E+03  0.00000000000E+00 0. -1.
         23    2    1    2    0    0 -0.16737493585E+02  0.21224837184E+02 -0.32387756983E+03  0.34824449438E+03  0.12508761021E+03 0.  0.
         23    2    1    2    0    0  0.16737493585E+02 -0.21224837184E+02 -0.22252161989E+03  0.24141153551E+03  0.89627120628E+02 0.  0.
          5    1    3    3  502    0 -0.64885319105E+02 -0.88218614100E+01 -0.12232539573E+03  0.13881248040E+03  0.41800000000E+01 0. -1.
         -5    1    3    3    0  502  0.48147825520E+02  0.30046698593E+02 -0.20155217409E+03  0.20943201398E+03  0.41800000000E+01 0. -1.
        -11    1    4    4    0    0  0.26125028105E+02 -0.53359967135E+02 -0.12744800503E+03  0.14061577853E+03  0.00000000000E+00 0. -1.
         11    1    4    4    0    0 -0.93875345203E+01  0.32135129952E+02 -0.95073614866E+02  0.10079575698E+03  0.00000000000E+00 0.  1.
</event>
<event>
 8    1  0.4798744E-006  0.1649177E+03  0.7561462E-02  0.1183254E+00
          3   -1    0    0  501    0  0.00000000000E+00  0.00000000000E+00  0.41040997986E+03  0.41040997986E+03  0.00000000000E+00 0. -1.
         -3   -1    0    0    0  501 -0.00000000000E+00 -0.00000000000E+00 -0.10225519389E+03  0.10225519389E+03  0.00000000000E+00 0.  1.
         23    2    1    2    0    0  0.63983337939E+02 -0.12551527744E+03  0.33139453468E+02  0.19129373615E+03  0.12508843955E+03 0.  0.
         23    2    1    2    0    0 -0.63983337939E+02  0.12551527744E+03  0.27501533250E+03  0.32137143760E+03  0.88307504736E+02 0.  0.
          5    1    3    3  502    0 -0.74262067470E+01  0.21383597108E+02  0.13609554840E+02  0.26741337941E+02  0.41800000000E+01 0.  1.
         -5    1    3    3    0  502  0.71409544686E+02 -0.14689887455E+03  0.19529898628E+02  0.16455239821E+03  0.41800000000E+01 0.  1.
        -11    1    4    4    0    0 -0.60099705665E+01  0.37864651501E+02  0.15440667479E+02  0.41331172155E+02  0.00000000000E+00 0.  1.
         11    1    4    4    0    0 -0.57973367373E+02  0.87650625941E+02  0.25957466502E+03  0.28004026545E+03  0.00000000000E+00 0. -1.
</event>
<event>
 8    1  0.4798744E-006  0.1252595E+03  0.7561462E-02  0.1234664E+00
         -2   -1    0    0    0  501 -0.00000000000E+00  0.00000000000E+00  0.15792277014E+03  0.15792277014E+03  0.00000000000E+00 0.  1.
          2   -1    0    0  501    0  0.00000000000E+00 -0.00000000000E+00 -0.14772612027E+03  0.14772612027E+03  0.00000000000E+00 0. -1.
         23    2    1    2    0    0 -0.14833880387E+02 -0.95244123686E+02  0.52007877283E+02  0.16626222240E+03  0.12508725032E+03 0.  0.
         23    2    1    2    0    0  0.14833880387E+02  0.95244123686E+02 -0.41811227419E+02  0.13938666801E+03  0.91591360823E+02 0.  0.
          5    1    3    3  502    0 -0.48443007739E+02 -0.55668686363E+02  0.78501726391E+02  0.10782263717E+03  0.41800000000E+01 0.  1.
         -5    1    3    3    0  502  0.33609127351E+02 -0.39575437323E+02 -0.26493849108E+02  0.58439585224E+02  0.41800000000E+01 0.  1.
        -11    1    4    4    0    0  0.43949136538E+02  0.80882954396E+02 -0.78209556412E+01  0.92383690452E+02  0.00000000000E+00 0.  1.
         11    1    4    4    0    0 -0.29115256151E+02  0.14361169290E+02 -0.33990271778E+02  0.47002977561E+02  0.00000000000E+00 0. -1.
</event>
<event>
 7    1  0.4798744E-006  0.1724673E+03  0.7561462E-02  0.1175299E+00
         -1   -1    0    0    0  501 -0.00000000000E+00  0.00000000000E+00  0.88396136114E+03  0.88396136114E+03  0.00000000000E+00 0.  1.
          1   -1    0    0  501    0  0.00000000000E+00 -0.00000000000E+00 -0.48393670874E+02  0.48393670874E+02  0.00000000000E+00 0. -1.
         23    2    1    2    0    0  0.12594845741E+03  0.12346759492E+02  0.14635962862E+03  0.21261540196E+03  0.88140296494E+02 0.  0.
          5    1    1    2  502    0 -0.11378295486E+03 -0.68654234828E+02  0.32767178965E+03  0.35361877624E+03  0.41800000000E+01 0. -1.
         -5    1    1    2    0  502 -0.12165502550E+02  0.56307475336E+02  0.36153627200E+03  0.36612085382E+03  0.41800000000E+01 0.  1.
        -11    1    3    3    0    0  0.13974996323E+03  0.91265312694E+01  0.13316140421E+03  0.19324933472E+03  0.00000000000E+00 0.  1.
         11    1    3    3    0    0 -0.13801505825E+02  0.32202282229E+01  0.13198224411E+02  0.19366067243E+02  0.00000000000E+00 0. -1.
</event>
<event>
 8    1  0.4798744E-006  0.1267192E+03  0.7561462E-02  0.1232407E+00
         -1   -1    0    0    0  501 -0.00000000000E+00  0.00000000000E+00  0.76299316526E+02  0.76299316526E+02  0.00000000000E+00 0.  1.
          1   -1    0    0  501    0  0.00000000000E+00 -0.00000000000E+00 -0.33802194861E+03  0.33802194861E+03  0.00000000000E+00 0. -1.
         23    2    1    2    0    0  0.72946517607E+02 -0.16859608055E+02 -0.23045369409E+02  0.14759444377E+03  0.12509032722E+03 0.  0.
         23    2    1    2    0    0 -0.72946517607E+02  0.16859608055E+02 -0.23867726268E+03  0.26672682137E+03  0.92579267146E+02 0.  0.
          5    1    3    3  502    0 -0.10434118599E+02  0.41497531034E+02 -0.14520726148E+02  0.45378847503E+02  0.41800000000E+01 0.  1.
         -5    1    3    3    0  502  0.83380636206E+02 -0.58357139089E+02 -0.85246432604E+01  0.10221559626E+03  0.41800000000E+01 0.  1.
        -11    1    4    4    0    0 -0.64957667268E+02 -0.22254778414E+02 -0.19870011851E+03  0.21022966202E+03  0.00000000000E+00 0. -1.
         11    1    4    4    0    0 -0.79888503389E+01  0.39114386469E+02 -0.39977144169E+02  0.56497159349E+02  0.00000000000E+00 0.  1.
</event>
<event>
 8    1  0.4798744E-006  0.1297921E+03  0.7561462E-02  0.1227765E+00
         -1   -1    0    0    0  501 -0.00000000000E+00  0.00000000000E+00  0.96965869341E+02  0.96965869341E+02  0.00000000000E+00 0.  1.
          1   -1    0    0  501    0  0.00000000000E+00 -0.00000000000E+00 -0.20202601067E+03  0.20202601067E+03  0.00000000000E+00 0. -1.
         23    2    1    2    0    0  0.53672693793E+02 -0.61891462584E+02 -0.24065382465E+02  0.15145224440E+03  0.12508928212E+03 0.  0.
         23    2    1    2    0    0 -0.53672693793E+02  0.61891462584E+02 -0.80994758865E+02  0.14753963561E+03  0.92176363093E+02 0.  0.
          5    1    3    3  502    0 -0.29047580356E+02 -0.56655346607E+02 -0.24807318037E+02  0.68457765461E+02  0.41800000000E+01 0. -1.
         -5    1    3    3    0  502  0.82720274149E+02 -0.52361159762E+01  0.74193557144E+00  0.82994478938E+02  0.41800000000E+01 0. -1.
        -11    1    4    4    0    0 -0.44939924660E+02  0.80521223286E+02 -0.86294223635E+02  0.12629314020E+03  0.00000000000E+00 0. -1.
         11    1    4    4    0    0 -0.87327691333E+01 -0.18629760702E+02  0.52994647707E+01  0.21246495415E+02  0.00000000000E+00 0.  1.
</event>
<event>
 8    1  0.4798744E-006  0.1046275E+03  0.7561462E-02  0.1270855E+00
          2   -1    0    0  501    0  0.00000000000E+00  0.00000000000E+00  0.12519022706E+03  0.12519022706E+03  0.00000000000E+00 0. -1.
         -2   -1    0    0    0  501 -0.00000000000E+00 -0.00000000000E+00 -0.11994578114E+03  0.11994578114E+03  0.00000000000E+00 0.  1.
         23    2    1    2    0    0 -0.18485707660E+02 -0.34923652278E+02 -0.36632818971E+02  0.13621194166E+03  0.12510134591E+03 0.  0.
         23    2    1    2    0    0  0.18485707660E+02  0.34923652278E+02  0.41877264892E+02  0.10892406653E+03  0.92462771312E+02 0.  0.
          5    1    3    3  502    0 -0.19668154670E+02 -0.73526384071E+02  0.84595225016E+01  0.76694206976E+02  0.41800000000E+01 0.  1.
         -5    1    3    3    0  502  0.11824470092E+01  0.38602731793E+02 -0.45092341473E+02  0.59517734687E+02  0.41800000000E+01 0.  1.
        -11    1    4    4    0    0  0.12317847499E+02  0.63634856030E+02  0.10001661727E+02  0.65583210552E+02  0.00000000000E+00 0.  1.
         11    1    4    4    0    0  0.61678601611E+01 -0.28711203752E+02  0.31875603165E+02  0.43340855979E+02  0.00000000000E+00 0. -1.
</event>
<event>
 8    1  0.4798744E-006  0.8610075E+02  0.7561462E-02  0.1312579E+00
         -3   -1    0    0    0  501 -0.00000000000E+00  0.00000000000E+00  0.45267927674E+02  0.45267927674E+02  0.00000000000E+00 0.  1.
          3   -1    0    0  501    0  0.00000000000E+00 -0.00000000000E+00 -0.40508590528E+03  0.40508590528E+03  0.00000000000E+00 0. -1.
         23    2    1    2    0    0 -0.28011554814E+02 -0.52280645533E+02 -0.10581566010E+03  0.17424796529E+03  0.12508991319E+03 0.  0.
         23    2    1    2    0    0  0.28011554814E+02  0.52280645533E+02 -0.25400231751E+03  0.27610586767E+03  0.90550316196E+02 0.  0.
          5    1    3    3  502    0 -0.33816250257E+02 -0.33410887863E+02  0.16336688529E+02  0.50439924676E+02  0.41800000000E+01 0. -1.
         -5    1    3    3    0  502  0.58046954438E+01 -0.18869757670E+02 -0.12215234863E+03  0.12380804061E+03  0.41800000000E+01 0. -1.
        -11    1    4    4    0    0  0.18162595445E+02 -0.22476286087E+02 -0.41074737231E+02  0.50221482934E+02  0.00000000000E+00 0.  1.
         11    1    4    4    0    0  0.98489593690E+01  0.74756931620E+02 -0.21292758027E+03  0.22588438474E+03  0.00000000000E+00 0. -1.
</event>
<event>
 8    1  0.4798744E-006  0.1092155E+03  0.7561462E-02  0.1262029E+00
          1   -1    0    0  501    0  0.00000000000E+00  0.00000000000E+00  0.32044817680E+02  0.32044817680E+02  0.00000000000E+00 0. -1.
         -1   -1    0    0    0  501 -0.00000000000E+00 -0.00000000000E+00 -0.11086977970E+04  0.11086977970E+04  0.00000000000E+00 0.  1.
         23    2    1    2    0    0  0.35970590022E+01  0.59542436712E+02 -0.99951020322E+03  0.10090721635E+04  0.12509094381E+03 0.  0.
         23    2    1    2    0    0 -0.35970590022E+01 -0.59542436712E+02 -0.77142776139E+02  0.13167045121E+03  0.88475189791E+02 0.  0.
          5    1    3    3  502    0 -0.36510200321E+02 -0.94284407903E+01 -0.11800421537E+03  0.12395304542E+03  0.41800000000E+01 0. -1.
         -5    1    3    3    0  502  0.40107259323E+02  0.68970877502E+02 -0.88150598786E+03  0.88511911810E+03  0.41800000000E+01 0. -1.
        -11    1    4    4    0    0  0.32853435706E+02 -0.54727027466E+02 -0.26558591259E+02  0.69135768909E+02  0.00000000000E+00 0.  1.
         11    1    4    4    0    0 -0.36450494708E+02 -0.48154092461E+01 -0.50584184880E+02  0.62534682302E+02  0.00000000000E+00 0. -1.
</event>
<event>
 8    1  0.4798744E-006  0.9875556E+02  0.7561462E-02  0.1282935E+00
         -3   -1    0    0    0  501 -0.00000000000E+00  0.00000000000E+00  0.91702618052E+03  0.91702618052E+03  0.00000000000E+00 0.  1.
          3   -1    0    0  501    0  0.00000000000E+00 -0.00000000000E+00 -0.12846881122E+02  0.12846881122E+02  0.00000000000E+00 0. -1.
         23    2    1    2    0    0 -0.14647566642E+02  0.15171075998E+01  0.59951920655E+03  0.61260748624E+03  0.12509116814E+03 0.  0.
         23    2    1    2    0    0  0.14647566642E+02 -0.15171075998E+01  0.30466009284E+03  0.31726557540E+03  0.87308764391E+02 0.  0.
          5    1    3    3  502    0 -0.59485510589E+02  0.17433353376E+02  0.18087871048E+03  0.19125121721E+03  0.41800000000E+01 0.  1.
         -5    1    3    3    0  502  0.44837943947E+02 -0.15916245776E+02  0.41864049607E+03  0.42135626903E+03  0.41800000000E+01 0.  1.
        -11    1    4    4    0    0  0.79608849170E+01  0.42428618240E+02  0.17296973532E+03  0.17827532827E+03  0.00000000000E+00 0.  1.
         11    1    4    4    0    0  0.66866817254E+01 -0.43945725839E+02  0.13169035753E+03  0.13899024713E+03  0.00000000000E+00 0. -1.
</event>
<event>
 8    1  0.4798744E-006  0.9228732E+02  0.7561462E-02  0.1297405E+00
         -2   -1    0    0    0  501 -0.00000000000E+00  0.00000000000E+00  0.72864222371E+02  0.72864222371E+02  0.00000000000E+00 0.  1.
          2   -1    0    0  501    0  0.00000000000E+00 -0.00000000000E+00 -0.19515826591E+03  0.19515826591E+03  0.00000000000E+00 0. -1.
         23    2    1    2    0    0  0.40906880232E+02 -0.28178170599E+02 -0.35443680089E+02  0.13918254453E+03  0.12509254212E+03 0.  0.
         23    2    1    2    0    0 -0.40906880232E+02  0.28178170599E+02 -0.86850363449E+02  0.12883994375E+03  0.81174893445E+02 0.  0.
          5    1    3    3  502    0  0.21756382653E+02  0.49188938287E+02 -0.21931125038E+02  0.58235199677E+02  0.41800000000E+01 0.  1.
         -5    1    3    3    0  502  0.19150497579E+02 -0.77367108886E+02 -0.13512555052E+02  0.80947344854E+02  0.41800000000E+01 0.  1.
        -11    1    4    4    0    0 -0.10209018301E+02  0.13117287548E+02  0.14387329491E+02  0.21983687980E+02  0.00000000000E+00 0.  1.
         11    1    4    4    0    0 -0.30697861931E+02  0.15060883050E+02 -0.10123769294E+03  0.10685625577E+03  0.00000000000E+00 0. -1.
</event>
<event>
 8    1  0.4798744E-006  0.1815906E+03  0.7561462E-02  0.1166272E+00
          2   -1    0    0  501    0  0.00000000000E+00  0.00000000000E+00  0.32973937612E+03  0.32973937612E+03  0.00000000000E+00 0. -1.
         -2   -1    0    0    0  501 -0.00000000000E+00 -0.00000000000E+00 -0.12489532855E+03  0.12489532855E+03  0.00000000000E+00 0.  1.
         23    2    1    2    0    0  0.91258331672E+02  0.14471069697E+03  0.10235452159E+03  0.23535968554E+03  0.12509382307E+03 0.  0.
         23    2    1    2    0    0 -0.91258331672E+02 -0.14471069697E+03  0.10248952598E+03  0.21927501914E+03  0.91149120482E+02 0.  0.
          5    1    3    3  502    0  0.84212838960E+02  0.96108725645E+02  0.70279678563E+01  0.12804512534E+03  0.41800000000E+01 0. -1.
         -5    1    3    3    0  502  0.70454927120E+01  0.48601971326E+02  0.95326553735E+02  0.10731456020E+03  0.41800000000E+01 0. -1.
        -11    1    4    4    0    0 -0.70089433871E+02 -0.43169465657E+02  0.76427108941E+02  0.11232646387E+03  0.00000000000E+00 0. -1.
         11    1    4    4    0    0 -0.21168897801E+02 -0.10154123131E+03  0.26062417038E+02  0.10694855526E+03  0.00000000000E+00 0.  1.
</event>
<event>
 8    1  0.4798744E-006  0.1349763E+03  0.7561462E-02  0.1220253E+00
          1   -1    0    0  501    0  0.00000000000E+00  0.00000000000E+00  0.50326833135E+02  0.50326833135E+02  0.00000000000E+00 0.  1.
         -1   -1    0    0    0  501 -0.00000000000E+00 -0.00000000000E+00 -0.40490242753E+03  0.40490242753E+03  0.00000000000E+00 0. -1.
         23    2    1    2    0    0 -0.50037205972E+02  0.69351123753E+02 -0.25239504309E+03  0.29437768834E+03  0.12506664332E+03 0.  0.
         23    2    1    2    0    0  0.50037205972E+02 -0.69351123753E+02 -0.10218055130E+03  0.16085157232E+03  0.90105842795E+02 0.  0.
          5    1    3    3  502    0 -0.85887098064E+02  0.26963801519E+02 -0.11479324237E+03  0.14594040257E+03  0.41800000000E+01 0.  1.
         -5    1    3    3    0  502  0.35849892092E+02  0.42387322235E+02 -0.13760180072E+03  0.14843728578E+03  0.41800000000E+01 0.  1.
        -11    1    4    4    0    0  0.43281891267E+02 -0.91385401394E+02 -0.85184196542E+02  0.13221558547E+03  0.00000000000E+00 0.  1.
         11    1    4    4    0    0  0.67553147058E+01  0.22034277641E+02 -0.16996354762E+02  0.28635986854E+02  0.00000000000E+00 0. -1.
</event>
<event>
 8    1  0.4798744E-006  0.6155833E+02  0.7561462E-02  0.1391406E+00
         -1   -1    0    0    0  501 -0.00000000000E+00  0.00000000000E+00  0.30425003896E+02  0.30425003896E+02  0.00000000000E+00 0.  1.
          1   -1    0    0  501    0  0.00000000000E+00 -0.00000000000E+00 -0.40112000833E+03  0.40112000833E+03  0.00000000000E+00 0. -1.
         23    2    1    2    0    0  0.13437554524E+02 -0.13988395541E+02 -0.21093540377E+03  0.24600652750E+03  0.12509685817E+03 0.  0.
         23    2    1    2    0    0 -0.13437554524E+02  0.13988395541E+02 -0.15975960066E+03  0.18553848473E+03  0.92331772596E+02 0.  0.
          5    1    3    3  502    0 -0.17951996705E+02 -0.74239003480E+00  0.10969676210E+02  0.21462328038E+02  0.41800000000E+01 0.  1.
         -5    1    3    3    0  502  0.31389551229E+02 -0.13246005506E+02 -0.22190507998E+03  0.22454419946E+03  0.41800000000E+01 0.  1.
        -11    1    4    4    0    0  0.23199955688E+02 -0.11320854726E+02 -0.74723223545E+01  0.26874435752E+02  0.00000000000E+00 0.  1.
         11    1    4    4    0    0 -0.36637510212E+02  0.25309250266E+02 -0.15228727830E+03  0.15866404897E+03  0.00000000000E+00 0. -1.
</event>
<event>
 8    1  0.4798744E-006  0.1542095E+03  0.7561462E-02  0.1195394E+00
         -2   -1    0    0    0  501 -0.00000000000E+00  0.00000000000E+00  0.16390674975E+03  0.16390674975E+03  0.00000000000E+00 0.  1.
          2   -1    0    0  501    0  0.00000000000E+00 -0.00000000000E+00 -0.19944989365E+03  0.19944989365E+03  0.00000000000E+00 0. -1.
         23    2    1    2    0    0 -0.12407376661E+03  0.20987246879E+02  0.52055393686E+02  0.18491325109E+03  0.12509349433E+03 0.  0.
         23    2    1    2    0    0  0.12407376661E+03 -0.20987246879E+02 -0.87598537583E+02  0.17844339231E+03  0.91289519548E+02 0.  0.
          5    1    3    3  502    0 -0.14106541240E+02 -0.28767884017E+02 -0.25691026826E+02  0.41280587641E+02  0.41800000000E+01 0.  1.
         -5    1    3    3    0  502 -0.10996722537E+03  0.49755130896E+02  0.77746420513E+02  0.14363266345E+03  0.41800000000E+01 0.  1.
        -11    1    4    4    0    0  0.64013421544E+01 -0.36129772667E+02 -0.23795658944E+02  0.43732951409E+02  0.00000000000E+00 0.  1.
         11    1    4    4    0    0  0.11767242446E+03  0.15142525788E+02 -0.63802878639E+02  0.13471044090E+03  0.00000000000E+00 0. -1.
</event>
<event>
 8    1  0.4798744E-006  0.4933987E+03  0.7561462E-02  0.1015516E+00
         -1   -1    0    0    0  501 -0.00000000000E+00  0.00000000000E+00  0.29220254061E+03  0.29220254061E+03  0.00000000000E+00 0.  1.
          1   -1    0    0  501    0  0.00000000000E+00 -0.00000000000E+00 -0.87683923841E+03  0.87683923841E+03  0.00000000000E+00 0. -1.
         23    2    1    2    0    0  0.33901606067E+03 -0.35450070715E+03 -0.36356428831E+03  0.62324157506E+03  0.12509367845E+03 0.  0.
         23    2    1    2    0    0 -0.33901606067E+03  0.35450070715E+03 -0.22107240948E+03  0.54580020395E+03  0.91772608299E+02 0.  0.
          5    1    3    3  502    0  0.28497760646E+03 -0.25900753261E+03 -0.22351272728E+03  0.44527805896E+03  0.41800000000E+01 0.  1.
         -5    1    3    3    0  502  0.54038454211E+02 -0.95493174545E+02 -0.14005156103E+03  0.17796351611E+03  0.41800000000E+01 0.  1.
        -11    1    4    4    0    0 -0.22455707588E+03  0.25915472192E+03 -0.11048112265E+03  0.36026813443E+03  0.00000000000E+00 0.  1.
         11    1    4    4    0    0 -0.11445898479E+03  0.95345985238E+02 -0.11059128683E+03  0.18553206953E+03  0.00000000000E+00 0. -1.
</event>
<event>
 8    1  0.4798744E-006  0.1288380E+03  0.7561462E-02  0.1229190E+00
         -1   -1    0    0    0  501 -0.00000000000E+00  0.00000000000E+00  0.18289678009E+03  0.18289678009E+03  0.00000000000E+00 0.  1.
          1   -1    0    0  501    0  0.00000000000E+00 -0.00000000000E+00 -0.13038795551E+03  0.13038795551E+03  0.00000000000E+00 0. -1.
         23    2    1    2    0    0 -0.78424953065E+02 -0.58694526769E+02  0.76523044700E+02  0.17635080858E+03  0.12509320758E+03 0.  0.
         23    2    1    2    0    0  0.78424953065E+02  0.58694526769E+02 -0.24014220128E+02  0.13693392702E+03  0.92621254928E+02 0.  0.
          5    1    3    3  502    0 -0.65494955550E+02 -0.79045055458E+02  0.99326876127E+02  0.14290210186E+03  0.41800000000E+01 0. -1.
         -5    1    3    3    0  502 -0.12929997515E+02  0.20350528689E+02 -0.22803831427E+02  0.33448706723E+02  0.41800000000E+01 0. -1.
        -11    1    4    4    0    0 -0.16831149628E+02  0.23524930987E+02  0.87786991962E+01  0.30228720372E+02  0.00000000000E+00 0. -1.
         11    1    4    4    0    0  0.95256102693E+02  0.35169595782E+02 -0.32792919324E+02  0.10670520665E+03  0.00000000000E+00 0.  1.
</event>
<event>
 7    1  0.4798744E-006  0.7445957E+02  0.7561462E-02  0.1345553E+00
         -1   -1    0    0    0  501 -0.00000000000E+00  0.00000000000E+00  0.11176239535E+03  0.11176239535E+03  0.00000000000E+00 0.  1.
          1   -1    0    0  501    0  0.00000000000E+00 -0.00000000000E+00 -0.83734967281E+02  0.83734967281E+02  0.00000000000E+00 0. -1.
         23    2    1    2    0    0 -0.21883275285E+02  0.11831354968E+02  0.67143760731E+02  0.13185309858E+03  0.11071628743E+03 0.  0.
          5    1    3    3  502    0 -0.66352541178E+02  0.68775305742E+01  0.28803209558E+02  0.72780886422E+02  0.41800000000E+01 0. -1.
         -5    1    3    3    0  502  0.44469265893E+02  0.49538243937E+01  0.38340551173E+02  0.59072212160E+02  0.41800000000E+01 0.  1.
        -11    1    1    2    0    0  0.10446819701E+02 -0.20353931266E+02 -0.94784071181E+00  0.22897968510E+02  0.00000000000E+00 0. -1.
         11    1    1    2    0    0  0.11436455583E+02  0.85225762986E+01 -0.38168491946E+02  0.40746295543E+02  0.00000000000E+00 0.  1.
</event>
<event>
 8    1  0.4798744E-006  0.1098982E+03  0.7561462E-02  0.1260759E+00
          1   -1    0    0  501    0  0.00000000000E+00  0.00000000000E+00  0.28223154311E+03  0.28223154311E+03  0.00000000000E+00 0. -1.
         -1   -1    0    0    0  501 -0.00000000000E+00 -0.00000000000E+00 -0.64011999543E+02  0.64011999543E+02  0.00000000000E+00 0.  1.
         23    2    1    2    0    0 -0.11201172547E+02 -0.71800711883E+02  0.66034009357E+02  0.15902951088E+03  0.12509630868E+03 0.  0.
         23    2    1    2    0    0  0.11201172547E+02  0.71800711883E+02  0.15218553421E+03  0.18721403178E+03  0.81288673111E+02 0.  0.
          5    1    3    3  502    0 -0.65839786822E+02 -0.53722957280E+02  0.51759675681E+02  0.99586997617E+02  0.41800000000E+01 0.  1.
         -5    1    3    3    0  502  0.54638614275E+02 -0.18077754603E+02  0.14274333676E+02  0.59442513265E+02  0.41800000000E+01 0.  1.
        -11    1    4    4    0    0 -0.68411373403E+01  0.38841965196E+02  0.14326640359E+03  0.14859596838E+03  0.00000000000E+00 0. -1.
         11    1    4    4    0    0  0.18042309887E+02  0.32958746687E+02  0.89191306199E+01  0.38618063394E+02  0.00000000000E+00 0.  1.
</event>
<event>
 8    1  0.4798744E-006  0.1622515E+03  0.7561462E-02  0.1186178E+00
          2   -1    0    0  501    0  0.00000000000E+00  0.00000000000E+00  0.40945606908E+02  0.40945606908E+02  0.00000000000E+00 0. -1.
         -2   -1    0    0    0  501 -0.00000000000E+00 -0.00000000000E+00 -0.82498275230E+03  0.82498275230E+03  0.00000000000E+00 0.  1.
         23    2    1    2    0    0 -0.11784180072E+03 -0.89427972282E+02 -0.41051705438E+03  0.45393163666E+03  0.12508247922E+03 0.  0.
         23    2    1    2    0    0  0.11784180072E+03  0.89427972282E+02 -0.37352009101E+03  0.41199672254E+03  0.91323538972E+02 0.  0.
          5    1    3    3  502    0 -0.12367255636E+03 -0.74237450758E+02 -0.22270490563E+03  0.26536964348E+03  0.41800000000E+01 0.  1.
         -5    1    3    3    0  502  0.58307556393E+01 -0.15190521524E+02 -0.18781214875E+03  0.18856199318E+03  0.41800000000E+01 0.  1.
        -11    1    4    4    0    0  0.96082684274E+02  0.30854460607E+02 -0.29416854612E+03  0.31099680623E+03  0.00000000000E+00 0.  1.
         11    1    4    4    0    0  0.21759116445E+02  0.58573511675E+02 -0.79351544890E+02  0.10099991631E+03  0.00000000000E+00 0. -1.
</event>
<event>
 7    1  0.4798744E-006  0.1503532E+03  0.7561462E-02  0.1200040E+00
         -1   -1    0    0    0  501 -0.00000000000E+00  0.00000000000E+00  0.90358781464E+02  0.90358781464E+02  0.00000000000E+00 0.  1.
          1   -1    0    0  501    0  0.00000000000E+00 -0.00000000000E+00 -0.33866419467E+03  0.33866419467E+03  0.00000000000E+00 0. -1.
         23    2    1    2    0    0 -0.20173147938E+00  0.66255426700E+02 -0.16644817521E+03  0.20614157411E+03  0.10197809217E+03 0.  0.
          5    1    1    2  502    0  0.40650321166E+02  0.51705904899E+02 -0.72167573434E+02  0.97732186447E+02  0.41800000000E+01 0. -1.
         -5    1    1    2    0  502 -0.40448589686E+02 -0.11796133160E+03 -0.96896645599E+01  0.12514921558E+03  0.41800000000E+01 0.  1.
        -11    1    3    3    0    0 -0.13504433045E+02  0.85540583180E+02 -0.84823552520E+02  0.12122126936E+03  0.00000000000E+00 0. -1.
         11    1    3    3    0    0  0.13302701566E+02 -0.19285156480E+02 -0.81624622693E+02  0.84920304752E+02  0.00000000000E+00 0.  1.
</event>
<event>
 8    1  0.4798744E-006  0.1016214E+03  0.7561462E-02  0.1276923E+00
          1   -1    0    0  501    0  0.00000000000E+00  0.00000000000E+00  0.81865287301E+02  0.81865287301E+02  0.00000000000E+00 0. -1.
         -1   -1    0    0    0  501 -0.00000000000E+00 -0.00000000000E+00 -0.14875891279E+03  0.14875891279E+03  0.00000000000E+00 0.  1.
         23    2    1    2    0    0  0.13921960794E+02 -0.70370850223E+01 -0.50199912287E+02  0.13568530294E+03  0.12508848341E+03 0.  0.
         23    2    1    2    0    0 -0.13921960794E+02  0.70370850223E+01 -0.16693713203E+02  0.94938897151E+02  0.92148643906E+02 0.  0.
          5    1    3    3  502    0 -0.47112578463E+02 -0.30162375940E+02 -0.41343859863E+02  0.69686089861E+02  0.41800000000E+01 0.  1.
         -5    1    3    3    0  502  0.61034539258E+02  0.23125290917E+02 -0.88560524236E+01  0.65999213078E+02  0.41800000000E+01 0.  1.
        -11    1    4    4    0    0  0.22692665697E+02  0.30679130529E+02  0.15049707439E+02  0.41020236718E+02  0.00000000000E+00 0. -1.
         11    1    4    4    0    0 -0.36614626491E+02 -0.23642045507E+02 -0.31743420641E+02  0.53918660432E+02  0.00000000000E+00 0.  1.
</event>
<event>
 8    1  0.4798744E-006  0.1092945E+03  0.7561462E-02  0.1261882E+00
          2   -1    0    0  501    0  0.00000000000E+00  0.00000000000E+00  0.17338012399E+03  0.17338012399E+03  0.00000000000E+00 0.  1.
         -2   -1    0    0    0  501 -0.00000000000E+00 -0.00000000000E+00 -0.16332422507E+03  0.16332422507E+03  0.00000000000E+00 0. -1.
         23    2    1    2    0    0 -0.46412488278E+02  0.78499376697E+02 -0.84737572324E+02  0.17647855325E+03  0.12509177585E+03 0.  0.
         23    2    1    2    0    0  0.46412488278E+02 -0.78499376697E+02  0.94793471243E+02  0.16022579580E+03  0.91488973326E+02 0.  0.
          5    1    3    3  502    0 -0.11927164979E+02  0.18554281238E+02 -0.10252059660E+03  0.10494981536E+03  0.41800000000E+01 0. -1.
         -5    1    3    3    0  502 -0.34485323299E+02  0.59945095459E+02  0.17783024275E+02  0.71528737896E+02  0.41800000000E+01 0. -1.
        -11    1    4    4    0    0  0.63627260714E+02 -0.86898139234E+02  0.90307833765E+02  0.14055326303E+03  0.00000000000E+00 0.  1.
         11    1    4    4    0    0 -0.17214772436E+02  0.83987625370E+01  0.44856374777E+01  0.19672532775E+02  0.00000000000E+00 0. -1.
</event>
<event>
 8    1  0.4798744E-006  0.1243662E+03  0.7561462E-02  0.1236063E+00
         -1   -1    0    0    0  501 -0.00000000000E+00  0.00000000000E+00  0.84488646342E+02  0.84488646342E+02  0.00000000000E+00 0.  1.
          1   -1    0    0  501    0  0.00000000000E+00 -0.00000000000E+00 -0.29620342654E+03  0.29620342654E+03  0.00000000000E+00 0. -1.
         23    2    1    2    0    0 -0.24678032121E+02 -0.74328062912E+02 -0.12981549151E+02  0.14815378623E+03  0.12508939824E+03 0.  0.
         23    2    1    2    0    0  0.24678032121E+02  0.74328062912E+02 -0.19873323105E+03  0.23253828665E+03  0.91899354891E+02 0.  0.
          5    1    3    3  502    0 -0.64465557323E+02 -0.78027867496E+02  0.10127544769E+02  0.10180469415E+03  0.41800000000E+01 0.  1.
         -5    1    3    3    0  502  0.39787525202E+02  0.36998045836E+01 -0.23109093921E+02  0.46349092089E+02  0.41800000000E+01 0.  1.
        -11    1    4    4    0    0 -0.47076825559E-01  0.81508687651E+02 -0.18749511427E+03  0.20444580273E+03  0.00000000000E+00 0. -1.
         11    1    4    4    0    0  0.24725108947E+02 -0.71806247386E+01 -0.11238116779E+02  0.28092483920E+02  0.00000000000E+00 0.  1.
</event>
<event>
 8    1  0.4798744E-006  0.1177804E+03  0.7561462E-02  0.1246804E+00
          1   -1    0    0  501    0  0.00000000000E+00  0.00000000000E+00  0.13545113440E+03  0.13545113440E+03  0.00000000000E+00 0. -1.
         -1   -1    0    0    0  501 -0.00000000000E+00 -0.00000000000E+00 -0.15470016532E+03  0.15470016532E+03  0.00000000000E+00 0.  1.
         23    2    1    2    0    0 -0.41274223447E+02 -0.86615949422E+02 -0.85068053949E+01  0.15788049843E+03  0.12509197349E+03 0.  0.
         23    2    1    2    0    0  0.41274223447E+02  0.86615949422E+02 -0.10742225528E+02  0.13227080128E+03  0.90411753924E+02 0.  0.
          5    1    3    3  502    0  0.37944401692E+01 -0.35852212569E+02  0.54294631161E+02  0.65308179389E+02  0.41800000000E+01 0. -1.
         -5    1    3    3    0  502 -0.45068663616E+02 -0.50763736853E+02 -0.62801436556E+02  0.92572319042E+02  0.41800000000E+01 0. -1.
        -11    1    4    4    0    0  0.56273412298E+02  0.97602182387E+02 -0.48494677754E+01  0.11276701768E+03  0.00000000000E+00 0.  1.
         11    1    4    4    0    0 -0.14999188851E+02 -0.10986232966E+02 -0.58927577527E+01  0.19503783605E+02  0.00000000000E+00 0. -1.
</event>
<event>
 8    1  0.4798744E-006  0.9791292E+02  0.7561462E-02  0.1284747E+00
         -1   -1    0    0    0  501 -0.00000000000E+00  0.00000000000E+00  0.14734017905E+02  0.14734017905E+02  0.00000000000E+00 0.  1.
          1   -1    0    0  501    0  0.00000000000E+00 -0.00000000000E+00 -0.86015937760E+03  0.86015937760E+03  0.00000000000E+00 0. -1.
         23    2    1    2    0    0 -0.15453471981E+01 -0.31118064251E+02 -0.44488355900E+03  0.46318445479E+03  0.12509091123E+03 0.  0.
         23    2    1    2    0    0  0.15453471981E+01  0.31118064251E+02 -0.40054180070E+03  0.41170894072E+03  0.89998865204E+02 0.  0.
          5    1    3    3  502    0  0.46255320136E+02 -0.43227199405E+01 -0.35338047082E+03  0.35644560610E+03  0.41800000000E+01 0.  1.
         -5    1    3    3    0  502 -0.47800667334E+02 -0.26795344311E+02 -0.91503088180E+02  0.10673884870E+03  0.41800000000E+01 0.  1.
        -11    1    4    4    0    0 -0.42325577270E+02  0.26899504157E+02 -0.24283792932E+03  0.24796229095E+03  0.00000000000E+00 0.  1.
         11    1    4    4    0    0  0.43870924468E+02  0.42185600944E+01 -0.15770387137E+03  0.16374664977E+03  0.00000000000E+00 0. -1.
</event>
<event>
 8    1  0.4798744E-006  0.2085726E+03  0.7561462E-02  0.1142701E+00
          2   -1    0    0  501    0  0.00000000000E+00  0.00000000000E+00  0.60485626072E+03  0.60485626072E+03  0.00000000000E+00 0. -1.
         -2   -1    0    0    0  501 -0.00000000000E+00 -0.00000000000E+00 -0.76764224570E+02  0.76764224570E+02  0.00000000000E+00 0.  1.
         23    2    1    2    0    0 -0.16143584527E+03  0.86544895760E+02  0.23777875370E+03  0.32517219257E+03  0.12508664193E+03 0.  0.
         23    2    1    2    0    0  0.16143584527E+03 -0.86544895760E+02  0.29031328245E+03  0.35644829272E+03  0.96031413054E+02 0.  0.
          5    1    3    3  502    0 -0.16190788606E+03  0.37211120249E+02  0.21193936034E+03  0.26932247567E+03  0.41800000000E+01 0. -1.
         -5    1    3    3    0  502  0.47204079182E+00  0.49333775512E+02  0.25839393359E+02  0.55849716901E+02  0.41800000000E+01 0. -1.
        -11    1    4    4    0    0  0.24256039657E+02  0.16965267324E+02  0.18627011757E+02  0.34973437381E+02  0.00000000000E+00 0.  1.
         11    1    4    4    0    0  0.13717980562E+03 -0.10351016308E+03  0.27168627069E+03  0.32147485534E+03  0.00000000000E+00 0. -1.
</event>
<event>
 8    1  0.4798744E-006  0.9234698E+02  0.7561462E-02  0.1297266E+00
          1   -1    0    0  501    0  0.00000000000E+00  0.00000000000E+00  0.32640879124E+03  0.32640879124E+03  0.00000000000E+00 0. -1.
         -1   -1    0    0    0  501 -0.00000000000E+00 -0.00000000000E+00 -0.39385540333E+02  0.39385540333E+02  0.00000000000E+00 0.  1.
         23    2    1    2    0    0 -0.20985714699E+01 -0.14653995453E+02  0.11867790541E+03  0.17306490119E+03  0.12509145137E+03 0.  0.
         23    2    1    2    0    0  0.20985714699E+01  0.14653995453E+02  0.16834534550E+03  0.19272943039E+03  0.92657079601E+02 0.  0.
          5    1    3    3  502    0 -0.23093615883E+02  0.33781177290E+02 -0.21010174517E+01  0.41187008971E+02  0.41800000000E+01 0. -1.
         -5    1    3    3    0  502  0.20995044413E+02 -0.48435172744E+02  0.12077892286E+03  0.13187789222E+03  0.41800000000E+01 0. -1.
        -11    1    4    4    0    0  0.29546338854E+02  0.42333275316E+02  0.11994929351E+03  0.13058684985E+03  0.00000000000E+00 0. -1.
         11    1    4    4    0    0 -0.27447767384E+02 -0.27679279863E+02  0.48396051989E+02  0.62142580540E+02  0.00000000000E+00 0.  1.
</event>
<event>
 8    1  0.4798744E-006  0.1051054E+03  0.7561462E-02  0.1269912E+00
         -2   -1    0    0    0  501 -0.00000000000E+00  0.00000000000E+00  0.22860842541E+03  0.22860842541E+03  0.00000000000E+00 0.  1.
          2   -1    0    0  501    0  0.00000000000E+00 -0.00000000000E+00 -0.72355886729E+02  0.72355886729E+02  0.00000000000E+00 0. -1.
         23    2    1    2    0    0 -0.51686582953E+02  0.34272381465E+02  0.11633146300E+03  0.18172572616E+03  0.12508049919E+03 0.  0.
         23    2    1    2    0    0  0.51686582953E+02 -0.34272381465E+02  0.39921075679E+02  0.11923858597E+03  0.93691243525E+02 0.  0.
          5    1    3    3  502    0  0.19653247294E+02  0.42626475061E+02  0.96026701563E+02  0.10696665984E+03  0.41800000000E+01 0. -1.
         -5    1    3    3    0  502 -0.71339830246E+02 -0.83540935956E+01  0.20304761436E+02  0.74759066315E+02  0.41800000000E+01 0. -1.
        -11    1    4    4    0    0  0.24337849354E+02  0.19251167143E+02 -0.17910137453E+02  0.35828918085E+02  0.00000000000E+00 0. -1.
         11    1    4    4    0    0  0.27348733599E+02 -0.53523548608E+02  0.57831213132E+02  0.83409667889E+02  0.00000000000E+00 0.  1.
</event>
<event>
 8    1  0.4798744E-006  0.1053464E+03  0.7561462E-02  0.1269439E+00
          2   -1    0    0  501    0  0.00000000000E+00  0.00000000000E+00  0.17558505548E+03  0.17558505548E+03  0.00000000000E+00 0. -1.
         -2   -1    0    0    0  501 -0.00000000000E+00 -0.00000000000E+00 -0.85548893908E+02  0.85548893908E+02  0.00000000000E+00 0.  1.
         23    2    1    2    0    0  0.60941513438E+01  0.15754595182E+02 -0.87683159655E+01  0.12652977758E+03  0.12509018866E+03 0.  0.
         23    2    1    2    0    0 -0.60941513438E+01 -0.15754595182E+02  0.98804477542E+02  0.13460417182E+03  0.89836586855E+02 0.  0.
          5    1    3    3  502    0  0.50420129637E+01  0.70748669855E+02 -0.40818045624E+01  0.71168319563E+02  0.41800000000E+01 0. -1.
         -5    1    3    3    0  502  0.10521383801E+01 -0.54994074673E+02 -0.46865114031E+01  0.55361458014E+02  0.41800000000E+01 0. -1.
        -11    1    4    4    0    0 -0.41523423257E+02 -0.24194850309E+02  0.29715057580E+02  0.56502832739E+02  0.00000000000E+00 0.  1.
         11    1    4    4    0    0  0.35429271913E+02  0.84402551275E+01  0.69089419962E+02  0.78101339077E+02  0.00000000000E+00 0. -1.
</event>
<event>
 7    1  0.4798744E-006  0.7021362E+02  0.7561462E-02  0.1359368E+00
          1   -1    0    0  501    0  0.00000000000E+00  0.00000000000E+00  0.22024482848E+03  0.22024482848E+03  0.00000000000E+00 0. -1.
         -1   -1    0    0    0  501 -0.00000000000E+00 -0.00000000000E+00 -0.69821546338E+02  0.69821546338E+02  0.00000000000E+00 0.  1.
         23    2    1    2    0    0 -0.36271351374E+01  0.17260064560E+02  0.94856035081E+02  0.13054685480E+03  0.87941730534E+02 0.  0.
          5    1    1    2  502    0  0.19874515348E+02  0.67872920263E+01  0.10220846702E+03  0.10442751948E+03  0.41800000000E+01 0. -1.
         -5    1    1    2    0  502 -0.16247380211E+02 -0.24047356587E+02 -0.46641219968E+02  0.55092000532E+02  0.41800000000E+01 0.  1.
        -11    1    3    3    0    0 -0.40006487671E+02  0.31199826533E+02  0.53780978228E+02  0.73934713434E+02  0.00000000000E+00 0. -1.
         11    1    3    3    0    0  0.36379352534E+02 -0.13939761973E+02  0.41075056853E+02  0.56612141367E+02  0.00000000000E+00 0.  1.
</event>
<event>
 8    1  0.4798744E-006  0.1141462E+03  0.7561462E-02  0.1253079E+00
          3   -1    0    0  501    0  0.00000000000E+00  0.00000000000E+00  0.70861270543E+02  0.70861270543E+02  0.00000000000E+00 0. -1.
         -3   -1    0    0    0  501 -0.00000000000E+00 -0.00000000000E+00 -0.18935105636E+03  0.18935105636E+03  0.00000000000E+00 0.  1.
         23    2    1    2    0    0 -0.50353050710E+01  0.39321249989E+02 -0.58324642217E+02  0.14360097972E+03  0.12509181623E+03 0.  0.
         23    2    1    2    0    0  0.50353050710E+01 -0.39321249989E+02 -0.60165143601E+02  0.11661134719E+03  0.91688858594E+02 0.  0.
          5    1    3    3  502    0 -0.62409497889E+02  0.65846433925E+01 -0.15534357831E+02  0.64784964525E+02  0.41800000000E+01 0. -1.
         -5    1    3    3    0  502  0.57374192818E+02  0.32736606597E+02 -0.42790284386E+02  0.78816015192E+02  0.41800000000E+01 0. -1.
        -11    1    4    4    0    0 -0.87364879195E+01  0.28600352184E+02 -0.24553786972E+02  0.38693601808E+02  0.00000000000E+00 0.  1.
         11    1    4    4    0    0  0.13771792991E+02 -0.67921602173E+02 -0.35611356628E+02  0.77917745378E+02  0.00000000000E+00 0. -1.
</event>
<event>
 8    1  0.4798744E-006  0.8288290E+02  0.7561462E-02  0.1321064E+00
         -4   -1    0    0    0  501 -0.00000000000E+00  0.00000000000E+00  0.16201386933E+03  0.16201386933E+03  0.00000000000E+00 0.  1.
          4   -1    0    0  501    0  0.00000000000E+00 -0.00000000000E+00 -0.67824412175E+02  0.67824412175E+02  0.00000000000E+00 0. -1.
         23    2    1    2    0    0 -0.97619725051E+01 -0.25422087682E+01  0.68020423461E+02  0.13509542462E+03  0.11628515302E+03 0.  0.
         23    2    1    2    0    0  0.97619725051E+01  0.25422087682E+01  0.26169033697E+02  0.94742856890E+02  0.90496583773E+02 0.  0.
          5    1    3    3  502    0 -0.40402126503E+02  0.93771200623E+01 -0.16095895455E+02  0.44685707526E+02  0.41800000000E+01 0. -1.
         -5    1    3    3    0  502  0.30640153997E+02 -0.11919328831E+02  0.84116318915E+02  0.90409717092E+02  0.41800000000E+01 0.  1.
        -11    1    4    4    0    0 -0.16294783025E+02 -0.38792544542E+02  0.14524491494E+02  0.44512271555E+02  0.00000000000E+00 0.  1.
         11    1    4    4    0    0  0.26056755530E+02  0.41334753310E+02  0.11644542204E+02  0.50230585335E+02  0.00000000000E+00 0. -1.
</event>
<event>
 8    1  0.4798744E-006  0.1017437E+03  0.7561462E-02  0.1276671E+00
         -1   -1    0    0    0  501 -0.00000000000E+00  0.00000000000E+00  0.13368160835E+04  0.13368160835E+04  0.00000000000E+00 0.  1.
          1   -1    0    0  501    0  0.00000000000E+00 -0.00000000000E+00 -0.13362282981E+02  0.13362282981E+02  0.00000000000E+00 0. -1.
         23    2    1    2    0    0  0.15423482600E+02 -0.23368372780E+01  0.10968725821E+04  0.11040925944E+04  0.12509057120E+03 0.  0.
         23    2    1    2    0    0 -0.15423482600E+02  0.23368372780E+01  0.22658121840E+03  0.24608577207E+03  0.94740772957E+02 0.  0.
          5    1    3    3  502    0  0.67325814791E+02 -0.51122344451E+01  0.78311973193E+03  0.78603618696E+03  0.41800000000E+01 0.  1.
         -5    1    3    3    0  502 -0.51902332192E+02  0.27753971671E+01  0.31375285018E+03  0.31805640744E+03  0.41800000000E+01 0.  1.
        -11    1    4    4    0    0 -0.16892284562E+02 -0.38911354792E+02  0.54169441390E+02  0.68802406862E+02  0.00000000000E+00 0. -1.
         11    1    4    4    0    0  0.14688019624E+01  0.41248192070E+02  0.17241177701E+03  0.17728336521E+03  0.00000000000E+00 0.  1.
</event>
<event>
 8    1  0.4798744E-006  0.9604351E+02  0.7561462E-02  0.1288843E+00
         -2   -1    0    0    0  501 -0.00000000000E+00  0.00000000000E+00  0.27074500835E+02  0.27074500835E+02  0.00000000000E+00 0.  1.
          2   -1    0    0  501    0  0.00000000000E+00 -0.00000000000E+00 -0.61049370227E+03  0.61049370227E+03  0.00000000000E+00 0. -1.
         23    2    1    2    0    0  0.65956875759E-01  0.63677757002E+02 -0.27189754310E+03  0.30599208662E+03  0.12509205427E+03 0.  0.
         23    2    1    2    0    0 -0.65956875759E-01 -0.63677757002E+02 -0.31152165833E+03  0.33157611648E+03  0.94032528026E+02 0.  0.
          5    1    3    3  502    0  0.25578016522E+02 -0.19376604374E+02 -0.16777408533E+02  0.36450535845E+02  0.41800000000E+01 0. -1.
         -5    1    3    3    0  502 -0.25512059647E+02  0.83054361376E+02 -0.25512013457E+03  0.26954155078E+03  0.41800000000E+01 0. -1.
        -11    1    4    4    0    0 -0.13137082316E+02 -0.76332847049E+01 -0.42322198394E+00  0.15199640917E+02  0.00000000000E+00 0.  1.
         11    1    4    4    0    0  0.13071125440E+02 -0.56044472297E+02 -0.31109843634E+03  0.31637647557E+03  0.00000000000E+00 0. -1.
</event>
<event>
 8    1  0.4798744E-006  0.2978649E+03  0.7561462E-02  0.1086313E+00
         -1   -1    0    0    0  501 -0.00000000000E+00  0.00000000000E+00  0.64813727750E+02  0.64813727750E+02  0.00000000000E+00 0.  1.
          1   -1    0    0  501    0  0.00000000000E+00 -0.00000000000E+00 -0.14664522579E+04  0.14664522579E+04  0.00000000000E+00 0. -1.
         23    2    1    2    0    0 -0.25205846072E+03 -0.13822997748E+03 -0.66260041088E+03  0.73302615206E+03  0.12508813214E+03 0.  0.
         23    2    1    2    0    0  0.25205846072E+03  0.13822997748E+03 -0.73903811930E+03  0.79823983363E+03  0.91479483595E+02 0.  0.
          5    1    3    3  502    0 -0.17736599999E+03 -0.62445634903E+02 -0.29119003637E+03  0.34665150361E+03  0.41800000000E+01 0.  1.
         -5    1    3    3    0  502 -0.74692460727E+02 -0.75784342577E+02 -0.37141037451E+03  0.38637464845E+03  0.41800000000E+01 0.  1.
        -11    1    4    4    0    0  0.24379886038E+03  0.10247277034E+03 -0.66337810590E+03  0.71414918915E+03  0.00000000000E+00 0. -1.
         11    1    4    4    0    0  0.82596003365E+01  0.35757207139E+02 -0.75660013404E+02  0.84090644476E+02  0.00000000000E+00 0.  1.
</event>
<event>
 8    1  0.4798744E-006  0.1514671E+03  0.7561462E-02  0.1198682E+00
         -2   -1    0    0    0  501 -0.00000000000E+00  0.00000000000E+00  0.43165781947E+02  0.43165781947E+02  0.00000000000E+00 0.  1.
          2   -1    0    0  501    0  0.00000000000E+00 -0.00000000000E+00 -0.77531708239E+03  0.77531708239E+03  0.00000000000E+00 0. -1.
         23    2    1    2    0    0  0.61545328153E+02  0.11621442021E+03 -0.24059627718E+03  0.30137953650E+03  0.12509771199E+03 0.  0.
         23    2    1    2    0    0 -0.61545328153E+02 -0.11621442021E+03 -0.49155502326E+03  0.51710332784E+03  0.92064607133E+02 0.  0.
          5    1    3    3  502    0  0.33825644414E+02 -0.14133384069E+02 -0.10465299863E+03  0.11096688375E+03  0.41800000000E+01 0. -1.
         -5    1    3    3    0  502  0.27719683739E+02  0.13034780428E+03 -0.13594327855E+03  0.19041265276E+03  0.41800000000E+01 0. -1.
        -11    1    4    4    0    0 -0.23701600078E+02 -0.63801657635E+02 -0.39553960325E+03  0.40135270661E+03  0.00000000000E+00 0. -1.
         11    1    4    4    0    0 -0.37843728075E+02 -0.52412762572E+02 -0.96015420012E+02  0.11575062123E+03  0.00000000000E+00 0.  1.
</event>
<event>
 7    1  0.4798744E-006  0.1794387E+03  0.7561462E-02  0.1168347E+00
          1   -1    0    0  501    0  0.00000000000E+00  0.00000000000E+00  0.40930614083E+03  0.40930614083E+03  0.00000000000E+00 0. -1.
         -1   -1    0    0    0  501 -0.00000000000E+00 -0.00000000000E+00 -0.18050460748E+03  0.18050460748E+03  0.00000000000E+00 0.  1.
         23    2    1    2    0    0 -0.96500674040E+02  0.82580902543E+02  0.25954974814E+03  0.30197104594E+03  0.87683836989E+02 0.  0.
          5    1    1    2  502    0 -0.16988327239E+02  0.49051575343E+02  0.69737467698E+02  0.87037044452E+02  0.41800000000E+01 0. -1.
         -5    1    1    2    0  502  0.11348900128E+03 -0.13163247789E+03 -0.10048568249E+03  0.20080265793E+03  0.41800000000E+01 0.  1.
        -11    1    3    3    0    0 -0.11849067748E+02  0.32497170624E+02  0.13750342515E+02  0.37222821284E+02  0.00000000000E+00 0.  1.
         11    1    3    3    0    0 -0.84651606292E+02  0.50083731919E+02  0.24579940563E+03  0.26474822465E+03  0.00000000000E+00 0. -1.
</event>
<event>
 8    1  0.4798744E-006  0.1698998E+03  0.7561462E-02  0.1177952E+00
          1   -1    0    0  501    0  0.00000000000E+00  0.00000000000E+00  0.29808994156E+02  0.29808994156E+02  0.00000000000E+00 0. -1.
         -1   -1    0    0    0  501 -0.00000000000E+00 -0.00000000000E+00 -0.11723697415E+04  0.11723697415E+04  0.00000000000E+00 0.  1.
         23    2    1    2    0    0 -0.80596170162E+02  0.11409974353E+03 -0.79895570760E+03  0.82066557563E+03  0.12508904910E+03 0.  0.
         23    2    1    2    0    0  0.80596170162E+02 -0.11409974353E+03 -0.34360503974E+03  0.38151316002E+03  0.89293750147E+02 0.  0.
          5    1    3    3  502    0  0.18659837659E+02  0.55968596856E+02 -0.14400727473E+03  0.15567993111E+03  0.41800000000E+01 0.  1.
         -5    1    3    3    0  502 -0.99256007821E+02  0.58131146670E+02 -0.65494843287E+03  0.66498564452E+03  0.41800000000E+01 0.  1.
        -11    1    4    4    0    0 -0.12727811842E+02 -0.51809274454E+02 -0.10127229496E+03  0.11446517305E+03  0.00000000000E+00 0.  1.
         11    1    4    4    0    0  0.93323982004E+02 -0.62290469073E+02 -0.24233274478E+03  0.26704798697E+03  0.00000000000E+00 0. -1.
</event>
<event>
 8    1  0.4798744E-006  0.1413190E+03  0.7561462E-02  0.1211565E+00
         -2   -1    0    0    0  501 -0.00000000000E+00  0.00000000000E+00  0.36551447869E+03  0.36551447869E+03  0.00000000000E+00 0.  1.
          2   -1    0    0  501    0  0.00000000000E+00 -0.00000000000E+00 -0.79740127306E+02  0.79740127306E+02  0.00000000000E+00 0. -1.
         23    2    1    2    0    0  0.12177065608E+03 -0.43564761656E+02  0.19468020358E+03  0.26509255078E+03  0.12509075773E+03 0.  0.
         23    2    1    2    0    0 -0.12177065608E+03  0.43564761656E+02  0.91094147801E+02  0.18016205522E+03  0.86222046106E+02 0.  0.
          5    1    3    3  502    0 -0.52412923702E+01 -0.21844479614E+02 -0.85681094161E+01  0.24403633629E+02  0.41800000000E+01 0. -1.
         -5    1    3    3    0  502  0.12701194845E+03 -0.21720282042E+02  0.20324831300E+03  0.24068891715E+03  0.41800000000E+01 0. -1.
        -11    1    4    4    0    0 -0.79549148566E+02  0.18182159765E+02  0.10106902754E+03  0.12989844610E+03  0.00000000000E+00 0.  1.
         11    1    4    4    0    0 -0.42221507518E+02  0.25382601892E+02 -0.99748797356E+01  0.50263609119E+02  0.00000000000E+00 0. -1.
</event>
<event>
 8    1  0.4798744E-006  0.9842120E+02  0.7561462E-02  0.1283651E+00
         -2   -1    0    0    0  501 -0.00000000000E+00  0.00000000000E+00  0.10268336809E+03  0.10268336809E+03  0.00000000000E+00 0.  1.
          2   -1    0    0  501    0  0.00000000000E+00 -0.00000000000E+00 -0.12240898648E+03  0.12240898648E+03  0.00000000000E+00 0. -1.
         23    2    1    2    0    0 -0.30715096262E+02 -0.29018603712E+02  0.13198844460E+00  0.13203512196E+03  0.12509100491E+03 0.  0.
         23    2    1    2    0    0  0.30715096262E+02  0.29018603712E+02 -0.19857606834E+02  0.93057232611E+02  0.80497375685E+02 0.  0.
          5    1    3    3  502    0 -0.64794238488E+02  0.20027480410E+02 -0.16452184426E+02  0.69910943959E+02  0.41800000000E+01 0. -1.
         -5    1    3    3    0  502  0.34079142226E+02 -0.49046084122E+02  0.16584172870E+02  0.62124178002E+02  0.41800000000E+01 0. -1.
        -11    1    4    4    0    0  0.29792991123E+02 -0.89011252277E+01  0.20833791876E+02  0.37428588463E+02  0.00000000000E+00 0.  1.
         11    1    4    4    0    0  0.92210513859E+00  0.37919728940E+02 -0.40691398710E+02  0.55628644148E+02  0.00000000000E+00 0. -1.
</event>
<event>
 8    1  0.4798744E-006  0.1569496E+03  0.7561462E-02  0.1192184E+00
         -2   -1    0    0    0  501 -0.00000000000E+00  0.00000000000E+00  0.15405411412E+03  0.15405411412E+03  0.00000000000E+00 0.  1.
          2   -1    0    0  501    0  0.00000000000E+00 -0.00000000000E+00 -0.22138048301E+03  0.22138048301E+03  0.00000000000E+00 0. -1.
         23    2    1    2    0    0  0.44143343487E+02  0.14175235682E+03 -0.39774767079E+02  0.19817207805E+03  0.12509106677E+03 0.  0.
         23    2    1    2    0    0 -0.44143343487E+02 -0.14175235682E+03 -0.27551601817E+02  0.17726251908E+03  0.92846887243E+02 0.  0.
          5    1    3    3  502    0  0.21630577093E+02  0.39625159733E+02 -0.75086997336E+02  0.87712967788E+02  0.41800000000E+01 0. -1.
         -5    1    3    3    0  502  0.22512766394E+02  0.10212719708E+03  0.35312230257E+02  0.11045911027E+03  0.41800000000E+01 0. -1.
        -11    1    4    4    0    0  0.61189255682E+01 -0.95180883528E+02  0.15079083535E+02  0.96562003912E+02  0.00000000000E+00 0.  1.
         11    1    4    4    0    0 -0.50262269055E+02 -0.46571473289E+02 -0.42630685352E+02  0.80700515168E+02  0.00000000000E+00 0. -1.
</event>
<event>
 8    1  0.4798744E-006  0.9629257E+02  0.7561462E-02  0.1288291E+00
          2   -1    0    0  501    0  0.00000000000E+00  0.00000000000E+00  0.40511084186E+03  0.40511084186E+03  0.00000000000E+00 0. -1.
         -2   -1    0    0    0  501 -0.00000000000E+00 -0.00000000000E+00 -0.35523944411E+02  0.35523944411E+02  0.00000000000E+00 0.  1.
         23    2    1    2    0    0 -0.41086068499E+02  0.17554408319E+02  0.16269459371E+03  0.21002843534E+03  0.12508473349E+03 0.  0.
         23    2    1    2    0    0  0.41086068499E+02 -0.17554408319E+02  0.20689230374E+03  0.23060635093E+03  0.91534919383E+02 0.  0.
          5    1    3    3  502    0 -0.69437345401E+02 -0.64031118699E+00  0.16174358842E+03  0.17606934921E+03  0.41800000000E+01 0.  1.
         -5    1    3    3    0  502  0.28351276901E+02  0.18194719506E+02  0.95100528625E+00  0.33959086132E+02  0.41800000000E+01 0.  1.
        -11    1    4    4    0    0  0.61642622211E+02  0.60358797430E+00  0.18651224648E+03  0.19643572811E+03  0.00000000000E+00 0. -1.
         11    1    4    4    0    0 -0.20556553712E+02 -0.18157996294E+02  0.20380057259E+02  0.34170622819E+02  0.00000000000E+00 0.  1.
</event>
<event>
 8    1  0.4798744E-006  0.6565144E+02  0.7561462E-02  0.1375538E+00
         -1   -1    0    0    0  501 -0.00000000000E+00  0.00000000000E+00  0.23456459640E+02  0.23456459640E+02  0.00000000000E+00 0.  1.
          1   -1    0    0  501    0  0.00000000000E+00 -0.00000000000E+00 -0.50907400249E+03  0.50907400249E+03  0.00000000000E+00 0. -1.
         23    2    1    2    0    0 -0.19679451223E+02 -0.16648581396E+01 -0.30577169930E+03  0.33095910668E+03  0.12509015007E+03 0.  0.
         23    2    1    2    0    0  0.19679451223E+02  0.16648581396E+01 -0.17984584355E+03  0.20157135545E+03  0.88861866656E+02 0.  0.
          5    1    3    3  502    0 -0.24409405662E+02 -0.20474073048E+02 -0.30916548839E+03  0.31083078735E+03  0.41800000000E+01 0. -1.
         -5    1    3    3    0  502  0.47299544382E+01  0.18809214908E+02  0.33937890906E+01  0.20128319325E+02  0.41800000000E+01 0. -1.
        -11    1    4    4    0    0  0.13288330337E+02 -0.37428903196E+02 -0.40584149161E+02  0.56785347412E+02  0.00000000000E+00 0.  1.
         11    1    4    4    0    0  0.63911208865E+01  0.39093761336E+02 -0.13926169439E+03  0.14478600804E+03  0.00000000000E+00 0. -1.
</event>
<event>
 8    1  0.4798744E-006  0.9043519E+02  0.7561462E-02  0.1301801E+00
          2   -1    0    0  501    0  0.00000000000E+00  0.00000000000E+00  0.21765455685E+03  0.21765455685E+03  0.00000000000E+00 0. -1.
         -2   -1    0    0    0  501 -0.00000000000E+00 -0.00000000000E+00 -0.62449214184E+02  0.62449214184E+02  0.00000000000E+00 0.  1.
         23    2    1    2    0    0  0.12293345363E+02 -0.94910810771E+01  0.39718411242E+02  0.13216157605E+03  0.12509165852E+03 0.  0.
         23    2    1    2    0    0 -0.12293345363E+02  0.94910810771E+01  0.11548693142E+03  0.14794219499E+03  0.91150725548E+02 0.  0.
          5    1    3    3  502    0  0.54876002521E+02  0.87290772456E+01  0.59593892392E+02  0.81587234618E+02  0.41800000000E+01 0.  1.
         -5    1    3    3    0  502 -0.42582657158E+02 -0.18220158323E+02 -0.19875481150E+02  0.50574341428E+02  0.41800000000E+01 0.  1.
        -11    1    4    4    0    0 -0.31725261988E+02 -0.24096346841E+02  0.19390525096E+02  0.44307094722E+02  0.00000000000E+00 0.  1.
         11    1    4    4    0    0  0.19431916625E+02  0.33587427918E+02  0.96096406327E+02  0.10363510026E+03  0.00000000000E+00 0. -1.
</event>
<event>
 8    1  0.4798744E-006  0.1183737E+03  0.7561462E-02  0.1245804E+00
         -1   -1    0    0    0  501 -0.00000000000E+00  0.00000000000E+00  0.42990638919E+03  0.42990638919E+03  0.00000000000E+00 0.  1.
          1   -1    0    0  501    0  0.00000000000E+00 -0.00000000000E+00 -0.34297901734E+02  0.34297901734E+02  0.00000000000E+00 0. -1.
         23    2    1    2    0    0  0.35124101580E+02 -0.40207057153E+02  0.24389719074E+03  0.27925262696E+03  0.12508349233E+03 0.  0.
         23    2    1    2    0    0 -0.35124101580E+02  0.40207057153E+02  0.15171129672E+03  0.18495166397E+03  0.91326285903E+02 0.  0.
          5    1    3    3  502    0  0.19913995378E+02  0.42333354171E+02  0.53854178884E+02  0.71459254618E+02  0.41800000000E+01 0. -1.
         -5    1    3    3    0  502  0.15210106202E+02 -0.82540411324E+02  0.19004301186E+03  0.20779337234E+03  0.41800000000E+01 0. -1.
        -11    1    4    4    0    0 -0.66158107762E+02  0.21779191201E+02  0.10240759527E+03  0.12384887549E+03  0.00000000000E+00 0.  1.
         11    1    4    4    0    0  0.31034006182E+02  0.18427865951E+02  0.49303701449E+02  0.61102788478E+02  0.00000000000E+00 0. -1.
</event>
<event>
 8    1  0.4798744E-006  0.1117138E+03  0.7561462E-02  0.1257429E+00
         -2   -1    0    0    0  501 -0.00000000000E+00  0.00000000000E+00  0.20273190833E+03  0.20273190833E+03  0.00000000000E+00 0. -1.
          2   -1    0    0  501    0  0.00000000000E+00 -0.00000000000E+00 -0.87199093511E+02  0.87199093511E+02  0.00000000000E+00 0.  1.
         23    2    1    2    0    0  0.21138991579E+02  0.37860521476E+02  0.13146754934E+03  0.18657929793E+03  0.12509133398E+03 0.  0.
         23    2    1    2    0    0 -0.21138991579E+02 -0.37860521476E+02 -0.15934734516E+02  0.10335170391E+03  0.92452057231E+02 0.  0.
          5    1    3    3  502    0 -0.31866028588E+02  0.62594600143E+02  0.50513549864E+02  0.86617659082E+02  0.41800000000E+01 0.  1.
         -5    1    3    3    0  502  0.53005020167E+02 -0.24734078667E+02  0.80953999472E+02  0.99961638846E+02  0.41800000000E+01 0.  1.
        -11    1    4    4    0    0 -0.34980940131E+02  0.16249456969E+02 -0.26113686995E+02  0.46579348135E+02  0.00000000000E+00 0.  1.
         11    1    4    4    0    0  0.13841948552E+02 -0.54109978445E+02  0.10178952478E+02  0.56772355778E+02  0.00000000000E+00 0. -1.
</event>
<event>
 7    1  0.4798744E-006  0.1201156E+03  0.7561462E-02  0.1242907E+00
          2   -1    0    0  501    0  0.00000000000E+00  0.00000000000E+00  0.57354289949E+03  0.57354289949E+03  0.00000000000E+00 0. -1.
         -2   -1    0    0    0  501 -0.00000000000E+00 -0.00000000000E+00 -0.37116744850E+02  0.37116744850E+02  0.00000000000E+00 0.  1.
         23    2    1    2    0    0 -0.30168007399E+02 -0.20498760216E+02  0.27493650208E+03  0.29202373085E+03  0.91419206727E+02 0.  0.
          5    1    1    2  502    0  0.60103451977E+02 -0.47330515008E+02  0.22132423201E+03  0.23421035559E+03  0.41800000000E+01 0. -1.
         -5    1    1    2    0  502 -0.29935444578E+02  0.67829275225E+02  0.40165420544E+02  0.84425557902E+02  0.41800000000E+01 0.  1.
        -11    1    3    3    0    0 -0.48651638174E+02  0.13645857213E+02  0.21309703286E+03  0.21900579155E+03  0.00000000000E+00 0.  1.
         11    1    3    3    0    0  0.18483630775E+02 -0.34144617430E+02  0.61839469222E+02  0.73017939301E+02  0.00000000000E+00 0. -1.
</event>
<event>
 8    1  0.4798744E-006  0.1166397E+03  0.7561462E-02  0.1248746E+00
         -4   -1    0    0    0  501 -0.00000000000E+00  0.00000000000E+00  0.56767435175E+02  0.56767435175E+02  0.00000000000E+00 0.  1.
          4   -1    0    0  501    0  0.00000000000E+00 -0.00000000000E+00 -0.41926358041E+03  0.41926358041E+03  0.00000000000E+00 0. -1.
         23    2    1    2    0    0  0.19766357727E+02  0.43031331881E+02 -0.43201832673E+02  0.14056701890E+03  0.12510109526E+03 0.  0.
         23    2    1    2    0    0 -0.19766357727E+02 -0.43031331881E+02 -0.31929431256E+03  0.33546399668E+03  0.91350044422E+02 0.  0.
          5    1    3    3  502    0 -0.41315144510E+02  0.55339713748E+02 -0.10204208556E+02  0.69935851720E+02  0.41800000000E+01 0.  1.
         -5    1    3    3    0  502  0.61081502237E+02 -0.12308381867E+02 -0.32997624117E+02  0.70631167179E+02  0.41800000000E+01 0.  1.
        -11    1    4    4    0    0  0.26647923721E+01  0.27500747340E+02 -0.11183823098E+03  0.11520061689E+03  0.00000000000E+00 0.  1.
         11    1    4    4    0    0 -0.22431150099E+02 -0.70532079221E+02 -0.20745608158E+03  0.22026337979E+03  0.00000000000E+00 0. -1.
</event>
<event>
 8    1  0.4798744E-006  0.8201999E+02  0.7561462E-02  0.1323415E+00
         -1   -1    0    0    0  501 -0.00000000000E+00  0.00000000000E+00  0.32131049430E+03  0.32131049430E+03  0.00000000000E+00 0.  1.
          1   -1    0    0  501    0  0.00000000000E+00 -0.00000000000E+00 -0.45350309820E+02  0.45350309820E+02  0.00000000000E+00 0. -1.
         23    2    1    2    0    0  0.47758519557E+02 -0.22298960223E+01  0.19384252664E+03  0.23560282941E+03  0.12509164427E+03 0.  0.
         23    2    1    2    0    0 -0.47758519557E+02  0.22298960223E+01  0.82117657844E+02  0.13105797471E+03  0.90260923879E+02 0.  0.
          5    1    3    3  502    0  0.23962411349E+02  0.18175555083E+02 -0.79169632499E+01  0.31379908657E+02  0.41800000000E+01 0.  1.
         -5    1    3    3    0  502  0.23796108208E+02 -0.20405451105E+02  0.20175948989E+03  0.20422292075E+03  0.41800000000E+01 0.  1.
        -11    1    4    4    0    0 -0.85451238334E+01  0.43962632696E+02  0.38788506870E+02  0.59247620038E+02  0.00000000000E+00 0.  1.
         11    1    4    4    0    0 -0.39213395723E+02 -0.41732736674E+02  0.43329150974E+02  0.71810354675E+02  0.00000000000E+00 0. -1.
</event>
<event>
 8    1  0.4798744E-006  0.1511190E+03  0.7561462E-02  0.1199105E+00
         -1   -1    0    0    0  501 -0.00000000000E+00  0.00000000000E+00  0.14896629679E+03  0.14896629679E+03  0.00000000000E+00 0.  1.
          1   -1    0    0  501    0  0.00000000000E+00 -0.00000000000E+00 -0.16824434827E+03  0.16824434827E+03  0.00000000000E+00 0. -1.
         23    2    1    2    0    0 -0.11374323812E+03  0.19847485997E+02 -0.74531008852E+01  0.17039499339E+03  0.12508980030E+03 0.  0.
         23    2    1    2    0    0  0.11374323812E+03 -0.19847485997E+02 -0.11824950601E+02  0.14681565167E+03  0.89908615827E+02 0.  0.
          5    1    3    3  502    0 -0.10157411456E+03  0.65352861211E+02 -0.17314108552E+02  0.12208827942E+03  0.41800000000E+01 0. -1.
         -5    1    3    3    0  502 -0.12169123559E+02 -0.45505375215E+02  0.98610076665E+01  0.48306713962E+02  0.41800000000E+01 0. -1.
        -11    1    4    4    0    0  0.32081525595E+02  0.25232812827E+02  0.23470606607E+02  0.47082783501E+02  0.00000000000E+00 0.  1.
         11    1    4    4    0    0  0.81661712527E+02 -0.45080298824E+02 -0.35295557208E+02  0.99732868171E+02  0.00000000000E+00 0. -1.
</event>
<event>
 8    1  0.5370617E-006  0.1684555E+03  0.7561462E-02  0.1179468E+00
          1   -1    0    0  501    0  0.00000000000E+00  0.00000000000E+00  0.60280687326E+03  0.60280687326E+03  0.00000000000E+00 0. -1.
         -1   -1    0    0    0  501 -0.00000000000E+00 -0.00000000000E+00 -0.54852610692E+02  0.54852610692E+02  0.00000000000E+00 0.  1.
         23    2    1    2    0    0 -0.48420649251E+00  0.14518789271E+03  0.29036324950E+03  0.34790528093E+03  0.12509000438E+03 0.  0.
         23    2    1    2    0    0  0.48420649251E+00 -0.14518789271E+03  0.25759101307E+03  0.30975420303E+03  0.92275552723E+02 0.  0.
          5    1    3    3  502    0 -0.58000628626E+02  0.86755834466E+02  0.20126779396E+03  0.22675282803E+03  0.41800000000E+01 0.  1.
         -5    1    3    3    0  502  0.57516422134E+02  0.58432058244E+02  0.89095455535E+02  0.12115245290E+03  0.41800000000E+01 0.  1.
        -11    1    4    4    0    0 -0.13477648990E+02 -0.12558100433E+03  0.13519270053E+03  0.18501162652E+03  0.00000000000E+00 0.  1.
         11    1    4    4    0    0  0.13961855483E+02 -0.19606888383E+02  0.12239831254E+03  0.12474257650E+03  0.00000000000E+00 0. -1.
</event>
<event>
 8    1  0.4798744E-006  0.1626748E+03  0.7561462E-02  0.1185710E+00
          2   -1    0    0  501    0  0.00000000000E+00  0.00000000000E+00  0.27199362432E+03  0.27199362432E+03  0.00000000000E+00 0. -1.
         -2   -1    0    0    0  501 -0.00000000000E+00 -0.00000000000E+00 -0.10916607053E+03  0.10916607053E+03  0.00000000000E+00 0.  1.
         23    2    1    2    0    0  0.10121070444E+03  0.84162109061E+02  0.63878543515E+02  0.19249541509E+03  0.12508856549E+03 0.  0.
         23    2    1    2    0    0 -0.10121070444E+03 -0.84162109061E+02  0.98949010271E+02  0.18866427975E+03  0.92067565003E+02 0.  0.
          5    1    3    3  502    0 -0.18956197064E+02 -0.14989333792E+02  0.13209136552E+01  0.24560837680E+02  0.41800000000E+01 0. -1.
         -5    1    3    3    0  502  0.12016690151E+03  0.99151442854E+02  0.62557629860E+02  0.16793457741E+03  0.41800000000E+01 0. -1.
        -11    1    4    4    0    0 -0.41375423897E+02 -0.73288236922E+02  0.15772564927E+02  0.85626311250E+02  0.00000000000E+00 0.  1.
         11    1    4    4    0    0 -0.59835280546E+02 -0.10873872139E+02  0.83176445343E+02  0.10303796850E+03  0.00000000000E+00 0. -1.
</event>
<event>
 8    1  0.4798744E-006  0.1038037E+03  0.7561462E-02  0.1272495E+00
          2   -1    0    0  501    0  0.00000000000E+00  0.00000000000E+00  0.11984020369E+03  0.11984020369E+03  0.00000000000E+00 0. -1.
         -2   -1    0    0    0  501 -0.00000000000E+00 -0.00000000000E+00 -0.20039253181E+03  0.20039253181E+03  0.00000000000E+00 0.  1.
         23    2    1    2    0    0  0.21002556179E+02  0.81856392832E+02 -0.11646195765E+03  0.19066742058E+03  0.12509636797E+03 0.  0.
         23    2    1    2    0    0 -0.21002556179E+02 -0.81856392832E+02  0.35909629528E+02  0.12956531491E+03  0.91411667319E+02 0.  0.
          5    1    3    3  502    0  0.27704470385E+01 -0.17704582975E+02  0.15671128836E+02  0.24169905133E+02  0.41800000000E+01 0. -1.
         -5    1    3    3    0  502  0.18232109140E+02  0.99560975808E+02 -0.13213308649E+03  0.16649751545E+03  0.41800000000E+01 0. -1.
        -11    1    4    4    0    0 -0.25463335130E+02 -0.54125338517E+02  0.65543883282E+02  0.88735192236E+02  0.00000000000E+00 0. -1.
         11    1    4    4    0    0  0.44607789515E+01 -0.27731054316E+02 -0.29634253753E+02  0.40830122677E+02  0.00000000000E+00 0.  1.
</event>
<event>
 7    1  0.4798744E-006  0.2660177E+03  0.7561462E-02  0.1103581E+00
         -1   -1    0    0    0  501 -0.00000000000E+00  0.00000000000E+00  0.21313550216E+03  0.21313550216E+03  0.00000000000E+00 0.  1.
          1   -1    0    0  501    0  0.00000000000E+00 -0.00000000000E+00 -0.42276369414E+03  0.42276369414E+03  0.00000000000E+00 0. -1.
         23    2    1    2    0    0 -0.13227398860E+03 -0.12641524650E+03 -0.22681021023E+03  0.30425481151E+03  0.87469401825E+02 0.  0.
          5    1    1    2  502    0 -0.85698252899E+02  0.30196713517E+02 -0.11255583177E+02  0.91652564666E+02  0.41800000000E+01 0. -1.
         -5    1    1    2    0  502  0.21797224150E+03  0.96218532979E+02  0.28437601428E+02  0.23999182012E+03  0.41800000000E+01 0.  1.
        -11    1    3    3    0    0 -0.68236918685E+02 -0.12048258877E+03 -0.15709813427E+03  0.20940906155E+03  0.00000000000E+00 0. -1.
         11    1    3    3    0    0 -0.64037069913E+02 -0.59326577275E+01 -0.69712075959E+02  0.94845749959E+02  0.00000000000E+00 0.  1.
</event>
<event>
 8    1  0.4798744E-006  0.8964346E+02  0.7561462E-02  0.1303717E+00
          2   -1    0    0  501    0  0.00000000000E+00  0.00000000000E+00  0.60913415779E+02  0.60913415779E+02  0.00000000000E+00 0. -1.
         -2   -1    0    0    0  501 -0.00000000000E+00 -0.00000000000E+00 -0.27764422383E+03  0.27764422383E+03  0.00000000000E+00 0.  1.
         23    2    1    2    0    0  0.14296125115E+02  0.66485501381E+02 -0.14239889282E+03  0.20136965209E+03  0.12509033144E+03 0.  0.
         23    2    1    2    0    0 -0.14296125115E+02 -0.66485501381E+02 -0.74331915236E+02  0.13718798752E+03  0.93116106078E+02 0.  0.
          5    1    3    3  502    0 -0.98751610953E+01 -0.10696897930E+02 -0.11482180301E+03  0.11581649830E+03  0.41800000000E+01 0.  1.
         -5    1    3    3    0  502  0.24171286211E+02  0.77182399311E+02 -0.27577089805E+02  0.85553153785E+02  0.41800000000E+01 0.  1.
        -11    1    4    4    0    0 -0.24387498551E+02 -0.10992056585E+02  0.15648278636E+02  0.30991031248E+02  0.00000000000E+00 0. -1.
         11    1    4    4    0    0  0.10091373436E+02 -0.55493444796E+02 -0.89980193872E+02  0.10619695628E+03  0.00000000000E+00 0.  1.
</event>
<event>
 8    1  0.4798744E-006  0.1070454E+03  0.7561462E-02  0.1266141E+00
          1   -1    0    0  501    0  0.00000000000E+00  0.00000000000E+00  0.11716590269E+03  0.11716590269E+03  0.00000000000E+00 0. -1.
         -1   -1    0    0    0  501 -0.00000000000E+00 -0.00000000000E+00 -0.12334801830E+03  0.12334801830E+03  0.00000000000E+00 0.  1.
         23    2    1    2    0    0 -0.25409281794E+02 -0.39430157262E+02 -0.22987018973E+02  0.13556098749E+03  0.12509200368E+03 0.  0.
         23    2    1    2    0    0  0.25409281794E+02  0.39430157262E+02  0.16804903365E+02  0.10495293350E+03  0.92370691074E+02 0.  0.
          5    1    3    3  502    0 -0.67830631696E+02 -0.51189593172E+02  0.13398797431E+01  0.85091931011E+02  0.41800000000E+01 0.  1.
         -5    1    3    3    0  502  0.42421349901E+02  0.11759435910E+02 -0.24326898716E+02  0.50469056475E+02  0.41800000000E+01 0.  1.
        -11    1    4    4    0    0 -0.23891707239E+02  0.43551903151E+01  0.34247333221E+02  0.41984058763E+02  0.00000000000E+00 0. -1.
         11    1    4    4    0    0  0.49300989033E+02  0.35074966947E+02 -0.17442429856E+02  0.62968874734E+02  0.00000000000E+00 0.  1.
</event>
<event>
 8    1  0.4798744E-006  0.6161925E+02  0.7561462E-02  0.1391159E+00
          1   -1    0    0  501    0  0.00000000000E+00  0.00000000000E+00  0.12102577241E+03  0.12102577241E+03  0.00000000000E+00 0. -1.
         -1   -1    0    0    0  501 -0.00000000000E+00 -0.00000000000E+00 -0.11112271778E+03  0.11112271778E+03  0.00000000000E+00 0.  1.
         23    2    1    2    0    0 -0.29228277032E+02 -0.88528759642E+01 -0.85161076026E+01  0.12904285217E+03  0.12508744149E+03 0.  0.
         23    2    1    2    0    0  0.29228277032E+02  0.88528759642E+01  0.18419162226E+02  0.10310563802E+03  0.96741105341E+02 0.  0.
          5    1    3    3  502    0  0.13995415054E+02 -0.16252298890E+02 -0.58482184599E+02  0.62431139483E+02  0.41800000000E+01 0.  1.
         -5    1    3    3    0  502 -0.43223692085E+02  0.73994229258E+01  0.49966076996E+02  0.66611712690E+02  0.41800000000E+01 0.  1.
        -11    1    4    4    0    0  0.30749942158E+02  0.25910315839E+02 -0.31019497905E+02  0.50784964900E+02  0.00000000000E+00 0.  1.
         11    1    4    4    0    0 -0.15216651259E+01 -0.17057439874E+02  0.49438660131E+02  0.52320673117E+02  0.00000000000E+00 0. -1.
</event>
<event>
 8    1  0.4798744E-006  0.1803959E+03  0.7561462E-02  0.1167420E+00
          1   -1    0    0  501    0  0.00000000000E+00  0.00000000000E+00  0.95403268153E+03  0.95403268153E+03  0.00000000000E+00 0. -1.
         -1   -1    0    0    0  501 -0.00000000000E+00 -0.00000000000E+00 -0.40863863610E+02  0.40863863610E+02  0.00000000000E+00 0.  1.
         23    2    1    2    0    0  0.16200534338E+03  0.20071494017E+02  0.48228125210E+03  0.52430059673E+03  0.12508922195E+03 0.  0.
         23    2    1    2    0    0 -0.16200534338E+03 -0.20071494017E+02  0.43088756582E+03  0.47059594841E+03  0.95644425477E+02 0.  0.
          5    1    3    3  502    0  0.14318080849E+03  0.50644449728E+02  0.27764175656E+03  0.31649331998E+03  0.41800000000E+01 0. -1.
         -5    1    3    3    0  502  0.18824534896E+02 -0.30572955712E+02  0.20463949554E+03  0.20780727675E+03  0.41800000000E+01 0. -1.
        -11    1    4    4    0    0 -0.10221743389E+03 -0.39893423290E+02  0.17094474774E+03  0.20313048957E+03  0.00000000000E+00 0.  1.
         11    1    4    4    0    0 -0.59787909494E+02  0.19821929273E+02  0.25994281808E+03  0.26746545884E+03  0.00000000000E+00 0. -1.
</event>
<event>
 8    1  0.4798744E-006  0.1933994E+03  0.7561462E-02  0.1155431E+00
          2   -1    0    0  501    0  0.00000000000E+00  0.00000000000E+00  0.44700113280E+03  0.44700113280E+03  0.00000000000E+00 0. -1.
         -2   -1    0    0    0  501 -0.00000000000E+00 -0.00000000000E+00 -0.16466100844E+03  0.16466100844E+03  0.00000000000E+00 0.  1.
         23    2    1    2    0    0  0.14784471068E+03 -0.11521818852E+03 -0.39092037116E+02  0.22871235999E+03  0.12509143378E+03 0.  0.
         23    2    1    2    0    0 -0.14784471068E+03  0.11521818852E+03  0.32143216148E+03  0.38294978125E+03  0.90546182048E+02 0.  0.
          5    1    3    3  502    0  0.10106552271E+03 -0.10106850950E+03 -0.80874788386E+02  0.16427807915E+03  0.41800000000E+01 0.  1.
         -5    1    3    3    0  502  0.46779187977E+02 -0.14149679019E+02  0.41782751270E+02  0.64434280843E+02  0.41800000000E+01 0.  1.
        -11    1    4    4    0    0 -0.62555868209E+02  0.17303508447E+02  0.49572383247E+02  0.81670491812E+02  0.00000000000E+00 0.  1.
         11    1    4    4    0    0 -0.85288842476E+02  0.97914680072E+02  0.27185977823E+03  0.30127928944E+03  0.00000000000E+00 0. -1.
</event>
<event>
 8    1  0.4798744E-006  0.6639284E+02  0.7561462E-02  0.1372807E+00
         -1   -1    0    0    0  501 -0.00000000000E+00  0.00000000000E+00  0.15859296200E+02  0.15859296200E+02  0.00000000000E+00 0.  1.
          1   -1    0    0  501    0  0.00000000000E+00 -0.00000000000E+00 -0.84889971655E+03  0.84889971655E+03  0.00000000000E+00 0. -1.
         23    2    1    2    0    0 -0.32708480971E+01  0.44046225913E+02 -0.47270591361E+03  0.49096814635E+03  0.12509225198E+03 0.  0.
         23    2    1    2    0    0  0.32708480971E+01 -0.44046225913E+02 -0.36033450674E+03  0.37379086640E+03  0.89038680309E+02 0.  0.
          5    1    3    3  502    0 -0.11162233930E+02  0.33439209607E+02 -0.47550039740E+03  0.47682373738E+03  0.41800000000E+01 0.  1.
         -5    1    3    3    0  502  0.78913858330E+01  0.10607016307E+02  0.27944837924E+01  0.14144408965E+02  0.41800000000E+01 0.  1.
        -11    1    4    4    0    0 -0.17591195610E+02  0.13522417339E+02 -0.27326252755E+02  0.35199858285E+02  0.00000000000E+00 0.  1.
         11    1    4    4    0    0  0.20862043707E+02 -0.57568643252E+02 -0.33300825398E+03  0.33859100811E+03  0.00000000000E+00 0. -1.
</event>
<event>
 8    1  0.4798744E-006  0.2118849E+03  0.7561462E-02  0.1140082E+00
          1   -1    0    0  501    0  0.00000000000E+00  0.00000000000E+00  0.70705828672E+03  0.70705828672E+03  0.00000000000E+00 0. -1.
         -1   -1    0    0    0  501 -0.00000000000E+00 -0.00000000000E+00 -0.11217389833E+03  0.11217389833E+03  0.00000000000E+00 0.  1.
         23    2    1    2    0    0 -0.16304667732E+03 -0.10408676093E+03  0.52063494942E+02  0.23616813152E+03  0.12508599464E+03 0.  0.
         23    2    1    2    0    0  0.16304667732E+03  0.10408676093E+03  0.54282089345E+03  0.58306405353E+03  0.88830711838E+02 0.  0.
          5    1    3    3  502    0 -0.96079670422E+02  0.11292752126E+02  0.19328289851E+02  0.98741503471E+02  0.41800000000E+01 0.  1.
         -5    1    3    3    0  502 -0.66967006902E+02 -0.11537951305E+03  0.32735205091E+02  0.13742662805E+03  0.41800000000E+01 0.  1.
        -11    1    4    4    0    0  0.10574162698E+03  0.65583230848E+02  0.21821553368E+03  0.25119807122E+03  0.00000000000E+00 0.  1.
         11    1    4    4    0    0  0.57305050343E+02  0.38503530077E+02  0.32460535977E+03  0.33186598231E+03  0.00000000000E+00 0. -1.
</event>
<event>
 8    1  0.4798744E-006  0.1116541E+03  0.7561462E-02  0.1257537E+00
          3   -1    0    0  501    0  0.00000000000E+00  0.00000000000E+00  0.83614504175E+02  0.83614504175E+02  0.00000000000E+00 0. -1.
         -3   -1    0    0    0  501 -0.00000000000E+00 -0.00000000000E+00 -0.17278256729E+03  0.17278256729E+03  0.00000000000E+00 0.  1.
         23    2    1    2    0    0  0.26531524292E+02  0.22313820283E+02 -0.70217873167E+02  0.14758297963E+03  0.12509339633E+03 0.  0.
         23    2    1    2    0    0 -0.26531524292E+02 -0.22313820283E+02 -0.18950189948E+02  0.10881409184E+03  0.10138820704E+03 0.  0.
          5    1    3    3  502    0 -0.46742404178E+02  0.22689464943E+02 -0.10991019586E+02  0.53272310625E+02  0.41800000000E+01 0.  1.
         -5    1    3    3    0  502  0.73273928470E+02 -0.37564466025E+00 -0.59226853581E+02  0.94310669001E+02  0.41800000000E+01 0.  1.
        -11    1    4    4    0    0 -0.31780324612E+02 -0.55626285107E+02  0.94085310843E+01  0.64751780551E+02  0.00000000000E+00 0. -1.
         11    1    4    4    0    0  0.52488003204E+01  0.33312464824E+02 -0.28358721032E+02  0.44062311288E+02  0.00000000000E+00 0.  1.
</event>
<event>
 8    1  0.4798744E-006  0.1062650E+03  0.7561462E-02  0.1267647E+00
         -2   -1    0    0    0  501 -0.00000000000E+00  0.00000000000E+00  0.25035002454E+03  0.25035002454E+03  0.00000000000E+00 0.  1.
          2   -1    0    0  501    0  0.00000000000E+00 -0.00000000000E+00 -0.82480421066E+02  0.82480421066E+02  0.00000000000E+00 0. -1.
         23    2    1    2    0    0 -0.67609561054E+02  0.31257043584E+02  0.14828997032E+03  0.20781031829E+03  0.12508859889E+03 0.  0.
         23    2    1    2    0    0  0.67609561054E+02 -0.31257043584E+02  0.19579633154E+02  0.12502012731E+03  0.98481544862E+02 0.  0.
          5    1    3    3  502    0 -0.45568296631E+02  0.71446526543E+02  0.48043624352E+02  0.97502502808E+02  0.41800000000E+01 0. -1.
         -5    1    3    3    0  502 -0.22041264422E+02 -0.40189482960E+02  0.10024634596E+03  0.11030781548E+03  0.41800000000E+01 0. -1.
        -11    1    4    4    0    0  0.53839117010E+02 -0.77204384619E+01 -0.34531870568E+02  0.64425971280E+02  0.00000000000E+00 0. -1.
         11    1    4    4    0    0  0.13770444043E+02 -0.23536605122E+02  0.54111503722E+02  0.60594156029E+02  0.00000000000E+00 0.  1.
</event>
<event>
 8    1  0.4798744E-006  0.1101646E+03  0.7561462E-02  0.1260265E+00
          2   -1    0    0  501    0  0.00000000000E+00  0.00000000000E+00  0.68727402055E+03  0.68727402055E+03  0.00000000000E+00 0. -1.
         -2   -1    0    0    0  501 -0.00000000000E+00 -0.00000000000E+00 -0.32298623338E+02  0.32298623338E+02  0.00000000000E+00 0.  1.
         23    2    1    2    0    0 -0.83930858708E+02 -0.57493225595E+02  0.37765987517E+03  0.41063910435E+03  0.12509049796E+03 0.  0.
         23    2    1    2    0    0  0.83930858708E+02  0.57493225595E+02  0.27731552205E+03  0.30893353954E+03  0.90477472612E+02 0.  0.
          5    1    3    3  502    0 -0.83090671874E+01 -0.34815540628E+02  0.14287377289E+02  0.38765500339E+02  0.41800000000E+01 0.  1.
         -5    1    3    3    0  502 -0.75621791520E+02 -0.22677684967E+02  0.36337249788E+03  0.37187360401E+03  0.41800000000E+01 0.  1.
        -11    1    4    4    0    0  0.43036017814E+02  0.45471321954E+02  0.25133300350E+03  0.25901354907E+03  0.00000000000E+00 0. -1.
         11    1    4    4    0    0  0.40894840894E+02  0.12021903641E+02  0.25982518544E+02  0.49919990472E+02  0.00000000000E+00 0.  1.
</event>
<event>
 8    1  0.4798744E-006  0.1992662E+03  0.7561462E-02  0.1150360E+00
          2   -1    0    0  501    0  0.00000000000E+00  0.00000000000E+00  0.13570682046E+04  0.13570682046E+04  0.00000000000E+00 0.  1.
         -2   -1    0    0    0  501 -0.00000000000E+00 -0.00000000000E+00 -0.45089861998E+02  0.45089861998E+02  0.00000000000E+00 0. -1.
         23    2    1    2    0    0 -0.14260477756E+03 -0.12372562948E+03  0.34465057252E+03  0.41240020589E+03  0.12508300727E+03 0.  0.
         23    2    1    2    0    0  0.14260477756E+03  0.12372562948E+03  0.96732777008E+03  0.98975786070E+03  0.90848522722E+02 0.  0.
          5    1    3    3  502    0 -0.35448538845E+02 -0.31256669502E+02  0.21578900234E+03  0.22094330546E+03  0.41800000000E+01 0.  1.
         -5    1    3    3    0  502 -0.10715623872E+03 -0.92468959976E+02  0.12886157017E+03  0.19145690043E+03  0.41800000000E+01 0.  1.
        -11    1    4    4    0    0  0.15164081485E+03  0.93984733752E+02  0.82965957862E+03  0.84862422974E+03  0.00000000000E+00 0. -1.
         11    1    4    4    0    0 -0.90360372895E+01  0.29740895725E+02  0.13766819146E+03  0.14113363096E+03  0.00000000000E+00 0.  1.
</event>
<event>
 8    1  0.4798744E-006  0.1323624E+03  0.7561462E-02  0.1223992E+00
          2   -1    0    0  501    0  0.00000000000E+00  0.00000000000E+00  0.38973459823E+03  0.38973459823E+03  0.00000000000E+00 0.  1.
         -2   -1    0    0    0  501 -0.00000000000E+00 -0.00000000000E+00 -0.65529503576E+02  0.65529503576E+02  0.00000000000E+00 0. -1.
         23    2    1    2    0    0 -0.56074072281E+02 -0.78618125865E+02  0.78445020703E+02  0.17644989832E+03  0.12512327541E+03 0.  0.
         23    2    1    2    0    0  0.56074072281E+02  0.78618125865E+02  0.24576007395E+03  0.27881420348E+03  0.89522258790E+02 0.  0.
          5    1    3    3  502    0 -0.81582414367E+02 -0.56323757796E+02  0.97012624045E+01  0.99697757840E+02  0.41800000000E+01 0.  1.
         -5    1    3    3    0  502  0.25508342086E+02 -0.22294368069E+02  0.68743758298E+02  0.76752140482E+02  0.41800000000E+01 0.  1.
        -11    1    4    4    0    0  0.71062870784E+02  0.24433949217E+02  0.15001665658E+03  0.16778541871E+03  0.00000000000E+00 0. -1.
         11    1    4    4    0    0 -0.14988798503E+02  0.54184176647E+02  0.95743417370E+02  0.11102878478E+03  0.00000000000E+00 0.  1.
</event>
<event>
 8    1  0.4798744E-006  0.1039356E+03  0.7561462E-02  0.1272231E+00
          1   -1    0    0  501    0  0.00000000000E+00  0.00000000000E+00  0.32101898343E+03  0.32101898343E+03  0.00000000000E+00 0. -1.
         -1   -1    0    0    0  501 -0.00000000000E+00 -0.00000000000E+00 -0.60299942439E+02  0.60299942439E+02  0.00000000000E+00 0.  1.
         23    2    1    2    0    0 -0.83747599193E+02 -0.10930474169E+02  0.88289626949E+02  0.16930031459E+03  0.11719386783E+03 0.  0.
         23    2    1    2    0    0  0.83747599193E+02  0.10930474169E+02  0.17242941404E+03  0.21201861128E+03  0.89926931815E+02 0.  0.
          5    1    3    3  502    0 -0.19264989592E+02  0.39082718396E+01  0.99978160129E+02  0.10197803349E+03  0.41800000000E+01 0. -1.
         -5    1    3    3    0  502 -0.64482609600E+02 -0.14838746009E+02 -0.11688533179E+02  0.67322281095E+02  0.41800000000E+01 0.  1.
        -11    1    4    4    0    0  0.27979607236E+02  0.47256710332E+02  0.96633677707E+02  0.11114910148E+03  0.00000000000E+00 0.  1.
         11    1    4    4    0    0  0.55767991956E+02 -0.36326236163E+02  0.75795736337E+02  0.10086950980E+03  0.00000000000E+00 0. -1.
</event>
<event>
 8    1  0.4798744E-006  0.1190539E+03  0.7561462E-02  0.1244666E+00
         -2   -1    0    0    0  501 -0.00000000000E+00  0.00000000000E+00  0.51417045897E+03  0.51417045897E+03  0.00000000000E+00 0.  1.
          2   -1    0    0  501    0  0.00000000000E+00 -0.00000000000E+00 -0.31036033867E+02  0.31036033867E+02  0.00000000000E+00 0. -1.
         23    2    1    2    0    0  0.61883583948E+02 -0.12287346884E+02  0.28956633233E+03  0.32167573238E+03  0.12508420815E+03 0.  0.
         23    2    1    2    0    0 -0.61883583948E+02  0.12287346884E+02  0.19356809277E+03  0.22353076046E+03  0.92286713423E+02 0.  0.
          5    1    3    3  502    0  0.88228857828E+00  0.49931197902E+02  0.76609363146E+02  0.91544360169E+02  0.41800000000E+01 0.  1.
         -5    1    3    3    0  502  0.61001295369E+02 -0.62218544787E+02  0.21295696918E+03  0.23013137221E+03  0.41800000000E+01 0.  1.
        -11    1    4    4    0    0  0.12074455644E+02 -0.17305341870E+02  0.92329291935E+02  0.94709901729E+02  0.00000000000E+00 0.  1.
         11    1    4    4    0    0 -0.73958039591E+02  0.29592688754E+02  0.10123880084E+03  0.12882085873E+03  0.00000000000E+00 0. -1.
</event>
<event>
 8    1  0.4798744E-006  0.1038491E+03  0.7561462E-02  0.1272404E+00
         -1   -1    0    0    0  501 -0.00000000000E+00  0.00000000000E+00  0.24433662292E+02  0.24433662292E+02  0.00000000000E+00 0.  1.
          1   -1    0    0  501    0  0.00000000000E+00 -0.00000000000E+00 -0.57471782738E+03  0.57471782738E+03  0.00000000000E+00 0. -1.
         23    2    1    2    0    0  0.31249103457E+02  0.30005202370E+01 -0.21787932895E+03  0.25318740449E+03  0.12508777006E+03 0.  0.
         23    2    1    2    0    0 -0.31249103457E+02 -0.30005202370E+01 -0.33240483613E+03  0.34596408518E+03  0.90623747231E+02 0.  0.
          5    1    3    3  502    0 -0.33418235055E+02 -0.25557897343E+02 -0.28464517018E+02  0.50967496307E+02  0.41800000000E+01 0. -1.
         -5    1    3    3    0  502  0.64667338512E+02  0.28558417580E+02 -0.18941481194E+03  0.20221990818E+03  0.41800000000E+01 0. -1.
        -11    1    4    4    0    0  0.10463735548E+02  0.36005334140E+02 -0.10485460421E+03  0.11135691210E+03  0.00000000000E+00 0.  1.
         11    1    4    4    0    0 -0.41712839006E+02 -0.39005854377E+02 -0.22755023192E+03  0.23460717308E+03  0.00000000000E+00 0. -1.
</event>
<event>
 8    1  0.4798744E-006  0.1440499E+03  0.7561462E-02  0.1207981E+00
          1   -1    0    0  501    0  0.00000000000E+00  0.00000000000E+00  0.87943117715E+02  0.87943117715E+02  0.00000000000E+00 0. -1.
         -1   -1    0    0    0  501 -0.00000000000E+00 -0.00000000000E+00 -0.29547258005E+03  0.29547258005E+03  0.00000000000E+00 0.  1.
         23    2    1    2    0    0 -0.27591360194E+01 -0.11570009110E+03 -0.14682048534E+03  0.22493974643E+03  0.12509001037E+03 0.  0.
         23    2    1    2    0    0  0.27591360194E+01  0.11570009110E+03 -0.60708976998E+02  0.15847595134E+03  0.89637733978E+02 0.  0.
          5    1    3    3  502    0  0.51410850069E+02 -0.62745395396E+02 -0.31964958574E+02  0.87288550938E+02  0.41800000000E+01 0.  1.
         -5    1    3    3    0  502 -0.54169986089E+02 -0.52954695709E+02 -0.11485552677E+03  0.13765119549E+03  0.41800000000E+01 0.  1.
        -11    1    4    4    0    0 -0.68342202711E+01  0.12021080238E+03 -0.74113223860E+02  0.14138639795E+03  0.00000000000E+00 0.  1.
         11    1    4    4    0    0  0.95933562905E+01 -0.45107112747E+01  0.13404246862E+02  0.17089553389E+02  0.00000000000E+00 0. -1.
</event>
<event>
 8    1  0.4798744E-006  0.1090459E+03  0.7561462E-02  0.1262347E+00
         -2   -1    0    0    0  501 -0.00000000000E+00  0.00000000000E+00  0.27230846491E+02  0.27230846491E+02  0.00000000000E+00 0.  1.
          2   -1    0    0  501    0  0.00000000000E+00 -0.00000000000E+00 -0.51066950556E+03  0.51066950556E+03  0.00000000000E+00 0. -1.
         23    2    1    2    0    0 -0.69223783093E+02  0.17676232816E+02 -0.22866411644E+03  0.26478926780E+03  0.11279049978E+03 0.  0.
         23    2    1    2    0    0  0.69223783093E+02 -0.17676232816E+02 -0.25477454262E+03  0.27311108425E+03  0.67640338686E+02 0.  0.
          5    1    3    3  502    0  0.11393856392E+01  0.44935507837E+02 -0.35701561516E+02  0.57554947302E+02  0.41800000000E+01 0.  1.
         -5    1    3    3    0  502 -0.70363168733E+02 -0.27259275021E+02 -0.19296255493E+03  0.20723432050E+03  0.41800000000E+01 0. -1.
        -11    1    4    4    0    0  0.68296133180E+02 -0.37238825778E+02 -0.18622693740E+03  0.20182062374E+03  0.00000000000E+00 0. -1.
         11    1    4    4    0    0  0.92764991286E+00  0.19562592962E+02 -0.68547605224E+02  0.71290460509E+02  0.00000000000E+00 0.  1.
</event>
<event>
 8    1  0.4798744E-006  0.1082436E+03  0.7561462E-02  0.1263858E+00
          1   -1    0    0  501    0  0.00000000000E+00  0.00000000000E+00  0.26201184204E+03  0.26201184204E+03  0.00000000000E+00 0. -1.
         -1   -1    0    0    0  501 -0.00000000000E+00 -0.00000000000E+00 -0.84753661323E+02  0.84753661323E+02  0.00000000000E+00 0.  1.
         23    2    1    2    0    0  0.39250855702E+02 -0.65841736528E+02  0.18131918602E+02  0.14781757538E+03  0.12508199382E+03 0.  0.
         23    2    1    2    0    0 -0.39250855702E+02  0.65841736528E+02  0.15912626211E+03  0.19894792798E+03  0.91560618232E+02 0.  0.
          5    1    3    3  502    0  0.23342909696E+02 -0.80229749096E+02 -0.34755528256E+02  0.90593174232E+02  0.41800000000E+01 0.  1.
         -5    1    3    3    0  502  0.15907946006E+02  0.14388012567E+02  0.52887446857E+02  0.57224401149E+02  0.41800000000E+01 0.  1.
        -11    1    4    4    0    0  0.21065433381E+02  0.40296344953E+02  0.10336814552E+03  0.11292706234E+03  0.00000000000E+00 0. -1.
         11    1    4    4    0    0 -0.60316289083E+02  0.25545391575E+02  0.55758116586E+02  0.86020865636E+02  0.00000000000E+00 0.  1.
</event>
<event>
 8    1  0.4798744E-006  0.2573744E+03  0.7561462E-02  0.1108731E+00
         -2   -1    0    0    0  501 -0.00000000000E+00  0.00000000000E+00  0.80619855785E+02  0.80619855785E+02  0.00000000000E+00 0.  1.
          2   -1    0    0  501    0  0.00000000000E+00 -0.00000000000E+00 -0.86752312544E+03  0.86752312544E+03  0.00000000000E+00 0. -1.
         23    2    1    2    0    0  0.23358198798E+03  0.41814733223E+01 -0.50765005859E+03  0.57265311309E+03  0.12507987896E+03 0.  0.
         23    2    1    2    0    0 -0.23358198798E+03 -0.41814733223E+01 -0.27925321107E+03  0.37548986814E+03  0.91827312684E+02 0.  0.
          5    1    3    3  502    0  0.42418599935E+02 -0.50190450072E+02 -0.11376506116E+03  0.13144725345E+03  0.41800000000E+01 0.  1.
         -5    1    3    3    0  502  0.19116338804E+03  0.54371923394E+02 -0.39388499743E+03  0.44120585964E+03  0.41800000000E+01 0.  1.
        -11    1    4    4    0    0 -0.23639335342E+03  0.90682579294E+01 -0.27054891671E+03  0.35938943665E+03  0.00000000000E+00 0. -1.
         11    1    4    4    0    0  0.28113654390E+01 -0.13249731252E+02 -0.87042943626E+01  0.16100431492E+02  0.00000000000E+00 0.  1.
</event>
<event>
 7    1  0.4798744E-006  0.7112358E+02  0.7561462E-02  0.1356313E+00
          2   -1    0    0  501    0  0.00000000000E+00  0.00000000000E+00  0.79243520812E+03  0.79243520812E+03  0.00000000000E+00 0. -1.
         -2   -1    0    0    0  501 -0.00000000000E+00 -0.00000000000E+00 -0.22997330802E+02  0.22997330802E+02  0.00000000000E+00 0.  1.
         23    2    1    2    0    0 -0.13945604681E+02  0.24984697867E+02  0.45445719708E+03  0.46406142114E+03  0.89459172747E+02 0.  0.
          5    1    1    2  502    0 -0.89602330640E+01 -0.25325727654E+02  0.32491753758E+03  0.32605299705E+03  0.41800000000E+01 0. -1.
         -5    1    1    2    0  502  0.22905837745E+02  0.34102978765E+00 -0.99368573400E+01  0.25318120742E+02  0.41800000000E+01 0.  1.
        -11    1    3    3    0    0 -0.80530106611E+01 -0.32756636960E+02  0.12207914936E+03  0.12665372855E+03  0.00000000000E+00 0.  1.
         11    1    3    3    0    0 -0.58925940195E+01  0.57741334827E+02  0.33237804772E+03  0.33740769259E+03  0.00000000000E+00 0. -1.
</event>
<event>
 8    1  0.4798744E-006  0.9527130E+02  0.7561462E-02  0.1290566E+00
          4   -1    0    0  501    0  0.00000000000E+00  0.00000000000E+00  0.12903929484E+03  0.12903929484E+03  0.00000000000E+00 0. -1.
         -4   -1    0    0    0  501 -0.00000000000E+00 -0.00000000000E+00 -0.10423172042E+03  0.10423172042E+03  0.00000000000E+00 0.  1.
         23    2    1    2    0    0  0.38057522364E+02  0.48325523841E+01 -0.47725699993E+01  0.13092736694E+03  0.12508984538E+03 0.  0.
         23    2    1    2    0    0 -0.38057522364E+02 -0.48325523841E+01  0.29580144418E+02  0.10234364833E+03  0.90152697346E+02 0.  0.
          5    1    3    3  502    0 -0.33327095945E+02 -0.20683692606E+02  0.27855809580E+02  0.48290050645E+02  0.41800000000E+01 0.  1.
         -5    1    3    3    0  502  0.71384618310E+02  0.25516244990E+02 -0.32628379579E+02  0.82637316290E+02  0.41800000000E+01 0.  1.
        -11    1    4    4    0    0  0.29518845020E+01  0.24548530148E+02 -0.19855898198E+02  0.31711206975E+02  0.00000000000E+00 0.  1.
         11    1    4    4    0    0 -0.41009406866E+02 -0.29381082532E+02  0.49436042617E+02  0.70632441356E+02  0.00000000000E+00 0. -1.
</event>
<event>
 8    1  0.4798744E-006  0.1047555E+03  0.7561462E-02  0.1270602E+00
         -4   -1    0    0    0  501 -0.00000000000E+00  0.00000000000E+00  0.84229823467E+03  0.84229823467E+03  0.00000000000E+00 0.  1.
          4   -1    0    0  501    0  0.00000000000E+00 -0.00000000000E+00 -0.21515328015E+02  0.21515328015E+02  0.00000000000E+00 0. -1.
         23    2    1    2    0    0 -0.43264205496E+01  0.13261912669E+02  0.70423572839E+03  0.71539501380E+03  0.12508984123E+03 0.  0.
         23    2    1    2    0    0  0.43264205496E+01 -0.13261912669E+02  0.11654717827E+03  0.14841854889E+03  0.90830747276E+02 0.  0.
          5    1    3    3  502    0  0.51208249546E+02  0.38511473466E+02  0.32857654383E+03  0.33479163067E+03  0.41800000000E+01 0. -1.
         -5    1    3    3    0  502 -0.55534670095E+02 -0.25249560797E+02  0.37565918457E+03  0.38060338313E+03  0.41800000000E+01 0. -1.
        -11    1    4    4    0    0 -0.28624909513E+02  0.21842164602E+02  0.80776998535E+02  0.88438617648E+02  0.00000000000E+00 0. -1.
         11    1    4    4    0    0  0.32951330062E+02 -0.35104077271E+02  0.35770179731E+02  0.59979931243E+02  0.00000000000E+00 0.  1.
</event>
<event>
 8    1  0.4798744E-006  0.1006521E+03  0.7561462E-02  0.1278931E+00
          1   -1    0    0  501    0  0.00000000000E+00  0.00000000000E+00  0.40750062549E+03  0.40750062549E+03  0.00000000000E+00 0. -1.
         -1   -1    0    0    0  501 -0.00000000000E+00 -0.00000000000E+00 -0.37448550013E+02  0.37448550013E+02  0.00000000000E+00 0.  1.
         23    2    1    2    0    0 -0.17481311193E+02 -0.20839174246E+02  0.11205807947E+03  0.17013077366E+03  0.12509036552E+03 0.  0.
         23    2    1    2    0    0  0.17481311193E+02  0.20839174246E+02  0.25799399600E+03  0.27481840184E+03  0.90688392823E+02 0.  0.
          5    1    3    3  502    0 -0.61966524223E+02 -0.19937849182E+02  0.10678373142E+03  0.12513035463E+03  0.41800000000E+01 0.  1.
         -5    1    3    3    0  502  0.44485213030E+02 -0.90132506372E+00  0.52743480501E+01  0.45000419026E+02  0.41800000000E+01 0.  1.
        -11    1    4    4    0    0 -0.35115552705E+02  0.87503704748E+00  0.66179313411E+02  0.74923756281E+02  0.00000000000E+00 0.  1.
         11    1    4    4    0    0  0.52596863899E+02  0.19964137199E+02  0.19181468259E+03  0.19989464556E+03  0.00000000000E+00 0. -1.
</event>
<event>
 8    1  0.4798744E-006  0.9575807E+02  0.7561462E-02  0.1289478E+00
          2   -1    0    0  501    0  0.00000000000E+00  0.00000000000E+00  0.58569528142E+03  0.58569528142E+03  0.00000000000E+00 0.  1.
         -2   -1    0    0    0  501 -0.00000000000E+00 -0.00000000000E+00 -0.24173215685E+02  0.24173215685E+02  0.00000000000E+00 0. -1.
         23    2    1    2    0    0 -0.57303857334E+01  0.14322373552E+02  0.27696308551E+03  0.30429186577E+03  0.12508805353E+03 0.  0.
         23    2    1    2    0    0  0.57303857334E+01 -0.14322373552E+02  0.28455898023E+03  0.30557663133E+03  0.11029640377E+03 0.  0.
          5    1    3    3  502    0 -0.10302678334E+02  0.53331815564E+02  0.25141859620E+03  0.25725320338E+03  0.41800000000E+01 0. -1.
         -5    1    3    3    0  502  0.45722926004E+01 -0.39009442012E+02  0.25544489306E+02  0.47038662392E+02  0.41800000000E+01 0. -1.
        -11    1    4    4    0    0  0.20152051538E+02  0.38136931801E+02  0.56303464051E+02  0.70926798973E+02  0.00000000000E+00 0. -1.
         11    1    4    4    0    0 -0.14421665805E+02 -0.52459305353E+02  0.22825551618E+03  0.23464983236E+03  0.00000000000E+00 0.  1.
</event>
<event>
 8    1  0.4798744E-006  0.1836174E+03  0.7561462E-02  0.1164347E+00
         -1   -1    0    0    0  501 -0.00000000000E+00  0.00000000000E+00  0.33759252673E+02  0.33759252673E+02  0.00000000000E+00 0.  1.
          1   -1    0    0  501    0  0.00000000000E+00 -0.00000000000E+00 -0.11764232758E+04  0.11764232758E+04  0.00000000000E+00 0. -1.
         23    2    1    2    0    0 -0.13194083999E+03  0.97595309672E+02 -0.68107708293E+03  0.71164987441E+03  0.12508525545E+03 0.  0.
         23    2    1    2    0    0  0.13194083999E+03 -0.97595309672E+02 -0.46158694021E+03  0.49853265407E+03  0.92407110526E+02 0.  0.
          5    1    3    3  502    0 -0.13809177171E+03  0.55920551709E+02 -0.61775651588E+03  0.63548173131E+03  0.41800000000E+01 0. -1.
         -5    1    3    3    0  502  0.61509317126E+01  0.41674757964E+02 -0.63320567049E+02  0.76168143102E+02  0.41800000000E+01 0. -1.
        -11    1    4    4    0    0  0.88967703608E+02 -0.98688947815E+02 -0.41205616902E+03  0.43294924314E+03  0.00000000000E+00 0.  1.
         11    1    4    4    0    0  0.42973136386E+02  0.10936381429E+01 -0.49530771193E+02  0.65583410937E+02  0.00000000000E+00 0. -1.
</event>
<event>
 7    1  0.4798744E-006  0.1015524E+03  0.7561462E-02  0.1277065E+00
         -2   -1    0    0    0  501 -0.00000000000E+00  0.00000000000E+00  0.45742407840E+03  0.45742407840E+03  0.00000000000E+00 0.  1.
          2   -1    0    0  501    0  0.00000000000E+00 -0.00000000000E+00 -0.33593425963E+02  0.33593425963E+02  0.00000000000E+00 0. -1.
         23    2    1    2    0    0 -0.13699297121E+02  0.54506645098E+01  0.81727681991E+02  0.12261363381E+03  0.90207032473E+02 0.  0.
          5    1    1    2  502    0 -0.29371560790E+02 -0.47600661356E+02  0.70119637404E+02  0.89792803133E+02  0.41800000000E+01 0. -1.
         -5    1    1    2    0  502  0.43070857912E+02  0.42149996847E+02  0.27198333304E+03  0.27861106742E+03  0.41800000000E+01 0.  1.
        -11    1    3    3    0    0  0.36138043738E+02 -0.21097785946E+01  0.54206564510E+02  0.65182520716E+02  0.00000000000E+00 0.  1.
         11    1    3    3    0    0 -0.49837340860E+02  0.75604431044E+01  0.27521117482E+02  0.57431113095E+02  0.00000000000E+00 0. -1.
</event>
<event>
 8    1  0.4798744E-006  0.1232819E+03  0.7561462E-02  0.1237779E+00
         -1   -1    0    0    0  501 -0.00000000000E+00  0.00000000000E+00  0.15954079831E+03  0.15954079831E+03  0.00000000000E+00 0.  1.
          1   -1    0    0  501    0  0.00000000000E+00 -0.00000000000E+00 -0.13731714078E+03  0.13731714078E+03  0.00000000000E+00 0. -1.
         23    2    1    2    0    0  0.77061998432E+02 -0.26931567135E+02  0.70627576947E+02  0.16522514418E+03  0.12508889932E+03 0.  0.
         23    2    1    2    0    0 -0.77061998432E+02  0.26931567135E+02 -0.48403919420E+02  0.13163279492E+03  0.91216184817E+02 0.  0.
          5    1    3    3  502    0  0.69398081212E+02  0.39602204170E+02  0.52560654354E+02  0.95731515381E+02  0.41800000000E+01 0. -1.
         -5    1    3    3    0  502  0.76639172203E+01 -0.66533771305E+02  0.18066922593E+02  0.69493628796E+02  0.41800000000E+01 0. -1.
        -11    1    4    4    0    0 -0.60954998744E+02 -0.75199662672E+01  0.97109193585E+01  0.62180091021E+02  0.00000000000E+00 0.  1.
         11    1    4    4    0    0 -0.16106999688E+02  0.34451533402E+02 -0.58114838778E+02  0.69452703899E+02  0.00000000000E+00 0. -1.
</event>
<event>
 8    1  0.4798744E-006  0.2200762E+03  0.7561462E-02  0.1133826E+00
         -2   -1    0    0    0  501 -0.00000000000E+00  0.00000000000E+00  0.95726143013E+02  0.95726143013E+02  0.00000000000E+00 0.  1.
          2   -1    0    0  501    0  0.00000000000E+00 -0.00000000000E+00 -0.82592923230E+03  0.82592923230E+03  0.00000000000E+00 0. -1.
         23    2    1    2    0    0  0.18304742401E+03  0.63191612641E+02 -0.92227800437E+02  0.24830003813E+03  0.12508957758E+03 0.  0.
         23    2    1    2    0    0 -0.18304742401E+03 -0.63191612641E+02 -0.63797528885E+03  0.67335533719E+03  0.94315436641E+02 0.  0.
          5    1    3    3  502    0  0.14026968652E+03  0.97669064635E+02 -0.47832142992E+02  0.17753934056E+03  0.41800000000E+01 0. -1.
         -5    1    3    3    0  502  0.42777737484E+02 -0.34477451994E+02 -0.44395657446E+02  0.70760697568E+02  0.41800000000E+01 0. -1.
        -11    1    4    4    0    0 -0.57525906307E+02 -0.67240498790E+02 -0.22775542259E+03  0.24434206984E+03  0.00000000000E+00 0. -1.
         11    1    4    4    0    0 -0.12552151770E+03  0.40488861493E+01 -0.41021986626E+03  0.42901326735E+03  0.00000000000E+00 0.  1.
</event>
<event>
 8    1  0.4798744E-006  0.1677584E+03  0.7561462E-02  0.1180206E+00
         -2   -1    0    0    0  501 -0.00000000000E+00  0.00000000000E+00  0.91992578129E+02  0.91992578129E+02  0.00000000000E+00 0.  1.
          2   -1    0    0  501    0  0.00000000000E+00 -0.00000000000E+00 -0.40934544879E+03  0.40934544879E+03  0.00000000000E+00 0. -1.
         23    2    1    2    0    0 -0.13331558870E+03  0.89655285604E+02 -0.16585748878E+03  0.26261861092E+03  0.12509481119E+03 0.  0.
         23    2    1    2    0    0  0.13331558870E+03 -0.89655285604E+02 -0.15149538188E+03  0.23871941600E+03  0.90691743930E+02 0.  0.
          5    1    3    3  502    0 -0.62115860677E+02  0.80605454792E+02 -0.25612230976E+02  0.10501941852E+03  0.41800000000E+01 0. -1.
         -5    1    3    3    0  502 -0.71199728025E+02  0.90498308119E+01 -0.14024525780E+03  0.15759919240E+03  0.41800000000E+01 0. -1.
        -11    1    4    4    0    0  0.64682557940E+02 -0.54914537255E+02 -0.13592555938E+03  0.16023481955E+03  0.00000000000E+00 0. -1.
         11    1    4    4    0    0  0.68633030762E+02 -0.34740748349E+02 -0.15569822501E+02  0.78484596452E+02  0.00000000000E+00 0.  1.
</event>
<event>
 8    1  0.4798744E-006  0.8638181E+02  0.7561462E-02  0.1311858E+00
          2   -1    0    0  501    0  0.00000000000E+00  0.00000000000E+00  0.43325445156E+03  0.43325445156E+03  0.00000000000E+00 0.  1.
         -2   -1    0    0    0  501 -0.00000000000E+00 -0.00000000000E+00 -0.28476871337E+02  0.28476871337E+02  0.00000000000E+00 0. -1.
         23    2    1    2    0    0  0.85296070255E+01 -0.22565706599E+02  0.23163098463E+03  0.26434733748E+03  0.12507852127E+03 0.  0.
         23    2    1    2    0    0 -0.85296070255E+01  0.22565706599E+02  0.17314659560E+03  0.19738398542E+03  0.91644578793E+02 0.  0.
          5    1    3    3  502    0  0.23200272827E+02 -0.59047585336E+02  0.57306422442E+02  0.85594208019E+02  0.41800000000E+01 0.  1.
         -5    1    3    3    0  502 -0.14670665801E+02  0.36481878737E+02  0.17432456219E+03  0.17875312946E+03  0.41800000000E+01 0.  1.
        -11    1    4    4    0    0  0.25101723550E+02  0.25625182062E+02  0.21066990997E+02  0.41600055175E+02  0.00000000000E+00 0. -1.
         11    1    4    4    0    0 -0.33631330576E+02 -0.30594754621E+01  0.15207960460E+03  0.15578393025E+03  0.00000000000E+00 0.  1.
</event>
<event>
 8    1  0.4798744E-006  0.9285614E+02  0.7561462E-02  0.1296079E+00
         -4   -1    0    0    0  501 -0.00000000000E+00  0.00000000000E+00  0.22405649830E+03  0.22405649830E+03  0.00000000000E+00 0.  1.
          4   -1    0    0  501    0  0.00000000000E+00 -0.00000000000E+00 -0.57260557369E+02  0.57260557369E+02  0.00000000000E+00 0. -1.
         23    2    1    2    0    0 -0.27844260403E+02 -0.10829918691E+02  0.11392697623E+03  0.17181151143E+03  0.12508896661E+03 0.  0.
         23    2    1    2    0    0  0.27844260403E+02  0.10829918691E+02  0.52868964698E+02  0.10950554424E+03  0.91124896794E+02 0.  0.
          5    1    3    3  502    0  0.28315783139E+02  0.25862440174E+02  0.94152541903E+02  0.10174882276E+03  0.41800000000E+01 0. -1.
         -5    1    3    3    0  502 -0.56160043542E+02 -0.36692358865E+02  0.19774434332E+02  0.70062688664E+02  0.41800000000E+01 0. -1.
        -11    1    4    4    0    0  0.30759971153E+02  0.40082092905E+02  0.17722015566E+01  0.50555817621E+02  0.00000000000E+00 0. -1.
         11    1    4    4    0    0 -0.29157107499E+01 -0.29252174214E+02  0.51096763141E+02  0.58949726623E+02  0.00000000000E+00 0.  1.
</event>
<event>
 8    1  0.4798744E-006  0.1160366E+03  0.7561462E-02  0.1249782E+00
         -1   -1    0    0    0  501 -0.00000000000E+00  0.00000000000E+00  0.55691818232E+03  0.55691818232E+03  0.00000000000E+00 0.  1.
          1   -1    0    0  501    0  0.00000000000E+00 -0.00000000000E+00 -0.26737572390E+02  0.26737572390E+02  0.00000000000E+00 0. -1.
         23    2    1    2    0    0  0.12489281958E-01  0.50033297368E+02  0.35605540510E+03  0.38069187369E+03  0.12509004833E+03 0.  0.
         23    2    1    2    0    0 -0.12489281958E-01 -0.50033297368E+02  0.17412520483E+03  0.20296388102E+03  0.91495459122E+02 0.  0.
          5    1    3    3  502    0  0.40039627631E+02  0.76434957278E+02  0.23856095469E+03  0.25372086232E+03  0.41800000000E+01 0.  1.
         -5    1    3    3    0  502 -0.40027138349E+02 -0.26401659910E+02  0.11749445042E+03  0.12697101138E+03  0.41800000000E+01 0.  1.
        -11    1    4    4    0    0 -0.93590846271E+01 -0.72561517126E+02  0.15685402874E+03  0.17307788006E+03  0.00000000000E+00 0.  1.
         11    1    4    4    0    0  0.93465953451E+01  0.22528219757E+02  0.17271176084E+02  0.29886000959E+02  0.00000000000E+00 0. -1.
</event>
<event>
 8    1  0.4798744E-006  0.1209773E+03  0.7561462E-02  0.1241493E+00
          1   -1    0    0  501    0  0.00000000000E+00  0.00000000000E+00  0.21209419836E+03  0.21209419836E+03  0.00000000000E+00 0. -1.
         -1   -1    0    0    0  501 -0.00000000000E+00 -0.00000000000E+00 -0.11784553370E+03  0.11784553370E+03  0.00000000000E+00 0.  1.
         23    2    1    2    0    0  0.93420501861E+02  0.24234759920E+02 -0.13279028584E+02  0.15855163355E+03  0.12509026399E+03 0.  0.
         23    2    1    2    0    0 -0.93420501861E+02 -0.24234759920E+02  0.10752769324E+03  0.17138809851E+03  0.92178965825E+02 0.  0.
          5    1    3    3  502    0  0.10321130659E+03 -0.13767873970E+02 -0.39196000285E+02  0.11133699745E+03  0.41800000000E+01 0. -1.
         -5    1    3    3    0  502 -0.97908047332E+01  0.38002633889E+02  0.25916971701E+02  0.47214636100E+02  0.41800000000E+01 0. -1.
        -11    1    4    4    0    0 -0.53134112755E+02 -0.42366911885E+01  0.11409727521E+03  0.12593399740E+03  0.00000000000E+00 0. -1.
         11    1    4    4    0    0 -0.40286389106E+02 -0.19998068731E+02 -0.65695819729E+01  0.45454101107E+02  0.00000000000E+00 0.  1.
</event>
<event>
 8    1  0.4798744E-006  0.1189273E+03  0.7561462E-02  0.1244877E+00
          1   -1    0    0  501    0  0.00000000000E+00  0.00000000000E+00  0.14627045968E+03  0.14627045968E+03  0.00000000000E+00 0. -1.
         -1   -1    0    0    0  501 -0.00000000000E+00 -0.00000000000E+00 -0.19851361584E+03  0.19851361584E+03  0.00000000000E+00 0.  1.
         23    2    1    2    0    0 -0.83358779781E+01 -0.51932453155E+02 -0.14754875996E+03  0.20046195298E+03  0.12509153238E+03 0.  0.
         23    2    1    2    0    0  0.83358779781E+01  0.51932453155E+02  0.95305603797E+02  0.14432212254E+03  0.94758906634E+02 0.  0.
          5    1    3    3  502    0 -0.12210445302E+02  0.37791787072E+02 -0.20692382645E+02  0.44977341452E+02  0.41800000000E+01 0.  1.
         -5    1    3    3    0  502  0.38745673244E+01 -0.89724240227E+02 -0.12685637731E+03  0.15548461152E+03  0.41800000000E+01 0.  1.
        -11    1    4    4    0    0 -0.22450288970E+02  0.69176410316E+02  0.58523517697E+02  0.93350915060E+02  0.00000000000E+00 0.  1.
         11    1    4    4    0    0  0.30786166948E+02 -0.17243957160E+02  0.36782086100E+02  0.50971207478E+02  0.00000000000E+00 0. -1.
</event>
<event>
 7    1  0.4798744E-006  0.1736078E+03  0.7561462E-02  0.1174137E+00
         -2   -1    0    0    0  501 -0.00000000000E+00  0.00000000000E+00  0.18124616921E+03  0.18124616921E+03  0.00000000000E+00 0.  1.
          2   -1    0    0  501    0  0.00000000000E+00 -0.00000000000E+00 -0.23983690805E+03  0.23983690805E+03  0.00000000000E+00 0. -1.
         23    2    1    2    0    0 -0.13158946520E+03 -0.86334019123E+02 -0.96156002248E+02  0.20550889529E+03  0.90656379062E+02 0.  0.
          5    1    1    2  502    0  0.63362228489E+02  0.71707396272E+02 -0.46309166399E+02  0.10638953883E+03  0.41800000000E+01 0. -1.
         -5    1    1    2    0  502  0.68227236710E+02  0.14626622851E+02  0.83874429801E+02  0.10918464315E+03  0.41800000000E+01 0.  1.
        -11    1    3    3    0    0 -0.10349076759E+03 -0.10529031962E+03 -0.80756964332E+02  0.16827976013E+03  0.00000000000E+00 0.  1.
         11    1    3    3    0    0 -0.28098697609E+02  0.18956300495E+02 -0.15399037916E+02  0.37229135156E+02  0.00000000000E+00 0. -1.
</event>
<event>
 8    1  0.4798744E-006  0.9971886E+02  0.7561462E-02  0.1280888E+00
         -1   -1    0    0    0  501 -0.00000000000E+00  0.00000000000E+00  0.95472342340E+02  0.95472342340E+02  0.00000000000E+00 0.  1.
          1   -1    0    0  501    0  0.00000000000E+00 -0.00000000000E+00 -0.12977844346E+03  0.12977844346E+03  0.00000000000E+00 0. -1.
         23    2    1    2    0    0 -0.18750420931E+02 -0.15662111041E+02 -0.90886522133E+01  0.12777677614E+03  0.12508965151E+03 0.  0.
         23    2    1    2    0    0  0.18750420931E+02  0.15662111041E+02 -0.25217448907E+02  0.97474009661E+02  0.90930648423E+02 0.  0.
          5    1    3    3  502    0 -0.63342096152E+02 -0.18689536463E+01  0.26618651943E+02  0.68860287277E+02  0.41800000000E+01 0.  1.
         -5    1    3    3    0  502  0.44591675221E+02 -0.13793157395E+02 -0.35707304156E+02  0.58916488863E+02  0.41800000000E+01 0.  1.
        -11    1    4    4    0    0 -0.29534151544E+02  0.26388375756E+02  0.43575946047E+01  0.39844712488E+02  0.00000000000E+00 0.  1.
         11    1    4    4    0    0  0.48284572476E+02 -0.10726264715E+02 -0.29575043512E+02  0.57629297173E+02  0.00000000000E+00 0. -1.
</event>
<event>
 8    1  0.4798744E-006  0.9935094E+02  0.7561462E-02  0.1281667E+00
          1   -1    0    0  501    0  0.00000000000E+00  0.00000000000E+00  0.63299268531E+02  0.63299268531E+02  0.00000000000E+00 0. -1.
         -1   -1    0    0    0  501 -0.00000000000E+00 -0.00000000000E+00 -0.24733596136E+03  0.24733596136E+03  0.00000000000E+00 0.  1.
         23    2    1    2    0    0  0.30937766624E+02 -0.44430764325E+02 -0.15717907160E+03  0.20804676577E+03  0.12508780107E+03 0.  0.
         23    2    1    2    0    0 -0.30937766624E+02  0.44430764325E+02 -0.26857621232E+02  0.10258846413E+03  0.82896459100E+02 0.  0.
          5    1    3    3  502    0  0.38323441883E+02  0.13969646287E+02 -0.91873134113E+00  0.41014066884E+02  0.41800000000E+01 0.  1.
         -5    1    3    3    0  502 -0.73856752590E+01 -0.58400410611E+02 -0.15626034026E+03  0.16703269888E+03  0.41800000000E+01 0.  1.
        -11    1    4    4    0    0  0.21611313938E+02 -0.93009507887E+01 -0.99988569902E+01  0.25564305522E+02  0.00000000000E+00 0.  1.
         11    1    4    4    0    0 -0.52549080562E+02  0.53731715113E+02 -0.16858764242E+02  0.77024158604E+02  0.00000000000E+00 0. -1.
</event>
<event>
 8    1  0.4798744E-006  0.1118606E+03  0.7561462E-02  0.1257163E+00
         -2   -1    0    0    0  501 -0.00000000000E+00  0.00000000000E+00  0.72431271106E+02  0.72431271106E+02  0.00000000000E+00 0.  1.
          2   -1    0    0  501    0  0.00000000000E+00 -0.00000000000E+00 -0.21794148939E+03  0.21794148939E+03  0.00000000000E+00 0. -1.
         23    2    1    2    0    0  0.36302509448E+02 -0.32442079463E+02 -0.35080985242E+02  0.13873421148E+03  0.12508455220E+03 0.  0.
         23    2    1    2    0    0 -0.36302509448E+02  0.32442079463E+02 -0.11042923305E+03  0.15163854902E+03  0.91811074084E+02 0.  0.
          5    1    3    3  502    0  0.56697234316E+02 -0.70367137884E+02 -0.29279507434E+02  0.95083502400E+02  0.41800000000E+01 0.  1.
         -5    1    3    3    0  502 -0.20394724868E+02  0.37925058421E+02 -0.58014778080E+01  0.43650709083E+02  0.41800000000E+01 0.  1.
        -11    1    4    4    0    0 -0.45300065800E+02 -0.10182843479E+02 -0.18633357207E+02  0.50029873712E+02  0.00000000000E+00 0.  1.
         11    1    4    4    0    0  0.89975563517E+01  0.42624922942E+02 -0.91795875840E+02  0.10160867531E+03  0.00000000000E+00 0. -1.
</event>
<event>
 8    1  0.4798744E-006  0.1994683E+03  0.7561462E-02  0.1150188E+00
          1   -1    0    0  501    0  0.00000000000E+00  0.00000000000E+00  0.24802360136E+03  0.24802360136E+03  0.00000000000E+00 0. -1.
         -1   -1    0    0    0  501 -0.00000000000E+00 -0.00000000000E+00 -0.16856040362E+03  0.16856040362E+03  0.00000000000E+00 0.  1.
         23    2    1    2    0    0 -0.69788164085E+01  0.17235438284E+03  0.21257624039E+02  0.21413649128E+03  0.12509121933E+03 0.  0.
         23    2    1    2    0    0  0.69788164085E+01 -0.17235438284E+03  0.58205573702E+02  0.20244751371E+03  0.88557155739E+02 0.  0.
          5    1    3    3  502    0  0.56632618536E+02  0.10626772098E+03  0.30560528153E+01  0.12052756475E+03  0.41800000000E+01 0.  1.
         -5    1    3    3    0  502 -0.63611434944E+02  0.66086661858E+02  0.18201571224E+02  0.93608926531E+02  0.41800000000E+01 0.  1.
        -11    1    4    4    0    0  0.35384345535E+02 -0.13578669807E+03  0.66705751874E+02  0.15536967727E+03  0.00000000000E+00 0.  1.
         11    1    4    4    0    0 -0.28405529127E+02 -0.36567684770E+02 -0.85001781729E+01  0.47077836435E+02  0.00000000000E+00 0. -1.
</event>
<event>
 8    1  0.4798744E-006  0.9923642E+02  0.7561462E-02  0.1281910E+00
          1   -1    0    0  501    0  0.00000000000E+00  0.00000000000E+00  0.13299123070E+03  0.13299123070E+03  0.00000000000E+00 0. -1.
         -1   -1    0    0    0  501 -0.00000000000E+00 -0.00000000000E+00 -0.12515940522E+03  0.12515940522E+03  0.00000000000E+00 0.  1.
         23    2    1    2    0    0  0.12853341812E+02  0.12208168643E+02 -0.62057084677E+02  0.14075809564E+03  0.12509001540E+03 0.  0.
         23    2    1    2    0    0 -0.12853341812E+02 -0.12208168643E+02  0.69888910158E+02  0.11739254029E+03  0.92640709059E+02 0.  0.
          5    1    3    3  502    0  0.61776135754E+02  0.27169722209E+02 -0.58319410356E+02  0.89292277258E+02  0.41800000000E+01 0.  1.
         -5    1    3    3    0  502 -0.48922793942E+02 -0.14961553566E+02 -0.37376743206E+01  0.51465818380E+02  0.41800000000E+01 0.  1.
        -11    1    4    4    0    0  0.31797708506E+02  0.39495831566E+01  0.61255012750E+02  0.69129371908E+02  0.00000000000E+00 0. -1.
         11    1    4    4    0    0 -0.44651050318E+02 -0.16157751800E+02  0.86338974075E+01  0.48263168380E+02  0.00000000000E+00 0.  1.
</event>
<event>
 8    1  0.4798744E-006  0.8782272E+02  0.7561462E-02  0.1308212E+00
         -1   -1    0    0    0  501 -0.00000000000E+00  0.00000000000E+00  0.75831268066E+02  0.75831268066E+02  0.00000000000E+00 0.  1.
          1   -1    0    0  501    0  0.00000000000E+00 -0.00000000000E+00 -0.21275067561E+03  0.21275067561E+03  0.00000000000E+00 0. -1.
         23    2    1    2    0    0 -0.46168709258E+02 -0.19296405700E+02 -0.26756533318E+02  0.13735832232E+03  0.12508995023E+03 0.  0.
         23    2    1    2    0    0  0.46168709258E+02  0.19296405700E+02 -0.11016287423E+03  0.15122362136E+03  0.90712864635E+02 0.  0.
          5    1    3    3  502    0 -0.52635838013E+02  0.14304985853E+02  0.36188747984E+02  0.65591630139E+02  0.41800000000E+01 0. -1.
         -5    1    3    3    0  502  0.64671287548E+01 -0.33601391553E+02 -0.62945281302E+02  0.71766692182E+02  0.41800000000E+01 0. -1.
        -11    1    4    4    0    0  0.31993399494E+02  0.46119225993E+02 -0.10686197328E+03  0.12070642878E+03  0.00000000000E+00 0. -1.
         11    1    4    4    0    0  0.14175309765E+02 -0.26822820293E+02 -0.33009009520E+01  0.30517192572E+02  0.00000000000E+00 0.  1.
</event>
<event>
 8    1  0.4798744E-006  0.8604177E+02  0.7561462E-02  0.1312730E+00
          1   -1    0    0  501    0  0.00000000000E+00  0.00000000000E+00  0.57895022553E+02  0.57895022553E+02  0.00000000000E+00 0. -1.
         -1   -1    0    0    0  501 -0.00000000000E+00 -0.00000000000E+00 -0.23192532494E+03  0.23192532494E+03  0.00000000000E+00 0.  1.
         23    2    1    2    0    0  0.21187546453E+02  0.22791756012E+02 -0.13093732488E+03  0.18373663464E+03  0.12508473765E+03 0.  0.
         23    2    1    2    0    0 -0.21187546453E+02 -0.22791756012E+02 -0.43092977509E+02  0.10608371286E+03  0.91806171669E+02 0.  0.
          5    1    3    3  502    0 -0.57624751490E+01  0.42203585604E+02  0.55918118460E+01  0.43163520679E+02  0.41800000000E+01 0.  1.
         -5    1    3    3    0  502  0.26950021602E+02 -0.19411829592E+02 -0.13652913673E+03  0.14057311396E+03  0.41800000000E+01 0.  1.
        -11    1    4    4    0    0  0.33833057523E+02  0.49440264920E+01 -0.23261763586E+02  0.41354912942E+02  0.00000000000E+00 0. -1.
         11    1    4    4    0    0 -0.55020603976E+02 -0.27735782504E+02 -0.19831213922E+02  0.64728799916E+02  0.00000000000E+00 0.  1.
</event>
<event>
 8    1  0.4798744E-006  0.9511004E+02  0.7561462E-02  0.1290928E+00
         -2   -1    0    0    0  501 -0.00000000000E+00  0.00000000000E+00  0.19539106175E+03  0.19539106175E+03  0.00000000000E+00 0. -1.
          2   -1    0    0  501    0  0.00000000000E+00 -0.00000000000E+00 -0.66825786489E+02  0.66825786489E+02  0.00000000000E+00 0.  1.
         23    2    1    2    0    0  0.10516193985E+02 -0.27635293624E+02  0.97369676108E+02  0.16125250500E+03  0.12508883544E+03 0.  0.
         23    2    1    2    0    0 -0.10516193985E+02  0.27635293624E+02  0.31195599153E+02  0.10096434324E+03  0.91358269525E+02 0.  0.
          5    1    3    3  502    0  0.64221238475E+02 -0.28267619788E+02  0.75374402407E+02  0.10306405163E+03  0.41800000000E+01 0. -1.
         -5    1    3    3    0  502 -0.53705044490E+02  0.63232616405E+00  0.21995273701E+02  0.58188453367E+02  0.41800000000E+01 0. -1.
        -11    1    4    4    0    0 -0.13164437789E+02  0.45823704026E+02  0.53763668010E+02  0.71858515646E+02  0.00000000000E+00 0. -1.
         11    1    4    4    0    0  0.26482438042E+01 -0.18188410402E+02 -0.22568068857E+02  0.29105827598E+02  0.00000000000E+00 0.  1.
</event>
<event>
 8    1  0.4798744E-006  0.1200653E+03  0.7561462E-02  0.1242989E+00
          3   -1    0    0  501    0  0.00000000000E+00  0.00000000000E+00  0.28888441225E+03  0.28888441225E+03  0.00000000000E+00 0. -1.
         -3   -1    0    0    0  501 -0.00000000000E+00 -0.00000000000E+00 -0.84273955645E+02  0.84273955645E+02  0.00000000000E+00 0.  1.
         23    2    1    2    0    0 -0.36696926515E+02 -0.64942112752E+02  0.97502805426E+00  0.13673857010E+03  0.11459643734E+03 0.  0.
         23    2    1    2    0    0  0.36696926515E+02  0.64942112752E+02  0.20363542856E+03  0.23641979779E+03  0.94142395348E+02 0.  0.
          5    1    3    3  502    0  0.32089831295E+02 -0.18911849162E+02 -0.30262932530E+02  0.48173984645E+02  0.41800000000E+01 0. -1.
         -5    1    3    3    0  502 -0.68786757810E+02 -0.46030263590E+02  0.31237960584E+02  0.88564585459E+02  0.41800000000E+01 0.  1.
        -11    1    4    4    0    0  0.28199450262E+02 -0.19897169663E+02  0.66924766962E+02  0.75299606829E+02  0.00000000000E+00 0.  1.
         11    1    4    4    0    0  0.84974762520E+01  0.84839282415E+02  0.13671066159E+03  0.16112019097E+03  0.00000000000E+00 0. -1.
</event>
<event>
 8    1  0.4798744E-006  0.1359904E+03  0.7561462E-02  0.1218828E+00
          2   -1    0    0  501    0  0.00000000000E+00  0.00000000000E+00  0.35583101185E+03  0.35583101185E+03  0.00000000000E+00 0.  1.
         -2   -1    0    0    0  501 -0.00000000000E+00 -0.00000000000E+00 -0.63648926324E+02  0.63648926324E+02  0.00000000000E+00 0. -1.
         23    2    1    2    0    0  0.79408627613E+01 -0.10159552175E+03  0.12835131076E+03  0.20616876131E+03  0.12508713693E+03 0.  0.
         23    2    1    2    0    0 -0.79408627613E+01  0.10159552175E+03  0.16383077477E+03  0.21331117687E+03  0.90974876056E+02 0.  0.
          5    1    3    3  502    0 -0.46571442017E+01  0.16321769150E+02  0.73305489147E+02  0.75360840490E+02  0.41800000000E+01 0. -1.
         -5    1    3    3    0  502  0.12598006963E+02 -0.11791729090E+03  0.55045821610E+02  0.13080792082E+03  0.41800000000E+01 0. -1.
        -11    1    4    4    0    0  0.32243166575E+02  0.69049004268E+01  0.30542619260E+02  0.44946090285E+02  0.00000000000E+00 0. -1.
         11    1    4    4    0    0 -0.40184029336E+02  0.94690621322E+02  0.13328815551E+03  0.16836508658E+03  0.00000000000E+00 0.  1.
</event>
<event>
 8    1  0.4798744E-006  0.1088389E+03  0.7561462E-02  0.1262735E+00
          1   -1    0    0  501    0  0.00000000000E+00  0.00000000000E+00  0.87522695524E+02  0.87522695524E+02  0.00000000000E+00 0. -1.
         -1   -1    0    0    0  501 -0.00000000000E+00 -0.00000000000E+00 -0.21106889806E+03  0.21106889806E+03  0.00000000000E+00 0.  1.
         23    2    1    2    0    0 -0.54342116709E+02  0.61499007442E+02 -0.67901687553E+02  0.16429377464E+03  0.12508641672E+03 0.  0.
         23    2    1    2    0    0  0.54342116709E+02 -0.61499007442E+02 -0.55644514983E+02  0.13429781894E+03  0.90578135114E+02 0.  0.
          5    1    3    3  502    0 -0.64678472879E+02  0.63928155932E+02  0.43562543790E+01  0.91140349610E+02  0.41800000000E+01 0.  1.
         -5    1    3    3    0  502  0.10336356171E+02 -0.24291484900E+01 -0.72257941932E+02  0.73153425029E+02  0.41800000000E+01 0.  1.
        -11    1    4    4    0    0  0.75408354337E+02 -0.40985945932E+02 -0.59795137393E+02  0.10460270610E+03  0.00000000000E+00 0.  1.
         11    1    4    4    0    0 -0.21066237629E+02 -0.20513061509E+02  0.41506224104E+01  0.29695112842E+02  0.00000000000E+00 0. -1.
</event>
<event>
 8    1  0.4798744E-006  0.1634916E+03  0.7561462E-02  0.1184810E+00
          1   -1    0    0  501    0  0.00000000000E+00  0.00000000000E+00  0.96727544773E+03  0.96727544773E+03  0.00000000000E+00 0. -1.
         -1   -1    0    0    0  501 -0.00000000000E+00 -0.00000000000E+00 -0.48235433408E+02  0.48235433408E+02  0.00000000000E+00 0.  1.
         23    2    1    2    0    0  0.40131265050E+02 -0.14275892529E+03  0.21209484269E+03  0.28743789622E+03  0.12508274342E+03 0.  0.
         23    2    1    2    0    0 -0.40131265050E+02  0.14275892529E+03  0.70694517163E+03  0.72807298492E+03  0.91258788614E+02 0.  0.
          5    1    3    3  502    0  0.37342843732E+02 -0.53313002198E+02  0.18134907820E+03  0.19272188445E+03  0.41800000000E+01 0.  1.
         -5    1    3    3    0  502  0.27884213181E+01 -0.89445923090E+02  0.30745764491E+02  0.94716011767E+02  0.41800000000E+01 0.  1.
        -11    1    4    4    0    0  0.22500418194E+02  0.85542632283E+01  0.66370289521E+02  0.70600705162E+02  0.00000000000E+00 0. -1.
         11    1    4    4    0    0 -0.62631683245E+02  0.13420466206E+03  0.64057488210E+03  0.65747227976E+03  0.00000000000E+00 0.  1.
</event>
<event>
 7    1  0.4798744E-006  0.1180285E+03  0.7561462E-02  0.1246385E+00
          1   -1    0    0  501    0  0.00000000000E+00  0.00000000000E+00  0.16954541031E+02  0.16954541031E+02  0.00000000000E+00 0. -1.
         -1   -1    0    0    0  501 -0.00000000000E+00 -0.00000000000E+00 -0.14153098832E+04  0.14153098832E+04  0.00000000000E+00 0.  1.
         23    2    1    2    0    0  0.51347043576E+02 -0.25460946094E+02 -0.98069323845E+03  0.99029840112E+03  0.12508763586E+03 0.  0.
          5    1    3    3  502    0  0.44751569443E+02 -0.53173616669E+02 -0.26399023930E+03  0.27301731689E+03  0.41800000000E+01 0. -1.
         -5    1    3    3    0  502  0.65954741331E+01  0.27712670575E+02 -0.71670299916E+03  0.71728108423E+03  0.41800000000E+01 0. -1.
        -11    1    1    2    0    0 -0.59216151865E+02 -0.40159670820E+02 -0.14892135037E+03  0.16521779686E+03  0.00000000000E+00 0.  1.
         11    1    1    2    0    0  0.78691082888E+01  0.65620616914E+02 -0.26874075337E+03  0.27674822628E+03  0.00000000000E+00 0. -1.
</event>
<event>
 8    1  0.4798744E-006  0.1219447E+03  0.7561462E-02  0.1239923E+00
          2   -1    0    0  501    0  0.00000000000E+00  0.00000000000E+00  0.36138611305E+03  0.36138611305E+03  0.00000000000E+00 0. -1.
         -2   -1    0    0    0  501 -0.00000000000E+00 -0.00000000000E+00 -0.53694968702E+02  0.53694968702E+02  0.00000000000E+00 0.  1.
         23    2    1    2    0    0  0.53532999054E+02 -0.52836424716E+02  0.22823236990E+03  0.27202573641E+03  0.12747751502E+03 0.  0.
         23    2    1    2    0    0 -0.53532999054E+02  0.52836424716E+02  0.79458774453E+02  0.14305534534E+03  0.92161083052E+02 0.  0.
          5    1    3    3  502    0 -0.35203599593E+01 -0.82041884072E+02  0.14738922611E+03  0.16877298377E+03  0.41800000000E+01 0. -1.
         -5    1    3    3    0  502  0.57053359013E+02  0.29205459356E+02  0.80843143781E+02  0.10325275264E+03  0.41800000000E+01 0.  1.
        -11    1    4    4    0    0 -0.62268368530E+02  0.23055167658E+02  0.88582898274E+02  0.11070600861E+03  0.00000000000E+00 0. -1.
         11    1    4    4    0    0  0.87353694761E+01  0.29781257057E+02 -0.91241238207E+01  0.32349336737E+02  0.00000000000E+00 0.  1.
</event>
<event>
 8    1  0.4798744E-006  0.1594089E+03  0.7561462E-02  0.1189366E+00
         -1   -1    0    0    0  501 -0.00000000000E+00  0.00000000000E+00  0.15400652927E+03  0.15400652927E+03  0.00000000000E+00 0.  1.
          1   -1    0    0  501    0  0.00000000000E+00 -0.00000000000E+00 -0.21885578041E+03  0.21885578041E+03  0.00000000000E+00 0. -1.
         23    2    1    2    0    0  0.83502668742E+02  0.12162427730E+03 -0.21943882887E+02  0.19466399105E+03  0.12508946758E+03 0.  0.
         23    2    1    2    0    0 -0.83502668742E+02 -0.12162427730E+03 -0.42905368259E+02  0.17819831863E+03  0.90269649497E+02 0.  0.
          5    1    3    3  502    0  0.36363198181E+02  0.76494132547E+02  0.49193750939E+02  0.98036381142E+02  0.41800000000E+01 0.  1.
         -5    1    3    3    0  502  0.47139470561E+02  0.45130144756E+02 -0.71137633826E+02  0.96627609910E+02  0.41800000000E+01 0.  1.
        -11    1    4    4    0    0 -0.98971983103E+02 -0.91632551374E+02 -0.17606215099E+02  0.13602189795E+03  0.00000000000E+00 0.  1.
         11    1    4    4    0    0  0.15469314362E+02 -0.29991725928E+02 -0.25299153160E+02  0.42176420682E+02  0.00000000000E+00 0. -1.
</event>
<event>
 8    1  0.4798744E-006  0.7791162E+02  0.7561462E-02  0.1335085E+00
         -4   -1    0    0    0  501 -0.00000000000E+00  0.00000000000E+00  0.23519555874E+03  0.23519555874E+03  0.00000000000E+00 0.  1.
          4   -1    0    0  501    0  0.00000000000E+00 -0.00000000000E+00 -0.77464674086E+02  0.77464674086E+02  0.00000000000E+00 0. -1.
         23    2    1    2    0    0 -0.15276704020E+02 -0.35472068434E+02  0.16595413503E+03  0.21136620168E+03  0.12507298251E+03 0.  0.
         23    2    1    2    0    0  0.15276704020E+02  0.35472068434E+02 -0.82232503727E+01  0.10129403115E+03  0.93280295747E+02 0.  0.
          5    1    3    3  502    0  0.13346926599E+02 -0.58635703326E+02  0.16346328177E+03  0.17422400248E+03  0.41800000000E+01 0.  1.
         -5    1    3    3    0  502 -0.28623630620E+02  0.23163634892E+02  0.24908532593E+01  0.37142199197E+02  0.41800000000E+01 0.  1.
        -11    1    4    4    0    0 -0.15167605705E+02  0.17387647538E+02 -0.44795003323E+02  0.50388281102E+02  0.00000000000E+00 0. -1.
         11    1    4    4    0    0  0.30444309726E+02  0.18084420897E+02  0.36571752950E+02  0.50905750045E+02  0.00000000000E+00 0.  1.
</event>
<event>
 8    1  0.4798744E-006  0.2541481E+03  0.7561462E-02  0.1110711E+00
          2   -1    0    0  501    0  0.00000000000E+00  0.00000000000E+00  0.88958764591E+03  0.88958764591E+03  0.00000000000E+00 0.  1.
         -2   -1    0    0    0  501 -0.00000000000E+00 -0.00000000000E+00 -0.83830979503E+02  0.83830979503E+02  0.00000000000E+00 0. -1.
         23    2    1    2    0    0 -0.23513131177E+03 -0.58989483949E+01  0.26124530992E+03  0.37311827387E+03  0.12508638205E+03 0.  0.
         23    2    1    2    0    0  0.23513131177E+03  0.58989483949E+01  0.54451135648E+03  0.60030035154E+03  0.92446543229E+02 0.  0.
          5    1    3    3  502    0 -0.16079100940E+03 -0.53804916147E+02  0.12524508757E+03  0.21083766757E+03  0.41800000000E+01 0. -1.
         -5    1    3    3    0  502 -0.74340302370E+02  0.47905967752E+02  0.13600022235E+03  0.16228060630E+03  0.41800000000E+01 0. -1.
        -11    1    4    4    0    0  0.22224679073E+03  0.28570279436E+02  0.50991681009E+03  0.55697850054E+03  0.00000000000E+00 0.  1.
         11    1    4    4    0    0  0.12884521036E+02 -0.22671331041E+02  0.34594546391E+02  0.43321850993E+02  0.00000000000E+00 0. -1.
</event>
<event>
 8    1  0.4798744E-006  0.2058441E+03  0.7561462E-02  0.1144900E+00
         -1   -1    0    0    0  501 -0.00000000000E+00  0.00000000000E+00  0.52504673639E+03  0.52504673639E+03  0.00000000000E+00 0.  1.
          1   -1    0    0  501    0  0.00000000000E+00 -0.00000000000E+00 -0.97433835560E+02  0.97433835560E+02  0.00000000000E+00 0. -1.
         23    2    1    2    0    0 -0.15124197457E+03  0.92210002585E+02  0.34323962887E+03  0.40600190861E+03  0.12508911830E+03 0.  0.
         23    2    1    2    0    0  0.15124197457E+03 -0.92210002585E+02  0.84373271961E+02  0.21647866334E+03  0.91473183025E+02 0.  0.
          5    1    3    3  502    0 -0.50888859194E+01  0.68310438006E+02  0.10390246589E+03  0.12452071120E+03  0.41800000000E+01 0. -1.
         -5    1    3    3    0  502 -0.14615308865E+03  0.23899564579E+02  0.23933716298E+03  0.28148119741E+03  0.41800000000E+01 0. -1.
        -11    1    4    4    0    0 -0.99488111653E+01 -0.94111089594E+01  0.19861213423E+02  0.24124999774E+02  0.00000000000E+00 0. -1.
         11    1    4    4    0    0  0.16119078574E+03 -0.82798893626E+02  0.64512058538E+02  0.19235366357E+03  0.00000000000E+00 0.  1.
</event>
<event>
 8    1  0.4798744E-006  0.1257678E+03  0.7561462E-02  0.1233874E+00
         -1   -1    0    0    0  501 -0.00000000000E+00  0.00000000000E+00  0.18497022599E+03  0.18497022599E+03  0.00000000000E+00 0.  1.
          1   -1    0    0  501    0  0.00000000000E+00 -0.00000000000E+00 -0.10540216688E+03  0.10540216688E+03  0.00000000000E+00 0. -1.
         23    2    1    2    0    0  0.67952653694E+02 -0.30388459886E+02  0.90921281469E+02  0.17162412237E+03  0.12508852193E+03 0.  0.
         23    2    1    2    0    0 -0.67952653694E+02  0.30388459886E+02 -0.11353222356E+02  0.11874827050E+03  0.91821753684E+02 0.  0.
          5    1    3    3  502    0  0.20429336375E+02  0.45590517799E+02  0.10674702805E+02  0.51256948581E+02  0.41800000000E+01 0. -1.
         -5    1    3    3    0  502  0.47523317319E+02 -0.75978977685E+02  0.80246578663E+02  0.12036717379E+03  0.41800000000E+01 0. -1.
        -11    1    4    4    0    0 -0.57637209391E+02 -0.19421075609E+02 -0.25500997090E+02  0.65950943411E+02  0.00000000000E+00 0. -1.
         11    1    4    4    0    0 -0.10315444303E+02  0.49809535496E+02  0.14147774733E+02  0.52797327085E+02  0.00000000000E+00 0.  1.
</event>
<event>
 8    1  0.4798744E-006  0.8014749E+02  0.7561462E-02  0.1328633E+00
         -2   -1    0    0    0  501 -0.00000000000E+00  0.00000000000E+00  0.28701465945E+02  0.28701465945E+02  0.00000000000E+00 0.  1.
          2   -1    0    0  501    0  0.00000000000E+00 -0.00000000000E+00 -0.59604494867E+03  0.59604494867E+03  0.00000000000E+00 0. -1.
         23    2    1    2    0    0 -0.49989743832E+02 -0.31050650686E+02 -0.21228993531E+03  0.25333410819E+03  0.12509211144E+03 0.  0.
         23    2    1    2    0    0  0.49989743832E+02  0.31050650686E+02 -0.35505354742E+03  0.37141230643E+03  0.91765802088E+02 0.  0.
          5    1    3    3  502    0 -0.26988737168E+02 -0.42607318419E+02 -0.12874449679E+02  0.52220679537E+02  0.41800000000E+01 0.  1.
         -5    1    3    3    0  502 -0.23001006664E+02  0.11556667732E+02 -0.19941548563E+03  0.20111342866E+03  0.41800000000E+01 0.  1.
        -11    1    4    4    0    0 -0.13266044314E+02  0.28956563590E+00 -0.47143414384E+01  0.14081789488E+02  0.00000000000E+00 0.  1.
         11    1    4    4    0    0  0.63255788146E+02  0.30761085050E+02 -0.35033920598E+03  0.35733051694E+03  0.00000000000E+00 0. -1.
</event>
<event>
 8    1  0.4798744E-006  0.1167249E+03  0.7561462E-02  0.1248600E+00
         -2   -1    0    0    0  501 -0.00000000000E+00  0.00000000000E+00  0.10335717592E+03  0.10335717592E+03  0.00000000000E+00 0.  1.
          2   -1    0    0  501    0  0.00000000000E+00 -0.00000000000E+00 -0.14743990756E+03  0.14743990756E+03  0.00000000000E+00 0. -1.
         23    2    1    2    0    0  0.14201113588E+02  0.32189783351E+02  0.16112746224E+02  0.13093825604E+03  0.12508937815E+03 0.  0.
         23    2    1    2    0    0 -0.14201113588E+02 -0.32189783351E+02 -0.60195477862E+02  0.11985882744E+03  0.97492508333E+02 0.  0.
          5    1    3    3  502    0  0.66184236329E+02 -0.40143597263E+01  0.93793304135E+01  0.67096292457E+02  0.41800000000E+01 0.  1.
         -5    1    3    3    0  502 -0.51983122741E+02  0.36204143077E+02  0.67334158105E+01  0.63841963585E+02  0.41800000000E+01 0.  1.
        -11    1    4    4    0    0  0.37563289236E+02 -0.35462888739E+02 -0.27150728339E+02  0.58359054355E+02  0.00000000000E+00 0.  1.
         11    1    4    4    0    0 -0.51764402824E+02  0.32731053876E+01 -0.33044749523E+02  0.61499773086E+02  0.00000000000E+00 0. -1.
</event>
<event>
 8    1  0.4798744E-006  0.1381804E+03  0.7561462E-02  0.1215799E+00
          2   -1    0    0  501    0  0.00000000000E+00  0.00000000000E+00  0.95127711112E+03  0.95127711112E+03  0.00000000000E+00 0. -1.
         -2   -1    0    0    0  501 -0.00000000000E+00 -0.00000000000E+00 -0.21205882864E+02  0.21205882864E+02  0.00000000000E+00 0.  1.
         23    2    1    2    0    0  0.82935208455E+01 -0.89561697587E+02  0.44764177724E+03  0.47341457264E+03  0.12509243260E+03 0.  0.
         23    2    1    2    0    0 -0.82935208455E+01  0.89561697587E+02  0.48242945102E+03  0.49906842135E+03  0.90780139971E+02 0.  0.
          5    1    3    3  502    0 -0.13291234940E+02  0.27956558841E+02  0.58447268297E+02  0.66270518934E+02  0.41800000000E+01 0.  1.
         -5    1    3    3    0  502  0.21584755785E+02 -0.11751825643E+03  0.38919450894E+03  0.40714405371E+03  0.41800000000E+01 0.  1.
        -11    1    4    4    0    0 -0.41036095225E+02  0.82397114002E+02  0.39099300472E+03  0.40168243084E+03  0.00000000000E+00 0.  1.
         11    1    4    4    0    0  0.32742574380E+02  0.71645835856E+01  0.91436446297E+02  0.97385990504E+02  0.00000000000E+00 0. -1.
</event>
<event>
 8    1  0.4798744E-006  0.2059410E+03  0.7561462E-02  0.1144821E+00
         -1   -1    0    0    0  501 -0.00000000000E+00  0.00000000000E+00  0.10641622772E+04  0.10641622772E+04  0.00000000000E+00 0.  1.
          1   -1    0    0  501    0  0.00000000000E+00 -0.00000000000E+00 -0.41604514643E+02  0.41604514643E+02  0.00000000000E+00 0. -1.
         23    2    1    2    0    0 -0.78094548104E+02  0.15697113085E+03  0.63183172317E+03  0.66753074855E+03  0.12508908625E+03 0.  0.
         23    2    1    2    0    0  0.78094548104E+02 -0.15697113085E+03  0.39072603937E+03  0.43823604327E+03  0.92980091510E+02 0.  0.
          5    1    3    3  502    0 -0.11180052265E+03  0.13223925397E+03  0.51786951488E+03  0.54607040206E+03  0.41800000000E+01 0. -1.
         -5    1    3    3    0  502  0.33705974547E+02  0.24731876877E+02  0.11396220829E+03  0.12146034650E+03  0.41800000000E+01 0. -1.
        -11    1    4    4    0    0  0.73880478149E+02 -0.49124811333E+02  0.20596246617E+03  0.22425902348E+03  0.00000000000E+00 0. -1.
         11    1    4    4    0    0  0.42140699552E+01 -0.10784631951E+03  0.18476357319E+03  0.21397701979E+03  0.00000000000E+00 0.  1.
</event>
<event>
 8    1  0.4798744E-006  0.8710925E+02  0.7561462E-02  0.1310007E+00
          1   -1    0    0  501    0  0.00000000000E+00  0.00000000000E+00  0.47766866640E+02  0.47766866640E+02  0.00000000000E+00 0. -1.
         -1   -1    0    0    0  501 -0.00000000000E+00 -0.00000000000E+00 -0.38107362888E+03  0.38107362888E+03  0.00000000000E+00 0.  1.
         23    2    1    2    0    0  0.64383232661E+02 -0.42489983840E+02 -0.14816007154E+03  0.20868406987E+03  0.12508810833E+03 0.  0.
         23    2    1    2    0    0 -0.64383232661E+02  0.42489983840E+02 -0.18514669070E+03  0.22015642564E+03  0.90768691198E+02 0.  0.
          5    1    3    3  502    0  0.20655249164E+02 -0.40305010707E+02  0.82358283640E+01  0.46221580187E+02  0.41800000000E+01 0. -1.
         -5    1    3    3    0  502  0.43727983497E+02 -0.21849731339E+01 -0.15639589991E+03  0.16246248969E+03  0.41800000000E+01 0. -1.
        -11    1    4    4    0    0 -0.13767945236E+02 -0.56690192945E+01  0.64444242456E+01  0.16224201047E+02  0.00000000000E+00 0. -1.
         11    1    4    4    0    0 -0.50615287426E+02  0.48159003135E+02 -0.19159111494E+03  0.20393222460E+03  0.00000000000E+00 0.  1.
</event>
<event>
 8    1  0.4798744E-006  0.1491494E+03  0.7561462E-02  0.1201522E+00
          1   -1    0    0  501    0  0.00000000000E+00  0.00000000000E+00  0.55733355887E+02  0.55733355887E+02  0.00000000000E+00 0. -1.
         -1   -1    0    0    0  501 -0.00000000000E+00 -0.00000000000E+00 -0.48200394592E+03  0.48200394592E+03  0.00000000000E+00 0.  1.
         23    2    1    2    0    0  0.12332758705E+03 -0.19378558494E+02 -0.21937029134E+03  0.28170292810E+03  0.12509193708E+03 0.  0.
         23    2    1    2    0    0 -0.12332758705E+03  0.19378558494E+02 -0.20690029869E+03  0.25603437370E+03  0.84620592431E+02 0.  0.
          5    1    3    3  502    0  0.13926542194E+03 -0.21941916044E+02 -0.13342385619E+03  0.19415381332E+03  0.41800000000E+01 0.  1.
         -5    1    3    3    0  502 -0.15937834894E+02  0.25633575506E+01 -0.85946435155E+02  0.87549114781E+02  0.41800000000E+01 0.  1.
        -11    1    4    4    0    0 -0.29181125207E+02  0.34542440084E+02 -0.27664558141E+02  0.53009867123E+02  0.00000000000E+00 0. -1.
         11    1    4    4    0    0 -0.94146461840E+02 -0.15163881590E+02 -0.17923574055E+03  0.20302450658E+03  0.00000000000E+00 0.  1.
</event>
<event>
 8    1  0.4798744E-006  0.2002991E+03  0.7561462E-02  0.1149487E+00
         -1   -1    0    0    0  501 -0.00000000000E+00  0.00000000000E+00  0.29243039528E+03  0.29243039528E+03  0.00000000000E+00 0.  1.
          1   -1    0    0  501    0  0.00000000000E+00 -0.00000000000E+00 -0.21773214828E+03  0.21773214828E+03  0.00000000000E+00 0. -1.
         23    2    1    2    0    0  0.69116145799E+02  0.15938685275E+03  0.18695164148E+03  0.28422103418E+03  0.12509784001E+03 0.  0.
         23    2    1    2    0    0 -0.69116145799E+02 -0.15938685275E+03 -0.11225339449E+03  0.22594150938E+03  0.90925962439E+02 0.  0.
          5    1    3    3  502    0  0.33898148007E+01  0.14647847250E+03  0.12013309276E+03  0.18951745599E+03  0.41800000000E+01 0.  1.
         -5    1    3    3    0  502  0.65726330999E+02  0.12908380250E+02  0.66818548725E+02  0.94703578184E+02  0.41800000000E+01 0.  1.
        -11    1    4    4    0    0 -0.55362576144E+02 -0.44034791712E+02 -0.76954541448E+02  0.10452788703E+03  0.00000000000E+00 0. -1.
         11    1    4    4    0    0 -0.13753569655E+02 -0.11535206104E+03 -0.35298853040E+02  0.12141362234E+03  0.00000000000E+00 0.  1.
</event>
<event>
 8    1  0.6072259E-006  0.2417962E+03  0.7561462E-02  0.1118602E+00
          2   -1    0    0  501    0  0.00000000000E+00  0.00000000000E+00  0.19857646457E+03  0.19857646457E+03  0.00000000000E+00 0. -1.
         -2   -1    0    0    0  501 -0.00000000000E+00 -0.00000000000E+00 -0.34785467413E+03  0.34785467413E+03  0.00000000000E+00 0.  1.
         23    2    1    2    0    0  0.17849640376E+03  0.15566020610E+03 -0.42639272498E+02  0.27121402468E+03  0.12509146136E+03 0.  0.
         23    2    1    2    0    0 -0.17849640376E+03 -0.15566020610E+03 -0.10663893706E+03  0.27521711401E+03  0.91002917689E+02 0.  0.
          5    1    3    3  502    0  0.29824569515E+02  0.36815019076E+02  0.41448604021E+02  0.63089696081E+02  0.41800000000E+01 0. -1.
         -5    1    3    3    0  502  0.14867183425E+03  0.11884518702E+03 -0.84087876520E+02  0.20812432860E+03  0.41800000000E+01 0. -1.
        -11    1    4    4    0    0 -0.14753881324E+03 -0.89397478945E+02 -0.10521838623E+03  0.20206563155E+03  0.00000000000E+00 0. -1.
         11    1    4    4    0    0 -0.30957590523E+02 -0.66262727155E+02 -0.14205508274E+01  0.73151482457E+02  0.00000000000E+00 0.  1.
</event>
<event>
 7    1  0.4798744E-006  0.1071173E+03  0.7561462E-02  0.1266003E+00
         -2   -1    0    0    0  501 -0.00000000000E+00  0.00000000000E+00  0.11636307775E+03  0.11636307775E+03  0.00000000000E+00 0. -1.
          2   -1    0    0  501    0  0.00000000000E+00 -0.00000000000E+00 -0.14987429115E+03  0.14987429115E+03  0.00000000000E+00 0.  1.
         23    2    1    2    0    0  0.34542843238E+02  0.95632652331E+01 -0.70256892955E+02  0.12151250744E+03  0.92436975267E+02 0.  0.
          5    1    1    2  502    0 -0.74792391602E+02 -0.99483529081E+01  0.61375220429E+02  0.97351228292E+02  0.41800000000E+01 0. -1.
         -5    1    1    2    0  502  0.40249548364E+02  0.38508767494E+00 -0.24629540875E+02  0.47373633170E+02  0.41800000000E+01 0.  1.
        -11    1    3    3    0    0  0.61577272900E+02 -0.13061556490E+02 -0.52873926000E+02  0.82207158121E+02  0.00000000000E+00 0.  1.
         11    1    3    3    0    0 -0.27034429662E+02  0.22624821723E+02 -0.17382966956E+02  0.39305349322E+02  0.00000000000E+00 0. -1.
</event>
<event>
 8    1  0.4798744E-006  0.7442776E+02  0.7561462E-02  0.1345652E+00
         -1   -1    0    0    0  501 -0.00000000000E+00  0.00000000000E+00  0.21010012846E+03  0.21010012846E+03  0.00000000000E+00 0.  1.
          1   -1    0    0  501    0  0.00000000000E+00 -0.00000000000E+00 -0.92551667557E+02  0.92551667557E+02  0.00000000000E+00 0. -1.
         23    2    1    2    0    0  0.21750540965E+02  0.17510885212E+02  0.11631460766E+03  0.17307804832E+03  0.12508879136E+03 0.  0.
         23    2    1    2    0    0 -0.21750540965E+02 -0.17510885212E+02  0.12338532421E+01  0.12957374769E+03  0.12652318587E+03 0.  0.
          5    1    3    3  502    0 -0.13884963229E+02 -0.26104985151E+02  0.11258454284E+03  0.11647752633E+03  0.41800000000E+01 0. -1.
         -5    1    3    3    0  502  0.35635504193E+02  0.43615870362E+02  0.37300648197E+01  0.56600521995E+02  0.41800000000E+01 0. -1.
        -11    1    4    4    0    0 -0.38094517545E+02 -0.23896182729E+02  0.56141118638E+02  0.71930834959E+02  0.00000000000E+00 0.  1.
         11    1    4    4    0    0  0.16343976580E+02  0.63852975171E+01 -0.54907265396E+02  0.57642912731E+02  0.00000000000E+00 0. -1.
</event>
<event>
 8    1  0.4798744E-006  0.1047854E+03  0.7561462E-02  0.1270543E+00
          2   -1    0    0  501    0  0.00000000000E+00  0.00000000000E+00  0.20374183518E+03  0.20374183518E+03  0.00000000000E+00 0. -1.
         -2   -1    0    0    0  501 -0.00000000000E+00 -0.00000000000E+00 -0.58427002967E+02  0.58427002967E+02  0.00000000000E+00 0.  1.
         23    2    1    2    0    0 -0.21755491872E+02  0.10525378833E+02  0.63667663197E+02  0.14532172396E+03  0.12837736206E+03 0.  0.
         23    2    1    2    0    0  0.21755491872E+02 -0.10525378833E+02  0.81647169012E+02  0.11684711419E+03  0.80018140817E+02 0.  0.
          5    1    3    3  502    0 -0.37765295238E+02 -0.52858931424E+02  0.30286229370E+02  0.71798413946E+02  0.41800000000E+01 0. -1.
         -5    1    3    3    0  502  0.16009803365E+02  0.63384310257E+02  0.33381433827E+02  0.73523310011E+02  0.41800000000E+01 0.  1.
        -11    1    4    4    0    0  0.45550087444E+02  0.11020571493E+02  0.28774606318E+02  0.54993103486E+02  0.00000000000E+00 0. -1.
         11    1    4    4    0    0 -0.23794595572E+02 -0.21545950326E+02  0.52872562694E+02  0.61854010700E+02  0.00000000000E+00 0.  1.
</event>
<event>
 8    1  0.4798744E-006  0.2417136E+03  0.7561462E-02  0.1118657E+00
          1   -1    0    0  501    0  0.00000000000E+00  0.00000000000E+00  0.24982407901E+03  0.24982407901E+03  0.00000000000E+00 0. -1.
         -1   -1    0    0    0  501 -0.00000000000E+00 -0.00000000000E+00 -0.23513630712E+03  0.23513630712E+03  0.00000000000E+00 0.  1.
         23    2    1    2    0    0  0.18275460974E+03  0.11607527465E+03  0.73491115777E+01  0.25014279428E+03  0.12507874049E+03 0.  0.
         23    2    1    2    0    0 -0.18275460974E+03 -0.11607527465E+03  0.73386603153E+01  0.23481759185E+03  0.90624106840E+02 0.  0.
          5    1    3    3  502    0  0.20025019404E+03  0.11624551789E+03  0.28522593736E+01  0.23160044997E+03  0.41800000000E+01 0. -1.
         -5    1    3    3    0  502 -0.17495584302E+02 -0.17024323464E+00  0.44968522041E+01  0.18542344311E+02  0.41800000000E+01 0. -1.
        -11    1    4    4    0    0 -0.17732937387E+03 -0.75189578574E+02 -0.15904440573E+01  0.19261803933E+03  0.00000000000E+00 0.  1.
         11    1    4    4    0    0 -0.54252358711E+01 -0.40885696079E+02  0.89291043726E+01  0.42199552522E+02  0.00000000000E+00 0. -1.
</event>
<event>
 8    1  0.4798744E-006  0.1064237E+03  0.7561462E-02  0.1267340E+00
         -1   -1    0    0    0  501 -0.00000000000E+00  0.00000000000E+00  0.80749891295E+02  0.80749891295E+02  0.00000000000E+00 0.  1.
          1   -1    0    0  501    0  0.00000000000E+00 -0.00000000000E+00 -0.25466648452E+03  0.25466648452E+03  0.00000000000E+00 0. -1.
         23    2    1    2    0    0  0.12150373567E+02 -0.81556848756E+02 -0.77277194608E+02  0.16857749103E+03  0.12508978583E+03 0.  0.
         23    2    1    2    0    0 -0.12150373567E+02  0.81556848756E+02 -0.96639398613E+02  0.16683888478E+03  0.10815215649E+03 0.  0.
          5    1    3    3  502    0  0.87560215155E+01 -0.31972048508E+02  0.33361670259E+02  0.47216027375E+02  0.41800000000E+01 0. -1.
         -5    1    3    3    0  502  0.33943520511E+01 -0.49584800248E+02 -0.11063886487E+03  0.12136146366E+03  0.41800000000E+01 0. -1.
        -11    1    4    4    0    0  0.12325234201E+02  0.98834335102E+02 -0.50101074930E+02  0.11149105301E+03  0.00000000000E+00 0.  1.
         11    1    4    4    0    0 -0.24475607768E+02 -0.17277486346E+02 -0.46538323683E+02  0.55347831767E+02  0.00000000000E+00 0. -1.
</event>
<event>
 8    1  0.4798744E-006  0.1083780E+03  0.7561462E-02  0.1263603E+00
         -1   -1    0    0    0  501 -0.00000000000E+00  0.00000000000E+00  0.12336947576E+03  0.12336947576E+03  0.00000000000E+00 0.  1.
          1   -1    0    0  501    0  0.00000000000E+00 -0.00000000000E+00 -0.12184285586E+03  0.12184285586E+03  0.00000000000E+00 0. -1.
         23    2    1    2    0    0 -0.37052383629E+02 -0.44051399727E+02  0.96353723862E+01  0.13803169752E+03  0.12508598710E+03 0.  0.
         23    2    1    2    0    0  0.37052383629E+02  0.44051399727E+02 -0.81087524887E+01  0.10718063410E+03  0.90047384793E+02 0.  0.
          5    1    3    3  502    0 -0.76613733959E+01  0.36814639110E+02 -0.24824332559E+02  0.45251897000E+02  0.41800000000E+01 0.  1.
         -5    1    3    3    0  502 -0.29391010233E+02 -0.80866038837E+02  0.34459704946E+02  0.92779800520E+02  0.41800000000E+01 0.  1.
        -11    1    4    4    0    0  0.57571342052E+02  0.19506662560E+02  0.20614324445E+02  0.64186600488E+02  0.00000000000E+00 0.  1.
         11    1    4    4    0    0 -0.20518958423E+02  0.24544737167E+02 -0.28723076934E+02  0.42994033608E+02  0.00000000000E+00 0. -1.
</event>
<event>
 8    1  0.4798744E-006  0.1289042E+03  0.7561462E-02  0.1229091E+00
          1   -1    0    0  501    0  0.00000000000E+00  0.00000000000E+00  0.18028839179E+03  0.18028839179E+03  0.00000000000E+00 0.  1.
         -1   -1    0    0    0  501 -0.00000000000E+00 -0.00000000000E+00 -0.12265081735E+03  0.12265081735E+03  0.00000000000E+00 0. -1.
         23    2    1    2    0    0 -0.82767614138E+02 -0.25226289426E+02 -0.19018437901E+02  0.15328581918E+03  0.12509195719E+03 0.  0.
         23    2    1    2    0    0  0.82767614138E+02  0.25226289426E+02  0.76656012338E+02  0.14965338996E+03  0.95042881220E+02 0.  0.
          5    1    3    3  502    0 -0.90864660280E+02 -0.53011713337E+02  0.17263509930E+02  0.10668706301E+03  0.41800000000E+01 0. -1.
         -5    1    3    3    0  502  0.80970461421E+01  0.27785423912E+02 -0.36281947830E+02  0.46598756170E+02  0.41800000000E+01 0. -1.
        -11    1    4    4    0    0  0.47803939187E+02 -0.31071471294E+02  0.56781323459E+02  0.80465965625E+02  0.00000000000E+00 0.  1.
         11    1    4    4    0    0  0.34963674951E+02  0.56297760720E+02  0.19874688879E+02  0.69187424335E+02  0.00000000000E+00 0. -1.
</event>
<event>
 8    1  0.4798744E-006  0.1226855E+03  0.7561462E-02  0.1238732E+00
          2   -1    0    0  501    0  0.00000000000E+00  0.00000000000E+00  0.10300484237E+04  0.10300484237E+04  0.00000000000E+00 0. -1.
         -2   -1    0    0    0  501 -0.00000000000E+00 -0.00000000000E+00 -0.14717411441E+02  0.14717411441E+02  0.00000000000E+00 0.  1.
         23    2    1    2    0    0 -0.67080104889E+02 -0.12349950678E+02  0.52225796452E+03  0.53805933264E+03  0.11001000945E+03 0.  0.
         23    2    1    2    0    0  0.67080104889E+02  0.12349950678E+02  0.49307304778E+03  0.50670650254E+03  0.94753298204E+02 0.  0.
          5    1    3    3  502    0 -0.85020138488E+02 -0.41637963693E+02  0.39074514679E+03  0.40207136942E+03  0.41800000000E+01 0. -1.
         -5    1    3    3    0  502  0.17940033600E+02  0.29288013015E+02  0.13151281773E+03  0.13598796322E+03  0.41800000000E+01 0.  1.
        -11    1    4    4    0    0  0.52761794696E+02  0.51862950504E+02  0.28622333166E+03  0.29563045885E+03  0.00000000000E+00 0.  1.
         11    1    4    4    0    0  0.14318310193E+02 -0.39512999827E+02  0.20684971612E+03  0.21107604369E+03  0.00000000000E+00 0. -1.
</event>
<event>
 8    1  0.4798744E-006  0.1205736E+03  0.7561462E-02  0.1242154E+00
          1   -1    0    0  501    0  0.00000000000E+00  0.00000000000E+00  0.11372812814E+03  0.11372812814E+03  0.00000000000E+00 0.  1.
         -1   -1    0    0    0  501 -0.00000000000E+00 -0.00000000000E+00 -0.24781443196E+03  0.24781443196E+03  0.00000000000E+00 0. -1.
         23    2    1    2    0    0 -0.10288472514E+03 -0.47109166829E+02 -0.13583688816E+03  0.21657761224E+03  0.12509860779E+03 0.  0.
         23    2    1    2    0    0  0.10288472514E+03  0.47109166829E+02  0.17505843371E+01  0.14496494785E+03  0.90593770727E+02 0.  0.
          5    1    3    3  502    0 -0.13706981546E+02 -0.12422679439E+02 -0.11755011343E+03  0.11907017206E+03  0.41800000000E+01 0.  1.
         -5    1    3    3    0  502 -0.89177743594E+02 -0.34686487390E+02 -0.18286774731E+02  0.97507440178E+02  0.41800000000E+01 0.  1.
        -11    1    4    4    0    0  0.77690599167E+02  0.59945660996E+02 -0.29842341825E+02  0.10256645083E+03  0.00000000000E+00 0. -1.
         11    1    4    4    0    0  0.25194125974E+02 -0.12836494168E+02  0.31592926162E+02  0.42398497021E+02  0.00000000000E+00 0.  1.
</event>
<event>
 8    1  0.4798744E-006  0.1460490E+03  0.7561462E-02  0.1205414E+00
          1   -1    0    0  501    0  0.00000000000E+00  0.00000000000E+00  0.17437887852E+03  0.17437887852E+03  0.00000000000E+00 0. -1.
         -1   -1    0    0    0  501 -0.00000000000E+00 -0.00000000000E+00 -0.19884240586E+03  0.19884240586E+03  0.00000000000E+00 0.  1.
         23    2    1    2    0    0 -0.14295001474E+03 -0.82779351508E+01  0.33577730032E+02  0.19307875012E+03  0.12509479952E+03 0.  0.
         23    2    1    2    0    0  0.14295001474E+03  0.82779351508E+01 -0.58041257373E+02  0.18014253426E+03  0.92624587273E+02 0.  0.
          5    1    3    3  502    0 -0.14169025028E+03 -0.33972424210E+01  0.68553573025E+02  0.15749518423E+03  0.41800000000E+01 0. -1.
         -5    1    3    3    0  502 -0.12597644583E+01 -0.48806927299E+01 -0.34975842993E+02  0.35583565885E+02  0.41800000000E+01 0. -1.
        -11    1    4    4    0    0  0.12277932864E+03  0.11554875712E+02 -0.82422575731E+02  0.14832990152E+03  0.00000000000E+00 0.  1.
         11    1    4    4    0    0  0.20170686104E+02 -0.32769405611E+01  0.24381318358E+02  0.31812632745E+02  0.00000000000E+00 0. -1.
</event>
<event>
 8    1  0.4798744E-006  0.1186188E+03  0.7561462E-02  0.1245393E+00
          1   -1    0    0  501    0  0.00000000000E+00  0.00000000000E+00  0.30075391324E+03  0.30075391324E+03  0.00000000000E+00 0. -1.
         -1   -1    0    0    0  501 -0.00000000000E+00 -0.00000000000E+00 -0.75118619765E+02  0.75118619765E+02  0.00000000000E+00 0.  1.
         23    2    1    2    0    0  0.77981119930E+02 -0.94647260172E+01  0.37423096446E+02  0.15237822213E+03  0.12509195948E+03 0.  0.
         23    2    1    2    0    0 -0.77981119930E+02  0.94647260172E+01  0.18821219703E+03  0.22349431087E+03  0.91407000710E+02 0.  0.
          5    1    3    3  502    0  0.10598337905E+03  0.66342753510E+01  0.50021595625E+02  0.11745689709E+03  0.41800000000E+01 0. -1.
         -5    1    3    3    0  502 -0.28002259122E+02 -0.16099001368E+02 -0.12598499179E+02  0.34921325040E+02  0.41800000000E+01 0. -1.
        -11    1    4    4    0    0 -0.83611940392E+02 -0.40954347782E+01  0.19100879513E+03  0.20854757006E+03  0.00000000000E+00 0. -1.
         11    1    4    4    0    0  0.56308204617E+01  0.13560160795E+02 -0.27965981040E+01  0.14946740809E+02  0.00000000000E+00 0.  1.
</event>
<event>
 8    1  0.4798744E-006  0.1428316E+03  0.7561462E-02  0.1209569E+00
          1   -1    0    0  501    0  0.00000000000E+00  0.00000000000E+00  0.33587126665E+03  0.33587126665E+03  0.00000000000E+00 0. -1.
         -1   -1    0    0    0  501 -0.00000000000E+00 -0.00000000000E+00 -0.86097719657E+02  0.86097719657E+02  0.00000000000E+00 0.  1.
         23    2    1    2    0    0  0.10145799419E+03  0.57343331288E+02  0.62742883829E+02  0.18210079641E+03  0.12506817482E+03 0.  0.
         23    2    1    2    0    0 -0.10145799419E+03 -0.57343331288E+02  0.18703066317E+03  0.23986818990E+03  0.94732768003E+02 0.  0.
          5    1    3    3  502    0  0.10504459894E+03  0.29792824319E+02 -0.43587368229E+01  0.10935470330E+03  0.41800000000E+01 0. -1.
         -5    1    3    3    0  502 -0.35866047504E+01  0.27550506969E+02  0.67101620652E+02  0.72746093105E+02  0.41800000000E+01 0. -1.
        -11    1    4    4    0    0 -0.67092443114E+02 -0.82039750130E+02  0.11548819854E+03  0.15674642110E+03  0.00000000000E+00 0.  1.
         11    1    4    4    0    0 -0.34365551078E+02  0.24696418842E+02  0.71542464626E+02  0.83121768805E+02  0.00000000000E+00 0. -1.
</event>
<event>
 8    1  0.4798744E-006  0.1350603E+03  0.7561462E-02  0.1220135E+00
          1   -1    0    0  501    0  0.00000000000E+00  0.00000000000E+00  0.10069871289E+04  0.10069871289E+04  0.00000000000E+00 0. -1.
         -1   -1    0    0    0  501 -0.00000000000E+00 -0.00000000000E+00 -0.21499711082E+02  0.21499711082E+02  0.00000000000E+00 0.  1.
         23    2    1    2    0    0 -0.81154879491E+02  0.43366655510E+02  0.36251691733E+03  0.39238168828E+03  0.11865113850E+03 0.  0.
         23    2    1    2    0    0  0.81154879491E+02 -0.43366655510E+02  0.62297050047E+03  0.63610515169E+03  0.89837287774E+02 0.  0.
          5    1    3    3  502    0 -0.81220851807E+01 -0.36827573051E+02  0.13609802459E+03  0.14128829782E+03  0.41800000000E+01 0. -1.
         -5    1    3    3    0  502 -0.73032794310E+02  0.80194228561E+02  0.22641889275E+03  0.25109339046E+03  0.41800000000E+01 0.  1.
        -11    1    4    4    0    0 -0.16664238605E+02 -0.13220270022E+02  0.54715681348E+02  0.58705009779E+02  0.00000000000E+00 0.  1.
         11    1    4    4    0    0  0.97819118095E+02 -0.30146385487E+02  0.56825481912E+03  0.57740014191E+03  0.00000000000E+00 0. -1.
</event>
<event>
 8    1  0.4798744E-006  0.1182488E+03  0.7561462E-02  0.1246014E+00
         -1   -1    0    0    0  501 -0.00000000000E+00  0.00000000000E+00  0.20238530539E+03  0.20238530539E+03  0.00000000000E+00 0.  1.
          1   -1    0    0  501    0  0.00000000000E+00 -0.00000000000E+00 -0.99381483142E+02  0.99381483142E+02  0.00000000000E+00 0. -1.
         23    2    1    2    0    0  0.84281402475E+02 -0.29473286388E+02  0.79655406605E+02  0.17310198552E+03  0.12508910495E+03 0.  0.
         23    2    1    2    0    0 -0.84281402475E+02  0.29473286388E+02  0.23348415644E+02  0.12866480301E+03  0.89651846646E+02 0.  0.
          5    1    3    3  502    0  0.10483995285E+02 -0.61907561328E+02  0.49567854625E+01  0.63122915244E+02  0.41800000000E+01 0.  1.
         -5    1    3    3    0  502  0.73797407190E+02  0.32434274940E+02  0.74698621143E+02  0.10997907028E+03  0.41800000000E+01 0.  1.
        -11    1    4    4    0    0 -0.77680731518E+02  0.18195250720E+02 -0.20942744241E+02  0.82486130557E+02  0.00000000000E+00 0. -1.
         11    1    4    4    0    0 -0.66006709567E+01  0.11278035668E+02  0.44291159885E+02  0.46178672454E+02  0.00000000000E+00 0.  1.
</event>
<event>
 7    1  0.4798744E-006  0.9055771E+02  0.7561462E-02  0.1301507E+00
          1   -1    0    0  501    0  0.00000000000E+00  0.00000000000E+00  0.65235204701E+03  0.65235204701E+03  0.00000000000E+00 0. -1.
         -1   -1    0    0    0  501 -0.00000000000E+00 -0.00000000000E+00 -0.19513932743E+02  0.19513932743E+02  0.00000000000E+00 0.  1.
         23    2    1    2    0    0 -0.54291181425E+02 -0.46828608380E+02  0.26912216384E+03  0.30046780829E+03  0.11275510546E+03 0.  0.
          5    1    3    3  502    0 -0.66831211010E+02 -0.11002838505E+02  0.24739447614E+03  0.25653259528E+03  0.41800000000E+01 0. -1.
         -5    1    3    3    0  502  0.12540029585E+02 -0.35825769875E+02  0.21727687699E+02  0.43935213006E+02  0.41800000000E+01 0.  1.
        -11    1    1    2    0    0  0.25341963555E+02  0.36287381951E+02  0.20597861684E+03  0.21068027863E+03  0.00000000000E+00 0. -1.
         11    1    1    2    0    0  0.28949217870E+02  0.10541226429E+02  0.15773733359E+03  0.16071789283E+03  0.00000000000E+00 0.  1.
</event>
<event>
 8    1  0.4798744E-006  0.1082933E+03  0.7561462E-02  0.1263763E+00
          1   -1    0    0  501    0  0.00000000000E+00  0.00000000000E+00  0.77857275737E+02  0.77857275737E+02  0.00000000000E+00 0. -1.
         -1   -1    0    0    0  501 -0.00000000000E+00 -0.00000000000E+00 -0.43787883962E+03  0.43787883962E+03  0.00000000000E+00 0.  1.
         23    2    1    2    0    0 -0.55055619429E+02  0.99669331997E+01 -0.39062839885E+03  0.41396689450E+03  0.12509029847E+03 0.  0.
         23    2    1    2    0    0  0.55055619429E+02 -0.99669331997E+01  0.30606834960E+02  0.10176922086E+03  0.79307849419E+02 0.  0.
          5    1    3    3  502    0  0.12516063113E+02  0.42560387308E+02 -0.25547008061E+03  0.25932696137E+03  0.41800000000E+01 0. -1.
         -5    1    3    3    0  502 -0.67571682542E+02 -0.32593454109E+02 -0.13515831823E+03  0.15463993313E+03  0.41800000000E+01 0. -1.
        -11    1    4    4    0    0  0.75224676134E+02 -0.21404051343E+01  0.21247259001E+02  0.78197053964E+02  0.00000000000E+00 0.  1.
         11    1    4    4    0    0 -0.20169056704E+02 -0.78265280654E+01  0.93595759591E+01  0.23572166893E+02  0.00000000000E+00 0. -1.
</event>
<event>
 8    1  0.4798744E-006  0.6903535E+02  0.7561462E-02  0.1363404E+00
          2   -1    0    0  501    0  0.00000000000E+00  0.00000000000E+00  0.35880362001E+03  0.35880362001E+03  0.00000000000E+00 0.  1.
         -2   -1    0    0    0  501 -0.00000000000E+00 -0.00000000000E+00 -0.35406758265E+02  0.35406758265E+02  0.00000000000E+00 0. -1.
         23    2    1    2    0    0  0.21536727481E+02  0.11078196784E+02  0.15246796536E+03  0.19870534649E+03  0.12510306627E+03 0.  0.
         23    2    1    2    0    0 -0.21536727481E+02 -0.11078196784E+02  0.17092889638E+03  0.19550503178E+03  0.91754960398E+02 0.  0.
          5    1    3    3  502    0  0.39830426581E+02 -0.78013630223E+01  0.16450630852E+03  0.16949077288E+03  0.41800000000E+01 0. -1.
         -5    1    3    3    0  502 -0.18293699100E+02  0.18879559806E+02 -0.12038343166E+02  0.29214573613E+02  0.41800000000E+01 0. -1.
        -11    1    4    4    0    0 -0.45596397097E+02 -0.52778723273E+01  0.16326791564E+03  0.16959746354E+03  0.00000000000E+00 0.  1.
         11    1    4    4    0    0  0.24059669617E+02 -0.58003244565E+01  0.76609807480E+01  0.25907568236E+02  0.00000000000E+00 0. -1.
</event>
<event>
 8    1  0.6898483E-006  0.1668123E+03  0.7561462E-02  0.1181213E+00
         -2   -1    0    0    0  501 -0.00000000000E+00  0.00000000000E+00  0.22766303096E+02  0.22766303096E+02  0.00000000000E+00 0.  1.
          2   -1    0    0  501    0  0.00000000000E+00 -0.00000000000E+00 -0.13729899812E+04  0.13729899812E+04  0.00000000000E+00 0. -1.
         23    2    1    2    0    0  0.11489679600E+03 -0.74966400775E+02 -0.64307770063E+03  0.66934128999E+03  0.12509036120E+03 0.  0.
         23    2    1    2    0    0 -0.11489679600E+03  0.74966400775E+02 -0.70714597744E+03  0.72641499426E+03  0.93819377055E+02 0.  0.
          5    1    3    3  502    0 -0.11556656572E+02 -0.40046571365E+02 -0.28308548279E+03  0.28616804007E+03  0.41800000000E+01 0. -1.
         -5    1    3    3    0  502  0.12645345257E+03 -0.34919829409E+02 -0.35999221783E+03  0.38317324992E+03  0.41800000000E+01 0. -1.
        -11    1    4    4    0    0 -0.24838769426E+02  0.65350688526E+02 -0.21739803034E+03  0.22836282656E+03  0.00000000000E+00 0.  1.
         11    1    4    4    0    0 -0.90058026576E+02  0.96157122486E+01 -0.48974794710E+03  0.49805216771E+03  0.00000000000E+00 0. -1.
</event>
<event>
 8    1  0.4798744E-006  0.1080279E+03  0.7561462E-02  0.1264266E+00
         -4   -1    0    0    0  501 -0.00000000000E+00  0.00000000000E+00  0.12604759898E+03  0.12604759898E+03  0.00000000000E+00 0.  1.
          4   -1    0    0  501    0  0.00000000000E+00 -0.00000000000E+00 -0.10384675281E+03  0.10384675281E+03  0.00000000000E+00 0. -1.
         23    2    1    2    0    0 -0.90409501476E+01 -0.27558707845E+02  0.39015451187E+02  0.13420532694E+03  0.12509053997E+03 0.  0.
         23    2    1    2    0    0  0.90409501476E+01  0.27558707845E+02 -0.16814605012E+02  0.95689024853E+02  0.89623866118E+02 0.  0.
          5    1    3    3  502    0 -0.44632058365E+01 -0.77127927698E+02  0.32136207529E+02  0.83778551383E+02  0.41800000000E+01 0.  1.
         -5    1    3    3    0  502 -0.45777443111E+01  0.49569219854E+02  0.68792436573E+01  0.50426775558E+02  0.41800000000E+01 0.  1.
        -11    1    4    4    0    0  0.44697824518E+02  0.17841270306E+01  0.75961038025E+01  0.45373774572E+02  0.00000000000E+00 0.  1.
         11    1    4    4    0    0 -0.35656874371E+02  0.25774580814E+02 -0.24410708814E+02  0.50315250281E+02  0.00000000000E+00 0. -1.
</event>
<event>
 8    1  0.4798744E-006  0.1659442E+03  0.7561462E-02  0.1182145E+00
          2   -1    0    0  501    0  0.00000000000E+00  0.00000000000E+00  0.60675987378E+03  0.60675987378E+03  0.00000000000E+00 0. -1.
         -2   -1    0    0    0  501 -0.00000000000E+00 -0.00000000000E+00 -0.63042213433E+02  0.63042213433E+02  0.00000000000E+00 0.  1.
         23    2    1    2    0    0  0.12523828242E+03 -0.71408903235E+02  0.15657534805E+03  0.24693547688E+03  0.12520954948E+03 0.  0.
         23    2    1    2    0    0 -0.12523828242E+03  0.71408903235E+02  0.38714231230E+03  0.42286661034E+03  0.90294746911E+02 0.  0.
          5    1    3    3  502    0  0.92352861515E+02 -0.33823101752E+01  0.26129254081E+02  0.96128566883E+02  0.41800000000E+01 0.  1.
         -5    1    3    3    0  502  0.32885420902E+02 -0.68026593060E+02  0.13044609397E+03  0.15080691000E+03  0.41800000000E+01 0.  1.
        -11    1    4    4    0    0 -0.94130410384E+02  0.97380761088E+01  0.16474833732E+03  0.18999310234E+03  0.00000000000E+00 0.  1.
         11    1    4    4    0    0 -0.31107872033E+02  0.61670827126E+02  0.22239397498E+03  0.23287350800E+03  0.00000000000E+00 0. -1.
</event>
<event>
 8    1  0.4798744E-006  0.1425552E+03  0.7561462E-02  0.1209932E+00
         -3   -1    0    0    0  501 -0.00000000000E+00  0.00000000000E+00  0.35892295639E+03  0.35892295639E+03  0.00000000000E+00 0.  1.
          3   -1    0    0  501    0  0.00000000000E+00 -0.00000000000E+00 -0.80764002585E+02  0.80764002585E+02  0.00000000000E+00 0. -1.
         23    2    1    2    0    0  0.89139987940E+02 -0.62227949358E+02  0.24228634803E+03  0.29354770680E+03  0.12509726854E+03 0.  0.
         23    2    1    2    0    0 -0.89139987940E+02  0.62227949358E+02  0.35872605776E+02  0.14613925217E+03  0.90838219103E+02 0.  0.
          5    1    3    3  502    0  0.22486954284E+02 -0.75300859307E+02  0.19610274869E+03  0.21130462127E+03  0.41800000000E+01 0. -1.
         -5    1    3    3    0  502  0.66653033656E+02  0.13072909950E+02  0.46183599339E+02  0.82243085533E+02  0.41800000000E+01 0. -1.
        -11    1    4    4    0    0 -0.79316440307E+02  0.41143589384E+01  0.49386173244E+01  0.79576476383E+02  0.00000000000E+00 0.  1.
         11    1    4    4    0    0 -0.98235476327E+01  0.58113590419E+02  0.30933988452E+02  0.66562775791E+02  0.00000000000E+00 0. -1.
</event>
<event>
 8    1  0.4798744E-006  0.1038680E+03  0.7561462E-02  0.1272366E+00
          2   -1    0    0  501    0  0.00000000000E+00  0.00000000000E+00  0.11823628767E+03  0.11823628767E+03  0.00000000000E+00 0. -1.
         -2   -1    0    0    0  501 -0.00000000000E+00 -0.00000000000E+00 -0.12897365914E+03  0.12897365914E+03  0.00000000000E+00 0.  1.
         23    2    1    2    0    0 -0.35900390418E+02  0.36041246436E+02 -0.31912363042E+02  0.13882447548E+03  0.12516399882E+03 0.  0.
         23    2    1    2    0    0  0.35900390418E+02 -0.36041246436E+02  0.21174991576E+02  0.10838547133E+03  0.93333920150E+02 0.  0.
          5    1    3    3  502    0 -0.63591489461E+02  0.59000683989E+02  0.51597199680E+01  0.87000306627E+02  0.41800000000E+01 0.  1.
         -5    1    3    3    0  502  0.27691099043E+02 -0.22959437553E+02 -0.37072083010E+02  0.51824168857E+02  0.41800000000E+01 0.  1.
        -11    1    4    4    0    0  0.25172886870E+02  0.17119922252E+02  0.40629161675E+02  0.50769033373E+02  0.00000000000E+00 0. -1.
         11    1    4    4    0    0  0.10727503548E+02 -0.53161168688E+02 -0.19454170099E+02  0.57616437957E+02  0.00000000000E+00 0.  1.
</event>
<event>
 8    1  0.4798744E-006  0.1854264E+03  0.7561462E-02  0.1162652E+00
         -1   -1    0    0    0  501 -0.00000000000E+00  0.00000000000E+00  0.79810893067E+02  0.79810893067E+02  0.00000000000E+00 0.  1.
          1   -1    0    0  501    0  0.00000000000E+00 -0.00000000000E+00 -0.52022375280E+03  0.52022375280E+03  0.00000000000E+00 0. -1.
         23    2    1    2    0    0 -0.37547454383E+02  0.16519961654E+03 -0.18680372941E+03  0.28150756162E+03  0.12510055671E+03 0.  0.
         23    2    1    2    0    0  0.37547454383E+02 -0.16519961654E+03 -0.25360913032E+03  0.31852708424E+03  0.91875936899E+02 0.  0.
          5    1    3    3  502    0 -0.49087018565E+02  0.37782472297E+02 -0.12454830866E+03  0.13916466576E+03  0.41800000000E+01 0. -1.
         -5    1    3    3    0  502  0.11539564182E+02  0.12741714425E+03 -0.62255420749E+02  0.14234289586E+03  0.41800000000E+01 0. -1.
        -11    1    4    4    0    0  0.13829033715E+02 -0.15384418847E+03 -0.16465110623E+03  0.22576373332E+03  0.00000000000E+00 0.  1.
         11    1    4    4    0    0  0.23718420668E+02 -0.11355428072E+02 -0.88958024081E+02  0.92763350921E+02  0.00000000000E+00 0. -1.
</event>
<event>
 7    1  0.4798744E-006  0.1159343E+03  0.7561462E-02  0.1249959E+00
         -2   -1    0    0    0  501 -0.00000000000E+00  0.00000000000E+00  0.20443093677E+03  0.20443093677E+03  0.00000000000E+00 0.  1.
          2   -1    0    0  501    0  0.00000000000E+00 -0.00000000000E+00 -0.13594381295E+03  0.13594381295E+03  0.00000000000E+00 0. -1.
         23    2    1    2    0    0 -0.92122823562E+02  0.31205815524E+02 -0.13599792191E+02  0.13419202560E+03  0.91444670938E+02 0.  0.
          5    1    1    2  502    0  0.81677102685E+02  0.97687892228E+01 -0.28940781354E+02  0.87301887559E+02  0.41800000000E+01 0. -1.
         -5    1    1    2    0  502  0.10445720876E+02 -0.40974604747E+02  0.11102769737E+03  0.11888083656E+03  0.41800000000E+01 0.  1.
        -11    1    3    3    0    0 -0.24601885808E+02  0.30890632165E+02 -0.44876899426E+02  0.59778089991E+02  0.00000000000E+00 0.  1.
         11    1    3    3    0    0 -0.67520937753E+02  0.31518335925E+00  0.31277107234E+02  0.74413935607E+02  0.00000000000E+00 0. -1.
</event>
<event>
 8    1  0.4798744E-006  0.2166188E+03  0.7561462E-02  0.1136429E+00
         -2   -1    0    0    0  501 -0.00000000000E+00  0.00000000000E+00  0.23816111063E+03  0.23816111063E+03  0.00000000000E+00 0.  1.
          2   -1    0    0  501    0  0.00000000000E+00 -0.00000000000E+00 -0.31628718387E+03  0.31628718387E+03  0.00000000000E+00 0. -1.
         23    2    1    2    0    0 -0.93212158407E+02 -0.16214876995E+03  0.12570819883E+03  0.25092761921E+03  0.11036932888E+03 0.  0.
         23    2    1    2    0    0  0.93212158407E+02  0.16214876995E+03 -0.20383427207E+03  0.30352067528E+03  0.12488258398E+03 0.  0.
          5    1    3    3  502    0 -0.31071087359E+02  0.10154218783E+02  0.28249173945E+02  0.43405170860E+02  0.41800000000E+01 0. -1.
         -5    1    3    3    0  502 -0.62141071048E+02 -0.17230298874E+03  0.97459024884E+02  0.20752244835E+03  0.41800000000E+01 0.  1.
        -11    1    4    4    0    0  0.51282802580E+02  0.17841974031E+01 -0.17701387821E+02  0.54281196851E+02  0.00000000000E+00 0.  1.
         11    1    4    4    0    0  0.41929355828E+02  0.16036457255E+03 -0.18613288425E+03  0.24923947843E+03  0.00000000000E+00 0. -1.
</event>
<event>
 8    1  0.4798744E-006  0.1141465E+03  0.7561462E-02  0.1253078E+00
          1   -1    0    0  501    0  0.00000000000E+00  0.00000000000E+00  0.19595143072E+03  0.19595143072E+03  0.00000000000E+00 0. -1.
         -1   -1    0    0    0  501 -0.00000000000E+00 -0.00000000000E+00 -0.77752610724E+02  0.77752610724E+02  0.00000000000E+00 0.  1.
         23    2    1    2    0    0 -0.11352405989E+01 -0.56851578035E+02  0.52632736329E+02  0.14713700628E+03  0.12508278454E+03 0.  0.
         23    2    1    2    0    0  0.11352405989E+01  0.56851578035E+02  0.65566083666E+02  0.12656703516E+03  0.92124439567E+02 0.  0.
          5    1    3    3  502    0 -0.17324052164E+02  0.34625652084E+02 -0.25114662814E+01  0.39023562478E+02  0.41800000000E+01 0.  1.
         -5    1    3    3    0  502  0.16188811565E+02 -0.91477230119E+02  0.55144202611E+02  0.10811344381E+03  0.41800000000E+01 0.  1.
        -11    1    4    4    0    0 -0.38183161888E+02  0.23804054088E+02  0.59865166420E+02  0.74889418433E+02  0.00000000000E+00 0.  1.
         11    1    4    4    0    0  0.39318402486E+02  0.33047523947E+02  0.57009172460E+01  0.51677616727E+02  0.00000000000E+00 0. -1.
</event>
<event>
 8    1  0.4798744E-006  0.9967936E+02  0.7561462E-02  0.1280972E+00
         -2   -1    0    0    0  501 -0.00000000000E+00  0.00000000000E+00  0.93544343695E+02  0.93544343695E+02  0.00000000000E+00 0.  1.
          2   -1    0    0  501    0  0.00000000000E+00 -0.00000000000E+00 -0.16870113880E+03  0.16870113880E+03  0.00000000000E+00 0. -1.
         23    2    1    2    0    0  0.21503939727E+02 -0.42375043717E+02  0.12661101278E+02  0.12608253159E+03  0.11609667322E+03 0.  0.
         23    2    1    2    0    0 -0.21503939727E+02  0.42375043717E+02 -0.87817896380E+02  0.13616295091E+03  0.92575928410E+02 0.  0.
          5    1    3    3  502    0  0.17944320403E+02 -0.70253623649E+02 -0.26834310263E+02  0.77428178836E+02  0.41800000000E+01 0. -1.
         -5    1    3    3    0  502  0.35596193243E+01  0.27878579932E+02  0.39495411541E+02  0.48654352751E+02  0.41800000000E+01 0.  1.
        -11    1    4    4    0    0 -0.21899684852E+02 -0.23682689911E+02 -0.51530270182E+02  0.60793377460E+02  0.00000000000E+00 0.  1.
         11    1    4    4    0    0  0.39574512426E+00  0.66057733628E+02 -0.36287626198E+02  0.75369573446E+02  0.00000000000E+00 0. -1.
</event>
<event>
 8    1  0.4798744E-006  0.1154383E+03  0.7561462E-02  0.1250818E+00
          2   -1    0    0  501    0  0.00000000000E+00  0.00000000000E+00  0.50204475774E+03  0.50204475774E+03  0.00000000000E+00 0. -1.
         -2   -1    0    0    0  501 -0.00000000000E+00 -0.00000000000E+00 -0.30957338822E+02  0.30957338822E+02  0.00000000000E+00 0.  1.
         23    2    1    2    0    0  0.56752992530E+02 -0.14121122903E+02  0.22668231505E+03  0.26542918758E+03  0.12508986125E+03 0.  0.
         23    2    1    2    0    0 -0.56752992530E+02  0.14121122903E+02  0.24440510386E+03  0.26757290898E+03  0.91875451315E+02 0.  0.
          5    1    3    3  502    0 -0.16352974215E+02 -0.41958032108E+02  0.14653678688E+03  0.15335709482E+03  0.41800000000E+01 0.  1.
         -5    1    3    3    0  502  0.73105966745E+02  0.27836909205E+02  0.80145528175E+02  0.11207209275E+03  0.41800000000E+01 0.  1.
        -11    1    4    4    0    0  0.53491587473E+01  0.39765932926E+02  0.11439222661E+03  0.12122509818E+03  0.00000000000E+00 0.  1.
         11    1    4    4    0    0 -0.62102151278E+02 -0.25644810023E+02  0.13001287725E+03  0.14634781080E+03  0.00000000000E+00 0. -1.
</event>
<event>
 8    1  0.4798744E-006  0.1210763E+03  0.7561462E-02  0.1241332E+00
         -1   -1    0    0    0  501 -0.00000000000E+00  0.00000000000E+00  0.10704114235E+03  0.10704114235E+03  0.00000000000E+00 0.  1.
          1   -1    0    0  501    0  0.00000000000E+00 -0.00000000000E+00 -0.20772154629E+03  0.20772154629E+03  0.00000000000E+00 0. -1.
         23    2    1    2    0    0 -0.91886268507E+02 -0.32795430607E+02 -0.93248968452E+01  0.15891213871E+03  0.12508991774E+03 0.  0.
         23    2    1    2    0    0  0.91886268507E+02  0.32795430607E+02 -0.91355507091E+02  0.15585054992E+03  0.80155714873E+02 0.  0.
          5    1    3    3  502    0 -0.79796699368E+02  0.85559138394E+00 -0.57733664124E+02  0.98584449280E+02  0.41800000000E+01 0.  1.
         -5    1    3    3    0  502 -0.12089569139E+02 -0.33651021991E+02  0.48408767279E+02  0.60327689434E+02  0.41800000000E+01 0.  1.
        -11    1    4    4    0    0  0.94202103694E+02  0.84348349561E+00 -0.66781956713E+02  0.11547544132E+03  0.00000000000E+00 0.  1.
         11    1    4    4    0    0 -0.23158351873E+01  0.31951947112E+02 -0.24573550378E+02  0.40375108607E+02  0.00000000000E+00 0. -1.
</event>
<event>
 8    1  0.4798744E-006  0.2213714E+03  0.7561462E-02  0.1132865E+00
         -1   -1    0    0    0  501 -0.00000000000E+00  0.00000000000E+00  0.18391962360E+03  0.18391962360E+03  0.00000000000E+00 0.  1.
          1   -1    0    0  501    0  0.00000000000E+00 -0.00000000000E+00 -0.29586775399E+03  0.29586775399E+03  0.00000000000E+00 0. -1.
         23    2    1    2    0    0  0.19434113867E+03 -0.55157130232E+02 -0.13029976843E+02  0.23796626020E+03  0.12508946201E+03 0.  0.
         23    2    1    2    0    0 -0.19434113867E+03  0.55157130232E+02 -0.98918153552E+02  0.24182111739E+03  0.88779865505E+02 0.  0.
          5    1    3    3  502    0  0.21889132303E+02 -0.53480322641E+02  0.21929505493E+02  0.61948806558E+02  0.41800000000E+01 0.  1.
         -5    1    3    3    0  502  0.17245200636E+03 -0.16768075916E+01 -0.34959482337E+02  0.17601745365E+03  0.41800000000E+01 0.  1.
        -11    1    4    4    0    0 -0.17095039103E+03  0.69851952766E+02 -0.10649501818E+03  0.21317720421E+03  0.00000000000E+00 0. -1.
         11    1    4    4    0    0 -0.23390747637E+02 -0.14694822534E+02  0.75768646315E+01  0.28643913175E+02  0.00000000000E+00 0.  1.
</event>
<event>
 8    1  0.4798744E-006  0.1142138E+03  0.7561462E-02  0.1252960E+00
         -1   -1    0    0    0  501 -0.00000000000E+00  0.00000000000E+00  0.40463707977E+02  0.40463707977E+02  0.00000000000E+00 0.  1.
          1   -1    0    0  501    0  0.00000000000E+00 -0.00000000000E+00 -0.33308140782E+03  0.33308140782E+03  0.00000000000E+00 0. -1.
         23    2    1    2    0    0 -0.16249761920E+02 -0.36977901134E+02 -0.13477723675E+03  0.18826575396E+03  0.12509064966E+03 0.  0.
         23    2    1    2    0    0  0.16249761920E+02  0.36977901134E+02 -0.15784046309E+03  0.18527936183E+03  0.88223637418E+02 0.  0.
          5    1    3    3  502    0  0.21971555568E+02  0.39748834158E+02 -0.48312909050E+02  0.66440414296E+02  0.41800000000E+01 0. -1.
         -5    1    3    3    0  502 -0.38221317487E+02 -0.76726735292E+02 -0.86464327703E+02  0.12182533966E+03  0.41800000000E+01 0. -1.
        -11    1    4    4    0    0  0.51264786404E+02  0.87184719394E+01 -0.87028962582E+02  0.10138111464E+03  0.00000000000E+00 0. -1.
         11    1    4    4    0    0 -0.35015024484E+02  0.28259429195E+02 -0.70811500506E+02  0.83898247193E+02  0.00000000000E+00 0.  1.
</event>
<event>
 8    1  0.4798744E-006  0.1200741E+03  0.7561462E-02  0.1242975E+00
          2   -1    0    0  501    0  0.00000000000E+00  0.00000000000E+00  0.20901685879E+03  0.20901685879E+03  0.00000000000E+00 0. -1.
         -2   -1    0    0    0  501 -0.00000000000E+00 -0.00000000000E+00 -0.10335602576E+03  0.10335602576E+03  0.00000000000E+00 0.  1.
         23    2    1    2    0    0  0.82379987105E+02  0.36386798882E+02  0.43062399857E+02  0.16003125359E+03  0.12508065573E+03 0.  0.
         23    2    1    2    0    0 -0.82379987105E+02 -0.36386798882E+02  0.62598433173E+02  0.15234163095E+03  0.10573054089E+03 0.  0.
          5    1    3    3  502    0  0.11767850325E+02 -0.40566981005E+02  0.35321981246E+02  0.55220259039E+02  0.41800000000E+01 0.  1.
         -5    1    3    3    0  502  0.70612136780E+02  0.76953779887E+02  0.77404186108E+01  0.10481099456E+03  0.41800000000E+01 0.  1.
        -11    1    4    4    0    0 -0.48342767777E+02 -0.33910815892E+02  0.90635346384E+02  0.10817454712E+03  0.00000000000E+00 0. -1.
         11    1    4    4    0    0 -0.34037219328E+02 -0.24759829902E+01 -0.28036913211E+02  0.44167083827E+02  0.00000000000E+00 0.  1.
</event>
<event>
 8    1  0.4798744E-006  0.1201140E+03  0.7561462E-02  0.1242909E+00
          2   -1    0    0  501    0  0.00000000000E+00  0.00000000000E+00  0.47777740616E+03  0.47777740616E+03  0.00000000000E+00 0. -1.
         -2   -1    0    0    0  501 -0.00000000000E+00 -0.00000000000E+00 -0.31036646069E+02  0.31036646069E+02  0.00000000000E+00 0.  1.
         23    2    1    2    0    0 -0.44136166668E+02 -0.57343792992E+02  0.25707035511E+03  0.29491626408E+03  0.12511643991E+03 0.  0.
         23    2    1    2    0    0  0.44136166668E+02  0.57343792992E+02  0.18967040498E+03  0.21389778815E+03  0.67387606053E+02 0.  0.
          5    1    3    3  502    0  0.26728547854E+01  0.36725381222E+02  0.45732993883E+02  0.58863205045E+02  0.41800000000E+01 0. -1.
         -5    1    3    3    0  502 -0.46809021454E+02 -0.94069174214E+02  0.21133736123E+03  0.23605305903E+03  0.41800000000E+01 0. -1.
        -11    1    4    4    0    0 -0.89269415670E+01 -0.92563521479E+01  0.35745416162E+02  0.37988223404E+02  0.00000000000E+00 0.  1.
         11    1    4    4    0    0  0.53063108235E+02  0.66600145140E+02  0.15392498882E+03  0.17590956475E+03  0.00000000000E+00 0. -1.
</event>
<event>
 8    1  0.4798744E-006  0.8980602E+02  0.7561462E-02  0.1303322E+00
         -1   -1    0    0    0  501 -0.00000000000E+00  0.00000000000E+00  0.16209644569E+02  0.16209644569E+02  0.00000000000E+00 0.  1.
          1   -1    0    0  501    0  0.00000000000E+00 -0.00000000000E+00 -0.90209726069E+03  0.90209726069E+03  0.00000000000E+00 0. -1.
         23    2    1    2    0    0  0.40915080372E+01  0.33628755985E+02 -0.35460359537E+03  0.37754027751E+03  0.12508124409E+03 0.  0.
         23    2    1    2    0    0 -0.40915080372E+01 -0.33628755985E+02 -0.53128402075E+03  0.54076662775E+03  0.94964210720E+02 0.  0.
          5    1    3    3  502    0 -0.30348288546E+02  0.12336998601E-01 -0.31087342277E+03  0.31237921851E+03  0.41800000000E+01 0. -1.
         -5    1    3    3    0  502  0.34439796583E+02  0.33616418987E+02 -0.43730172595E+02  0.65161058995E+02  0.41800000000E+01 0. -1.
        -11    1    4    4    0    0 -0.31671264464E+02  0.22011401537E+02 -0.18910950142E+03  0.19300252412E+03  0.00000000000E+00 0.  1.
         11    1    4    4    0    0  0.27579756427E+02 -0.55640157522E+02 -0.34217451934E+03  0.34776410363E+03  0.00000000000E+00 0. -1.
</event>
<event>
 8    1  0.4798744E-006  0.1338209E+03  0.7561462E-02  0.1221894E+00
         -1   -1    0    0    0  501 -0.00000000000E+00  0.00000000000E+00  0.48158082567E+02  0.48158082567E+02  0.00000000000E+00 0.  1.
          1   -1    0    0  501    0  0.00000000000E+00 -0.00000000000E+00 -0.41294535582E+03  0.41294535582E+03  0.00000000000E+00 0. -1.
         23    2    1    2    0    0  0.35607528274E+02  0.74598872119E+02 -0.13957677385E+03  0.20484725847E+03  0.12509130950E+03 0.  0.
         23    2    1    2    0    0 -0.35607528274E+02 -0.74598872119E+02 -0.22521049941E+03  0.25625617992E+03  0.90080924245E+02 0.  0.
          5    1    3    3  502    0  0.69069504524E+02  0.13433673766E+01 -0.67850930210E+02  0.96920700686E+02  0.41800000000E+01 0. -1.
         -5    1    3    3    0  502 -0.33461976249E+02  0.73255504742E+02 -0.71725843636E+02  0.10792655778E+03  0.41800000000E+01 0. -1.
        -11    1    4    4    0    0 -0.11123878692E+00  0.18319895895E+02 -0.66280793108E+02  0.68766085352E+02  0.00000000000E+00 0.  1.
         11    1    4    4    0    0 -0.35496289487E+02 -0.92918768014E+02 -0.15892970630E+03  0.18749009457E+03  0.00000000000E+00 0. -1.
</event>
<event>
 8    1  0.4798744E-006  0.1283265E+03  0.7561462E-02  0.1229960E+00
          3   -1    0    0  501    0  0.00000000000E+00  0.00000000000E+00  0.42268294202E+02  0.42268294202E+02  0.00000000000E+00 0. -1.
         -3   -1    0    0    0  501 -0.00000000000E+00 -0.00000000000E+00 -0.54848936086E+03  0.54848936086E+03  0.00000000000E+00 0.  1.
         23    2    1    2    0    0  0.96668690581E+02 -0.14616555193E+02 -0.35440524475E+03  0.38833885942E+03  0.12508202433E+03 0.  0.
         23    2    1    2    0    0 -0.96668690581E+02  0.14616555193E+02 -0.15181582192E+03  0.20241879564E+03  0.91470463107E+02 0.  0.
          5    1    3    3  502    0  0.12401694103E+03 -0.11665827566E+02 -0.23805137436E+03  0.26870471233E+03  0.41800000000E+01 0.  1.
         -5    1    3    3    0  502 -0.27348250451E+02 -0.29507276262E+01 -0.11635387039E+03  0.11963414709E+03  0.41800000000E+01 0.  1.
        -11    1    4    4    0    0 -0.21161988535E+02  0.19167202770E+02  0.43650842776E+01  0.28883652496E+02  0.00000000000E+00 0. -1.
         11    1    4    4    0    0 -0.75506702045E+02 -0.45506475772E+01 -0.15618090619E+03  0.17353514315E+03  0.00000000000E+00 0.  1.
</event>
<event>
 8    1  0.4798744E-006  0.1087335E+03  0.7561462E-02  0.1262933E+00
          1   -1    0    0  501    0  0.00000000000E+00  0.00000000000E+00  0.22567258926E+03  0.22567258926E+03  0.00000000000E+00 0. -1.
         -1   -1    0    0    0  501 -0.00000000000E+00 -0.00000000000E+00 -0.70028104612E+02  0.70028104612E+02  0.00000000000E+00 0.  1.
         23    2    1    2    0    0 -0.31340407209E+01 -0.43614473780E+02  0.34184779290E+02  0.13685711073E+03  0.12509686282E+03 0.  0.
         23    2    1    2    0    0  0.31340407209E+01  0.43614473780E+02  0.12145970536E+03  0.15884358315E+03  0.92556897888E+02 0.  0.
          5    1    3    3  502    0 -0.58880312214E+02  0.54330349177E+00  0.28043587865E+02  0.65353665279E+02  0.41800000000E+01 0.  1.
         -5    1    3    3    0  502  0.55746271493E+02 -0.44157777271E+02  0.61411914251E+01  0.71503445449E+02  0.41800000000E+01 0.  1.
        -11    1    4    4    0    0  0.83188754186E+01 -0.20889392296E+02  0.14905205286E+01  0.22534241726E+02  0.00000000000E+00 0.  1.
         11    1    4    4    0    0 -0.51848346977E+01  0.64503866076E+02  0.11996918483E+03  0.13630934142E+03  0.00000000000E+00 0. -1.
</event>
<event>
 8    1  0.4798744E-006  0.2277611E+03  0.7561462E-02  0.1128226E+00
         -1   -1    0    0    0  501 -0.00000000000E+00  0.00000000000E+00  0.13713435731E+03  0.13713435731E+03  0.00000000000E+00 0.  1.
          1   -1    0    0  501    0  0.00000000000E+00 -0.00000000000E+00 -0.54745280091E+03  0.54745280091E+03  0.00000000000E+00 0. -1.
         23    2    1    2    0    0  0.20699140186E+03  0.64729410368E+02 -0.52240483124E+02  0.25575896672E+03  0.12509294134E+03 0.  0.
         23    2    1    2    0    0 -0.20699140186E+03 -0.64729410368E+02 -0.35807796048E+03  0.42882819149E+03  0.92943289337E+02 0.  0.
          5    1    3    3  502    0  0.46041929216E+02  0.48321332161E+02 -0.65205808108E+02  0.93402784748E+02  0.41800000000E+01 0. -1.
         -5    1    3    3    0  502  0.16094947264E+03  0.16408078207E+02  0.12965324984E+02  0.16235618198E+03  0.41800000000E+01 0. -1.
        -11    1    4    4    0    0 -0.45509608045E+02 -0.45215687567E+02 -0.16090482930E+03  0.17322224718E+03  0.00000000000E+00 0. -1.
         11    1    4    4    0    0 -0.16148179381E+03 -0.19513722801E+02 -0.19717313117E+03  0.25560594431E+03  0.00000000000E+00 0.  1.
</event>
<event>
 7    1  0.4798744E-006  0.1403603E+03  0.7561462E-02  0.1212845E+00
         -1   -1    0    0    0  501 -0.00000000000E+00  0.00000000000E+00  0.41788033990E+02  0.41788033990E+02  0.00000000000E+00 0.  1.
          1   -1    0    0  501    0  0.00000000000E+00 -0.00000000000E+00 -0.74677478160E+03  0.74677478160E+03  0.00000000000E+00 0. -1.
         23    2    1    2    0    0  0.81455381084E+02  0.42462970273E+02 -0.47793899551E+03  0.49502731356E+03  0.90489086577E+02 0.  0.
          5    1    1    2  502    0  0.38161103497E+02 -0.53486011181E+02 -0.81896092229E+02  0.10507837805E+03  0.41800000000E+01 0. -1.
         -5    1    1    2    0  502 -0.11961648458E+03  0.11023040907E+02 -0.14515165987E+03  0.18845712398E+03  0.41800000000E+01 0.  1.
        -11    1    3    3    0    0  0.50451672071E+01  0.10907905833E+02 -0.22734023676E+01  0.12231291025E+02  0.00000000000E+00 0.  1.
         11    1    3    3    0    0  0.76410213877E+02  0.31555064440E+02 -0.47566559314E+03  0.48279602254E+03  0.00000000000E+00 0. -1.
</event>
<event>
 8    1  0.4798744E-006  0.9462030E+02  0.7561462E-02  0.1292034E+00
          2   -1    0    0  501    0  0.00000000000E+00  0.00000000000E+00  0.31535137621E+03  0.31535137621E+03  0.00000000000E+00 0. -1.
         -2   -1    0    0    0  501 -0.00000000000E+00 -0.00000000000E+00 -0.58756105359E+02  0.58756105359E+02  0.00000000000E+00 0.  1.
         23    2    1    2    0    0  0.37945373106E+02 -0.45850635024E+02  0.63643328350E+02  0.15246231937E+03  0.12510856690E+03 0.  0.
         23    2    1    2    0    0 -0.37945373106E+02  0.45850635024E+02  0.19295194250E+03  0.22164516220E+03  0.91400184576E+02 0.  0.
          5    1    3    3  502    0 -0.31435281938E+01  0.20098498029E+02  0.71308762210E+02  0.74271416847E+02  0.41800000000E+01 0. -1.
         -5    1    3    3    0  502  0.41088901300E+02 -0.65949133054E+02 -0.76654338604E+01  0.78190902520E+02  0.41800000000E+01 0. -1.
        -11    1    4    4    0    0 -0.98188937265E+01  0.58856968715E+02  0.17700971044E+03  0.18679665691E+03  0.00000000000E+00 0. -1.
         11    1    4    4    0    0 -0.28126479380E+02 -0.13006333690E+02  0.15942232058E+02  0.34848505296E+02  0.00000000000E+00 0.  1.
</event>
<event>
 8    1  0.4798744E-006  0.1265786E+03  0.7561462E-02  0.1232623E+00
         -1   -1    0    0    0  501 -0.00000000000E+00  0.00000000000E+00  0.27758695619E+02  0.27758695619E+02  0.00000000000E+00 0.  1.
          1   -1    0    0  501    0  0.00000000000E+00 -0.00000000000E+00 -0.67016224666E+03  0.67016224666E+03  0.00000000000E+00 0. -1.
         23    2    1    2    0    0  0.77116360502E+02  0.27777805227E+02 -0.38488818148E+03  0.41292199846E+03  0.12508846887E+03 0.  0.
         23    2    1    2    0    0 -0.77116360502E+02 -0.27777805227E+02 -0.25751536955E+03  0.28499894382E+03  0.90507971472E+02 0.  0.
          5    1    3    3  502    0 -0.27975127264E+02  0.19143431823E+02 -0.41846569684E+02  0.54015613685E+02  0.41800000000E+01 0.  1.
         -5    1    3    3    0  502  0.10509148777E+03  0.86343734038E+01 -0.34304161180E+03  0.35890638477E+03  0.41800000000E+01 0.  1.
        -11    1    4    4    0    0 -0.48491301282E+02  0.24155223308E+02 -0.71152156055E+02  0.89428800866E+02  0.00000000000E+00 0. -1.
         11    1    4    4    0    0 -0.28625059221E+02 -0.51933028535E+02 -0.18636321350E+03  0.19557014295E+03  0.00000000000E+00 0.  1.
</event>
<event>
 7    1  0.4798744E-006  0.1482160E+03  0.7561462E-02  0.1202682E+00
          1   -1    0    0  501    0  0.00000000000E+00  0.00000000000E+00  0.25810247084E+03  0.25810247084E+03  0.00000000000E+00 0. -1.
         -1   -1    0    0    0  501 -0.00000000000E+00 -0.00000000000E+00 -0.10726010069E+03  0.10726010069E+03  0.00000000000E+00 0.  1.
         23    2    1    2    0    0  0.51469106731E+01  0.10016603771E+03  0.11493666022E+03  0.17761962168E+03  0.90986638266E+02 0.  0.
          5    1    1    2  502    0 -0.69307447541E+02 -0.24233675593E+02  0.47537782721E+02  0.87567725238E+02  0.41800000000E+01 0. -1.
         -5    1    1    2    0  502  0.64160536868E+02 -0.75932362116E+02 -0.11632072792E+02  0.10017522461E+03  0.41800000000E+01 0.  1.
        -11    1    3    3    0    0  0.13966823244E+02  0.10959563204E+03  0.69826828674E+02  0.13069835774E+03  0.00000000000E+00 0.  1.
         11    1    3    3    0    0 -0.88199125711E+01 -0.94295943334E+01  0.45109831549E+02  0.46921263937E+02  0.00000000000E+00 0. -1.
</event>
<event>
 7    1  0.4798744E-006  0.1404039E+03  0.7561462E-02  0.1212787E+00
         -3   -1    0    0    0  501 -0.00000000000E+00  0.00000000000E+00  0.16484060554E+04  0.16484060554E+04  0.00000000000E+00 0.  1.
          3   -1    0    0  501    0  0.00000000000E+00 -0.00000000000E+00 -0.15710765439E+02  0.15710765439E+02  0.00000000000E+00 0. -1.
         23    2    1    2    0    0  0.47267544123E+02  0.73788682198E+02  0.46646730291E+03  0.48331933261E+03  0.91251532798E+02 0.  0.
          5    1    1    2  502    0 -0.59182958548E+02  0.18830604787E+02  0.18635858278E+03  0.19647953592E+03  0.41800000000E+01 0. -1.
         -5    1    1    2    0  502  0.11915414425E+02 -0.92619286985E+02  0.97986940427E+03  0.98431795232E+03  0.41800000000E+01 0.  1.
        -11    1    3    3    0    0  0.61376024670E+01 -0.20935372909E+02  0.11248955461E+03  0.11458560075E+03  0.00000000000E+00 0.  1.
         11    1    3    3    0    0  0.41129941656E+02  0.94724055107E+02  0.35397774831E+03  0.36873373186E+03  0.00000000000E+00 0. -1.
</event>
<event>
 8    1  0.4798744E-006  0.1046484E+03  0.7561462E-02  0.1270814E+00
         -4   -1    0    0    0  501 -0.00000000000E+00  0.00000000000E+00  0.28589863422E+03  0.28589863422E+03  0.00000000000E+00 0.  1.
          4   -1    0    0  501    0  0.00000000000E+00 -0.00000000000E+00 -0.60661016726E+02  0.60661016726E+02  0.00000000000E+00 0. -1.
         23    2    1    2    0    0  0.57742912888E+02  0.45523589373E+02  0.11569627890E+03  0.18557990489E+03  0.12509049112E+03 0.  0.
         23    2    1    2    0    0 -0.57742912888E+02 -0.45523589373E+02  0.10954133860E+03  0.16097974606E+03  0.92241707502E+02 0.  0.
          5    1    3    3  502    0  0.78065300766E+02  0.15502820456E+02  0.18584091559E+02  0.81837457713E+02  0.41800000000E+01 0.  1.
         -5    1    3    3    0  502 -0.20322387878E+02  0.30020768917E+02  0.97112187342E+02  0.10374244717E+03  0.41800000000E+01 0.  1.
        -11    1    4    4    0    0 -0.67138700026E+02 -0.48966023345E+02  0.12034941563E+03  0.14625066949E+03  0.00000000000E+00 0.  1.
         11    1    4    4    0    0  0.93957871378E+01  0.34424339723E+01 -0.10808077033E+02  0.14729076575E+02  0.00000000000E+00 0. -1.
</event>
<event>
 8    1  0.4798744E-006  0.8478196E+02  0.7561462E-02  0.1316004E+00
         -2   -1    0    0    0  501 -0.00000000000E+00  0.00000000000E+00  0.77550140650E+02  0.77550140650E+02  0.00000000000E+00 0.  1.
          2   -1    0    0  501    0  0.00000000000E+00 -0.00000000000E+00 -0.18784548052E+03  0.18784548052E+03  0.00000000000E+00 0. -1.
         23    2    1    2    0    0 -0.55262188807E+02  0.30826496654E+02 -0.63013745478E+02  0.15369331643E+03  0.12508685378E+03 0.  0.
         23    2    1    2    0    0  0.55262188807E+02 -0.30826496654E+02 -0.47281594392E+02  0.11170230474E+03  0.78978942180E+02 0.  0.
          5    1    3    3  502    0 -0.78787692556E+01 -0.14361670292E+02  0.33189552830E+02  0.37247166276E+02  0.41800000000E+01 0. -1.
         -5    1    3    3    0  502 -0.47383419552E+02  0.45188166946E+02 -0.96203298308E+02  0.11644615015E+03  0.41800000000E+01 0. -1.
        -11    1    4    4    0    0  0.62933786242E+02 -0.40396391438E+02 -0.13801296378E+02  0.76046075992E+02  0.00000000000E+00 0.  1.
         11    1    4    4    0    0 -0.76715974350E+01  0.95698947839E+01 -0.33480298013E+02  0.35656228747E+02  0.00000000000E+00 0. -1.
</event>
<event>
 8    1  0.4798744E-006  0.5599152E+02  0.7561462E-02  0.1415467E+00
          1   -1    0    0  501    0  0.00000000000E+00  0.00000000000E+00  0.14809024162E+03  0.14809024162E+03  0.00000000000E+00 0. -1.
         -1   -1    0    0    0  501 -0.00000000000E+00 -0.00000000000E+00 -0.97373538901E+02  0.97373538901E+02  0.00000000000E+00 0.  1.
         23    2    1    2    0    0 -0.16580869493E+02  0.29889450591E+01 -0.19852565052E+02  0.12776747519E+03  0.12508614772E+03 0.  0.
         23    2    1    2    0    0  0.16580869493E+02 -0.29889450591E+01  0.70569267768E+02  0.11769630532E+03  0.92674374603E+02 0.  0.
          5    1    3    3  502    0 -0.26487080613E+02  0.15075363197E+02  0.48551549438E+02  0.57476581037E+02  0.41800000000E+01 0.  1.
         -5    1    3    3    0  502  0.99062111193E+01 -0.12086418138E+02 -0.68404114490E+02  0.70290894156E+02  0.41800000000E+01 0.  1.
        -11    1    4    4    0    0  0.73525215307E+01 -0.32915729278E+02 -0.66427119695E+01  0.34374851696E+02  0.00000000000E+00 0.  1.
         11    1    4    4    0    0  0.92283479627E+01  0.29926784219E+02  0.77211979737E+02  0.83321453629E+02  0.00000000000E+00 0. -1.
</event>
<event>
 8    1  0.4798744E-006  0.9764205E+02  0.7561462E-02  0.1285334E+00
         -3   -1    0    0    0  501 -0.00000000000E+00  0.00000000000E+00  0.89773493994E+03  0.89773493994E+03  0.00000000000E+00 0.  1.
          3   -1    0    0  501    0  0.00000000000E+00 -0.00000000000E+00 -0.14866733073E+02  0.14866733073E+02  0.00000000000E+00 0. -1.
         23    2    1    2    0    0  0.17468382201E+02 -0.29210283291E+01  0.64454292624E+03  0.65680802364E+03  0.12509004503E+03 0.  0.
         23    2    1    2    0    0 -0.17468382201E+02  0.29210283291E+01  0.23832528063E+03  0.25579364938E+03  0.91201836011E+02 0.  0.
          5    1    3    3  502    0 -0.38634748919E+02  0.30941104622E+02  0.41798682098E+03  0.42092808257E+03  0.41800000000E+01 0. -1.
         -5    1    3    3    0  502  0.56103131120E+02 -0.33862132951E+02  0.22655610526E+03  0.23587994107E+03  0.41800000000E+01 0. -1.
        -11    1    4    4    0    0 -0.47542222337E+02 -0.74767291834E+01  0.73018416481E+02  0.87452007006E+02  0.00000000000E+00 0. -1.
         11    1    4    4    0    0  0.30073840136E+02  0.10397757512E+02  0.16530686415E+03  0.16834164237E+03  0.00000000000E+00 0.  1.
</event>
<event>
 8    1  0.4798744E-006  0.1746319E+03  0.7561462E-02  0.1173102E+00
         -1   -1    0    0    0  501 -0.00000000000E+00  0.00000000000E+00  0.56461101134E+02  0.56461101134E+02  0.00000000000E+00 0.  1.
          1   -1    0    0  501    0  0.00000000000E+00 -0.00000000000E+00 -0.11079137569E+04  0.11079137569E+04  0.00000000000E+00 0. -1.
         23    2    1    2    0    0 -0.71340872055E+02  0.12938728176E+03 -0.14609938541E+03  0.24253491111E+03  0.12509022337E+03 0.  0.
         23    2    1    2    0    0  0.71340872055E+02 -0.12938728176E+03 -0.90535327038E+03  0.92183994695E+03  0.91070054933E+02 0.  0.
          5    1    3    3  502    0 -0.98745372902E+02  0.10881285953E+03 -0.14715369769E+03  0.20799656299E+03  0.41800000000E+01 0. -1.
         -5    1    3    3    0  502  0.27404500847E+02  0.20574422223E+02  0.10543122825E+01  0.34538348120E+02  0.41800000000E+01 0. -1.
        -11    1    4    4    0    0 -0.15930986663E+02 -0.69365897311E+01 -0.41395020763E+02  0.44893878838E+02  0.00000000000E+00 0.  1.
         11    1    4    4    0    0  0.87271858718E+02 -0.12245069202E+03 -0.86395824962E+03  0.87694606812E+03  0.00000000000E+00 0. -1.
</event>
<event>
 8    1  0.4798744E-006  0.2082483E+03  0.7561462E-02  0.1142961E+00
         -2   -1    0    0    0  501 -0.00000000000E+00  0.00000000000E+00  0.76389246334E+02  0.76389246334E+02  0.00000000000E+00 0.  1.
          2   -1    0    0  501    0  0.00000000000E+00 -0.00000000000E+00 -0.71425900229E+03  0.71425900229E+03  0.00000000000E+00 0. -1.
         23    2    1    2    0    0  0.16488754472E+03  0.12339704518E+03 -0.33634926030E+03  0.41375507129E+03  0.12509077082E+03 0.  0.
         23    2    1    2    0    0 -0.16488754472E+03 -0.12339704518E+03 -0.30152049565E+03  0.37689317734E+03  0.93376253194E+02 0.  0.
          5    1    3    3  502    0  0.63148820253E+02  0.71483541926E+02 -0.55248100654E+02  0.11030637013E+03  0.41800000000E+01 0.  1.
         -5    1    3    3    0  502  0.10173872447E+03  0.51913503256E+02 -0.28110115965E+03  0.30344870116E+03  0.41800000000E+01 0.  1.
        -11    1    4    4    0    0 -0.13977506088E+03 -0.11218188619E+03 -0.18661157412E+03  0.25873871536E+03  0.00000000000E+00 0.  1.
         11    1    4    4    0    0 -0.25112483840E+02 -0.11215158993E+02 -0.11490892154E+03  0.11815446197E+03  0.00000000000E+00 0. -1.
</event>
<event>
 8    1  0.4798744E-006  0.5976970E+02  0.7561462E-02  0.1398801E+00
         -2   -1    0    0    0  501 -0.00000000000E+00  0.00000000000E+00  0.27557465083E+03  0.27557465083E+03  0.00000000000E+00 0.  1.
          2   -1    0    0  501    0  0.00000000000E+00 -0.00000000000E+00 -0.44551065105E+02  0.44551065105E+02  0.00000000000E+00 0. -1.
         23    2    1    2    0    0 -0.14010147171E+02  0.39487239957E+02  0.15987316329E+03  0.20002395154E+03  0.11267043314E+03 0.  0.
         23    2    1    2    0    0  0.14010147171E+02 -0.39487239957E+02  0.71150422433E+02  0.12010176440E+03  0.87215393460E+02 0.  0.
          5    1    3    3  502    0  0.49465197861E+01  0.13332001500E+02 -0.15620442485E+02  0.21533252086E+02  0.41800000000E+01 0. -1.
         -5    1    3    3    0  502 -0.18956666958E+02  0.26155238458E+02  0.17549360578E+03  0.17849069945E+03  0.41800000000E+01 0.  1.
        -11    1    4    4    0    0 -0.20387508918E+02 -0.30338495493E+02 -0.41751739058E+01  0.36790038133E+02  0.00000000000E+00 0.  1.
         11    1    4    4    0    0  0.34397656090E+02 -0.91487444638E+01  0.75325596339E+02  0.83311726267E+02  0.00000000000E+00 0. -1.
</event>
<event>
 7    1  0.4798744E-006  0.1848942E+03  0.7561462E-02  0.1163149E+00
          2   -1    0    0  501    0  0.00000000000E+00  0.00000000000E+00  0.56158025101E+03  0.56158025101E+03  0.00000000000E+00 0. -1.
         -2   -1    0    0    0  501 -0.00000000000E+00 -0.00000000000E+00 -0.76410280134E+02  0.76410280134E+02  0.00000000000E+00 0.  1.
         23    2    1    2    0    0  0.13659067328E+03 -0.36687084969E+02  0.27071047352E+03  0.31930504937E+03  0.93105315908E+02 0.  0.
          5    1    1    2  502    0 -0.76623679216E+02 -0.66989088929E+02  0.45559950680E+02  0.11158811656E+03  0.41800000000E+01 0. -1.
         -5    1    1    2    0  502 -0.59966994060E+02  0.10367617390E+03  0.16889954668E+03  0.20709736521E+03  0.41800000000E+01 0.  1.
        -11    1    3    3    0    0  0.75549406256E+01 -0.15602208757E+02 -0.14216754619E+01  0.17393309262E+02  0.00000000000E+00 0.  1.
         11    1    3    3    0    0  0.12903573265E+03 -0.21084876211E+02  0.27213214898E+03  0.30191174011E+03  0.00000000000E+00 0. -1.
</event>
<event>
 8    1  0.4798744E-006  0.1183804E+03  0.7561462E-02  0.1245793E+00
          1   -1    0    0  501    0  0.00000000000E+00  0.00000000000E+00  0.46951572724E+03  0.46951572724E+03  0.00000000000E+00 0. -1.
         -1   -1    0    0    0  501 -0.00000000000E+00 -0.00000000000E+00 -0.39646278265E+02  0.39646278265E+02  0.00000000000E+00 0.  1.
         23    2    1    2    0    0 -0.72332080738E+02 -0.39611904114E+02  0.23460732487E+03  0.27837268651E+03  0.12509885236E+03 0.  0.
         23    2    1    2    0    0  0.72332080738E+02  0.39611904114E+02  0.19526212410E+03  0.23078931899E+03  0.91298301193E+02 0.  0.
          5    1    3    3  502    0  0.14853868148E+02  0.25713206222E+02  0.10402431195E+03  0.10826050180E+03  0.41800000000E+01 0.  1.
         -5    1    3    3    0  502 -0.87185948886E+02 -0.65325110336E+02  0.13058301292E+03  0.17011218471E+03  0.41800000000E+01 0.  1.
        -11    1    4    4    0    0  0.99875961280E+01  0.33672036995E+02  0.11989903792E+02  0.37112207489E+02  0.00000000000E+00 0.  1.
         11    1    4    4    0    0  0.62344484610E+02  0.59398671197E+01  0.18327222031E+03  0.19367711150E+03  0.00000000000E+00 0. -1.
</event>
<event>
 8    1  0.4798744E-006  0.1021562E+03  0.7561462E-02  0.1275826E+00
         -1   -1    0    0    0  501 -0.00000000000E+00  0.00000000000E+00  0.32784816735E+03  0.32784816735E+03  0.00000000000E+00 0.  1.
          1   -1    0    0  501    0  0.00000000000E+00 -0.00000000000E+00 -0.46235797308E+02  0.46235797308E+02  0.00000000000E+00 0. -1.
         23    2    1    2    0    0 -0.41918797137E+02 -0.19108798064E+02  0.21039343102E+03  0.24906971364E+03  0.12509194506E+03 0.  0.
         23    2    1    2    0    0  0.41918797137E+02  0.19108798064E+02  0.71218939019E+02  0.12501425102E+03  0.91837323381E+02 0.  0.
          5    1    3    3  502    0 -0.68337635030E+02  0.73935920731E+01  0.52078335868E+02  0.86338421528E+02  0.41800000000E+01 0. -1.
         -5    1    3    3    0  502  0.26418837893E+02 -0.26502390137E+02  0.15831509515E+03  0.16273129211E+03  0.41800000000E+01 0. -1.
        -11    1    4    4    0    0  0.34454102241E+01 -0.32912716155E+02  0.69449587435E+01  0.33813461643E+02  0.00000000000E+00 0. -1.
         11    1    4    4    0    0  0.38473386913E+02  0.52021514219E+02  0.64273980276E+02  0.91200789375E+02  0.00000000000E+00 0.  1.
</event>
<event>
 8    1  0.4798744E-006  0.1533967E+03  0.7561462E-02  0.1196360E+00
         -4   -1    0    0    0  501 -0.00000000000E+00  0.00000000000E+00  0.13005884869E+03  0.13005884869E+03  0.00000000000E+00 0.  1.
          4   -1    0    0  501    0  0.00000000000E+00 -0.00000000000E+00 -0.18597120360E+03  0.18597120360E+03  0.00000000000E+00 0. -1.
         23    2    1    2    0    0  0.78625281825E+02  0.78250834063E+02 -0.21473133821E+02  0.16856935001E+03  0.12509757117E+03 0.  0.
         23    2    1    2    0    0 -0.78625281825E+02 -0.78250834063E+02 -0.34439221097E+02  0.14746070228E+03  0.90848614704E+02 0.  0.
          5    1    3    3  502    0 -0.19039064154E+02  0.61373253211E+02 -0.25568515995E+02  0.69284800525E+02  0.41800000000E+01 0.  1.
         -5    1    3    3    0  502  0.97664345979E+02  0.16877580852E+02  0.40953821742E+01  0.99284549483E+02  0.41800000000E+01 0.  1.
        -11    1    4    4    0    0 -0.17540937493E+02 -0.80187798600E+02 -0.23426043163E+02  0.85361273600E+02  0.00000000000E+00 0.  1.
         11    1    4    4    0    0 -0.61084344332E+02  0.19369645368E+01 -0.11013177934E+02  0.62099428680E+02  0.00000000000E+00 0. -1.
</event>
<event>
 8    1  0.4798744E-006  0.9334648E+02  0.7561462E-02  0.1294944E+00
         -1   -1    0    0    0  501 -0.00000000000E+00  0.00000000000E+00  0.33287201494E+02  0.33287201494E+02  0.00000000000E+00 0.  1.
          1   -1    0    0  501    0  0.00000000000E+00 -0.00000000000E+00 -0.44668714000E+03  0.44668714000E+03  0.00000000000E+00 0. -1.
         23    2    1    2    0    0 -0.57108182750E+02 -0.43963421698E+01 -0.24275187342E+03  0.27902855461E+03  0.12509112630E+03 0.  0.
         23    2    1    2    0    0  0.57108182750E+02  0.43963421698E+01 -0.17064806508E+03  0.20094578688E+03  0.89318389967E+02 0.  0.
          5    1    3    3  502    0  0.20571099727E+02 -0.92202329100E+01 -0.17275547130E+03  0.17427021577E+03  0.41800000000E+01 0. -1.
         -5    1    3    3    0  502 -0.77679282477E+02  0.48238907402E+01 -0.69996402116E+02  0.10475833884E+03  0.41800000000E+01 0. -1.
        -11    1    4    4    0    0  0.20147174389E+01  0.26416789582E+02 -0.77873176917E+01  0.27614274842E+02  0.00000000000E+00 0.  1.
         11    1    4    4    0    0  0.55093465311E+02 -0.22020447412E+02 -0.16286074739E+03  0.17333151204E+03  0.00000000000E+00 0. -1.
</event>
<event>
 8    1  0.4798744E-006  0.1225478E+03  0.7561462E-02  0.1238952E+00
         -1   -1    0    0    0  501 -0.00000000000E+00  0.00000000000E+00  0.37318943581E+02  0.37318943581E+02  0.00000000000E+00 0.  1.
          1   -1    0    0  501    0  0.00000000000E+00 -0.00000000000E+00 -0.49099527216E+03  0.49099527216E+03  0.00000000000E+00 0. -1.
         23    2    1    2    0    0 -0.98228832549E+01 -0.75337693960E+02 -0.30354399154E+03  0.33698629174E+03  0.12509415995E+03 0.  0.
         23    2    1    2    0    0  0.98228832549E+01  0.75337693960E+02 -0.15013233704E+03  0.19132792400E+03  0.91073589536E+02 0.  0.
          5    1    3    3  502    0  0.32614271314E+02 -0.82760658441E+02 -0.12633125757E+03  0.15456414952E+03  0.41800000000E+01 0. -1.
         -5    1    3    3    0  502 -0.42437154568E+02  0.74229644816E+01 -0.17721273397E+03  0.18242214222E+03  0.41800000000E+01 0. -1.
        -11    1    4    4    0    0 -0.33322867135E+02  0.10614250051E+02 -0.21644111042E+02  0.41128376105E+02  0.00000000000E+00 0.  1.
         11    1    4    4    0    0  0.43145750390E+02  0.64723443909E+02 -0.12848822600E+03  0.15019954790E+03  0.00000000000E+00 0. -1.
</event>
<event>
 8    1  0.4798744E-006  0.1303971E+03  0.7561462E-02  0.1226868E+00
         -2   -1    0    0    0  501 -0.00000000000E+00  0.00000000000E+00  0.85638191356E+02  0.85638191356E+02  0.00000000000E+00 0.  1.
          2   -1    0    0  501    0  0.00000000000E+00 -0.00000000000E+00 -0.25165491792E+03  0.25165491792E+03  0.00000000000E+00 0. -1.
         23    2    1    2    0    0 -0.56796610821E+02 -0.76511508519E+02 -0.11950627487E+03  0.19753489361E+03  0.12513360269E+03 0.  0.
         23    2    1    2    0    0  0.56796610821E+02  0.76511508519E+02 -0.46510451690E+02  0.13975821567E+03  0.91045432576E+02 0.  0.
          5    1    3    3  502    0 -0.71889237024E+02 -0.92251666145E+02 -0.12829633480E+03  0.17365441034E+03  0.41800000000E+01 0. -1.
         -5    1    3    3    0  502  0.15092626204E+02  0.15740157626E+02  0.87900599263E+01  0.23880483272E+02  0.41800000000E+01 0. -1.
        -11    1    4    4    0    0 -0.14377972243E+02  0.38013077933E+02  0.90037779084E+01  0.41626772592E+02  0.00000000000E+00 0.  1.
         11    1    4    4    0    0  0.71174583063E+02  0.38498430586E+02 -0.55514229598E+02  0.98131443073E+02  0.00000000000E+00 0. -1.
</event>
<event>
 8    1  0.4798744E-006  0.1129368E+03  0.7561462E-02  0.1255226E+00
         -2   -1    0    0    0  501 -0.00000000000E+00  0.00000000000E+00  0.45630010343E+02  0.45630010343E+02  0.00000000000E+00 0.  1.
          2   -1    0    0  501    0  0.00000000000E+00 -0.00000000000E+00 -0.36508071024E+03  0.36508071024E+03  0.00000000000E+00 0. -1.
         23    2    1    2    0    0  0.45590463223E+02  0.52241464430E+02 -0.16551256569E+03  0.21873338172E+03  0.12506886877E+03 0.  0.
         23    2    1    2    0    0 -0.45590463223E+02 -0.52241464430E+02 -0.15393813421E+03  0.19197733886E+03  0.91382101808E+02 0.  0.
          5    1    3    3  502    0 -0.23225615418E+02 -0.23309128339E+02 -0.14166740797E+02  0.36068180163E+02  0.41800000000E+01 0. -1.
         -5    1    3    3    0  502  0.68816078641E+02  0.75550592769E+02 -0.15134582489E+03  0.18266520156E+03  0.41800000000E+01 0. -1.
        -11    1    4    4    0    0 -0.37807685777E+02 -0.20360791695E+00 -0.10568647970E+02  0.39257596461E+02  0.00000000000E+00 0.  1.
         11    1    4    4    0    0 -0.77827774462E+01 -0.52037856513E+02 -0.14336948624E+03  0.15271974240E+03  0.00000000000E+00 0. -1.
</event>
<event>
 8    1  0.4798744E-006  0.1070344E+03  0.7561462E-02  0.1266162E+00
         -1   -1    0    0    0  501 -0.00000000000E+00  0.00000000000E+00  0.66847895232E+02  0.66847895232E+02  0.00000000000E+00 0.  1.
          1   -1    0    0  501    0  0.00000000000E+00 -0.00000000000E+00 -0.18388976338E+03  0.18388976338E+03  0.00000000000E+00 0. -1.
         23    2    1    2    0    0 -0.16643121010E+02  0.81382341091E+01 -0.45185710017E+02  0.13428497073E+03  0.12508989025E+03 0.  0.
         23    2    1    2    0    0  0.16643121010E+02 -0.81382341091E+01 -0.71856158127E+02  0.11645268788E+03  0.89747962214E+02 0.  0.
          5    1    3    3  502    0  0.22481709478E+02  0.58144889943E+02 -0.17441362017E+02  0.64868551676E+02  0.41800000000E+01 0.  1.
         -5    1    3    3    0  502 -0.39124830489E+02 -0.50006655834E+02 -0.27744348000E+02  0.69416419054E+02  0.41800000000E+01 0.  1.
        -11    1    4    4    0    0  0.51530714630E+02 -0.11843922469E+02 -0.58650914537E+02  0.78965959918E+02  0.00000000000E+00 0. -1.
         11    1    4    4    0    0 -0.34887593620E+02  0.37056883598E+01 -0.13205243589E+02  0.37486727959E+02  0.00000000000E+00 0.  1.
</event>
<event>
 8    1  0.4798744E-006  0.2971714E+03  0.7561462E-02  0.1086663E+00
          2   -1    0    0  501    0  0.00000000000E+00  0.00000000000E+00  0.34970909600E+03  0.34970909600E+03  0.00000000000E+00 0. -1.
         -2   -1    0    0    0  501 -0.00000000000E+00 -0.00000000000E+00 -0.40025197358E+03  0.40025197358E+03  0.00000000000E+00 0.  1.
         23    2    1    2    0    0  0.28058406137E+03  0.74010239069E+02 -0.23600254342E+03  0.39439737038E+03  0.12508858573E+03 0.  0.
         23    2    1    2    0    0 -0.28058406137E+03 -0.74010239069E+02  0.18545966583E+03  0.35556369920E+03  0.88460870207E+02 0.  0.
          5    1    3    3  502    0  0.17544469626E+03  0.74045746342E+00 -0.18879344026E+03  0.25776311840E+03  0.41800000000E+01 0.  1.
         -5    1    3    3    0  502  0.10513936511E+03  0.73269781606E+02 -0.47209103159E+02  0.13663425198E+03  0.41800000000E+01 0.  1.
        -11    1    4    4    0    0 -0.20858823172E+03 -0.47684005631E+02  0.87485285559E+02  0.23116334051E+03  0.00000000000E+00 0. -1.
         11    1    4    4    0    0 -0.71995829652E+02 -0.26326233439E+02  0.97974380268E+02  0.12440035869E+03  0.00000000000E+00 0.  1.
</event>
<event>
 7    1  0.4798744E-006  0.1380449E+03  0.7561462E-02  0.1215984E+00
         -1   -1    0    0    0  501 -0.00000000000E+00  0.00000000000E+00  0.15244310350E+03  0.15244310350E+03  0.00000000000E+00 0.  1.
          1   -1    0    0  501    0  0.00000000000E+00 -0.00000000000E+00 -0.19547688717E+03  0.19547688717E+03  0.00000000000E+00 0. -1.
         23    2    1    2    0    0  0.40583042676E+01  0.32353337854E+02 -0.74467521495E+02  0.11883965856E+03  0.86684741360E+02 0.  0.
          5    1    1    2  502    0 -0.99920317929E+02  0.33980980713E+02 -0.80492859668E+01  0.10592941230E+03  0.41800000000E+01 0. -1.
         -5    1    1    2    0  502  0.95862013661E+02 -0.66334318567E+02  0.39483023792E+02  0.12315091981E+03  0.41800000000E+01 0.  1.
        -11    1    3    3    0    0 -0.19461774500E+02  0.13762211194E+02 -0.84050445768E+02  0.87364961841E+02  0.00000000000E+00 0. -1.
         11    1    3    3    0    0  0.23520078768E+02  0.18591126660E+02  0.95829242734E+01  0.31474696716E+02  0.00000000000E+00 0.  1.
</event>
<event>
 7    1  0.4798744E-006  0.8962252E+02  0.7561462E-02  0.1303768E+00
         -2   -1    0    0    0  501 -0.00000000000E+00  0.00000000000E+00  0.30610097622E+02  0.30610097622E+02  0.00000000000E+00 0.  1.
          2   -1    0    0  501    0  0.00000000000E+00 -0.00000000000E+00 -0.31825260712E+03  0.31825260712E+03  0.00000000000E+00 0. -1.
         23    2    1    2    0    0 -0.34103762101E+02  0.13462000063E+02 -0.16526493801E+03  0.21048281210E+03  0.12508486088E+03 0.  0.
          5    1    3    3  502    0 -0.75188898139E+02  0.35559878690E+02 -0.99677779016E+02  0.12988844216E+03  0.41800000000E+01 0.  1.
         -5    1    3    3    0  502  0.41085136038E+02 -0.22097878627E+02 -0.65587158989E+02  0.80594369949E+02  0.41800000000E+01 0.  1.
        -11    1    1    2    0    0  0.20358559595E+02 -0.24244613377E+02 -0.27583687092E+02  0.41989665635E+02  0.00000000000E+00 0.  1.
         11    1    1    2    0    0  0.13745202506E+02  0.10782613314E+02 -0.94793884403E+02  0.96390227005E+02  0.00000000000E+00 0. -1.
</event>
<event>
 8    1  0.4798744E-006  0.1835432E+03  0.7561462E-02  0.1164417E+00
         -2   -1    0    0    0  501 -0.00000000000E+00  0.00000000000E+00  0.48456721315E+02  0.48456721315E+02  0.00000000000E+00 0.  1.
          2   -1    0    0  501    0  0.00000000000E+00 -0.00000000000E+00 -0.74541510260E+03  0.74541510260E+03  0.00000000000E+00 0. -1.
         23    2    1    2    0    0 -0.11346083613E+03 -0.10570058371E+03 -0.33500992687E+03  0.38977691650E+03  0.12509364012E+03 0.  0.
         23    2    1    2    0    0  0.11346083613E+03  0.10570058371E+03 -0.36194845442E+03  0.40409490742E+03  0.90774643029E+02 0.  0.
          5    1    3    3  502    0 -0.22382174060E+02  0.22169137368E+02 -0.11603491180E+03  0.12030796118E+03  0.41800000000E+01 0. -1.
         -5    1    3    3    0  502 -0.91078662071E+02 -0.12786972108E+03 -0.21897501507E+03  0.26946895531E+03  0.41800000000E+01 0. -1.
        -11    1    4    4    0    0  0.64693150159E+02  0.11174491346E+03 -0.23817683977E+03  0.27092496446E+03  0.00000000000E+00 0.  1.
         11    1    4    4    0    0  0.48767685972E+02 -0.60443297541E+01 -0.12377161464E+03  0.13316994296E+03  0.00000000000E+00 0. -1.
</event>
<event>
 8    1  0.4798744E-006  0.1872320E+03  0.7561462E-02  0.1160982E+00
          1   -1    0    0  501    0  0.00000000000E+00  0.00000000000E+00  0.73883515831E+03  0.73883515831E+03  0.00000000000E+00 0. -1.
         -1   -1    0    0    0  501 -0.00000000000E+00 -0.00000000000E+00 -0.60761479972E+02  0.60761479972E+02  0.00000000000E+00 0.  1.
         23    2    1    2    0    0 -0.48986053008E+02 -0.16923845813E+03  0.44225801895E+03  0.49222163283E+03  0.12509472971E+03 0.  0.
         23    2    1    2    0    0  0.48986053008E+02  0.16923845813E+03  0.23581565939E+03  0.30737500545E+03  0.88482086698E+02 0.  0.
          5    1    3    3  502    0 -0.51400746697E+02 -0.16297696131E+03  0.44986633527E+03  0.48124912331E+03  0.41800000000E+01 0.  1.
         -5    1    3    3    0  502  0.24146936899E+01 -0.62614968212E+01 -0.76083163159E+01  0.10972509523E+02  0.41800000000E+01 0.  1.
        -11    1    4    4    0    0 -0.95939148710E+01  0.11619243495E+03  0.12137761588E+03  0.16830107183E+03  0.00000000000E+00 0.  1.
         11    1    4    4    0    0  0.58579967879E+02  0.53046023174E+02  0.11443804350E+03  0.13907393362E+03  0.00000000000E+00 0. -1.
</event>
<event>
 8    1  0.4798744E-006  0.1232442E+03  0.7561462E-02  0.1237839E+00
         -1   -1    0    0    0  501 -0.00000000000E+00  0.00000000000E+00  0.14216674985E+03  0.14216674985E+03  0.00000000000E+00 0.  1.
          1   -1    0    0  501    0  0.00000000000E+00 -0.00000000000E+00 -0.14122335140E+03  0.14122335140E+03  0.00000000000E+00 0. -1.
         23    2    1    2    0    0 -0.66026560284E+02 -0.61918927884E+02 -0.47476163375E+01  0.15447750803E+03  0.12508916953E+03 0.  0.
         23    2    1    2    0    0  0.66026560284E+02  0.61918927884E+02  0.56910147910E+01  0.12891259322E+03  0.91611182435E+02 0.  0.
          5    1    3    3  502    0  0.27736021499E+02 -0.42557426150E+02  0.21187936985E+02  0.55198029701E+02  0.41800000000E+01 0. -1.
         -5    1    3    3    0  502 -0.93762581783E+02 -0.19361501733E+02 -0.25935553323E+02  0.99279478333E+02  0.41800000000E+01 0. -1.
        -11    1    4    4    0    0  0.47558608421E+02  0.15974691614E+02 -0.37952048615E+02  0.62907630707E+02  0.00000000000E+00 0. -1.
         11    1    4    4    0    0  0.18467951863E+02  0.45944236270E+02  0.43643063406E+02  0.66004962509E+02  0.00000000000E+00 0.  1.
</event>
<event>
 8    1  0.4798744E-006  0.1140401E+03  0.7561462E-02  0.1253266E+00
         -1   -1    0    0    0  501 -0.00000000000E+00  0.00000000000E+00  0.23294546437E+02  0.23294546437E+02  0.00000000000E+00 0.  1.
          1   -1    0    0  501    0  0.00000000000E+00 -0.00000000000E+00 -0.68788250147E+03  0.68788250147E+03  0.00000000000E+00 0. -1.
         23    2    1    2    0    0  0.44635600026E+02  0.74951723946E+00 -0.23625983056E+03  0.27103628929E+03  0.12509621901E+03 0.  0.
         23    2    1    2    0    0 -0.44635600026E+02 -0.74951723946E+00 -0.42832812447E+03  0.44014075862E+03  0.90917581443E+02 0.  0.
          5    1    3    3  502    0 -0.32729088073E+02  0.31950330645E+02 -0.56449957788E+02  0.72774219121E+02  0.41800000000E+01 0. -1.
         -5    1    3    3    0  502  0.77364688098E+02 -0.31200813405E+02 -0.17980987277E+03  0.19826207017E+03  0.41800000000E+01 0. -1.
        -11    1    4    4    0    0 -0.35282243202E+02 -0.42846420026E+02 -0.18993352641E+03  0.19787722671E+03  0.00000000000E+00 0.  1.
         11    1    4    4    0    0 -0.93533568235E+01  0.42096902787E+02 -0.23839459806E+03  0.24226353191E+03  0.00000000000E+00 0. -1.
</event>
<event>
 8    1  0.4798744E-006  0.1473811E+03  0.7561462E-02  0.1203728E+00
          2   -1    0    0  501    0  0.00000000000E+00  0.00000000000E+00  0.56450162579E+03  0.56450162579E+03  0.00000000000E+00 0. -1.
         -2   -1    0    0    0  501 -0.00000000000E+00 -0.00000000000E+00 -0.41530382594E+02  0.41530382594E+02  0.00000000000E+00 0.  1.
         23    2    1    2    0    0 -0.79808906734E+01  0.10755163510E+03  0.23175586415E+03  0.28216966425E+03  0.11949012523E+03 0.  0.
         23    2    1    2    0    0  0.79808906734E+01 -0.10755163510E+03  0.29121537905E+03  0.32386234413E+03  0.91920466281E+02 0.  0.
          5    1    3    3  502    0 -0.24200928180E+02 -0.16225970845E+02  0.82219637757E+02  0.87329881985E+02  0.41800000000E+01 0. -1.
         -5    1    3    3    0  502  0.16220037506E+02  0.12377760595E+03  0.14953622639E+03  0.19483978227E+03  0.41800000000E+01 0.  1.
        -11    1    4    4    0    0 -0.26239712660E+02  0.13450018928E+01  0.73198076080E+02  0.77770752166E+02  0.00000000000E+00 0.  1.
         11    1    4    4    0    0  0.34220603333E+02 -0.10889663700E+03  0.21801730297E+03  0.24609159197E+03  0.00000000000E+00 0. -1.
</event>
<event>
 7    1  0.4798744E-006  0.1616251E+03  0.7561462E-02  0.1186874E+00
          1   -1    0    0  501    0  0.00000000000E+00  0.00000000000E+00  0.26633052833E+03  0.26633052833E+03  0.00000000000E+00 0. -1.
         -1   -1    0    0    0  501 -0.00000000000E+00 -0.00000000000E+00 -0.11823302958E+03  0.11823302958E+03  0.00000000000E+00 0.  1.
         23    2    1    2    0    0  0.36063550715E+01  0.12173809309E+03  0.61493188567E+02  0.18510044134E+03  0.12509033551E+03 0.  0.
          5    1    3    3  502    0 -0.27731795382E+02  0.10377433181E+03  0.88957323699E+02  0.13953150991E+03  0.41800000000E+01 0. -1.
         -5    1    3    3    0  502  0.31338150454E+02  0.17963761280E+02 -0.27464135132E+02  0.45568931431E+02  0.41800000000E+01 0. -1.
        -11    1    1    2    0    0 -0.58424210906E+02 -0.16465121217E+02  0.34715627351E+02  0.69926128300E+02  0.00000000000E+00 0. -1.
         11    1    1    2    0    0  0.54817855834E+02 -0.10527297187E+03  0.51888682832E+02  0.12953698827E+03  0.00000000000E+00 0.  1.
</event>
<event>
 8    1  0.4798744E-006  0.3016503E+03  0.7561462E-02  0.1084419E+00
          2   -1    0    0  501    0  0.00000000000E+00  0.00000000000E+00  0.22446982016E+04  0.22446982016E+04  0.00000000000E+00 0. -1.
         -2   -1    0    0    0  501 -0.00000000000E+00 -0.00000000000E+00 -0.51628694304E+02  0.51628694304E+02  0.00000000000E+00 0.  1.
         23    2    1    2    0    0  0.38142943040E+02 -0.29293842906E+03  0.67848034257E+03  0.75049939000E+03  0.12508377918E+03 0.  0.
         23    2    1    2    0    0 -0.38142943040E+02  0.29293842906E+03  0.15145891647E+04  0.15458275059E+04  0.91293662366E+02 0.  0.
          5    1    3    3  502    0  0.46468728612E+02 -0.72482339025E+02  0.10387031158E+03  0.13497979936E+03  0.41800000000E+01 0. -1.
         -5    1    3    3    0  502 -0.83257855724E+01 -0.22045609003E+03  0.57461003099E+03  0.61551959064E+03  0.41800000000E+01 0. -1.
        -11    1    4    4    0    0  0.30494959731E+01  0.45643624313E+02  0.11154217774E+03  0.12055827338E+03  0.00000000000E+00 0.  1.
         11    1    4    4    0    0 -0.41192439013E+02  0.24729480474E+03  0.14030469870E+04  0.14252692325E+04  0.00000000000E+00 0. -1.
</event>
<event>
 8    1  0.4798744E-006  0.1161121E+03  0.7561462E-02  0.1249652E+00
          2   -1    0    0  501    0  0.00000000000E+00  0.00000000000E+00  0.10843236459E+03  0.10843236459E+03  0.00000000000E+00 0. -1.
         -2   -1    0    0    0  501 -0.00000000000E+00 -0.00000000000E+00 -0.14924136602E+03  0.14924136602E+03  0.00000000000E+00 0.  1.
         23    2    1    2    0    0 -0.52152948411E+02 -0.38280981472E+02 -0.44084526074E+02  0.14756856765E+03  0.12509065972E+03 0.  0.
         23    2    1    2    0    0  0.52152948411E+02  0.38280981472E+02  0.32755246392E+01  0.11010516296E+03  0.89034006303E+02 0.  0.
          5    1    3    3  502    0  0.35225476913E+02 -0.10520720309E+02 -0.41716338268E+02  0.55760604893E+02  0.41800000000E+01 0.  1.
         -5    1    3    3    0  502 -0.87378425324E+02 -0.27760261164E+02 -0.23681878056E+01  0.91807962756E+02  0.41800000000E+01 0.  1.
        -11    1    4    4    0    0  0.44277931384E+02 -0.17132251788E+02 -0.17216078497E+02  0.50501907071E+02  0.00000000000E+00 0.  1.
         11    1    4    4    0    0  0.78750170264E+01  0.55413233260E+02  0.20491603136E+02  0.59603255889E+02  0.00000000000E+00 0. -1.
</event>
<event>
 7    1  0.4798744E-006  0.1638638E+03  0.7561462E-02  0.1184402E+00
         -2   -1    0    0    0  501 -0.00000000000E+00  0.00000000000E+00  0.65472389049E+03  0.65472389049E+03  0.00000000000E+00 0.  1.
          2   -1    0    0  501    0  0.00000000000E+00 -0.00000000000E+00 -0.60515663235E+02  0.60515663235E+02  0.00000000000E+00 0. -1.
         23    2    1    2    0    0  0.55415959607E+01 -0.14574503110E+03  0.18410751793E+03  0.25923435031E+03  0.10970208223E+03 0.  0.
          5    1    1    2  502    0 -0.79084850554E+01  0.80361805266E+02  0.62288076497E+02  0.10206782429E+03  0.41800000000E+01 0. -1.
         -5    1    1    2    0  502  0.23668890947E+01  0.65383225837E+02  0.34781263282E+03  0.35393737912E+03  0.41800000000E+01 0.  1.
        -11    1    3    3    0    0  0.36049954129E+02 -0.39450903703E+01  0.25669149015E+02  0.44430486627E+02  0.00000000000E+00 0.  1.
         11    1    3    3    0    0 -0.30508358168E+02 -0.14179994073E+03  0.15843836891E+03  0.21480386369E+03  0.00000000000E+00 0. -1.
</event>
<event>
 8    1  0.4798744E-006  0.1450013E+03  0.7561462E-02  0.1206753E+00
         -2   -1    0    0    0  501 -0.00000000000E+00  0.00000000000E+00  0.13638336838E+03  0.13638336838E+03  0.00000000000E+00 0.  1.
          2   -1    0    0  501    0  0.00000000000E+00 -0.00000000000E+00 -0.17680516729E+03  0.17680516729E+03  0.00000000000E+00 0. -1.
         23    2    1    2    0    0 -0.76251523424E+02 -0.76890892492E+02  0.17114511948E+01  0.16545944252E+03  0.12508954345E+03 0.  0.
         23    2    1    2    0    0  0.76251523424E+02  0.76890892492E+02 -0.42133250104E+02  0.14772909316E+03  0.91225928482E+02 0.  0.
          5    1    3    3  502    0  0.27529752910E+02  0.26391702159E+01 -0.17861044184E+02  0.33186470347E+02  0.41800000000E+01 0. -1.
         -5    1    3    3    0  502 -0.10378127633E+03 -0.79530062708E+02  0.19572495379E+02  0.13227297217E+03  0.41800000000E+01 0. -1.
        -11    1    4    4    0    0  0.27731014434E+02 -0.11786474632E+02  0.12736841760E+02  0.32713258533E+02  0.00000000000E+00 0.  1.
         11    1    4    4    0    0  0.48520508990E+02  0.88677367124E+02 -0.54870091864E+02  0.11501583462E+03  0.00000000000E+00 0. -1.
</event>
<event>
 8    1  0.4798744E-006  0.1078656E+03  0.7561462E-02  0.1264574E+00
         -1   -1    0    0    0  501 -0.00000000000E+00  0.00000000000E+00  0.46665842509E+02  0.46665842509E+02  0.00000000000E+00 0.  1.
          1   -1    0    0  501    0  0.00000000000E+00 -0.00000000000E+00 -0.34607642127E+03  0.34607642127E+03  0.00000000000E+00 0. -1.
         23    2    1    2    0    0 -0.53857782442E+01 -0.16549673655E+02 -0.66826629722E+02  0.14289471769E+03  0.12510077377E+03 0.  0.
         23    2    1    2    0    0  0.53857782442E+01  0.16549673655E+02 -0.23258394904E+03  0.24984754609E+03  0.89585738997E+02 0.  0.
          5    1    3    3  502    0 -0.51524474199E+02  0.29234435590E+02 -0.19961291501E+02  0.62652607481E+02  0.41800000000E+01 0.  1.
         -5    1    3    3    0  502  0.46138695955E+02 -0.45784109245E+02 -0.46865338221E+02  0.80242110206E+02  0.41800000000E+01 0.  1.
        -11    1    4    4    0    0 -0.96906675355E+01 -0.35614985212E+02 -0.98250327264E+02  0.10495457597E+03  0.00000000000E+00 0.  1.
         11    1    4    4    0    0  0.15076445780E+02  0.52164658867E+02 -0.13433362177E+03  0.14489297012E+03  0.00000000000E+00 0. -1.
</event>
<event>
 8    1  0.4798744E-006  0.1490564E+03  0.7561462E-02  0.1201637E+00
         -2   -1    0    0    0  501 -0.00000000000E+00  0.00000000000E+00  0.12848942284E+02  0.12848942284E+02  0.00000000000E+00 0.  1.
          2   -1    0    0  501    0  0.00000000000E+00 -0.00000000000E+00 -0.22168598766E+04  0.22168598766E+04  0.00000000000E+00 0. -1.
         23    2    1    2    0    0  0.10755647699E+03  0.26813104378E+01 -0.16512390177E+04  0.16594618120E+04  0.12509047452E+03 0.  0.
         23    2    1    2    0    0 -0.10755647699E+03 -0.26813104378E+01 -0.55277191662E+03  0.57024700686E+03  0.89717734413E+02 0.  0.
          5    1    3    3  502    0  0.94202383425E+02 -0.50265273628E+02 -0.12393584109E+04  0.12439563617E+04  0.41800000000E+01 0. -1.
         -5    1    3    3    0  502  0.13354093563E+02  0.52946584065E+02 -0.41188060685E+03  0.41550545036E+03  0.41800000000E+01 0. -1.
        -11    1    4    4    0    0 -0.61619446476E+02  0.40263679691E+02 -0.36099996027E+03  0.36842786459E+03  0.00000000000E+00 0. -1.
         11    1    4    4    0    0 -0.45937030512E+02 -0.42944990129E+02 -0.19177195634E+03  0.20181914227E+03  0.00000000000E+00 0.  1.
</event>
<event>
 8    1  0.4798744E-006  0.2226577E+03  0.7561462E-02  0.1131917E+00
         -2   -1    0    0    0  501 -0.00000000000E+00  0.00000000000E+00  0.54841592991E+02  0.54841592991E+02  0.00000000000E+00 0.  1.
          2   -1    0    0  501    0  0.00000000000E+00 -0.00000000000E+00 -0.10562107502E+04  0.10562107502E+04  0.00000000000E+00 0. -1.
         23    2    1    2    0    0 -0.12444044714E+03  0.16660997797E+03 -0.41971055116E+03  0.48481677867E+03  0.12508418159E+03 0.  0.
         23    2    1    2    0    0  0.12444044714E+03 -0.16660997797E+03 -0.58165860603E+03  0.62623556450E+03  0.10295600338E+03 0.  0.
          5    1    3    3  502    0 -0.12883845040E+03  0.17594781392E+03 -0.42044735966E+03  0.47365645163E+03  0.41800000000E+01 0.  1.
         -5    1    3    3    0  502  0.43980032611E+01 -0.93378359547E+01  0.73680849551E+00  0.11160327045E+02  0.41800000000E+01 0.  1.
        -11    1    4    4    0    0  0.76045491455E+01 -0.51465991307E+02 -0.26010742113E+03  0.26525920899E+03  0.00000000000E+00 0. -1.
         11    1    4    4    0    0  0.11683589799E+03 -0.11514398666E+03 -0.32155118491E+03  0.36097635551E+03  0.00000000000E+00 0.  1.
</event>
<event>
 8    1  0.4798744E-006  0.9673451E+02  0.7561462E-02  0.1287317E+00
         -3   -1    0    0    0  501 -0.00000000000E+00  0.00000000000E+00  0.22904732761E+03  0.22904732761E+03  0.00000000000E+00 0.  1.
          3   -1    0    0  501    0  0.00000000000E+00 -0.00000000000E+00 -0.59010590563E+02  0.59010590563E+02  0.00000000000E+00 0. -1.
         23    2    1    2    0    0  0.27755141112E+02 -0.18681118587E+02  0.91826611077E+02  0.15873461888E+03  0.12508085657E+03 0.  0.
         23    2    1    2    0    0 -0.27755141112E+02  0.18681118587E+02  0.78210125974E+02  0.12932329929E+03  0.97408212616E+02 0.  0.
          5    1    3    3  502    0  0.90600367913E+01  0.35097227887E+02  0.94789052124E+02  0.10156936780E+03  0.41800000000E+01 0.  1.
         -5    1    3    3    0  502  0.18695104321E+02 -0.53778346474E+02 -0.29624410467E+01  0.57165251088E+02  0.41800000000E+01 0.  1.
        -11    1    4    4    0    0  0.10939975026E+01 -0.37087687293E+02  0.44896626116E+02  0.58244316598E+02  0.00000000000E+00 0.  1.
         11    1    4    4    0    0 -0.28849138615E+02  0.55768805880E+02  0.33313499858E+02  0.71078982695E+02  0.00000000000E+00 0. -1.
</event>
<event>
 8    1  0.4798744E-006  0.1303931E+03  0.7561462E-02  0.1226874E+00
          2   -1    0    0  501    0  0.00000000000E+00  0.00000000000E+00  0.52797130443E+03  0.52797130443E+03  0.00000000000E+00 0. -1.
         -2   -1    0    0    0  501 -0.00000000000E+00 -0.00000000000E+00 -0.33748914752E+02  0.33748914752E+02  0.00000000000E+00 0.  1.
         23    2    1    2    0    0  0.69953115063E+02  0.32353905826E+02  0.26425376719E+03  0.30235400279E+03  0.12509067112E+03 0.  0.
         23    2    1    2    0    0 -0.69953115063E+02 -0.32353905826E+02  0.22996862249E+03  0.25936621639E+03  0.91896971368E+02 0.  0.
          5    1    3    3  502    0  0.13484714489E+02  0.71886094423E+02  0.98224628751E+02  0.12253570169E+03  0.41800000000E+01 0.  1.
         -5    1    3    3    0  502  0.56468400574E+02 -0.39532188596E+02  0.16602913844E+03  0.17981830110E+03  0.41800000000E+01 0.  1.
        -11    1    4    4    0    0 -0.37210787975E+02  0.30160935939E+02  0.73644633108E+02  0.87851333422E+02  0.00000000000E+00 0. -1.
         11    1    4    4    0    0 -0.32742327088E+02 -0.62514841765E+02  0.15632398938E+03  0.17151488297E+03  0.00000000000E+00 0.  1.
</event>
<event>
 8    1  0.4798744E-006  0.2922788E+03  0.7561462E-02  0.1089165E+00
          2   -1    0    0  501    0  0.00000000000E+00  0.00000000000E+00  0.53932976500E+03  0.53932976500E+03  0.00000000000E+00 0. -1.
         -2   -1    0    0    0  501 -0.00000000000E+00 -0.00000000000E+00 -0.19410650215E+03  0.19410650215E+03  0.00000000000E+00 0.  1.
         23    2    1    2    0    0 -0.26584933755E+03  0.11371403995E+03  0.28398179809E+03  0.42414645387E+03  0.12509116483E+03 0.  0.
         23    2    1    2    0    0  0.26584933755E+03 -0.11371403995E+03  0.61241464757E+02  0.30928981328E+03  0.91120351381E+02 0.  0.
          5    1    3    3  502    0 -0.10193945530E+03  0.69178088645E+02  0.19922258270E+03  0.23427413505E+03  0.41800000000E+01 0. -1.
         -5    1    3    3    0  502 -0.16390988225E+03  0.44535951306E+02  0.84759215399E+02  0.18987231882E+03  0.41800000000E+01 0. -1.
        -11    1    4    4    0    0  0.23904282863E+03 -0.89453798042E+02  0.22380756553E+02  0.25621154183E+03  0.00000000000E+00 0.  1.
         11    1    4    4    0    0  0.26806508920E+02 -0.24260241909E+02  0.38860708204E+02  0.53078271450E+02  0.00000000000E+00 0. -1.
</event>
<event>
 8    1  0.4798744E-006  0.1717245E+03  0.7561462E-02  0.1176061E+00
          2   -1    0    0  501    0  0.00000000000E+00  0.00000000000E+00  0.11522573216E+04  0.11522573216E+04  0.00000000000E+00 0.  1.
         -2   -1    0    0    0  501 -0.00000000000E+00 -0.00000000000E+00 -0.35679640493E+02  0.35679640493E+02  0.00000000000E+00 0. -1.
         23    2    1    2    0    0 -0.14397920801E+03 -0.74284629377E+02  0.40530918522E+03  0.45406028339E+03  0.12508791640E+03 0.  0.
         23    2    1    2    0    0  0.14397920801E+03  0.74284629377E+02  0.71126849590E+03  0.73387667871E+03  0.80149159715E+02 0.  0.
          5    1    3    3  502    0 -0.98310069249E+02 -0.65208768289E+02  0.13326433171E+03  0.17802782840E+03  0.41800000000E+01 0.  1.
         -5    1    3    3    0  502 -0.45669138757E+02 -0.90758610882E+01  0.27204485350E+03  0.27603245499E+03  0.41800000000E+01 0.  1.
        -11    1    4    4    0    0  0.37656460782E+02  0.60749826090E+02  0.23153341668E+03  0.24231441032E+03  0.00000000000E+00 0.  1.
         11    1    4    4    0    0  0.10632274722E+03  0.13534803287E+02  0.47973507922E+03  0.49156226840E+03  0.00000000000E+00 0. -1.
</event>
<event>
 8    1  0.4798744E-006  0.1167596E+03  0.7561462E-02  0.1248540E+00
         -3   -1    0    0    0  501 -0.00000000000E+00  0.00000000000E+00  0.16298388916E+03  0.16298388916E+03  0.00000000000E+00 0.  1.
          3   -1    0    0  501    0  0.00000000000E+00 -0.00000000000E+00 -0.98390223783E+02  0.98390223783E+02  0.00000000000E+00 0. -1.
         23    2    1    2    0    0  0.46827186930E+02  0.17487463539E+02  0.75296722815E+02  0.15438116239E+03  0.12516129601E+03 0.  0.
         23    2    1    2    0    0 -0.46827186930E+02 -0.17487463539E+02 -0.10703057433E+02  0.10699295055E+03  0.93991165612E+02 0.  0.
          5    1    3    3  502    0  0.50647516290E+02  0.63515002243E+02  0.70709099864E+02  0.10778021906E+03  0.41800000000E+01 0.  1.
         -5    1    3    3    0  502 -0.38203293602E+01 -0.46027538704E+02  0.45876229516E+01  0.46600943337E+02  0.41800000000E+01 0.  1.
        -11    1    4    4    0    0 -0.75500185530E+02 -0.99441087870E+01 -0.23433682396E+01  0.76188284462E+02  0.00000000000E+00 0.  1.
         11    1    4    4    0    0  0.28672998600E+02 -0.75433547524E+01 -0.83596891935E+01  0.30804666092E+02  0.00000000000E+00 0. -1.
</event>
<event>
 8    1  0.1409808E-005  0.2494742E+03  0.7561462E-02  0.1113638E+00
          1   -1    0    0  501    0  0.00000000000E+00  0.00000000000E+00  0.15810330762E+04  0.15810330762E+04  0.00000000000E+00 0. -1.
         -1   -1    0    0    0  501 -0.00000000000E+00 -0.00000000000E+00 -0.42874045698E+02  0.42874045698E+02  0.00000000000E+00 0.  1.
         23    2    1    2    0    0  0.23617728242E+03  0.20017277763E+02  0.72953830816E+03  0.77720919877E+03  0.12509034910E+03 0.  0.
         23    2    1    2    0    0 -0.23617728242E+03 -0.20017277763E+02  0.80862072235E+03  0.84669792313E+03  0.82761707858E+02 0.  0.
          5    1    3    3  502    0  0.22604632986E+03  0.47397222128E+02  0.69158867587E+03  0.72914731633E+03  0.41800000000E+01 0. -1.
         -5    1    3    3    0  502  0.10130952560E+02 -0.27379944365E+02  0.37949632282E+02  0.48061882439E+02  0.41800000000E+01 0. -1.
        -11    1    4    4    0    0 -0.18285263389E+03 -0.26411010715E+02  0.49179099591E+03  0.52534846613E+03  0.00000000000E+00 0.  1.
         11    1    4    4    0    0 -0.53324648536E+02  0.63937329518E+01  0.31682972644E+03  0.32134945700E+03  0.00000000000E+00 0. -1.
</event>
<event>
 8    1  0.4798744E-006  0.9279911E+02  0.7561462E-02  0.1296211E+00
          2   -1    0    0  501    0  0.00000000000E+00  0.00000000000E+00  0.48229754147E+02  0.48229754147E+02  0.00000000000E+00 0. -1.
         -2   -1    0    0    0  501 -0.00000000000E+00 -0.00000000000E+00 -0.33800495169E+03  0.33800495169E+03  0.00000000000E+00 0.  1.
         23    2    1    2    0    0 -0.26502231127E+02  0.23412809047E+01 -0.25333159633E+03  0.28378165907E+03  0.12508909815E+03 0.  0.
         23    2    1    2    0    0  0.26502231127E+02 -0.23412809047E+01 -0.36443601220E+02  0.10245304677E+03  0.91981742058E+02 0.  0.
          5    1    3    3  502    0 -0.69799250653E+02 -0.11000854288E+01 -0.85950705120E+02  0.11080677637E+03  0.41800000000E+01 0.  1.
         -5    1    3    3    0  502  0.43297019527E+02  0.34413663335E+01 -0.16738089121E+03  0.17297488270E+03  0.41800000000E+01 0.  1.
        -11    1    4    4    0    0 -0.27411065497E+01 -0.30979384496E+02 -0.50387373511E+02  0.59212526869E+02  0.00000000000E+00 0.  1.
         11    1    4    4    0    0  0.29243337676E+02  0.28638103592E+02  0.13943772291E+02  0.43240519903E+02  0.00000000000E+00 0. -1.
</event>
<event>
 8    1  0.4798744E-006  0.1132530E+03  0.7561462E-02  0.1254662E+00
         -1   -1    0    0    0  501 -0.00000000000E+00  0.00000000000E+00  0.22654666361E+03  0.22654666361E+03  0.00000000000E+00 0.  1.
          1   -1    0    0  501    0  0.00000000000E+00 -0.00000000000E+00 -0.10670565204E+03  0.10670565204E+03  0.00000000000E+00 0. -1.
         23    2    1    2    0    0  0.35897472857E+02 -0.69119751608E+02  0.14007436965E+03  0.20330821103E+03  0.12508889248E+03 0.  0.
         23    2    1    2    0    0 -0.35897472857E+02  0.69119751608E+02 -0.20233358083E+02  0.12994410462E+03  0.10202898082E+03 0.  0.
          5    1    3    3  502    0  0.77341572350E+02 -0.16031989264E+02  0.65119538740E+02  0.10245374673E+03  0.41800000000E+01 0. -1.
         -5    1    3    3    0  502 -0.41444099493E+02 -0.53087762344E+02  0.74954830909E+02  0.10085446430E+03  0.41800000000E+01 0. -1.
        -11    1    4    4    0    0 -0.11442561083E+02  0.41462880681E+02  0.40364271133E+02  0.58986244690E+02  0.00000000000E+00 0.  1.
         11    1    4    4    0    0 -0.24454911774E+02  0.27656870927E+02 -0.60597629216E+02  0.70957859930E+02  0.00000000000E+00 0. -1.
</event>
<event>
 8    1  0.4798744E-006  0.9479093E+02  0.7561462E-02  0.1291648E+00
          2   -1    0    0  501    0  0.00000000000E+00  0.00000000000E+00  0.19627805225E+03  0.19627805225E+03  0.00000000000E+00 0. -1.
         -2   -1    0    0    0  501 -0.00000000000E+00 -0.00000000000E+00 -0.83006235316E+02  0.83006235316E+02  0.00000000000E+00 0.  1.
         23    2    1    2    0    0 -0.24218095292E+02  0.56722768688E+02  0.34392394998E+02  0.14367432859E+03  0.12512188951E+03 0.  0.
         23    2    1    2    0    0  0.24218095292E+02 -0.56722768688E+02  0.78879421934E+02  0.13560995897E+03  0.91455503615E+02 0.  0.
          5    1    3    3  502    0 -0.40707404479E+02 -0.20654740571E+02 -0.17390881317E+02  0.49026791048E+02  0.41800000000E+01 0. -1.
         -5    1    3    3    0  502  0.16489309188E+02  0.77377509259E+02  0.51783276315E+02  0.94647537541E+02  0.41800000000E+01 0. -1.
        -11    1    4    4    0    0  0.22748223294E+02 -0.29484570150E+02 -0.13250096030E+02  0.39527036124E+02  0.00000000000E+00 0.  1.
         11    1    4    4    0    0  0.14698719976E+01 -0.27238198538E+02  0.92129517964E+02  0.96082922851E+02  0.00000000000E+00 0. -1.
</event>
<event>
 8    1  0.4798744E-006  0.1160427E+03  0.7561462E-02  0.1249772E+00
         -2   -1    0    0    0  501 -0.00000000000E+00  0.00000000000E+00  0.42117956750E+03  0.42117956750E+03  0.00000000000E+00 0. -1.
          2   -1    0    0  501    0  0.00000000000E+00 -0.00000000000E+00 -0.32260127666E+02  0.32260127666E+02  0.00000000000E+00 0.  1.
         23    2    1    2    0    0  0.39934075024E+02 -0.14358270755E+02  0.21614753192E+03  0.25331339783E+03  0.12508809566E+03 0.  0.
         23    2    1    2    0    0 -0.39934075024E+02  0.14358270755E+02  0.17277190791E+03  0.20012629733E+03  0.91648853974E+02 0.  0.
          5    1    3    3  502    0  0.81698034716E+02  0.11642352704E+02  0.13079198297E+03  0.15470658830E+03  0.41800000000E+01 0. -1.
         -5    1    3    3    0  502 -0.41763959692E+02 -0.26000623459E+02  0.85355548955E+02  0.98606809535E+02  0.41800000000E+01 0. -1.
        -11    1    4    4    0    0  0.26691717229E+02  0.19801910397E+02  0.70563685525E+02  0.77998699597E+02  0.00000000000E+00 0. -1.
         11    1    4    4    0    0 -0.66625792253E+02 -0.54436396419E+01  0.10220822238E+03  0.12212759774E+03  0.00000000000E+00 0.  1.
</event>
<event>
 8    1  0.4798744E-006  0.1281132E+03  0.7561462E-02  0.1230283E+00
         -1   -1    0    0    0  501 -0.00000000000E+00  0.00000000000E+00  0.34901206677E+02  0.34901206677E+02  0.00000000000E+00 0.  1.
          1   -1    0    0  501    0  0.00000000000E+00 -0.00000000000E+00 -0.65667317060E+03  0.65667317060E+03  0.00000000000E+00 0. -1.
         23    2    1    2    0    0 -0.59821774465E+02 -0.62628099580E+02 -0.19784484946E+03  0.24958131429E+03  0.12508926584E+03 0.  0.
         23    2    1    2    0    0  0.59821774465E+02  0.62628099580E+02 -0.42392711446E+03  0.44199306299E+03  0.90237164150E+02 0.  0.
          5    1    3    3  502    0 -0.71062195496E+02  0.10877319407E+02 -0.13108611055E+03  0.14956333937E+03  0.41800000000E+01 0.  1.
         -5    1    3    3    0  502  0.11240421030E+02 -0.73505418987E+02 -0.66758738912E+02  0.10001797492E+03  0.41800000000E+01 0.  1.
        -11    1    4    4    0    0  0.52754664245E+02  0.64851775693E+01 -0.31285141790E+03  0.31733440061E+03  0.00000000000E+00 0. -1.
         11    1    4    4    0    0  0.70671102200E+01  0.56142922010E+02 -0.11107569656E+03  0.12465866238E+03  0.00000000000E+00 0.  1.
</event>
<event>
 8    1  0.4798744E-006  0.7535848E+02  0.7561462E-02  0.1342765E+00
         -1   -1    0    0    0  501 -0.00000000000E+00  0.00000000000E+00  0.53328721014E+02  0.53328721014E+02  0.00000000000E+00 0.  1.
          1   -1    0    0  501    0  0.00000000000E+00 -0.00000000000E+00 -0.25991452415E+03  0.25991452415E+03  0.00000000000E+00 0. -1.
         23    2    1    2    0    0  0.88937285643E+01 -0.32053270773E+02 -0.74612869934E+02  0.14940919052E+03  0.12509802267E+03 0.  0.
         23    2    1    2    0    0 -0.88937285643E+01  0.32053270773E+02 -0.13197293320E+03  0.16383405464E+03  0.91204340840E+02 0.  0.
          5    1    3    3  502    0  0.25313070377E+02 -0.10999760684E+02 -0.10505619539E+03  0.10870153107E+03  0.41800000000E+01 0. -1.
         -5    1    3    3    0  502 -0.16419341813E+02 -0.21053510089E+02  0.30443325459E+02  0.40707659447E+02  0.41800000000E+01 0. -1.
        -11    1    4    4    0    0 -0.36518396432E+02 -0.16377515536E+02 -0.68635907383E+02  0.79452527181E+02  0.00000000000E+00 0.  1.
         11    1    4    4    0    0  0.27624667868E+02  0.48430786309E+02 -0.63337025816E+02  0.84381527460E+02  0.00000000000E+00 0. -1.
</event>
<event>
 8    1  0.4798744E-006  0.9428594E+02  0.7561462E-02  0.1292792E+00
          2   -1    0    0  501    0  0.00000000000E+00  0.00000000000E+00  0.63499423944E+03  0.63499423944E+03  0.00000000000E+00 0. -1.
         -2   -1    0    0    0  501 -0.00000000000E+00 -0.00000000000E+00 -0.28081760987E+02  0.28081760987E+02  0.00000000000E+00 0.  1.
         23    2    1    2    0    0  0.64717147328E+02  0.19667306835E+02  0.24250454337E+03  0.28112654304E+03  0.12509423461E+03 0.  0.
         23    2    1    2    0    0 -0.64717147328E+02 -0.19667306835E+02  0.36440793508E+03  0.38194945739E+03  0.92288313068E+02 0.  0.
          5    1    3    3  502    0  0.57004617141E+02  0.27811289325E+02  0.33636499764E+02  0.71915788988E+02  0.41800000000E+01 0.  1.
         -5    1    3    3    0  502  0.77125301875E+01 -0.81439824905E+01  0.20886804360E+03  0.20921075405E+03  0.41800000000E+01 0.  1.
        -11    1    4    4    0    0  0.12244759339E+02  0.22252770325E+02  0.59444020651E+02  0.64642954060E+02  0.00000000000E+00 0.  1.
         11    1    4    4    0    0 -0.76961906667E+02 -0.41920077160E+02  0.30496391443E+03  0.31730650333E+03  0.00000000000E+00 0. -1.
</event>
<event>
 8    1  0.4798744E-006  0.1677008E+03  0.7561462E-02  0.1180267E+00
          1   -1    0    0  501    0  0.00000000000E+00  0.00000000000E+00  0.74401634005E+02  0.74401634005E+02  0.00000000000E+00 0. -1.
         -1   -1    0    0    0  501 -0.00000000000E+00 -0.00000000000E+00 -0.40522642084E+03  0.40522642084E+03  0.00000000000E+00 0.  1.
         23    2    1    2    0    0 -0.77101616970E+02  0.10418969552E+03 -0.22806323762E+03  0.29062175782E+03  0.12509202121E+03 0.  0.
         23    2    1    2    0    0  0.77101616970E+02 -0.10418969552E+03 -0.10276154922E+03  0.18900629703E+03  0.91451037864E+02 0.  0.
          5    1    3    3  502    0 -0.29152672634E+02  0.12414102418E+03 -0.15242970761E+03  0.19877917488E+03  0.41800000000E+01 0.  1.
         -5    1    3    3    0  502 -0.47948944335E+02 -0.19951328656E+02 -0.75633530014E+02  0.91842582936E+02  0.41800000000E+01 0.  1.
        -11    1    4    4    0    0 -0.17315168966E+02 -0.33690362948E+02 -0.41540733128E+02  0.56218218939E+02  0.00000000000E+00 0.  1.
         11    1    4    4    0    0  0.94416785936E+02 -0.70499332577E+02 -0.61220816092E+02  0.13278807809E+03  0.00000000000E+00 0. -1.
</event>
<event>
 8    1  0.4798744E-006  0.1675698E+03  0.7561462E-02  0.1180406E+00
         -1   -1    0    0    0  501 -0.00000000000E+00  0.00000000000E+00  0.14853581940E+03  0.14853581940E+03  0.00000000000E+00 0.  1.
          1   -1    0    0  501    0  0.00000000000E+00 -0.00000000000E+00 -0.25523471906E+03  0.25523471906E+03  0.00000000000E+00 0. -1.
         23    2    1    2    0    0 -0.13697188144E+03  0.60896804265E+02 -0.96709291880E+02  0.21787584735E+03  0.12508989026E+03 0.  0.
         23    2    1    2    0    0  0.13697188144E+03 -0.60896804265E+02 -0.99896077853E+01  0.18589469111E+03  0.10948665144E+03 0.  0.
          5    1    3    3  502    0 -0.11486719908E+03  0.19237143331E+02 -0.73801488693E+01  0.11677534031E+03  0.41800000000E+01 0. -1.
         -5    1    3    3    0  502 -0.22104682364E+02  0.41659660934E+02 -0.89329143010E+02  0.10110050703E+03  0.41800000000E+01 0. -1.
        -11    1    4    4    0    0  0.13000338896E+03 -0.22141726728E+02 -0.38384302147E+02  0.13734806826E+03  0.00000000000E+00 0. -1.
         11    1    4    4    0    0  0.69684924830E+01 -0.38755077537E+02  0.28394694362E+02  0.48546622851E+02  0.00000000000E+00 0.  1.
</event>
<event>
 8    1  0.4798744E-006  0.1315945E+03  0.7561462E-02  0.1225109E+00
          1   -1    0    0  501    0  0.00000000000E+00  0.00000000000E+00  0.59391559581E+02  0.59391559581E+02  0.00000000000E+00 0. -1.
         -1   -1    0    0    0  501 -0.00000000000E+00 -0.00000000000E+00 -0.78482124487E+03  0.78482124487E+03  0.00000000000E+00 0.  1.
         23    2    1    2    0    0  0.19407090266E+02 -0.11155404376E+03 -0.66573764920E+03  0.68678578170E+03  0.12508857881E+03 0.  0.
         23    2    1    2    0    0 -0.19407090266E+02  0.11155404376E+03 -0.59692036088E+02  0.15742702275E+03  0.91647086628E+02 0.  0.
          5    1    3    3  502    0  0.19406721838E+02 -0.42601195081E+01 -0.39516282653E+03  0.39568409286E+03  0.41800000000E+01 0.  1.
         -5    1    3    3    0  502  0.36842815556E-03 -0.10729392425E+03 -0.27057482267E+03  0.29110168884E+03  0.41800000000E+01 0.  1.
        -11    1    4    4    0    0  0.20124418175E+02  0.34673253895E+01 -0.33755226946E+02  0.39451614649E+02  0.00000000000E+00 0.  1.
         11    1    4    4    0    0 -0.39531508440E+02  0.10808671837E+03 -0.25936809142E+02  0.11797540810E+03  0.00000000000E+00 0. -1.
</event>
<event>
 8    1  0.4798744E-006  0.4460269E+03  0.7561462E-02  0.1028914E+00
         -1   -1    0    0    0  501 -0.00000000000E+00  0.00000000000E+00  0.23004377813E+03  0.23004377813E+03  0.00000000000E+00 0.  1.
          1   -1    0    0  501    0  0.00000000000E+00 -0.00000000000E+00 -0.90145530955E+03  0.90145530955E+03  0.00000000000E+00 0. -1.
         23    2    1    2    0    0 -0.37695489633E+03 -0.21847029596E+03 -0.24625491901E+03  0.51586605672E+03  0.12510811026E+03 0.  0.
         23    2    1    2    0    0  0.37695489633E+03  0.21847029596E+03 -0.42515661241E+03  0.61563303096E+03  0.91769382982E+02 0.  0.
          5    1    3    3  502    0 -0.24744162924E+03 -0.74795588684E+02 -0.15995156360E+03  0.30401268899E+03  0.41800000000E+01 0.  1.
         -5    1    3    3    0  502 -0.12951326709E+03 -0.14367470728E+03 -0.86303355404E+02  0.21185336773E+03  0.41800000000E+01 0.  1.
        -11    1    4    4    0    0  0.24195853660E+03  0.10527182364E+03 -0.20794730159E+03  0.33595858453E+03  0.00000000000E+00 0.  1.
         11    1    4    4    0    0  0.13499635973E+03  0.11319847232E+03 -0.21720931083E+03  0.27967444643E+03  0.00000000000E+00 0. -1.
</event>
<event>
 8    1  0.4798744E-006  0.1768060E+03  0.7561462E-02  0.1170931E+00
          2   -1    0    0  501    0  0.00000000000E+00  0.00000000000E+00  0.65256126630E+03  0.65256126630E+03  0.00000000000E+00 0. -1.
         -2   -1    0    0    0  501 -0.00000000000E+00 -0.00000000000E+00 -0.71123412508E+02  0.71123412508E+02  0.00000000000E+00 0.  1.
         23    2    1    2    0    0 -0.12041060020E+03  0.10443063369E+03  0.14463723616E+03  0.24894160316E+03  0.12509005479E+03 0.  0.
         23    2    1    2    0    0  0.12041060020E+03 -0.10443063369E+03  0.43680061763E+03  0.47474307565E+03  0.95821388097E+02 0.  0.
          5    1    3    3  502    0 -0.32462742094E+02 -0.22100405913E+02  0.30103966072E+01  0.39607984719E+02  0.41800000000E+01 0.  1.
         -5    1    3    3    0  502 -0.87947858101E+02  0.12653103961E+03  0.14162683955E+03  0.20933361844E+03  0.41800000000E+01 0.  1.
        -11    1    4    4    0    0  0.59115953356E+02 -0.42299851627E+02  0.32435696534E+03  0.33240248849E+03  0.00000000000E+00 0. -1.
         11    1    4    4    0    0  0.61294646840E+02 -0.62130782067E+02  0.11244365229E+03  0.14234058716E+03  0.00000000000E+00 0.  1.
</event>
<event>
 8    1  0.4798744E-006  0.9630299E+02  0.7561462E-02  0.1288268E+00
         -2   -1    0    0    0  501 -0.00000000000E+00  0.00000000000E+00  0.60130174685E+02  0.60130174685E+02  0.00000000000E+00 0. -1.
          2   -1    0    0  501    0  0.00000000000E+00 -0.00000000000E+00 -0.35835954816E+03  0.35835954816E+03  0.00000000000E+00 0.  1.
         23    2    1    2    0    0 -0.40179335895E+02 -0.57371579769E+02 -0.62816745813E+02  0.15651563416E+03  0.12508126552E+03 0.  0.
         23    2    1    2    0    0  0.40179335895E+02  0.57371579769E+02 -0.23541262766E+03  0.26197408868E+03  0.91134190522E+02 0.  0.
          5    1    3    3  502    0 -0.37122991468E+02 -0.21983801108E+02 -0.97496573609E+02  0.10669797689E+03  0.41800000000E+01 0.  1.
         -5    1    3    3    0  502 -0.30563444268E+01 -0.35387778661E+02  0.34679827796E+02  0.49817657269E+02  0.41800000000E+01 0.  1.
        -11    1    4    4    0    0  0.41445809780E+01  0.73783071021E+02 -0.17215572227E+03  0.18734650205E+03  0.00000000000E+00 0.  1.
         11    1    4    4    0    0  0.36034754917E+02 -0.16411491252E+02 -0.63256905388E+02  0.74627586630E+02  0.00000000000E+00 0. -1.
</event>
<event>
 8    1  0.4798744E-006  0.1725879E+03  0.7561462E-02  0.1175176E+00
         -1   -1    0    0    0  501 -0.00000000000E+00  0.00000000000E+00  0.17975915433E+03  0.17975915433E+03  0.00000000000E+00 0.  1.
          1   -1    0    0  501    0  0.00000000000E+00 -0.00000000000E+00 -0.29026278459E+03  0.29026278459E+03  0.00000000000E+00 0. -1.
         23    2    1    2    0    0 -0.13373404786E+03 -0.99227007536E+02  0.57967504166E+02  0.21618683502E+03  0.12508285860E+03 0.  0.
         23    2    1    2    0    0  0.13373404786E+03  0.99227007536E+02 -0.16847113442E+03  0.25383510390E+03  0.91208235689E+02 0.  0.
          5    1    3    3  502    0 -0.10493053872E+03 -0.10459457086E+03  0.89338306235E+02  0.17305850909E+03  0.41800000000E+01 0.  1.
         -5    1    3    3    0  502 -0.28803509145E+02  0.53675633256E+01 -0.31370802069E+02  0.43128325930E+02  0.41800000000E+01 0.  1.
        -11    1    4    4    0    0  0.11006707935E+02  0.29949756756E+01  0.11153479948E+02  0.15953608175E+02  0.00000000000E+00 0.  1.
         11    1    4    4    0    0  0.12272733993E+03  0.96232031861E+02 -0.17962461437E+03  0.23788149573E+03  0.00000000000E+00 0. -1.
</event>
<event>
 8    1  0.4798744E-006  0.1099158E+03  0.7561462E-02  0.1260726E+00
         -2   -1    0    0    0  501 -0.00000000000E+00  0.00000000000E+00  0.43072133192E+02  0.43072133192E+02  0.00000000000E+00 0.  1.
          2   -1    0    0  501    0  0.00000000000E+00 -0.00000000000E+00 -0.29048286263E+03  0.29048286263E+03  0.00000000000E+00 0. -1.
         23    2    1    2    0    0 -0.20729510285E+02 -0.26646913554E+01 -0.11702376082E+03  0.17256617786E+03  0.12509081488E+03 0.  0.
         23    2    1    2    0    0  0.20729510285E+02  0.26646913554E+01 -0.13038696862E+03  0.16098881796E+03  0.92085963905E+02 0.  0.
          5    1    3    3  502    0 -0.72226443553E+02  0.10330395205E+02 -0.74931754589E+02  0.10466908072E+03  0.41800000000E+01 0. -1.
         -5    1    3    3    0  502  0.51496933268E+02 -0.12995086561E+02 -0.42092006235E+02  0.67897097137E+02  0.41800000000E+01 0. -1.
        -11    1    4    4    0    0 -0.34454652203E+02  0.13910331823E+02 -0.40928410751E+02  0.55278885630E+02  0.00000000000E+00 0. -1.
         11    1    4    4    0    0  0.55184162489E+02 -0.11245640467E+02 -0.89458557864E+02  0.10570993233E+03  0.00000000000E+00 0.  1.
</event>
<event>
 8    1  0.4798744E-006  0.1005392E+03  0.7561462E-02  0.1279166E+00
          2   -1    0    0  501    0  0.00000000000E+00  0.00000000000E+00  0.56243253656E+03  0.56243253656E+03  0.00000000000E+00 0. -1.
         -2   -1    0    0    0  501 -0.00000000000E+00 -0.00000000000E+00 -0.29128970767E+02  0.29128970767E+02  0.00000000000E+00 0.  1.
         23    2    1    2    0    0 -0.20110042386E+02  0.29257668223E+02  0.16240114272E+03  0.20804352946E+03  0.12509018362E+03 0.  0.
         23    2    1    2    0    0  0.20110042386E+02 -0.29257668223E+02  0.37090242307E+03  0.38351797786E+03  0.90868074433E+02 0.  0.
          5    1    3    3  502    0 -0.59195604954E+02  0.40863234089E+01  0.14750490212E+03  0.15904711954E+03  0.41800000000E+01 0. -1.
         -5    1    3    3    0  502  0.39085562567E+02  0.25171344814E+02  0.14896240600E+02  0.48996409919E+02  0.41800000000E+01 0. -1.
        -11    1    4    4    0    0 -0.98671562999E+01 -0.54710092766E+02  0.17185452573E+03  0.18062262604E+03  0.00000000000E+00 0.  1.
         11    1    4    4    0    0  0.29977198686E+02  0.25452424543E+02  0.19904789734E+03  0.20289535182E+03  0.00000000000E+00 0. -1.
</event>
<event>
 8    1  0.4798744E-006  0.2960559E+03  0.7561462E-02  0.1087229E+00
         -1   -1    0    0    0  501 -0.00000000000E+00  0.00000000000E+00  0.18978913767E+03  0.18978913767E+03  0.00000000000E+00 0.  1.
          1   -1    0    0  501    0  0.00000000000E+00 -0.00000000000E+00 -0.48381475555E+03  0.48381475555E+03  0.00000000000E+00 0. -1.
         23    2    1    2    0    0 -0.24415296908E+03 -0.13478889358E+03 -0.99377665051E+02  0.32140686898E+03  0.12509091483E+03 0.  0.
         23    2    1    2    0    0  0.24415296908E+03  0.13478889358E+03 -0.19464795283E+03  0.35219702425E+03  0.91521583285E+02 0.  0.
          5    1    3    3  502    0 -0.19411648415E+03 -0.49105910523E+02 -0.35693736962E+02  0.20343086080E+03  0.41800000000E+01 0.  1.
         -5    1    3    3    0  502 -0.50036484932E+02 -0.85682983055E+02 -0.63683928089E+02  0.11797600818E+03  0.41800000000E+01 0.  1.
        -11    1    4    4    0    0  0.22398110992E+03  0.86341496105E+02 -0.17045376256E+03  0.29440936928E+03  0.00000000000E+00 0. -1.
         11    1    4    4    0    0  0.20171859163E+02  0.48447397473E+02 -0.24194190268E+02  0.57787654968E+02  0.00000000000E+00 0.  1.
</event>
<event>
 8    1  0.4798744E-006  0.9296110E+02  0.7561462E-02  0.1295835E+00
          2   -1    0    0  501    0  0.00000000000E+00  0.00000000000E+00  0.55428914875E+03  0.55428914875E+03  0.00000000000E+00 0. -1.
         -2   -1    0    0    0  501 -0.00000000000E+00 -0.00000000000E+00 -0.32305145223E+02  0.32305145223E+02  0.00000000000E+00 0.  1.
         23    2    1    2    0    0 -0.52873533846E+02 -0.40887111161E+02  0.19888662431E+03  0.24427655422E+03  0.12509108352E+03 0.  0.
         23    2    1    2    0    0  0.52873533846E+02  0.40887111161E+02  0.32309737923E+03  0.34231773975E+03  0.91225829931E+02 0.  0.
          5    1    3    3  502    0 -0.15402197599E+02  0.11662264970E+02  0.17377633973E+03  0.17489689753E+03  0.41800000000E+01 0.  1.
         -5    1    3    3    0  502 -0.37471336246E+02 -0.52549376130E+02  0.25110284576E+02  0.69379656696E+02  0.41800000000E+01 0.  1.
        -11    1    4    4    0    0  0.64532924420E+00 -0.20710434349E+02  0.20571500294E+02  0.29198033583E+02  0.00000000000E+00 0.  1.
         11    1    4    4    0    0  0.52228204602E+02  0.61597545509E+02  0.30252587893E+03  0.31311970617E+03  0.00000000000E+00 0. -1.
</event>
<event>
 8    1  0.4798744E-006  0.1005984E+03  0.7561462E-02  0.1279043E+00
          1   -1    0    0  501    0  0.00000000000E+00  0.00000000000E+00  0.32550030798E+02  0.32550030798E+02  0.00000000000E+00 0. -1.
         -1   -1    0    0    0  501 -0.00000000000E+00 -0.00000000000E+00 -0.51826261441E+03  0.51826261441E+03  0.00000000000E+00 0.  1.
         23    2    1    2    0    0 -0.50517824812E+02 -0.35180992174E+02 -0.32891239393E+03  0.35724027260E+03  0.12508995423E+03 0.  0.
         23    2    1    2    0    0  0.50517824812E+02  0.35180992174E+02 -0.15680018968E+03  0.19357237261E+03  0.95363573338E+02 0.  0.
          5    1    3    3  502    0 -0.24373508114E+02  0.16578773282E+02 -0.76226426852E+01  0.30732730156E+02  0.41800000000E+01 0. -1.
         -5    1    3    3    0  502 -0.26144316698E+02 -0.51759765456E+02 -0.32128975124E+03  0.32650754244E+03  0.41800000000E+01 0. -1.
        -11    1    4    4    0    0  0.50953090978E+02 -0.22431330483E+02 -0.83103954231E+02  0.10002824239E+03  0.00000000000E+00 0. -1.
         11    1    4    4    0    0 -0.43526616597E+00  0.57612322656E+02 -0.73696235454E+02  0.93544130220E+02  0.00000000000E+00 0.  1.
</event>
<event>
 8    1  0.6677012E-006  0.2332411E+03  0.7561462E-02  0.1124379E+00
          4   -1    0    0  501    0  0.00000000000E+00  0.00000000000E+00  0.18975241764E+03  0.18975241764E+03  0.00000000000E+00 0. -1.
         -4   -1    0    0    0  501 -0.00000000000E+00 -0.00000000000E+00 -0.33970588037E+03  0.33970588037E+03  0.00000000000E+00 0.  1.
         23    2    1    2    0    0 -0.11930108496E+03 -0.16963613797E+03 -0.17869533692E+03  0.30097973937E+03  0.12509041489E+03 0.  0.
         23    2    1    2    0    0  0.11930108496E+03  0.16963613797E+03  0.28741874182E+02  0.22847855863E+03  0.91472335948E+02 0.  0.
          5    1    3    3  502    0 -0.14379681635E+03 -0.15536781506E+03 -0.14441434370E+03  0.25629993643E+03  0.41800000000E+01 0. -1.
         -5    1    3    3    0  502  0.24495731386E+02 -0.14268322915E+02 -0.34280993215E+02  0.44679802940E+02  0.41800000000E+01 0. -1.
        -11    1    4    4    0    0  0.69963391605E+02  0.26717024234E+02  0.18751748524E+01  0.74914563535E+02  0.00000000000E+00 0.  1.
         11    1    4    4    0    0  0.49337693359E+02  0.14291911374E+03  0.26866699330E+02  0.15356399510E+03  0.00000000000E+00 0. -1.
</event>
<event>
 8    1  0.4798744E-006  0.5967791E+02  0.7561462E-02  0.1399188E+00
          1   -1    0    0  501    0  0.00000000000E+00  0.00000000000E+00  0.88219238396E+02  0.88219238396E+02  0.00000000000E+00 0. -1.
         -1   -1    0    0    0  501 -0.00000000000E+00 -0.00000000000E+00 -0.21098255639E+03  0.21098255639E+03  0.00000000000E+00 0.  1.
         23    2    1    2    0    0  0.44406618973E+02  0.79978949621E+01 -0.14243418332E+03  0.19485655320E+03  0.12508263515E+03 0.  0.
         23    2    1    2    0    0 -0.44406618973E+02 -0.79978949621E+01  0.19670865325E+02  0.10434524158E+03  0.92005827891E+02 0.  0.
          5    1    3    3  502    0  0.32363027665E+02 -0.16426578818E+02  0.11636694746E+02  0.38341662926E+02  0.41800000000E+01 0.  1.
         -5    1    3    3    0  502  0.12043591309E+02  0.24424473780E+02 -0.15407087807E+03  0.15651489028E+03  0.41800000000E+01 0.  1.
        -11    1    4    4    0    0 -0.29229233919E+02  0.10755943473E+02 -0.33630997940E+02  0.45837566012E+02  0.00000000000E+00 0.  1.
         11    1    4    4    0    0 -0.15177385054E+02 -0.18753838435E+02  0.53301863265E+02  0.58507675570E+02  0.00000000000E+00 0. -1.
</event>
<event>
 8    1  0.4798744E-006  0.9920974E+02  0.7561462E-02  0.1281967E+00
          2   -1    0    0  501    0  0.00000000000E+00  0.00000000000E+00  0.15790277412E+03  0.15790277412E+03  0.00000000000E+00 0. -1.
         -2   -1    0    0    0  501 -0.00000000000E+00 -0.00000000000E+00 -0.89932533729E+02  0.89932533729E+02  0.00000000000E+00 0.  1.
         23    2    1    2    0    0 -0.73481316917E+01 -0.31024787511E+02 -0.10012685841E+01  0.12909400675E+03  0.12509087721E+03 0.  0.
         23    2    1    2    0    0  0.73481316917E+01  0.31024787511E+02  0.68971508976E+02  0.11874130110E+03  0.91246342702E+02 0.  0.
          5    1    3    3  502    0  0.21358209103E+02 -0.66169555713E+02 -0.29172525705E+02  0.75518817889E+02  0.41800000000E+01 0. -1.
         -5    1    3    3    0  502 -0.28706340795E+02  0.35144768203E+02  0.28171257120E+02  0.53575188862E+02  0.41800000000E+01 0. -1.
        -11    1    4    4    0    0 -0.34528095787E+02  0.19946060848E+02  0.32218394575E+01  0.40005187058E+02  0.00000000000E+00 0.  1.
         11    1    4    4    0    0  0.41876227479E+02  0.11078726663E+02  0.65749669518E+02  0.78736114040E+02  0.00000000000E+00 0. -1.
</event>
<event>
 8    1  0.4798744E-006  0.1206866E+03  0.7561462E-02  0.1241969E+00
          4   -1    0    0  501    0  0.00000000000E+00  0.00000000000E+00  0.13633857790E+03  0.13633857790E+03  0.00000000000E+00 0. -1.
         -4   -1    0    0    0  501 -0.00000000000E+00 -0.00000000000E+00 -0.11221335233E+03  0.11221335233E+03  0.00000000000E+00 0.  1.
         23    2    1    2    0    0  0.47244711906E+02  0.26942571132E+02 -0.91981679998E+01  0.13670254394E+03  0.12508003151E+03 0.  0.
         23    2    1    2    0    0 -0.47244711906E+02 -0.26942571132E+02  0.33323393563E+02  0.11184938629E+03  0.91879658862E+02 0.  0.
          5    1    3    3  502    0  0.13670749028E+02 -0.49256819559E+02 -0.14080112357E+02  0.53186893273E+02  0.41800000000E+01 0.  1.
         -5    1    3    3    0  502  0.33573962879E+02  0.76199390691E+02  0.48819443567E+01  0.83515650664E+02  0.41800000000E+01 0.  1.
        -11    1    4    4    0    0  0.18034324942E+02  0.19527353963E+02  0.99179858607E+01  0.28371127444E+02  0.00000000000E+00 0.  1.
         11    1    4    4    0    0 -0.65279036848E+02 -0.46469925095E+02  0.23405407703E+02  0.83478258846E+02  0.00000000000E+00 0. -1.
</event>
<event>
 7    1  0.4798744E-006  0.9150910E+02  0.7561462E-02  0.1299238E+00
          2   -1    0    0  501    0  0.00000000000E+00  0.00000000000E+00  0.28737036827E+03  0.28737036827E+03  0.00000000000E+00 0. -1.
         -2   -1    0    0    0  501 -0.00000000000E+00 -0.00000000000E+00 -0.10026229492E+03  0.10026229492E+03  0.00000000000E+00 0.  1.
         23    2    1    2    0    0  0.21405950184E+02  0.61058242743E+02  0.16874587333E+03  0.20261890927E+03  0.91612929860E+02 0.  0.
          5    1    1    2  502    0 -0.14756256515E+02 -0.61141981561E+02  0.91689027571E+02  0.11126742197E+03  0.41800000000E+01 0. -1.
         -5    1    1    2    0  502 -0.66496936695E+01  0.83738817901E-01 -0.73326827546E+02  0.73746331950E+02  0.41800000000E+01 0.  1.
        -11    1    3    3    0    0 -0.36318581004E+02  0.23895142018E+02  0.63151219213E+02  0.76668726521E+02  0.00000000000E+00 0.  1.
         11    1    3    3    0    0  0.57724531188E+02  0.37163100726E+02  0.10559465411E+03  0.12595018275E+03  0.00000000000E+00 0. -1.
</event>
<event>
 8    1  0.5052357E-006  0.1093798E+03  0.7561462E-02  0.1261723E+00
          1   -1    0    0  501    0  0.00000000000E+00  0.00000000000E+00  0.12448240767E+03  0.12448240767E+03  0.00000000000E+00 0. -1.
         -1   -1    0    0    0  501 -0.00000000000E+00 -0.00000000000E+00 -0.15531691428E+03  0.15531691428E+03  0.00000000000E+00 0.  1.
         23    2    1    2    0    0 -0.52476013665E+02 -0.65577500248E+02 -0.36946460899E+02  0.15513415068E+03  0.12508966059E+03 0.  0.
         23    2    1    2    0    0  0.52476013665E+02  0.65577500248E+02  0.61119542909E+01  0.12466517126E+03  0.91923383273E+02 0.  0.
          5    1    3    3  502    0 -0.59148409793E+02 -0.74797309725E+02  0.19482210243E+02  0.97417661843E+02  0.41800000000E+01 0.  1.
         -5    1    3    3    0  502  0.66723961280E+01  0.92198094772E+01 -0.56428671142E+02  0.57716488838E+02  0.41800000000E+01 0.  1.
        -11    1    4    4    0    0  0.58150082022E+02  0.14682243467E+02  0.31238166507E+02  0.67622654185E+02  0.00000000000E+00 0. -1.
         11    1    4    4    0    0 -0.56740683571E+01  0.50895256780E+02 -0.25126212216E+02  0.57042517079E+02  0.00000000000E+00 0.  1.
</event>
<event>
 8    1  0.4798744E-006  0.9736071E+02  0.7561462E-02  0.1285946E+00
         -1   -1    0    0    0  501 -0.00000000000E+00  0.00000000000E+00  0.10741926687E+03  0.10741926687E+03  0.00000000000E+00 0.  1.
          1   -1    0    0  501    0  0.00000000000E+00 -0.00000000000E+00 -0.17195571665E+03  0.17195571665E+03  0.00000000000E+00 0. -1.
         23    2    1    2    0    0 -0.44585673041E+02 -0.94939775228E+01  0.30771906910E+02  0.13664694161E+03  0.12508980193E+03 0.  0.
         23    2    1    2    0    0  0.44585673041E+02  0.94939775228E+01 -0.95308356684E+02  0.14272804191E+03  0.95966625678E+02 0.  0.
          5    1    3    3  502    0 -0.79521017268E+02 -0.32841356552E+02  0.31616594542E+01  0.86195216678E+02  0.41800000000E+01 0. -1.
         -5    1    3    3    0  502  0.34935344228E+02  0.23347379030E+02  0.27610247456E+02  0.50451724930E+02  0.41800000000E+01 0. -1.
        -11    1    4    4    0    0 -0.84006642504E+01  0.10393589105E+02  0.15157965835E+02  0.20207963346E+02  0.00000000000E+00 0.  1.
         11    1    4    4    0    0  0.52986337291E+02 -0.89961158245E+00 -0.11046632252E+03  0.12252007856E+03  0.00000000000E+00 0. -1.
</event>
<event>
 7    1  0.4798744E-006  0.2158626E+03  0.7561462E-02  0.1137006E+00
         -2   -1    0    0    0  501 -0.00000000000E+00  0.00000000000E+00  0.51251167835E+02  0.51251167835E+02  0.00000000000E+00 0.  1.
          2   -1    0    0  501    0  0.00000000000E+00 -0.00000000000E+00 -0.12615416347E+04  0.12615416347E+04  0.00000000000E+00 0. -1.
         23    2    1    2    0    0 -0.60573316052E+02  0.17534266270E+03 -0.89782551994E+03  0.92126793790E+03  0.90718097305E+02 0.  0.
          5    1    1    2  502    0 -0.36418803943E+02 -0.99858960669E+01 -0.90824172043E+02  0.98450749252E+02  0.41800000000E+01 0. -1.
         -5    1    1    2    0  502  0.96992119994E+02 -0.16535676664E+03 -0.22164077489E+03  0.29307411538E+03  0.41800000000E+01 0.  1.
        -11    1    3    3    0    0 -0.52945704333E+02  0.39829093357E+02 -0.21091171115E+03  0.22107318739E+03  0.00000000000E+00 0.  1.
         11    1    3    3    0    0 -0.76276117183E+01  0.13551356935E+03 -0.68691380879E+03  0.70019475051E+03  0.00000000000E+00 0. -1.
</event>
<event>
 8    1  0.4798744E-006  0.1009256E+03  0.7561462E-02  0.1278361E+00
         -2   -1    0    0    0  501 -0.00000000000E+00  0.00000000000E+00  0.96858463641E+02  0.96858463641E+02  0.00000000000E+00 0. -1.
          2   -1    0    0  501    0  0.00000000000E+00 -0.00000000000E+00 -0.14647450388E+03  0.14647450388E+03  0.00000000000E+00 0.  1.
         23    2    1    2    0    0 -0.38084570652E+02  0.18016704144E+02 -0.71540133098E+00  0.13199486633E+03  0.12508835593E+03 0.  0.
         23    2    1    2    0    0  0.38084570652E+02 -0.18016704144E+02 -0.48900638910E+02  0.11133810119E+03  0.90718598649E+02 0.  0.
          5    1    3    3  502    0 -0.26964696911E+02 -0.49494261463E+02  0.20684603185E+02  0.60183901553E+02  0.41800000000E+01 0.  1.
         -5    1    3    3    0  502 -0.11119873741E+02  0.67510965607E+02 -0.21400004516E+02  0.71810964779E+02  0.41800000000E+01 0.  1.
        -11    1    4    4    0    0  0.19116670865E+01 -0.36233814263E+02 -0.59302852123E+02  0.69522457070E+02  0.00000000000E+00 0.  1.
         11    1    4    4    0    0  0.36172903565E+02  0.18217110119E+02  0.10402213213E+02  0.41815644120E+02  0.00000000000E+00 0. -1.
</event>
<event>
 8    1  0.4798744E-006  0.9418979E+02  0.7561462E-02  0.1293011E+00
          2   -1    0    0  501    0  0.00000000000E+00  0.00000000000E+00  0.53541206267E+03  0.53541206267E+03  0.00000000000E+00 0.  1.
         -2   -1    0    0    0  501 -0.00000000000E+00 -0.00000000000E+00 -0.40269826619E+02  0.40269826619E+02  0.00000000000E+00 0. -1.
         23    2    1    2    0    0 -0.26756115013E+02 -0.48265623804E+02  0.10834827347E+03  0.17443088681E+03  0.12506528607E+03 0.  0.
         23    2    1    2    0    0  0.26756115013E+02  0.48265623804E+02  0.38679396258E+03  0.40125100247E+03  0.91363763962E+02 0.  0.
          5    1    3    3  502    0 -0.38042604415E+02 -0.73125566885E+01 -0.16629934079E+02  0.42364375877E+02  0.41800000000E+01 0.  1.
         -5    1    3    3    0  502  0.11286489402E+02 -0.40953067115E+02  0.12497820755E+03  0.13206651094E+03  0.41800000000E+01 0.  1.
        -11    1    4    4    0    0 -0.30958295628E+02  0.36443591864E+02  0.17111260064E+03  0.17766843714E+03  0.00000000000E+00 0. -1.
         11    1    4    4    0    0  0.57714410641E+02  0.11822031940E+02  0.21568136194E+03  0.22358256534E+03  0.00000000000E+00 0.  1.
</event>
<event>
 8    1  0.4798744E-006  0.9087433E+02  0.7561462E-02  0.1300748E+00
          1   -1    0    0  501    0  0.00000000000E+00  0.00000000000E+00  0.82438373151E+02  0.82438373151E+02  0.00000000000E+00 0. -1.
         -1   -1    0    0    0  501 -0.00000000000E+00 -0.00000000000E+00 -0.16348493189E+03  0.16348493189E+03  0.00000000000E+00 0.  1.
         23    2    1    2    0    0 -0.32905950695E+02 -0.16207351749E+02 -0.67230100576E+02  0.14667784228E+03  0.12509605569E+03 0.  0.
         23    2    1    2    0    0  0.32905950695E+02  0.16207351749E+02 -0.13816458165E+02  0.99245462766E+02  0.91177231377E+02 0.  0.
          5    1    3    3  502    0  0.27200998002E+02 -0.28272066464E+01 -0.79125168563E+02  0.83822145581E+02  0.41800000000E+01 0.  1.
         -5    1    3    3    0  502 -0.60106948697E+02 -0.13380145102E+02  0.11895067987E+02  0.62855696695E+02  0.41800000000E+01 0.  1.
        -11    1    4    4    0    0 -0.18023875367E+02  0.33945014093E+02  0.10859341587E+02  0.39938069116E+02  0.00000000000E+00 0. -1.
         11    1    4    4    0    0  0.50929826062E+02 -0.17737662344E+02 -0.24675799752E+02  0.59307393650E+02  0.00000000000E+00 0.  1.
</event>
<event>
 8    1  0.4798744E-006  0.1091935E+03  0.7561462E-02  0.1262071E+00
         -2   -1    0    0    0  501 -0.00000000000E+00  0.00000000000E+00  0.25995753104E+02  0.25995753104E+02  0.00000000000E+00 0.  1.
          2   -1    0    0  501    0  0.00000000000E+00 -0.00000000000E+00 -0.75674583665E+03  0.75674583665E+03  0.00000000000E+00 0. -1.
         23    2    1    2    0    0 -0.76582176577E+02 -0.42735163737E+02 -0.35635668382E+03  0.38772248669E+03  0.12509003394E+03 0.  0.
         23    2    1    2    0    0  0.76582176577E+02  0.42735163737E+02 -0.37439339972E+03  0.39501910306E+03  0.90435336244E+02 0.  0.
          5    1    3    3  502    0 -0.48917610448E+02 -0.97374104219E+01 -0.29673452139E+02  0.58187077050E+02  0.41800000000E+01 0.  1.
         -5    1    3    3    0  502 -0.27664566129E+02 -0.32997753315E+02 -0.32668323168E+03  0.32953540964E+03  0.41800000000E+01 0.  1.
        -11    1    4    4    0    0  0.77669498659E+02 -0.45233536327E+01 -0.20933932509E+03  0.22332927434E+03  0.00000000000E+00 0.  1.
         11    1    4    4    0    0 -0.10873220820E+01  0.47258517370E+02 -0.16505407463E+03  0.17168982872E+03  0.00000000000E+00 0. -1.
</event>
<event>
 8    1  0.4798744E-006  0.9540047E+02  0.7561462E-02  0.1290277E+00
          2   -1    0    0  501    0  0.00000000000E+00  0.00000000000E+00  0.63050011500E+02  0.63050011500E+02  0.00000000000E+00 0.  1.
         -2   -1    0    0    0  501 -0.00000000000E+00 -0.00000000000E+00 -0.22115529036E+03  0.22115529036E+03  0.00000000000E+00 0. -1.
         23    2    1    2    0    0 -0.27328406111E+02  0.17341828394E+02 -0.12706960376E+03  0.18122161158E+03  0.12508799907E+03 0.  0.
         23    2    1    2    0    0  0.27328406111E+02 -0.17341828394E+02 -0.31035675095E+02  0.10298369028E+03  0.92708395207E+02 0.  0.
          5    1    3    3  502    0 -0.19860468404E+02  0.70951616776E+02 -0.61267756460E+02  0.95915486289E+02  0.41800000000E+01 0.  1.
         -5    1    3    3    0  502 -0.74679377061E+01 -0.53609788383E+02 -0.65801847303E+02  0.85306125293E+02  0.41800000000E+01 0.  1.
        -11    1    4    4    0    0 -0.14160520539E+02  0.56911697504E+01  0.25163422563E+02  0.29429705914E+02  0.00000000000E+00 0. -1.
         11    1    4    4    0    0  0.41488926649E+02 -0.23032998144E+02 -0.56199097659E+02  0.73553984363E+02  0.00000000000E+00 0.  1.
</event>
<event>
 8    1  0.4798744E-006  0.1180719E+03  0.7561462E-02  0.1246312E+00
          1   -1    0    0  501    0  0.00000000000E+00  0.00000000000E+00  0.95674902895E+02  0.95674902895E+02  0.00000000000E+00 0. -1.
         -1   -1    0    0    0  501 -0.00000000000E+00 -0.00000000000E+00 -0.18975758979E+03  0.18975758979E+03  0.00000000000E+00 0.  1.
         23    2    1    2    0    0  0.52741872935E+02 -0.20964938418E+02 -0.10961848018E+03  0.17574202565E+03  0.12509122503E+03 0.  0.
         23    2    1    2    0    0 -0.52741872935E+02  0.20964938418E+02  0.15535793283E+02  0.10969046703E+03  0.92571074755E+02 0.  0.
          5    1    3    3  502    0  0.49707836480E+02  0.41647605862E+02 -0.87807639754E+02  0.10923848260E+03  0.41800000000E+01 0. -1.
         -5    1    3    3    0  502  0.30340364554E+01 -0.62612544280E+02 -0.21810840425E+02  0.66503543052E+02  0.41800000000E+01 0. -1.
        -11    1    4    4    0    0 -0.78051354359E+01 -0.35399593676E+02  0.87192065602E+01  0.37283722114E+02  0.00000000000E+00 0.  1.
         11    1    4    4    0    0 -0.44936737499E+02  0.56364532094E+02  0.68165867227E+01  0.72406744919E+02  0.00000000000E+00 0. -1.
</event>
<event>
 8    1  0.4798744E-006  0.5314204E+02  0.7561462E-02  0.1429095E+00
          1   -1    0    0  501    0  0.00000000000E+00  0.00000000000E+00  0.86370150295E+02  0.86370150295E+02  0.00000000000E+00 0. -1.
         -1   -1    0    0    0  501 -0.00000000000E+00 -0.00000000000E+00 -0.31602527850E+03  0.31602527850E+03  0.00000000000E+00 0.  1.
         23    2    1    2    0    0 -0.32151657851E+02  0.24416923957E+02 -0.26636316122E+03  0.29702934021E+03  0.12508868859E+03 0.  0.
         23    2    1    2    0    0  0.32151657851E+02 -0.24416923957E+02  0.36708033015E+02  0.10536608858E+03  0.90136661008E+02 0.  0.
          5    1    3    3  502    0 -0.30819628652E+02  0.94394924895E+01 -0.23848451238E+01  0.32590081543E+02  0.41800000000E+01 0.  1.
         -5    1    3    3    0  502 -0.13320291985E+01  0.14977431467E+02 -0.26397831609E+03  0.26443925866E+03  0.41800000000E+01 0.  1.
        -11    1    4    4    0    0 -0.71888367621E+01 -0.16565804312E+02 -0.25559204352E+02  0.31295018352E+02  0.00000000000E+00 0.  1.
         11    1    4    4    0    0  0.39340494613E+02 -0.78511196443E+01  0.62267237368E+02  0.74071070233E+02  0.00000000000E+00 0. -1.
</event>
<event>
 8    1  0.4798744E-006  0.1109674E+03  0.7561462E-02  0.1258789E+00
         -1   -1    0    0    0  501 -0.00000000000E+00  0.00000000000E+00  0.26312065383E+02  0.26312065383E+02  0.00000000000E+00 0.  1.
          1   -1    0    0  501    0  0.00000000000E+00 -0.00000000000E+00 -0.57914281133E+03  0.57914281133E+03  0.00000000000E+00 0. -1.
         23    2    1    2    0    0  0.13173418950E+02 -0.51643579230E+02 -0.25129900671E+03  0.28572577437E+03  0.12508968432E+03 0.  0.
         23    2    1    2    0    0 -0.13173418950E+02  0.51643579230E+02 -0.30153173923E+03  0.31972910234E+03  0.92003863372E+02 0.  0.
          5    1    3    3  502    0 -0.66853070543E+01  0.31214492155E+02 -0.17058420704E+02  0.36434872963E+02  0.41800000000E+01 0. -1.
         -5    1    3    3    0  502  0.19858726004E+02 -0.82858071385E+02 -0.23424058601E+03  0.24929090141E+03  0.41800000000E+01 0. -1.
        -11    1    4    4    0    0  0.36572679745E+02  0.38237574574E+02 -0.12266888013E+03  0.13359388895E+03  0.00000000000E+00 0.  1.
         11    1    4    4    0    0 -0.49746098695E+02  0.13406004656E+02 -0.17886285911E+03  0.18613521339E+03  0.00000000000E+00 0. -1.
</event>
<event>
 8    1  0.4798744E-006  0.1424560E+03  0.7561462E-02  0.1210062E+00
          4   -1    0    0  501    0  0.00000000000E+00  0.00000000000E+00  0.59723159629E+03  0.59723159629E+03  0.00000000000E+00 0.  1.
         -4   -1    0    0    0  501 -0.00000000000E+00 -0.00000000000E+00 -0.87620253635E+02  0.87620253635E+02  0.00000000000E+00 0. -1.
         23    2    1    2    0    0 -0.11008310833E+03 -0.69680732898E+02  0.34329778489E+02  0.18384669736E+03  0.12508948462E+03 0.  0.
         23    2    1    2    0    0  0.11008310833E+03  0.69680732898E+02  0.47528156416E+03  0.50100515256E+03  0.90221407543E+02 0.  0.
          5    1    3    3  502    0  0.98809914731E+01  0.64023602171E+01  0.39707900663E+02  0.41627082337E+02  0.41800000000E+01 0. -1.
         -5    1    3    3    0  502 -0.11996409981E+03 -0.76083093116E+02 -0.53781221745E+01  0.14221961503E+03  0.41800000000E+01 0. -1.
        -11    1    4    4    0    0  0.63823819955E+02  0.41628501252E+02  0.40607265082E+03  0.41316027139E+03  0.00000000000E+00 0.  1.
         11    1    4    4    0    0  0.46259288379E+02  0.28052231646E+02  0.69208913345E+02  0.87844881172E+02  0.00000000000E+00 0. -1.
</event>
<event>
 8    1  0.4798744E-006  0.1221922E+03  0.7561462E-02  0.1239524E+00
         -2   -1    0    0    0  501 -0.00000000000E+00  0.00000000000E+00  0.23532902007E+02  0.23532902007E+02  0.00000000000E+00 0.  1.
          2   -1    0    0  501    0  0.00000000000E+00 -0.00000000000E+00 -0.88560650475E+03  0.88560650475E+03  0.00000000000E+00 0. -1.
         23    2    1    2    0    0 -0.68618598023E+02  0.27910816670E+01 -0.25490652866E+03  0.29213210234E+03  0.12509006649E+03 0.  0.
         23    2    1    2    0    0  0.68618598023E+02 -0.27910816670E+01 -0.60716707409E+03  0.61700730442E+03  0.85614576538E+02 0.  0.
          5    1    3    3  502    0 -0.75401327709E+01  0.54171321346E+02 -0.59054362548E+02  0.80599477632E+02  0.41800000000E+01 0. -1.
         -5    1    3    3    0  502 -0.61078465252E+02 -0.51380239679E+02 -0.19585216611E+03  0.21153262471E+03  0.41800000000E+01 0. -1.
        -11    1    4    4    0    0  0.82536158518E+02 -0.22435942894E+02 -0.48663311421E+03  0.49409247803E+03  0.00000000000E+00 0.  1.
         11    1    4    4    0    0 -0.13917560495E+02  0.19644861227E+02 -0.12053395987E+03  0.12291482639E+03  0.00000000000E+00 0. -1.
</event>
<event>
 8    1  0.4798744E-006  0.1202993E+03  0.7561462E-02  0.1242604E+00
          2   -1    0    0  501    0  0.00000000000E+00  0.00000000000E+00  0.55960573149E+02  0.55960573149E+02  0.00000000000E+00 0. -1.
         -2   -1    0    0    0  501 -0.00000000000E+00 -0.00000000000E+00 -0.56248607210E+03  0.56248607210E+03  0.00000000000E+00 0.  1.
         23    2    1    2    0    0  0.63914247535E+01 -0.95185152060E+02 -0.44922875312E+03  0.47597779685E+03  0.12508927602E+03 0.  0.
         23    2    1    2    0    0 -0.63914247535E+01  0.95185152060E+02 -0.57296745829E+02  0.14246884840E+03  0.88957249283E+02 0.  0.
          5    1    3    3  502    0  0.43595629443E+02 -0.52524268012E+02 -0.38163529109E+03  0.38771425747E+03  0.41800000000E+01 0. -1.
         -5    1    3    3    0  502 -0.37204204690E+02 -0.42660884048E+02 -0.67593462031E+02  0.88263539379E+02  0.41800000000E+01 0. -1.
        -11    1    4    4    0    0 -0.34994776982E+02  0.38956029069E+02  0.64756745982E+01  0.52764959758E+02  0.00000000000E+00 0. -1.
         11    1    4    4    0    0  0.28603352228E+02  0.56229122991E+02 -0.63772420427E+02  0.89703888646E+02  0.00000000000E+00 0.  1.
</event>
<event>
 8    1  0.4798744E-006  0.9769404E+02  0.7561462E-02  0.1285221E+00
          1   -1    0    0  501    0  0.00000000000E+00  0.00000000000E+00  0.29594679732E+02  0.29594679732E+02  0.00000000000E+00 0. -1.
         -1   -1    0    0    0  501 -0.00000000000E+00 -0.00000000000E+00 -0.43625500191E+03  0.43625500191E+03  0.00000000000E+00 0.  1.
         23    2    1    2    0    0 -0.67767877397E+01 -0.28096261198E+02 -0.27284185552E+03  0.30153827969E+03  0.12508929310E+03 0.  0.
         23    2    1    2    0    0  0.67767877397E+01  0.28096261198E+02 -0.13381846666E+03  0.16431140196E+03  0.90859947435E+02 0.  0.
          5    1    3    3  502    0 -0.28215059164E+02  0.41004718708E+02 -0.15831819971E+03  0.16601084687E+03  0.41800000000E+01 0.  1.
         -5    1    3    3    0  502  0.21438271425E+02 -0.69100979906E+02 -0.11452365581E+03  0.13552743281E+03  0.41800000000E+01 0.  1.
        -11    1    4    4    0    0 -0.13132616247E+02  0.44983343988E+02 -0.12966927342E+03  0.13787707320E+03  0.00000000000E+00 0.  1.
         11    1    4    4    0    0  0.19909403986E+02 -0.16887082791E+02 -0.41491932459E+01  0.26434328757E+02  0.00000000000E+00 0. -1.
</event>
<event>
 8    1  0.4798744E-006  0.1625259E+03  0.7561462E-02  0.1185874E+00
          1   -1    0    0  501    0  0.00000000000E+00  0.00000000000E+00  0.46598492773E+02  0.46598492773E+02  0.00000000000E+00 0. -1.
         -1   -1    0    0    0  501 -0.00000000000E+00 -0.00000000000E+00 -0.97202492898E+03  0.97202492898E+03  0.00000000000E+00 0.  1.
         23    2    1    2    0    0 -0.39329150045E+02  0.14817419381E+03 -0.72025776938E+03  0.74694017603E+03  0.12508396567E+03 0.  0.
         23    2    1    2    0    0  0.39329150045E+02 -0.14817419381E+03 -0.20516866682E+03  0.27168324571E+03  0.90637908195E+02 0.  0.
          5    1    3    3  502    0 -0.43446952835E+02  0.14779562341E+03 -0.72383482995E+03  0.74005777982E+03  0.41800000000E+01 0. -1.
         -5    1    3    3    0  502  0.41178027893E+01  0.37857040090E+00  0.35770605754E+01  0.68823962193E+01  0.41800000000E+01 0. -1.
        -11    1    4    4    0    0  0.54848666344E+02 -0.95249801853E+02 -0.18034919274E+03  0.21120305934E+03  0.00000000000E+00 0. -1.
         11    1    4    4    0    0 -0.15519516299E+02 -0.52924391955E+02 -0.24819474081E+02  0.60480186373E+02  0.00000000000E+00 0.  1.
</event>
<event>
 8    1  0.4798744E-006  0.1094553E+03  0.7561462E-02  0.1261582E+00
          1   -1    0    0  501    0  0.00000000000E+00  0.00000000000E+00  0.54806088450E+02  0.54806088450E+02  0.00000000000E+00 0. -1.
         -1   -1    0    0    0  501 -0.00000000000E+00 -0.00000000000E+00 -0.35205322047E+03  0.35205322047E+03  0.00000000000E+00 0.  1.
         23    2    1    2    0    0 -0.76359006677E+02  0.18007665567E+02 -0.21384074642E+03  0.25986998232E+03  0.12509823725E+03 0.  0.
         23    2    1    2    0    0  0.76359006677E+02 -0.18007665567E+02 -0.83406385601E+02  0.14698932660E+03  0.92164326364E+02 0.  0.
          5    1    3    3  502    0 -0.70808186963E+02 -0.98301252873E+01 -0.21927172403E+03  0.23066857624E+03  0.41800000000E+01 0.  1.
         -5    1    3    3    0  502 -0.55508197140E+01  0.27837790854E+02  0.54309776189E+01  0.29201406080E+02  0.41800000000E+01 0.  1.
        -11    1    4    4    0    0  0.74129586360E+02 -0.48143466409E+02 -0.48509661660E+02  0.10082745760E+03  0.00000000000E+00 0.  1.
         11    1    4    4    0    0  0.22294203168E+01  0.30135800842E+02 -0.34896723941E+02  0.46161868995E+02  0.00000000000E+00 0. -1.
</event>
<event>
 8    1  0.4798744E-006  0.1215585E+03  0.7561462E-02  0.1240548E+00
         -2   -1    0    0    0  501 -0.00000000000E+00  0.00000000000E+00  0.61363521748E+02  0.61363521748E+02  0.00000000000E+00 0.  1.
          2   -1    0    0  501    0  0.00000000000E+00 -0.00000000000E+00 -0.37749650854E+03  0.37749650854E+03  0.00000000000E+00 0. -1.
         23    2    1    2    0    0 -0.12832206898E+02 -0.65200143809E+02 -0.49857277569E+02  0.15016095602E+03  0.12508733069E+03 0.  0.
         23    2    1    2    0    0  0.12832206898E+02  0.65200143809E+02 -0.26627570922E+03  0.28869907427E+03  0.89602889875E+02 0.  0.
          5    1    3    3  502    0  0.51299055368E+02 -0.54328089490E+02 -0.37921595345E+02  0.83896687556E+02  0.41800000000E+01 0.  1.
         -5    1    3    3    0  502 -0.64131262266E+02 -0.10872054319E+02 -0.11935682224E+02  0.66264268464E+02  0.41800000000E+01 0.  1.
        -11    1    4    4    0    0  0.29270744330E+02 -0.61246717259E+01 -0.34581841617E+02  0.45718615978E+02  0.00000000000E+00 0.  1.
         11    1    4    4    0    0 -0.16438537431E+02  0.71324815535E+02 -0.23169386761E+03  0.24298045829E+03  0.00000000000E+00 0. -1.
</event>
<event>
 8    1  0.4798744E-006  0.1161463E+03  0.7561462E-02  0.1249593E+00
          2   -1    0    0  501    0  0.00000000000E+00  0.00000000000E+00  0.75823003972E+03  0.75823003972E+03  0.00000000000E+00 0. -1.
         -2   -1    0    0    0  501 -0.00000000000E+00 -0.00000000000E+00 -0.40713231611E+02  0.40713231611E+02  0.00000000000E+00 0.  1.
         23    2    1    2    0    0  0.65971648668E+02  0.28374614569E+02  0.11242137944E+03  0.18287318668E+03  0.12508660468E+03 0.  0.
         23    2    1    2    0    0 -0.65971648668E+02 -0.28374614569E+02  0.60509542867E+03  0.61607008465E+03  0.90799197268E+02 0.  0.
          5    1    3    3  502    0  0.86802598284E+02  0.77061114182E+01  0.25286534203E+02  0.90834775466E+02  0.41800000000E+01 0. -1.
         -5    1    3    3    0  502 -0.20830949616E+02  0.20668503151E+02  0.87134845234E+02  0.92038411212E+02  0.41800000000E+01 0. -1.
        -11    1    4    4    0    0 -0.17066650718E+02 -0.56479687195E+02  0.28508061793E+03  0.29112228419E+03  0.00000000000E+00 0. -1.
         11    1    4    4    0    0 -0.48904997950E+02  0.28105072625E+02  0.32001481074E+03  0.32494780046E+03  0.00000000000E+00 0.  1.
</event>
<event>
 8    1  0.4798744E-006  0.1580998E+03  0.7561462E-02  0.1190859E+00
         -3   -1    0    0    0  501 -0.00000000000E+00  0.00000000000E+00  0.11539903071E+03  0.11539903071E+03  0.00000000000E+00 0.  1.
          3   -1    0    0  501    0  0.00000000000E+00 -0.00000000000E+00 -0.30133196594E+03  0.30133196594E+03  0.00000000000E+00 0. -1.
         23    2    1    2    0    0  0.97389584056E+02  0.99324186395E+02 -0.29920174041E+02  0.18945298362E+03  0.12508873291E+03 0.  0.
         23    2    1    2    0    0 -0.97389584056E+02 -0.99324186395E+02 -0.15601276120E+03  0.22727801303E+03  0.89248464787E+02 0.  0.
          5    1    3    3  502    0  0.32714507979E+01 -0.22087472007E+02 -0.27616774108E+02  0.35759158577E+02  0.41800000000E+01 0. -1.
         -5    1    3    3    0  502  0.94118133258E+02  0.12141165840E+03 -0.23033999327E+01  0.15369382504E+03  0.41800000000E+01 0. -1.
        -11    1    4    4    0    0 -0.20164290730E+02 -0.29255077430E+02  0.45550641218E+01  0.35821875791E+02  0.00000000000E+00 0.  1.
         11    1    4    4    0    0 -0.77225293326E+02 -0.70069108966E+02 -0.16056782532E+03  0.19145613724E+03  0.00000000000E+00 0. -1.
</event>
<event>
 8    1  0.4798744E-006  0.1001706E+03  0.7561462E-02  0.1279938E+00
         -1   -1    0    0    0  501 -0.00000000000E+00  0.00000000000E+00  0.15819195074E+03  0.15819195074E+03  0.00000000000E+00 0.  1.
          1   -1    0    0  501    0  0.00000000000E+00 -0.00000000000E+00 -0.82102708181E+02  0.82102708181E+02  0.00000000000E+00 0. -1.
         23    2    1    2    0    0 -0.11662908084E+02  0.48781096830E+02  0.58523057508E+02  0.14692498444E+03  0.12508550660E+03 0.  0.
         23    2    1    2    0    0  0.11662908084E+02 -0.48781096830E+02  0.17566185054E+02  0.93369674480E+02  0.76770478846E+02 0.  0.
          5    1    3    3  502    0  0.10949284816E+02 -0.27008114888E+02 -0.19845072564E+02  0.35505273029E+02  0.41800000000E+01 0.  1.
         -5    1    3    3    0  502 -0.22612192901E+02  0.75789211718E+02  0.78368130072E+02  0.11141971141E+03  0.41800000000E+01 0.  1.
        -11    1    4    4    0    0  0.42908750482E+02 -0.14447250773E+02  0.90813915804E+01  0.46177436003E+02  0.00000000000E+00 0.  1.
         11    1    4    4    0    0 -0.31245842397E+02 -0.34333846057E+02  0.84847934731E+01  0.47192238477E+02  0.00000000000E+00 0. -1.
</event>
<event>
 8    1  0.4798744E-006  0.1086393E+03  0.7561462E-02  0.1263111E+00
          2   -1    0    0  501    0  0.00000000000E+00  0.00000000000E+00  0.81398028379E+03  0.81398028379E+03  0.00000000000E+00 0. -1.
         -2   -1    0    0    0  501 -0.00000000000E+00 -0.00000000000E+00 -0.16385968157E+02  0.16385968157E+02  0.00000000000E+00 0.  1.
         23    2    1    2    0    0 -0.28310190917E+02  0.37393110206E+02  0.41148493213E+03  0.43262503272E+03  0.12507940666E+03 0.  0.
         23    2    1    2    0    0  0.28310190917E+02 -0.37393110206E+02  0.38610938350E+03  0.39774121922E+03  0.83173973319E+02 0.  0.
          5    1    3    3  502    0 -0.58077691472E+02  0.60472319769E+02  0.18720862057E+03  0.20516934401E+03  0.41800000000E+01 0.  1.
         -5    1    3    3    0  502  0.29767500555E+02 -0.23079209563E+02  0.22427631156E+03  0.22745568872E+03  0.41800000000E+01 0.  1.
        -11    1    4    4    0    0  0.23540322331E+02  0.24138130859E+02  0.14286979067E+03  0.14679432285E+03  0.00000000000E+00 0.  1.
         11    1    4    4    0    0  0.47698685860E+01 -0.61531241065E+02  0.24323959284E+03  0.25094689637E+03  0.00000000000E+00 0. -1.
</event>
<event>
 8    1  0.4798744E-006  0.1279295E+03  0.7561462E-02  0.1230561E+00
          2   -1    0    0  501    0  0.00000000000E+00  0.00000000000E+00  0.85895365248E+03  0.85895365248E+03  0.00000000000E+00 0. -1.
         -2   -1    0    0    0  501 -0.00000000000E+00 -0.00000000000E+00 -0.25579923527E+02  0.25579923527E+02  0.00000000000E+00 0.  1.
         23    2    1    2    0    0 -0.10034697845E+02 -0.10020166853E+03  0.45518166666E+03  0.48267919865E+03  0.12509112520E+03 0.  0.
         23    2    1    2    0    0  0.10034697845E+02  0.10020166853E+03  0.37819206229E+03  0.40185437736E+03  0.91195586982E+02 0.  0.
          5    1    3    3  502    0 -0.24170836133E+02  0.85046095600E+01  0.17139453552E+02  0.31109338971E+02  0.41800000000E+01 0.  1.
         -5    1    3    3    0  502  0.14136138289E+02 -0.10870627809E+03  0.43804221311E+03  0.45156985968E+03  0.41800000000E+01 0.  1.
        -11    1    4    4    0    0 -0.25165089307E+02  0.67929288397E+02  0.31159592861E+03  0.31990575592E+03  0.00000000000E+00 0. -1.
         11    1    4    4    0    0  0.35199787152E+02  0.32272380136E+02  0.66596133683E+02  0.81948621444E+02  0.00000000000E+00 0.  1.
</event>
<event>
 8    1  0.4798744E-006  0.2371076E+03  0.7561462E-02  0.1121735E+00
          1   -1    0    0  501    0  0.00000000000E+00  0.00000000000E+00  0.79682332717E+03  0.79682332717E+03  0.00000000000E+00 0. -1.
         -1   -1    0    0    0  501 -0.00000000000E+00 -0.00000000000E+00 -0.80030432665E+02  0.80030432665E+02  0.00000000000E+00 0.  1.
         23    2    1    2    0    0  0.16655708395E+03  0.13393228239E+03  0.23196971872E+03  0.33931804308E+03  0.12509062904E+03 0.  0.
         23    2    1    2    0    0 -0.16655708395E+03 -0.13393228239E+03  0.48482317578E+03  0.53753571676E+03  0.90620177312E+02 0.  0.
          5    1    3    3  502    0  0.12002114355E+03  0.15330385577E+03  0.16403287209E+03  0.25462011433E+03  0.41800000000E+01 0. -1.
         -5    1    3    3    0  502  0.46535940405E+02 -0.19371573381E+02  0.67936846631E+02  0.84697928751E+02  0.41800000000E+01 0. -1.
        -11    1    4    4    0    0 -0.14192529803E+03 -0.65784400796E+02  0.28707194707E+03  0.32692610848E+03  0.00000000000E+00 0. -1.
         11    1    4    4    0    0 -0.24631785917E+02 -0.68147881593E+02  0.19775122871E+03  0.21060960828E+03  0.00000000000E+00 0.  1.
</event>
<event>
 8    1  0.4798744E-006  0.5040243E+02  0.7561462E-02  0.1443183E+00
         -2   -1    0    0    0  501 -0.00000000000E+00  0.00000000000E+00  0.46308483533E+02  0.46308483533E+02  0.00000000000E+00 0.  1.
          2   -1    0    0  501    0  0.00000000000E+00 -0.00000000000E+00 -0.26880892626E+03  0.26880892626E+03  0.00000000000E+00 0. -1.
         23    2    1    2    0    0 -0.23401826611E+02 -0.15440156516E+02 -0.11538143263E+03  0.17247216359E+03  0.12509088014E+03 0.  0.
         23    2    1    2    0    0  0.23401826611E+02  0.15440156516E+02 -0.10711901009E+03  0.14264524620E+03  0.89928527284E+02 0.  0.
          5    1    3    3  502    0 -0.14116018638E+02 -0.18617682585E+01 -0.14097957268E+03  0.14175838767E+03  0.41800000000E+01 0. -1.
         -5    1    3    3    0  502 -0.92858079729E+01 -0.13578388258E+02  0.25598140043E+02  0.30713775916E+02  0.41800000000E+01 0. -1.
        -11    1    4    4    0    0  0.25915938526E+01 -0.24138315682E+02 -0.92450361875E+02  0.95584748017E+02  0.00000000000E+00 0. -1.
         11    1    4    4    0    0  0.20810232759E+02  0.39578472199E+02 -0.14668648217E+02  0.47060498186E+02  0.00000000000E+00 0.  1.
</event>
<event>
 8    1  0.4798744E-006  0.1123070E+03  0.7561462E-02  0.1256356E+00
          2   -1    0    0  501    0  0.00000000000E+00  0.00000000000E+00  0.18380649136E+03  0.18380649136E+03  0.00000000000E+00 0. -1.
         -2   -1    0    0    0  501 -0.00000000000E+00 -0.00000000000E+00 -0.88968694935E+02  0.88968694935E+02  0.00000000000E+00 0.  1.
         23    2    1    2    0    0  0.42910639470E+02  0.18275018586E+02 -0.37391736516E+00  0.13350138163E+03  0.12508868774E+03 0.  0.
         23    2    1    2    0    0 -0.42910639470E+02 -0.18275018586E+02  0.95211713791E+02  0.13927380466E+03  0.90314024041E+02 0.  0.
          5    1    3    3  502    0  0.70753731116E+02  0.51821623723E+02  0.10357123721E+02  0.88409917791E+02  0.41800000000E+01 0. -1.
         -5    1    3    3    0  502 -0.27843091646E+02 -0.33546605137E+02 -0.10731041086E+02  0.45091463842E+02  0.41800000000E+01 0. -1.
        -11    1    4    4    0    0 -0.38663262489E+02 -0.48765018405E+02  0.34383118388E+02  0.71099041600E+02  0.00000000000E+00 0.  1.
         11    1    4    4    0    0 -0.42473769807E+01  0.30489999818E+02  0.60828595403E+02  0.68174763064E+02  0.00000000000E+00 0. -1.
</event>
<event>
 8    1  0.4798744E-006  0.7965116E+02  0.7561462E-02  0.1330044E+00
          1   -1    0    0  501    0  0.00000000000E+00  0.00000000000E+00  0.28038723593E+03  0.28038723593E+03  0.00000000000E+00 0. -1.
         -1   -1    0    0    0  501 -0.00000000000E+00 -0.00000000000E+00 -0.60216856682E+02  0.60216856682E+02  0.00000000000E+00 0.  1.
         23    2    1    2    0    0  0.44997748696E+01  0.89217915199E+01  0.28938941408E+02  0.12880223234E+03  0.12511077646E+03 0.  0.
         23    2    1    2    0    0 -0.44997748696E+01 -0.89217915199E+01  0.19123143784E+03  0.21180186028E+03  0.90502590349E+02 0.  0.
          5    1    3    3  502    0  0.46717467206E+02 -0.77556232151E+00 -0.29892002922E+02  0.55624881822E+02  0.41800000000E+01 0. -1.
         -5    1    3    3    0  502 -0.42217692336E+02  0.96973538414E+01  0.58830944330E+02  0.73177350515E+02  0.41800000000E+01 0. -1.
        -11    1    4    4    0    0  0.14899784297E+02  0.25400508798E+02  0.18838642462E+02  0.34958316165E+02  0.00000000000E+00 0.  1.
         11    1    4    4    0    0 -0.19399559166E+02 -0.34322300318E+02  0.17239279538E+03  0.17684354411E+03  0.00000000000E+00 0. -1.
</event>
<event>
 8    1  0.4798744E-006  0.1297108E+03  0.7561462E-02  0.1227885E+00
         -2   -1    0    0    0  501 -0.00000000000E+00  0.00000000000E+00  0.44251196701E+02  0.44251196701E+02  0.00000000000E+00 0. -1.
          2   -1    0    0  501    0  0.00000000000E+00 -0.00000000000E+00 -0.38503737054E+03  0.38503737054E+03  0.00000000000E+00 0.  1.
         23    2    1    2    0    0 -0.27993144867E+02  0.65718666475E+02 -0.20882027075E+03  0.25368509283E+03  0.12509061342E+03 0.  0.
         23    2    1    2    0    0  0.27993144867E+02 -0.65718666475E+02 -0.13196590308E+03  0.17560347440E+03  0.91208669345E+02 0.  0.
          5    1    3    3  502    0 -0.69961177734E+02  0.72938702693E+02 -0.15113795695E+03  0.18186471667E+03  0.41800000000E+01 0. -1.
         -5    1    3    3    0  502  0.41968032867E+02 -0.72200362183E+01 -0.57682313807E+02  0.71820376160E+02  0.41800000000E+01 0. -1.
        -11    1    4    4    0    0  0.21449063693E+02  0.20109327154E+02 -0.27667808094E+02  0.40372700883E+02  0.00000000000E+00 0. -1.
         11    1    4    4    0    0  0.65440811739E+01 -0.85827993629E+02 -0.10429809499E+03  0.13523077352E+03  0.00000000000E+00 0.  1.
</event>
<event>
 8    1  0.4798744E-006  0.4638768E+02  0.7561462E-02  0.1465860E+00
          1   -1    0    0  501    0  0.00000000000E+00  0.00000000000E+00  0.31497894544E+03  0.31497894544E+03  0.00000000000E+00 0.  1.
         -1   -1    0    0    0  501 -0.00000000000E+00 -0.00000000000E+00 -0.45611902106E+02  0.45611902106E+02  0.00000000000E+00 0. -1.
         23    2    1    2    0    0  0.18452055692E+02  0.11024671185E+02  0.80981437482E+02  0.15055930294E+03  0.12509232091E+03 0.  0.
         23    2    1    2    0    0 -0.18452055692E+02 -0.11024671185E+02  0.18838560586E+03  0.21003154461E+03  0.90344294251E+02 0.  0.
          5    1    3    3  502    0  0.26537270681E+02  0.85518023678E+01 -0.28841600601E+02  0.40332001985E+02  0.41800000000E+01 0.  1.
         -5    1    3    3    0  502 -0.80852149886E+01  0.24728688170E+01  0.10982303808E+03  0.11022730095E+03  0.41800000000E+01 0.  1.
        -11    1    4    4    0    0  0.16318067384E+02 -0.12178421233E+02  0.20368178290E+01  0.20463183862E+02  0.00000000000E+00 0. -1.
         11    1    4    4    0    0 -0.34770123076E+02  0.11537500486E+01  0.18634878803E+03  0.18956836075E+03  0.00000000000E+00 0.  1.
</event>
<event>
 8    1  0.4798744E-006  0.1213704E+03  0.7561462E-02  0.1240853E+00
          1   -1    0    0  501    0  0.00000000000E+00  0.00000000000E+00  0.13526609539E+03  0.13526609539E+03  0.00000000000E+00 0. -1.
         -1   -1    0    0    0  501 -0.00000000000E+00 -0.00000000000E+00 -0.20318094472E+03  0.20318094472E+03  0.00000000000E+00 0.  1.
         23    2    1    2    0    0 -0.55940418945E+02  0.94082750989E+02 -0.10150733213E+03  0.19476253726E+03  0.12509121847E+03 0.  0.
         23    2    1    2    0    0  0.55940418945E+02 -0.94082750989E+02  0.33592482802E+02  0.14368450285E+03  0.86809486543E+02 0.  0.
          5    1    3    3  502    0 -0.19545300978E+02  0.87214338930E+02 -0.30955579054E+01  0.89528847776E+02  0.41800000000E+01 0.  1.
         -5    1    3    3    0  502 -0.36395117967E+02  0.68684120591E+01 -0.98411774225E+02  0.10523368948E+03  0.41800000000E+01 0.  1.
        -11    1    4    4    0    0  0.39259971149E+02 -0.29007243642E+02 -0.24730072034E+02  0.54720580964E+02  0.00000000000E+00 0.  1.
         11    1    4    4    0    0  0.16680447796E+02 -0.65075507347E+02  0.58322554835E+02  0.88963921888E+02  0.00000000000E+00 0. -1.
</event>
<event>
 8    1  0.4798744E-006  0.1428656E+03  0.7561462E-02  0.1209524E+00
          2   -1    0    0  501    0  0.00000000000E+00  0.00000000000E+00  0.46699942711E+03  0.46699942711E+03  0.00000000000E+00 0. -1.
         -2   -1    0    0    0  501 -0.00000000000E+00 -0.00000000000E+00 -0.46199613644E+02  0.46199613644E+02  0.00000000000E+00 0.  1.
         23    2    1    2    0    0  0.63110927265E+02  0.73413152110E+02  0.19487697314E+03  0.25099210986E+03  0.12509006559E+03 0.  0.
         23    2    1    2    0    0 -0.63110927265E+02 -0.73413152110E+02  0.22592284033E+03  0.26220693089E+03  0.91317384901E+02 0.  0.
          5    1    3    3  502    0  0.58314208082E+02  0.10566615699E+03  0.12520139449E+03  0.17395041012E+03  0.41800000000E+01 0. -1.
         -5    1    3    3    0  502  0.47967191828E+01 -0.32253004885E+02  0.69675578643E+02  0.77041699737E+02  0.41800000000E+01 0. -1.
        -11    1    4    4    0    0 -0.35027492487E+02 -0.91983492406E+02  0.18145675414E+03  0.20643265664E+03  0.00000000000E+00 0.  1.
         11    1    4    4    0    0 -0.28083434778E+02  0.18570340297E+02  0.44466086184E+02  0.55774274250E+02  0.00000000000E+00 0. -1.
</event>
<event>
 8    1  0.4798744E-006  0.1417025E+03  0.7561462E-02  0.1211056E+00
         -3   -1    0    0    0  501 -0.00000000000E+00  0.00000000000E+00  0.17421333199E+03  0.17421333199E+03  0.00000000000E+00 0.  1.
          3   -1    0    0  501    0  0.00000000000E+00 -0.00000000000E+00 -0.15157906180E+03  0.15157906180E+03  0.00000000000E+00 0. -1.
         23    2    1    2    0    0 -0.31570109452E+02  0.98472064319E+02  0.28721490707E+02  0.16482192634E+03  0.12509166284E+03 0.  0.
         23    2    1    2    0    0  0.31570109452E+02 -0.98472064319E+02 -0.60872205148E+01  0.16097046745E+03  0.12321127333E+03 0.  0.
          5    1    3    3  502    0  0.31588933902E+01  0.89987282985E+02  0.66974119285E+02  0.11229734975E+03  0.41800000000E+01 0. -1.
         -5    1    3    3    0  502 -0.34729002843E+02  0.84847813334E+01 -0.38252628578E+02  0.52524576589E+02  0.41800000000E+01 0. -1.
        -11    1    4    4    0    0 -0.26281027682E+02  0.14741630411E+02  0.12228397482E+02  0.32519867591E+02  0.00000000000E+00 0.  1.
         11    1    4    4    0    0  0.57851137134E+02 -0.11321369473E+03 -0.18315617997E+02  0.12845059986E+03  0.00000000000E+00 0. -1.
</event>
<event>
 8    1  0.4798744E-006  0.1528891E+03  0.7561462E-02  0.1196967E+00
          1   -1    0    0  501    0  0.00000000000E+00  0.00000000000E+00  0.13471569279E+03  0.13471569279E+03  0.00000000000E+00 0. -1.
         -1   -1    0    0    0  501 -0.00000000000E+00 -0.00000000000E+00 -0.27340747543E+03  0.27340747543E+03  0.00000000000E+00 0.  1.
         23    2    1    2    0    0  0.12725351655E+03 -0.91758871719E+01 -0.16927115573E+03  0.24611877117E+03  0.12507626065E+03 0.  0.
         23    2    1    2    0    0 -0.12725351655E+03  0.91758871719E+01  0.30579373084E+02  0.16200439705E+03  0.95040371567E+02 0.  0.
          5    1    3    3  502    0  0.14738904020E+03 -0.18303590965E+02 -0.16696342497E+03  0.22350124897E+03  0.41800000000E+01 0.  1.
         -5    1    3    3    0  502 -0.20135523649E+02  0.91277037928E+01 -0.23077307627E+01  0.22617522199E+02  0.41800000000E+01 0.  1.
        -11    1    4    4    0    0 -0.54832047378E+01  0.11679482638E+02 -0.24994726263E+02  0.28128494269E+02  0.00000000000E+00 0.  1.
         11    1    4    4    0    0 -0.12177031181E+03 -0.25035954664E+01  0.55574099346E+02  0.13387590278E+03  0.00000000000E+00 0. -1.
</event>
<event>
 8    1  0.4798744E-006  0.9847724E+02  0.7561462E-02  0.1283531E+00
          1   -1    0    0  501    0  0.00000000000E+00  0.00000000000E+00  0.26379428111E+03  0.26379428111E+03  0.00000000000E+00 0. -1.
         -1   -1    0    0    0  501 -0.00000000000E+00 -0.00000000000E+00 -0.45132608104E+02  0.45132608104E+02  0.00000000000E+00 0.  1.
         23    2    1    2    0    0 -0.53712966461E+01  0.31626837014E+02  0.12157522915E+03  0.17736329306E+03  0.12509234084E+03 0.  0.
         23    2    1    2    0    0  0.53712966461E+01 -0.31626837014E+02  0.97086443858E+02  0.13156359615E+03  0.82789459496E+02 0.  0.
          5    1    3    3  502    0  0.94742001920E+01 -0.47389688175E+02  0.41963990658E+02  0.64140407907E+02  0.41800000000E+01 0. -1.
         -5    1    3    3    0  502 -0.14845496838E+02  0.79016525189E+02  0.79611238490E+02  0.11322288516E+03  0.41800000000E+01 0. -1.
        -11    1    4    4    0    0 -0.57907418283E+01 -0.47876245384E+02  0.10057897157E+03  0.11154280383E+03  0.00000000000E+00 0. -1.
         11    1    4    4    0    0  0.11162038474E+02  0.16249408370E+02 -0.34925277173E+01  0.20020792320E+02  0.00000000000E+00 0.  1.
</event>
<event>
 8    1  0.4798744E-006  0.1101448E+03  0.7561462E-02  0.1260302E+00
          1   -1    0    0  501    0  0.00000000000E+00  0.00000000000E+00  0.33035704348E+02  0.33035704348E+02  0.00000000000E+00 0. -1.
         -1   -1    0    0    0  501 -0.00000000000E+00 -0.00000000000E+00 -0.67922940080E+03  0.67922940080E+03  0.00000000000E+00 0.  1.
         23    2    1    2    0    0  0.93276050129E+02  0.39931762474E+01 -0.44914653546E+03  0.47549542115E+03  0.12508764222E+03 0.  0.
         23    2    1    2    0    0 -0.93276050129E+02 -0.39931762474E+01 -0.19704716099E+03  0.23676968399E+03  0.92281810886E+02 0.  0.
          5    1    3    3  502    0 -0.16374188911E+01  0.34547827412E+01  0.73147132142E+01  0.92517076165E+01  0.41800000000E+01 0.  1.
         -5    1    3    3    0  502  0.94913469020E+02  0.53839350620E+00 -0.45646124867E+03  0.46624371353E+03  0.41800000000E+01 0.  1.
        -11    1    4    4    0    0 -0.32352208181E+02 -0.37951065775E+02 -0.36726055992E+02  0.61933447800E+02  0.00000000000E+00 0. -1.
         11    1    4    4    0    0 -0.60923841948E+02  0.33957889527E+02 -0.16032110500E+03  0.17483623619E+03  0.00000000000E+00 0.  1.
</event>
<event>
 8    1  0.4798744E-006  0.1471629E+03  0.7561462E-02  0.1204003E+00
          1   -1    0    0  501    0  0.00000000000E+00  0.00000000000E+00  0.21571945954E+03  0.21571945954E+03  0.00000000000E+00 0. -1.
         -1   -1    0    0    0  501 -0.00000000000E+00 -0.00000000000E+00 -0.11040276663E+03  0.11040276663E+03  0.00000000000E+00 0.  1.
         23    2    1    2    0    0 -0.73109244462E+02 -0.80200960278E+02  0.60421541066E+02  0.17629187977E+03  0.12510359145E+03 0.  0.
         23    2    1    2    0    0  0.73109244462E+02  0.80200960278E+02  0.44895151846E+02  0.14983034640E+03  0.93039789267E+02 0.  0.
          5    1    3    3  502    0 -0.27376579243E+02  0.32796953158E+02  0.23045877162E+02  0.48720653543E+02  0.41800000000E+01 0.  1.
         -5    1    3    3    0  502 -0.45732665219E+02 -0.11299791344E+03  0.37375663903E+02  0.12757122623E+03  0.41800000000E+01 0.  1.
        -11    1    4    4    0    0  0.40894242163E+02  0.87331921012E+02  0.29689258914E+01  0.96478069999E+02  0.00000000000E+00 0.  1.
         11    1    4    4    0    0  0.32215002298E+02 -0.71309607339E+01  0.41926225954E+02  0.53352276398E+02  0.00000000000E+00 0. -1.
</event>
<event>
 7    1  0.4798744E-006  0.1378177E+03  0.7561462E-02  0.1216296E+00
         -1   -1    0    0    0  501 -0.00000000000E+00  0.00000000000E+00  0.22254036334E+02  0.22254036334E+02  0.00000000000E+00 0.  1.
          1   -1    0    0  501    0  0.00000000000E+00 -0.00000000000E+00 -0.10010961345E+04  0.10010961345E+04  0.00000000000E+00 0. -1.
         23    2    1    2    0    0  0.72673844555E+02 -0.23494666715E+01 -0.52305756055E+03  0.53580439292E+03  0.90609757460E+02 0.  0.
          5    1    1    2  502    0 -0.31262940775E+01  0.65346491991E+02 -0.28693235616E+03  0.29432564812E+03  0.41800000000E+01 0. -1.
         -5    1    1    2    0  502 -0.69547550478E+02 -0.62997025320E+02 -0.16885218149E+03  0.19322012983E+03  0.41800000000E+01 0.  1.
        -11    1    3    3    0    0 -0.94735376276E+01 -0.28426218103E+02 -0.12994193330E+03  0.13335180472E+03  0.00000000000E+00 0.  1.
         11    1    3    3    0    0  0.82147382183E+02  0.26076751431E+02 -0.39311562725E+03  0.40245258820E+03  0.00000000000E+00 0. -1.
</event>
<event>
 8    1  0.4798744E-006  0.1590353E+03  0.7561462E-02  0.1189790E+00
         -2   -1    0    0    0  501 -0.00000000000E+00  0.00000000000E+00  0.71289904381E+02  0.71289904381E+02  0.00000000000E+00 0.  1.
          2   -1    0    0  501    0  0.00000000000E+00 -0.00000000000E+00 -0.40742990306E+03  0.40742990306E+03  0.00000000000E+00 0. -1.
         23    2    1    2    0    0 -0.88919467595E+02  0.10244153749E+03 -0.16260679757E+03  0.24593671989E+03  0.12507181639E+03 0.  0.
         23    2    1    2    0    0  0.88919467595E+02 -0.10244153749E+03 -0.17353320111E+03  0.23278308755E+03  0.75321003975E+02 0.  0.
          5    1    3    3  502    0 -0.99990790727E+02  0.31320077936E+02 -0.60896630301E+02  0.12126408163E+03  0.41800000000E+01 0.  1.
         -5    1    3    3    0  502  0.11071323132E+02  0.71121459555E+02 -0.10171016727E+03  0.12467263826E+03  0.41800000000E+01 0.  1.
        -11    1    4    4    0    0  0.27461048194E+02 -0.61240999376E+02 -0.34917134161E+02  0.75655637137E+02  0.00000000000E+00 0.  1.
         11    1    4    4    0    0  0.61458419401E+02 -0.41200538115E+02 -0.13861606695E+03  0.15712745041E+03  0.00000000000E+00 0. -1.
</event>
<event>
 8    1  0.4798744E-006  0.8601157E+02  0.7561462E-02  0.1312808E+00
          1   -1    0    0  501    0  0.00000000000E+00  0.00000000000E+00  0.94496989067E+02  0.94496989067E+02  0.00000000000E+00 0. -1.
         -1   -1    0    0    0  501 -0.00000000000E+00 -0.00000000000E+00 -0.16580708119E+03  0.16580708119E+03  0.00000000000E+00 0.  1.
         23    2    1    2    0    0  0.56545489984E+02 -0.28464185162E+02 -0.46543706507E+02  0.14772379999E+03  0.12509357375E+03 0.  0.
         23    2    1    2    0    0 -0.56545489984E+02  0.28464185162E+02 -0.24766385618E+02  0.11258027027E+03  0.89740409640E+02 0.  0.
          5    1    3    3  502    0  0.64949549699E+01  0.10084343075E+02 -0.76594914877E+02  0.77641044560E+02  0.41800000000E+01 0.  1.
         -5    1    3    3    0  502  0.50050535014E+02 -0.38548528237E+02  0.30051208370E+02  0.70082755432E+02  0.41800000000E+01 0.  1.
        -11    1    4    4    0    0  0.13568651484E+02  0.21667111607E+02  0.16985852443E+02  0.30693504389E+02  0.00000000000E+00 0. -1.
         11    1    4    4    0    0 -0.70114141468E+02  0.67970735552E+01 -0.41752238062E+02  0.81886765878E+02  0.00000000000E+00 0.  1.
</event>
<event>
 8    1  0.4798744E-006  0.1256564E+03  0.7561462E-02  0.1234047E+00
          3   -1    0    0  501    0  0.00000000000E+00  0.00000000000E+00  0.25746999089E+02  0.25746999089E+02  0.00000000000E+00 0. -1.
         -3   -1    0    0    0  501 -0.00000000000E+00 -0.00000000000E+00 -0.67412657884E+03  0.67412657884E+03  0.00000000000E+00 0.  1.
         23    2    1    2    0    0 -0.66306384648E+02  0.13487628654E+02 -0.44002066312E+03  0.46243306663E+03  0.12509078449E+03 0.  0.
         23    2    1    2    0    0  0.66306384648E+02 -0.13487628654E+02 -0.20835891663E+03  0.23744051131E+03  0.91575681799E+02 0.  0.
          5    1    3    3  502    0 -0.52404302515E+02  0.67878145497E+02 -0.25867643976E+03  0.27255206190E+03  0.41800000000E+01 0.  1.
         -5    1    3    3    0  502 -0.13902082133E+02 -0.54390516843E+02 -0.18134422336E+03  0.18988100473E+03  0.41800000000E+01 0.  1.
        -11    1    4    4    0    0  0.71952099085E+02 -0.39817554639E+02 -0.18219875133E+03  0.19989729165E+03  0.00000000000E+00 0.  1.
         11    1    4    4    0    0 -0.56457144368E+01  0.26329925985E+02 -0.26160165298E+02  0.37543219658E+02  0.00000000000E+00 0. -1.
</event>
<event>
 7    1  0.4798744E-006  0.1435726E+03  0.7561462E-02  0.1208601E+00
         -2   -1    0    0    0  501 -0.00000000000E+00  0.00000000000E+00  0.10443114541E+03  0.10443114541E+03  0.00000000000E+00 0.  1.
          2   -1    0    0  501    0  0.00000000000E+00 -0.00000000000E+00 -0.72306471750E+03  0.72306471750E+03  0.00000000000E+00 0. -1.
         23    2    1    2    0    0 -0.10368210644E+03 -0.31687416247E+01 -0.26705936069E+03  0.30010365653E+03  0.89339142678E+02 0.  0.
          5    1    1    2  502    0  0.15835571743E+02 -0.48548662735E+02 -0.40772778308E+03  0.41093449050E+03  0.41800000000E+01 0. -1.
         -5    1    1    2    0  502  0.87846534699E+02  0.51717404360E+02  0.56153571681E+02  0.11645771587E+03  0.41800000000E+01 0.  1.
        -11    1    3    3    0    0  0.14723689997E+02  0.40096102681E+01 -0.14392185165E+02  0.20976153495E+02  0.00000000000E+00 0.  1.
         11    1    3    3    0    0 -0.11840579644E+03 -0.71783518928E+01 -0.25266717552E+03  0.27912750304E+03  0.00000000000E+00 0. -1.
</event>
<event>
 8    1  0.4798744E-006  0.6732715E+02  0.7561462E-02  0.1369426E+00
         -2   -1    0    0    0  501 -0.00000000000E+00  0.00000000000E+00  0.60699609720E+02  0.60699609720E+02  0.00000000000E+00 0.  1.
          2   -1    0    0  501    0  0.00000000000E+00 -0.00000000000E+00 -0.28489279858E+03  0.28489279858E+03  0.00000000000E+00 0. -1.
         23    2    1    2    0    0 -0.90057030253E+01  0.61501384196E+01 -0.74645852606E+01  0.11092302573E+03  0.11013296833E+03 0.  0.
         23    2    1    2    0    0  0.90057030253E+01 -0.61501384196E+01 -0.21672860360E+03  0.23466938257E+03  0.89328072908E+02 0.  0.
          5    1    3    3  502    0  0.16758368047E+02  0.34385513412E+02 -0.43603510874E+02  0.58154492455E+02  0.41800000000E+01 0. -1.
         -5    1    3    3    0  502 -0.25764071073E+02 -0.28235374992E+02  0.36138925613E+02  0.52768533272E+02  0.41800000000E+01 0.  1.
        -11    1    4    4    0    0 -0.17339411956E+02  0.15780284030E+02 -0.10634779289E+02  0.25744341156E+02  0.00000000000E+00 0.  1.
         11    1    4    4    0    0  0.26345114982E+02 -0.21930422449E+02 -0.20609382431E+03  0.20892504141E+03  0.00000000000E+00 0. -1.
</event>
<event>
 8    1  0.4798744E-006  0.9240302E+02  0.7561462E-02  0.1297135E+00
         -2   -1    0    0    0  501 -0.00000000000E+00  0.00000000000E+00  0.91537369323E+02  0.91537369323E+02  0.00000000000E+00 0.  1.
          2   -1    0    0  501    0  0.00000000000E+00 -0.00000000000E+00 -0.13497195917E+03  0.13497195917E+03  0.00000000000E+00 0. -1.
         23    2    1    2    0    0 -0.19829515614E+02  0.51746267166E+01 -0.11630040222E+02  0.12728128881E+03  0.12508110246E+03 0.  0.
         23    2    1    2    0    0  0.19829515614E+02 -0.51746267166E+01 -0.31804549629E+02  0.99228039690E+02  0.91731608688E+02 0.  0.
          5    1    3    3  502    0 -0.48375151995E+02 -0.25626275074E+02 -0.46957092076E+02  0.72244738223E+02  0.41800000000E+01 0.  1.
         -5    1    3    3    0  502  0.28545636381E+02  0.30800901791E+02  0.35327051854E+02  0.55036550584E+02  0.41800000000E+01 0.  1.
        -11    1    4    4    0    0 -0.26748594030E+02  0.21238487902E+02 -0.30304629729E+02  0.45661047227E+02  0.00000000000E+00 0. -1.
         11    1    4    4    0    0  0.46578109644E+02 -0.26413114618E+02 -0.14999199005E+01  0.53566992463E+02  0.00000000000E+00 0.  1.
</event>
<event>
 8    1  0.4798744E-006  0.1768185E+03  0.7561462E-02  0.1170918E+00
          2   -1    0    0  501    0  0.00000000000E+00  0.00000000000E+00  0.34748794035E+02  0.34748794035E+02  0.00000000000E+00 0. -1.
         -2   -1    0    0    0  501 -0.00000000000E+00 -0.00000000000E+00 -0.10589662775E+04  0.10589662775E+04  0.00000000000E+00 0.  1.
         23    2    1    2    0    0  0.13837891943E+03 -0.23034474323E+02 -0.74924665780E+03  0.77246181311E+03  0.12508951254E+03 0.  0.
         23    2    1    2    0    0 -0.13837891943E+03  0.23034474323E+02 -0.27497082567E+03  0.32125325842E+03  0.88968470417E+02 0.  0.
          5    1    3    3  502    0 -0.17256757136E+02  0.19294924906E+02 -0.88594195140E+02  0.92393146968E+02  0.41800000000E+01 0. -1.
         -5    1    3    3    0  502  0.15563567657E+03 -0.42329399229E+02 -0.66065246266E+03  0.68006866614E+03  0.41800000000E+01 0. -1.
        -11    1    4    4    0    0 -0.93044391778E+02  0.57275081300E+02 -0.18440779876E+03  0.21434535223E+03  0.00000000000E+00 0.  1.
         11    1    4    4    0    0 -0.45334527652E+02 -0.34240606977E+02 -0.90563026907E+02  0.10690790619E+03  0.00000000000E+00 0. -1.
</event>
<event>
 8    1  0.4798744E-006  0.1339163E+03  0.7561462E-02  0.1221758E+00
         -2   -1    0    0    0  501 -0.00000000000E+00  0.00000000000E+00  0.44433681686E+02  0.44433681686E+02  0.00000000000E+00 0.  1.
          2   -1    0    0  501    0  0.00000000000E+00 -0.00000000000E+00 -0.56437809611E+03  0.56437809611E+03  0.00000000000E+00 0. -1.
         23    2    1    2    0    0  0.48332092857E+02 -0.10062069141E+03 -0.33127350870E+03  0.37128103216E+03  0.12508777931E+03 0.  0.
         23    2    1    2    0    0 -0.48332092857E+02  0.10062069141E+03 -0.18867090572E+03  0.23753074564E+03  0.91452882500E+02 0.  0.
          5    1    3    3  502    0  0.62183230608E+02 -0.73688072276E+02 -0.10369202146E+03  0.14165519362E+03  0.41800000000E+01 0.  1.
         -5    1    3    3    0  502 -0.13851137752E+02 -0.26932619135E+02 -0.22758148724E+03  0.22962583854E+03  0.41800000000E+01 0.  1.
        -11    1    4    4    0    0 -0.63725110695E+02  0.33711121235E+02 -0.70330656811E+02  0.10071608966E+03  0.00000000000E+00 0.  1.
         11    1    4    4    0    0  0.15393017839E+02  0.66909570176E+02 -0.11834024891E+03  0.13681465598E+03  0.00000000000E+00 0. -1.
</event>
<event>
 8    1  0.4798744E-006  0.6935777E+02  0.7561462E-02  0.1362291E+00
         -1   -1    0    0    0  501 -0.00000000000E+00  0.00000000000E+00  0.38998204220E+02  0.38998204220E+02  0.00000000000E+00 0.  1.
          1   -1    0    0  501    0  0.00000000000E+00 -0.00000000000E+00 -0.38747326178E+03  0.38747326178E+03  0.00000000000E+00 0. -1.
         23    2    1    2    0    0  0.13876047196E+01  0.48889385140E+02 -0.17290788016E+03  0.21894534624E+03  0.12509129543E+03 0.  0.
         23    2    1    2    0    0 -0.13876047196E+01 -0.48889385140E+02 -0.17556717739E+03  0.20752611975E+03  0.99253005880E+02 0.  0.
          5    1    3    3  502    0 -0.73473162666E+00  0.16364360314E+00 -0.16984583663E+03  0.16989893240E+03  0.41800000000E+01 0. -1.
         -5    1    3    3    0  502  0.21223363463E+01  0.48725741537E+02 -0.30620435289E+01  0.49046413839E+02  0.41800000000E+01 0. -1.
        -11    1    4    4    0    0  0.18659466214E+02  0.11479008942E+02 -0.12246788339E+01  0.21941813141E+02  0.00000000000E+00 0.  1.
         11    1    4    4    0    0 -0.20047070934E+02 -0.60368394082E+02 -0.17434249856E+03  0.18558430661E+03  0.00000000000E+00 0. -1.
</event>
<event>
 8    1  0.4798744E-006  0.9851074E+02  0.7561462E-02  0.1283459E+00
         -1   -1    0    0    0  501 -0.00000000000E+00  0.00000000000E+00  0.47858262462E+02  0.47858262462E+02  0.00000000000E+00 0.  1.
          1   -1    0    0  501    0  0.00000000000E+00 -0.00000000000E+00 -0.28638235109E+03  0.28638235109E+03  0.00000000000E+00 0. -1.
         23    2    1    2    0    0 -0.36439417798E+02  0.21475457541E+02 -0.10996456762E+03  0.17184005327E+03  0.12509105215E+03 0.  0.
         23    2    1    2    0    0  0.36439417798E+02 -0.21475457541E+02 -0.12855952101E+03  0.16240056029E+03  0.89762826905E+02 0.  0.
          5    1    3    3  502    0 -0.57390696339E+02 -0.15617790420E+02 -0.11419691018E+03  0.12882551804E+03  0.41800000000E+01 0. -1.
         -5    1    3    3    0  502  0.20951278541E+02  0.37093247961E+02  0.42323425622E+01  0.43014535222E+02  0.41800000000E+01 0. -1.
        -11    1    4    4    0    0  0.47645669887E+02 -0.46869411471E+02 -0.65859200580E+02  0.93831156295E+02  0.00000000000E+00 0.  1.
         11    1    4    4    0    0 -0.11206252089E+02  0.25393953930E+02 -0.62700320430E+02  0.68569403994E+02  0.00000000000E+00 0. -1.
</event>
<event>
 8    1  0.4798744E-006  0.1499226E+03  0.7561462E-02  0.1200568E+00
         -2   -1    0    0    0  501 -0.00000000000E+00  0.00000000000E+00  0.93544839610E+02  0.93544839610E+02  0.00000000000E+00 0.  1.
          2   -1    0    0  501    0  0.00000000000E+00 -0.00000000000E+00 -0.29523190818E+03  0.29523190818E+03  0.00000000000E+00 0. -1.
         23    2    1    2    0    0  0.86213223557E+02  0.86323202160E+02 -0.73683553940E+02  0.18963593417E+03  0.12509239090E+03 0.  0.
         23    2    1    2    0    0 -0.86213223557E+02 -0.86323202160E+02 -0.12800351463E+03  0.19914081362E+03  0.91584653434E+02 0.  0.
          5    1    3    3  502    0  0.84023714204E+02  0.27827400841E+02 -0.92415596062E+02  0.12803305660E+03  0.41800000000E+01 0. -1.
         -5    1    3    3    0  502  0.21895093526E+01  0.58495801319E+02  0.18732042122E+02  0.61602877573E+02  0.41800000000E+01 0. -1.
        -11    1    4    4    0    0 -0.90467618192E+02 -0.28904821700E+02 -0.80330545925E+02  0.12439001273E+03  0.00000000000E+00 0. -1.
         11    1    4    4    0    0  0.42543946346E+01 -0.57418380460E+02 -0.47672968706E+02  0.74750800890E+02  0.00000000000E+00 0.  1.
</event>
<event>
 8    1  0.4798744E-006  0.9555015E+02  0.7561462E-02  0.1289942E+00
          1   -1    0    0  501    0  0.00000000000E+00  0.00000000000E+00  0.18891561683E+03  0.18891561683E+03  0.00000000000E+00 0. -1.
         -1   -1    0    0    0  501 -0.00000000000E+00 -0.00000000000E+00 -0.14356909662E+03  0.14356909662E+03  0.00000000000E+00 0.  1.
         23    2    1    2    0    0  0.33824569816E+02  0.18038239644E+01 -0.94736481795E+02  0.16052114904E+03  0.12507870723E+03 0.  0.
         23    2    1    2    0    0 -0.33824569816E+02 -0.18038239644E+01  0.14008300200E+03  0.17196356441E+03  0.93812924117E+02 0.  0.
          5    1    3    3  502    0  0.79011774019E+02  0.17101225386E+02 -0.67697123224E+02  0.10552575627E+03  0.41800000000E+01 0.  1.
         -5    1    3    3    0  502 -0.45187204203E+02 -0.15297401422E+02 -0.27039358571E+02  0.54995392770E+02  0.41800000000E+01 0.  1.
        -11    1    4    4    0    0 -0.32579473703E+01  0.22794892704E+02  0.12921519308E+03  0.13125085706E+03  0.00000000000E+00 0. -1.
         11    1    4    4    0    0 -0.30566622446E+02 -0.24598716668E+02  0.10867808916E+02  0.40712707354E+02  0.00000000000E+00 0.  1.
</event>
<event>
 8    1  0.4798744E-006  0.1815379E+03  0.7561462E-02  0.1166323E+00
         -1   -1    0    0    0  501 -0.00000000000E+00  0.00000000000E+00  0.74309690567E+02  0.74309690567E+02  0.00000000000E+00 0.  1.
          1   -1    0    0  501    0  0.00000000000E+00 -0.00000000000E+00 -0.50077273900E+03  0.50077273900E+03  0.00000000000E+00 0. -1.
         23    2    1    2    0    0  0.13695940428E+03 -0.77010035238E+02 -0.19213438410E+03  0.27794051114E+03  0.12508749830E+03 0.  0.
         23    2    1    2    0    0 -0.13695940428E+03  0.77010035238E+02 -0.23432866434E+03  0.29714191843E+03  0.93246838062E+02 0.  0.
          5    1    3    3  502    0  0.56301093949E+02  0.32131150338E+02 -0.66347322635E+02  0.92852913917E+02  0.41800000000E+01 0. -1.
         -5    1    3    3    0  502  0.80658310333E+02 -0.10914118558E+03 -0.12578706147E+03  0.18508759723E+03  0.41800000000E+01 0. -1.
        -11    1    4    4    0    0 -0.43138583630E+02  0.37417010539E+01 -0.11971253984E+02  0.44924922330E+02  0.00000000000E+00 0.  1.
         11    1    4    4    0    0 -0.93820820652E+02  0.73268334184E+02 -0.22235741035E+03  0.25221699610E+03  0.00000000000E+00 0. -1.
</event>
<event>
 8    1  0.4798744E-006  0.6066081E+02  0.7561462E-02  0.1395079E+00
          1   -1    0    0  501    0  0.00000000000E+00  0.00000000000E+00  0.21416739213E+03  0.21416739213E+03  0.00000000000E+00 0. -1.
         -1   -1    0    0    0  501 -0.00000000000E+00 -0.00000000000E+00 -0.66973000800E+02  0.66973000800E+02  0.00000000000E+00 0.  1.
         23    2    1    2    0    0 -0.16122250920E+02  0.18971822938E+02  0.32963404988E+02  0.13173101895E+03  0.12508644309E+03 0.  0.
         23    2    1    2    0    0  0.16122250920E+02 -0.18971822938E+02  0.11423098634E+03  0.14940937397E+03  0.93030026070E+02 0.  0.
          5    1    3    3  502    0 -0.10039728831E+02  0.60551550167E+01  0.80739012410E+02  0.81692849028E+02  0.41800000000E+01 0.  1.
         -5    1    3    3    0  502 -0.60825220885E+01  0.12916667921E+02 -0.47775607422E+02  0.50038169927E+02  0.41800000000E+01 0.  1.
        -11    1    4    4    0    0 -0.32105459045E+02 -0.30638854105E+02  0.37856315757E+02  0.58331813996E+02  0.00000000000E+00 0.  1.
         11    1    4    4    0    0  0.48227709965E+02  0.11667031167E+02  0.76374670582E+02  0.91077559977E+02  0.00000000000E+00 0. -1.
</event>
<event>
 8    1  0.4798744E-006  0.1163786E+03  0.7561462E-02  0.1249194E+00
         -2   -1    0    0    0  501 -0.00000000000E+00  0.00000000000E+00  0.13826389219E+03  0.13826389219E+03  0.00000000000E+00 0.  1.
          2   -1    0    0  501    0  0.00000000000E+00 -0.00000000000E+00 -0.29026361663E+03  0.29026361663E+03  0.00000000000E+00 0. -1.
         23    2    1    2    0    0 -0.94728161114E+02  0.23062603774E+02  0.65930782040E+02  0.17175702932E+03  0.12509316888E+03 0.  0.
         23    2    1    2    0    0  0.94728161114E+02 -0.23062603774E+02 -0.21793050648E+03  0.25677047950E+03  0.94509604185E+02 0.  0.
          5    1    3    3  502    0 -0.91232061860E+02  0.35301460967E+02 -0.64705999777E+01  0.98126567869E+02  0.41800000000E+01 0.  1.
         -5    1    3    3    0  502 -0.34960992536E+01 -0.12238857193E+02  0.72401382018E+02  0.73630461451E+02  0.41800000000E+01 0.  1.
        -11    1    4    4    0    0  0.22300747195E+02  0.25781826283E+02 -0.12354693005E+03  0.12816344962E+03  0.00000000000E+00 0. -1.
         11    1    4    4    0    0  0.72427413919E+02 -0.48844430057E+02 -0.94383576431E+02  0.12860702988E+03  0.00000000000E+00 0.  1.
</event>
<event>
 8    1  0.4798744E-006  0.1501291E+03  0.7561462E-02  0.1200314E+00
          1   -1    0    0  501    0  0.00000000000E+00  0.00000000000E+00  0.58683952908E+03  0.58683952908E+03  0.00000000000E+00 0. -1.
         -1   -1    0    0    0  501 -0.00000000000E+00 -0.00000000000E+00 -0.61308844860E+02  0.61308844860E+02  0.00000000000E+00 0.  1.
         23    2    1    2    0    0 -0.12393107801E+03  0.17037834432E+02  0.11920936744E+03  0.21331988573E+03  0.12508117549E+03 0.  0.
         23    2    1    2    0    0  0.12393107801E+03 -0.17037834432E+02  0.40632131678E+03  0.43482848822E+03  0.91266652156E+02 0.  0.
          5    1    3    3  502    0 -0.94976614658E+01  0.35044992245E+02  0.84898668594E+02  0.92431668728E+02  0.41800000000E+01 0.  1.
         -5    1    3    3    0  502 -0.11443341654E+03 -0.18007157812E+02  0.34310698849E+02  0.12088821700E+03  0.41800000000E+01 0.  1.
        -11    1    4    4    0    0  0.10942584616E+03  0.17050346996E+02  0.23837376038E+03  0.26284364131E+03  0.00000000000E+00 0.  1.
         11    1    4    4    0    0  0.14505231851E+02 -0.34088181428E+02  0.16794755640E+03  0.17198484691E+03  0.00000000000E+00 0. -1.
</event>
<event>
 8    1  0.4798744E-006  0.1795265E+03  0.7561462E-02  0.1168262E+00
          3   -1    0    0  501    0  0.00000000000E+00  0.00000000000E+00  0.11221380563E+04  0.11221380563E+04  0.00000000000E+00 0. -1.
         -3   -1    0    0    0  501 -0.00000000000E+00 -0.00000000000E+00 -0.40205138736E+02  0.40205138736E+02  0.00000000000E+00 0.  1.
         23    2    1    2    0    0  0.13717616659E+03  0.93802694387E+02  0.35285489168E+03  0.40959580431E+03  0.12508358077E+03 0.  0.
         23    2    1    2    0    0 -0.13717616659E+03 -0.93802694387E+02  0.72907802591E+03  0.75274739074E+03  0.86357514176E+02 0.  0.
          5    1    3    3  502    0  0.18398950490E+02  0.36833723910E+02  0.10425786692E+02  0.42678027418E+02  0.41800000000E+01 0. -1.
         -5    1    3    3    0  502  0.11877721610E+03  0.56968970477E+02  0.34242910498E+03  0.36691777689E+03  0.41800000000E+01 0. -1.
        -11    1    4    4    0    0 -0.13654904065E+03 -0.55237020432E+02  0.61213034708E+03  0.62960331221E+03  0.00000000000E+00 0. -1.
         11    1    4    4    0    0 -0.62712593527E+00 -0.38565673955E+02  0.11694767883E+03  0.12314407853E+03  0.00000000000E+00 0.  1.
</event>
<event>
 8    1  0.4798744E-006  0.1382642E+03  0.7561462E-02  0.1215684E+00
          2   -1    0    0  501    0  0.00000000000E+00  0.00000000000E+00  0.30737304755E+03  0.30737304755E+03  0.00000000000E+00 0. -1.
         -2   -1    0    0    0  501 -0.00000000000E+00 -0.00000000000E+00 -0.67462073626E+02  0.67462073626E+02  0.00000000000E+00 0.  1.
         23    2    1    2    0    0 -0.89278807051E+02  0.22115667915E+02  0.15660039487E+03  0.22052557850E+03  0.12509212183E+03 0.  0.
         23    2    1    2    0    0  0.89278807051E+02 -0.22115667915E+02  0.83310579059E+02  0.15430954268E+03  0.91711363651E+02 0.  0.
          5    1    3    3  502    0 -0.86809681880E+01 -0.47051641191E+02  0.37816534400E+02  0.61129197782E+02  0.41800000000E+01 0.  1.
         -5    1    3    3    0  502 -0.80597838863E+02  0.69167309106E+02  0.11878386047E+03  0.15939638072E+03  0.41800000000E+01 0.  1.
        -11    1    4    4    0    0  0.44818975908E+02  0.29828194409E+02  0.11300571882E+02  0.55010587236E+02  0.00000000000E+00 0.  1.
         11    1    4    4    0    0  0.44459831143E+02 -0.51943862324E+02  0.72010007177E+02  0.99298955443E+02  0.00000000000E+00 0. -1.
</event>
<event>
 8    1  0.4798744E-006  0.1270133E+03  0.7561462E-02  0.1231956E+00
          1   -1    0    0  501    0  0.00000000000E+00  0.00000000000E+00  0.23854593592E+02  0.23854593592E+02  0.00000000000E+00 0. -1.
         -1   -1    0    0    0  501 -0.00000000000E+00 -0.00000000000E+00 -0.13141567488E+04  0.13141567488E+04  0.00000000000E+00 0.  1.
         23    2    1    2    0    0  0.11052291247E+03  0.12673466866E+02 -0.10078025101E+04  0.10216109924E+04  0.12508872665E+03 0.  0.
         23    2    1    2    0    0 -0.11052291247E+03 -0.12673466866E+02 -0.28249964511E+03  0.31640034997E+03  0.89034830433E+02 0.  0.
          5    1    3    3  502    0  0.11989374227E+02  0.52989345302E+01 -0.65674383257E+03  0.65688793399E+03  0.41800000000E+01 0. -1.
         -5    1    3    3    0  502  0.98533538244E+02  0.73745323355E+01 -0.35105867755E+03  0.36472305846E+03  0.41800000000E+01 0. -1.
        -11    1    4    4    0    0 -0.25038090460E+02  0.35350886891E+02 -0.69155265324E+02  0.81602952765E+02  0.00000000000E+00 0. -1.
         11    1    4    4    0    0 -0.85484822010E+02 -0.48024353757E+02 -0.21334437979E+03  0.23479739721E+03  0.00000000000E+00 0.  1.
</event>
<event>
 8    1  0.4798744E-006  0.6764715E+02  0.7561462E-02  0.1368282E+00
         -1   -1    0    0    0  501 -0.00000000000E+00  0.00000000000E+00  0.99146793025E+02  0.99146793025E+02  0.00000000000E+00 0.  1.
          1   -1    0    0  501    0  0.00000000000E+00 -0.00000000000E+00 -0.15594632136E+03  0.15594632136E+03  0.00000000000E+00 0. -1.
         23    2    1    2    0    0  0.13181642318E+02 -0.40338938461E+02  0.15039332209E+02  0.13294577376E+03  0.12508961427E+03 0.  0.
         23    2    1    2    0    0 -0.13181642318E+02  0.40338938461E+02 -0.71838860547E+02  0.12214734063E+03  0.89208549409E+02 0.  0.
          5    1    3    3  502    0 -0.25279799961E+02 -0.25985092178E+02 -0.46340302173E+02  0.58984653148E+02  0.41800000000E+01 0. -1.
         -5    1    3    3    0  502  0.38461442279E+02 -0.14353846283E+02  0.61379634382E+02  0.73961120612E+02  0.41800000000E+01 0. -1.
        -11    1    4    4    0    0  0.13529791482E+02  0.85086355425E+01 -0.78458738045E+02  0.80070129961E+02  0.00000000000E+00 0. -1.
         11    1    4    4    0    0 -0.26711433800E+02  0.31830302919E+02  0.66198774978E+01  0.42077210668E+02  0.00000000000E+00 0.  1.
</event>
<event>
 8    1  0.4798744E-006  0.1375614E+03  0.7561462E-02  0.1216648E+00
          1   -1    0    0  501    0  0.00000000000E+00  0.00000000000E+00  0.79923965281E+02  0.79923965281E+02  0.00000000000E+00 0. -1.
         -1   -1    0    0    0  501 -0.00000000000E+00 -0.00000000000E+00 -0.25990493196E+03  0.25990493196E+03  0.00000000000E+00 0.  1.
         23    2    1    2    0    0  0.21012361750E+02  0.91471617571E+02 -0.89388885590E+02  0.18012987768E+03  0.12509126188E+03 0.  0.
         23    2    1    2    0    0 -0.21012361750E+02 -0.91471617571E+02 -0.90592081088E+02  0.15969901956E+03  0.92131837746E+02 0.  0.
          5    1    3    3  502    0 -0.48323229709E+02  0.56515860407E+02 -0.64382818989E+02  0.98446923710E+02  0.41800000000E+01 0. -1.
         -5    1    3    3    0  502  0.69335591459E+02  0.34955757164E+02 -0.25006066601E+02  0.81682953967E+02  0.41800000000E+01 0. -1.
        -11    1    4    4    0    0 -0.39551538088E+02 -0.12075413427E+02 -0.59457378396E+02  0.72424578841E+02  0.00000000000E+00 0.  1.
         11    1    4    4    0    0  0.18539176338E+02 -0.79396204144E+02 -0.31134702691E+02  0.87274440722E+02  0.00000000000E+00 0. -1.
</event>
<event>
 8    1  0.4798744E-006  0.7848647E+02  0.7561462E-02  0.1333402E+00
         -1   -1    0    0    0  501 -0.00000000000E+00  0.00000000000E+00  0.52838319621E+02  0.52838319621E+02  0.00000000000E+00 0.  1.
          1   -1    0    0  501    0  0.00000000000E+00 -0.00000000000E+00 -0.20857025676E+03  0.20857025676E+03  0.00000000000E+00 0. -1.
         23    2    1    2    0    0  0.10788532877E+02  0.13975178820E+02 -0.61499521874E+02  0.12726589785E+03  0.11001236068E+03 0.  0.
         23    2    1    2    0    0 -0.10788532877E+02 -0.13975178820E+02 -0.94232415264E+02  0.13414267853E+03  0.93823302281E+02 0.  0.
          5    1    3    3  502    0 -0.24252167754E+02  0.47571716715E+01  0.23757172276E+02  0.34535111953E+02  0.41800000000E+01 0. -1.
         -5    1    3    3    0  502  0.35040700631E+02  0.92180071485E+01 -0.85256694150E+02  0.92730785901E+02  0.41800000000E+01 0.  1.
        -11    1    4    4    0    0 -0.14177445914E+02 -0.53712887046E+02 -0.53041767080E+02  0.76808223925E+02  0.00000000000E+00 0.  1.
         11    1    4    4    0    0  0.33889130372E+01  0.39737708226E+02 -0.41190648184E+02  0.57334454601E+02  0.00000000000E+00 0. -1.
</event>
<event>
 8    1  0.4798744E-006  0.9181718E+02  0.7561462E-02  0.1298510E+00
          1   -1    0    0  501    0  0.00000000000E+00  0.00000000000E+00  0.57809532535E+02  0.57809532535E+02  0.00000000000E+00 0. -1.
         -1   -1    0    0    0  501 -0.00000000000E+00 -0.00000000000E+00 -0.21242988664E+03  0.21242988664E+03  0.00000000000E+00 0.  1.
         23    2    1    2    0    0  0.10722528878E+02  0.12312880499E+01 -0.11183716502E+03  0.16814350491E+03  0.12509275785E+03 0.  0.
         23    2    1    2    0    0 -0.10722528878E+02 -0.12312880499E+01 -0.42783189081E+02  0.10209591427E+03  0.92068918459E+02 0.  0.
          5    1    3    3  502    0 -0.45702555535E+02  0.36217002349E+02 -0.60346812588E+02  0.84021455778E+02  0.41800000000E+01 0. -1.
         -5    1    3    3    0  502  0.56425084413E+02 -0.34985714299E+02 -0.51490352437E+02  0.84122049131E+02  0.41800000000E+01 0. -1.
        -11    1    4    4    0    0 -0.29299266323E+02  0.15937716207E+02  0.16814482741E+02  0.37352170416E+02  0.00000000000E+00 0. -1.
         11    1    4    4    0    0  0.18576737445E+02 -0.17169004256E+02 -0.59597671822E+02  0.64743743851E+02  0.00000000000E+00 0.  1.
</event>
<event>
 8    1  0.4798744E-006  0.1027703E+03  0.7561462E-02  0.1274576E+00
         -1   -1    0    0    0  501 -0.00000000000E+00  0.00000000000E+00  0.68432428874E+02  0.68432428874E+02  0.00000000000E+00 0.  1.
          1   -1    0    0  501    0  0.00000000000E+00 -0.00000000000E+00 -0.21897635319E+03  0.21897635319E+03  0.00000000000E+00 0. -1.
         23    2    1    2    0    0  0.45605069218E+02 -0.30967453326E+02 -0.67732964856E+02  0.15258884987E+03  0.12512712364E+03 0.  0.
         23    2    1    2    0    0 -0.45605069218E+02  0.30967453326E+02 -0.82810959465E+02  0.13481993220E+03  0.90994250410E+02 0.  0.
          5    1    3    3  502    0  0.50791936714E+02  0.14961401968E+02 -0.87328114249E+02  0.10221221220E+03  0.41800000000E+01 0.  1.
         -5    1    3    3    0  502 -0.51868674954E+01 -0.45928855295E+02  0.19595149393E+02  0.50376637669E+02  0.41800000000E+01 0.  1.
        -11    1    4    4    0    0  0.26431901827E+02  0.20008627865E+02 -0.31234272227E+02  0.45547452012E+02  0.00000000000E+00 0. -1.
         11    1    4    4    0    0 -0.72036971045E+02  0.10958825461E+02 -0.51576687239E+02  0.89272480191E+02  0.00000000000E+00 0.  1.
</event>
<event>
 8    1  0.4798744E-006  0.1177806E+03  0.7561462E-02  0.1246804E+00
          3   -1    0    0  501    0  0.00000000000E+00  0.00000000000E+00  0.27292578023E+03  0.27292578023E+03  0.00000000000E+00 0. -1.
         -3   -1    0    0    0  501 -0.00000000000E+00 -0.00000000000E+00 -0.56741743360E+02  0.56741743360E+02  0.00000000000E+00 0.  1.
         23    2    1    2    0    0  0.47417814904E+02  0.31327318524E+02  0.10024190394E+03  0.17007418391E+03  0.12508772390E+03 0.  0.
         23    2    1    2    0    0 -0.47417814904E+02 -0.31327318524E+02  0.11594213293E+03  0.15959333968E+03  0.93795553339E+02 0.  0.
          5    1    3    3  502    0  0.15132321633E+02 -0.48608374374E+02  0.36891806094E+02  0.63009832361E+02  0.41800000000E+01 0. -1.
         -5    1    3    3    0  502  0.32285493271E+02  0.79935692898E+02  0.63350097847E+02  0.10706435155E+03  0.41800000000E+01 0. -1.
        -11    1    4    4    0    0 -0.13279294557E+02 -0.55030061248E+02  0.10032741224E+03  0.11519651450E+03  0.00000000000E+00 0. -1.
         11    1    4    4    0    0 -0.34138520347E+02  0.23702742724E+02  0.15614720681E+02  0.44396825180E+02  0.00000000000E+00 0.  1.
</event>
<event>
 8    1  0.4798744E-006  0.1290660E+03  0.7561462E-02  0.1228848E+00
         -1   -1    0    0    0  501 -0.00000000000E+00  0.00000000000E+00  0.34568950864E+02  0.34568950864E+02  0.00000000000E+00 0.  1.
          1   -1    0    0  501    0  0.00000000000E+00 -0.00000000000E+00 -0.71690031883E+03  0.71690031883E+03  0.00000000000E+00 0. -1.
         23    2    1    2    0    0  0.51350789548E+02  0.56779051062E+02 -0.16521049493E+03  0.22091364547E+03  0.12509023500E+03 0.  0.
         23    2    1    2    0    0 -0.51350789548E+02 -0.56779051062E+02 -0.51712087304E+03  0.53055562423E+03  0.90633927637E+02 0.  0.
          5    1    3    3  502    0 -0.29837511510E+02  0.56090043130E+02 -0.56197544592E+02  0.84923532955E+02  0.41800000000E+01 0.  1.
         -5    1    3    3    0  502  0.81188301057E+02  0.68900793259E+00 -0.10901295034E+03  0.13599011252E+03  0.41800000000E+01 0.  1.
        -11    1    4    4    0    0 -0.87270954658E+01  0.21958565783E+02 -0.55317272817E+02  0.60152651467E+02  0.00000000000E+00 0. -1.
         11    1    4    4    0    0 -0.42623694082E+02 -0.78737616845E+02 -0.46180360022E+03  0.47040297276E+03  0.00000000000E+00 0.  1.
</event>
<event>
 8    1  0.4798744E-006  0.1073314E+03  0.7561462E-02  0.1265593E+00
         -1   -1    0    0    0  501 -0.00000000000E+00  0.00000000000E+00  0.33475581419E+03  0.33475581419E+03  0.00000000000E+00 0.  1.
          1   -1    0    0  501    0  0.00000000000E+00 -0.00000000000E+00 -0.92180194877E+02  0.92180194877E+02  0.00000000000E+00 0. -1.
         23    2    1    2    0    0 -0.20593304011E+02  0.79823445276E+02  0.26237173738E+03  0.30213034605E+03  0.12509176969E+03 0.  0.
         23    2    1    2    0    0  0.20593304011E+02 -0.79823445276E+02 -0.19796118074E+02  0.12480566301E+03  0.91589850105E+02 0.  0.
          5    1    3    3  502    0 -0.20912378369E+02 -0.20968376669E+02  0.12046306890E+02  0.32242616192E+02  0.41800000000E+01 0.  1.
         -5    1    3    3    0  502  0.31907435837E+00  0.10079182195E+03  0.25032543049E+03  0.26988772986E+03  0.41800000000E+01 0.  1.
        -11    1    4    4    0    0  0.18919406415E+02 -0.42566505897E+02 -0.55991431974E+02  0.72834688287E+02  0.00000000000E+00 0. -1.
         11    1    4    4    0    0  0.16738975956E+01 -0.37256939379E+02  0.36195313901E+02  0.51970974721E+02  0.00000000000E+00 0.  1.
</event>
<event>
 8    1  0.4798744E-006  0.1698623E+03  0.7561462E-02  0.1177992E+00
         -1   -1    0    0    0  501 -0.00000000000E+00  0.00000000000E+00  0.43177958195E+02  0.43177958195E+02  0.00000000000E+00 0.  1.
          1   -1    0    0  501    0  0.00000000000E+00 -0.00000000000E+00 -0.78166882646E+03  0.78166882646E+03  0.00000000000E+00 0. -1.
         23    2    1    2    0    0 -0.29142519513E+02  0.13223868509E+03 -0.25293048114E+03  0.31298139346E+03  0.12508864091E+03 0.  0.
         23    2    1    2    0    0  0.29142519513E+02 -0.13223868509E+03 -0.48556038713E+03  0.51186539120E+03  0.88887191883E+02 0.  0.
          5    1    3    3  502    0 -0.49237063704E+02  0.14782643454E+03 -0.23333175783E+03  0.28060314467E+03  0.41800000000E+01 0. -1.
         -5    1    3    3    0  502  0.20094544191E+02 -0.15587749448E+02 -0.19598723318E+02  0.32378248791E+02  0.41800000000E+01 0. -1.
        -11    1    4    4    0    0 -0.27584065595E+02 -0.61558338267E+02 -0.26409158320E+03  0.27257049364E+03  0.00000000000E+00 0.  1.
         11    1    4    4    0    0  0.56726585108E+02 -0.70680346822E+02 -0.22146880392E+03  0.23929489756E+03  0.00000000000E+00 0. -1.
</event>
<event>
 8    1  0.4798744E-006  0.1738970E+03  0.7561462E-02  0.1173844E+00
          3   -1    0    0  501    0  0.00000000000E+00  0.00000000000E+00  0.76877447765E+02  0.76877447765E+02  0.00000000000E+00 0. -1.
         -3   -1    0    0    0  501 -0.00000000000E+00 -0.00000000000E+00 -0.52094891036E+03  0.52094891036E+03  0.00000000000E+00 0.  1.
         23    2    1    2    0    0  0.14457080956E+03 -0.81851654695E+02 -0.29742140255E+03  0.36291552078E+03  0.12509105553E+03 0.  0.
         23    2    1    2    0    0 -0.14457080956E+03  0.81851654695E+02 -0.14665006004E+03  0.23491083734E+03  0.77951581366E+02 0.  0.
          5    1    3    3  502    0  0.78070695867E+02 -0.23821989075E+02 -0.40480974174E+02  0.91206920717E+02  0.41800000000E+01 0. -1.
         -5    1    3    3    0  502  0.66500113694E+02 -0.58029665620E+02 -0.25694042838E+03  0.27170860006E+03  0.41800000000E+01 0. -1.
        -11    1    4    4    0    0 -0.62791582874E+02  0.11373547107E+01 -0.25056708449E+02  0.67615938165E+02  0.00000000000E+00 0. -1.
         11    1    4    4    0    0 -0.81779226686E+02  0.80714299984E+02 -0.12159335159E+03  0.16729489918E+03  0.00000000000E+00 0.  1.
</event>
<event>
 8    1  0.4798744E-006  0.1176571E+03  0.7561462E-02  0.1247013E+00
          1   -1    0    0  501    0  0.00000000000E+00  0.00000000000E+00  0.40713342135E+02  0.40713342135E+02  0.00000000000E+00 0. -1.
         -1   -1    0    0    0  501 -0.00000000000E+00 -0.00000000000E+00 -0.59916029340E+03  0.59916029340E+03  0.00000000000E+00 0.  1.
         23    2    1    2    0    0 -0.87350343581E+02 -0.61449382393E+02 -0.38230092653E+03  0.41617545011E+03  0.12506757267E+03 0.  0.
         23    2    1    2    0    0  0.87350343581E+02  0.61449382393E+02 -0.17614602473E+03  0.22369818542E+03  0.87220106677E+02 0.  0.
          5    1    3    3  502    0 -0.34199044462E+02 -0.25169082278E+02 -0.33108596621E+03  0.33382397572E+03  0.41800000000E+01 0. -1.
         -5    1    3    3    0  502 -0.53151299119E+02 -0.36280300116E+02 -0.51214960317E+02  0.82351474393E+02  0.41800000000E+01 0. -1.
        -11    1    4    4    0    0  0.37774075539E+02  0.68359959165E+02 -0.64312255591E+02  0.10117327226E+03  0.00000000000E+00 0. -1.
         11    1    4    4    0    0  0.49576268042E+02 -0.69105767712E+01 -0.11183376914E+03  0.12252491316E+03  0.00000000000E+00 0.  1.
</event>
<event>
 7    1  0.4798744E-006  0.1183931E+03  0.7561462E-02  0.1245772E+00
         -1   -1    0    0    0  501 -0.00000000000E+00  0.00000000000E+00  0.27317556699E+03  0.27317556699E+03  0.00000000000E+00 0.  1.
          1   -1    0    0  501    0  0.00000000000E+00 -0.00000000000E+00 -0.13437681913E+03  0.13437681913E+03  0.00000000000E+00 0. -1.
         23    2    1    2    0    0 -0.77678985313E+01 -0.45844459881E+02 -0.85301557715E+02  0.14215010467E+03  0.10377013905E+03 0.  0.
          5    1    1    2  502    0 -0.24050019406E+02 -0.33266063355E+02  0.13846449433E+03  0.14448156628E+03  0.41800000000E+01 0. -1.
         -5    1    1    2    0  502  0.31817917937E+02  0.79110523236E+02  0.85635811246E+02  0.12092071517E+03  0.41800000000E+01 0.  1.
        -11    1    3    3    0    0  0.13171981021E+02  0.29311166585E+02 -0.42120906685E+02  0.52979395529E+02  0.00000000000E+00 0.  1.
         11    1    3    3    0    0 -0.20939879552E+02 -0.75155626466E+02 -0.43180651029E+02  0.89170709140E+02  0.00000000000E+00 0. -1.
</event>
<event>
 8    1  0.4798744E-006  0.1152169E+03  0.7561462E-02  0.1251203E+00
          1   -1    0    0  501    0  0.00000000000E+00  0.00000000000E+00  0.65283000776E+02  0.65283000776E+02  0.00000000000E+00 0. -1.
         -1   -1    0    0    0  501 -0.00000000000E+00 -0.00000000000E+00 -0.35405154898E+03  0.35405154898E+03  0.00000000000E+00 0.  1.
         23    2    1    2    0    0 -0.47047615373E+01 -0.55352027495E+02 -0.28163862589E+03  0.31313472550E+03  0.12508820486E+03 0.  0.
         23    2    1    2    0    0  0.47047615373E+01  0.55352027495E+02 -0.71299223188E+01  0.10619982426E+03  0.90230732850E+02 0.  0.
          5    1    3    3  502    0  0.59571773890E+02 -0.24206062674E+02 -0.15129168443E+03  0.16444262188E+03  0.41800000000E+01 0. -1.
         -5    1    3    3    0  502 -0.64276535427E+02 -0.31145964820E+02 -0.13034694146E+03  0.14869210362E+03  0.41800000000E+01 0. -1.
        -11    1    4    4    0    0 -0.32817393295E+02  0.44682494062E+02  0.19721063994E+02  0.58842390700E+02  0.00000000000E+00 0. -1.
         11    1    4    4    0    0  0.37522154832E+02  0.10669533433E+02 -0.26850986313E+02  0.47357433555E+02  0.00000000000E+00 0.  1.
</event>
<event>
 8    1  0.4798744E-006  0.1045283E+03  0.7561462E-02  0.1271052E+00
         -1   -1    0    0    0  501 -0.00000000000E+00  0.00000000000E+00  0.66959824779E+02  0.66959824779E+02  0.00000000000E+00 0.  1.
          1   -1    0    0  501    0  0.00000000000E+00 -0.00000000000E+00 -0.37533705418E+03  0.37533705418E+03  0.00000000000E+00 0. -1.
         23    2    1    2    0    0 -0.18273659293E+02  0.92261950647E+02 -0.73066003636E+02  0.17270604147E+03  0.12507014717E+03 0.  0.
         23    2    1    2    0    0  0.18273659293E+02 -0.92261950647E+02 -0.23531122576E+03  0.26959083748E+03  0.91987241095E+02 0.  0.
          5    1    3    3  502    0 -0.13470702982E+02 -0.42054688244E+00 -0.78392686385E+02  0.79652510175E+02  0.41800000000E+01 0. -1.
         -5    1    3    3    0  502 -0.48029563110E+01  0.92682497529E+02  0.53266827497E+01  0.93053531296E+02  0.41800000000E+01 0. -1.
        -11    1    4    4    0    0  0.30936661885E+02 -0.65549222344E+02 -0.67007597583E+02  0.98710666760E+02  0.00000000000E+00 0.  1.
         11    1    4    4    0    0 -0.12663002591E+02 -0.26712728303E+02 -0.16830362818E+03  0.17088017072E+03  0.00000000000E+00 0. -1.
</event>
<event>
 8    1  0.4798744E-006  0.1120497E+03  0.7561462E-02  0.1256821E+00
         -1   -1    0    0    0  501 -0.00000000000E+00  0.00000000000E+00  0.10955723025E+03  0.10955723025E+03  0.00000000000E+00 0.  1.
          1   -1    0    0  501    0  0.00000000000E+00 -0.00000000000E+00 -0.12909600582E+03  0.12909600582E+03  0.00000000000E+00 0. -1.
         23    2    1    2    0    0  0.28209612623E+02  0.32640187099E+02  0.51740359448E+01  0.13241095809E+03  0.12507888357E+03 0.  0.
         23    2    1    2    0    0 -0.28209612623E+02 -0.32640187099E+02 -0.24712811523E+02  0.10624227798E+03  0.93891077953E+02 0.  0.
          5    1    3    3  502    0 -0.19245523184E+02 -0.33965902852E+02 -0.23367874098E+02  0.45690290643E+02  0.41800000000E+01 0. -1.
         -5    1    3    3    0  502  0.47455135807E+02  0.66606089951E+02  0.28541910042E+02  0.86720667444E+02  0.41800000000E+01 0. -1.
        -11    1    4    4    0    0 -0.43538676195E+02  0.20151170519E+02 -0.16066077528E+02  0.50594513984E+02  0.00000000000E+00 0.  1.
         11    1    4    4    0    0  0.15329063573E+02 -0.52791357618E+02 -0.86467339951E+01  0.55647763998E+02  0.00000000000E+00 0. -1.
</event>
<event>
 8    1  0.4798744E-006  0.1124702E+03  0.7561462E-02  0.1256063E+00
         -2   -1    0    0    0  501 -0.00000000000E+00  0.00000000000E+00  0.17951531028E+02  0.17951531028E+02  0.00000000000E+00 0.  1.
          2   -1    0    0  501    0  0.00000000000E+00 -0.00000000000E+00 -0.83108404395E+03  0.83108404395E+03  0.00000000000E+00 0. -1.
         23    2    1    2    0    0  0.52983766549E+02  0.14830627868E+02 -0.51895907815E+03  0.53665066231E+03  0.12509269173E+03 0.  0.
         23    2    1    2    0    0 -0.52983766549E+02 -0.14830627868E+02 -0.29417343477E+03  0.31238491267E+03  0.89549410361E+02 0.  0.
          5    1    3    3  502    0 -0.64768853473E+01  0.50041811617E+02 -0.10082567380E+03  0.11282473953E+03  0.41800000000E+01 0. -1.
         -5    1    3    3    0  502  0.59460651896E+02 -0.35211183749E+02 -0.41813340436E+03  0.42382592278E+03  0.41800000000E+01 0. -1.
        -11    1    4    4    0    0 -0.77563933332E+02 -0.19684886922E+02 -0.22682390778E+03  0.24052597296E+03  0.00000000000E+00 0.  1.
         11    1    4    4    0    0  0.24580166783E+02  0.48542590545E+01 -0.67349526997E+02  0.71858939713E+02  0.00000000000E+00 0. -1.
</event>
<event>
 8    1  0.4798744E-006  0.1945706E+03  0.7561462E-02  0.1154402E+00
          2   -1    0    0  501    0  0.00000000000E+00  0.00000000000E+00  0.46089090840E+03  0.46089090840E+03  0.00000000000E+00 0. -1.
         -2   -1    0    0    0  501 -0.00000000000E+00 -0.00000000000E+00 -0.12342072548E+03  0.12342072548E+03  0.00000000000E+00 0.  1.
         23    2    1    2    0    0  0.13596520707E+03  0.11326828745E+03  0.30420125701E+02  0.21883477314E+03  0.12508809460E+03 0.  0.
         23    2    1    2    0    0 -0.13596520707E+03 -0.11326828745E+03  0.30705005722E+03  0.36547686074E+03  0.89316043490E+02 0.  0.
          5    1    3    3  502    0  0.14482439002E+03  0.12803382617E+03  0.41745416199E+02  0.19780524958E+03  0.41800000000E+01 0. -1.
         -5    1    3    3    0  502 -0.88591829515E+01 -0.14765538718E+02 -0.11325290499E+02  0.21029523558E+02  0.41800000000E+01 0. -1.
        -11    1    4    4    0    0 -0.94970336412E+02 -0.90465607605E+02  0.28481314431E+03  0.31356326017E+03  0.00000000000E+00 0. -1.
         11    1    4    4    0    0 -0.40994870657E+02 -0.22802679843E+02  0.22236912904E+02  0.51913600566E+02  0.00000000000E+00 0.  1.
</event>
<event>
 8    1  0.4798744E-006  0.1095501E+03  0.7561462E-02  0.1261405E+00
         -2   -1    0    0    0  501 -0.00000000000E+00  0.00000000000E+00  0.23512636279E+02  0.23512636279E+02  0.00000000000E+00 0.  1.
          2   -1    0    0  501    0  0.00000000000E+00 -0.00000000000E+00 -0.61375780172E+03  0.61375780172E+03  0.00000000000E+00 0. -1.
         23    2    1    2    0    0 -0.13681308980E+02  0.35715063915E+02 -0.24558343205E+03  0.27824541594E+03  0.12508615185E+03 0.  0.
         23    2    1    2    0    0  0.13681308980E+02 -0.35715063915E+02 -0.34466173338E+03  0.35902502206E+03  0.92975867836E+02 0.  0.
          5    1    3    3  502    0 -0.70159052098E+01  0.82011601996E+02 -0.17542734157E+03  0.19382298717E+03  0.41800000000E+01 0. -1.
         -5    1    3    3    0  502 -0.66654037698E+01 -0.46296538081E+02 -0.70156090485E+02  0.84422428761E+02  0.41800000000E+01 0. -1.
        -11    1    4    4    0    0 -0.19923911551E-01  0.26255504798E+02 -0.40171379517E+02  0.47990537207E+02  0.00000000000E+00 0.  1.
         11    1    4    4    0    0  0.13701232891E+02 -0.61970568712E+02 -0.30449035387E+03  0.31103448485E+03  0.00000000000E+00 0. -1.
</event>
<event>
 7    1  0.4798744E-006  0.5884362E+03  0.7561462E-02  0.9929692E-01
          2   -1    0    0  501    0  0.00000000000E+00  0.00000000000E+00  0.23075550848E+04  0.23075550848E+04  0.00000000000E+00 0. -1.
         -2   -1    0    0    0  501 -0.00000000000E+00 -0.00000000000E+00 -0.26134555021E+03  0.26134555021E+03  0.00000000000E+00 0.  1.
         23    2    1    2    0    0 -0.22996759532E+03 -0.22475811944E+03  0.79380515400E+03  0.86126070133E+03  0.90785824803E+02 0.  0.
          5    1    1    2  502    0 -0.16975776499E+03  0.38296202402E+03  0.12042531184E+04  0.12750375116E+04  0.41800000000E+01 0. -1.
         -5    1    1    2    0  502  0.39972536031E+03 -0.15820390458E+03  0.48151262229E+02  0.43260242204E+03  0.41800000000E+01 0.  1.
        -11    1    3    3    0    0 -0.97639312275E+01 -0.38207326067E+02  0.16087159428E+03  0.16563454943E+03  0.00000000000E+00 0. -1.
         11    1    3    3    0    0 -0.22020366409E+03 -0.18655079337E+03  0.63293355972E+03  0.69562615190E+03  0.00000000000E+00 0.  1.
</event>
<event>
 8    1  0.4798744E-006  0.1477982E+03  0.7561462E-02  0.1203205E+00
         -1   -1    0    0    0  501 -0.00000000000E+00  0.00000000000E+00  0.54009039264E+02  0.54009039264E+02  0.00000000000E+00 0.  1.
          1   -1    0    0  501    0  0.00000000000E+00 -0.00000000000E+00 -0.45782569973E+03  0.45782569973E+03  0.00000000000E+00 0. -1.
         23    2    1    2    0    0 -0.34609515928E+02 -0.95129932919E+02 -0.13398121670E+03  0.20939682343E+03  0.12509412658E+03 0.  0.
         23    2    1    2    0    0  0.34609515928E+02  0.95129932919E+02 -0.26983544377E+03  0.30243791557E+03  0.91706070298E+02 0.  0.
          5    1    3    3  502    0 -0.10723971523E+02  0.29971021452E+02 -0.38705632858E+02  0.50287812709E+02  0.41800000000E+01 0.  1.
         -5    1    3    3    0  502 -0.23885544405E+02 -0.12510095437E+03 -0.95275583845E+02  0.15910901072E+03  0.41800000000E+01 0.  1.
        -11    1    4    4    0    0 -0.30696066556E+02  0.41132326069E+02 -0.11495385435E+03  0.12589084708E+03  0.00000000000E+00 0. -1.
         11    1    4    4    0    0  0.65305582484E+02  0.53997606850E+02 -0.15488158942E+03  0.17654706848E+03  0.00000000000E+00 0.  1.
</event>
<event>
 8    1  0.4798744E-006  0.1077940E+03  0.7561462E-02  0.1264711E+00
          1   -1    0    0  501    0  0.00000000000E+00  0.00000000000E+00  0.20242910615E+02  0.20242910615E+02  0.00000000000E+00 0. -1.
         -1   -1    0    0    0  501 -0.00000000000E+00 -0.00000000000E+00 -0.68837301299E+03  0.68837301299E+03  0.00000000000E+00 0.  1.
         23    2    1    2    0    0  0.22873353471E+02  0.14962363384E+02 -0.48674322498E+03  0.50330208181E+03  0.12508779266E+03 0.  0.
         23    2    1    2    0    0 -0.22873353471E+02 -0.14962363384E+02 -0.18138687739E+03  0.20531384179E+03  0.92225331253E+02 0.  0.
          5    1    3    3  502    0  0.64516870144E+02  0.42922947593E+02 -0.28533175454E+03  0.29569661566E+03  0.41800000000E+01 0.  1.
         -5    1    3    3    0  502 -0.41643516673E+02 -0.27960584209E+02 -0.20141147045E+03  0.20760546615E+03  0.41800000000E+01 0.  1.
        -11    1    4    4    0    0 -0.24713226233E+02  0.32123293997E+02 -0.12721534857E+03  0.13351552150E+03  0.00000000000E+00 0.  1.
         11    1    4    4    0    0  0.18398727622E+01 -0.47085657381E+02 -0.54171528819E+02  0.71798320297E+02  0.00000000000E+00 0. -1.
</event>
<event>
 8    1  0.4798744E-006  0.7476105E+02  0.7561462E-02  0.1344613E+00
         -1   -1    0    0    0  501 -0.00000000000E+00  0.00000000000E+00  0.15914357725E+03  0.15914357725E+03  0.00000000000E+00 0. -1.
          1   -1    0    0  501    0  0.00000000000E+00 -0.00000000000E+00 -0.85571065792E+02  0.85571065792E+02  0.00000000000E+00 0.  1.
         23    2    1    2    0    0 -0.56324951574E+01  0.36209766691E+02  0.68543974792E+02  0.14728071995E+03  0.12510180567E+03 0.  0.
         23    2    1    2    0    0  0.56324951574E+01 -0.36209766691E+02  0.50285366639E+01  0.97433923095E+02  0.90139952203E+02 0.  0.
          5    1    3    3  502    0 -0.12738809440E+02 -0.35710530061E+02 -0.11028028784E+02  0.39706536515E+02  0.41800000000E+01 0. -1.
         -5    1    3    3    0  502  0.71063142828E+01  0.71920296752E+02  0.79572003576E+02  0.10757418343E+03  0.41800000000E+01 0. -1.
        -11    1    4    4    0    0 -0.38464812052E+01 -0.18538969471E+02 -0.42130022856E+02  0.46189042343E+02  0.00000000000E+00 0.  1.
         11    1    4    4    0    0  0.94789763626E+01 -0.17670797220E+02  0.47158559520E+02  0.51244880752E+02  0.00000000000E+00 0. -1.
</event>
<event>
 8    1  0.4798744E-006  0.1137018E+03  0.7561462E-02  0.1253864E+00
         -2   -1    0    0    0  501 -0.00000000000E+00  0.00000000000E+00  0.13160224020E+03  0.13160224020E+03  0.00000000000E+00 0. -1.
          2   -1    0    0  501    0  0.00000000000E+00 -0.00000000000E+00 -0.10005752828E+03  0.10005752828E+03  0.00000000000E+00 0.  1.
         23    2    1    2    0    0 -0.36286905409E+02 -0.39231240041E+01  0.16370713753E+02  0.13133190537E+03  0.12509172113E+03 0.  0.
         23    2    1    2    0    0  0.36286905409E+02  0.39231240041E+01  0.15173998161E+02  0.10032786311E+03  0.92213336831E+02 0.  0.
          5    1    3    3  502    0  0.21723020497E+02 -0.49790469118E+02  0.17586217592E+02  0.57251444381E+02  0.41800000000E+01 0.  1.
         -5    1    3    3    0  502 -0.58009925906E+02  0.45867345114E+02 -0.12155038388E+01  0.74080460994E+02  0.41800000000E+01 0.  1.
        -11    1    4    4    0    0  0.24081306387E+02 -0.43586864984E+02  0.35914899195E+01  0.49926174661E+02  0.00000000000E+00 0.  1.
         11    1    4    4    0    0  0.12205599022E+02  0.47509988988E+02  0.11582508242E+02  0.50401688447E+02  0.00000000000E+00 0. -1.
</event>
<event>
 8    1  0.4798744E-006  0.8736533E+02  0.7561462E-02  0.1309360E+00
         -1   -1    0    0    0  501 -0.00000000000E+00  0.00000000000E+00  0.65657676466E+02  0.65657676466E+02  0.00000000000E+00 0.  1.
          1   -1    0    0  501    0  0.00000000000E+00 -0.00000000000E+00 -0.17724282141E+03  0.17724282141E+03  0.00000000000E+00 0. -1.
         23    2    1    2    0    0 -0.15580236142E+02  0.22186932467E+02 -0.56292490622E+02  0.13226483343E+03  0.11657674696E+03 0.  0.
         23    2    1    2    0    0  0.15580236142E+02 -0.22186932467E+02 -0.55292654326E+02  0.11063566445E+03  0.91912833138E+02 0.  0.
          5    1    3    3  502    0 -0.42622528803E+02  0.59563216801E+02 -0.33986802595E+02  0.80851913446E+02  0.41800000000E+01 0. -1.
         -5    1    3    3    0  502  0.27042292661E+02 -0.37376284334E+02 -0.22305688027E+02  0.51412919984E+02  0.41800000000E+01 0.  1.
        -11    1    4    4    0    0  0.32963093714E+02 -0.15448823465E+02 -0.75085623740E+02  0.83445087250E+02  0.00000000000E+00 0.  1.
         11    1    4    4    0    0 -0.17382857572E+02 -0.67381090017E+01  0.19792969414E+02  0.27190577201E+02  0.00000000000E+00 0. -1.
</event>
<event>
 8    1  0.4798744E-006  0.1102560E+03  0.7561462E-02  0.1260097E+00
         -2   -1    0    0    0  501 -0.00000000000E+00  0.00000000000E+00  0.18380264198E+03  0.18380264198E+03  0.00000000000E+00 0.  1.
          2   -1    0    0  501    0  0.00000000000E+00 -0.00000000000E+00 -0.84486217657E+02  0.84486217657E+02  0.00000000000E+00 0. -1.
         23    2    1    2    0    0 -0.53238099467E+02  0.10267286412E+02  0.82414372593E+02  0.15931007024E+03  0.12509139565E+03 0.  0.
         23    2    1    2    0    0  0.53238099467E+02 -0.10267286412E+02  0.16902051731E+02  0.10897878939E+03  0.93010670247E+02 0.  0.
          5    1    3    3  502    0 -0.85875187030E+02  0.36080171483E+02  0.46537086326E+02  0.10420892152E+03  0.41800000000E+01 0.  1.
         -5    1    3    3    0  502  0.32637087563E+02 -0.25812885071E+02  0.35877286268E+02  0.55101148719E+02  0.41800000000E+01 0.  1.
        -11    1    4    4    0    0 -0.24313722952E+00 -0.28836641569E+02  0.38744064605E+02  0.48298173411E+02  0.00000000000E+00 0.  1.
         11    1    4    4    0    0  0.53481236697E+02  0.18569355157E+02 -0.21842012874E+02  0.60680615982E+02  0.00000000000E+00 0. -1.
</event>
<event>
 8    1  0.4798744E-006  0.1271202E+03  0.7561462E-02  0.1231792E+00
         -1   -1    0    0    0  501 -0.00000000000E+00  0.00000000000E+00  0.16616960334E+02  0.16616960334E+02  0.00000000000E+00 0.  1.
          1   -1    0    0  501    0  0.00000000000E+00 -0.00000000000E+00 -0.12184924357E+04  0.12184924357E+04  0.00000000000E+00 0. -1.
         23    2    1    2    0    0 -0.69044870402E+02 -0.61594998867E+02 -0.61225037744E+03  0.63171093818E+03  0.12508815582E+03 0.  0.
         23    2    1    2    0    0  0.69044870402E+02  0.61594998867E+02 -0.58962509792E+03  0.60339845785E+03  0.88717556446E+02 0.  0.
          5    1    3    3  502    0  0.21141077387E+02 -0.26201611555E+02 -0.35785980263E+03  0.35946429634E+03  0.41800000000E+01 0. -1.
         -5    1    3    3    0  502 -0.90185947790E+02 -0.35393387311E+02 -0.25439057481E+03  0.27224664184E+03  0.41800000000E+01 0. -1.
        -11    1    4    4    0    0  0.38400259730E+01  0.57906049858E+02 -0.19668368041E+03  0.20506663929E+03  0.00000000000E+00 0. -1.
         11    1    4    4    0    0  0.65204844429E+02  0.36889490092E+01 -0.39294141751E+03  0.39833181856E+03  0.00000000000E+00 0.  1.
</event>
<event>
 8    1  0.4798744E-006  0.1879754E+03  0.7561462E-02  0.1160300E+00
          2   -1    0    0  501    0  0.00000000000E+00  0.00000000000E+00  0.33335595416E+03  0.33335595416E+03  0.00000000000E+00 0. -1.
         -2   -1    0    0    0  501 -0.00000000000E+00 -0.00000000000E+00 -0.13977244144E+03  0.13977244144E+03  0.00000000000E+00 0.  1.
         23    2    1    2    0    0 -0.67472075756E+02 -0.15815841856E+03  0.22142409261E+02  0.21378495476E+03  0.12508858552E+03 0.  0.
         23    2    1    2    0    0  0.67472075756E+02  0.15815841856E+03  0.17144110346E+03  0.25934344084E+03  0.91106541924E+02 0.  0.
          5    1    3    3  502    0 -0.31458855604E+02 -0.13941870093E+03  0.62808105216E+02  0.15617158591E+03  0.41800000000E+01 0. -1.
         -5    1    3    3    0  502 -0.36013220152E+02 -0.18739717625E+02 -0.40665695956E+02  0.57613368848E+02  0.41800000000E+01 0. -1.
        -11    1    4    4    0    0  0.85787194562E+02  0.10306622207E+03  0.13764067998E+03  0.19216411129E+03  0.00000000000E+00 0. -1.
         11    1    4    4    0    0 -0.18315118806E+02  0.55092196489E+02  0.33800423480E+02  0.67179329546E+02  0.00000000000E+00 0.  1.
</event>
<event>
 8    1  0.4798744E-006  0.1133746E+03  0.7561462E-02  0.1254445E+00
         -1   -1    0    0    0  501 -0.00000000000E+00  0.00000000000E+00  0.63353491912E+03  0.63353491912E+03  0.00000000000E+00 0.  1.
          1   -1    0    0  501    0  0.00000000000E+00 -0.00000000000E+00 -0.34047286429E+02  0.34047286429E+02  0.00000000000E+00 0. -1.
         23    2    1    2    0    0  0.58600072011E+02 -0.36536051159E+02  0.47096377069E+03  0.49216258675E+03  0.12509311340E+03 0.  0.
         23    2    1    2    0    0 -0.58600072011E+02  0.36536051159E+02  0.12852386200E+03  0.17541961880E+03  0.97389979370E+02 0.  0.
          5    1    3    3  502    0  0.71114501116E+02 -0.65148252478E+02  0.23425756309E+03  0.25336859579E+03  0.41800000000E+01 0. -1.
         -5    1    3    3    0  502 -0.12514429105E+02  0.28612201319E+02  0.23670620760E+03  0.23879399096E+03  0.41800000000E+01 0. -1.
        -11    1    4    4    0    0 -0.28068273124E+02 -0.19991596393E+02  0.98787672776E+02  0.10462550442E+03  0.00000000000E+00 0.  1.
         11    1    4    4    0    0 -0.30531798887E+02  0.56527647552E+02  0.29736189224E+02  0.70794114378E+02  0.00000000000E+00 0. -1.
</event>
<event>
 8    1  0.1201134E-005  0.2181949E+03  0.7561462E-02  0.1135236E+00
         -2   -1    0    0    0  501 -0.00000000000E+00  0.00000000000E+00  0.42052865472E+03  0.42052865472E+03  0.00000000000E+00 0.  1.
          2   -1    0    0  501    0  0.00000000000E+00 -0.00000000000E+00 -0.14747620696E+03  0.14747620696E+03  0.00000000000E+00 0. -1.
         23    2    1    2    0    0 -0.20836485445E+03  0.14091425780E+02  0.23220640355E+03  0.33642459261E+03  0.12508881568E+03 0.  0.
         23    2    1    2    0    0  0.20836485445E+03 -0.14091425780E+02  0.40846044214E+02  0.23158026907E+03  0.91359404790E+02 0.  0.
          5    1    3    3  502    0 -0.13234178031E+03  0.51363330127E+02  0.82123701260E+02  0.16405582345E+03  0.41800000000E+01 0.  1.
         -5    1    3    3    0  502 -0.76023074142E+02 -0.37271904347E+02  0.15008270229E+03  0.17236876916E+03  0.41800000000E+01 0.  1.
        -11    1    4    4    0    0  0.80734636346E+02  0.32171930314E+01  0.60966954185E+02  0.10121956994E+03  0.00000000000E+00 0.  1.
         11    1    4    4    0    0  0.12763021811E+03 -0.17308618812E+02 -0.20120909971E+02  0.13036069913E+03  0.00000000000E+00 0. -1.
</event>
<event>
 8    1  0.4798744E-006  0.1013231E+03  0.7561462E-02  0.1277538E+00
          2   -1    0    0  501    0  0.00000000000E+00  0.00000000000E+00  0.51772197978E+03  0.51772197978E+03  0.00000000000E+00 0. -1.
         -2   -1    0    0    0  501 -0.00000000000E+00 -0.00000000000E+00 -0.22557908356E+02  0.22557908356E+02  0.00000000000E+00 0.  1.
         23    2    1    2    0    0  0.32395903700E+01 -0.45343824279E+01  0.29194647500E+03  0.31766533642E+03  0.12508983223E+03 0.  0.
         23    2    1    2    0    0 -0.32395903700E+01  0.45343824279E+01  0.20321759642E+03  0.22261455172E+03  0.90712686936E+02 0.  0.
          5    1    3    3  502    0  0.32317065775E+02  0.50907385933E+02  0.11487852222E+03  0.12980948328E+03  0.41800000000E+01 0.  1.
         -5    1    3    3    0  502 -0.29077475405E+02 -0.55441768361E+02  0.17706795279E+03  0.18785585314E+03  0.41800000000E+01 0.  1.
        -11    1    4    4    0    0  0.14404473808E+00  0.41920143286E+02  0.15985749840E+03  0.16526263630E+03  0.00000000000E+00 0. -1.
         11    1    4    4    0    0 -0.33836351081E+01 -0.37385760858E+02  0.43360098015E+02  0.57351915412E+02  0.00000000000E+00 0.  1.
</event>
<event>
 8    1  0.4798744E-006  0.1243881E+03  0.7561462E-02  0.1236029E+00
          2   -1    0    0  501    0  0.00000000000E+00  0.00000000000E+00  0.13304777341E+03  0.13304777341E+03  0.00000000000E+00 0. -1.
         -2   -1    0    0    0  501 -0.00000000000E+00 -0.00000000000E+00 -0.19113179055E+03  0.19113179055E+03  0.00000000000E+00 0.  1.
         23    2    1    2    0    0 -0.29766777130E+02  0.99178594938E+02 -0.85264323870E+02  0.18341228273E+03  0.12509039058E+03 0.  0.
         23    2    1    2    0    0  0.29766777130E+02 -0.99178594938E+02  0.27180306728E+02  0.14076728123E+03  0.91401333017E+02 0.  0.
          5    1    3    3  502    0  0.61744886987E+01  0.48987040986E+02  0.26106490837E+02  0.56007818731E+02  0.41800000000E+01 0. -1.
         -5    1    3    3    0  502 -0.35941265828E+02  0.50191553953E+02 -0.11137081471E+03  0.12740446400E+03  0.41800000000E+01 0. -1.
        -11    1    4    4    0    0 -0.32119530215E+02 -0.43723501859E+02  0.35208101009E+01  0.54367314995E+02  0.00000000000E+00 0.  1.
         11    1    4    4    0    0  0.61886307345E+02 -0.55455093080E+02  0.23659496627E+02  0.86399966238E+02  0.00000000000E+00 0. -1.
</event>
<event>
 7    1  0.4798744E-006  0.1301962E+03  0.7561462E-02  0.1227165E+00
          2   -1    0    0  501    0  0.00000000000E+00  0.00000000000E+00  0.14209870501E+03  0.14209870501E+03  0.00000000000E+00 0. -1.
         -2   -1    0    0    0  501 -0.00000000000E+00 -0.00000000000E+00 -0.18541917097E+03  0.18541917097E+03  0.00000000000E+00 0.  1.
         23    2    1    2    0    0 -0.10356367302E+02  0.67780537262E+02 -0.79936596451E+01  0.11503748755E+03  0.92023200178E+02 0.  0.
          5    1    1    2  502    0 -0.61130831564E+02 -0.52577911657E+02  0.53891273002E+02  0.97072947147E+02  0.41800000000E+01 0. -1.
         -5    1    1    2    0  502  0.71487198866E+02 -0.15202625606E+02 -0.89218079313E+02  0.11540744128E+03  0.41800000000E+01 0.  1.
        -11    1    3    3    0    0 -0.41488191350E+02  0.13067330043E+02 -0.24548983451E+02  0.49946748888E+02  0.00000000000E+00 0.  1.
         11    1    3    3    0    0  0.31131824048E+02  0.54713207219E+02  0.16555323806E+02  0.65090738658E+02  0.00000000000E+00 0. -1.
</event>
<event>
 8    1  0.4798744E-006  0.2077387E+03  0.7561462E-02  0.1143369E+00
          2   -1    0    0  501    0  0.00000000000E+00  0.00000000000E+00  0.45854420946E+03  0.45854420946E+03  0.00000000000E+00 0. -1.
         -2   -1    0    0    0  501 -0.00000000000E+00 -0.00000000000E+00 -0.11900826396E+03  0.11900826396E+03  0.00000000000E+00 0.  1.
         23    2    1    2    0    0  0.19580599849E+03  0.44142040855E+01  0.94950176756E+02  0.25104542290E+03  0.12509514000E+03 0.  0.
         23    2    1    2    0    0 -0.19580599849E+03 -0.44142040855E+01  0.24458576875E+03  0.32650705052E+03  0.91788787570E+02 0.  0.
          5    1    3    3  502    0  0.57252587912E+02  0.29965336892E+02  0.88873891225E+02  0.10996281726E+03  0.41800000000E+01 0. -1.
         -5    1    3    3    0  502  0.13855341057E+03 -0.25551132807E+02  0.60762855307E+01  0.14108260564E+03  0.41800000000E+01 0. -1.
        -11    1    4    4    0    0 -0.17480702107E+02  0.23484151236E+02  0.67834548947E+02  0.73882381772E+02  0.00000000000E+00 0. -1.
         11    1    4    4    0    0 -0.17832529638E+03 -0.27898355322E+02  0.17675121980E+03  0.25262466874E+03  0.00000000000E+00 0.  1.
</event>
<event>
 8    1  0.4798744E-006  0.1135890E+03  0.7561462E-02  0.1254064E+00
         -1   -1    0    0    0  501 -0.00000000000E+00  0.00000000000E+00  0.13692293977E+04  0.13692293977E+04  0.00000000000E+00 0.  1.
          1   -1    0    0  501    0  0.00000000000E+00 -0.00000000000E+00 -0.12035049504E+02  0.12035049504E+02  0.00000000000E+00 0. -1.
         23    2    1    2    0    0 -0.60686017214E+02 -0.16707349116E+02  0.88461160148E+03  0.89562794302E+03  0.12509915524E+03 0.  0.
         23    2    1    2    0    0  0.60686017214E+02  0.16707349116E+02  0.47258274674E+03  0.48563650421E+03  0.92446922640E+02 0.  0.
          5    1    3    3  502    0 -0.73392326692E+01  0.39122856068E+02  0.57907709924E+03  0.58045863028E+03  0.41800000000E+01 0. -1.
         -5    1    3    3    0  502 -0.53346784545E+02 -0.55830205183E+02  0.30553450224E+03  0.31516931274E+03  0.41800000000E+01 0. -1.
        -11    1    4    4    0    0 -0.99708706090E+01  0.35363723128E+02  0.20435668642E+03  0.20763349070E+03  0.00000000000E+00 0. -1.
         11    1    4    4    0    0  0.70656887823E+02 -0.18656374012E+02  0.26822606032E+03  0.27800301352E+03  0.00000000000E+00 0.  1.
</event>
<event>
 8    1  0.4798744E-006  0.1041093E+03  0.7561462E-02  0.1271885E+00
         -3   -1    0    0    0  501 -0.00000000000E+00  0.00000000000E+00  0.11425851445E+03  0.11425851445E+03  0.00000000000E+00 0.  1.
          3   -1    0    0  501    0  0.00000000000E+00 -0.00000000000E+00 -0.15080289652E+03  0.15080289652E+03  0.00000000000E+00 0. -1.
         23    2    1    2    0    0 -0.51472995876E+02 -0.50389390729E+02  0.24868847831E+00  0.14434384011E+03  0.12508605969E+03 0.  0.
         23    2    1    2    0    0  0.51472995876E+02  0.50389390729E+02 -0.36793070555E+02  0.12071757086E+03  0.89612732747E+02 0.  0.
          5    1    3    3  502    0  0.19241475104E+02 -0.61416289500E+02  0.24006991409E+02  0.68818624054E+02  0.41800000000E+01 0.  1.
         -5    1    3    3    0  502 -0.70714470980E+02  0.11026898771E+02 -0.23758302930E+02  0.75525216058E+02  0.41800000000E+01 0.  1.
        -11    1    4    4    0    0  0.25139310037E+02  0.24453468007E+02 -0.65245232022E+02  0.74073593867E+02  0.00000000000E+00 0. -1.
         11    1    4    4    0    0  0.26333685839E+02  0.25935922722E+02  0.28452161467E+02  0.46643976990E+02  0.00000000000E+00 0.  1.
</event>
<event>
 8    1  0.4798744E-006  0.8967611E+02  0.7561462E-02  0.1303638E+00
          1   -1    0    0  501    0  0.00000000000E+00  0.00000000000E+00  0.38983888322E+02  0.38983888322E+02  0.00000000000E+00 0. -1.
         -1   -1    0    0    0  501 -0.00000000000E+00 -0.00000000000E+00 -0.37403442044E+03  0.37403442044E+03  0.00000000000E+00 0.  1.
         23    2    1    2    0    0 -0.30457565276E+02  0.24719684708E+02 -0.24876353426E+03  0.28119614443E+03  0.12509696068E+03 0.  0.
         23    2    1    2    0    0  0.30457565276E+02 -0.24719684708E+02 -0.86286997865E+02  0.13182216434E+03  0.91612831607E+02 0.  0.
          5    1    3    3  502    0 -0.56917098771E+02  0.51483792767E+02 -0.91793381510E+02  0.11972315707E+03  0.41800000000E+01 0.  1.
         -5    1    3    3    0  502  0.26459533496E+02 -0.26764108058E+02 -0.15697015275E+03  0.16147298736E+03  0.41800000000E+01 0.  1.
        -11    1    4    4    0    0  0.44634692764E+01  0.15836157716E+02 -0.81804631306E+02  0.83442819657E+02  0.00000000000E+00 0.  1.
         11    1    4    4    0    0  0.25994095999E+02 -0.40555842424E+02 -0.44823665587E+01  0.48379344679E+02  0.00000000000E+00 0. -1.
</event>
<event>
 8    1  0.4798744E-006  0.1823635E+03  0.7561462E-02  0.1165535E+00
         -1   -1    0    0    0  501 -0.00000000000E+00  0.00000000000E+00  0.10798749084E+03  0.10798749084E+03  0.00000000000E+00 0.  1.
          1   -1    0    0  501    0  0.00000000000E+00 -0.00000000000E+00 -0.37825313962E+03  0.37825313962E+03  0.00000000000E+00 0. -1.
         23    2    1    2    0    0 -0.12870076516E+03  0.10523524707E+03 -0.99558447299E+02  0.23064549466E+03  0.12508843111E+03 0.  0.
         23    2    1    2    0    0  0.12870076516E+03 -0.10523524707E+03 -0.17070720147E+03  0.25559513580E+03  0.92463942333E+02 0.  0.
          5    1    3    3  502    0 -0.14267185157E+01  0.44669869791E+02  0.16694206675E+02  0.47891562194E+02  0.41800000000E+01 0. -1.
         -5    1    3    3    0  502 -0.12727404665E+03  0.60565377279E+02 -0.11625265397E+03  0.18275393246E+03  0.41800000000E+01 0. -1.
        -11    1    4    4    0    0  0.21956882984E+02  0.78520600751E+01  0.17432153006E+01  0.23383719922E+02  0.00000000000E+00 0.  1.
         11    1    4    4    0    0  0.10674388218E+03 -0.11308730715E+03 -0.17245041677E+03  0.23221141588E+03  0.00000000000E+00 0. -1.
</event>
<event>
 8    1  0.4798744E-006  0.1169134E+03  0.7561462E-02  0.1248278E+00
         -2   -1    0    0    0  501 -0.00000000000E+00  0.00000000000E+00  0.70068331258E+03  0.70068331258E+03  0.00000000000E+00 0.  1.
          2   -1    0    0  501    0  0.00000000000E+00 -0.00000000000E+00 -0.32503647745E+02  0.32503647745E+02  0.00000000000E+00 0. -1.
         23    2    1    2    0    0  0.26164678526E+02 -0.95237160920E+02  0.44679945620E+03  0.47437520684E+03  0.12508947033E+03 0.  0.
         23    2    1    2    0    0 -0.26164678526E+02  0.95237160920E+02  0.22138020863E+03  0.25881175348E+03  0.90662118558E+02 0.  0.
          5    1    3    3  502    0 -0.20486596993E+02 -0.10914781531E+02  0.28522643028E+03  0.28619996863E+03  0.41800000000E+01 0.  1.
         -5    1    3    3    0  502  0.46651275518E+02 -0.84322379390E+02  0.16157302592E+03  0.18817523822E+03  0.41800000000E+01 0.  1.
        -11    1    4    4    0    0 -0.40152208494E+02  0.90513063539E+02  0.22296466936E+03  0.24396323145E+03  0.00000000000E+00 0.  1.
         11    1    4    4    0    0  0.13987529968E+02  0.47240973815E+01 -0.15844607222E+01  0.14848522030E+02  0.00000000000E+00 0. -1.
</event>
<event>
 8    1  0.4798744E-006  0.1218135E+03  0.7561462E-02  0.1240135E+00
          1   -1    0    0  501    0  0.00000000000E+00  0.00000000000E+00  0.48898150651E+03  0.48898150651E+03  0.00000000000E+00 0. -1.
         -1   -1    0    0    0  501 -0.00000000000E+00 -0.00000000000E+00 -0.34318146381E+02  0.34318146381E+02  0.00000000000E+00 0.  1.
         23    2    1    2    0    0 -0.49313438026E+02  0.48223681875E+02  0.21595388590E+03  0.25892209988E+03  0.12508890561E+03 0.  0.
         23    2    1    2    0    0  0.49313438026E+02 -0.48223681875E+02  0.23870947424E+03  0.26437755302E+03  0.90310236332E+02 0.  0.
          5    1    3    3  502    0 -0.79510904395E+02  0.74527467607E+01  0.77315993894E+02  0.11123292077E+03  0.41800000000E+01 0.  1.
         -5    1    3    3    0  502  0.30197466370E+02  0.40770935114E+02  0.13863789200E+03  0.14768917910E+03  0.41800000000E+01 0.  1.
        -11    1    4    4    0    0 -0.39196961819E+01 -0.58418387942E+02  0.10742148818E+03  0.12234152275E+03  0.00000000000E+00 0.  1.
         11    1    4    4    0    0  0.53233134208E+02  0.10194706067E+02  0.13128798606E+03  0.14203603026E+03  0.00000000000E+00 0. -1.
</event>
<event>
 8    1  0.4798744E-006  0.1305993E+03  0.7561462E-02  0.1226569E+00
         -1   -1    0    0    0  501 -0.00000000000E+00  0.00000000000E+00  0.22796684830E+02  0.22796684830E+02  0.00000000000E+00 0.  1.
          1   -1    0    0  501    0  0.00000000000E+00 -0.00000000000E+00 -0.79242391381E+03  0.79242391381E+03  0.00000000000E+00 0. -1.
         23    2    1    2    0    0 -0.74974544841E+02  0.45160413984E+02 -0.40467368751E+03  0.43259664366E+03  0.12537311268E+03 0.  0.
         23    2    1    2    0    0  0.74974544841E+02 -0.45160413984E+02 -0.36495354147E+03  0.38262395498E+03  0.74494014003E+02 0.  0.
          5    1    3    3  502    0 -0.37502832135E+02  0.88023822785E+02 -0.25855429553E+03  0.27572169289E+03  0.41800000000E+01 0.  1.
         -5    1    3    3    0  502 -0.37471712706E+02 -0.42863408801E+02 -0.14611939198E+03  0.15687495077E+03  0.41800000000E+01 0.  1.
        -11    1    4    4    0    0  0.16983502260E+02 -0.47354790711E+02 -0.10719267770E+03  0.11841108776E+03  0.00000000000E+00 0.  1.
         11    1    4    4    0    0  0.57991042581E+02  0.21943767268E+01 -0.25776086377E+03  0.26421286721E+03  0.00000000000E+00 0. -1.
</event>
<event>
 7    1  0.4798744E-006  0.1707275E+03  0.7561462E-02  0.1177091E+00
         -2   -1    0    0    0  501 -0.00000000000E+00  0.00000000000E+00  0.87074890436E+02  0.87074890436E+02  0.00000000000E+00 0.  1.
          2   -1    0    0  501    0  0.00000000000E+00 -0.00000000000E+00 -0.10712674990E+04  0.10712674990E+04  0.00000000000E+00 0. -1.
         23    2    1    2    0    0  0.78926339837E+02  0.10854849185E+03 -0.22603190928E+03  0.27837281911E+03  0.91590721148E+02 0.  0.
          5    1    1    2  502    0 -0.10039403082E+03 -0.23382200445E+02 -0.78207164910E+03  0.78884676931E+03  0.41800000000E+01 0. -1.
         -5    1    1    2    0  502  0.21467690982E+02 -0.85166291403E+02  0.23910949808E+02  0.91122801033E+02  0.41800000000E+01 0.  1.
        -11    1    3    3    0    0  0.51614593583E+02  0.11152138695E+03 -0.13172597877E+03  0.18014666109E+03  0.00000000000E+00 0.  1.
         11    1    3    3    0    0  0.27311746254E+02 -0.29728951062E+01 -0.94305930511E+02  0.98226158015E+02  0.00000000000E+00 0. -1.
</event>
<event>
 8    1  0.4798744E-006  0.1126109E+03  0.7561462E-02  0.1255810E+00
         -3   -1    0    0    0  501 -0.00000000000E+00  0.00000000000E+00  0.42828291521E+03  0.42828291521E+03  0.00000000000E+00 0.  1.
          3   -1    0    0  501    0  0.00000000000E+00 -0.00000000000E+00 -0.51464928856E+02  0.51464928856E+02  0.00000000000E+00 0. -1.
         23    2    1    2    0    0  0.72998702587E+02  0.67328797560E+02  0.23371443477E+03  0.28307487326E+03  0.12508784629E+03 0.  0.
         23    2    1    2    0    0 -0.72998702587E+02 -0.67328797560E+02  0.14310355158E+03  0.19667297080E+03  0.91321702838E+02 0.  0.
          5    1    3    3  502    0  0.12434759110E+02  0.23535245483E+02 -0.95244771920E+01  0.28578297358E+02  0.41800000000E+01 0. -1.
         -5    1    3    3    0  502  0.60563943477E+02  0.43793552077E+02  0.24323891197E+03  0.25449657590E+03  0.41800000000E+01 0. -1.
        -11    1    4    4    0    0 -0.62084977476E+02 -0.74197239756E+01  0.32632531607E+02  0.70529985476E+02  0.00000000000E+00 0. -1.
         11    1    4    4    0    0 -0.10913725111E+02 -0.59909073584E+02  0.11047101997E+03  0.12614298532E+03  0.00000000000E+00 0.  1.
</event>
<event>
 8    1  0.4798744E-006  0.7394338E+02  0.7561462E-02  0.1347175E+00
         -2   -1    0    0    0  501 -0.00000000000E+00  0.00000000000E+00  0.64101152590E+02  0.64101152590E+02  0.00000000000E+00 0.  1.
          2   -1    0    0  501    0  0.00000000000E+00 -0.00000000000E+00 -0.22536325393E+03  0.22536325393E+03  0.00000000000E+00 0. -1.
         23    2    1    2    0    0  0.38661468164E+02 -0.32495332714E+02 -0.11030153520E+03  0.17425413965E+03  0.12508965085E+03 0.  0.
         23    2    1    2    0    0 -0.38661468164E+02  0.32495332714E+02 -0.50960566137E+02  0.11521026687E+03  0.90143055869E+02 0.  0.
          5    1    3    3  502    0  0.42092987948E+02  0.17861153140E+02  0.70366741220E+01  0.46452423065E+02  0.41800000000E+01 0. -1.
         -5    1    3    3    0  502 -0.34315197835E+01 -0.50356485854E+02 -0.11733820932E+03  0.12780171659E+03  0.41800000000E+01 0. -1.
        -11    1    4    4    0    0 -0.17947405787E+02  0.92570696317E+01  0.25574632936E+02  0.32586263402E+02  0.00000000000E+00 0.  1.
         11    1    4    4    0    0 -0.20714062377E+02  0.23238263082E+02 -0.76535199073E+02  0.82624003464E+02  0.00000000000E+00 0. -1.
</event>
<event>
 7    1  0.4798744E-006  0.1017380E+03  0.7561462E-02  0.1276683E+00
          2   -1    0    0  501    0  0.00000000000E+00  0.00000000000E+00  0.37367645670E+03  0.37367645670E+03  0.00000000000E+00 0. -1.
         -2   -1    0    0    0  501 -0.00000000000E+00 -0.00000000000E+00 -0.13014348109E+03  0.13014348109E+03  0.00000000000E+00 0.  1.
         23    2    1    2    0    0  0.35478170044E+01  0.15789601345E+01  0.26346734344E+03  0.27884315235E+03  0.91232573298E+02 0.  0.
          5    1    1    2  502    0  0.18354879617E+01  0.57475640394E+02  0.85978691273E+02  0.10352113798E+03  0.41800000000E+01 0. -1.
         -5    1    1    2    0  502 -0.53833049662E+01 -0.59054600529E+02 -0.10591305910E+03  0.12145564748E+03  0.41800000000E+01 0.  1.
        -11    1    3    3    0    0 -0.55661420992E+01 -0.41737922435E+02  0.83555092698E+02  0.93565429635E+02  0.00000000000E+00 0.  1.
         11    1    3    3    0    0  0.91139591037E+01  0.43316882569E+02  0.17991225074E+03  0.18527772271E+03  0.00000000000E+00 0. -1.
</event>
<event>
 8    1  0.4798744E-006  0.1167216E+03  0.7561462E-02  0.1248606E+00
          1   -1    0    0  501    0  0.00000000000E+00  0.00000000000E+00  0.18112479528E+03  0.18112479528E+03  0.00000000000E+00 0. -1.
         -1   -1    0    0    0  501 -0.00000000000E+00 -0.00000000000E+00 -0.94837404241E+02  0.94837404241E+02  0.00000000000E+00 0.  1.
         23    2    1    2    0    0 -0.16329103437E+02 -0.49934313915E+02 -0.62078675552E+01  0.13581954849E+03  0.12509331239E+03 0.  0.
         23    2    1    2    0    0  0.16329103437E+02  0.49934313915E+02  0.92495258599E+02  0.14014265104E+03  0.91238777129E+02 0.  0.
          5    1    3    3  502    0 -0.33819792296E+02 -0.87536906453E+02 -0.61642376499E+01  0.94137976227E+02  0.41800000000E+01 0. -1.
         -5    1    3    3    0  502  0.17490688858E+02  0.37602592538E+02 -0.43629905340E-01  0.41681572258E+02  0.41800000000E+01 0. -1.
        -11    1    4    4    0    0  0.46404367666E+02  0.93909155851E+01  0.70859294316E+02  0.85220855575E+02  0.00000000000E+00 0. -1.
         11    1    4    4    0    0 -0.30075264229E+02  0.40543398330E+02  0.21635964283E+02  0.54921795464E+02  0.00000000000E+00 0.  1.
</event>
<event>
 8    1  0.4798744E-006  0.9866454E+02  0.7561462E-02  0.1283130E+00
         -1   -1    0    0    0  501 -0.00000000000E+00  0.00000000000E+00  0.23012390204E+03  0.23012390204E+03  0.00000000000E+00 0.  1.
          1   -1    0    0  501    0  0.00000000000E+00 -0.00000000000E+00 -0.58632530946E+02  0.58632530946E+02  0.00000000000E+00 0. -1.
         23    2    1    2    0    0 -0.17125501022E+02  0.13243320906E+02  0.13277292021E+03  0.18369544276E+03  0.12508676595E+03 0.  0.
         23    2    1    2    0    0  0.17125501022E+02 -0.13243320906E+02  0.38718450889E+02  0.10506099023E+03  0.95236678306E+02 0.  0.
          5    1    3    3  502    0 -0.28305444569E+02  0.65615246181E+02  0.90218678045E+02  0.11516701347E+03  0.41800000000E+01 0. -1.
         -5    1    3    3    0  502  0.11179943547E+02 -0.52371925274E+02  0.42554242163E+02  0.68528429288E+02  0.41800000000E+01 0. -1.
        -11    1    4    4    0    0 -0.80284665174E+01  0.25000147794E+02 -0.18252967366E+02  0.31978656664E+02  0.00000000000E+00 0. -1.
         11    1    4    4    0    0  0.25153967540E+02 -0.38243468701E+02  0.56971418256E+02  0.73082333565E+02  0.00000000000E+00 0.  1.
</event>
<event>
 8    1  0.1410890E-005  0.2206434E+03  0.7561462E-02  0.1133404E+00
          2   -1    0    0  501    0  0.00000000000E+00  0.00000000000E+00  0.18462175814E+04  0.18462175814E+04  0.00000000000E+00 0. -1.
         -2   -1    0    0    0  501 -0.00000000000E+00 -0.00000000000E+00 -0.27773430560E+02  0.27773430560E+02  0.00000000000E+00 0.  1.
         23    2    1    2    0    0 -0.16967539973E+02  0.19374180878E+03  0.76812497413E+03  0.80217625587E+03  0.12508790395E+03 0.  0.
         23    2    1    2    0    0  0.16967539973E+02 -0.19374180878E+03  0.10503191767E+04  0.10718147560E+04  0.88276341841E+02 0.  0.
          5    1    3    3  502    0  0.14007690206E+02 -0.12793496236E+02  0.36909263053E+02  0.41709172013E+02  0.41800000000E+01 0. -1.
         -5    1    3    3    0  502 -0.30975230178E+02  0.20653530502E+03  0.73121571108E+03  0.76046708386E+03  0.41800000000E+01 0. -1.
        -11    1    4    4    0    0  0.51908549278E+02 -0.95376033981E+02  0.49511685203E+03  0.50688438771E+03  0.00000000000E+00 0. -1.
         11    1    4    4    0    0 -0.34941009305E+02 -0.98365774798E+02  0.55520232463E+03  0.56493036833E+03  0.00000000000E+00 0.  1.
</event>
<event>
 8    1  0.4798744E-006  0.1664086E+03  0.7561462E-02  0.1181646E+00
          1   -1    0    0  501    0  0.00000000000E+00  0.00000000000E+00  0.78813173027E+03  0.78813173027E+03  0.00000000000E+00 0. -1.
         -1   -1    0    0    0  501 -0.00000000000E+00 -0.00000000000E+00 -0.54241029133E+02  0.54241029133E+02  0.00000000000E+00 0.  1.
         23    2    1    2    0    0  0.15779363607E+03 -0.13716270120E+02  0.22950995200E+03  0.30563061268E+03  0.12509310809E+03 0.  0.
         23    2    1    2    0    0 -0.15779363607E+03  0.13716270120E+02  0.50438074913E+03  0.53674214672E+03  0.92764348284E+02 0.  0.
          5    1    3    3  502    0  0.15710141168E+03 -0.27605651132E+02  0.23965625485E+03  0.28791581827E+03  0.41800000000E+01 0.  1.
         -5    1    3    3    0  502  0.69222439303E+00  0.13889381012E+02 -0.10146302847E+02  0.17714794409E+02  0.41800000000E+01 0.  1.
        -11    1    4    4    0    0 -0.54662388610E+02 -0.22969289040E+00  0.63695784108E+02  0.83935584828E+02  0.00000000000E+00 0.  1.
         11    1    4    4    0    0 -0.10313124746E+03  0.13945963011E+02  0.44068496503E+03  0.45280656189E+03  0.00000000000E+00 0. -1.
</event>
<event>
 8    1  0.4798744E-006  0.1272743E+03  0.7561462E-02  0.1231557E+00
          2   -1    0    0  501    0  0.00000000000E+00  0.00000000000E+00  0.53767187088E+02  0.53767187088E+02  0.00000000000E+00 0. -1.
         -2   -1    0    0    0  501 -0.00000000000E+00 -0.00000000000E+00 -0.36058950280E+03  0.36058950280E+03  0.00000000000E+00 0.  1.
         23    2    1    2    0    0 -0.64964681853E+02  0.27356498470E+01 -0.24762126032E+03  0.28494181042E+03  0.12509057957E+03 0.  0.
         23    2    1    2    0    0  0.64964681853E+02 -0.27356498470E+01 -0.59201055391E+02  0.12941487946E+03  0.94950262762E+02 0.  0.
          5    1    3    3  502    0 -0.38508397602E+02 -0.60482302934E+02 -0.13856703725E+03  0.15607466760E+03  0.41800000000E+01 0. -1.
         -5    1    3    3    0  502 -0.26456284251E+02  0.63217952781E+02 -0.10905422307E+03  0.12886714282E+03  0.41800000000E+01 0. -1.
        -11    1    4    4    0    0  0.89497885473E+02 -0.25520783125E+01 -0.53238615718E+02  0.10416686043E+03  0.00000000000E+00 0.  1.
         11    1    4    4    0    0 -0.24533203620E+02 -0.18357153451E+00 -0.59624396730E+01  0.25248019035E+02  0.00000000000E+00 0. -1.
</event>
<event>
 8    1  0.4798744E-006  0.1023717E+03  0.7561462E-02  0.1275386E+00
         -1   -1    0    0    0  501 -0.00000000000E+00  0.00000000000E+00  0.23340381940E+02  0.23340381940E+02  0.00000000000E+00 0.  1.
          1   -1    0    0  501    0  0.00000000000E+00 -0.00000000000E+00 -0.62418323587E+03  0.62418323587E+03  0.00000000000E+00 0. -1.
         23    2    1    2    0    0  0.38077338888E+02  0.27132448717E+02 -0.26698803483E+03  0.29852714948E+03  0.12509913959E+03 0.  0.
         23    2    1    2    0    0 -0.38077338888E+02 -0.27132448717E+02 -0.33385481910E+03  0.34899646832E+03  0.90296407217E+02 0.  0.
          5    1    3    3  502    0 -0.18531593537E+02 -0.24497463321E+02 -0.17950189534E+03  0.18215912961E+03  0.41800000000E+01 0.  1.
         -5    1    3    3    0  502  0.56608932425E+02  0.51629912038E+02 -0.87486139485E+02  0.11636801987E+03  0.41800000000E+01 0.  1.
        -11    1    4    4    0    0 -0.20723044621E+02  0.30471468252E+02 -0.79526268443E+02  0.87649200385E+02  0.00000000000E+00 0.  1.
         11    1    4    4    0    0 -0.17354294268E+02 -0.57603916969E+02 -0.25432855066E+03  0.26134726794E+03  0.00000000000E+00 0. -1.
</event>
<event>
 8    1  0.4798744E-006  0.9285635E+02  0.7561462E-02  0.1296078E+00
         -4   -1    0    0    0  501 -0.00000000000E+00  0.00000000000E+00  0.44786337440E+02  0.44786337440E+02  0.00000000000E+00 0.  1.
          4   -1    0    0  501    0  0.00000000000E+00 -0.00000000000E+00 -0.38534076688E+03  0.38534076688E+03  0.00000000000E+00 0. -1.
         23    2    1    2    0    0  0.24547649666E+02  0.58125942326E+02 -0.13131358843E+03  0.19202045626E+03  0.12508950732E+03 0.  0.
         23    2    1    2    0    0 -0.24547649666E+02 -0.58125942326E+02 -0.20924084101E+03  0.23810664806E+03  0.94508380715E+02 0.  0.
          5    1    3    3  502    0 -0.22636034727E+02  0.10283128919E+02 -0.12137470422E+03  0.12396541467E+03  0.41800000000E+01 0.  1.
         -5    1    3    3    0  502  0.47183684393E+02  0.47842813406E+02 -0.99388842049E+01  0.68055041597E+02  0.41800000000E+01 0.  1.
        -11    1    4    4    0    0 -0.47238917002E+02 -0.26231401707E+02 -0.48299611987E+02  0.72473817570E+02  0.00000000000E+00 0.  1.
         11    1    4    4    0    0  0.22691267336E+02 -0.31894540619E+02 -0.16094122903E+03  0.16563283049E+03  0.00000000000E+00 0. -1.
</event>
<event>
 8    1  0.4798744E-006  0.1384221E+03  0.7561462E-02  0.1215468E+00
         -2   -1    0    0    0  501 -0.00000000000E+00  0.00000000000E+00  0.96293225412E+02  0.96293225412E+02  0.00000000000E+00 0.  1.
          2   -1    0    0  501    0  0.00000000000E+00 -0.00000000000E+00 -0.26601571093E+03  0.26601571093E+03  0.00000000000E+00 0. -1.
         23    2    1    2    0    0  0.20973598675E+02  0.12198031456E+03 -0.71535029072E+02  0.18995912704E+03  0.12509244813E+03 0.  0.
         23    2    1    2    0    0 -0.20973598675E+02 -0.12198031456E+03 -0.98187456449E+02  0.17234980931E+03  0.68880992915E+02 0.  0.
          5    1    3    3  502    0  0.49765829857E+02  0.11010551032E+03 -0.10559342732E+02  0.12136240498E+03  0.41800000000E+01 0. -1.
         -5    1    3    3    0  502 -0.28792231181E+02  0.11874804238E+02 -0.60975686340E+02  0.68596722056E+02  0.41800000000E+01 0. -1.
        -11    1    4    4    0    0  0.11111925776E+01 -0.26238130283E+02  0.82179628174E+01  0.27517433430E+02  0.00000000000E+00 0.  1.
         11    1    4    4    0    0 -0.22084791253E+02 -0.95742184273E+02 -0.10640541927E+03  0.14483237588E+03  0.00000000000E+00 0. -1.
</event>
<event>
 8    1  0.4798744E-006  0.1748289E+03  0.7561462E-02  0.1172904E+00
         -2   -1    0    0    0  501 -0.00000000000E+00  0.00000000000E+00  0.38568465767E+03  0.38568465767E+03  0.00000000000E+00 0.  1.
          2   -1    0    0  501    0  0.00000000000E+00 -0.00000000000E+00 -0.93474246211E+02  0.93474246211E+02  0.00000000000E+00 0. -1.
         23    2    1    2    0    0 -0.11422627714E+03  0.10234681588E+03  0.12143636900E+03  0.23219646660E+03  0.12508354917E+03 0.  0.
         23    2    1    2    0    0  0.11422627714E+03 -0.10234681588E+03  0.17077404245E+03  0.24696243728E+03  0.91127157000E+02 0.  0.
          5    1    3    3  502    0 -0.91312443064E+01  0.63333524702E+02 -0.35836030194E+01  0.64224836195E+02  0.41800000000E+01 0.  1.
         -5    1    3    3    0  502 -0.10509503283E+03  0.39013291183E+02  0.12501997202E+03  0.16797163040E+03  0.41800000000E+01 0.  1.
        -11    1    4    4    0    0  0.52920594731E+02 -0.98634354445E+02  0.13685371966E+03  0.17680007299E+03  0.00000000000E+00 0. -1.
         11    1    4    4    0    0  0.61305682406E+02 -0.37124614401E+01  0.33920322792E+02  0.70162364296E+02  0.00000000000E+00 0.  1.
</event>
<event>
 7    1  0.4798744E-006  0.1082055E+03  0.7561462E-02  0.1263930E+00
          1   -1    0    0  501    0  0.00000000000E+00  0.00000000000E+00  0.82974119672E+03  0.82974119672E+03  0.00000000000E+00 0. -1.
         -1   -1    0    0    0  501 -0.00000000000E+00 -0.00000000000E+00 -0.24140925676E+02  0.24140925676E+02  0.00000000000E+00 0.  1.
         23    2    1    2    0    0  0.31831761840E+01  0.80084990560E+02  0.46570140925E+03  0.48120378288E+03  0.90860000902E+02 0.  0.
          5    1    1    2  502    0 -0.24369081274E+02 -0.75283368096E+02  0.34142929442E+03  0.35050374195E+03  0.41800000000E+01 0. -1.
         -5    1    1    2    0  502  0.21185905090E+02 -0.48016224644E+01 -0.15304326269E+01  0.22174597557E+02  0.41800000000E+01 0.  1.
        -11    1    3    3    0    0 -0.28800449603E+02  0.77828607871E+02  0.39423113513E+03  0.40287088007E+03  0.00000000000E+00 0. -1.
         11    1    3    3    0    0  0.31983625787E+02  0.22563826894E+01  0.71470274112E+02  0.78332902812E+02  0.00000000000E+00 0.  1.
</event>
<event>
 8    1  0.4798744E-006  0.1028578E+03  0.7561462E-02  0.1274399E+00
         -1   -1    0    0    0  501 -0.00000000000E+00  0.00000000000E+00  0.22240926179E+03  0.22240926179E+03  0.00000000000E+00 0. -1.
          1   -1    0    0  501    0  0.00000000000E+00 -0.00000000000E+00 -0.58160284572E+02  0.58160284572E+02  0.00000000000E+00 0.  1.
         23    2    1    2    0    0 -0.84775272134E+01  0.27905506280E+02  0.10770542058E+03  0.16765278107E+03  0.12512558343E+03 0.  0.
         23    2    1    2    0    0  0.84775272134E+01 -0.27905506280E+02  0.56543556632E+02  0.11291676530E+03  0.93286849769E+02 0.  0.
          5    1    3    3  502    0  0.96742785153E+01 -0.45363707302E+02  0.67555307758E+02  0.82052724582E+02  0.41800000000E+01 0.  1.
         -5    1    3    3    0  502 -0.18151805729E+02  0.73269213582E+02  0.40150112826E+02  0.85600056485E+02  0.41800000000E+01 0.  1.
        -11    1    4    4    0    0 -0.20873823776E+02 -0.44980019787E+02  0.61062469550E+02  0.78660942574E+02  0.00000000000E+00 0. -1.
         11    1    4    4    0    0  0.29351350989E+02  0.17074513507E+02 -0.45189129179E+01  0.34255822722E+02  0.00000000000E+00 0.  1.
</event>
<event>
 8    1  0.4798744E-006  0.6032576E+02  0.7561462E-02  0.1396470E+00
         -1   -1    0    0    0  501 -0.00000000000E+00  0.00000000000E+00  0.31052253685E+02  0.31052253685E+02  0.00000000000E+00 0.  1.
          1   -1    0    0  501    0  0.00000000000E+00 -0.00000000000E+00 -0.38975679704E+03  0.38975679704E+03  0.00000000000E+00 0. -1.
         23    2    1    2    0    0 -0.13743077091E+02  0.14680152707E+02 -0.20659146850E+03  0.24234666212E+03  0.12508993059E+03 0.  0.
         23    2    1    2    0    0  0.13743077091E+02 -0.14680152707E+02 -0.15211307486E+03  0.17846238861E+03  0.91137574867E+02 0.  0.
          5    1    3    3  502    0 -0.16551131935E+01  0.20239153389E+02  0.11568332827E+02  0.23741555425E+02  0.41800000000E+01 0. -1.
         -5    1    3    3    0  502 -0.12087963898E+02 -0.55590006822E+01 -0.21815980133E+03  0.21860510670E+03  0.41800000000E+01 0. -1.
        -11    1    4    4    0    0  0.25344129619E+02  0.30310806359E+02 -0.10546545760E+03  0.11262341069E+03  0.00000000000E+00 0. -1.
         11    1    4    4    0    0 -0.11601052528E+02 -0.44990959066E+02 -0.46647617260E+02  0.65838977919E+02  0.00000000000E+00 0.  1.
</event>
<event>
 8    1  0.4798744E-006  0.1259884E+03  0.7561462E-02  0.1233533E+00
         -2   -1    0    0    0  501 -0.00000000000E+00  0.00000000000E+00  0.68798641875E+02  0.68798641875E+02  0.00000000000E+00 0.  1.
          2   -1    0    0  501    0  0.00000000000E+00 -0.00000000000E+00 -0.31792329638E+03  0.31792329638E+03  0.00000000000E+00 0. -1.
         23    2    1    2    0    0 -0.97103794597E+02 -0.21275502035E+02 -0.14301685371E+03  0.21443538506E+03  0.12508764930E+03 0.  0.
         23    2    1    2    0    0  0.97103794597E+02  0.21275502035E+02 -0.10610780079E+03  0.17228655319E+03  0.92422925244E+02 0.  0.
          5    1    3    3  502    0  0.15472934290E+02  0.14914995359E+02  0.73507928108E+01  0.23094920157E+02  0.41800000000E+01 0. -1.
         -5    1    3    3    0  502 -0.11257672889E+03 -0.36190497394E+02 -0.15036764652E+03  0.19134046490E+03  0.41800000000E+01 0. -1.
        -11    1    4    4    0    0  0.38825719275E+02  0.34566838244E+02 -0.17392702657E+01  0.52012766168E+02  0.00000000000E+00 0.  1.
         11    1    4    4    0    0  0.58278075322E+02 -0.13291336209E+02 -0.10436853053E+03  0.12027378703E+03  0.00000000000E+00 0. -1.
</event>
<event>
 8    1  0.4798744E-006  0.1599764E+03  0.7561462E-02  0.1188723E+00
          1   -1    0    0  501    0  0.00000000000E+00  0.00000000000E+00  0.28391874512E+02  0.28391874512E+02  0.00000000000E+00 0. -1.
         -1   -1    0    0    0  501 -0.00000000000E+00 -0.00000000000E+00 -0.11476390527E+04  0.11476390527E+04  0.00000000000E+00 0.  1.
         23    2    1    2    0    0  0.15246980042E+02  0.14471399217E+03 -0.60753066602E+03  0.63636412566E+03  0.12120717944E+03 0.  0.
         23    2    1    2    0    0 -0.15246980042E+02 -0.14471399217E+03 -0.51171651217E+03  0.53966680155E+03  0.90619302233E+02 0.  0.
          5    1    3    3  502    0 -0.13594945374E+02  0.86472585526E+02 -0.14615339361E+03  0.17041307887E+03  0.41800000000E+01 0. -1.
         -5    1    3    3    0  502  0.28841925416E+02  0.58241406643E+02 -0.46137727241E+03  0.46595104679E+03  0.41800000000E+01 0.  1.
        -11    1    4    4    0    0  0.34099166097E+02 -0.66030734876E+02 -0.28807825781E+03  0.29750948506E+03  0.00000000000E+00 0.  1.
         11    1    4    4    0    0 -0.49346146139E+02 -0.78683257292E+02 -0.22363825436E+03  0.24215731649E+03  0.00000000000E+00 0. -1.
</event>
<event>
 8    1  0.4798744E-006  0.8872385E+02  0.7561462E-02  0.1305972E+00
         -2   -1    0    0    0  501 -0.00000000000E+00  0.00000000000E+00  0.81819465262E+02  0.81819465262E+02  0.00000000000E+00 0.  1.
          2   -1    0    0  501    0  0.00000000000E+00 -0.00000000000E+00 -0.19023405839E+03  0.19023405839E+03  0.00000000000E+00 0. -1.
         23    2    1    2    0    0  0.47594320428E+02  0.15148619138E+02 -0.23352377739E+02  0.13670186492E+03  0.12508943332E+03 0.  0.
         23    2    1    2    0    0 -0.47594320428E+02 -0.15148619138E+02 -0.85062215385E+02  0.13535165872E+03  0.92681125557E+02 0.  0.
          5    1    3    3  502    0 -0.20858954819E+02  0.24709125006E+02  0.33766699096E+02  0.46939314253E+02  0.41800000000E+01 0. -1.
         -5    1    3    3    0  502  0.68453275246E+02 -0.95605058681E+01 -0.57119076835E+02  0.89762550671E+02  0.41800000000E+01 0. -1.
        -11    1    4    4    0    0  0.12000780872E+02  0.45465253596E+01 -0.69514856977E+02  0.70689496921E+02  0.00000000000E+00 0. -1.
         11    1    4    4    0    0 -0.59595101300E+02 -0.19695144498E+02 -0.15547358408E+02  0.64662161804E+02  0.00000000000E+00 0.  1.
</event>
<event>
 8    1  0.4798744E-006  0.1299765E+03  0.7561462E-02  0.1227491E+00
         -2   -1    0    0    0  501 -0.00000000000E+00  0.00000000000E+00  0.10660089368E+03  0.10660089368E+03  0.00000000000E+00 0.  1.
          2   -1    0    0  501    0  0.00000000000E+00 -0.00000000000E+00 -0.18380262991E+03  0.18380262991E+03  0.00000000000E+00 0. -1.
         23    2    1    2    0    0 -0.73669232160E+02  0.57647780586E+02 -0.61260894514E+02  0.15782193999E+03  0.11137524488E+03 0.  0.
         23    2    1    2    0    0  0.73669232160E+02 -0.57647780586E+02 -0.15940841716E+02  0.13258158360E+03  0.92592351200E+02 0.  0.
          5    1    3    3  502    0 -0.92368021404E+02  0.72844118376E+02 -0.62618779715E+02  0.13332929510E+03  0.41800000000E+01 0. -1.
         -5    1    3    3    0  502  0.18698789244E+02 -0.15196337790E+02  0.13578852009E+01  0.24492644889E+02  0.41800000000E+01 0.  1.
        -11    1    4    4    0    0  0.78792231221E+02 -0.22044156645E+02  0.17274035213E+02  0.83621485490E+02  0.00000000000E+00 0.  1.
         11    1    4    4    0    0 -0.51229990614E+01 -0.35603623941E+02 -0.33214876929E+02  0.48960098106E+02  0.00000000000E+00 0. -1.
</event>
<event>
 8    1  0.4798744E-006  0.8495701E+02  0.7561462E-02  0.1315545E+00
         -2   -1    0    0    0  501 -0.00000000000E+00  0.00000000000E+00  0.52342338898E+02  0.52342338898E+02  0.00000000000E+00 0.  1.
          2   -1    0    0  501    0  0.00000000000E+00 -0.00000000000E+00 -0.27419073927E+03  0.27419073927E+03  0.00000000000E+00 0. -1.
         23    2    1    2    0    0  0.15899693590E+01  0.46821162119E+02 -0.10300739386E+03  0.16867861130E+03  0.12508877447E+03 0.  0.
         23    2    1    2    0    0 -0.15899693590E+01 -0.46821162119E+02 -0.11884100651E+03  0.15785446686E+03  0.92736716862E+02 0.  0.
          5    1    3    3  502    0 -0.31069218695E+02  0.50763604044E+02 -0.11804605156E+03  0.13226708788E+03  0.41800000000E+01 0. -1.
         -5    1    3    3    0  502  0.32659188054E+02 -0.39424419245E+01  0.15038657707E+02  0.36411523427E+02  0.41800000000E+01 0. -1.
        -11    1    4    4    0    0 -0.30295930556E+02 -0.34323148050E+02 -0.13162724138E+02  0.47635902501E+02  0.00000000000E+00 0.  1.
         11    1    4    4    0    0  0.28705961197E+02 -0.12498014069E+02 -0.10567828238E+03  0.11021856436E+03  0.00000000000E+00 0. -1.
</event>
<event>
 8    1  0.4798744E-006  0.1189719E+03  0.7561462E-02  0.1244803E+00
         -1   -1    0    0    0  501 -0.00000000000E+00  0.00000000000E+00  0.44872996917E+02  0.44872996917E+02  0.00000000000E+00 0.  1.
          1   -1    0    0  501    0  0.00000000000E+00 -0.00000000000E+00 -0.33520621587E+03  0.33520621587E+03  0.00000000000E+00 0. -1.
         23    2    1    2    0    0 -0.20817033965E+01  0.56800035772E+02 -0.16994581141E+03  0.21853871065E+03  0.12508801576E+03 0.  0.
         23    2    1    2    0    0  0.20817033965E+01 -0.56800035772E+02 -0.12038740754E+03  0.16154050213E+03  0.91496603113E+02 0.  0.
          5    1    3    3  502    0 -0.61638829894E+02  0.44781197896E+02 -0.10021135405E+03  0.12595431282E+03  0.41800000000E+01 0. -1.
         -5    1    3    3    0  502  0.59557126497E+02  0.12018837876E+02 -0.69734457355E+02  0.92584397839E+02  0.41800000000E+01 0. -1.
        -11    1    4    4    0    0 -0.25001546761E+02 -0.67221359304E+02 -0.56262725421E+02  0.91155267313E+02  0.00000000000E+00 0.  1.
         11    1    4    4    0    0  0.27083250157E+02  0.10421323532E+02 -0.64124682120E+02  0.70385234817E+02  0.00000000000E+00 0. -1.
</event>
<event>
 8    1  0.4798744E-006  0.1082899E+03  0.7561462E-02  0.1263770E+00
          2   -1    0    0  501    0  0.00000000000E+00  0.00000000000E+00  0.24760682167E+02  0.24760682167E+02  0.00000000000E+00 0. -1.
         -2   -1    0    0    0  501 -0.00000000000E+00 -0.00000000000E+00 -0.55946735418E+03  0.55946735418E+03  0.00000000000E+00 0.  1.
         23    2    1    2    0    0  0.61825981819E+01  0.37593386275E+02 -0.35908157567E+03  0.38214960961E+03  0.12508900404E+03 0.  0.
         23    2    1    2    0    0 -0.61825981819E+01 -0.37593386275E+02 -0.17562509635E+03  0.20207842674E+03  0.92412276641E+02 0.  0.
          5    1    3    3  502    0  0.64533323773E+01 -0.42027853907E+02 -0.19622987075E+03  0.20082734021E+03  0.41800000000E+01 0. -1.
         -5    1    3    3    0  502 -0.27073419540E+00  0.79621240182E+02 -0.16285170492E+03  0.18132226940E+03  0.41800000000E+01 0. -1.
        -11    1    4    4    0    0  0.34181984548E+02  0.60081033421E+01 -0.34412067447E+02  0.48874285257E+02  0.00000000000E+00 0. -1.
         11    1    4    4    0    0 -0.40364582730E+02 -0.43601489617E+02 -0.14121302890E+03  0.15320414148E+03  0.00000000000E+00 0.  1.
</event>
<event>
 8    1  0.4798744E-006  0.1386598E+03  0.7561462E-02  0.1215144E+00
          2   -1    0    0  501    0  0.00000000000E+00  0.00000000000E+00  0.37357914018E+03  0.37357914018E+03  0.00000000000E+00 0. -1.
         -2   -1    0    0    0  501 -0.00000000000E+00 -0.00000000000E+00 -0.55707278887E+02  0.55707278887E+02  0.00000000000E+00 0.  1.
         23    2    1    2    0    0  0.33231411880E+02  0.80047095036E+02  0.11621784129E+03  0.19149314201E+03  0.12510464677E+03 0.  0.
         23    2    1    2    0    0 -0.33231411880E+02 -0.80047095036E+02  0.20165402000E+03  0.23779327705E+03  0.91484614391E+02 0.  0.
          5    1    3    3  502    0  0.38731153330E+02 -0.25184748778E+02  0.29645268700E+02  0.55051686310E+02  0.41800000000E+01 0.  1.
         -5    1    3    3    0  502 -0.54997414503E+01  0.10523184381E+03  0.86572572591E+02  0.13644145570E+03  0.41800000000E+01 0.  1.
        -11    1    4    4    0    0  0.37467866685E+01  0.19199431002E+02  0.40106478945E+02  0.44622709627E+02  0.00000000000E+00 0. -1.
         11    1    4    4    0    0 -0.36978198548E+02 -0.99246526038E+02  0.16154754105E+03  0.19317056742E+03  0.00000000000E+00 0.  1.
</event>
<event>
 8    1  0.4798744E-006  0.1404475E+03  0.7561462E-02  0.1212728E+00
          2   -1    0    0  501    0  0.00000000000E+00  0.00000000000E+00  0.79755792655E+03  0.79755792655E+03  0.00000000000E+00 0.  1.
         -2   -1    0    0    0  501 -0.00000000000E+00 -0.00000000000E+00 -0.28742467844E+02  0.28742467844E+02  0.00000000000E+00 0. -1.
         23    2    1    2    0    0  0.90375831671E+02 -0.53046075437E+02  0.39116328023E+03  0.42383432082E+03  0.12508054460E+03 0.  0.
         23    2    1    2    0    0 -0.90375831671E+02  0.53046075437E+02  0.37765217847E+03  0.40246607357E+03  0.91521010697E+02 0.  0.
          5    1    3    3  502    0 -0.48112853299E+01 -0.59290783631E+02  0.21891251990E+03  0.22688920040E+03  0.41800000000E+01 0. -1.
         -5    1    3    3    0  502  0.95187117001E+02  0.62447081940E+01  0.17225076033E+03  0.19694512042E+03  0.41800000000E+01 0. -1.
        -11    1    4    4    0    0 -0.37815361692E+01  0.37634792826E+02  0.47075554668E+02  0.60388620568E+02  0.00000000000E+00 0. -1.
         11    1    4    4    0    0 -0.86594295502E+02  0.15411282611E+02  0.33057662380E+03  0.34207745300E+03  0.00000000000E+00 0.  1.
</event>
<event>
 8    1  0.4798744E-006  0.1855693E+03  0.7561462E-02  0.1162519E+00
          2   -1    0    0  501    0  0.00000000000E+00  0.00000000000E+00  0.38274657414E+03  0.38274657414E+03  0.00000000000E+00 0. -1.
         -2   -1    0    0    0  501 -0.00000000000E+00 -0.00000000000E+00 -0.30872026434E+03  0.30872026434E+03  0.00000000000E+00 0.  1.
         23    2    1    2    0    0 -0.15509598084E+03  0.43026960309E+02 -0.24764590423E+03  0.32075290240E+03  0.12509135834E+03 0.  0.
         23    2    1    2    0    0  0.15509598084E+03 -0.43026960309E+02  0.32167221403E+03  0.37071393607E+03  0.89720268264E+02 0.  0.
          5    1    3    3  502    0 -0.17161738285E+03  0.54080066608E+02 -0.20059791885E+03  0.26950728589E+03  0.41800000000E+01 0.  1.
         -5    1    3    3    0  502  0.16521402013E+02 -0.11053106300E+02 -0.47047985384E+02  0.51245616515E+02  0.41800000000E+01 0.  1.
        -11    1    4    4    0    0  0.10389391066E+03  0.10361720878E+00  0.12267840500E+03  0.16076052520E+03  0.00000000000E+00 0.  1.
         11    1    4    4    0    0  0.51202070176E+02 -0.43130577518E+02  0.19899380902E+03  0.20995341087E+03  0.00000000000E+00 0. -1.
</event>
<event>
 8    1  0.4798744E-006  0.1068556E+03  0.7561462E-02  0.1266506E+00
          1   -1    0    0  501    0  0.00000000000E+00  0.00000000000E+00  0.10070400805E+03  0.10070400805E+03  0.00000000000E+00 0. -1.
         -1   -1    0    0    0  501 -0.00000000000E+00 -0.00000000000E+00 -0.12550448325E+03  0.12550448325E+03  0.00000000000E+00 0.  1.
         23    2    1    2    0    0  0.78715782005E+01  0.20942580985E+02 -0.34201753555E+02  0.13159257738E+03  0.12508514313E+03 0.  0.
         23    2    1    2    0    0 -0.78715782005E+01 -0.20942580985E+02  0.94012783602E+01  0.94615913926E+02  0.91450717282E+02 0.  0.
          5    1    3    3  502    0 -0.10024570903E+02 -0.48843788532E+02 -0.31998160314E+02  0.59393285508E+02  0.41800000000E+01 0.  1.
         -5    1    3    3    0  502  0.17896149103E+02  0.69786369517E+02 -0.22035932412E+01  0.72199291869E+02  0.41800000000E+01 0.  1.
        -11    1    4    4    0    0 -0.48473820275E+02 -0.10962538301E+02  0.16166529738E+02  0.52261316304E+02  0.00000000000E+00 0. -1.
         11    1    4    4    0    0  0.40602242075E+02 -0.99800426847E+01 -0.67652513780E+01  0.42354597621E+02  0.00000000000E+00 0.  1.
</event>
<event>
 8    1  0.4798744E-006  0.6363808E+02  0.7561462E-02  0.1383169E+00
          2   -1    0    0  501    0  0.00000000000E+00  0.00000000000E+00  0.14357381193E+03  0.14357381193E+03  0.00000000000E+00 0. -1.
         -2   -1    0    0    0  501 -0.00000000000E+00 -0.00000000000E+00 -0.81113537824E+02  0.81113537824E+02  0.00000000000E+00 0.  1.
         23    2    1    2    0    0 -0.20795013461E+02  0.68530952143E+01  0.31590505326E+02  0.13086041492E+03  0.12508833146E+03 0.  0.
         23    2    1    2    0    0  0.20795013461E+02 -0.68530952143E+01  0.30869768778E+02  0.93826934827E+02  0.85855422519E+02 0.  0.
          5    1    3    3  502    0 -0.18555602731E+02 -0.31908773058E+02  0.67989759465E+02  0.77476189780E+02  0.41800000000E+01 0.  1.
         -5    1    3    3    0  502 -0.22394107307E+01  0.38761868272E+02 -0.36399254139E+02  0.53384225144E+02  0.41800000000E+01 0.  1.
        -11    1    4    4    0    0  0.11040990883E+02  0.19814033797E+02 -0.23392717158E+02  0.32584024168E+02  0.00000000000E+00 0.  1.
         11    1    4    4    0    0  0.97540225789E+01 -0.26667129011E+02  0.54262485935E+02  0.61242910659E+02  0.00000000000E+00 0. -1.
</event>
<event>
 8    1  0.4798744E-006  0.1079600E+03  0.7561462E-02  0.1264395E+00
          2   -1    0    0  501    0  0.00000000000E+00  0.00000000000E+00  0.40221167207E+03  0.40221167207E+03  0.00000000000E+00 0. -1.
         -2   -1    0    0    0  501 -0.00000000000E+00 -0.00000000000E+00 -0.43323728800E+02  0.43323728800E+02  0.00000000000E+00 0.  1.
         23    2    1    2    0    0 -0.29310890127E+01  0.27903246646E+02  0.81777652940E+02  0.15206021427E+03  0.12509013465E+03 0.  0.
         23    2    1    2    0    0  0.29310890127E+01 -0.27903246646E+02  0.27711029033E+03  0.29347518661E+03  0.92468317222E+02 0.  0.
          5    1    3    3  502    0  0.17710734431E+02  0.70290074293E+02  0.22109062838E+02  0.75898930940E+02  0.41800000000E+01 0.  1.
         -5    1    3    3    0  502 -0.20641823444E+02 -0.42386827647E+02  0.59668590102E+02  0.76161283326E+02  0.41800000000E+01 0.  1.
        -11    1    4    4    0    0  0.34829855273E+02 -0.47230927472E+02  0.15245559705E+03  0.16336030240E+03  0.00000000000E+00 0. -1.
         11    1    4    4    0    0 -0.31898766260E+02  0.19327680826E+02  0.12465469328E+03  0.13011488421E+03  0.00000000000E+00 0.  1.
</event>
<event>
 8    1  0.4798744E-006  0.1226536E+03  0.7561462E-02  0.1238783E+00
          1   -1    0    0  501    0  0.00000000000E+00  0.00000000000E+00  0.50427015748E+03  0.50427015748E+03  0.00000000000E+00 0. -1.
         -1   -1    0    0    0  501 -0.00000000000E+00 -0.00000000000E+00 -0.36047092577E+02  0.36047092577E+02  0.00000000000E+00 0.  1.
         23    2    1    2    0    0  0.17104427881E+00 -0.78450891516E+02  0.24986362595E+03  0.29023012611E+03  0.12508846027E+03 0.  0.
         23    2    1    2    0    0 -0.17104427881E+00  0.78450891516E+02  0.21835943896E+03  0.25008712395E+03  0.93317486838E+02 0.  0.
          5    1    3    3  502    0 -0.50871297302E+02 -0.14387053074E+01  0.58242714256E+02  0.77457374898E+02  0.41800000000E+01 0.  1.
         -5    1    3    3    0  502  0.51042341581E+02 -0.77012186209E+02  0.19162091169E+03  0.21277275121E+03  0.41800000000E+01 0.  1.
        -11    1    4    4    0    0  0.26136283529E+02  0.69034268214E+02  0.79666393725E+02  0.10860741132E+03  0.00000000000E+00 0.  1.
         11    1    4    4    0    0 -0.26307327808E+02  0.94166233016E+01  0.13869304523E+03  0.14147971263E+03  0.00000000000E+00 0. -1.
</event>
<event>
 8    1  0.4798744E-006  0.1064022E+03  0.7561462E-02  0.1267381E+00
          1   -1    0    0  501    0  0.00000000000E+00  0.00000000000E+00  0.27279668038E+02  0.27279668038E+02  0.00000000000E+00 0. -1.
         -1   -1    0    0    0  501 -0.00000000000E+00 -0.00000000000E+00 -0.76034904618E+03  0.76034904618E+03  0.00000000000E+00 0.  1.
         23    2    1    2    0    0 -0.84531496026E+02 -0.60520405240E+01 -0.52116652461E+03  0.54262739565E+03  0.12509093942E+03 0.  0.
         23    2    1    2    0    0  0.84531496026E+02  0.60520405240E+01 -0.21190285354E+03  0.24500131857E+03  0.89110188801E+02 0.  0.
          5    1    3    3  502    0 -0.27817541269E+02 -0.27344866204E+02 -0.34667239788E+02  0.52353101384E+02  0.41800000000E+01 0.  1.
         -5    1    3    3    0  502 -0.56713954757E+02  0.21292825680E+02 -0.48649928482E+03  0.49027429427E+03  0.41800000000E+01 0.  1.
        -11    1    4    4    0    0  0.14165768554E+02  0.34235490240E+02 -0.12150958693E+03  0.12703274187E+03  0.00000000000E+00 0.  1.
         11    1    4    4    0    0  0.70365727472E+02 -0.28183449716E+02 -0.90393266603E+02  0.11796857670E+03  0.00000000000E+00 0. -1.
</event>
<event>
 8    1  0.4798744E-006  0.2053787E+03  0.7561462E-02  0.1145279E+00
          2   -1    0    0  501    0  0.00000000000E+00  0.00000000000E+00  0.19909317723E+03  0.19909317723E+03  0.00000000000E+00 0. -1.
         -2   -1    0    0    0  501 -0.00000000000E+00 -0.00000000000E+00 -0.23229264552E+03  0.23229264552E+03  0.00000000000E+00 0.  1.
         23    2    1    2    0    0  0.48436166426E+02  0.17212141068E+03 -0.66197601422E+02  0.22804005558E+03  0.12509317441E+03 0.  0.
         23    2    1    2    0    0 -0.48436166426E+02 -0.17212141068E+03  0.32998133130E+02  0.20334576717E+03  0.91042748226E+02 0.  0.
          5    1    3    3  502    0  0.14965410255E+02 -0.17998510461E+02 -0.15577541862E+02  0.28426081217E+02  0.41800000000E+01 0.  1.
         -5    1    3    3    0  502  0.33470756171E+02  0.19011992114E+03 -0.50620059560E+02  0.19961397437E+03  0.41800000000E+01 0.  1.
        -11    1    4    4    0    0 -0.45766861272E+02 -0.37296544412E+02  0.34704146568E+02  0.68483688604E+02  0.00000000000E+00 0. -1.
         11    1    4    4    0    0 -0.26693051537E+01 -0.13482486627E+03 -0.17060134374E+01  0.13486207857E+03  0.00000000000E+00 0.  1.
</event>
<event>
 8    1  0.4798744E-006  0.1419008E+03  0.7561462E-02  0.1210794E+00
         -1   -1    0    0    0  501 -0.00000000000E+00  0.00000000000E+00  0.34782517832E+03  0.34782517832E+03  0.00000000000E+00 0. -1.
          1   -1    0    0  501    0  0.00000000000E+00 -0.00000000000E+00 -0.79849061439E+02  0.79849061439E+02  0.00000000000E+00 0.  1.
         23    2    1    2    0    0  0.39145028142E+02 -0.96132013465E+02  0.23543206388E+03  0.28609662595E+03  0.12509726391E+03 0.  0.
         23    2    1    2    0    0 -0.39145028142E+02  0.96132013465E+02  0.32544053001E+02  0.14157761381E+03  0.90616820209E+02 0.  0.
          5    1    3    3  502    0  0.75092044845E+02 -0.23024203276E+02  0.91535805885E+02  0.12068639233E+03  0.41800000000E+01 0.  1.
         -5    1    3    3    0  502 -0.35947016703E+02 -0.73107810189E+02  0.14389625800E+03  0.16541023362E+03  0.41800000000E+01 0.  1.
        -11    1    4    4    0    0 -0.23945398774E+02 -0.22251715297E+01 -0.17919094207E+02  0.29990455949E+02  0.00000000000E+00 0.  1.
         11    1    4    4    0    0 -0.15199629368E+02  0.98357184994E+02  0.50463147208E+02  0.11158715786E+03  0.00000000000E+00 0. -1.
</event>
<event>
 8    1  0.4798744E-006  0.1914534E+03  0.7561462E-02  0.1157157E+00
         -3   -1    0    0    0  501 -0.00000000000E+00  0.00000000000E+00  0.48381217849E+03  0.48381217849E+03  0.00000000000E+00 0.  1.
          3   -1    0    0  501    0  0.00000000000E+00 -0.00000000000E+00 -0.96501754201E+02  0.96501754201E+02  0.00000000000E+00 0. -1.
         23    2    1    2    0    0  0.17749013934E+03  0.57210579609E+02  0.19555092231E+03  0.29776498280E+03  0.12509205326E+03 0.  0.
         23    2    1    2    0    0 -0.17749013934E+03 -0.57210579609E+02  0.19175950199E+03  0.28254894989E+03  0.91029679236E+02 0.  0.
          5    1    3    3  502    0  0.27899061840E+02 -0.13061563224E+02  0.10449426215E+03  0.10902057286E+03  0.41800000000E+01 0.  1.
         -5    1    3    3    0  502  0.14959107749E+03  0.70272142833E+02  0.91056660156E+02  0.18874440994E+03  0.41800000000E+01 0.  1.
        -11    1    4    4    0    0 -0.11308694371E+03 -0.35516198568E+02  0.17697107871E+03  0.21299957722E+03  0.00000000000E+00 0.  1.
         11    1    4    4    0    0 -0.64403195627E+02 -0.21694381041E+02  0.14788423283E+02  0.69549372671E+02  0.00000000000E+00 0. -1.
</event>
<event>
 8    1  0.4798744E-006  0.1734721E+03  0.7561462E-02  0.1174275E+00
          4   -1    0    0  501    0  0.00000000000E+00  0.00000000000E+00  0.15822323774E+03  0.15822323774E+03  0.00000000000E+00 0. -1.
         -4   -1    0    0    0  501 -0.00000000000E+00 -0.00000000000E+00 -0.24075752111E+03  0.24075752111E+03  0.00000000000E+00 0.  1.
         23    2    1    2    0    0 -0.75807666669E+02  0.12152132418E+03 -0.12081807780E+03  0.22529882239E+03  0.12509323279E+03 0.  0.
         23    2    1    2    0    0  0.75807666669E+02 -0.12152132418E+03  0.38283794432E+02  0.17368193646E+03  0.90473927623E+02 0.  0.
          5    1    3    3  502    0 -0.78747600729E+02  0.25862597894E+02 -0.94879359033E+02  0.12605405095E+03  0.41800000000E+01 0. -1.
         -5    1    3    3    0  502  0.29399340605E+01  0.95658726283E+02 -0.25938718768E+02  0.99244771438E+02  0.41800000000E+01 0. -1.
        -11    1    4    4    0    0  0.64058682952E+02 -0.21680273055E+02  0.25789595924E+02  0.72378535210E+02  0.00000000000E+00 0.  1.
         11    1    4    4    0    0  0.11748983717E+02 -0.99841051123E+02  0.12494198508E+02  0.10130340125E+03  0.00000000000E+00 0. -1.
</event>
<event>
 8    1  0.4798744E-006  0.1216463E+03  0.7561462E-02  0.1240406E+00
         -1   -1    0    0    0  501 -0.00000000000E+00  0.00000000000E+00  0.43523665641E+02  0.43523665641E+02  0.00000000000E+00 0.  1.
          1   -1    0    0  501    0  0.00000000000E+00 -0.00000000000E+00 -0.40473275869E+03  0.40473275869E+03  0.00000000000E+00 0. -1.
         23    2    1    2    0    0  0.65907348892E+02 -0.20060954503E+02 -0.15986886333E+03  0.21436465497E+03  0.12509169159E+03 0.  0.
         23    2    1    2    0    0 -0.65907348892E+02  0.20060954503E+02 -0.20134022972E+03  0.23389176936E+03  0.97063129649E+02 0.  0.
          5    1    3    3  502    0  0.17313679246E+02 -0.67263195620E+02 -0.10992210506E+03  0.13009397586E+03  0.41800000000E+01 0.  1.
         -5    1    3    3    0  502  0.48593669646E+02  0.47202241117E+02 -0.49946758264E+02  0.84270679108E+02  0.41800000000E+01 0.  1.
        -11    1    4    4    0    0  0.17699786988E+02 -0.52862142817E+01 -0.52249913114E+01  0.19197058500E+02  0.00000000000E+00 0.  1.
         11    1    4    4    0    0 -0.83607135879E+02  0.25347168785E+02 -0.19611523841E+03  0.21469471086E+03  0.00000000000E+00 0. -1.
</event>
<event>
 8    1  0.4798744E-006  0.3407209E+03  0.7561462E-02  0.1066489E+00
         -2   -1    0    0    0  501 -0.00000000000E+00  0.00000000000E+00  0.85546198753E+03  0.85546198753E+03  0.00000000000E+00 0.  1.
          2   -1    0    0  501    0  0.00000000000E+00 -0.00000000000E+00 -0.16054744944E+03  0.16054744944E+03  0.00000000000E+00 0. -1.
         23    2    1    2    0    0  0.19808194873E+03 -0.27594748027E+03  0.21306877315E+03  0.42003497733E+03  0.12509040652E+03 0.  0.
         23    2    1    2    0    0 -0.19808194873E+03  0.27594748027E+03  0.48184576494E+03  0.59597445965E+03  0.87331237721E+02 0.  0.
          5    1    3    3  502    0  0.50478943404E+02 -0.47902870696E+02 -0.74667652954E+01  0.70114433123E+02  0.41800000000E+01 0.  1.
         -5    1    3    3    0  502  0.14760300532E+03 -0.22804460957E+03  0.22053553845E+03  0.34992054420E+03  0.41800000000E+01 0.  1.
        -11    1    4    4    0    0 -0.12509847207E+03  0.16099471813E+03  0.21442468307E+03  0.29588320616E+03  0.00000000000E+00 0. -1.
         11    1    4    4    0    0 -0.72983476658E+02  0.11495276214E+03  0.26742108187E+03  0.30009125349E+03  0.00000000000E+00 0.  1.
</event>
<event>
 8    1  0.4798744E-006  0.9677548E+02  0.7561462E-02  0.1287227E+00
         -2   -1    0    0    0  501 -0.00000000000E+00  0.00000000000E+00  0.25651331156E+03  0.25651331156E+03  0.00000000000E+00 0.  1.
          2   -1    0    0  501    0  0.00000000000E+00 -0.00000000000E+00 -0.50591258109E+02  0.50591258109E+02  0.00000000000E+00 0. -1.
         23    2    1    2    0    0 -0.13342494977E+02  0.33593392334E+02  0.12023505884E+03  0.17722962197E+03  0.12508929350E+03 0.  0.
         23    2    1    2    0    0  0.13342494977E+02 -0.33593392334E+02  0.85686994606E+02  0.12987494770E+03  0.90657061579E+02 0.  0.
          5    1    3    3  502    0 -0.19200780755E+02 -0.44589459735E+02  0.28370186372E+02  0.56384659047E+02  0.41800000000E+01 0.  1.
         -5    1    3    3    0  502  0.58582857781E+01  0.78182852068E+02  0.91864872470E+02  0.12084496292E+03  0.41800000000E+01 0.  1.
        -11    1    4    4    0    0 -0.11152025526E+02  0.10852863394E+02  0.76791496046E+02  0.78352320848E+02  0.00000000000E+00 0.  1.
         11    1    4    4    0    0  0.24494520503E+02 -0.44446255728E+02  0.88954985600E+01  0.51522626850E+02  0.00000000000E+00 0. -1.
</event>
<event>
 8    1  0.4798744E-006  0.7692041E+02  0.7561462E-02  0.1338025E+00
          2   -1    0    0  501    0  0.00000000000E+00  0.00000000000E+00  0.70355084781E+03  0.70355084781E+03  0.00000000000E+00 0. -1.
         -2   -1    0    0    0  501 -0.00000000000E+00 -0.00000000000E+00 -0.29249822005E+02  0.29249822005E+02  0.00000000000E+00 0.  1.
         23    2    1    2    0    0 -0.51367293155E+01  0.45418428471E+02  0.15783346314E+03  0.20651475700E+03  0.12509085953E+03 0.  0.
         23    2    1    2    0    0  0.51367293155E+01 -0.45418428471E+02  0.51646756266E+03  0.52628591282E+03  0.90271252976E+02 0.  0.
          5    1    3    3  502    0 -0.11513414461E+01  0.48395335876E+02  0.17842487837E+03  0.18492253443E+03  0.41800000000E+01 0.  1.
         -5    1    3    3    0  502 -0.39853878694E+01 -0.29769074046E+01 -0.20591415226E+02  0.21592222562E+02  0.41800000000E+01 0.  1.
        -11    1    4    4    0    0 -0.15382565824E+02  0.22807092873E+02  0.97611002099E+02  0.10141348307E+03  0.00000000000E+00 0.  1.
         11    1    4    4    0    0  0.20519295140E+02 -0.68225521344E+02  0.41885656056E+03  0.42487242975E+03  0.00000000000E+00 0. -1.
</event>
<event>
 8    1  0.4798744E-006  0.1188009E+03  0.7561462E-02  0.1245088E+00
          1   -1    0    0  501    0  0.00000000000E+00  0.00000000000E+00  0.83562451239E+02  0.83562451239E+02  0.00000000000E+00 0. -1.
         -1   -1    0    0    0  501 -0.00000000000E+00 -0.00000000000E+00 -0.17847735111E+03  0.17847735111E+03  0.00000000000E+00 0.  1.
         23    2    1    2    0    0 -0.26447780599E+02  0.46949934838E+02 -0.69519028714E+02  0.15291926755E+03  0.12509046948E+03 0.  0.
         23    2    1    2    0    0  0.26447780599E+02 -0.46949934838E+02 -0.25395871161E+02  0.10912053481E+03  0.91425157175E+02 0.  0.
          5    1    3    3  502    0  0.43408564599E+02  0.48679927131E+02 -0.25087118614E+02  0.70006247624E+02  0.41800000000E+01 0.  1.
         -5    1    3    3    0  502 -0.69856345198E+02 -0.17299922937E+01 -0.44431910100E+02  0.82913019924E+02  0.41800000000E+01 0.  1.
        -11    1    4    4    0    0 -0.24543161929E+02  0.93678956708E+01 -0.19887321637E+02  0.32948897230E+02  0.00000000000E+00 0.  1.
         11    1    4    4    0    0  0.50990942529E+02 -0.56317830508E+02 -0.55085495241E+01  0.76171637576E+02  0.00000000000E+00 0. -1.
</event>
<event>
 8    1  0.4798744E-006  0.1064176E+03  0.7561462E-02  0.1267351E+00
          1   -1    0    0  501    0  0.00000000000E+00  0.00000000000E+00  0.70762238784E+03  0.70762238784E+03  0.00000000000E+00 0.  1.
         -1   -1    0    0    0  501 -0.00000000000E+00 -0.00000000000E+00 -0.37285647298E+02  0.37285647298E+02  0.00000000000E+00 0. -1.
         23    2    1    2    0    0 -0.46635787406E+02  0.41020873259E+02  0.12329603635E+03  0.18630001777E+03  0.12509266698E+03 0.  0.
         23    2    1    2    0    0  0.46635787406E+02 -0.41020873259E+02  0.54704070419E+03  0.55860801736E+03  0.94508075410E+02 0.  0.
          5    1    3    3  502    0 -0.40813120728E+02 -0.14697107871E+02  0.12260370744E+03  0.13011862772E+03  0.41800000000E+01 0. -1.
         -5    1    3    3    0  502 -0.58226666785E+01  0.55717981130E+02  0.69232891822E+00  0.56181390049E+02  0.41800000000E+01 0. -1.
        -11    1    4    4    0    0 -0.29030485146E+02 -0.17237463383E+02  0.15967479987E+03  0.16320521108E+03  0.00000000000E+00 0. -1.
         11    1    4    4    0    0  0.75666272553E+02 -0.23783409876E+02  0.38736590432E+03  0.39540280628E+03  0.00000000000E+00 0.  1.
</event>
<event>
 8    1  0.4798744E-006  0.1504547E+03  0.7561462E-02  0.1199915E+00
         -3   -1    0    0    0  501 -0.00000000000E+00  0.00000000000E+00  0.17610218677E+03  0.17610218677E+03  0.00000000000E+00 0.  1.
          3   -1    0    0  501    0  0.00000000000E+00 -0.00000000000E+00 -0.20864036474E+03  0.20864036474E+03  0.00000000000E+00 0. -1.
         23    2    1    2    0    0  0.11630855417E+03  0.27674907356E+02  0.92494299004E+02  0.19620381072E+03  0.12508860748E+03 0.  0.
         23    2    1    2    0    0 -0.11630855417E+03 -0.27674907356E+02 -0.12503247697E+03  0.18853874080E+03  0.74967701120E+02 0.  0.
          5    1    3    3  502    0 -0.14314843896E+01  0.41308572591E+02 -0.60797823548E+01  0.41986705879E+02  0.41800000000E+01 0.  1.
         -5    1    3    3    0  502  0.11774003856E+03 -0.13633665235E+02  0.98574081359E+02  0.15421710484E+03  0.41800000000E+01 0.  1.
        -11    1    4    4    0    0  0.73992668517E+01  0.90791935441E+01 -0.14355590554E+02  0.18527382047E+02  0.00000000000E+00 0. -1.
         11    1    4    4    0    0 -0.12370782103E+03 -0.36754100900E+02 -0.11067688642E+03  0.17001135875E+03  0.00000000000E+00 0.  1.
</event>
<event>
 8    1  0.4798744E-006  0.8426354E+02  0.7561462E-02  0.1317370E+00
         -2   -1    0    0    0  501 -0.00000000000E+00  0.00000000000E+00  0.45401258349E+02  0.45401258349E+02  0.00000000000E+00 0.  1.
          2   -1    0    0  501    0  0.00000000000E+00 -0.00000000000E+00 -0.30575679201E+03  0.30575679201E+03  0.00000000000E+00 0. -1.
         23    2    1    2    0    0  0.27221035947E+01 -0.41295802081E+02 -0.77910243200E+02  0.14488307321E+03  0.11492756758E+03 0.  0.
         23    2    1    2    0    0 -0.27221035947E+01  0.41295802081E+02 -0.18244529046E+03  0.20627497715E+03  0.86892629541E+02 0.  0.
          5    1    3    3  502    0 -0.11508117326E+01  0.39342159733E+02 -0.14540831902E+02  0.42166788975E+02  0.41800000000E+01 0. -1.
         -5    1    3    3    0  502  0.38729153272E+01 -0.80637961814E+02 -0.63369411298E+02  0.10271628423E+03  0.41800000000E+01 0.  1.
        -11    1    4    4    0    0  0.98333780432E+01  0.85258229601E+01  0.61838739819E+01  0.14409208108E+02  0.00000000000E+00 0.  1.
         11    1    4    4    0    0 -0.12555481638E+02  0.32769979121E+02 -0.18862916444E+03  0.19186576904E+03  0.00000000000E+00 0. -1.
</event>
<event>
 8    1  0.4798744E-006  0.1611502E+03  0.7561462E-02  0.1187404E+00
         -1   -1    0    0    0  501 -0.00000000000E+00  0.00000000000E+00  0.18320309944E+03  0.18320309944E+03  0.00000000000E+00 0.  1.
          1   -1    0    0  501    0  0.00000000000E+00 -0.00000000000E+00 -0.20854744749E+03  0.20854744749E+03  0.00000000000E+00 0. -1.
         23    2    1    2    0    0 -0.13151551647E+03  0.49176090157E+02  0.68894807872E+02  0.20027077026E+03  0.12508904011E+03 0.  0.
         23    2    1    2    0    0  0.13151551647E+03 -0.49176090157E+02 -0.94239155917E+02  0.19147977667E+03  0.89826874888E+02 0.  0.
          5    1    3    3  502    0 -0.57217440832E+02 -0.20407588849E+02  0.76886001590E+02  0.98077698069E+02  0.41800000000E+01 0.  1.
         -5    1    3    3    0  502 -0.74298075636E+02  0.69583679006E+02 -0.79911937179E+01  0.10219307219E+03  0.41800000000E+01 0.  1.
        -11    1    4    4    0    0 -0.12268208593E+01  0.12921485846E+02  0.56184445430E+01  0.14143436816E+02  0.00000000000E+00 0.  1.
         11    1    4    4    0    0  0.13274233733E+03 -0.62097576002E+02 -0.99857600460E+02  0.17733633986E+03  0.00000000000E+00 0. -1.
</event>
<event>
 8    1  0.4798744E-006  0.1763428E+03  0.7561462E-02  0.1171390E+00
         -1   -1    0    0    0  501 -0.00000000000E+00  0.00000000000E+00  0.13944518544E+03  0.13944518544E+03  0.00000000000E+00 0.  1.
          1   -1    0    0  501    0  0.00000000000E+00 -0.00000000000E+00 -0.30046569917E+03  0.30046569917E+03  0.00000000000E+00 0. -1.
         23    2    1    2    0    0 -0.76615404207E+02 -0.14491587496E+03 -0.19117543839E+02  0.20708375252E+03  0.12509064353E+03 0.  0.
         23    2    1    2    0    0  0.76615404207E+02  0.14491587496E+03 -0.14190296989E+03  0.23282713209E+03  0.84861590800E+02 0.  0.
          5    1    3    3  502    0 -0.43576306995E+01 -0.41917080174E+02  0.48336196151E+02  0.64264226549E+02  0.41800000000E+01 0.  1.
         -5    1    3    3    0  502 -0.72257773508E+02 -0.10299879479E+03 -0.67453739990E+02  0.14281952597E+03  0.41800000000E+01 0.  1.
        -11    1    4    4    0    0 -0.16957030101E+02  0.42319331483E+02 -0.38993719326E+02  0.59991473009E+02  0.00000000000E+00 0. -1.
         11    1    4    4    0    0  0.93572434308E+02  0.10259654348E+03 -0.10290925057E+03  0.17283565908E+03  0.00000000000E+00 0.  1.
</event>
<event>
 8    1  0.4798744E-006  0.1354626E+03  0.7561462E-02  0.1219568E+00
          1   -1    0    0  501    0  0.00000000000E+00  0.00000000000E+00  0.86546018340E+03  0.86546018340E+03  0.00000000000E+00 0. -1.
         -1   -1    0    0    0  501 -0.00000000000E+00 -0.00000000000E+00 -0.33372887884E+02  0.33372887884E+02  0.00000000000E+00 0.  1.
         23    2    1    2    0    0  0.39844267497E+02  0.86691543288E+02  0.20864223767E+03  0.26131695183E+03  0.12510786003E+03 0.  0.
         23    2    1    2    0    0 -0.39844267497E+02 -0.86691543288E+02  0.62344505784E+03  0.63751611945E+03  0.92951993462E+02 0.  0.
          5    1    3    3  502    0 -0.27616947052E+02  0.60265723271E+02  0.16189382876E+03  0.17499067791E+03  0.41800000000E+01 0.  1.
         -5    1    3    3    0  502  0.67461214550E+02  0.26425820018E+02  0.46748408916E+02  0.86326273916E+02  0.41800000000E+01 0.  1.
        -11    1    4    4    0    0  0.40741025963E+01  0.17969875938E+02  0.60542552663E+02  0.63284401207E+02  0.00000000000E+00 0.  1.
         11    1    4    4    0    0 -0.43918370094E+02 -0.10466141923E+03  0.56290250518E+03  0.57423171825E+03  0.00000000000E+00 0. -1.
</event>
<event>
 8    1  0.4798744E-006  0.1224464E+03  0.7561462E-02  0.1239115E+00
          1   -1    0    0  501    0  0.00000000000E+00  0.00000000000E+00  0.56445715226E+03  0.56445715226E+03  0.00000000000E+00 0. -1.
         -1   -1    0    0    0  501 -0.00000000000E+00 -0.00000000000E+00 -0.34410267596E+02  0.34410267596E+02  0.00000000000E+00 0.  1.
         23    2    1    2    0    0  0.21091953690E+02 -0.69338393432E+02  0.18836935894E+03  0.23745243744E+03  0.12509181166E+03 0.  0.
         23    2    1    2    0    0 -0.21091953690E+02  0.69338393432E+02  0.34167752573E+03  0.36141498242E+03  0.92868587889E+02 0.  0.
          5    1    3    3  502    0 -0.42417164255E+02  0.63790400206E+01  0.37949456305E+02  0.57424224931E+02  0.41800000000E+01 0. -1.
         -5    1    3    3    0  502  0.63509117945E+02 -0.75717433453E+02  0.15041990264E+03  0.18002821251E+03  0.41800000000E+01 0. -1.
        -11    1    4    4    0    0 -0.47460120698E+02  0.32272389516E+02  0.98343596181E+02  0.11386585569E+03  0.00000000000E+00 0. -1.
         11    1    4    4    0    0  0.26368167007E+02  0.37066003917E+02  0.24333392954E+03  0.24754912673E+03  0.00000000000E+00 0.  1.
</event>
<event>
 8    1  0.4798744E-006  0.7891693E+02  0.7561462E-02  0.1332153E+00
         -1   -1    0    0    0  501 -0.00000000000E+00  0.00000000000E+00  0.11595090238E+03  0.11595090238E+03  0.00000000000E+00 0.  1.
          1   -1    0    0  501    0  0.00000000000E+00 -0.00000000000E+00 -0.10576204095E+03  0.10576204095E+03  0.00000000000E+00 0. -1.
         23    2    1    2    0    0  0.61209541826E+01 -0.16671770733E+00  0.33665159964E+02  0.12968666055E+03  0.12509113899E+03 0.  0.
         23    2    1    2    0    0 -0.61209541826E+01  0.16671770733E+00 -0.23476298543E+02  0.92026282780E+02  0.88770525819E+02 0.  0.
          5    1    3    3  502    0  0.19053897826E+02  0.52249142244E+02  0.48097564501E+02  0.73646941542E+02  0.41800000000E+01 0.  1.
         -5    1    3    3    0  502 -0.12932943643E+02 -0.52415859951E+02 -0.14432404537E+02  0.56039719007E+02  0.41800000000E+01 0.  1.
        -11    1    4    4    0    0 -0.24916127096E+02 -0.96362599439E+01  0.26568534686E+02  0.37677021253E+02  0.00000000000E+00 0.  1.
         11    1    4    4    0    0  0.18795172913E+02  0.98029776513E+01 -0.50044833229E+02  0.54349261527E+02  0.00000000000E+00 0. -1.
</event>
<event>
 8    1  0.4798744E-006  0.8596986E+02  0.7561462E-02  0.1312916E+00
          2   -1    0    0  501    0  0.00000000000E+00  0.00000000000E+00  0.27653463126E+03  0.27653463126E+03  0.00000000000E+00 0. -1.
         -2   -1    0    0    0  501 -0.00000000000E+00 -0.00000000000E+00 -0.53007584442E+02  0.53007584442E+02  0.00000000000E+00 0.  1.
         23    2    1    2    0    0 -0.48426865089E+02  0.76851761172E+01  0.98189258047E+02  0.16640979853E+03  0.12508743924E+03 0.  0.
         23    2    1    2    0    0  0.48426865089E+02 -0.76851761172E+01  0.12533778877E+03  0.16313241718E+03  0.92186772616E+02 0.  0.
          5    1    3    3  502    0  0.14154643023E+02  0.42229807338E+02 -0.18510695371E+00  0.44734966318E+02  0.41800000000E+01 0. -1.
         -5    1    3    3    0  502 -0.62581508112E+02 -0.34544631220E+02  0.98374365001E+02  0.12167483221E+03  0.41800000000E+01 0. -1.
        -11    1    4    4    0    0  0.94709726954E+01 -0.13210279030E+02 -0.12042077793E+02  0.20229246981E+02  0.00000000000E+00 0.  1.
         11    1    4    4    0    0  0.38955892393E+02  0.55251029129E+01  0.13737986657E+03  0.14290317020E+03  0.00000000000E+00 0. -1.
</event>
<event>
 8    1  0.4798744E-006  0.1094291E+03  0.7561462E-02  0.1261631E+00
         -2   -1    0    0    0  501 -0.00000000000E+00  0.00000000000E+00  0.13194214045E+03  0.13194214045E+03  0.00000000000E+00 0.  1.
          2   -1    0    0  501    0  0.00000000000E+00 -0.00000000000E+00 -0.14586169137E+03  0.14586169137E+03  0.00000000000E+00 0. -1.
         23    2    1    2    0    0 -0.70279623489E+02  0.17085868534E+02  0.30374247139E+02  0.14765389803E+03  0.12509167171E+03 0.  0.
         23    2    1    2    0    0  0.70279623489E+02 -0.17085868534E+02 -0.44293798057E+02  0.13014993379E+03  0.98721387436E+02 0.  0.
          5    1    3    3  502    0 -0.35246931398E+02 -0.30691012685E+02 -0.35589136554E+02  0.58892643627E+02  0.41800000000E+01 0.  1.
         -5    1    3    3    0  502 -0.35032692091E+02  0.47776881219E+02  0.65963383693E+02  0.88761254399E+02  0.41800000000E+01 0.  1.
        -11    1    4    4    0    0  0.47323461672E+02  0.32833883040E+02  0.29680003503E+01  0.57674803217E+02  0.00000000000E+00 0.  1.
         11    1    4    4    0    0  0.22956161817E+02 -0.49919751574E+02 -0.47261798407E+02  0.72475130570E+02  0.00000000000E+00 0. -1.
</event>
<event>
 8    1  0.4798744E-006  0.1032059E+03  0.7561462E-02  0.1273695E+00
          2   -1    0    0  501    0  0.00000000000E+00  0.00000000000E+00  0.83016902706E+03  0.83016902706E+03  0.00000000000E+00 0. -1.
         -2   -1    0    0    0  501 -0.00000000000E+00 -0.00000000000E+00 -0.15221467059E+02  0.15221467059E+02  0.00000000000E+00 0.  1.
         23    2    1    2    0    0 -0.42989427578E+01  0.28973069942E+02  0.48150011203E+03  0.49834532889E+03  0.12509112380E+03 0.  0.
         23    2    1    2    0    0  0.42989427578E+01 -0.28973069942E+02  0.33344744798E+03  0.34704516523E+03  0.91625468390E+02 0.  0.
          5    1    3    3  502    0  0.52148112799E+02  0.16718380013E+02  0.11671186366E+03  0.12898860964E+03  0.41800000000E+01 0. -1.
         -5    1    3    3    0  502 -0.56447055556E+02  0.12254689929E+02  0.36478824837E+03  0.36935671925E+03  0.41800000000E+01 0. -1.
        -11    1    4    4    0    0  0.44976322228E+02 -0.25038574302E+01  0.12067989277E+03  0.12881294727E+03  0.00000000000E+00 0.  1.
         11    1    4    4    0    0 -0.40677379470E+02 -0.26469212511E+02  0.21276755520E+03  0.21823221796E+03  0.00000000000E+00 0. -1.
</event>
<event>
 8    1  0.4798744E-006  0.8787517E+02  0.7561462E-02  0.1308080E+00
         -1   -1    0    0    0  501 -0.00000000000E+00  0.00000000000E+00  0.76801285466E+02  0.76801285466E+02  0.00000000000E+00 0.  1.
          1   -1    0    0  501    0  0.00000000000E+00 -0.00000000000E+00 -0.24577591434E+03  0.24577591434E+03  0.00000000000E+00 0. -1.
         23    2    1    2    0    0  0.49878926626E+02  0.28503956984E+02 -0.21487004505E+02  0.13931318445E+03  0.12508432801E+03 0.  0.
         23    2    1    2    0    0 -0.49878926626E+02 -0.28503956984E+02 -0.14748762437E+03  0.18326401536E+03  0.92372707542E+02 0.  0.
          5    1    3    3  502    0  0.38180481507E+02  0.53653354945E+02 -0.61664373435E+02  0.90312784345E+02  0.41800000000E+01 0. -1.
         -5    1    3    3    0  502  0.11698445118E+02 -0.25149397961E+02  0.40177368930E+02  0.49000400102E+02  0.41800000000E+01 0. -1.
        -11    1    4    4    0    0  0.97536493855E+01 -0.18963758929E+02 -0.11029808582E+03  0.11234066745E+03  0.00000000000E+00 0. -1.
         11    1    4    4    0    0 -0.59632576011E+02 -0.95401980544E+01 -0.37189538556E+02  0.70923347909E+02  0.00000000000E+00 0.  1.
</event>
<event>
 8    1  0.4798744E-006  0.1090938E+03  0.7561462E-02  0.1262257E+00
         -1   -1    0    0    0  501 -0.00000000000E+00  0.00000000000E+00  0.10326518238E+03  0.10326518238E+03  0.00000000000E+00 0.  1.
          1   -1    0    0  501    0  0.00000000000E+00 -0.00000000000E+00 -0.15852102856E+03  0.15852102856E+03  0.00000000000E+00 0. -1.
         23    2    1    2    0    0  0.24508243623E+02  0.29687626996E+01  0.32480376169E+02  0.13157115872E+03  0.12508608001E+03 0.  0.
         23    2    1    2    0    0 -0.24508243623E+02 -0.29687626996E+01 -0.87736222354E+02  0.13021505222E+03  0.92999180396E+02 0.  0.
          5    1    3    3  502    0 -0.16064067933E+02 -0.54357076042E+02  0.99713935254E+01  0.57703094226E+02  0.41800000000E+01 0.  1.
         -5    1    3    3    0  502  0.40572311556E+02  0.57325838741E+02  0.22508982643E+02  0.73868064494E+02  0.41800000000E+01 0.  1.
        -11    1    4    4    0    0  0.20552847800E+02  0.29145690164E+02 -0.56098548221E+02  0.66475092481E+02  0.00000000000E+00 0. -1.
         11    1    4    4    0    0 -0.45061091424E+02 -0.32114452864E+02 -0.31637674133E+02  0.63739959739E+02  0.00000000000E+00 0.  1.
</event>
<event>
 8    1  0.4798744E-006  0.1248428E+03  0.7561462E-02  0.1235315E+00
          2   -1    0    0  501    0  0.00000000000E+00  0.00000000000E+00  0.42392596745E+02  0.42392596745E+02  0.00000000000E+00 0. -1.
         -2   -1    0    0    0  501 -0.00000000000E+00 -0.00000000000E+00 -0.46580710017E+03  0.46580710017E+03  0.00000000000E+00 0.  1.
         23    2    1    2    0    0 -0.61721450588E+01 -0.94558192497E+02 -0.23041923368E+03  0.27878267708E+03  0.12508961047E+03 0.  0.
         23    2    1    2    0    0  0.61721450588E+01  0.94558192497E+02 -0.19299526974E+03  0.22941701983E+03  0.80035290355E+02 0.  0.
          5    1    3    3  502    0  0.16088816644E+02 -0.11697289456E+03 -0.14158079234E+03  0.18440200986E+03  0.41800000000E+01 0. -1.
         -5    1    3    3    0  502 -0.22260961703E+02  0.22414702061E+02 -0.88838441344E+02  0.94380667220E+02  0.41800000000E+01 0. -1.
        -11    1    4    4    0    0 -0.12600187944E+02  0.42695851311E+02 -0.21822192370E+02  0.49577298588E+02  0.00000000000E+00 0. -1.
         11    1    4    4    0    0  0.18772333003E+02  0.51862341186E+02 -0.17117307737E+03  0.17983972124E+03  0.00000000000E+00 0.  1.
</event>
<event>
 8    1  0.4798744E-006  0.9840875E+02  0.7561462E-02  0.1283678E+00
          1   -1    0    0  501    0  0.00000000000E+00  0.00000000000E+00  0.52716113522E+02  0.52716113522E+02  0.00000000000E+00 0. -1.
         -1   -1    0    0    0  501 -0.00000000000E+00 -0.00000000000E+00 -0.22947815327E+03  0.22947815327E+03  0.00000000000E+00 0.  1.
         23    2    1    2    0    0  0.14798120149E+02  0.10900471374E+02 -0.99660259487E+02  0.16098973053E+03  0.12509085250E+03 0.  0.
         23    2    1    2    0    0 -0.14798120149E+02 -0.10900471374E+02 -0.77101780262E+02  0.12120453626E+03  0.91695422214E+02 0.  0.
          5    1    3    3  502    0  0.19084315723E+02 -0.53038292133E+02 -0.70772242683E+02  0.90572922407E+02  0.41800000000E+01 0.  1.
         -5    1    3    3    0  502 -0.42861955747E+01  0.63938763507E+02 -0.28888016804E+02  0.70416808122E+02  0.41800000000E+01 0.  1.
        -11    1    4    4    0    0 -0.44427115961E+02  0.22609920875E+00 -0.79215564290E+01  0.45128381422E+02  0.00000000000E+00 0. -1.
         11    1    4    4    0    0  0.29628995813E+02 -0.11126570582E+02 -0.69180223833E+02  0.76076154841E+02  0.00000000000E+00 0.  1.
</event>
<event>
 8    1  0.4798744E-006  0.3428966E+03  0.7561462E-02  0.1065569E+00
         -2   -1    0    0    0  501 -0.00000000000E+00  0.00000000000E+00  0.34096399770E+03  0.34096399770E+03  0.00000000000E+00 0. -1.
          2   -1    0    0  501    0  0.00000000000E+00 -0.00000000000E+00 -0.36844649372E+03  0.36844649372E+03  0.00000000000E+00 0.  1.
         23    2    1    2    0    0  0.49367743342E+01  0.32481256820E+03 -0.10080637441E+03  0.36240432426E+03  0.12508953960E+03 0.  0.
         23    2    1    2    0    0 -0.49367743342E+01 -0.32481256820E+03  0.73323878398E+02  0.34700616716E+03  0.97515704921E+02 0.  0.
          5    1    3    3  502    0 -0.30220923351E+01 -0.10314521874E+02  0.20921581672E+01  0.11720577178E+02  0.41800000000E+01 0.  1.
         -5    1    3    3    0  502  0.79588666693E+01  0.33512709007E+03 -0.10289853258E+03  0.35068374708E+03  0.41800000000E+01 0.  1.
        -11    1    4    4    0    0  0.35695401828E+02 -0.26054211728E+03  0.52445584588E+02  0.26815461199E+03  0.00000000000E+00 0.  1.
         11    1    4    4    0    0 -0.40632176162E+02 -0.64270450913E+02  0.20878293810E+02  0.78851555170E+02  0.00000000000E+00 0. -1.
</event>
<event>
 8    1  0.4798744E-006  0.5816165E+02  0.7561462E-02  0.1405712E+00
         -2   -1    0    0    0  501 -0.00000000000E+00  0.00000000000E+00  0.28873465067E+02  0.28873465067E+02  0.00000000000E+00 0.  1.
          2   -1    0    0  501    0  0.00000000000E+00 -0.00000000000E+00 -0.41396253185E+03  0.41396253185E+03  0.00000000000E+00 0. -1.
         23    2    1    2    0    0  0.18422583604E+02  0.12506793063E+02 -0.21318096576E+03  0.24817107046E+03  0.12508774756E+03 0.  0.
         23    2    1    2    0    0 -0.18422583604E+02 -0.12506793063E+02 -0.17190810101E+03  0.19466492645E+03  0.88578930552E+02 0.  0.
          5    1    3    3  502    0  0.38493873098E+02  0.60933396824E+01 -0.57328622226E+01  0.39613699194E+02  0.41800000000E+01 0.  1.
         -5    1    3    3    0  502 -0.20071289494E+02  0.64134533804E+01 -0.20744810354E+03  0.20855737127E+03  0.41800000000E+01 0.  1.
        -11    1    4    4    0    0 -0.24709623022E+02 -0.28937876781E+02 -0.17290617855E+03  0.17704381595E+03  0.00000000000E+00 0. -1.
         11    1    4    4    0    0  0.62870394186E+01  0.16431083718E+02  0.99807753855E+00  0.17621110509E+02  0.00000000000E+00 0.  1.
</event>
<event>
 8    1  0.4798744E-006  0.1162440E+03  0.7561462E-02  0.1249425E+00
         -3   -1    0    0    0  501 -0.00000000000E+00  0.00000000000E+00  0.10883480493E+04  0.10883480493E+04  0.00000000000E+00 0.  1.
          3   -1    0    0  501    0  0.00000000000E+00 -0.00000000000E+00 -0.13059084068E+02  0.13059084068E+02  0.00000000000E+00 0. -1.
         23    2    1    2    0    0 -0.43264274510E+02  0.21019465359E+02  0.61698562313E+03  0.63137819569E+03  0.12511415373E+03 0.  0.
         23    2    1    2    0    0  0.43264274510E+02 -0.21019465359E+02  0.45830334213E+03  0.47002893771E+03  0.92583116750E+02 0.  0.
          5    1    3    3  502    0 -0.83795459134E+02 -0.34741586163E+01  0.44948683853E+03  0.45726320557E+03  0.41800000000E+01 0. -1.
         -5    1    3    3    0  502  0.40531184624E+02  0.24493623975E+02  0.16749878460E+03  0.17411499012E+03  0.41800000000E+01 0. -1.
        -11    1    4    4    0    0  0.67513644246E+02  0.19947793511E+01  0.35755139312E+03  0.36387507475E+03  0.00000000000E+00 0.  1.
         11    1    4    4    0    0 -0.24249369735E+02 -0.23014244710E+02  0.10075194901E+03  0.10615386296E+03  0.00000000000E+00 0. -1.
</event>
<event>
 8    1  0.4798744E-006  0.1401502E+03  0.7561462E-02  0.1213127E+00
          1   -1    0    0  501    0  0.00000000000E+00  0.00000000000E+00  0.42327332565E+03  0.42327332565E+03  0.00000000000E+00 0. -1.
         -1   -1    0    0    0  501 -0.00000000000E+00 -0.00000000000E+00 -0.50865035411E+02  0.50865035411E+02  0.00000000000E+00 0.  1.
         23    2    1    2    0    0  0.54146677053E+01  0.93013654927E+02  0.14845227053E+03  0.21532947496E+03  0.12509135674E+03 0.  0.
         23    2    1    2    0    0 -0.54146677053E+01 -0.93013654927E+02  0.22395601971E+03  0.25880888610E+03  0.90249000728E+02 0.  0.
          5    1    3    3  502    0 -0.18155997192E+02  0.11740747257E+03  0.96358294753E+02  0.15302466539E+03  0.41800000000E+01 0.  1.
         -5    1    3    3    0  502  0.23570664897E+02 -0.24393817646E+02  0.52093975779E+02  0.62304809570E+02  0.41800000000E+01 0.  1.
        -11    1    4    4    0    0  0.38254134735E+02 -0.64822435273E+02  0.15641455699E+03  0.17358237404E+03  0.00000000000E+00 0. -1.
         11    1    4    4    0    0 -0.43668802440E+02 -0.28191219654E+02  0.67541462722E+02  0.85226512065E+02  0.00000000000E+00 0.  1.
</event>
<event>
 8    1  0.4798744E-006  0.1335226E+03  0.7561462E-02  0.1222321E+00
          2   -1    0    0  501    0  0.00000000000E+00  0.00000000000E+00  0.23353096146E+03  0.23353096146E+03  0.00000000000E+00 0. -1.
         -2   -1    0    0    0  501 -0.00000000000E+00 -0.00000000000E+00 -0.84509687655E+02  0.84509687655E+02  0.00000000000E+00 0.  1.
         23    2    1    2    0    0  0.57813603095E+02 -0.66031334403E+02  0.64239135580E+02  0.16576047213E+03  0.12508923916E+03 0.  0.
         23    2    1    2    0    0 -0.57813603095E+02  0.66031334403E+02  0.84782138220E+02  0.15228017698E+03  0.91097154262E+02 0.  0.
          5    1    3    3  502    0  0.87345114834E+02 -0.79746135304E+02  0.39894150891E+02  0.12489047544E+03  0.41800000000E+01 0.  1.
         -5    1    3    3    0  502 -0.29531511739E+02  0.13714800901E+02  0.24344984689E+02  0.40869996683E+02  0.41800000000E+01 0.  1.
        -11    1    4    4    0    0 -0.43741093341E+02 -0.44781530222E+01  0.63609936826E+02  0.77327622259E+02  0.00000000000E+00 0. -1.
         11    1    4    4    0    0 -0.14072509754E+02  0.70509487425E+02  0.21172201394E+02  0.74952554724E+02  0.00000000000E+00 0.  1.
</event>
<event>
 8    1  0.4798744E-006  0.1160965E+03  0.7561462E-02  0.1249679E+00
          1   -1    0    0  501    0  0.00000000000E+00  0.00000000000E+00  0.27154492007E+03  0.27154492007E+03  0.00000000000E+00 0. -1.
         -1   -1    0    0    0  501 -0.00000000000E+00 -0.00000000000E+00 -0.61152584841E+02  0.61152584841E+02  0.00000000000E+00 0.  1.
         23    2    1    2    0    0  0.59135339149E+02 -0.37117333052E+02  0.11153218452E+03  0.18155043226E+03  0.12508575666E+03 0.  0.
         23    2    1    2    0    0 -0.59135339149E+02  0.37117333052E+02  0.98860150711E+02  0.15114707265E+03  0.90539623504E+02 0.  0.
          5    1    3    3  502    0  0.95640295208E+02 -0.42100945824E+02  0.93653909495E+02  0.14038547956E+03  0.41800000000E+01 0.  1.
         -5    1    3    3    0  502 -0.36504956059E+02  0.49836127720E+01  0.17878275025E+02  0.41164952702E+02  0.41800000000E+01 0.  1.
        -11    1    4    4    0    0  0.65810539922E+01  0.22185914356E+02 -0.82769918887E+01  0.24577096293E+02  0.00000000000E+00 0.  1.
         11    1    4    4    0    0 -0.65716393141E+02  0.14931418696E+02  0.10713714260E+03  0.12656997636E+03  0.00000000000E+00 0. -1.
</event>
<event>
 8    1  0.4798744E-006  0.6911786E+02  0.7561462E-02  0.1363119E+00
         -1   -1    0    0    0  501 -0.00000000000E+00  0.00000000000E+00  0.59481863855E+03  0.59481863855E+03  0.00000000000E+00 0.  1.
          1   -1    0    0  501    0  0.00000000000E+00 -0.00000000000E+00 -0.40237772254E+02  0.40237772254E+02  0.00000000000E+00 0. -1.
         23    2    1    2    0    0 -0.18520581991E+02 -0.83608620992E+01  0.51837360814E+03  0.53363940463E+03  0.12508757166E+03 0.  0.
         23    2    1    2    0    0  0.18520581991E+02  0.83608620992E+01  0.36207258155E+02  0.10141700617E+03  0.92528523309E+02 0.  0.
          5    1    3    3  502    0 -0.18428874270E+02  0.31464495106E+02  0.42797080547E+02  0.56379964194E+02  0.41800000000E+01 0. -1.
         -5    1    3    3    0  502 -0.91707721050E-01 -0.39825357205E+02  0.47557652760E+03  0.47725944044E+03  0.41800000000E+01 0. -1.
        -11    1    4    4    0    0  0.15935238658E+02 -0.24117989457E+02 -0.20898642793E+02  0.35670190876E+02  0.00000000000E+00 0. -1.
         11    1    4    4    0    0  0.25853433331E+01  0.32478851557E+02  0.57105900948E+02  0.65746815297E+02  0.00000000000E+00 0.  1.
</event>
<event>
 8    1  0.4798744E-006  0.1337129E+03  0.7561462E-02  0.1222048E+00
          2   -1    0    0  501    0  0.00000000000E+00  0.00000000000E+00  0.13616266702E+03  0.13616266702E+03  0.00000000000E+00 0.  1.
         -2   -1    0    0    0  501 -0.00000000000E+00 -0.00000000000E+00 -0.16644773667E+03  0.16644773667E+03  0.00000000000E+00 0. -1.
         23    2    1    2    0    0  0.68458055320E+02 -0.45233614898E+02 -0.82425308778E+02  0.17080852610E+03  0.12509610627E+03 0.  0.
         23    2    1    2    0    0 -0.68458055320E+02  0.45233614898E+02  0.52140239131E+02  0.13180187760E+03  0.88997444604E+02 0.  0.
          5    1    3    3  502    0  0.99892613262E+02 -0.75250071167E+01 -0.57743276854E+02  0.11570185106E+03  0.41800000000E+01 0. -1.
         -5    1    3    3    0  502 -0.31434557942E+02 -0.37708607781E+02 -0.24682031924E+02  0.55106675038E+02  0.41800000000E+01 0. -1.
        -11    1    4    4    0    0 -0.11453580157E+02 -0.24963319641E+02  0.92816152651E-01  0.27465622890E+02  0.00000000000E+00 0. -1.
         11    1    4    4    0    0 -0.57004475162E+02  0.70196934539E+02  0.52047422978E+02  0.10433625470E+03  0.00000000000E+00 0.  1.
</event>
<event>
 8    1  0.4798744E-006  0.1246623E+03  0.7561462E-02  0.1235598E+00
          1   -1    0    0  501    0  0.00000000000E+00  0.00000000000E+00  0.11016131094E+03  0.11016131094E+03  0.00000000000E+00 0. -1.
         -1   -1    0    0    0  501 -0.00000000000E+00 -0.00000000000E+00 -0.22427465023E+03  0.22427465023E+03  0.00000000000E+00 0.  1.
         23    2    1    2    0    0  0.97222868211E+02  0.33969555320E+01 -0.12482191288E+03  0.20172229222E+03  0.12509015882E+03 0.  0.
         23    2    1    2    0    0 -0.97222868211E+02 -0.33969555320E+01  0.10708573591E+02  0.13271366896E+03  0.89634920481E+02 0.  0.
          5    1    3    3  502    0 -0.16858980847E+02  0.30075919109E+02 -0.68399436016E+01  0.35398352701E+02  0.41800000000E+01 0.  1.
         -5    1    3    3    0  502  0.11408184906E+03 -0.26678963577E+02 -0.11798196928E+03  0.16632393952E+03  0.41800000000E+01 0.  1.
        -11    1    4    4    0    0 -0.61194533649E+02 -0.26881775313E+00  0.50210609934E+02  0.79157744798E+02  0.00000000000E+00 0. -1.
         11    1    4    4    0    0 -0.36028334562E+02 -0.31281377789E+01 -0.39502036343E+02  0.53555924159E+02  0.00000000000E+00 0.  1.
</event>
<event>
 8    1  0.4798744E-006  0.4085379E+03  0.7561462E-02  0.1040863E+00
         -1   -1    0    0    0  501 -0.00000000000E+00  0.00000000000E+00  0.50142056004E+03  0.50142056004E+03  0.00000000000E+00 0.  1.
          1   -1    0    0  501    0  0.00000000000E+00 -0.00000000000E+00 -0.37345082418E+03  0.37345082418E+03  0.00000000000E+00 0. -1.
         23    2    1    2    0    0  0.37793658138E+03 -0.14493151919E+03  0.17272547858E+03  0.45751710995E+03  0.12508641071E+03 0.  0.
         23    2    1    2    0    0 -0.37793658138E+03  0.14493151919E+03 -0.44755742721E+02  0.41735427428E+03  0.91325291940E+02 0.  0.
          5    1    3    3  502    0  0.24621687231E+02 -0.11508256019E+02  0.55689352045E+02  0.62108322871E+02  0.41800000000E+01 0.  1.
         -5    1    3    3    0  502  0.35331489415E+03 -0.13342326317E+03  0.11703612654E+03  0.39540878708E+03  0.41800000000E+01 0.  1.
        -11    1    4    4    0    0 -0.23953865802E+03  0.13038790968E+03 -0.53481714973E+02  0.27792097710E+03  0.00000000000E+00 0. -1.
         11    1    4    4    0    0 -0.13839792337E+03  0.14543609505E+02  0.87259722520E+01  0.13943329717E+03  0.00000000000E+00 0.  1.
</event>
<event>
 8    1  0.4798744E-006  0.1394343E+03  0.7561462E-02  0.1214092E+00
         -2   -1    0    0    0  501 -0.00000000000E+00  0.00000000000E+00  0.55979112545E+02  0.55979112545E+02  0.00000000000E+00 0.  1.
          2   -1    0    0  501    0  0.00000000000E+00 -0.00000000000E+00 -0.46702334097E+03  0.46702334097E+03  0.00000000000E+00 0. -1.
         23    2    1    2    0    0 -0.22690371030E+02  0.10789174280E+03 -0.14573286475E+03  0.22144986329E+03  0.12508594238E+03 0.  0.
         23    2    1    2    0    0  0.22690371030E+02 -0.10789174280E+03 -0.26531136368E+03  0.30155259023E+03  0.91588011649E+02 0.  0.
          5    1    3    3  502    0 -0.46577171503E+02 -0.18533856654E+01 -0.75777038600E+02  0.89064582874E+02  0.41800000000E+01 0.  1.
         -5    1    3    3    0  502  0.23886800473E+02  0.10974512846E+03 -0.69955826152E+02  0.13238528041E+03  0.41800000000E+01 0.  1.
        -11    1    4    4    0    0  0.34924711686E+02 -0.53255106985E+02 -0.55747524668E+02  0.84638220757E+02  0.00000000000E+00 0.  1.
         11    1    4    4    0    0 -0.12234340656E+02 -0.54636635811E+02 -0.20956383901E+03  0.21691436947E+03  0.00000000000E+00 0. -1.
</event>
<event>
 8    1  0.4798744E-006  0.1067866E+03  0.7561462E-02  0.1266639E+00
         -1   -1    0    0    0  501 -0.00000000000E+00  0.00000000000E+00  0.10619524513E+03  0.10619524513E+03  0.00000000000E+00 0.  1.
          1   -1    0    0  501    0  0.00000000000E+00 -0.00000000000E+00 -0.13424989722E+03  0.13424989722E+03  0.00000000000E+00 0. -1.
         23    2    1    2    0    0  0.55555376708E+02  0.71264569489E+01  0.41081580945E+01  0.13712228251E+03  0.12509379333E+03 0.  0.
         23    2    1    2    0    0 -0.55555376708E+02 -0.71264569489E+01 -0.32162810181E+02  0.10332285983E+03  0.80647261179E+02 0.  0.
          5    1    3    3  502    0  0.26779596776E+02 -0.55580840363E+02 -0.18251700081E+02  0.64474596352E+02  0.41800000000E+01 0.  1.
         -5    1    3    3    0  502  0.28775779932E+02  0.62707297312E+02  0.22359858176E+02  0.72647686160E+02  0.41800000000E+01 0.  1.
        -11    1    4    4    0    0  0.11274738900E+02  0.83329422881E+01 -0.31771013499E+02  0.34726862271E+02  0.00000000000E+00 0. -1.
         11    1    4    4    0    0 -0.66830115608E+02 -0.15459399237E+02 -0.39179668223E+00  0.68595997562E+02  0.00000000000E+00 0.  1.
</event>
<event>
 8    1  0.4798744E-006  0.9551114E+02  0.7561462E-02  0.1290029E+00
          1   -1    0    0  501    0  0.00000000000E+00  0.00000000000E+00  0.34153612332E+02  0.34153612332E+02  0.00000000000E+00 0. -1.
         -1   -1    0    0    0  501 -0.00000000000E+00 -0.00000000000E+00 -0.48296383249E+03  0.48296383249E+03  0.00000000000E+00 0.  1.
         23    2    1    2    0    0 -0.23935510278E+02 -0.63309509498E+02 -0.29799408208E+03  0.33019625729E+03  0.12509233680E+03 0.  0.
         23    2    1    2    0    0  0.23935510278E+02  0.63309509498E+02 -0.15081613808E+03  0.18692118754E+03  0.87252622882E+02 0.  0.
          5    1    3    3  502    0  0.51763539297E+01 -0.46081169874E+02 -0.20936276002E+02  0.51049671006E+02  0.41800000000E+01 0. -1.
         -5    1    3    3    0  502 -0.29111864208E+02 -0.17228339623E+02 -0.27705780608E+03  0.27914658628E+03  0.41800000000E+01 0. -1.
        -11    1    4    4    0    0  0.49102613306E+02  0.68891374698E+02 -0.11321901568E+03  0.14133518194E+03  0.00000000000E+00 0.  1.
         11    1    4    4    0    0 -0.25167103028E+02 -0.55818652001E+01 -0.37597122401E+02  0.45586005602E+02  0.00000000000E+00 0. -1.
</event>
<event>
 8    1  0.4798744E-006  0.9544512E+02  0.7561462E-02  0.1290177E+00
          2   -1    0    0  501    0  0.00000000000E+00  0.00000000000E+00  0.81961688026E+03  0.81961688026E+03  0.00000000000E+00 0. -1.
         -2   -1    0    0    0  501 -0.00000000000E+00 -0.00000000000E+00 -0.15573685158E+02  0.15573685158E+02  0.00000000000E+00 0.  1.
         23    2    1    2    0    0 -0.69650883469E+01 -0.36135686103E+01  0.34831376477E+03  0.37017801468E+03  0.12509082095E+03 0.  0.
         23    2    1    2    0    0  0.69650883469E+01  0.36135686103E+01  0.45572943033E+03  0.46501255074E+03  0.92118338804E+02 0.  0.
          5    1    3    3  502    0 -0.16773929534E+02 -0.49739387310E+02  0.68568438753E+02  0.86455043549E+02  0.41800000000E+01 0. -1.
         -5    1    3    3    0  502  0.98088411866E+01  0.46125818700E+02  0.27974532602E+03  0.28372297113E+03  0.41800000000E+01 0. -1.
        -11    1    4    4    0    0  0.37928751801E+02 -0.27612414067E+02  0.19245650345E+03  0.19809225463E+03  0.00000000000E+00 0.  1.
         11    1    4    4    0    0 -0.30963663454E+02  0.31225982677E+02  0.26327292688E+03  0.26692029611E+03  0.00000000000E+00 0. -1.
</event>
<event>
 8    1  0.6332456E-006  0.1451784E+03  0.7561462E-02  0.1206526E+00
          4   -1    0    0  501    0  0.00000000000E+00  0.00000000000E+00  0.11086576955E+03  0.11086576955E+03  0.00000000000E+00 0. -1.
         -4   -1    0    0    0  501 -0.00000000000E+00 -0.00000000000E+00 -0.19369403625E+03  0.19369403625E+03  0.00000000000E+00 0.  1.
         23    2    1    2    0    0 -0.97021019211E+02  0.15278169737E+02 -0.63395743728E+02  0.17121094609E+03  0.12509063553E+03 0.  0.
         23    2    1    2    0    0  0.97021019211E+02 -0.15278169737E+02 -0.19432522969E+02  0.13334885972E+03  0.88078344672E+02 0.  0.
          5    1    3    3  502    0 -0.38230198253E+02  0.68843937601E+02 -0.24492439479E+02  0.82573529624E+02  0.41800000000E+01 0. -1.
         -5    1    3    3    0  502 -0.58790820958E+02 -0.53565767863E+02 -0.38903304249E+02  0.88637416463E+02  0.41800000000E+01 0. -1.
        -11    1    4    4    0    0  0.56035848380E+02 -0.52281146223E+02 -0.13433824311E+02  0.77806183493E+02  0.00000000000E+00 0.  1.
         11    1    4    4    0    0  0.40985170831E+02  0.37002976486E+02 -0.59986986586E+01  0.55542676227E+02  0.00000000000E+00 0. -1.
</event>
<event>
 8    1  0.4798744E-006  0.9417267E+02  0.7561462E-02  0.1293050E+00
          1   -1    0    0  501    0  0.00000000000E+00  0.00000000000E+00  0.52795617566E+03  0.52795617566E+03  0.00000000000E+00 0. -1.
         -1   -1    0    0    0  501 -0.00000000000E+00 -0.00000000000E+00 -0.26199312937E+02  0.26199312937E+02  0.00000000000E+00 0.  1.
         23    2    1    2    0    0 -0.56521475888E+01  0.33705150152E+02  0.20912333494E+03  0.24606476288E+03  0.12508922574E+03 0.  0.
         23    2    1    2    0    0  0.56521475888E+01 -0.33705150152E+02  0.29263352779E+03  0.30809072572E+03  0.90097334980E+02 0.  0.
          5    1    3    3  502    0  0.14233362977E+02  0.59992264082E+02  0.20310505075E+03  0.21229883281E+03  0.41800000000E+01 0.  1.
         -5    1    3    3    0  502 -0.19885510566E+02 -0.26287113930E+02  0.60182841921E+01  0.33765930075E+02  0.41800000000E+01 0.  1.
        -11    1    4    4    0    0 -0.34912422123E+02  0.72717451910E+01  0.15134619482E+03  0.15549091993E+03  0.00000000000E+00 0.  1.
         11    1    4    4    0    0  0.40564569712E+02 -0.40976895343E+02  0.14128733297E+03  0.15259980579E+03  0.00000000000E+00 0. -1.
</event>
<event>
 8    1  0.4798744E-006  0.1477910E+03  0.7561462E-02  0.1203214E+00
          3   -1    0    0  501    0  0.00000000000E+00  0.00000000000E+00  0.47570810984E+02  0.47570810984E+02  0.00000000000E+00 0. -1.
         -3   -1    0    0    0  501 -0.00000000000E+00 -0.00000000000E+00 -0.48722740844E+03  0.48722740844E+03  0.00000000000E+00 0.  1.
         23    2    1    2    0    0 -0.10454213627E+03  0.23948852030E+02 -0.24278565485E+03  0.29343292050E+03  0.12512153636E+03 0.  0.
         23    2    1    2    0    0  0.10454213627E+03 -0.23948852030E+02 -0.19687094261E+03  0.24136529893E+03  0.89422780734E+02 0.  0.
          5    1    3    3  502    0 -0.12725475781E+03 -0.11428777493E+01 -0.16433336879E+03  0.20788941304E+03  0.41800000000E+01 0.  1.
         -5    1    3    3    0  502  0.22712621539E+02  0.25091729780E+02 -0.78452286058E+02  0.85543507458E+02  0.41800000000E+01 0.  1.
        -11    1    4    4    0    0  0.35944236759E+00  0.20772875397E+02 -0.10650898874E+02  0.23347016895E+02  0.00000000000E+00 0. -1.
         11    1    4    4    0    0  0.10418269390E+03 -0.44721727427E+02 -0.18622004373E+03  0.21801828203E+03  0.00000000000E+00 0.  1.
</event>
<event>
 8    1  0.4798744E-006  0.1245937E+03  0.7561462E-02  0.1235706E+00
         -1   -1    0    0    0  501 -0.00000000000E+00  0.00000000000E+00  0.22953094890E+03  0.22953094890E+03  0.00000000000E+00 0.  1.
          1   -1    0    0  501    0  0.00000000000E+00 -0.00000000000E+00 -0.90277393173E+02  0.90277393173E+02  0.00000000000E+00 0. -1.
         23    2    1    2    0    0 -0.67151043875E+02  0.33123818539E+02  0.13905132503E+03  0.20147326883E+03  0.12509898886E+03 0.  0.
         23    2    1    2    0    0  0.67151043875E+02 -0.33123818539E+02  0.20223070132E+00  0.11833507324E+03  0.91633501592E+02 0.  0.
          5    1    3    3  502    0 -0.20337397372E+02  0.77984070815E+02  0.81113707557E+02  0.11442041333E+03  0.41800000000E+01 0. -1.
         -5    1    3    3    0  502 -0.46813646503E+02 -0.44860252275E+02  0.57937617470E+02  0.87052855503E+02  0.41800000000E+01 0. -1.
        -11    1    4    4    0    0  0.28452667971E+02  0.22137485362E+02  0.27719402078E+02  0.45475134133E+02  0.00000000000E+00 0.  1.
         11    1    4    4    0    0  0.38698375904E+02 -0.55261303901E+02 -0.27517171377E+02  0.72859939110E+02  0.00000000000E+00 0. -1.
</event>
<event>
 8    1  0.4798744E-006  0.1209261E+03  0.7561462E-02  0.1241577E+00
         -2   -1    0    0    0  501 -0.00000000000E+00  0.00000000000E+00  0.20959917752E+03  0.20959917752E+03  0.00000000000E+00 0.  1.
          2   -1    0    0  501    0  0.00000000000E+00 -0.00000000000E+00 -0.12565937284E+03  0.12565937284E+03  0.00000000000E+00 0. -1.
         23    2    1    2    0    0  0.73176207775E+02  0.59637903298E+02  0.12177181652E+03  0.19845919661E+03  0.12508493325E+03 0.  0.
         23    2    1    2    0    0 -0.73176207775E+02 -0.59637903298E+02 -0.37832011837E+02  0.13679935376E+03  0.91495164768E+02 0.  0.
          5    1    3    3  502    0  0.29256497944E+01  0.35772669617E+02  0.11870683203E+03  0.12408476010E+03  0.41800000000E+01 0.  1.
         -5    1    3    3    0  502  0.70250557980E+02  0.23865233681E+02  0.30649844846E+01  0.74374436503E+02  0.41800000000E+01 0.  1.
        -11    1    4    4    0    0 -0.72289994598E+02 -0.53031085097E+00 -0.22830799378E+02  0.75811410413E+02  0.00000000000E+00 0.  1.
         11    1    4    4    0    0 -0.88621317665E+00 -0.59107592447E+02 -0.15001212458E+02  0.60987943349E+02  0.00000000000E+00 0. -1.
</event>
<event>
 8    1  0.4798744E-006  0.1337678E+03  0.7561462E-02  0.1221970E+00
         -1   -1    0    0    0  501 -0.00000000000E+00  0.00000000000E+00  0.91082426166E+03  0.91082426166E+03  0.00000000000E+00 0.  1.
          1   -1    0    0  501    0  0.00000000000E+00 -0.00000000000E+00 -0.24306094047E+02  0.24306094047E+02  0.00000000000E+00 0. -1.
         23    2    1    2    0    0 -0.75383316728E+02  0.42584774564E+02  0.65776223819E+03  0.67512575898E+03  0.12509005152E+03 0.  0.
         23    2    1    2    0    0  0.75383316728E+02 -0.42584774564E+02  0.22875592942E+03  0.26000459672E+03  0.88187343790E+02 0.  0.
          5    1    3    3  502    0 -0.51239918005E+02 -0.37101927289E+02  0.19917409456E+03  0.20902122990E+03  0.41800000000E+01 0.  1.
         -5    1    3    3    0  502 -0.24143398723E+02  0.79686701852E+02  0.45858814363E+03  0.46610452908E+03  0.41800000000E+01 0.  1.
        -11    1    4    4    0    0 -0.18513385625E+02 -0.11792296595E+02  0.66472236217E+02  0.70002584910E+02  0.00000000000E+00 0.  1.
         11    1    4    4    0    0  0.93896702353E+02 -0.30792477969E+02  0.16228369320E+03  0.19000201181E+03  0.00000000000E+00 0. -1.
</event>
<event>
 8    1  0.4798744E-006  0.9162452E+02  0.7561462E-02  0.1298965E+00
         -1   -1    0    0    0  501 -0.00000000000E+00  0.00000000000E+00  0.30356574950E+02  0.30356574950E+02  0.00000000000E+00 0.  1.
          1   -1    0    0  501    0  0.00000000000E+00 -0.00000000000E+00 -0.49297634003E+03  0.49297634003E+03  0.00000000000E+00 0. -1.
         23    2    1    2    0    0  0.25193298937E+01 -0.47354080172E+02 -0.19080612690E+03  0.23303096987E+03  0.12509076275E+03 0.  0.
         23    2    1    2    0    0 -0.25193298937E+01  0.47354080172E+02 -0.27181363818E+03  0.29030194511E+03  0.90243057900E+02 0.  0.
          5    1    3    3  502    0  0.46233816636E+02 -0.18518364870E+02 -0.16885123326E+03  0.17609289313E+03  0.41800000000E+01 0.  1.
         -5    1    3    3    0  502 -0.43714486742E+02 -0.28835715302E+02 -0.21954893634E+02  0.56938076738E+02  0.41800000000E+01 0.  1.
        -11    1    4    4    0    0  0.30968094926E+02  0.29566691456E+02 -0.52552677461E+02  0.67786400224E+02  0.00000000000E+00 0.  1.
         11    1    4    4    0    0 -0.33487424820E+02  0.17787388716E+02 -0.21926096072E+03  0.22251554488E+03  0.00000000000E+00 0. -1.
</event>
<event>
 8    1  0.4798744E-006  0.4236983E+03  0.7561462E-02  0.1035869E+00
         -2   -1    0    0    0  501 -0.00000000000E+00  0.00000000000E+00  0.97835550166E+03  0.97835550166E+03  0.00000000000E+00 0.  1.
          2   -1    0    0  501    0  0.00000000000E+00 -0.00000000000E+00 -0.40611980022E+03  0.40611980022E+03  0.00000000000E+00 0. -1.
         23    2    1    2    0    0  0.21486995639E+03 -0.34936177827E+03  0.79922348475E+03  0.90698922068E+03  0.12509403493E+03 0.  0.
         23    2    1    2    0    0 -0.21486995639E+03  0.34936177827E+03 -0.22698778332E+03  0.47748608120E+03  0.90811638538E+02 0.  0.
          5    1    3    3  502    0  0.21168770948E+03 -0.24547824188E+03  0.62527258744E+03  0.70431139036E+03  0.41800000000E+01 0. -1.
         -5    1    3    3    0  502  0.31822469036E+01 -0.10388353639E+03  0.17395089731E+03  0.20267783032E+03  0.41800000000E+01 0. -1.
        -11    1    4    4    0    0 -0.19839193440E+03  0.25332043575E+03 -0.16093961541E+03  0.35976681700E+03  0.00000000000E+00 0. -1.
         11    1    4    4    0    0 -0.16478021987E+02  0.96041342518E+02 -0.66048167903E+02  0.11771926420E+03  0.00000000000E+00 0.  1.
</event>
<event>
 8    1  0.4798744E-006  0.4355014E+03  0.7561462E-02  0.1032136E+00
         -2   -1    0    0    0  501 -0.00000000000E+00  0.00000000000E+00  0.21515130402E+03  0.21515130402E+03  0.00000000000E+00 0.  1.
          2   -1    0    0  501    0  0.00000000000E+00 -0.00000000000E+00 -0.90544663437E+03  0.90544663437E+03  0.00000000000E+00 0. -1.
         23    2    1    2    0    0  0.42643357395E+03  0.13916415478E+02 -0.39526231020E+03  0.59490920087E+03  0.12508158860E+03 0.  0.
         23    2    1    2    0    0 -0.42643357395E+03 -0.13916415478E+02 -0.29503302015E+03  0.52568873752E+03  0.85234418893E+02 0.  0.
          5    1    3    3  502    0  0.13142606975E+03 -0.47646937004E+02 -0.92333832930E+02  0.16758893615E+03  0.41800000000E+01 0. -1.
         -5    1    3    3    0  502  0.29500750421E+03  0.61563352482E+02 -0.30292847727E+03  0.42732026473E+03  0.41800000000E+01 0. -1.
        -11    1    4    4    0    0 -0.15135234173E+03  0.19681795409E+02 -0.66490142165E+02  0.16648075992E+03  0.00000000000E+00 0.  1.
         11    1    4    4    0    0 -0.27508123222E+03 -0.33598210886E+02 -0.22854287798E+03  0.35920797760E+03  0.00000000000E+00 0. -1.
</event>
<event>
 8    1  0.4798744E-006  0.9580161E+02  0.7561462E-02  0.1289381E+00
         -4   -1    0    0    0  501 -0.00000000000E+00  0.00000000000E+00  0.97469689018E+03  0.97469689018E+03  0.00000000000E+00 0.  1.
          4   -1    0    0  501    0  0.00000000000E+00 -0.00000000000E+00 -0.20931547644E+02  0.20931547644E+02  0.00000000000E+00 0. -1.
         23    2    1    2    0    0  0.49912878826E+02 -0.25764867325E+02  0.77799461404E+03  0.78998670208E+03  0.12509294998E+03 0.  0.
         23    2    1    2    0    0 -0.49912878826E+02  0.25764867325E+02  0.17577072850E+03  0.20564173575E+03  0.90763707624E+02 0.  0.
          5    1    3    3  502    0  0.12027524413E+02 -0.48598326873E+02  0.68586766840E+03  0.68770516187E+03  0.41800000000E+01 0. -1.
         -5    1    3    3    0  502  0.37885354413E+02  0.22833459548E+02  0.92126945644E+02  0.10228154021E+03  0.41800000000E+01 0. -1.
        -11    1    4    4    0    0  0.11727370940E+02  0.32856175047E+02  0.25944802049E+02  0.43476340937E+02  0.00000000000E+00 0. -1.
         11    1    4    4    0    0 -0.61640249765E+02 -0.70913077218E+01  0.14982592645E+03  0.16216539481E+03  0.00000000000E+00 0.  1.
</event>
<event>
 8    1  0.4798744E-006  0.2254684E+03  0.7561462E-02  0.1129871E+00
         -2   -1    0    0    0  501 -0.00000000000E+00  0.00000000000E+00  0.11415349675E+04  0.11415349675E+04  0.00000000000E+00 0.  1.
          2   -1    0    0  501    0  0.00000000000E+00 -0.00000000000E+00 -0.48389258679E+02  0.48389258679E+02  0.00000000000E+00 0. -1.
         23    2    1    2    0    0  0.20204099512E+03 -0.57044274842E+01  0.68363039250E+03  0.72377583449E+03  0.12509132998E+03 0.  0.
         23    2    1    2    0    0 -0.20204099512E+03  0.57044274842E+01  0.40951531636E+03  0.46614839173E+03  0.93479540950E+02 0.  0.
          5    1    3    3  502    0  0.20243520656E+02  0.38554165851E+02  0.72955620040E+02  0.85065966922E+02  0.41800000000E+01 0. -1.
         -5    1    3    3    0  502  0.18179747447E+03 -0.44258593335E+02  0.61067477246E+03  0.63870986757E+03  0.41800000000E+01 0. -1.
        -11    1    4    4    0    0 -0.16663796047E+03 -0.30492641091E+02  0.28231219587E+03  0.32923879930E+03  0.00000000000E+00 0.  1.
         11    1    4    4    0    0 -0.35403034656E+02  0.36197068575E+02  0.12720312049E+03  0.13690959243E+03  0.00000000000E+00 0. -1.
</event>
<event>
 8    1  0.4798744E-006  0.1226680E+03  0.7561462E-02  0.1238759E+00
         -1   -1    0    0    0  501 -0.00000000000E+00  0.00000000000E+00  0.52696556360E+03  0.52696556360E+03  0.00000000000E+00 0.  1.
          1   -1    0    0  501    0  0.00000000000E+00 -0.00000000000E+00 -0.73951073080E+02  0.73951073080E+02  0.00000000000E+00 0. -1.
         23    2    1    2    0    0 -0.56598036300E+02  0.87156258229E+01  0.47071817872E+03  0.49040992110E+03  0.12508791743E+03 0.  0.
         23    2    1    2    0    0  0.56598036300E+02 -0.87156258229E+01 -0.17703688205E+02  0.11050671558E+03  0.92838643705E+02 0.  0.
          5    1    3    3  502    0 -0.82474656836E+02  0.43254492092E+02  0.29267037377E+03  0.30715865638E+03  0.41800000000E+01 0.  1.
         -5    1    3    3    0  502  0.25876620536E+02 -0.34538866269E+02  0.17804780496E+03  0.18325126472E+03  0.41800000000E+01 0.  1.
        -11    1    4    4    0    0  0.56177686700E+02 -0.45300494788E+02 -0.15760539256E+02  0.73867867904E+02  0.00000000000E+00 0.  1.
         11    1    4    4    0    0  0.42034959970E+00  0.36584868965E+02 -0.19431489495E+01  0.36638847673E+02  0.00000000000E+00 0. -1.
</event>
<event>
 8    1  0.4798744E-006  0.1031453E+03  0.7561462E-02  0.1273818E+00
          1   -1    0    0  501    0  0.00000000000E+00  0.00000000000E+00  0.97758521469E+02  0.97758521469E+02  0.00000000000E+00 0. -1.
         -1   -1    0    0    0  501 -0.00000000000E+00 -0.00000000000E+00 -0.22004947251E+03  0.22004947251E+03  0.00000000000E+00 0.  1.
         23    2    1    2    0    0  0.51647243803E+02  0.52479066163E+02 -0.13897536040E+03  0.20096120024E+03  0.12509901289E+03 0.  0.
         23    2    1    2    0    0 -0.51647243803E+02 -0.52479066163E+02  0.16684409357E+02  0.11684679374E+03  0.89181351829E+02 0.  0.
          5    1    3    3  502    0  0.32794520563E+02 -0.52412572655E+01  0.14030154255E+02  0.36294200433E+02  0.41800000000E+01 0. -1.
         -5    1    3    3    0  502  0.18852723240E+02  0.57720323429E+02 -0.15300551465E+03  0.16466699980E+03  0.41800000000E+01 0. -1.
        -11    1    4    4    0    0 -0.56878460304E+02 -0.71992704251E+02  0.24850608014E+02  0.95056096230E+02  0.00000000000E+00 0. -1.
         11    1    4    4    0    0  0.52312165007E+01  0.19513638088E+02 -0.81661986562E+01  0.21790697510E+02  0.00000000000E+00 0.  1.
</event>
<event>
 8    1  0.4798744E-006  0.1422676E+03  0.7561462E-02  0.1210310E+00
         -1   -1    0    0    0  501 -0.00000000000E+00  0.00000000000E+00  0.33236813825E+02  0.33236813825E+02  0.00000000000E+00 0.  1.
          1   -1    0    0  501    0  0.00000000000E+00 -0.00000000000E+00 -0.66147873221E+03  0.66147873221E+03  0.00000000000E+00 0. -1.
         23    2    1    2    0    0  0.27052856503E+02  0.88554181665E+02 -0.38160908698E+03  0.41212285579E+03  0.12508418309E+03 0.  0.
         23    2    1    2    0    0 -0.27052856503E+02 -0.88554181665E+02 -0.24663283140E+03  0.28259269024E+03  0.10226032917E+03 0.  0.
          5    1    3    3  502    0 -0.49006039300E+02  0.21204303744E+02 -0.11811491073E+03  0.12969124459E+03  0.41800000000E+01 0.  1.
         -5    1    3    3    0  502  0.76058895803E+02  0.67349877921E+02 -0.26349417625E+03  0.28243161120E+03  0.41800000000E+01 0.  1.
        -11    1    4    4    0    0  0.25911448693E+02 -0.67498087246E+02 -0.87181755736E+02  0.11326099721E+03  0.00000000000E+00 0.  1.
         11    1    4    4    0    0 -0.52964305196E+02 -0.21056094419E+02 -0.15945107566E+03  0.16933169304E+03  0.00000000000E+00 0. -1.
</event>
<event>
 8    1  0.4798744E-006  0.1331582E+03  0.7561462E-02  0.1222843E+00
         -1   -1    0    0    0  501 -0.00000000000E+00  0.00000000000E+00  0.32711713224E+02  0.32711713224E+02  0.00000000000E+00 0.  1.
          1   -1    0    0  501    0  0.00000000000E+00 -0.00000000000E+00 -0.72095102653E+03  0.72095102653E+03  0.00000000000E+00 0. -1.
         23    2    1    2    0    0  0.77275218709E+02  0.43952350159E+02 -0.20515141999E+03  0.25619805551E+03  0.12508824889E+03 0.  0.
         23    2    1    2    0    0 -0.77275218709E+02 -0.43952350159E+02 -0.48308789332E+03  0.49746468425E+03  0.78701530430E+02 0.  0.
          5    1    3    3  502    0 -0.30435443783E+02 -0.15696654166E+01 -0.75647679386E+02  0.81662867231E+02  0.41800000000E+01 0.  1.
         -5    1    3    3    0  502  0.10771066249E+03  0.45522015575E+02 -0.12950374060E+03  0.17453518827E+03  0.41800000000E+01 0.  1.
        -11    1    4    4    0    0 -0.55324888516E+01 -0.46431251107E+02 -0.17709352616E+03  0.18316273234E+03  0.00000000000E+00 0. -1.
         11    1    4    4    0    0 -0.71742729857E+02  0.24789009487E+01 -0.30599436717E+03  0.31430195191E+03  0.00000000000E+00 0.  1.
</event>
<event>
 8    1  0.4798744E-006  0.3221854E+03  0.7561462E-02  0.1074648E+00
         -2   -1    0    0    0  501 -0.00000000000E+00  0.00000000000E+00  0.12587606904E+03  0.12587606904E+03  0.00000000000E+00 0.  1.
          2   -1    0    0  501    0  0.00000000000E+00 -0.00000000000E+00 -0.95822288785E+03  0.95822288785E+03  0.00000000000E+00 0. -1.
         23    2    1    2    0    0 -0.20998801542E+02  0.31685567496E+03 -0.28362235094E+03  0.44376442109E+03  0.12508698997E+03 0.  0.
         23    2    1    2    0    0  0.20998801542E+02 -0.31685567496E+03 -0.54872446787E+03  0.64033453580E+03  0.89951696384E+02 0.  0.
          5    1    3    3  502    0 -0.15455129786E+01  0.24136662963E+03 -0.27388855679E+03  0.36509266282E+03  0.41800000000E+01 0.  1.
         -5    1    3    3    0  502 -0.19453288564E+02  0.75489045329E+02 -0.97337941476E+01  0.78671758269E+02  0.41800000000E+01 0.  1.
        -11    1    4    4    0    0 -0.25025225742E+02 -0.13548069824E+03 -0.17827582973E+03  0.22530768515E+03  0.00000000000E+00 0. -1.
         11    1    4    4    0    0  0.46024027285E+02 -0.18137497671E+03 -0.37044863813E+03  0.41502685065E+03  0.00000000000E+00 0.  1.
</event>
<event>
 8    1  0.4798744E-006  0.1111711E+03  0.7561462E-02  0.1258417E+00
         -2   -1    0    0    0  501 -0.00000000000E+00  0.00000000000E+00  0.24372441912E+03  0.24372441912E+03  0.00000000000E+00 0. -1.
          2   -1    0    0  501    0  0.00000000000E+00 -0.00000000000E+00 -0.54258264548E+02  0.54258264548E+02  0.00000000000E+00 0.  1.
         23    2    1    2    0    0  0.17753057631E+02 -0.31114243512E+02  0.10008758702E+03  0.16415896051E+03  0.12508945614E+03 0.  0.
         23    2    1    2    0    0 -0.17753057631E+02  0.31114243512E+02  0.89378567558E+02  0.13382372316E+03  0.92935425628E+02 0.  0.
          5    1    3    3  502    0 -0.50306214479E+02 -0.97382760897E+01  0.69451533673E+02  0.86409126635E+02  0.41800000000E+01 0. -1.
         -5    1    3    3    0  502  0.68059272110E+02 -0.21375967423E+02  0.30636053345E+02  0.77749833877E+02  0.41800000000E+01 0. -1.
        -11    1    4    4    0    0  0.80508160725E+01 -0.31096770574E+02  0.32078604712E+02  0.45396714196E+02  0.00000000000E+00 0. -1.
         11    1    4    4    0    0 -0.25803873704E+02  0.62211014087E+02  0.57299962846E+02  0.88427008962E+02  0.00000000000E+00 0.  1.
</event>
<event>
 8    1  0.4798744E-006  0.1076795E+03  0.7561462E-02  0.1264928E+00
         -2   -1    0    0    0  501 -0.00000000000E+00  0.00000000000E+00  0.15566024025E+02  0.15566024025E+02  0.00000000000E+00 0.  1.
          2   -1    0    0  501    0  0.00000000000E+00 -0.00000000000E+00 -0.85341336820E+03  0.85341336820E+03  0.00000000000E+00 0. -1.
         23    2    1    2    0    0  0.12697922283E+02  0.23454124155E+02 -0.50645769275E+03  0.52241092952E+03  0.12530942327E+03 0.  0.
         23    2    1    2    0    0 -0.12697922283E+02 -0.23454124155E+02 -0.33138965142E+03  0.34656846270E+03  0.97873720190E+02 0.  0.
          5    1    3    3  502    0  0.27403425011E+02 -0.47318551312E+02 -0.24886387912E+03  0.25483464390E+03  0.41800000000E+01 0. -1.
         -5    1    3    3    0  502 -0.14705502728E+02  0.70772675467E+02 -0.25759381364E+03  0.26757628562E+03  0.41800000000E+01 0. -1.
        -11    1    4    4    0    0  0.32294804337E+02 -0.28196122432E+02 -0.76492150702E+02  0.87687084718E+02  0.00000000000E+00 0.  1.
         11    1    4    4    0    0 -0.44992726620E+02  0.47419982770E+01 -0.25489750071E+03  0.25888137798E+03  0.00000000000E+00 0. -1.
</event>
<event>
 8    1  0.4798744E-006  0.1817830E+03  0.7561462E-02  0.1166089E+00
         -1   -1    0    0    0  501 -0.00000000000E+00  0.00000000000E+00  0.55644048323E+02  0.55644048323E+02  0.00000000000E+00 0. -1.
          1   -1    0    0  501    0  0.00000000000E+00 -0.00000000000E+00 -0.71778770321E+03  0.71778770321E+03  0.00000000000E+00 0.  1.
         23    2    1    2    0    0  0.37552618311E+02 -0.15992428867E+03 -0.28640805424E+03  0.35307695745E+03  0.12509111520E+03 0.  0.
         23    2    1    2    0    0 -0.37552618311E+02  0.15992428867E+03 -0.37573560065E+03  0.42035479408E+03  0.92384706869E+02 0.  0.
          5    1    3    3  502    0 -0.20367751673E+02 -0.10001064435E+03 -0.77805126617E+02  0.12840593607E+03  0.41800000000E+01 0.  1.
         -5    1    3    3    0  502  0.57920369984E+02 -0.59913644321E+02 -0.20860292762E+03  0.22467102138E+03  0.41800000000E+01 0.  1.
        -11    1    4    4    0    0  0.18864471810E+02  0.63705679678E+02 -0.78279410039E+02  0.10267398870E+03  0.00000000000E+00 0.  1.
         11    1    4    4    0    0 -0.56417090121E+02  0.96218608992E+02 -0.29745619061E+03  0.31768080538E+03  0.00000000000E+00 0. -1.
</event>
<event>
 8    1  0.4798744E-006  0.1066587E+03  0.7561462E-02  0.1266886E+00
         -1   -1    0    0    0  501 -0.00000000000E+00  0.00000000000E+00  0.23147725510E+02  0.23147725510E+02  0.00000000000E+00 0.  1.
          1   -1    0    0  501    0  0.00000000000E+00 -0.00000000000E+00 -0.58100599768E+03  0.58100599768E+03  0.00000000000E+00 0. -1.
         23    2    1    2    0    0  0.12534470648E+02  0.38749904376E+02 -0.28983430171E+03  0.31829335863E+03  0.12509225259E+03 0.  0.
         23    2    1    2    0    0 -0.12534470648E+02 -0.38749904376E+02 -0.26802397046E+03  0.28586036455E+03  0.90667696779E+02 0.  0.
          5    1    3    3  502    0 -0.94904204658E+01 -0.36599562015E+02 -0.35300556030E+02  0.51896027558E+02  0.41800000000E+01 0.  1.
         -5    1    3    3    0  502  0.22024891113E+02  0.75349466391E+02 -0.25453374568E+03  0.26639733108E+03  0.41800000000E+01 0.  1.
        -11    1    4    4    0    0 -0.15363837717E+02 -0.66762832226E+02 -0.15651203539E+03  0.17084888205E+03  0.00000000000E+00 0.  1.
         11    1    4    4    0    0  0.28293670693E+01  0.28012927850E+02 -0.11151193507E+03  0.11501148250E+03  0.00000000000E+00 0. -1.
</event>
<event>
 8    1  0.4798744E-006  0.1327497E+03  0.7561462E-02  0.1223432E+00
          1   -1    0    0  501    0  0.00000000000E+00  0.00000000000E+00  0.25005908959E+03  0.25005908959E+03  0.00000000000E+00 0. -1.
         -1   -1    0    0    0  501 -0.00000000000E+00 -0.00000000000E+00 -0.83001902465E+02  0.83001902465E+02  0.00000000000E+00 0.  1.
         23    2    1    2    0    0 -0.43353054739E+02 -0.53123722024E+02  0.29498594499E+02  0.14566805410E+03  0.12508955876E+03 0.  0.
         23    2    1    2    0    0  0.43353054739E+02  0.53123722024E+02  0.13755859262E+03  0.18739293795E+03  0.10720135070E+03 0.  0.
          5    1    3    3  502    0 -0.70034711931E+02  0.12729653892E+02  0.18306452257E+02  0.73617277576E+02  0.41800000000E+01 0. -1.
         -5    1    3    3    0  502  0.26681657192E+02 -0.65853375916E+02  0.11192142242E+02  0.72050776526E+02  0.41800000000E+01 0. -1.
        -11    1    4    4    0    0 -0.11991129851E+02 -0.24738200496E+02  0.12970845216E+02  0.30397509512E+02  0.00000000000E+00 0.  1.
         11    1    4    4    0    0  0.55344184590E+02  0.77861922520E+02  0.12458774741E+03  0.15699542844E+03  0.00000000000E+00 0. -1.
</event>
<event>
 8    1  0.4798744E-006  0.1496144E+03  0.7561462E-02  0.1200948E+00
         -2   -1    0    0    0  501 -0.00000000000E+00  0.00000000000E+00  0.23985894712E+03  0.23985894712E+03  0.00000000000E+00 0.  1.
          2   -1    0    0  501    0  0.00000000000E+00 -0.00000000000E+00 -0.19043014710E+03  0.19043014710E+03  0.00000000000E+00 0. -1.
         23    2    1    2    0    0  0.84020820803E+02 -0.64416662854E+02  0.17614175005E+03  0.24058670935E+03  0.12508814421E+03 0.  0.
         23    2    1    2    0    0 -0.84020820803E+02  0.64416662854E+02 -0.12671295003E+03  0.18970238487E+03  0.93390675860E+02 0.  0.
          5    1    3    3  502    0  0.11413908831E+03 -0.56378345364E+02  0.11399425064E+03  0.17093393719E+03  0.41800000000E+01 0. -1.
         -5    1    3    3    0  502 -0.30118267506E+02 -0.80383174904E+01  0.62147499410E+02  0.69652772153E+02  0.41800000000E+01 0. -1.
        -11    1    4    4    0    0  0.84141511270E+01  0.45221860881E+02 -0.51053821918E+02  0.68719046655E+02  0.00000000000E+00 0. -1.
         11    1    4    4    0    0 -0.92434971930E+02  0.19194801973E+02 -0.75659128116E+02  0.12098333822E+03  0.00000000000E+00 0.  1.
</event>
<event>
 8    1  0.4798744E-006  0.1293186E+03  0.7561462E-02  0.1228470E+00
         -2   -1    0    0    0  501 -0.00000000000E+00  0.00000000000E+00  0.96272677315E+02  0.96272677315E+02  0.00000000000E+00 0.  1.
          2   -1    0    0  501    0  0.00000000000E+00 -0.00000000000E+00 -0.31812176648E+03  0.31812176648E+03  0.00000000000E+00 0. -1.
         23    2    1    2    0    0  0.11163782144E+02  0.88962296424E+02  0.47486576060E+01  0.15397712782E+03  0.12508991137E+03 0.  0.
         23    2    1    2    0    0 -0.11163782144E+02 -0.88962296424E+02 -0.22659774677E+03  0.26041731597E+03  0.91824394355E+02 0.  0.
          5    1    3    3  502    0  0.59248778159E+02  0.10883821210E+02 -0.93614696778E+01  0.61106340031E+02  0.41800000000E+01 0.  1.
         -5    1    3    3    0  502 -0.48084996015E+02  0.78078475214E+02  0.14110127284E+02  0.92870787794E+02  0.41800000000E+01 0.  1.
        -11    1    4    4    0    0  0.18466741923E+02 -0.67212669289E+02 -0.20770723757E+03  0.21909098568E+03  0.00000000000E+00 0. -1.
         11    1    4    4    0    0 -0.29630524067E+02 -0.21749627135E+02 -0.18890509205E+02  0.41326330287E+02  0.00000000000E+00 0.  1.
</event>
<event>
 8    1  0.4798744E-006  0.2699535E+03  0.7561462E-02  0.1101306E+00
          2   -1    0    0  501    0  0.00000000000E+00  0.00000000000E+00  0.77269657114E+02  0.77269657114E+02  0.00000000000E+00 0. -1.
         -2   -1    0    0    0  501 -0.00000000000E+00 -0.00000000000E+00 -0.11535557097E+04  0.11535557097E+04  0.00000000000E+00 0.  1.
         23    2    1    2    0    0  0.24784136717E+03 -0.70557002678E+02 -0.77014458330E+03  0.82169050457E+03  0.12509585202E+03 0.  0.
         23    2    1    2    0    0 -0.24784136717E+03  0.70557002678E+02 -0.30614146932E+03  0.40913486228E+03  0.85235569981E+02 0.  0.
          5    1    3    3  502    0  0.82299311990E+02 -0.80432401958E+02 -0.23996074096E+03  0.26616006019E+03  0.41800000000E+01 0. -1.
         -5    1    3    3    0  502  0.16554205518E+03  0.98753992802E+01 -0.53018384234E+03  0.55553044437E+03  0.41800000000E+01 0. -1.
        -11    1    4    4    0    0 -0.98859305243E+02  0.40764847508E+02 -0.68223577833E+02  0.12684396556E+03  0.00000000000E+00 0. -1.
         11    1    4    4    0    0 -0.14898206193E+03  0.29792155170E+02 -0.23791789148E+03  0.28229089673E+03  0.00000000000E+00 0.  1.
</event>
<event>
 8    1  0.4798744E-006  0.2027847E+03  0.7561462E-02  0.1147411E+00
          1   -1    0    0  501    0  0.00000000000E+00  0.00000000000E+00  0.13587086103E+03  0.13587086103E+03  0.00000000000E+00 0. -1.
         -1   -1    0    0    0  501 -0.00000000000E+00 -0.00000000000E+00 -0.35022514580E+03  0.35022514580E+03  0.00000000000E+00 0.  1.
         23    2    1    2    0    0  0.63049363748E+02  0.16892896660E+03 -0.17429998059E+03  0.28024319409E+03  0.12507416430E+03 0.  0.
         23    2    1    2    0    0 -0.63049363748E+02 -0.16892896660E+03 -0.40054304178E+02  0.20585281274E+03  0.90878023789E+02 0.  0.
          5    1    3    3  502    0  0.88820262543E+02  0.10376281801E+03 -0.15661259780E+03  0.20784787617E+03  0.41800000000E+01 0.  1.
         -5    1    3    3    0  502 -0.25770898795E+02  0.65166148587E+02 -0.17687382789E+02  0.72395317917E+02  0.41800000000E+01 0.  1.
        -11    1    4    4    0    0 -0.45646970897E+01  0.97205267374E+01 -0.11470625695E+02  0.15713063145E+02  0.00000000000E+00 0.  1.
         11    1    4    4    0    0 -0.58484666658E+02 -0.17864949333E+03 -0.28583678483E+02  0.19013974960E+03  0.00000000000E+00 0. -1.
</event>
<event>
 8    1  0.4798744E-006  0.6962944E+02  0.7561462E-02  0.1361358E+00
          1   -1    0    0  501    0  0.00000000000E+00  0.00000000000E+00  0.95651323929E+02  0.95651323929E+02  0.00000000000E+00 0. -1.
         -1   -1    0    0    0  501 -0.00000000000E+00 -0.00000000000E+00 -0.17013409373E+03  0.17013409373E+03  0.00000000000E+00 0.  1.
         23    2    1    2    0    0  0.62713339384E+02 -0.20236021376E+02 -0.42484883213E+02  0.14762976437E+03  0.12508845882E+03 0.  0.
         23    2    1    2    0    0 -0.62713339384E+02  0.20236021376E+02 -0.31997886583E+02  0.11815565328E+03  0.92706171095E+02 0.  0.
          5    1    3    3  502    0  0.44890554701E+02 -0.24548382530E+01 -0.86029162623E+02  0.97158002006E+02  0.41800000000E+01 0.  1.
         -5    1    3    3    0  502  0.17822784683E+02 -0.17781183123E+02  0.43544279409E+02  0.50471762366E+02  0.41800000000E+01 0.  1.
        -11    1    4    4    0    0 -0.19061312519E+02  0.15709774772E+02 -0.60824636989E+02  0.65648816617E+02  0.00000000000E+00 0.  1.
         11    1    4    4    0    0 -0.43652026865E+02  0.45262466032E+01  0.28826750405E+02  0.52506836666E+02  0.00000000000E+00 0. -1.
</event>
<event>
 8    1  0.4798744E-006  0.7879107E+02  0.7561462E-02  0.1332518E+00
         -1   -1    0    0    0  501 -0.00000000000E+00  0.00000000000E+00  0.20925637461E+03  0.20925637461E+03  0.00000000000E+00 0.  1.
          1   -1    0    0  501    0  0.00000000000E+00 -0.00000000000E+00 -0.88926937508E+02  0.88926937508E+02  0.00000000000E+00 0. -1.
         23    2    1    2    0    0  0.17886510168E+02  0.47790363442E+01  0.15217323723E+03  0.19785624469E+03  0.12509049924E+03 0.  0.
         23    2    1    2    0    0 -0.17886510168E+02 -0.47790363442E+01 -0.31843800135E+02  0.10032706742E+03  0.93320557308E+02 0.  0.
          5    1    3    3  502    0  0.61880956813E+02 -0.16087856192E+02  0.12842169080E+03  0.14351890120E+03  0.41800000000E+01 0. -1.
         -5    1    3    3    0  502 -0.43994446646E+02  0.20866892536E+02  0.23751546429E+02  0.54337343490E+02  0.41800000000E+01 0. -1.
        -11    1    4    4    0    0  0.67847142534E+01 -0.16115217839E+02 -0.59233641010E+02  0.61760479441E+02  0.00000000000E+00 0. -1.
         11    1    4    4    0    0 -0.24671224421E+02  0.11336181495E+02  0.27389840875E+02  0.38566587981E+02  0.00000000000E+00 0.  1.
</event>
<event>
 8    1  0.4798744E-006  0.1964605E+03  0.7561462E-02  0.1152760E+00
          3   -1    0    0  501    0  0.00000000000E+00  0.00000000000E+00  0.25918319239E+02  0.25918319239E+02  0.00000000000E+00 0. -1.
         -3   -1    0    0    0  501 -0.00000000000E+00 -0.00000000000E+00 -0.16134025480E+04  0.16134025480E+04  0.00000000000E+00 0.  1.
         23    2    1    2    0    0 -0.16163773383E+03  0.61890538267E+02 -0.85522460112E+03  0.88148345252E+03  0.12508702166E+03 0.  0.
         23    2    1    2    0    0  0.16163773383E+03 -0.61890538267E+02 -0.73225962768E+03  0.75783741475E+03  0.90311622433E+02 0.  0.
          5    1    3    3  502    0  0.12926154587E+02  0.26458999099E+01 -0.11952465207E+02  0.18287156238E+02  0.41800000000E+01 0.  1.
         -5    1    3    3    0  502 -0.17456388842E+03  0.59244638357E+02 -0.84327213591E+03  0.86319629628E+03  0.41800000000E+01 0.  1.
        -11    1    4    4    0    0  0.31941943935E+02 -0.56473308498E+02 -0.27117929283E+03  0.27883280154E+03  0.00000000000E+00 0. -1.
         11    1    4    4    0    0  0.12969578989E+03 -0.54172297688E+01 -0.46108033485E+03  0.47900461321E+03  0.00000000000E+00 0.  1.
</event>
<event>
 8    1  0.4798744E-006  0.8544127E+02  0.7561462E-02  0.1314283E+00
         -4   -1    0    0    0  501 -0.00000000000E+00  0.00000000000E+00  0.58582179664E+02  0.58582179664E+02  0.00000000000E+00 0.  1.
          4   -1    0    0  501    0  0.00000000000E+00 -0.00000000000E+00 -0.25526232991E+03  0.25526232991E+03  0.00000000000E+00 0. -1.
         23    2    1    2    0    0 -0.29979757258E+02 -0.57330521701E+01 -0.46532446299E+02  0.13693352951E+03  0.12511542356E+03 0.  0.
         23    2    1    2    0    0  0.29979757258E+02  0.57330521701E+01 -0.15014770395E+03  0.17691098007E+03  0.88439290670E+02 0.  0.
          5    1    3    3  502    0 -0.78395619508E+01 -0.39265282552E+02  0.30125675149E+02  0.50281704910E+02  0.41800000000E+01 0.  1.
         -5    1    3    3    0  502 -0.22140195307E+02  0.33532230382E+02 -0.76658121448E+02  0.86651824600E+02  0.41800000000E+01 0.  1.
        -11    1    4    4    0    0 -0.92132715690E+01 -0.33515754761E+02 -0.36231313832E+02  0.50208547999E+02  0.00000000000E+00 0.  1.
         11    1    4    4    0    0  0.39193028827E+02  0.39248806931E+02 -0.11391639012E+03  0.12670243207E+03  0.00000000000E+00 0. -1.
</event>
<event>
 8    1  0.4798744E-006  0.8334343E+02  0.7561462E-02  0.1319822E+00
          2   -1    0    0  501    0  0.00000000000E+00  0.00000000000E+00  0.57198152120E+02  0.57198152120E+02  0.00000000000E+00 0. -1.
         -2   -1    0    0    0  501 -0.00000000000E+00 -0.00000000000E+00 -0.24889083029E+03  0.24889083029E+03  0.00000000000E+00 0.  1.
         23    2    1    2    0    0 -0.24489622334E+02 -0.36247554238E+02 -0.11999685986E+03  0.17877601417E+03  0.12509192649E+03 0.  0.
         23    2    1    2    0    0  0.24489622334E+02  0.36247554238E+02 -0.71695818309E+02  0.12731296825E+03  0.95680064434E+02 0.  0.
          5    1    3    3  502    0 -0.50486747487E+02 -0.16064298466E+02  0.11606884495E+01  0.53158188031E+02  0.41800000000E+01 0. -1.
         -5    1    3    3    0  502  0.25997125154E+02 -0.20183255772E+02 -0.12115754831E+03  0.12561782614E+03  0.41800000000E+01 0. -1.
        -11    1    4    4    0    0  0.27173126587E+01 -0.19930663393E+02 -0.63375941452E+02  0.66491541464E+02  0.00000000000E+00 0.  1.
         11    1    4    4    0    0  0.21772309675E+02  0.56178217631E+02 -0.83198768564E+01  0.60821426781E+02  0.00000000000E+00 0. -1.
</event>
<event>
 8    1  0.4798744E-006  0.1936704E+03  0.7561462E-02  0.1155192E+00
          2   -1    0    0  501    0  0.00000000000E+00  0.00000000000E+00  0.12481992673E+04  0.12481992673E+04  0.00000000000E+00 0. -1.
         -2   -1    0    0    0  501 -0.00000000000E+00 -0.00000000000E+00 -0.31583492771E+02  0.31583492771E+02  0.00000000000E+00 0.  1.
         23    2    1    2    0    0  0.14774832784E+03 -0.70836910400E+02  0.54733406651E+03  0.58486582439E+03  0.12508403545E+03 0.  0.
         23    2    1    2    0    0 -0.14774832784E+03  0.70836910400E+02  0.66928170799E+03  0.69491693565E+03  0.90133825781E+02 0.  0.
          5    1    3    3  502    0  0.26340015941E+02 -0.78726115879E+02  0.19072867670E+03  0.20805407536E+03  0.41800000000E+01 0. -1.
         -5    1    3    3    0  502  0.12140831190E+03  0.78892054786E+01  0.35660538982E+03  0.37681174903E+03  0.41800000000E+01 0. -1.
        -11    1    4    4    0    0 -0.50846003826E+02  0.68813124926E+02  0.23898288043E+03  0.25383730893E+03  0.00000000000E+00 0.  1.
         11    1    4    4    0    0 -0.96902324014E+02  0.20237854737E+01  0.43029882756E+03  0.44107962672E+03  0.00000000000E+00 0. -1.
</event>
<event>
 8    1  0.4798744E-006  0.9367445E+02  0.7561462E-02  0.1294190E+00
          1   -1    0    0  501    0  0.00000000000E+00  0.00000000000E+00  0.33217790862E+03  0.33217790862E+03  0.00000000000E+00 0. -1.
         -1   -1    0    0    0  501 -0.00000000000E+00 -0.00000000000E+00 -0.42902635715E+02  0.42902635715E+02  0.00000000000E+00 0.  1.
         23    2    1    2    0    0  0.38614235204E+02 -0.14195062697E+02  0.11921979464E+03  0.17763413535E+03  0.12509183684E+03 0.  0.
         23    2    1    2    0    0 -0.38614235204E+02  0.14195062697E+02  0.17005547827E+03  0.19744640898E+03  0.91507703309E+02 0.  0.
          5    1    3    3  502    0  0.43861587556E+02 -0.62912831501E+02  0.46305593871E+02  0.89685805199E+02  0.41800000000E+01 0. -1.
         -5    1    3    3    0  502 -0.52473523519E+01  0.48717768804E+02  0.72914200765E+02  0.87948330156E+02  0.41800000000E+01 0. -1.
        -11    1    4    4    0    0 -0.25641016737E+02 -0.14795346566E+02  0.58225964092E+01  0.30170625586E+02  0.00000000000E+00 0.  1.
         11    1    4    4    0    0 -0.12973218467E+02  0.28990409263E+02  0.16423288186E+03  0.16727578340E+03  0.00000000000E+00 0. -1.
</event>
<event>
 7    1  0.4798744E-006  0.1480227E+03  0.7561462E-02  0.1202924E+00
          2   -1    0    0  501    0  0.00000000000E+00  0.00000000000E+00  0.37263292747E+02  0.37263292747E+02  0.00000000000E+00 0. -1.
         -2   -1    0    0    0  501 -0.00000000000E+00 -0.00000000000E+00 -0.69012562486E+03  0.69012562486E+03  0.00000000000E+00 0.  1.
         23    2    1    2    0    0  0.20802439364E+01  0.16080549671E+00 -0.13132972050E+03  0.16446469701E+03  0.98978723996E+02 0.  0.
          5    1    1    2  502    0 -0.99807382245E+02 -0.42073279153E+01 -0.16260821665E+03  0.19088771485E+03  0.41800000000E+01 0. -1.
         -5    1    1    2    0  502  0.97727138308E+02  0.40465224186E+01 -0.35892439497E+03  0.37203650575E+03  0.41800000000E+01 0.  1.
        -11    1    3    3    0    0 -0.47025581867E+02 -0.98498243883E+01 -0.74983385600E+02  0.89055783116E+02  0.00000000000E+00 0.  1.
         11    1    3    3    0    0  0.49105825803E+02  0.10010629885E+02 -0.56346334901E+02  0.75408913898E+02  0.00000000000E+00 0. -1.
</event>
<event>
 8    1  0.4798744E-006  0.1943140E+03  0.7561462E-02  0.1154627E+00
          1   -1    0    0  501    0  0.00000000000E+00  0.00000000000E+00  0.16304300404E+04  0.16304300404E+04  0.00000000000E+00 0. -1.
         -1   -1    0    0    0  501 -0.00000000000E+00 -0.00000000000E+00 -0.30455070811E+02  0.30455070811E+02  0.00000000000E+00 0.  1.
         23    2    1    2    0    0 -0.16981738189E+03 -0.61407633657E+02  0.56315131696E+03  0.60447861321E+03  0.12508456089E+03 0.  0.
         23    2    1    2    0    0  0.16981738189E+03  0.61407633657E+02  0.10368236526E+04  0.10564064980E+04  0.91556330754E+02 0.  0.
          5    1    3    3  502    0 -0.36370062939E+02 -0.34122264004E+02  0.40577855886E+02  0.64429381242E+02  0.41800000000E+01 0. -1.
         -5    1    3    3    0  502 -0.13344731895E+03 -0.27285369653E+02  0.52257346107E+03  0.54004923197E+03  0.41800000000E+01 0. -1.
        -11    1    4    4    0    0  0.13743042478E+03  0.53083095616E+01  0.72375535905E+03  0.73670694279E+03  0.00000000000E+00 0. -1.
         11    1    4    4    0    0  0.32386957110E+02  0.56099324095E+02  0.31306829356E+03  0.31969955518E+03  0.00000000000E+00 0.  1.
</event>
<event>
 8    1  0.4798744E-006  0.1147946E+03  0.7561462E-02  0.1251940E+00
         -1   -1    0    0    0  501 -0.00000000000E+00  0.00000000000E+00  0.30463866089E+03  0.30463866089E+03  0.00000000000E+00 0.  1.
          1   -1    0    0  501    0  0.00000000000E+00 -0.00000000000E+00 -0.16622972327E+03  0.16622972327E+03  0.00000000000E+00 0. -1.
         23    2    1    2    0    0  0.18566811523E+02 -0.63486840551E+02  0.26637206849E+03  0.30162373628E+03  0.12508994365E+03 0.  0.
         23    2    1    2    0    0 -0.18566811523E+02  0.63486840551E+02 -0.12796313087E+03  0.16924464788E+03  0.88847524221E+02 0.  0.
          5    1    3    3  502    0 -0.21086487774E+02  0.31692618238E+02  0.73899580647E+02  0.83232700529E+02  0.41800000000E+01 0.  1.
         -5    1    3    3    0  502  0.39653299297E+02 -0.95179458789E+02  0.19247248784E+03  0.21839103575E+03  0.41800000000E+01 0.  1.
        -11    1    4    4    0    0 -0.36951209805E+02  0.58254665046E+02 -0.41094503099E+02  0.80297920836E+02  0.00000000000E+00 0.  1.
         11    1    4    4    0    0  0.18384398282E+02  0.52321755056E+01 -0.86868627773E+02  0.88946727045E+02  0.00000000000E+00 0. -1.
</event>
<event>
 8    1  0.4798744E-006  0.8298960E+02  0.7561462E-02  0.1320775E+00
         -1   -1    0    0    0  501 -0.00000000000E+00  0.00000000000E+00  0.18456246898E+03  0.18456246898E+03  0.00000000000E+00 0.  1.
          1   -1    0    0  501    0  0.00000000000E+00 -0.00000000000E+00 -0.65055952171E+02  0.65055952171E+02  0.00000000000E+00 0. -1.
         23    2    1    2    0    0 -0.81319412245E+01  0.15557832756E+02  0.71617567883E+02  0.14520439855E+03  0.12508823567E+03 0.  0.
         23    2    1    2    0    0  0.81319412245E+01 -0.15557832756E+02  0.47888948927E+02  0.10441402260E+03  0.91108518029E+02 0.  0.
          5    1    3    3  502    0  0.55655650353E+02  0.24968011403E+02  0.28014612391E+02  0.67255066107E+02  0.41800000000E+01 0.  1.
         -5    1    3    3    0  502 -0.63787591577E+02 -0.94101786467E+01  0.43602955492E+02  0.77949332448E+02  0.41800000000E+01 0.  1.
        -11    1    4    4    0    0 -0.12658707678E+02 -0.14721708011E+02  0.70829697426E+02  0.73442614362E+02  0.00000000000E+00 0.  1.
         11    1    4    4    0    0  0.20790648902E+02 -0.83612474461E+00 -0.22940748499E+02  0.30971408235E+02  0.00000000000E+00 0. -1.
</event>
<event>
 8    1  0.4798744E-006  0.1580134E+03  0.7561462E-02  0.1190958E+00
          4   -1    0    0  501    0  0.00000000000E+00  0.00000000000E+00  0.91185990643E+02  0.91185990643E+02  0.00000000000E+00 0. -1.
         -4   -1    0    0    0  501 -0.00000000000E+00 -0.00000000000E+00 -0.31299795637E+03  0.31299795637E+03  0.00000000000E+00 0.  1.
         23    2    1    2    0    0 -0.97244065763E+02  0.85392621131E+02 -0.13845086066E+03  0.22708274406E+03  0.12509845626E+03 0.  0.
         23    2    1    2    0    0  0.97244065763E+02 -0.85392621131E+02 -0.83361105064E+02  0.17710120296E+03  0.87564000489E+02 0.  0.
          5    1    3    3  502    0 -0.80365545687E+02  0.10582380622E+03 -0.63222776470E+02  0.14721375874E+03  0.41800000000E+01 0. -1.
         -5    1    3    3    0  502 -0.16878520076E+02 -0.20431185093E+02 -0.75228084193E+02  0.79868985317E+02  0.41800000000E+01 0. -1.
        -11    1    4    4    0    0  0.24795616270E+02 -0.79827302793E+02 -0.43967398377E+02  0.94447620284E+02  0.00000000000E+00 0. -1.
         11    1    4    4    0    0  0.72448449492E+02 -0.55653183382E+01 -0.39393706687E+02  0.82653582673E+02  0.00000000000E+00 0.  1.
</event>
<event>
 8    1  0.4798744E-006  0.1378539E+03  0.7561462E-02  0.1216246E+00
         -2   -1    0    0    0  501 -0.00000000000E+00  0.00000000000E+00  0.18423225591E+03  0.18423225591E+03  0.00000000000E+00 0.  1.
          2   -1    0    0  501    0  0.00000000000E+00 -0.00000000000E+00 -0.14167290493E+03  0.14167290493E+03  0.00000000000E+00 0. -1.
         23    2    1    2    0    0 -0.11532721839E+02  0.10867605748E+03  0.69495926215E+02  0.18005623714E+03  0.12508827135E+03 0.  0.
         23    2    1    2    0    0  0.11532721839E+02 -0.10867605748E+03 -0.26936575236E+02  0.14584892370E+03  0.92751497654E+02 0.  0.
          5    1    3    3  502    0  0.14146629734E+02 -0.24671231939E+02  0.33233356200E+01  0.28936374649E+02  0.41800000000E+01 0. -1.
         -5    1    3    3    0  502 -0.25679351573E+02  0.13334728942E+03  0.66172590595E+02  0.15111986249E+03  0.41800000000E+01 0. -1.
        -11    1    4    4    0    0 -0.28263187422E+01 -0.66267064334E+02  0.30515589249E+02  0.73010362828E+02  0.00000000000E+00 0.  1.
         11    1    4    4    0    0  0.14359040581E+02 -0.42408993145E+02 -0.57452164485E+02  0.72838560873E+02  0.00000000000E+00 0. -1.
</event>
<event>
 8    1  0.4798744E-006  0.1258033E+03  0.7561462E-02  0.1233819E+00
          1   -1    0    0  501    0  0.00000000000E+00  0.00000000000E+00  0.95810346807E+03  0.95810346807E+03  0.00000000000E+00 0. -1.
         -1   -1    0    0    0  501 -0.00000000000E+00 -0.00000000000E+00 -0.19013256386E+02  0.19013256386E+02  0.00000000000E+00 0.  1.
         23    2    1    2    0    0  0.22751692224E+02 -0.68319798630E+02  0.39019425150E+03  0.41603316575E+03  0.12508719647E+03 0.  0.
         23    2    1    2    0    0 -0.22751692224E+02  0.68319798630E+02  0.54889596018E+03  0.56108355870E+03  0.91338657512E+02 0.  0.
          5    1    3    3  502    0  0.20383746902E+02 -0.10088866988E+03  0.34545499570E+03  0.36048668117E+03  0.41800000000E+01 0. -1.
         -5    1    3    3    0  502  0.23679453216E+01  0.32568871254E+02  0.44739255801E+02  0.55546484582E+02  0.41800000000E+01 0. -1.
        -11    1    4    4    0    0  0.16915332572E+02 -0.15498891408E+02  0.13412318499E+03  0.13607120512E+03  0.00000000000E+00 0. -1.
         11    1    4    4    0    0 -0.39667024795E+02  0.83818690038E+02  0.41477277520E+03  0.42501235359E+03  0.00000000000E+00 0.  1.
</event>
<event>
 8    1  0.4798744E-006  0.1194125E+03  0.7561462E-02  0.1244069E+00
          2   -1    0    0  501    0  0.00000000000E+00  0.00000000000E+00  0.40523192257E+03  0.40523192257E+03  0.00000000000E+00 0. -1.
         -2   -1    0    0    0  501 -0.00000000000E+00 -0.00000000000E+00 -0.46788927875E+02  0.46788927875E+02  0.00000000000E+00 0.  1.
         23    2    1    2    0    0 -0.64234371239E+02 -0.38313748662E+02  0.13094443155E+03  0.19592323083E+03  0.12508185496E+03 0.  0.
         23    2    1    2    0    0  0.64234371239E+02  0.38313748662E+02  0.22749856315E+03  0.25609761962E+03  0.90754596329E+02 0.  0.
          5    1    3    3  502    0 -0.28945138389E+02 -0.76090710654E+02  0.11631323078E+03  0.14203470470E+03  0.41800000000E+01 0. -1.
         -5    1    3    3    0  502 -0.35289232850E+02  0.37776961993E+02  0.14631200770E+02  0.53888526131E+02  0.41800000000E+01 0. -1.
        -11    1    4    4    0    0  0.75327151727E+02  0.11209067801E+02  0.10239034774E+03  0.12760723451E+03  0.00000000000E+00 0.  1.
         11    1    4    4    0    0 -0.11092780488E+02  0.27104680861E+02  0.12510821541E+03  0.12849038511E+03  0.00000000000E+00 0. -1.
</event>
<event>
 8    1  0.4798744E-006  0.1443616E+03  0.7561462E-02  0.1207578E+00
          2   -1    0    0  501    0  0.00000000000E+00  0.00000000000E+00  0.70034761567E+03  0.70034761567E+03  0.00000000000E+00 0. -1.
         -2   -1    0    0    0  501 -0.00000000000E+00 -0.00000000000E+00 -0.38933945411E+02  0.38933945411E+02  0.00000000000E+00 0.  1.
         23    2    1    2    0    0  0.11061866161E+03 -0.94004169661E+01  0.22896564280E+03  0.28354601246E+03  0.12509284337E+03 0.  0.
         23    2    1    2    0    0 -0.11061866161E+03  0.94004169661E+01  0.43244802746E+03  0.45573554862E+03  0.91426132429E+02 0.  0.
          5    1    3    3  502    0  0.27701698335E+01 -0.48151435861E+02  0.41388063014E+02  0.63692062115E+02  0.41800000000E+01 0.  1.
         -5    1    3    3    0  502  0.10784849177E+03  0.38751018895E+02  0.18757757979E+03  0.21985395034E+03  0.41800000000E+01 0.  1.
        -11    1    4    4    0    0 -0.44313047453E+02 -0.25062143837E+02  0.29431067983E+03  0.29868132431E+03  0.00000000000E+00 0. -1.
         11    1    4    4    0    0 -0.66305614153E+02  0.34462560803E+02  0.13813734763E+03  0.15705422431E+03  0.00000000000E+00 0.  1.
</event>
<event>
 8    1  0.4798744E-006  0.1291506E+03  0.7561462E-02  0.1228721E+00
         -1   -1    0    0    0  501 -0.00000000000E+00  0.00000000000E+00  0.39741570258E+02  0.39741570258E+02  0.00000000000E+00 0.  1.
          1   -1    0    0  501    0  0.00000000000E+00 -0.00000000000E+00 -0.54608288975E+03  0.54608288975E+03  0.00000000000E+00 0. -1.
         23    2    1    2    0    0  0.89361651346E+02 -0.22512434198E+02 -0.20487560722E+03  0.25712790627E+03  0.12509369018E+03 0.  0.
         23    2    1    2    0    0 -0.89361651346E+02  0.22512434198E+02 -0.30146571227E+03  0.32869655374E+03  0.93099593666E+02 0.  0.
          5    1    3    3  502    0 -0.19485727914E+02 -0.29363070396E+02 -0.15873240604E+02  0.38875643566E+02  0.41800000000E+01 0. -1.
         -5    1    3    3    0  502  0.10884737926E+03  0.68506361983E+01 -0.18900236662E+03  0.21825226270E+03  0.41800000000E+01 0. -1.
        -11    1    4    4    0    0 -0.57226525350E+02  0.46364275584E+02 -0.10536959156E+03  0.12855843838E+03  0.00000000000E+00 0.  1.
         11    1    4    4    0    0 -0.32135125996E+02 -0.23851841387E+02 -0.19609612072E+03  0.20013811536E+03  0.00000000000E+00 0. -1.
</event>
<event>
 8    1  0.4807729E-006  0.1871101E+03  0.7561462E-02  0.1161094E+00
         -2   -1    0    0    0  501 -0.00000000000E+00  0.00000000000E+00  0.98757842794E+03  0.98757842794E+03  0.00000000000E+00 0.  1.
          2   -1    0    0  501    0  0.00000000000E+00 -0.00000000000E+00 -0.40142573144E+02  0.40142573144E+02  0.00000000000E+00 0. -1.
         23    2    1    2    0    0 -0.60795824235E+02  0.15625681321E+03  0.48147184450E+03  0.52495237744E+03  0.12509011800E+03 0.  0.
         23    2    1    2    0    0  0.60795824235E+02 -0.15625681321E+03  0.46596401030E+03  0.50276862364E+03  0.86841845365E+02 0.  0.
          5    1    3    3  502    0  0.21572955392E+02  0.43835842753E+02  0.24973624377E+03  0.25450469027E+03  0.41800000000E+01 0.  1.
         -5    1    3    3    0  502 -0.82368779627E+02  0.11242097045E+03  0.23173560072E+03  0.27044768717E+03  0.41800000000E+01 0.  1.
        -11    1    4    4    0    0 -0.18294713990E+02 -0.50384721006E+02  0.96604450480E+02  0.11047957514E+03  0.00000000000E+00 0. -1.
         11    1    4    4    0    0  0.79090538224E+02 -0.10587209220E+03  0.36935955982E+03  0.39228904850E+03  0.00000000000E+00 0.  1.
</event>
<event>
 8    1  0.4798744E-006  0.7960756E+02  0.7561462E-02  0.1330169E+00
          1   -1    0    0  501    0  0.00000000000E+00  0.00000000000E+00  0.56567285530E+03  0.56567285530E+03  0.00000000000E+00 0. -1.
         -1   -1    0    0    0  501 -0.00000000000E+00 -0.00000000000E+00 -0.30254042517E+02  0.30254042517E+02  0.00000000000E+00 0.  1.
         23    2    1    2    0    0 -0.48872586525E+02  0.47805049792E+02  0.24229959651E+03  0.28112220059E+03  0.12508694854E+03 0.  0.
         23    2    1    2    0    0  0.48872586525E+02 -0.47805049792E+02  0.29311921627E+03  0.31480469723E+03  0.92245704230E+02 0.  0.
          5    1    3    3  502    0 -0.27574591208E+02  0.28492828991E+02  0.24827976223E+03  0.25146075661E+03  0.41800000000E+01 0.  1.
         -5    1    3    3    0  502 -0.21297995317E+02  0.19312220800E+02 -0.59801657177E+01  0.29661443977E+02  0.41800000000E+01 0.  1.
        -11    1    4    4    0    0  0.49377517769E+02 -0.74529305150E+01  0.25306964086E+03  0.25794946900E+03  0.00000000000E+00 0. -1.
         11    1    4    4    0    0 -0.50493124336E+00 -0.40352119277E+02  0.40049575414E+02  0.56855228225E+02  0.00000000000E+00 0.  1.
</event>
<event>
 8    1  0.4798744E-006  0.1896855E+03  0.7561462E-02  0.1158745E+00
          2   -1    0    0  501    0  0.00000000000E+00  0.00000000000E+00  0.32821339600E+03  0.32821339600E+03  0.00000000000E+00 0.  1.
         -2   -1    0    0    0  501 -0.00000000000E+00 -0.00000000000E+00 -0.16781189253E+03  0.16781189253E+03  0.00000000000E+00 0. -1.
         23    2    1    2    0    0  0.10477497982E+03 -0.12311030626E+03 -0.44994593525E+02  0.20929900172E+03  0.12509042638E+03 0.  0.
         23    2    1    2    0    0 -0.10477497982E+03  0.12311030626E+03  0.20539609700E+03  0.28672628680E+03  0.11785780830E+03 0.  0.
          5    1    3    3  502    0  0.33830501707E+01 -0.10005634014E+03 -0.18189458400E+02  0.10183832789E+03  0.41800000000E+01 0. -1.
         -5    1    3    3    0  502  0.10139192965E+03 -0.23053966127E+02 -0.26805135125E+02  0.10746067383E+03  0.41800000000E+01 0. -1.
        -11    1    4    4    0    0 -0.10672676794E+03  0.83661191724E+02  0.20669257893E+03  0.24720764588E+03  0.00000000000E+00 0.  1.
         11    1    4    4    0    0  0.19517881228E+01  0.39449114539E+02 -0.12964819346E+01  0.39518640921E+02  0.00000000000E+00 0. -1.
</event>
<event>
 8    1  0.4798744E-006  0.1349410E+03  0.7561462E-02  0.1220303E+00
          1   -1    0    0  501    0  0.00000000000E+00  0.00000000000E+00  0.52047172457E+02  0.52047172457E+02  0.00000000000E+00 0. -1.
         -1   -1    0    0    0  501 -0.00000000000E+00 -0.00000000000E+00 -0.40768119661E+03  0.40768119661E+03  0.00000000000E+00 0.  1.
         23    2    1    2    0    0 -0.74245373259E+02 -0.39788924351E+02 -0.26621241374E+03  0.30595998553E+03  0.12508768751E+03 0.  0.
         23    2    1    2    0    0  0.74245373259E+02  0.39788924351E+02 -0.89421610414E+02  0.15376838353E+03  0.92482200528E+02 0.  0.
          5    1    3    3  502    0 -0.81178928029E+02 -0.75459953871E+02 -0.16952028515E+03  0.20258040989E+03  0.41800000000E+01 0.  1.
         -5    1    3    3    0  502  0.69335547707E+01  0.35671029520E+02 -0.96692128590E+02  0.10337957564E+03  0.41800000000E+01 0.  1.
        -11    1    4    4    0    0  0.84012739239E+02  0.27201910613E+01 -0.75496845014E+02  0.11298368644E+03  0.00000000000E+00 0.  1.
         11    1    4    4    0    0 -0.97673659801E+01  0.37068733290E+02 -0.13924765399E+02  0.40784697097E+02  0.00000000000E+00 0. -1.
</event>
<event>
 8    1  0.4798744E-006  0.1855583E+03  0.7561462E-02  0.1162530E+00
         -1   -1    0    0    0  501 -0.00000000000E+00  0.00000000000E+00  0.51595509155E+03  0.51595509155E+03  0.00000000000E+00 0.  1.
          1   -1    0    0  501    0  0.00000000000E+00 -0.00000000000E+00 -0.12309627565E+03  0.12309627565E+03  0.00000000000E+00 0. -1.
         23    2    1    2    0    0 -0.13170847674E+03  0.13044298901E+03  0.36847699198E+03  0.43102765310E+03  0.12508816048E+03 0.  0.
         23    2    1    2    0    0  0.13170847674E+03 -0.13044298901E+03  0.24381823923E+02  0.20802371410E+03  0.91197017844E+02 0.  0.
          5    1    3    3  502    0 -0.58998197717E+02  0.62574568715E+02  0.55114687309E+02  0.10223240749E+03  0.41800000000E+01 0. -1.
         -5    1    3    3    0  502 -0.72710279023E+02  0.67868420294E+02  0.31336230467E+03  0.32879524561E+03  0.41800000000E+01 0. -1.
        -11    1    4    4    0    0  0.67380385081E+02 -0.62648765529E+02 -0.33706743258E+02  0.97985349196E+02  0.00000000000E+00 0.  1.
         11    1    4    4    0    0  0.64328091659E+02 -0.67794223480E+02  0.58088567181E+02  0.11003836490E+03  0.00000000000E+00 0. -1.
</event>
<event>
 8    1  0.4798744E-006  0.8589900E+02  0.7561462E-02  0.1313098E+00
         -4   -1    0    0    0  501 -0.00000000000E+00  0.00000000000E+00  0.26058405700E+02  0.26058405700E+02  0.00000000000E+00 0.  1.
          4   -1    0    0  501    0  0.00000000000E+00 -0.00000000000E+00 -0.75218805177E+03  0.75218805177E+03  0.00000000000E+00 0. -1.
         23    2    1    2    0    0 -0.37742494562E+02  0.38345383482E+02 -0.20199969715E+03  0.24361572924E+03  0.12509948662E+03 0.  0.
         23    2    1    2    0    0  0.37742494562E+02 -0.38345383482E+02 -0.52412994892E+03  0.53463072823E+03  0.90680471379E+02 0.  0.
          5    1    3    3  502    0 -0.29930946524E+02  0.66525986853E+00  0.70274496809E+01  0.31034844603E+02  0.41800000000E+01 0.  1.
         -5    1    3    3    0  502 -0.78115480387E+01  0.37680123613E+02 -0.20902714684E+03  0.21258088464E+03  0.41800000000E+01 0.  1.
        -11    1    4    4    0    0  0.66589307381E+02 -0.27467739049E+02 -0.41605860166E+03  0.42224799888E+03  0.00000000000E+00 0.  1.
         11    1    4    4    0    0 -0.28846812819E+02 -0.10877644432E+02 -0.10807134726E+03  0.11238272935E+03  0.00000000000E+00 0. -1.
</event>
<event>
 8    1  0.4798744E-006  0.1359764E+03  0.7561462E-02  0.1218848E+00
          2   -1    0    0  501    0  0.00000000000E+00  0.00000000000E+00  0.66432048495E+03  0.66432048495E+03  0.00000000000E+00 0. -1.
         -2   -1    0    0    0  501 -0.00000000000E+00 -0.00000000000E+00 -0.46915443645E+02  0.46915443645E+02  0.00000000000E+00 0.  1.
         23    2    1    2    0    0 -0.50260407435E+02 -0.10708428336E+03  0.17967069484E+03  0.24884903521E+03  0.12510448211E+03 0.  0.
         23    2    1    2    0    0  0.50260407435E+02  0.10708428336E+03  0.43773434647E+03  0.46238689339E+03  0.90537996438E+02 0.  0.
          5    1    3    3  502    0 -0.71420428553E+02 -0.11037911508E+03  0.97233965273E+02  0.16357366250E+03  0.41800000000E+01 0.  1.
         -5    1    3    3    0  502  0.21160021118E+02  0.32948317199E+01  0.82436729566E+02  0.85275372713E+02  0.41800000000E+01 0.  1.
        -11    1    4    4    0    0  0.37969538723E+02  0.71606175864E+02  0.40355296393E+03  0.41161161912E+03  0.00000000000E+00 0. -1.
         11    1    4    4    0    0  0.12290868712E+02  0.35478107495E+02  0.34181382537E+02  0.50775274271E+02  0.00000000000E+00 0.  1.
</event>
<event>
 8    1  0.4798744E-006  0.9703314E+02  0.7561462E-02  0.1286661E+00
         -2   -1    0    0    0  501 -0.00000000000E+00  0.00000000000E+00  0.15055248819E+03  0.15055248819E+03  0.00000000000E+00 0.  1.
          2   -1    0    0  501    0  0.00000000000E+00 -0.00000000000E+00 -0.10875207931E+03  0.10875207931E+03  0.00000000000E+00 0. -1.
         23    2    1    2    0    0 -0.53970418655E+02 -0.16735228657E+01  0.62746330826E+02  0.15000312940E+03  0.12509288561E+03 0.  0.
         23    2    1    2    0    0  0.53970418655E+02  0.16735228657E+01 -0.20945921948E+02  0.10930143810E+03  0.92695555211E+02 0.  0.
          5    1    3    3  502    0  0.22634467747E+02  0.98447094721E+01  0.67785937468E+02  0.72260937949E+02  0.41800000000E+01 0.  1.
         -5    1    3    3    0  502 -0.76604886402E+02 -0.11518232338E+02 -0.50396066425E+01  0.77742191454E+02  0.41800000000E+01 0.  1.
        -11    1    4    4    0    0  0.47720019505E+02  0.33958205271E+02 -0.40346419610E+02  0.71120978214E+02  0.00000000000E+00 0. -1.
         11    1    4    4    0    0  0.62503991503E+01 -0.32284682406E+02  0.19400497662E+02  0.38180459886E+02  0.00000000000E+00 0.  1.
</event>
<event>
 8    1  0.4798744E-006  0.1166775E+03  0.7561462E-02  0.1248681E+00
         -1   -1    0    0    0  501 -0.00000000000E+00  0.00000000000E+00  0.10874984160E+03  0.10874984160E+03  0.00000000000E+00 0.  1.
          1   -1    0    0  501    0  0.00000000000E+00 -0.00000000000E+00 -0.14745096287E+03  0.14745096287E+03  0.00000000000E+00 0. -1.
         23    2    1    2    0    0 -0.53829931580E+02  0.15278729796E+02 -0.78028332568E+01  0.13726267918E+03  0.12509619407E+03 0.  0.
         23    2    1    2    0    0  0.53829931580E+02 -0.15278729796E+02 -0.30898288014E+02  0.11893812530E+03  0.10030190591E+03 0.  0.
          5    1    3    3  502    0 -0.56926146394E+02 -0.45110982826E+02  0.11485369762E+02  0.73654416252E+02  0.41800000000E+01 0. -1.
         -5    1    3    3    0  502  0.30962148133E+01  0.60389712623E+02 -0.19288203019E+02  0.63608262926E+02  0.41800000000E+01 0. -1.
        -11    1    4    4    0    0  0.47860035302E+02  0.28567337279E+02 -0.45909680836E+02  0.72210626176E+02  0.00000000000E+00 0. -1.
         11    1    4    4    0    0  0.59698962781E+01 -0.43846067075E+02  0.15011392822E+02  0.46727499120E+02  0.00000000000E+00 0.  1.
</event>
<event>
 8    1  0.4798744E-006  0.9880081E+02  0.7561462E-02  0.1282838E+00
          2   -1    0    0  501    0  0.00000000000E+00  0.00000000000E+00  0.14913863696E+03  0.14913863696E+03  0.00000000000E+00 0. -1.
         -2   -1    0    0    0  501 -0.00000000000E+00 -0.00000000000E+00 -0.90111194150E+02  0.90111194150E+02  0.00000000000E+00 0.  1.
         23    2    1    2    0    0 -0.23192125992E+02  0.31335974310E+02  0.29835868604E+02  0.13437804283E+03  0.12508981312E+03 0.  0.
         23    2    1    2    0    0  0.23192125992E+02 -0.31335974310E+02  0.29191574209E+02  0.10487178828E+03  0.92876939971E+02 0.  0.
          5    1    3    3  502    0 -0.52706730571E+02 -0.30591890848E+02  0.49590315461E+01  0.61285623331E+02  0.41800000000E+01 0.  1.
         -5    1    3    3    0  502  0.29514604579E+02  0.61927865159E+02  0.24876837058E+02  0.73092419502E+02  0.41800000000E+01 0.  1.
        -11    1    4    4    0    0 -0.16948797444E+02 -0.13834397332E+00 -0.25232378180E+02  0.30396608075E+02  0.00000000000E+00 0.  1.
         11    1    4    4    0    0  0.40140923436E+02 -0.31197630337E+02  0.54423952389E+02  0.74475180205E+02  0.00000000000E+00 0. -1.
</event>
<event>
 8    1  0.4798744E-006  0.1278601E+03  0.7561462E-02  0.1230666E+00
         -1   -1    0    0    0  501 -0.00000000000E+00  0.00000000000E+00  0.62030619574E+03  0.62030619574E+03  0.00000000000E+00 0.  1.
          1   -1    0    0  501    0  0.00000000000E+00 -0.00000000000E+00 -0.59854323774E+02  0.59854323774E+02  0.00000000000E+00 0. -1.
         23    2    1    2    0    0 -0.37681466788E+02 -0.10974767470E+03  0.48569151660E+03  0.51479004858E+03  0.12509236497E+03 0.  0.
         23    2    1    2    0    0  0.37681466788E+02  0.10974767470E+03  0.74760355368E+02  0.16537047094E+03  0.91070505007E+02 0.  0.
          5    1    3    3  502    0 -0.33864442208E+02 -0.95940745950E+02  0.16595021590E+03  0.19470072865E+03  0.41800000000E+01 0. -1.
         -5    1    3    3    0  502 -0.38170245802E+01 -0.13806928752E+02  0.31974130070E+03  0.32008931993E+03  0.41800000000E+01 0. -1.
        -11    1    4    4    0    0 -0.20391507691E+02  0.56925451769E+02  0.60587282219E+02  0.85598711507E+02  0.00000000000E+00 0.  1.
         11    1    4    4    0    0  0.58072974479E+02  0.52822222932E+02  0.14173073149E+02  0.79771759432E+02  0.00000000000E+00 0. -1.
</event>
<event>
 7    1  0.4798744E-006  0.9894931E+02  0.7561462E-02  0.1282521E+00
         -2   -1    0    0    0  501 -0.00000000000E+00  0.00000000000E+00  0.25372881154E+03  0.25372881154E+03  0.00000000000E+00 0.  1.
          2   -1    0    0  501    0  0.00000000000E+00 -0.00000000000E+00 -0.81000782572E+02  0.81000782572E+02  0.00000000000E+00 0. -1.
         23    2    1    2    0    0  0.90876777980E+01 -0.31286693799E+02 -0.14610782793E+02  0.97809893030E+02  0.91059634878E+02 0.  0.
          5    1    1    2  502    0 -0.63890686650E+02  0.18624017090E+02  0.36799628632E+02  0.76161400464E+02  0.41800000000E+01 0. -1.
         -5    1    1    2    0  502  0.54803008852E+02  0.12662676709E+02  0.15053918313E+03  0.16075830062E+03  0.41800000000E+01 0.  1.
        -11    1    3    3    0    0  0.12359537350E+02 -0.52202418831E+02 -0.38394102270E+02  0.65969370047E+02  0.00000000000E+00 0. -1.
         11    1    3    3    0    0 -0.32718595515E+01  0.20915725031E+02  0.23783319477E+02  0.31840522983E+02  0.00000000000E+00 0.  1.
</event>
<event>
 8    1  0.4798744E-006  0.8107132E+02  0.7561462E-02  0.1326038E+00
         -1   -1    0    0    0  501 -0.00000000000E+00  0.00000000000E+00  0.47528175134E+03  0.47528175134E+03  0.00000000000E+00 0.  1.
          1   -1    0    0  501    0  0.00000000000E+00 -0.00000000000E+00 -0.53245274950E+02  0.53245274950E+02  0.00000000000E+00 0. -1.
         23    2    1    2    0    0 -0.18860834639E+02 -0.39756941206E+02  0.40179819141E+03  0.42311390916E+03  0.12508896054E+03 0.  0.
         23    2    1    2    0    0  0.18860834639E+02  0.39756941206E+02  0.20238284982E+02  0.10541311713E+03  0.93626874489E+02 0.  0.
          5    1    3    3  502    0  0.42508309139E+02  0.27313414992E+01  0.25296149848E+03  0.25655683325E+03  0.41800000000E+01 0.  1.
         -5    1    3    3    0  502 -0.61369143777E+02 -0.42488282705E+02  0.14883669292E+03  0.16655707591E+03  0.41800000000E+01 0.  1.
        -11    1    4    4    0    0  0.82301831990E+01  0.25525646183E+02  0.57879323434E+02  0.63791148365E+02  0.00000000000E+00 0.  1.
         11    1    4    4    0    0  0.10630651440E+02  0.14231295023E+02 -0.37641038452E+02  0.41621968764E+02  0.00000000000E+00 0. -1.
</event>
<event>
 8    1  0.4798744E-006  0.1060131E+03  0.7561462E-02  0.1268136E+00
         -1   -1    0    0    0  501 -0.00000000000E+00  0.00000000000E+00  0.12668875679E+04  0.12668875679E+04  0.00000000000E+00 0.  1.
          1   -1    0    0  501    0  0.00000000000E+00 -0.00000000000E+00 -0.20273315117E+02  0.20273315117E+02  0.00000000000E+00 0. -1.
         23    2    1    2    0    0 -0.16129617694E+02  0.43002758457E+02  0.10938803969E+04  0.11019849952E+04  0.12524857328E+03 0.  0.
         23    2    1    2    0    0  0.16129617694E+02 -0.43002758457E+02  0.15273385587E+03  0.18517588781E+03  0.94090790705E+02 0.  0.
          5    1    3    3  502    0  0.35573829733E+02 -0.26990809173E+02  0.29905807561E+03  0.30240239107E+03  0.41800000000E+01 0. -1.
         -5    1    3    3    0  502 -0.51703447427E+02  0.69993567629E+02  0.79482232132E+03  0.79958260415E+03  0.41800000000E+01 0.  1.
        -11    1    4    4    0    0  0.41697996946E+02 -0.23205302715E+02  0.14396968632E+03  0.15167227697E+03  0.00000000000E+00 0.  1.
         11    1    4    4    0    0 -0.25568379252E+02 -0.19797455742E+02  0.87641695549E+01  0.33503610841E+02  0.00000000000E+00 0. -1.
</event>
<event>
 8    1  0.4798744E-006  0.9971459E+02  0.7561462E-02  0.1280897E+00
         -2   -1    0    0    0  501 -0.00000000000E+00  0.00000000000E+00  0.26521825140E+02  0.26521825140E+02  0.00000000000E+00 0.  1.
          2   -1    0    0  501    0  0.00000000000E+00 -0.00000000000E+00 -0.75138154979E+03  0.75138154979E+03  0.00000000000E+00 0. -1.
         23    2    1    2    0    0 -0.68534290387E+02  0.49721766342E+02 -0.35118318038E+03  0.38229024047E+03  0.12508796412E+03 0.  0.
         23    2    1    2    0    0  0.68534290387E+02 -0.49721766342E+02 -0.37367654427E+03  0.39561313446E+03  0.98521010023E+02 0.  0.
          5    1    3    3  502    0 -0.70716224593E+02  0.38152907486E+02 -0.35876493213E+03  0.36767672988E+03  0.41800000000E+01 0. -1.
         -5    1    3    3    0  502  0.21819342061E+01  0.11568858856E+02  0.75817517476E+01  0.14613510587E+02  0.41800000000E+01 0. -1.
        -11    1    4    4    0    0  0.55452760840E+02 -0.40577148726E+00 -0.78809529624E+02  0.96364491877E+02  0.00000000000E+00 0.  1.
         11    1    4    4    0    0  0.13081529548E+02 -0.49315994855E+02 -0.29486701464E+03  0.29924864258E+03  0.00000000000E+00 0. -1.
</event>
<event>
 8    1  0.4798744E-006  0.1195932E+03  0.7561462E-02  0.1243770E+00
          2   -1    0    0  501    0  0.00000000000E+00  0.00000000000E+00  0.12506302310E+03  0.12506302310E+03  0.00000000000E+00 0. -1.
         -2   -1    0    0    0  501 -0.00000000000E+00 -0.00000000000E+00 -0.15345219212E+03  0.15345219212E+03  0.00000000000E+00 0.  1.
         23    2    1    2    0    0 -0.71338688349E+02 -0.23608641195E+01 -0.64128694842E+02  0.15765335459E+03  0.12508920248E+03 0.  0.
         23    2    1    2    0    0  0.71338688349E+02  0.23608641195E+01  0.35739525828E+02  0.12086186063E+03  0.90749619905E+02 0.  0.
          5    1    3    3  502    0  0.34991523720E+02 -0.11554519492E+02 -0.19441952283E+02  0.41873327567E+02  0.41800000000E+01 0.  1.
         -5    1    3    3    0  502 -0.10633021207E+03  0.91936553724E+01 -0.44686742559E+02  0.11578002703E+03  0.41800000000E+01 0.  1.
        -11    1    4    4    0    0  0.37000974454E+02  0.32768581347E+02 -0.15780649696E+02  0.51883339704E+02  0.00000000000E+00 0.  1.
         11    1    4    4    0    0  0.34337713896E+02 -0.30407717228E+02  0.51520175524E+02  0.68978520922E+02  0.00000000000E+00 0. -1.
</event>
<event>
 7    1  0.4798744E-006  0.9616407E+02  0.7561462E-02  0.1288576E+00
         -2   -1    0    0    0  501 -0.00000000000E+00  0.00000000000E+00  0.41164877506E+03  0.41164877506E+03  0.00000000000E+00 0.  1.
          2   -1    0    0  501    0  0.00000000000E+00 -0.00000000000E+00 -0.55890003121E+02  0.55890003121E+02  0.00000000000E+00 0. -1.
         23    2    1    2    0    0 -0.52007532980E+02 -0.15298359608E+02  0.19271484217E+02  0.88176582015E+02  0.66819878917E+02 0.  0.
          5    1    1    2  502    0  0.68282555461E+02 -0.16535106771E+02  0.40514364204E+02  0.81208393920E+02  0.41800000000E+01 0. -1.
         -5    1    1    2    0  502 -0.16275022481E+02  0.31833466379E+02  0.29597292351E+03  0.29815380224E+03  0.41800000000E+01 0.  1.
        -11    1    3    3    0    0 -0.62147220895E+02  0.59265733625E+01  0.12158855534E+02  0.63602194181E+02  0.00000000000E+00 0. -1.
         11    1    3    3    0    0  0.10139687915E+02 -0.21224932971E+02  0.71126286830E+01  0.24574387834E+02  0.00000000000E+00 0.  1.
</event>
<event>
 8    1  0.4798744E-006  0.1039156E+03  0.7561462E-02  0.1272271E+00
         -3   -1    0    0    0  501 -0.00000000000E+00  0.00000000000E+00  0.11200068090E+03  0.11200068090E+03  0.00000000000E+00 0.  1.
          3   -1    0    0  501    0  0.00000000000E+00 -0.00000000000E+00 -0.11938803340E+03  0.11938803340E+03  0.00000000000E+00 0. -1.
         23    2    1    2    0    0  0.71008039430E+01 -0.18910770229E+02  0.22875106577E+02  0.12875002636E+03  0.12508101430E+03 0.  0.
         23    2    1    2    0    0 -0.71008039430E+01  0.18910770229E+02 -0.30262459077E+02  0.10263868795E+03  0.95973148259E+02 0.  0.
          5    1    3    3  502    0 -0.34268040915E+02 -0.59159675987E+02  0.17069963432E+02  0.70590523037E+02  0.41800000000E+01 0. -1.
         -5    1    3    3    0  502  0.41368844858E+02  0.40248905757E+02  0.58051431448E+01  0.58159503320E+02  0.41800000000E+01 0. -1.
        -11    1    4    4    0    0  0.62806772427E+01 -0.30055585575E+02 -0.40531347999E+02  0.50848552600E+02  0.00000000000E+00 0. -1.
         11    1    4    4    0    0 -0.13381481186E+02  0.48966355805E+02  0.10268888922E+02  0.51790135346E+02  0.00000000000E+00 0.  1.
</event>
<event>
 8    1  0.4798744E-006  0.1083846E+03  0.7561462E-02  0.1263591E+00
          2   -1    0    0  501    0  0.00000000000E+00  0.00000000000E+00  0.15279823361E+03  0.15279823361E+03  0.00000000000E+00 0.  1.
         -2   -1    0    0    0  501 -0.00000000000E+00 -0.00000000000E+00 -0.95761115978E+02  0.95761115978E+02  0.00000000000E+00 0. -1.
         23    2    1    2    0    0 -0.49784723132E+02 -0.15326012840E+02  0.13507582155E+02  0.13617796654E+03  0.12509427832E+03 0.  0.
         23    2    1    2    0    0  0.49784723132E+02  0.15326012840E+02  0.43529535479E+02  0.11238138305E+03  0.89561986745E+02 0.  0.
          5    1    3    3  502    0 -0.28356175207E+02 -0.61530933454E+02  0.39821418393E+02  0.78697815769E+02  0.41800000000E+01 0. -1.
         -5    1    3    3    0  502 -0.21428547925E+02  0.46204920615E+02 -0.26313836238E+02  0.57480150772E+02  0.41800000000E+01 0. -1.
        -11    1    4    4    0    0  0.33760904810E+02  0.49572425284E+02  0.80189270341E+01  0.60510554723E+02  0.00000000000E+00 0.  1.
         11    1    4    4    0    0  0.16023818323E+02 -0.34246412445E+02  0.35510608445E+02  0.51870828324E+02  0.00000000000E+00 0. -1.
</event>
<event>
 8    1  0.4798744E-006  0.1152350E+03  0.7561462E-02  0.1251171E+00
          4   -1    0    0  501    0  0.00000000000E+00  0.00000000000E+00  0.14835411299E+03  0.14835411299E+03  0.00000000000E+00 0. -1.
         -4   -1    0    0    0  501 -0.00000000000E+00 -0.00000000000E+00 -0.15548590264E+03  0.15548590264E+03  0.00000000000E+00 0.  1.
         23    2    1    2    0    0  0.77641910640E+02 -0.46438162471E+02 -0.58802535675E+02  0.16520094910E+03  0.12509534827E+03 0.  0.
         23    2    1    2    0    0 -0.77641910640E+02  0.46438162471E+02  0.51670746019E+02  0.13863906653E+03  0.91466690952E+02 0.  0.
          5    1    3    3  502    0  0.20035950968E+02 -0.55445660341E+02  0.24045105358E+02  0.63806740032E+02  0.41800000000E+01 0. -1.
         -5    1    3    3    0  502  0.57605959672E+02  0.90074978705E+01 -0.82847641033E+02  0.10139420907E+03  0.41800000000E+01 0. -1.
        -11    1    4    4    0    0  0.10894765277E+02  0.15863575319E+02 -0.14381692685E+02  0.24024612730E+02  0.00000000000E+00 0.  1.
         11    1    4    4    0    0 -0.88536675917E+02  0.30574587152E+02  0.66052438704E+02  0.11461445380E+03  0.00000000000E+00 0. -1.
</event>
<event>
 7    1  0.4798744E-006  0.1151118E+03  0.7561462E-02  0.1251386E+00
         -1   -1    0    0    0  501 -0.00000000000E+00  0.00000000000E+00  0.40915074101E+02  0.40915074101E+02  0.00000000000E+00 0.  1.
          1   -1    0    0  501    0  0.00000000000E+00 -0.00000000000E+00 -0.44841691988E+03  0.44841691988E+03  0.00000000000E+00 0. -1.
         23    2    1    2    0    0 -0.79214536977E+02  0.34115589630E+02 -0.14380149425E+03  0.20923882079E+03  0.12515269895E+03 0.  0.
          5    1    3    3  502    0  0.16176473323E+02 -0.20708308656E+02 -0.74579749225E+02  0.79184112871E+02  0.41800000000E+01 0.  1.
         -5    1    3    3    0  502 -0.95391010300E+02  0.54823898286E+02 -0.69221745022E+02  0.13005470792E+03  0.41800000000E+01 0.  1.
        -11    1    1    2    0    0  0.43320566231E+02  0.95360145568E+00 -0.10310650129E+03  0.11184154605E+03  0.00000000000E+00 0. -1.
         11    1    1    2    0    0  0.35893970747E+02 -0.35069191086E+02 -0.16059385024E+03  0.16825162714E+03  0.00000000000E+00 0.  1.
</event>
<event>
 8    1  0.4798744E-006  0.1155525E+03  0.7561462E-02  0.1250620E+00
         -1   -1    0    0    0  501 -0.00000000000E+00  0.00000000000E+00  0.23733649216E+02  0.23733649216E+02  0.00000000000E+00 0.  1.
          1   -1    0    0  501    0  0.00000000000E+00 -0.00000000000E+00 -0.75998616057E+03  0.75998616057E+03  0.00000000000E+00 0. -1.
         23    2    1    2    0    0 -0.69802483933E+02 -0.17466535348E+02 -0.31238096640E+03  0.34410253210E+03  0.12508883966E+03 0.  0.
         23    2    1    2    0    0  0.69802483933E+02  0.17466535348E+02 -0.42387154495E+03  0.43961727769E+03  0.91754005901E+02 0.  0.
          5    1    3    3  502    0 -0.41217811822E+02  0.37253663833E+02 -0.51120206460E+02  0.75614095174E+02  0.41800000000E+01 0.  1.
         -5    1    3    3    0  502 -0.28584672111E+02 -0.54720199181E+02 -0.26126075994E+03  0.26848843693E+03  0.41800000000E+01 0.  1.
        -11    1    4    4    0    0 -0.19917112149E+02 -0.59497961030E+01 -0.45080193176E+02  0.49641869896E+02  0.00000000000E+00 0.  1.
         11    1    4    4    0    0  0.89719596081E+02  0.23416331451E+02 -0.37879135178E+03  0.38997540779E+03  0.00000000000E+00 0. -1.
</event>
<event>
 8    1  0.4798744E-006  0.8942536E+02  0.7561462E-02  0.1304249E+00
         -1   -1    0    0    0  501 -0.00000000000E+00  0.00000000000E+00  0.25379674749E+02  0.25379674749E+02  0.00000000000E+00 0.  1.
          1   -1    0    0  501    0  0.00000000000E+00 -0.00000000000E+00 -0.53086149650E+03  0.53086149650E+03  0.00000000000E+00 0. -1.
         23    2    1    2    0    0  0.16351078448E+02 -0.42084031310E+01 -0.18797710002E+03  0.22645565110E+03  0.12514672731E+03 0.  0.
         23    2    1    2    0    0 -0.16351078448E+02  0.42084031310E+01 -0.31750472173E+03  0.32978552015E+03  0.87545260068E+02 0.  0.
          5    1    3    3  502    0  0.12512568000E+02 -0.46098812229E+02 -0.17614969806E+03  0.18255917773E+03  0.41800000000E+01 0.  1.
         -5    1    3    3    0  502  0.38385104477E+01  0.41890409098E+02 -0.11827401965E+02  0.43896473367E+02  0.41800000000E+01 0.  1.
        -11    1    4    4    0    0  0.21778240559E+02  0.33906373278E+02 -0.12665281824E+03  0.13290925581E+03  0.00000000000E+00 0.  1.
         11    1    4    4    0    0 -0.38129319007E+02 -0.29697970147E+02 -0.19085190349E+03  0.19687626435E+03  0.00000000000E+00 0. -1.
</event>
<event>
 8    1  0.4798744E-006  0.1022430E+03  0.7561462E-02  0.1275649E+00
         -2   -1    0    0    0  501 -0.00000000000E+00  0.00000000000E+00  0.67387167126E+03  0.67387167126E+03  0.00000000000E+00 0.  1.
          2   -1    0    0  501    0  0.00000000000E+00 -0.00000000000E+00 -0.28145156451E+02  0.28145156451E+02  0.00000000000E+00 0. -1.
         23    2    1    2    0    0  0.10154983530E+02  0.14016965059E+02  0.57014090958E+03  0.58395879995E+03  0.12509046431E+03 0.  0.
         23    2    1    2    0    0 -0.10154983530E+02 -0.14016965059E+02  0.75585605232E+02  0.11805802776E+03  0.89021992795E+02 0.  0.
          5    1    3    3  502    0 -0.11565789531E+02  0.67325806484E+02  0.29621707270E+03  0.30402065434E+03  0.41800000000E+01 0. -1.
         -5    1    3    3    0  502  0.21720773060E+02 -0.53308841425E+02  0.27392383688E+03  0.27993814561E+03  0.41800000000E+01 0. -1.
        -11    1    4    4    0    0  0.51165236434E+01  0.30676401000E+02  0.61260801510E+02  0.68703029002E+02  0.00000000000E+00 0.  1.
         11    1    4    4    0    0 -0.15271507173E+02 -0.44693366059E+02  0.14324803722E+02  0.49354998761E+02  0.00000000000E+00 0. -1.
</event>
<event>
 8    1  0.4798744E-006  0.1013517E+03  0.7561462E-02  0.1277479E+00
          4   -1    0    0  501    0  0.00000000000E+00  0.00000000000E+00  0.83607168415E+02  0.83607168415E+02  0.00000000000E+00 0. -1.
         -4   -1    0    0    0  501 -0.00000000000E+00 -0.00000000000E+00 -0.22321962923E+03  0.22321962923E+03  0.00000000000E+00 0.  1.
         23    2    1    2    0    0 -0.44883692622E+01 -0.61874519353E+02 -0.13777034763E+03  0.19615844204E+03  0.12509541996E+03 0.  0.
         23    2    1    2    0    0  0.44883692622E+01  0.61874519353E+02 -0.18421131827E+01  0.11066835560E+03  0.91626906233E+02 0.  0.
          5    1    3    3  502    0  0.19646623131E+02 -0.69509757814E+02 -0.15089100138E+03  0.16734145610E+03  0.41800000000E+01 0.  1.
         -5    1    3    3    0  502 -0.24134992393E+02  0.76352384612E+01  0.13120653751E+02  0.28816985946E+02  0.41800000000E+01 0.  1.
        -11    1    4    4    0    0  0.38719449523E+02  0.60216913014E+01  0.16687245169E+02  0.42590147791E+02  0.00000000000E+00 0. -1.
         11    1    4    4    0    0 -0.34231080261E+02  0.55852828051E+02 -0.18529358351E+02  0.68078207806E+02  0.00000000000E+00 0.  1.
</event>
<event>
 8    1  0.4798744E-006  0.8769197E+02  0.7561462E-02  0.1308539E+00
         -2   -1    0    0    0  501 -0.00000000000E+00  0.00000000000E+00  0.34572871508E+03  0.34572871508E+03  0.00000000000E+00 0.  1.
          2   -1    0    0  501    0  0.00000000000E+00 -0.00000000000E+00 -0.48532834136E+02  0.48532834136E+02  0.00000000000E+00 0. -1.
         23    2    1    2    0    0 -0.61955396007E+01 -0.27659807937E+02  0.26438316219E+03  0.29385102385E+03  0.12508604273E+03 0.  0.
         23    2    1    2    0    0  0.61955396007E+01  0.27659807937E+02  0.32812718758E+02  0.10041052536E+03  0.90565718711E+02 0.  0.
          5    1    3    3  502    0  0.17040469366E+02 -0.49774592096E+02  0.25466176374E+03  0.26007301652E+03  0.41800000000E+01 0.  1.
         -5    1    3    3    0  502 -0.23236008967E+02  0.22114784159E+02  0.97213984484E+01  0.33778007326E+02  0.41800000000E+01 0.  1.
        -11    1    4    4    0    0  0.44398565358E+02  0.27170233926E+02  0.33435483991E+01  0.52159692612E+02  0.00000000000E+00 0. -1.
         11    1    4    4    0    0 -0.38203025757E+02  0.48957401132E+00  0.29469170359E+02  0.48250832753E+02  0.00000000000E+00 0.  1.
</event>
<event>
 8    1  0.4798744E-006  0.1021525E+03  0.7561462E-02  0.1275834E+00
         -1   -1    0    0    0  501 -0.00000000000E+00  0.00000000000E+00  0.12812367273E+03  0.12812367273E+03  0.00000000000E+00 0.  1.
          1   -1    0    0  501    0  0.00000000000E+00 -0.00000000000E+00 -0.10739154887E+03  0.10739154887E+03  0.00000000000E+00 0. -1.
         23    2    1    2    0    0 -0.14694855376E+01  0.19694394574E+02  0.52229528146E+02  0.13698516521E+03  0.12508790234E+03 0.  0.
         23    2    1    2    0    0  0.14694855376E+01 -0.19694394574E+02 -0.31497404284E+02  0.98530056388E+02  0.91247229929E+02 0.  0.
          5    1    3    3  502    0 -0.12151134483E+02 -0.45223787441E+02 -0.80008812340E+01  0.47689910047E+02  0.41800000000E+01 0. -1.
         -5    1    3    3    0  502  0.10681648945E+02  0.64918182015E+02  0.60230409380E+02  0.89295255162E+02  0.41800000000E+01 0. -1.
        -11    1    4    4    0    0 -0.40520871163E+02 -0.27074107526E+02 -0.66531839966E+01  0.49185497409E+02  0.00000000000E+00 0.  1.
         11    1    4    4    0    0  0.41990356700E+02  0.73797129516E+01 -0.24844220288E+02  0.49344558978E+02  0.00000000000E+00 0. -1.
</event>
<event>
 8    1  0.4798744E-006  0.1029298E+03  0.7561462E-02  0.1274253E+00
         -1   -1    0    0    0  501 -0.00000000000E+00  0.00000000000E+00  0.76028531102E+02  0.76028531102E+02  0.00000000000E+00 0.  1.
          1   -1    0    0  501    0  0.00000000000E+00 -0.00000000000E+00 -0.37023325365E+03  0.37023325365E+03  0.00000000000E+00 0. -1.
         23    2    1    2    0    0 -0.28688623955E+02  0.83404793219E+02 -0.35018222349E+02  0.15700283651E+03  0.12507684877E+03 0.  0.
         23    2    1    2    0    0  0.28688623955E+02 -0.83404793219E+02 -0.25918650020E+03  0.28925894824E+03  0.93347204442E+02 0.  0.
          5    1    3    3  502    0 -0.15614896874E+02  0.96877483198E+02 -0.67555025223E+02  0.11920665077E+03  0.41800000000E+01 0. -1.
         -5    1    3    3    0  502 -0.13073727080E+02 -0.13472689979E+02  0.32536802874E+02  0.37796185737E+02  0.41800000000E+01 0. -1.
        -11    1    4    4    0    0  0.17798347164E+02 -0.42415260060E+02 -0.23694636516E+03  0.24136987262E+03  0.00000000000E+00 0. -1.
         11    1    4    4    0    0  0.10890276790E+02 -0.40989533159E+02 -0.22240135039E+02  0.47889075620E+02  0.00000000000E+00 0.  1.
</event>
<event>
 8    1  0.4798744E-006  0.1051602E+03  0.7561462E-02  0.1269804E+00
         -1   -1    0    0    0  501 -0.00000000000E+00  0.00000000000E+00  0.39406385754E+02  0.39406385754E+02  0.00000000000E+00 0.  1.
          1   -1    0    0  501    0  0.00000000000E+00 -0.00000000000E+00 -0.42517348135E+03  0.42517348135E+03  0.00000000000E+00 0. -1.
         23    2    1    2    0    0  0.58052329492E+01 -0.66564321601E+02 -0.22703523548E+03  0.26768735660E+03  0.12508802139E+03 0.  0.
         23    2    1    2    0    0 -0.58052329492E+01  0.66564321601E+02 -0.15873186011E+03  0.19689251050E+03  0.95427184999E+02 0.  0.
          5    1    3    3  502    0  0.85789131244E+01 -0.10368145722E+03 -0.17367093946E+03  0.20249076506E+03  0.41800000000E+01 0.  1.
         -5    1    3    3    0  502 -0.27736801752E+01  0.37117135622E+02 -0.53364296025E+02  0.65196591542E+02  0.41800000000E+01 0.  1.
        -11    1    4    4    0    0  0.56420012135E+01  0.25457925437E+02  0.59721978987E+01  0.26750799857E+02  0.00000000000E+00 0.  1.
         11    1    4    4    0    0 -0.11447234163E+02  0.41106396164E+02 -0.16470405801E+03  0.17014171064E+03  0.00000000000E+00 0. -1.
</event>
<event>
 8    1  0.4798744E-006  0.6920336E+02  0.7561462E-02  0.1362823E+00
         -2   -1    0    0    0  501 -0.00000000000E+00  0.00000000000E+00  0.83473016424E+02  0.83473016424E+02  0.00000000000E+00 0. -1.
          2   -1    0    0  501    0  0.00000000000E+00 -0.00000000000E+00 -0.16206706445E+03  0.16206706445E+03  0.00000000000E+00 0.  1.
         23    2    1    2    0    0 -0.28628235806E+02 -0.18833216863E+02 -0.19043294696E+02  0.13108564560E+03  0.12508610421E+03 0.  0.
         23    2    1    2    0    0  0.28628235806E+02  0.18833216863E+02 -0.59550753327E+02  0.11445443527E+03  0.91538295751E+02 0.  0.
          5    1    3    3  502    0 -0.26143837603E+02 -0.36504293941E+02  0.45458000450E+02  0.64030976298E+02  0.41800000000E+01 0.  1.
         -5    1    3    3    0  502 -0.24843982027E+01  0.17671077078E+02 -0.64501295146E+02  0.67054669301E+02  0.41800000000E+01 0.  1.
        -11    1    4    4    0    0  0.48652396712E+02  0.24077943504E+02 -0.72097750271E+02  0.90249036911E+02  0.00000000000E+00 0.  1.
         11    1    4    4    0    0 -0.20024160906E+02 -0.52447266414E+01  0.12546996944E+02  0.24205398362E+02  0.00000000000E+00 0. -1.
</event>
<event>
 8    1  0.4798744E-006  0.1432889E+03  0.7561462E-02  0.1208971E+00
         -2   -1    0    0    0  501 -0.00000000000E+00  0.00000000000E+00  0.33655245772E+03  0.33655245772E+03  0.00000000000E+00 0.  1.
          2   -1    0    0  501    0  0.00000000000E+00 -0.00000000000E+00 -0.66319753305E+02  0.66319753305E+02  0.00000000000E+00 0. -1.
         23    2    1    2    0    0  0.31993939945E+02  0.97671755238E+02  0.15566459403E+03  0.22459331193E+03  0.12508919205E+03 0.  0.
         23    2    1    2    0    0 -0.31993939945E+02 -0.97671755238E+02  0.11456811039E+03  0.17827889909E+03  0.89967382862E+02 0.  0.
          5    1    3    3  502    0 -0.35458452657E+02  0.11540119047E+01  0.97178108371E+01  0.37020830025E+02  0.41800000000E+01 0. -1.
         -5    1    3    3    0  502  0.67452392602E+02  0.96517743333E+02  0.14594678319E+03  0.18757248191E+03  0.41800000000E+01 0. -1.
        -11    1    4    4    0    0 -0.19074632147E+02 -0.11207153021E+03  0.81186219244E+02  0.13969635525E+03  0.00000000000E+00 0. -1.
         11    1    4    4    0    0 -0.12919307798E+02  0.14399774969E+02  0.33381891141E+02  0.38582543842E+02  0.00000000000E+00 0.  1.
</event>
<event>
 8    1  0.4798744E-006  0.5618904E+02  0.7561462E-02  0.1414558E+00
         -3   -1    0    0    0  501 -0.00000000000E+00  0.00000000000E+00  0.24854329776E+03  0.24854329776E+03  0.00000000000E+00 0.  1.
          3   -1    0    0  501    0  0.00000000000E+00 -0.00000000000E+00 -0.87729744283E+02  0.87729744283E+02  0.00000000000E+00 0. -1.
         23    2    1    2    0    0 -0.46373676845E+02 -0.24587588587E+02  0.18292746781E+03  0.22773987895E+03  0.12509167265E+03 0.  0.
         23    2    1    2    0    0  0.46373676845E+02  0.24587588587E+02 -0.22113914332E+02  0.10853316310E+03  0.92386984300E+02 0.  0.
          5    1    3    3  502    0 -0.38815704121E+02 -0.63256729696E+01  0.19839402858E+03  0.20229764210E+03  0.41800000000E+01 0. -1.
         -5    1    3    3    0  502 -0.75579727238E+01 -0.18261915618E+02 -0.15466560767E+02  0.25442236845E+02  0.41800000000E+01 0. -1.
        -11    1    4    4    0    0  0.12487929606E+02  0.47415802166E+01  0.35998229086E+02  0.38396659570E+02  0.00000000000E+00 0.  1.
         11    1    4    4    0    0  0.33885747239E+02  0.19846008371E+02 -0.58112143419E+02  0.70136503527E+02  0.00000000000E+00 0. -1.
</event>
<event>
 8    1  0.4798744E-006  0.2339911E+03  0.7561462E-02  0.1123862E+00
          1   -1    0    0  501    0  0.00000000000E+00  0.00000000000E+00  0.28545224036E+02  0.28545224036E+02  0.00000000000E+00 0. -1.
         -1   -1    0    0    0  501 -0.00000000000E+00 -0.00000000000E+00 -0.19878268318E+04  0.19878268318E+04  0.00000000000E+00 0.  1.
         23    2    1    2    0    0  0.10193674573E+03  0.18376969352E+03 -0.11383259468E+04  0.11643007058E+04  0.12509105524E+03 0.  0.
         23    2    1    2    0    0 -0.10193674573E+03 -0.18376969352E+03 -0.82095566094E+03  0.85207134996E+03  0.88853743915E+02 0.  0.
          5    1    3    3  502    0 -0.25161576910E+02  0.44066898858E+02 -0.16013603314E+03  0.16803576416E+03  0.41800000000E+01 0.  1.
         -5    1    3    3    0  502  0.12709832264E+03  0.13970279466E+03 -0.97818991366E+03  0.99626494169E+03  0.41800000000E+01 0.  1.
        -11    1    4    4    0    0 -0.11414784123E+03 -0.12994860472E+03 -0.62549300163E+03  0.64896676695E+03  0.00000000000E+00 0.  1.
         11    1    4    4    0    0  0.12211095497E+02 -0.53821088795E+02 -0.19546265932E+03  0.20310458301E+03  0.00000000000E+00 0. -1.
</event>
<event>
 8    1  0.4798744E-006  0.1163937E+03  0.7561462E-02  0.1249168E+00
         -1   -1    0    0    0  501 -0.00000000000E+00  0.00000000000E+00  0.11385736892E+03  0.11385736892E+03  0.00000000000E+00 0.  1.
          1   -1    0    0  501    0  0.00000000000E+00 -0.00000000000E+00 -0.16005115071E+03  0.16005115071E+03  0.00000000000E+00 0. -1.
         23    2    1    2    0    0  0.78030259569E+02  0.28812393448E+02 -0.24580254107E+02  0.15222008273E+03  0.12509152357E+03 0.  0.
         23    2    1    2    0    0 -0.78030259569E+02 -0.28812393448E+02 -0.21613527681E+02  0.12168843690E+03  0.86151353279E+02 0.  0.
          5    1    3    3  502    0  0.75835299494E+02 -0.36334396910E+02 -0.64916279928E+01  0.84444032840E+02  0.41800000000E+01 0. -1.
         -5    1    3    3    0  502  0.21949600747E+01  0.65146790359E+02 -0.18088626114E+02  0.67776049888E+02  0.41800000000E+01 0. -1.
        -11    1    4    4    0    0 -0.54243480831E+02 -0.18053596804E+02  0.29472005743E+02  0.64318634102E+02  0.00000000000E+00 0.  1.
         11    1    4    4    0    0 -0.23786778738E+02 -0.10758796645E+02 -0.51085533423E+02  0.57369802798E+02  0.00000000000E+00 0. -1.
</event>
<event>
 8    1  0.4798744E-006  0.1106843E+03  0.7561462E-02  0.1259308E+00
         -2   -1    0    0    0  501 -0.00000000000E+00  0.00000000000E+00  0.64829333057E+02  0.64829333057E+02  0.00000000000E+00 0.  1.
          2   -1    0    0  501    0  0.00000000000E+00 -0.00000000000E+00 -0.22211914729E+03  0.22211914729E+03  0.00000000000E+00 0. -1.
         23    2    1    2    0    0 -0.56878552456E+02  0.24291400718E+02 -0.86890950725E+02  0.16412874406E+03  0.12475161494E+03 0.  0.
         23    2    1    2    0    0  0.56878552456E+02 -0.24291400718E+02 -0.70398863509E+02  0.12281973629E+03  0.79394242613E+02 0.  0.
          5    1    3    3  502    0  0.63078376272E+01 -0.36924013725E+02  0.35859266537E+01  0.37861628003E+02  0.41800000000E+01 0.  1.
         -5    1    3    3    0  502 -0.63186390083E+02  0.61215414443E+02 -0.90476877379E+02  0.12626711606E+03  0.41800000000E+01 0.  1.
        -11    1    4    4    0    0  0.70510023371E+02 -0.33187229469E+01 -0.33231591399E+02  0.78019330839E+02  0.00000000000E+00 0.  1.
         11    1    4    4    0    0 -0.13631470915E+02 -0.20972677771E+02 -0.37167272110E+02  0.44800405448E+02  0.00000000000E+00 0. -1.
</event>
<event>
 8    1  0.4798744E-006  0.1109206E+03  0.7561462E-02  0.1258875E+00
         -2   -1    0    0    0  501 -0.00000000000E+00  0.00000000000E+00  0.29929079134E+02  0.29929079134E+02  0.00000000000E+00 0.  1.
          2   -1    0    0  501    0  0.00000000000E+00 -0.00000000000E+00 -0.45873142189E+03  0.45873142189E+03  0.00000000000E+00 0. -1.
         23    2    1    2    0    0 -0.44364247353E+02 -0.46200533743E+01 -0.25067491575E+03  0.28368045818E+03  0.12508859911E+03 0.  0.
         23    2    1    2    0    0  0.44364247353E+02  0.46200533743E+01 -0.17812742701E+03  0.20498004285E+03  0.91092844823E+02 0.  0.
          5    1    3    3  502    0  0.39489026027E+02  0.18006807502E+02 -0.10968306155E+03  0.11803166814E+03  0.41800000000E+01 0.  1.
         -5    1    3    3    0  502 -0.83853273380E+02 -0.22626860876E+02 -0.14099185421E+03  0.16564879004E+03  0.41800000000E+01 0.  1.
        -11    1    4    4    0    0  0.32088842495E+01  0.38098933601E+02 -0.12154222628E+03  0.12741404337E+03  0.00000000000E+00 0. -1.
         11    1    4    4    0    0  0.41155363103E+02 -0.33478880227E+02 -0.56585200729E+02  0.77565999477E+02  0.00000000000E+00 0.  1.
</event>
<event>
 8    1  0.4798744E-006  0.9150710E+02  0.7561462E-02  0.1299243E+00
          1   -1    0    0  501    0  0.00000000000E+00  0.00000000000E+00  0.14577251971E+03  0.14577251971E+03  0.00000000000E+00 0. -1.
         -1   -1    0    0    0  501 -0.00000000000E+00 -0.00000000000E+00 -0.10250022764E+03  0.10250022764E+03  0.00000000000E+00 0.  1.
         23    2    1    2    0    0  0.66019067906E+01  0.16534815609E+02 -0.36665244888E+02  0.12368753964E+03  0.11677877366E+03 0.  0.
         23    2    1    2    0    0 -0.66019067906E+01 -0.16534815609E+02  0.79937536960E+02  0.12458520771E+03  0.93885456081E+02 0.  0.
          5    1    3    3  502    0 -0.39235955234E+02  0.11882175439E+02  0.23774413810E+02  0.47574588052E+02  0.41800000000E+01 0. -1.
         -5    1    3    3    0  502  0.45837862024E+02  0.46526401704E+01 -0.60439658699E+02  0.76112951586E+02  0.41800000000E+01 0.  1.
        -11    1    4    4    0    0  0.17457351011E+02  0.34753840734E+02  0.33638727582E+02  0.51421323820E+02  0.00000000000E+00 0.  1.
         11    1    4    4    0    0 -0.24059257802E+02 -0.51288656343E+02  0.46298809378E+02  0.73163883886E+02  0.00000000000E+00 0. -1.
</event>
<event>
 8    1  0.4798744E-006  0.1134642E+03  0.7561462E-02  0.1254286E+00
          2   -1    0    0  501    0  0.00000000000E+00  0.00000000000E+00  0.40175872172E+03  0.40175872172E+03  0.00000000000E+00 0. -1.
         -2   -1    0    0    0  501 -0.00000000000E+00 -0.00000000000E+00 -0.37146497980E+02  0.37146497980E+02  0.00000000000E+00 0.  1.
         23    2    1    2    0    0  0.13222961537E+02  0.51017554545E+02  0.16400946825E+03  0.21289637700E+03  0.12509246213E+03 0.  0.
         23    2    1    2    0    0 -0.13222961537E+02 -0.51017554545E+02  0.20060275548E+03  0.22600884269E+03  0.89782480942E+02 0.  0.
          5    1    3    3  502    0  0.53808766463E+02  0.71099550718E+02  0.12048882022E+03  0.14995185114E+03  0.41800000000E+01 0. -1.
         -5    1    3    3    0  502 -0.40585804926E+02 -0.20081996173E+02  0.43520648030E+02  0.62944525867E+02  0.41800000000E+01 0. -1.
        -11    1    4    4    0    0  0.11830104310E+02 -0.63224055276E+02  0.18057928602E+03  0.19169275174E+03  0.00000000000E+00 0. -1.
         11    1    4    4    0    0 -0.25053065847E+02  0.12206500731E+02  0.20023469469E+02  0.34316090949E+02  0.00000000000E+00 0.  1.
</event>
<event>
 8    1  0.4798744E-006  0.1126941E+03  0.7561462E-02  0.1255661E+00
          2   -1    0    0  501    0  0.00000000000E+00  0.00000000000E+00  0.21536674925E+02  0.21536674925E+02  0.00000000000E+00 0. -1.
         -2   -1    0    0    0  501 -0.00000000000E+00 -0.00000000000E+00 -0.71172579371E+03  0.71172579371E+03  0.00000000000E+00 0.  1.
         23    2    1    2    0    0  0.22051893039E+02  0.16778388184E+02 -0.52776597135E+03  0.54309732676E+03  0.12509990217E+03 0.  0.
         23    2    1    2    0    0 -0.22051893039E+02 -0.16778388184E+02 -0.16242314743E+03  0.19016514187E+03  0.94940518556E+02 0.  0.
          5    1    3    3  502    0  0.24726158818E+02 -0.52452506479E+02 -0.21496986555E+03  0.22269298117E+03  0.41800000000E+01 0. -1.
         -5    1    3    3    0  502 -0.26742657786E+01  0.69230894663E+02 -0.31279610580E+03  0.32040434560E+03  0.41800000000E+01 0. -1.
        -11    1    4    4    0    0  0.15550767120E+02 -0.47058905686E+02 -0.96140120472E+02  0.10816325497E+03  0.00000000000E+00 0.  1.
         11    1    4    4    0    0 -0.37602660159E+02  0.30280517502E+02 -0.66283026957E+02  0.82001886891E+02  0.00000000000E+00 0. -1.
</event>
<event>
 8    1  0.4798744E-006  0.6281507E+02  0.7561462E-02  0.1386384E+00
         -2   -1    0    0    0  501 -0.00000000000E+00  0.00000000000E+00  0.85088224315E+02  0.85088224315E+02  0.00000000000E+00 0. -1.
          2   -1    0    0  501    0  0.00000000000E+00 -0.00000000000E+00 -0.15736945661E+03  0.15736945661E+03  0.00000000000E+00 0.  1.
         23    2    1    2    0    0  0.13635007549E+02 -0.36279371542E+02 -0.46350940297E+02  0.13891754859E+03  0.12509024507E+03 0.  0.
         23    2    1    2    0    0 -0.13635007549E+02  0.36279371542E+02 -0.25930291999E+02  0.10354013233E+03  0.92444971360E+02 0.  0.
          5    1    3    3  502    0  0.43336332810E+01 -0.88510143617E+01 -0.87650501163E+02  0.88301775671E+02  0.41800000000E+01 0. -1.
         -5    1    3    3    0  502  0.93013742684E+01 -0.27428357181E+02  0.41299560865E+02  0.50615772923E+02  0.41800000000E+01 0. -1.
        -11    1    4    4    0    0 -0.45586742205E+02  0.19633594828E+02  0.12168005287E+02  0.51104691207E+02  0.00000000000E+00 0. -1.
         11    1    4    4    0    0  0.31951734655E+02  0.16645776714E+02 -0.38098297286E+02  0.52435441125E+02  0.00000000000E+00 0.  1.
</event>
<event>
 8    1  0.4798744E-006  0.1171065E+03  0.7561462E-02  0.1247948E+00
          2   -1    0    0  501    0  0.00000000000E+00  0.00000000000E+00  0.38517384784E+03  0.38517384784E+03  0.00000000000E+00 0. -1.
         -2   -1    0    0    0  501 -0.00000000000E+00 -0.00000000000E+00 -0.55714924312E+02  0.55714924312E+02  0.00000000000E+00 0.  1.
         23    2    1    2    0    0  0.26893323165E+02  0.94190905540E+02  0.14648371089E+03  0.21607446483E+03  0.12504207003E+03 0.  0.
         23    2    1    2    0    0 -0.26893323165E+02 -0.94190905540E+02  0.18297521263E+03  0.22481430732E+03  0.86408140944E+02 0.  0.
          5    1    3    3  502    0  0.35551343483E+01 -0.45365858715E+01 -0.19912098932E+02  0.21146717842E+02  0.41800000000E+01 0.  1.
         -5    1    3    3    0  502  0.23338188817E+02  0.98727491411E+02  0.16639580983E+03  0.19492774699E+03  0.41800000000E+01 0.  1.
        -11    1    4    4    0    0 -0.52193835593E+02 -0.40020399652E+02  0.12647075603E+03  0.14255062607E+03  0.00000000000E+00 0. -1.
         11    1    4    4    0    0  0.25300512427E+02 -0.54170505888E+02  0.56504456605E+02  0.82263681254E+02  0.00000000000E+00 0.  1.
</event>
<event>
 8    1  0.4798744E-006  0.1012548E+03  0.7561462E-02  0.1277679E+00
          2   -1    0    0  501    0  0.00000000000E+00  0.00000000000E+00  0.74031259164E+03  0.74031259164E+03  0.00000000000E+00 0. -1.
         -2   -1    0    0    0  501 -0.00000000000E+00 -0.00000000000E+00 -0.14565094731E+02  0.14565094731E+02  0.00000000000E+00 0.  1.
         23    2    1    2    0    0  0.39133373293E+01 -0.39259102170E+01  0.36947615430E+03  0.39011673295E+03  0.12509080602E+03 0.  0.
         23    2    1    2    0    0 -0.39133373293E+01  0.39259102170E+01  0.35627134261E+03  0.36476095342E+03  0.78042018139E+02 0.  0.
          5    1    3    3  502    0 -0.13926096862E+00  0.59981475467E+02  0.15529552734E+03  0.16652918664E+03  0.41800000000E+01 0. -1.
         -5    1    3    3    0  502  0.40525982979E+01 -0.63907385684E+02  0.21418062696E+03  0.22358754631E+03  0.41800000000E+01 0. -1.
        -11    1    4    4    0    0 -0.40438557603E+02  0.87313030029E+01  0.18355640298E+03  0.18816074423E+03  0.00000000000E+00 0. -1.
         11    1    4    4    0    0  0.36525220274E+02 -0.48053927859E+01  0.17271493963E+03  0.17660020919E+03  0.00000000000E+00 0.  1.
</event>
<event>
 8    1  0.4798744E-006  0.1835630E+03  0.7561462E-02  0.1164399E+00
          1   -1    0    0  501    0  0.00000000000E+00  0.00000000000E+00  0.15270086548E+03  0.15270086548E+03  0.00000000000E+00 0. -1.
         -1   -1    0    0    0  501 -0.00000000000E+00 -0.00000000000E+00 -0.24857002051E+03  0.24857002051E+03  0.00000000000E+00 0.  1.
         23    2    1    2    0    0  0.15887748455E+03 -0.29559883169E+02 -0.36881600039E+02  0.20766236671E+03  0.12509022478E+03 0.  0.
         23    2    1    2    0    0 -0.15887748455E+03  0.29559883169E+02 -0.58987554997E+02  0.19360851928E+03  0.88819397113E+02 0.  0.
          5    1    3    3  502    0 -0.11919254903E+02 -0.62167129183E+01  0.21424838637E+02  0.25636151575E+02  0.41800000000E+01 0. -1.
         -5    1    3    3    0  502  0.17079673945E+03 -0.23343170251E+02 -0.58306438676E+02  0.18202621513E+03  0.41800000000E+01 0. -1.
        -11    1    4    4    0    0 -0.16708327730E+03  0.20414697125E+02 -0.64344077201E+02  0.18020472159E+03  0.00000000000E+00 0.  1.
         11    1    4    4    0    0  0.82057927506E+01  0.91451860436E+01  0.53565222036E+01  0.13403797692E+02  0.00000000000E+00 0. -1.
</event>
<event>
 8    1  0.4798744E-006  0.1493554E+03  0.7561462E-02  0.1201267E+00
          2   -1    0    0  501    0  0.00000000000E+00  0.00000000000E+00  0.65922869308E+02  0.65922869308E+02  0.00000000000E+00 0. -1.
         -2   -1    0    0    0  501 -0.00000000000E+00 -0.00000000000E+00 -0.83163531646E+03  0.83163531646E+03  0.00000000000E+00 0.  1.
         23    2    1    2    0    0  0.67257766667E+02 -0.99160587542E+02 -0.72386396092E+03  0.74430129639E+03  0.12509578964E+03 0.  0.
         23    2    1    2    0    0 -0.67257766667E+02  0.99160587542E+02 -0.41848486223E+02  0.15325688937E+03  0.85906629792E+02 0.  0.
          5    1    3    3  502    0  0.10145047739E+03 -0.64502283605E+02 -0.58067498447E+03  0.59300392405E+03  0.41800000000E+01 0.  1.
         -5    1    3    3    0  502 -0.34192710723E+02 -0.34658303937E+02 -0.14318897646E+03  0.15129737234E+03  0.41800000000E+01 0.  1.
        -11    1    4    4    0    0 -0.18237631150E+02  0.70389163479E+02  0.13459887670E+02  0.73948726165E+02  0.00000000000E+00 0. -1.
         11    1    4    4    0    0 -0.49020135516E+02  0.28771424063E+02 -0.55308373894E+02  0.79308163208E+02  0.00000000000E+00 0.  1.
</event>
<event>
 8    1  0.4798744E-006  0.1823597E+03  0.7561462E-02  0.1165539E+00
         -2   -1    0    0    0  501 -0.00000000000E+00  0.00000000000E+00  0.18892891274E+03  0.18892891274E+03  0.00000000000E+00 0. -1.
          2   -1    0    0  501    0  0.00000000000E+00 -0.00000000000E+00 -0.20353934351E+03  0.20353934351E+03  0.00000000000E+00 0.  1.
         23    2    1    2    0    0  0.67880850150E+02  0.14112063313E+03  0.33129559575E+02  0.20314268599E+03  0.12508613130E+03 0.  0.
         23    2    1    2    0    0 -0.67880850150E+02 -0.14112063313E+03 -0.47739990340E+02  0.18932557026E+03  0.95090598710E+02 0.  0.
          5    1    3    3  502    0  0.83965616958E+02  0.47097449048E+02  0.46033627701E+02  0.10679401583E+03  0.41800000000E+01 0. -1.
         -5    1    3    3    0  502 -0.16084766808E+02  0.94023184082E+02 -0.12904068125E+02  0.96348670164E+02  0.41800000000E+01 0. -1.
        -11    1    4    4    0    0 -0.82268616455E+02 -0.10107519258E+03 -0.62170554766E+02  0.14439355141E+03  0.00000000000E+00 0. -1.
         11    1    4    4    0    0  0.14387766304E+02 -0.40045440548E+02  0.14430564426E+02  0.44932018846E+02  0.00000000000E+00 0.  1.
</event>
<event>
 8    1  0.4798744E-006  0.1429232E+03  0.7561462E-02  0.1209449E+00
         -2   -1    0    0    0  501 -0.00000000000E+00  0.00000000000E+00  0.52086202716E+03  0.52086202716E+03  0.00000000000E+00 0.  1.
          2   -1    0    0  501    0  0.00000000000E+00 -0.00000000000E+00 -0.42710236170E+02  0.42710236170E+02  0.00000000000E+00 0. -1.
         23    2    1    2    0    0 -0.20627132455E+02  0.94209173645E+02  0.29198436033E+03  0.33197049546E+03  0.12509474882E+03 0.  0.
         23    2    1    2    0    0  0.20627132455E+02 -0.94209173645E+02  0.18616743066E+03  0.23160176788E+03  0.98388107272E+02 0.  0.
          5    1    3    3  502    0  0.14979779170E+02  0.10891225821E+03  0.25781537084E+03  0.28030788718E+03  0.41800000000E+01 0.  1.
         -5    1    3    3    0  502 -0.35606911625E+02 -0.14703084564E+02  0.34168989487E+02  0.51662608274E+02  0.41800000000E+01 0.  1.
        -11    1    4    4    0    0 -0.26811897890E+02 -0.84507938591E+02  0.10904988946E+03  0.14054304659E+03  0.00000000000E+00 0.  1.
         11    1    4    4    0    0  0.47439030345E+02 -0.97012350546E+01  0.77117541200E+02  0.91058721287E+02  0.00000000000E+00 0. -1.
</event>
<event>
 8    1  0.4798744E-006  0.1271605E+03  0.7561462E-02  0.1231731E+00
          2   -1    0    0  501    0  0.00000000000E+00  0.00000000000E+00  0.60900771093E+03  0.60900771093E+03  0.00000000000E+00 0.  1.
         -2   -1    0    0    0  501 -0.00000000000E+00 -0.00000000000E+00 -0.39987054025E+02  0.39987054025E+02  0.00000000000E+00 0. -1.
         23    2    1    2    0    0 -0.38202350725E+02 -0.97239053830E+02  0.22568066557E+03  0.27837478867E+03  0.12508359991E+03 0.  0.
         23    2    1    2    0    0  0.38202350725E+02  0.97239053830E+02  0.34333999134E+03  0.37061997628E+03  0.92530881200E+02 0.  0.
          5    1    3    3  502    0  0.97699290274E+01 -0.63852769770E+01  0.15046617568E+03  0.15097604346E+03  0.41800000000E+01 0.  1.
         -5    1    3    3    0  502 -0.47972279752E+02 -0.90853776853E+02  0.75214489890E+02  0.12739874522E+03  0.41800000000E+01 0.  1.
        -11    1    4    4    0    0 -0.30610419132E+02  0.28160103928E+02  0.89319838647E+02  0.98529299138E+02  0.00000000000E+00 0.  1.
         11    1    4    4    0    0  0.68812769857E+02  0.69078949902E+02  0.25402015269E+03  0.27209067714E+03  0.00000000000E+00 0. -1.
</event>
<event>
 8    1  0.5016140E-006  0.1198936E+03  0.7561462E-02  0.1243273E+00
         -2   -1    0    0    0  501 -0.00000000000E+00  0.00000000000E+00  0.13165208170E+02  0.13165208170E+02  0.00000000000E+00 0. -1.
          2   -1    0    0  501    0  0.00000000000E+00 -0.00000000000E+00 -0.12895366852E+04  0.12895366852E+04  0.00000000000E+00 0.  1.
         23    2    1    2    0    0  0.65418597696E+02 -0.27661954529E+02 -0.75454560539E+03  0.76813524929E+03  0.12509162216E+03 0.  0.
         23    2    1    2    0    0 -0.65418597696E+02  0.27661954529E+02 -0.52182587165E+03  0.53456664409E+03  0.91730474758E+02 0.  0.
          5    1    3    3  502    0  0.92403921375E+02 -0.39719801966E+02 -0.68634450122E+03  0.69368753348E+03  0.41800000000E+01 0.  1.
         -5    1    3    3    0  502 -0.26985323679E+02  0.12057847437E+02 -0.68201104176E+02  0.74447715812E+02  0.41800000000E+01 0.  1.
        -11    1    4    4    0    0 -0.37829222327E+02  0.57375059970E+02 -0.40770881659E+03  0.41346030848E+03  0.00000000000E+00 0.  1.
         11    1    4    4    0    0 -0.27589375369E+02 -0.29713105441E+02 -0.11411705506E+03  0.12110633560E+03  0.00000000000E+00 0. -1.
</event>
<event>
 8    1  0.4798744E-006  0.1198379E+03  0.7561462E-02  0.1243365E+00
          4   -1    0    0  501    0  0.00000000000E+00  0.00000000000E+00  0.69705856577E+03  0.69705856577E+03  0.00000000000E+00 0.  1.
         -4   -1    0    0    0  501 -0.00000000000E+00 -0.00000000000E+00 -0.22726157010E+02  0.22726157010E+02  0.00000000000E+00 0. -1.
         23    2    1    2    0    0 -0.51307730912E+02 -0.13793778572E+02  0.27195670852E+03  0.30402385775E+03  0.12508918098E+03 0.  0.
         23    2    1    2    0    0  0.51307730912E+02  0.13793778572E+02  0.40237570024E+03  0.41576086503E+03  0.90156204236E+02 0.  0.
          5    1    3    3  502    0  0.41594997074E+02 -0.62675022547E+01  0.75203039680E+02  0.86269316348E+02  0.41800000000E+01 0.  1.
         -5    1    3    3    0  502 -0.92902727986E+02 -0.75262763171E+01  0.19675366884E+03  0.21775454141E+03  0.41800000000E+01 0.  1.
        -11    1    4    4    0    0  0.11474156902E+02 -0.37467287057E+02  0.13146748434E+03  0.13718291918E+03  0.00000000000E+00 0.  1.
         11    1    4    4    0    0  0.39833574010E+02  0.51261065629E+02  0.27090821591E+03  0.27857794585E+03  0.00000000000E+00 0. -1.
</event>
<event>
 8    1  0.4798744E-006  0.1184132E+03  0.7561462E-02  0.1245738E+00
         -1   -1    0    0    0  501 -0.00000000000E+00  0.00000000000E+00  0.23206865426E+03  0.23206865426E+03  0.00000000000E+00 0.  1.
          1   -1    0    0  501    0  0.00000000000E+00 -0.00000000000E+00 -0.81188121335E+02  0.81188121335E+02  0.00000000000E+00 0. -1.
         23    2    1    2    0    0  0.22146639961E+02  0.54438966555E+02  0.14946744851E+03  0.20357459155E+03  0.12509205178E+03 0.  0.
         23    2    1    2    0    0 -0.22146639961E+02 -0.54438966555E+02  0.14130844168E+01  0.10968218405E+03  0.92596489939E+02 0.  0.
          5    1    3    3  502    0  0.52153976842E+02 -0.19320206019E+02  0.81734681179E+02  0.98951190840E+02  0.41800000000E+01 0. -1.
         -5    1    3    3    0  502 -0.30007336881E+02  0.73759172573E+02  0.67732767330E+02  0.10462340071E+03  0.41800000000E+01 0. -1.
        -11    1    4    4    0    0 -0.45882377823E+02 -0.61333406967E+02 -0.17487435558E+02  0.78567103850E+02  0.00000000000E+00 0.  1.
         11    1    4    4    0    0  0.23735737862E+02  0.68944404127E+01  0.18900519975E+02  0.31115080199E+02  0.00000000000E+00 0. -1.
</event>
<event>
 7    1  0.4798744E-006  0.1091772E+03  0.7561462E-02  0.1262101E+00
         -2   -1    0    0    0  501 -0.00000000000E+00  0.00000000000E+00  0.22162876701E+03  0.22162876701E+03  0.00000000000E+00 0.  1.
          2   -1    0    0  501    0  0.00000000000E+00 -0.00000000000E+00 -0.23326468385E+03  0.23326468385E+03  0.00000000000E+00 0. -1.
         23    2    1    2    0    0 -0.57628241622E+01  0.59410413597E+02 -0.18225389723E+03  0.21273497559E+03  0.92069970117E+02 0.  0.
          5    1    1    2  502    0  0.65471069795E+02 -0.42279180205E+02  0.22095560554E+02  0.81115203600E+02  0.41800000000E+01 0. -1.
         -5    1    1    2    0  502 -0.59708245633E+02 -0.17131233392E+02  0.14852241984E+03  0.16104327166E+03  0.41800000000E+01 0.  1.
        -11    1    3    3    0    0 -0.21980226828E+02  0.68189734722E+01 -0.70154746149E+00  0.23024355354E+02  0.00000000000E+00 0.  1.
         11    1    3    3    0    0  0.16217402666E+02  0.52591440125E+02 -0.18155234977E+03  0.18971062024E+03  0.00000000000E+00 0. -1.
</event>
<event>
 8    1  0.4798744E-006  0.1298153E+03  0.7561462E-02  0.1227730E+00
         -1   -1    0    0    0  501 -0.00000000000E+00  0.00000000000E+00  0.22874996885E+02  0.22874996885E+02  0.00000000000E+00 0.  1.
          1   -1    0    0  501    0  0.00000000000E+00 -0.00000000000E+00 -0.10974866984E+04  0.10974866984E+04  0.00000000000E+00 0. -1.
         23    2    1    2    0    0  0.10955489730E+03 -0.47127799999E+01 -0.44477311666E+03  0.47486314688E+03  0.12508955649E+03 0.  0.
         23    2    1    2    0    0 -0.10955489730E+03  0.47127799999E+01 -0.62983858487E+03  0.64549854842E+03  0.89147334253E+02 0.  0.
          5    1    3    3  502    0  0.66139011467E+02 -0.26088896208E+02 -0.80987937861E+02  0.10784951471E+03  0.41800000000E+01 0.  1.
         -5    1    3    3    0  502  0.43415885835E+02  0.21376116208E+02 -0.36378517880E+03  0.36701363218E+03  0.41800000000E+01 0.  1.
        -11    1    4    4    0    0 -0.11198274466E+02 -0.32730752152E+02 -0.11872108121E+03  0.12365839483E+03  0.00000000000E+00 0. -1.
         11    1    4    4    0    0 -0.98356622836E+02  0.37443532151E+02 -0.51111750366E+03  0.52184015359E+03  0.00000000000E+00 0.  1.
</event>
<event>
 8    1  0.4798744E-006  0.7490734E+02  0.7561462E-02  0.1344158E+00
         -4   -1    0    0    0  501 -0.00000000000E+00  0.00000000000E+00  0.43955275532E+03  0.43955275532E+03  0.00000000000E+00 0.  1.
          4   -1    0    0  501    0  0.00000000000E+00 -0.00000000000E+00 -0.30698314344E+02  0.30698314344E+02  0.00000000000E+00 0. -1.
         23    2    1    2    0    0 -0.33342656834E+02  0.20464929442E+02  0.19868061835E+03  0.23801781006E+03  0.12509174112E+03 0.  0.
         23    2    1    2    0    0  0.33342656834E+02 -0.20464929442E+02  0.21017382263E+03  0.23223325961E+03  0.90712210016E+02 0.  0.
          5    1    3    3  502    0  0.14014967200E+02 -0.58194035657E+01  0.17982806032E+03  0.18051561828E+03  0.41800000000E+01 0. -1.
         -5    1    3    3    0  502 -0.47357624034E+02  0.26284333007E+02  0.18852558028E+02  0.57502191784E+02  0.41800000000E+01 0. -1.
        -11    1    4    4    0    0  0.20756731433E+02  0.25047267581E+02  0.16023785858E+03  0.16350651007E+03  0.00000000000E+00 0.  1.
         11    1    4    4    0    0  0.12585925401E+02 -0.45512197023E+02  0.49935964051E+02  0.68726749536E+02  0.00000000000E+00 0. -1.
</event>
<event>
 8    1  0.4798744E-006  0.1022812E+03  0.7561462E-02  0.1275571E+00
         -1   -1    0    0    0  501 -0.00000000000E+00  0.00000000000E+00  0.93518840044E+02  0.93518840044E+02  0.00000000000E+00 0.  1.
          1   -1    0    0  501    0  0.00000000000E+00 -0.00000000000E+00 -0.16795643186E+03  0.16795643186E+03  0.00000000000E+00 0. -1.
         23    2    1    2    0    0 -0.12512908938E+02 -0.32172795691E+02  0.13222056280E+02  0.13043758509E+03  0.12508988432E+03 0.  0.
         23    2    1    2    0    0  0.12512908938E+02  0.32172795691E+02 -0.87659648096E+02  0.13103768681E+03  0.91076889424E+02 0.  0.
          5    1    3    3  502    0 -0.56852003598E+02 -0.25008046359E+02  0.43647704130E+02  0.76027279128E+02  0.41800000000E+01 0. -1.
         -5    1    3    3    0  502  0.44339094660E+02 -0.71647493317E+01 -0.30425647850E+02  0.54410305966E+02  0.41800000000E+01 0. -1.
        -11    1    4    4    0    0  0.49707093977E+02  0.33574802391E+02 -0.50023271651E+02  0.78104995064E+02  0.00000000000E+00 0.  1.
         11    1    4    4    0    0 -0.37194185039E+02 -0.14020067001E+01 -0.37636376444E+02  0.52932691745E+02  0.00000000000E+00 0. -1.
</event>
<event>
 8    1  0.4798744E-006  0.2366451E+03  0.7561462E-02  0.1122048E+00
         -2   -1    0    0    0  501 -0.00000000000E+00  0.00000000000E+00  0.93370667008E+02  0.93370667008E+02  0.00000000000E+00 0. -1.
          2   -1    0    0  501    0  0.00000000000E+00 -0.00000000000E+00 -0.67298576199E+03  0.67298576199E+03  0.00000000000E+00 0.  1.
         23    2    1    2    0    0  0.61860624146E+02 -0.21009649321E+03 -0.21540778389E+03  0.33167254019E+03  0.12505553677E+03 0.  0.
         23    2    1    2    0    0 -0.61860624146E+02  0.21009649321E+03 -0.36420731109E+03  0.43468388880E+03  0.91300845885E+02 0.  0.
          5    1    3    3  502    0 -0.26779414185E+02 -0.10192897631E+03 -0.13134593191E+03  0.16845141574E+03  0.41800000000E+01 0.  1.
         -5    1    3    3    0  502  0.88640038331E+02 -0.10816751690E+03 -0.84061851977E+02  0.16322112445E+03  0.41800000000E+01 0.  1.
        -11    1    4    4    0    0 -0.10027830307E+02  0.14188455885E+03 -0.28254198235E+03  0.31632539766E+03  0.00000000000E+00 0.  1.
         11    1    4    4    0    0 -0.51832793839E+02  0.68211934363E+02 -0.81665328740E+02  0.11835849114E+03  0.00000000000E+00 0. -1.
</event>
<event>
 8    1  0.4798744E-006  0.1730749E+03  0.7561462E-02  0.1174679E+00
         -1   -1    0    0    0  501 -0.00000000000E+00  0.00000000000E+00  0.15511010933E+03  0.15511010933E+03  0.00000000000E+00 0.  1.
          1   -1    0    0  501    0  0.00000000000E+00 -0.00000000000E+00 -0.34979102120E+03  0.34979102120E+03  0.00000000000E+00 0. -1.
         23    2    1    2    0    0  0.22024082719E+01 -0.15704455277E+03  0.44041141065E+02  0.20555938828E+03  0.12508875986E+03 0.  0.
         23    2    1    2    0    0 -0.22024082719E+01  0.15704455277E+03 -0.23872205294E+03  0.29934174225E+03  0.89159508393E+02 0.  0.
          5    1    3    3  502    0 -0.47532164146E+02 -0.11168812449E+03 -0.59680781926E+01  0.12160030484E+03  0.41800000000E+01 0.  1.
         -5    1    3    3    0  502  0.49734572418E+02 -0.45356428283E+02  0.50009219258E+02  0.83959083433E+02  0.41800000000E+01 0.  1.
        -11    1    4    4    0    0 -0.46136687289E+01  0.13514045938E+03 -0.24185023909E+03  0.27708440564E+03  0.00000000000E+00 0. -1.
         11    1    4    4    0    0  0.24112604569E+01  0.21904093397E+02  0.31281861512E+01  0.22257336614E+02  0.00000000000E+00 0.  1.
</event>
<event>
 8    1  0.4798744E-006  0.2123532E+03  0.7561462E-02  0.1139716E+00
         -3   -1    0    0    0  501 -0.00000000000E+00  0.00000000000E+00  0.26746612168E+03  0.26746612168E+03  0.00000000000E+00 0.  1.
          3   -1    0    0  501    0  0.00000000000E+00 -0.00000000000E+00 -0.22886606517E+03  0.22886606517E+03  0.00000000000E+00 0. -1.
         23    2    1    2    0    0 -0.23450649345E+02 -0.20525727093E+03  0.10438883602E+03  0.26065973097E+03  0.11985819138E+03 0.  0.
         23    2    1    2    0    0  0.23450649345E+02  0.20525727093E+03 -0.65788779516E+02  0.23567245588E+03  0.92373495803E+02 0.  0.
          5    1    3    3  502    0 -0.42795621502E+02 -0.16905924141E+03  0.32018071330E+02  0.17735591791E+03  0.41800000000E+01 0. -1.
         -5    1    3    3    0  502  0.19344972157E+02 -0.36198029517E+02  0.72370764687E+02  0.83303813059E+02  0.41800000000E+01 0.  1.
        -11    1    4    4    0    0  0.16023817898E+02  0.19792536915E+03 -0.83259889350E+02  0.21532167487E+03  0.00000000000E+00 0.  1.
         11    1    4    4    0    0  0.74268314476E+01  0.73319017813E+01  0.17471109835E+02  0.20350781015E+02  0.00000000000E+00 0. -1.
</event>
<event>
 8    1  0.4798744E-006  0.2478252E+03  0.7561462E-02  0.1114687E+00
          1   -1    0    0  501    0  0.00000000000E+00  0.00000000000E+00  0.58010974814E+03  0.58010974814E+03  0.00000000000E+00 0. -1.
         -1   -1    0    0    0  501 -0.00000000000E+00 -0.00000000000E+00 -0.18054979628E+03  0.18054979628E+03  0.00000000000E+00 0.  1.
         23    2    1    2    0    0  0.43024632193E+01  0.23384579524E+03 -0.26003545551E+02  0.26653230999E+03  0.12514360050E+03 0.  0.
         23    2    1    2    0    0 -0.43024632193E+01 -0.23384579524E+03  0.42556349741E+03  0.49412723443E+03  0.91406051981E+02 0.  0.
          5    1    3    3  502    0  0.48418077293E+02  0.44332449742E+02 -0.28986167505E+02  0.71884258468E+02  0.41800000000E+01 0. -1.
         -5    1    3    3    0  502 -0.44115614073E+02  0.18951334550E+03  0.29826219539E+01  0.19464805152E+03  0.41800000000E+01 0. -1.
        -11    1    4    4    0    0 -0.12861201398E+02 -0.69785420888E+02  0.58458057803E+02  0.91938892706E+02  0.00000000000E+00 0. -1.
         11    1    4    4    0    0  0.85587381785E+01 -0.16406037435E+03  0.36710543960E+03  0.40218834172E+03  0.00000000000E+00 0.  1.
</event>
<event>
 8    1  0.4798744E-006  0.9553083E+02  0.7561462E-02  0.1289985E+00
          1   -1    0    0  501    0  0.00000000000E+00  0.00000000000E+00  0.42739249509E+03  0.42739249509E+03  0.00000000000E+00 0. -1.
         -1   -1    0    0    0  501 -0.00000000000E+00 -0.00000000000E+00 -0.33417142533E+02  0.33417142533E+02  0.00000000000E+00 0.  1.
         23    2    1    2    0    0  0.46294682292E+02  0.18177920583E+02  0.20053727123E+03  0.24152737788E+03  0.12508654088E+03 0.  0.
         23    2    1    2    0    0 -0.46294682292E+02 -0.18177920583E+02  0.19343808133E+03  0.21928225974E+03  0.90513997393E+02 0.  0.
          5    1    3    3  502    0  0.66739517684E+02 -0.35306348964E+02  0.13196145026E+03  0.15209207163E+03  0.41800000000E+01 0.  1.
         -5    1    3    3    0  502 -0.20444835392E+02  0.53484269546E+02  0.68575820970E+02  0.89435306255E+02  0.41800000000E+01 0.  1.
        -11    1    4    4    0    0 -0.33579127762E+02  0.25918236309E+01  0.19195177817E+03  0.19488396680E+03  0.00000000000E+00 0. -1.
         11    1    4    4    0    0 -0.12715554530E+02 -0.20769744214E+02  0.14863031604E+01  0.24398292948E+02  0.00000000000E+00 0.  1.
</event>
<event>
 8    1  0.4798744E-006  0.6477715E+02  0.7561462E-02  0.1378812E+00
          1   -1    0    0  501    0  0.00000000000E+00  0.00000000000E+00  0.30322038464E+02  0.30322038464E+02  0.00000000000E+00 0. -1.
         -1   -1    0    0    0  501 -0.00000000000E+00 -0.00000000000E+00 -0.45958751677E+03  0.45958751677E+03  0.00000000000E+00 0.  1.
         23    2    1    2    0    0 -0.14591500107E+02  0.33885334262E+02 -0.29766424000E+03  0.32498073630E+03  0.12508937382E+03 0.  0.
         23    2    1    2    0    0  0.14591500107E+02 -0.33885334262E+02 -0.13160123831E+03  0.16492881893E+03  0.92311979917E+02 0.  0.
          5    1    3    3  502    0 -0.22676404280E+02  0.18015502894E+02 -0.30416217973E+03  0.30556649298E+03  0.41800000000E+01 0.  1.
         -5    1    3    3    0  502  0.80849041728E+01  0.15869831368E+02  0.64979397295E+01  0.19414243324E+02  0.41800000000E+01 0.  1.
        -11    1    4    4    0    0  0.72591570614E+01  0.23269132648E+02 -0.91587064331E+02  0.94775198487E+02  0.00000000000E+00 0.  1.
         11    1    4    4    0    0  0.73323430455E+01 -0.57154466910E+02 -0.40014173977E+02  0.70153620444E+02  0.00000000000E+00 0. -1.
</event>
<event>
 7    1  0.4798744E-006  0.1543600E+03  0.7561462E-02  0.1195216E+00
          2   -1    0    0  501    0  0.00000000000E+00  0.00000000000E+00  0.74281398505E+02  0.74281398505E+02  0.00000000000E+00 0. -1.
         -2   -1    0    0    0  501 -0.00000000000E+00 -0.00000000000E+00 -0.77051192625E+03  0.77051192625E+03  0.00000000000E+00 0.  1.
         23    2    1    2    0    0 -0.76165088226E+01 -0.14067962312E+03 -0.12451554492E+03  0.20755972404E+03  0.87909900184E+02 0.  0.
          5    1    1    2  502    0  0.40418141949E+02  0.90192768491E+02 -0.47822618146E+02  0.10987646196E+03  0.41800000000E+01 0. -1.
         -5    1    1    2    0  502 -0.32801633126E+02  0.50486854625E+02 -0.52389236468E+03  0.52735713875E+03  0.41800000000E+01 0.  1.
        -11    1    3    3    0    0  0.10980271412E+02 -0.42825669815E+01  0.97267950843E+01  0.15281272291E+02  0.00000000000E+00 0. -1.
         11    1    3    3    0    0 -0.18596780235E+02 -0.13639705613E+03 -0.13424234000E+03  0.19227845175E+03  0.00000000000E+00 0.  1.
</event>
<event>
 8    1  0.4798744E-006  0.1303759E+03  0.7561462E-02  0.1226899E+00
          1   -1    0    0  501    0  0.00000000000E+00  0.00000000000E+00  0.29956418461E+02  0.29956418461E+02  0.00000000000E+00 0. -1.
         -1   -1    0    0    0  501 -0.00000000000E+00 -0.00000000000E+00 -0.78764202727E+03  0.78764202727E+03  0.00000000000E+00 0.  1.
         23    2    1    2    0    0  0.56711645917E+02  0.88962619713E+02 -0.50703092110E+03  0.53278372328E+03  0.12509029676E+03 0.  0.
         23    2    1    2    0    0 -0.56711645917E+02 -0.88962619713E+02 -0.25065468770E+03  0.28481472245E+03  0.84623254310E+02 0.  0.
          5    1    3    3  502    0 -0.19465323878E+02  0.45026941143E+02 -0.34395924308E+03  0.34746475729E+03  0.41800000000E+01 0.  1.
         -5    1    3    3    0  502  0.76176969795E+02  0.43935678570E+02 -0.16307167803E+03  0.18531896598E+03  0.41800000000E+01 0.  1.
        -11    1    4    4    0    0 -0.39246945934E+02 -0.72347003341E+01 -0.14336754042E+03  0.14881839705E+03  0.00000000000E+00 0.  1.
         11    1    4    4    0    0 -0.17464699984E+02 -0.81727919379E+02 -0.10728714728E+03  0.13599632540E+03  0.00000000000E+00 0. -1.
</event>
<event>
 8    1  0.4825281E-006  0.2349055E+03  0.7561462E-02  0.1123234E+00
          3   -1    0    0  501    0  0.00000000000E+00  0.00000000000E+00  0.13967021774E+04  0.13967021774E+04  0.00000000000E+00 0. -1.
         -3   -1    0    0    0  501 -0.00000000000E+00 -0.00000000000E+00 -0.41348874352E+02  0.41348874352E+02  0.00000000000E+00 0.  1.
         23    2    1    2    0    0  0.41495785603E+01 -0.20842923753E+03  0.55462839937E+03  0.60557419766E+03  0.12508989337E+03 0.  0.
         23    2    1    2    0    0 -0.41495785603E+01  0.20842923753E+03  0.80072490372E+03  0.83247685414E+03  0.91637193186E+02 0.  0.
          5    1    3    3  502    0 -0.59221507811E+02 -0.90177811873E+02  0.22120618476E+03  0.24614807194E+03  0.41800000000E+01 0. -1.
         -5    1    3    3    0  502  0.63371086371E+02 -0.11825142566E+03  0.33342221461E+03  0.35942612572E+03  0.41800000000E+01 0. -1.
        -11    1    4    4    0    0 -0.41398166583E+02  0.50221270730E+02  0.24047535845E+03  0.24912724109E+03  0.00000000000E+00 0.  1.
         11    1    4    4    0    0  0.37248588022E+02  0.15820796680E+03  0.56024954527E+03  0.58334961305E+03  0.00000000000E+00 0. -1.
</event>
<event>
 8    1  0.4798744E-006  0.2948800E+03  0.7561462E-02  0.1087828E+00
         -2   -1    0    0    0  501 -0.00000000000E+00  0.00000000000E+00  0.12027534022E+03  0.12027534022E+03  0.00000000000E+00 0.  1.
          2   -1    0    0  501    0  0.00000000000E+00 -0.00000000000E+00 -0.86455898897E+03  0.86455898897E+03  0.00000000000E+00 0. -1.
         23    2    1    2    0    0  0.25889693677E+03  0.13062093707E+03 -0.24257327376E+03  0.39821818275E+03  0.12508586996E+03 0.  0.
         23    2    1    2    0    0 -0.25889693677E+03 -0.13062093707E+03 -0.50171037499E+03  0.58661614644E+03  0.91190733207E+02 0.  0.
          5    1    3    3  502    0  0.18861450862E+03  0.12307435178E+03 -0.11644808514E+03  0.25357515229E+03  0.41800000000E+01 0. -1.
         -5    1    3    3    0  502  0.70282428150E+02  0.75465852846E+01 -0.12612518862E+03  0.14464303046E+03  0.41800000000E+01 0. -1.
        -11    1    4    4    0    0 -0.11603380877E+03 -0.84605141667E+02 -0.32132654339E+03  0.35195542652E+03  0.00000000000E+00 0. -1.
         11    1    4    4    0    0 -0.14286312800E+03 -0.46015795400E+02 -0.18038383160E+03  0.23466071992E+03  0.00000000000E+00 0.  1.
</event>
<event>
 8    1  0.4798744E-006  0.1154107E+03  0.7561462E-02  0.1250866E+00
         -4   -1    0    0    0  501 -0.00000000000E+00  0.00000000000E+00  0.92571848943E+02  0.92571848943E+02  0.00000000000E+00 0.  1.
          4   -1    0    0  501    0  0.00000000000E+00 -0.00000000000E+00 -0.20217437665E+03  0.20217437665E+03  0.00000000000E+00 0. -1.
         23    2    1    2    0    0 -0.51826504137E+02 -0.65378698572E+02 -0.67873317004E+02  0.16496918338E+03  0.12509070128E+03 0.  0.
         23    2    1    2    0    0  0.51826504137E+02  0.65378698572E+02 -0.41729210708E+02  0.12977704221E+03  0.90224125937E+02 0.  0.
          5    1    3    3  502    0 -0.94248615187E+01 -0.82842314206E+02 -0.81784149760E+02  0.11686657602E+03  0.41800000000E+01 0.  1.
         -5    1    3    3    0  502 -0.42401642619E+02  0.17463615634E+02  0.13910832756E+02  0.48102607369E+02  0.41800000000E+01 0.  1.
        -11    1    4    4    0    0  0.13837546524E+02  0.61578462942E+02 -0.60328223011E+02  0.87309101952E+02  0.00000000000E+00 0. -1.
         11    1    4    4    0    0  0.37988957613E+02  0.38002356307E+01  0.18599012302E+02  0.42467940261E+02  0.00000000000E+00 0.  1.
</event>
<event>
 8    1  0.4798744E-006  0.1365115E+03  0.7561462E-02  0.1218102E+00
          1   -1    0    0  501    0  0.00000000000E+00  0.00000000000E+00  0.11170787475E+03  0.11170787475E+03  0.00000000000E+00 0. -1.
         -1   -1    0    0    0  501 -0.00000000000E+00 -0.00000000000E+00 -0.26070544183E+03  0.26070544183E+03  0.00000000000E+00 0.  1.
         23    2    1    2    0    0 -0.63415360137E+02  0.10437686002E+03 -0.28728615062E+02  0.17716927231E+03  0.12509029106E+03 0.  0.
         23    2    1    2    0    0  0.63415360137E+02 -0.10437686002E+03 -0.12026895201E+03  0.19524404427E+03  0.93485716534E+02 0.  0.
          5    1    3    3  502    0 -0.46392616930E+02  0.17759167964E+02  0.41042955505E+02  0.64572901042E+02  0.41800000000E+01 0. -1.
         -5    1    3    3    0  502 -0.17022743207E+02  0.86617692058E+02 -0.69771570567E+02  0.11259637127E+03  0.41800000000E+01 0. -1.
        -11    1    4    4    0    0  0.37909501896E+01 -0.60871268757E+02 -0.10258552177E+03  0.11934601769E+03  0.00000000000E+00 0.  1.
         11    1    4    4    0    0  0.59624409947E+02 -0.43505591265E+02 -0.17683430244E+02  0.75898026576E+02  0.00000000000E+00 0. -1.
</event>
<event>
 8    1  0.4798744E-006  0.5633981E+02  0.7561462E-02  0.1413867E+00
          2   -1    0    0  501    0  0.00000000000E+00  0.00000000000E+00  0.10464459245E+03  0.10464459245E+03  0.00000000000E+00 0. -1.
         -2   -1    0    0    0  501 -0.00000000000E+00 -0.00000000000E+00 -0.15682097546E+03  0.15682097546E+03  0.00000000000E+00 0.  1.
         23    2    1    2    0    0  0.20578215412E+02  0.32121042328E+02 -0.86285010428E+02  0.15667716207E+03  0.12508959101E+03 0.  0.
         23    2    1    2    0    0 -0.20578215412E+02 -0.32121042328E+02  0.34108627421E+02  0.10478840584E+03  0.91443902066E+02 0.  0.
          5    1    3    3  502    0  0.14926399772E+02 -0.91001897378E-01 -0.11311352009E+03  0.11417069028E+03  0.41800000000E+01 0.  1.
         -5    1    3    3    0  502  0.56518156404E+01  0.32212044225E+02  0.26828509663E+02  0.42506471789E+02  0.41800000000E+01 0.  1.
        -11    1    4    4    0    0 -0.24736006722E+02 -0.44630097356E+02 -0.15602902380E+02  0.53358843515E+02  0.00000000000E+00 0.  1.
         11    1    4    4    0    0  0.41577913096E+01  0.12509055028E+02  0.49711529801E+02  0.51429562330E+02  0.00000000000E+00 0. -1.
</event>
<event>
 8    1  0.4798744E-006  0.9818467E+02  0.7561462E-02  0.1284160E+00
         -3   -1    0    0    0  501 -0.00000000000E+00  0.00000000000E+00  0.62002532548E+02  0.62002532548E+02  0.00000000000E+00 0.  1.
          3   -1    0    0  501    0  0.00000000000E+00 -0.00000000000E+00 -0.30054165698E+03  0.30054165698E+03  0.00000000000E+00 0. -1.
         23    2    1    2    0    0 -0.42902558310E+02 -0.48749900342E+02 -0.62311637207E+02  0.15410170614E+03  0.12508962152E+03 0.  0.
         23    2    1    2    0    0  0.42902558310E+02  0.48749900342E+02 -0.17622748722E+03  0.20844248339E+03  0.90415481717E+02 0.  0.
          5    1    3    3  502    0 -0.57105733772E+02 -0.61728200669E+02  0.46318761228E+01  0.84322964037E+02  0.41800000000E+01 0. -1.
         -5    1    3    3    0  502  0.14203175462E+02  0.12978300327E+02 -0.66943513329E+02  0.69778742103E+02  0.41800000000E+01 0. -1.
        -11    1    4    4    0    0  0.29666154747E+02 -0.10732465413E+02 -0.12473472170E+03  0.12866241622E+03  0.00000000000E+00 0.  1.
         11    1    4    4    0    0  0.13236403563E+02  0.59482365755E+02 -0.51492765527E+02  0.79780067164E+02  0.00000000000E+00 0. -1.
</event>
<event>
 7    1  0.4798744E-006  0.8518443E+02  0.7561462E-02  0.1314951E+00
          1   -1    0    0  501    0  0.00000000000E+00  0.00000000000E+00  0.86485437413E+02  0.86485437413E+02  0.00000000000E+00 0. -1.
         -1   -1    0    0    0  501 -0.00000000000E+00 -0.00000000000E+00 -0.13476972528E+04  0.13476972528E+04  0.00000000000E+00 0.  1.
         23    2    1    2    0    0 -0.33365234135E+02 -0.12956975100E+00  0.49039417368E+02  0.10482279302E+03  0.86427413721E+02 0.  0.
          5    1    1    2  502    0  0.26538723367E+02 -0.39600994322E+02 -0.52813071401E+02  0.71268755427E+02  0.41800000000E+01 0. -1.
         -5    1    1    2    0  502  0.68265107683E+01  0.39730564073E+02 -0.12574381614E+04  0.12580911418E+04  0.41800000000E+01 0.  1.
        -11    1    3    3    0    0 -0.28481173313E+02  0.35787893074E+02  0.51020889454E+02  0.68520666114E+02  0.00000000000E+00 0. -1.
         11    1    3    3    0    0 -0.48840608221E+01 -0.35917462825E+02 -0.19814720860E+01  0.36302126901E+02  0.00000000000E+00 0.  1.
</event>
<event>
 8    1  0.4798744E-006  0.1041262E+03  0.7561462E-02  0.1271851E+00
          1   -1    0    0  501    0  0.00000000000E+00  0.00000000000E+00  0.11317370337E+03  0.11317370337E+03  0.00000000000E+00 0. -1.
         -1   -1    0    0    0  501 -0.00000000000E+00 -0.00000000000E+00 -0.11773839829E+03  0.11773839829E+03  0.00000000000E+00 0.  1.
         23    2    1    2    0    0  0.56317427796E+02  0.12740341703E+02  0.32075656662E+01  0.13781186955E+03  0.12509138232E+03 0.  0.
         23    2    1    2    0    0 -0.56317427796E+02 -0.12740341703E+02 -0.77722605848E+01  0.93100232114E+02  0.72617327167E+02 0.  0.
          5    1    3    3  502    0  0.48193553477E+02  0.54574947950E+02 -0.34571856498E+02  0.80707677468E+02  0.41800000000E+01 0.  1.
         -5    1    3    3    0  502  0.81238743192E+01 -0.41834606247E+02  0.37779422165E+02  0.57104192078E+02  0.41800000000E+01 0.  1.
        -11    1    4    4    0    0  0.20459432004E+01 -0.31218174130E+02 -0.60044610100E+01  0.31856142761E+02  0.00000000000E+00 0.  1.
         11    1    4    4    0    0 -0.58363370996E+02  0.18477832428E+02 -0.17677995748E+01  0.61244089353E+02  0.00000000000E+00 0. -1.
</event>
<event>
 8    1  0.4798744E-006  0.2005641E+03  0.7561462E-02  0.1149264E+00
         -1   -1    0    0    0  501 -0.00000000000E+00  0.00000000000E+00  0.86924116540E+02  0.86924116540E+02  0.00000000000E+00 0.  1.
          1   -1    0    0  501    0  0.00000000000E+00 -0.00000000000E+00 -0.73206810559E+03  0.73206810559E+03  0.00000000000E+00 0. -1.
         23    2    1    2    0    0 -0.14196870455E+03  0.95726156096E+02 -0.88966274331E+02  0.22995879551E+03  0.12508972633E+03 0.  0.
         23    2    1    2    0    0  0.14196870455E+03 -0.95726156096E+02 -0.55617771472E+03  0.58903342662E+03  0.91148874327E+02 0.  0.
          5    1    3    3  502    0  0.91269331971E+01  0.48599857379E+02 -0.28088707162E+01  0.49705223081E+02  0.41800000000E+01 0. -1.
         -5    1    3    3    0  502 -0.15109563774E+03  0.47126298717E+02 -0.86157403615E+02  0.18025357243E+03  0.41800000000E+01 0. -1.
        -11    1    4    4    0    0  0.10898288007E+03 -0.20310943492E+02 -0.29236132928E+03  0.31267387072E+03  0.00000000000E+00 0.  1.
         11    1    4    4    0    0  0.32985824476E+02 -0.75415212604E+02 -0.26381638544E+03  0.27635955590E+03  0.00000000000E+00 0. -1.
</event>
<event>
 8    1  0.4798744E-006  0.1303560E+03  0.7561462E-02  0.1226928E+00
         -1   -1    0    0    0  501 -0.00000000000E+00  0.00000000000E+00  0.53711358282E+02  0.53711358282E+02  0.00000000000E+00 0.  1.
          1   -1    0    0  501    0  0.00000000000E+00 -0.00000000000E+00 -0.66448306033E+03  0.66448306033E+03  0.00000000000E+00 0. -1.
         23    2    1    2    0    0 -0.12327582701E+03 -0.17556615701E+02 -0.14782442655E+03  0.23022787875E+03  0.12509057035E+03 0.  0.
         23    2    1    2    0    0  0.12327582701E+03  0.17556615701E+02 -0.46294727550E+03  0.48796653986E+03  0.91027467592E+02 0.  0.
          5    1    3    3  502    0 -0.87147153895E+01 -0.40249763622E+01  0.22301501000E+02  0.24636883851E+02  0.41800000000E+01 0.  1.
         -5    1    3    3    0  502 -0.11456111162E+03 -0.13531639339E+02 -0.17012592755E+03  0.20559099490E+03  0.41800000000E+01 0.  1.
        -11    1    4    4    0    0  0.82809396727E+02 -0.13364736075E+02 -0.15887400096E+03  0.17965789862E+03  0.00000000000E+00 0. -1.
         11    1    4    4    0    0  0.40466430280E+02  0.30921351777E+02 -0.30407327454E+03  0.30830864124E+03  0.00000000000E+00 0.  1.
</event>
<event>
 8    1  0.4798744E-006  0.8888924E+02  0.7561462E-02  0.1305564E+00
          1   -1    0    0  501    0  0.00000000000E+00  0.00000000000E+00  0.22016189346E+03  0.22016189346E+03  0.00000000000E+00 0. -1.
         -1   -1    0    0    0  501 -0.00000000000E+00 -0.00000000000E+00 -0.68528421674E+02  0.68528421674E+02  0.00000000000E+00 0.  1.
         23    2    1    2    0    0 -0.42149634853E+02  0.43366737849E+02  0.58437516633E+02  0.15073011494E+03  0.12508940215E+03 0.  0.
         23    2    1    2    0    0  0.42149634853E+02 -0.43366737849E+02  0.93195955147E+02  0.13796020019E+03  0.81794040797E+02 0.  0.
          5    1    3    3  502    0  0.87359146750E+01  0.36805558717E+02  0.84761050084E+02  0.92913257230E+02  0.41800000000E+01 0.  1.
         -5    1    3    3    0  502 -0.50885549528E+02  0.65611791318E+01 -0.26323533451E+02  0.57816857712E+02  0.41800000000E+01 0.  1.
        -11    1    4    4    0    0  0.20975101202E+02  0.15241085174E+02  0.93830547641E-01  0.25927868248E+02  0.00000000000E+00 0.  1.
         11    1    4    4    0    0  0.21174533652E+02 -0.58607823023E+02  0.93102124600E+02  0.11203233194E+03  0.00000000000E+00 0. -1.
</event>
<event>
 8    1  0.4798744E-006  0.1050527E+03  0.7561462E-02  0.1270016E+00
         -1   -1    0    0    0  501 -0.00000000000E+00  0.00000000000E+00  0.58001847854E+03  0.58001847854E+03  0.00000000000E+00 0.  1.
          1   -1    0    0  501    0  0.00000000000E+00 -0.00000000000E+00 -0.90687922580E+02  0.90687922580E+02  0.00000000000E+00 0. -1.
         23    2    1    2    0    0 -0.10658235705E+02 -0.67133881756E+02  0.53471762817E+03  0.55023734343E+03  0.11053341648E+03 0.  0.
         23    2    1    2    0    0  0.10658235705E+02  0.67133881756E+02 -0.45387072217E+02  0.12046905768E+03  0.88500008287E+02 0.  0.
          5    1    3    3  502    0 -0.39706286594E+02 -0.22732032960E+02  0.78737005263E+02  0.91160972545E+02  0.41800000000E+01 0. -1.
         -5    1    3    3    0  502  0.29048050889E+02 -0.44401848796E+02  0.45598062291E+03  0.45907637089E+03  0.41800000000E+01 0.  1.
        -11    1    4    4    0    0 -0.26093419260E+02  0.69373200519E+02 -0.36371973245E+02  0.82561661300E+02  0.00000000000E+00 0. -1.
         11    1    4    4    0    0  0.36751654964E+02 -0.22393187622E+01 -0.90150989723E+01  0.37907396384E+02  0.00000000000E+00 0.  1.
</event>
<event>
 8    1  0.4798744E-006  0.9920169E+02  0.7561462E-02  0.1281984E+00
          4   -1    0    0  501    0  0.00000000000E+00  0.00000000000E+00  0.56920845774E+02  0.56920845774E+02  0.00000000000E+00 0. -1.
         -4   -1    0    0    0  501 -0.00000000000E+00 -0.00000000000E+00 -0.26004735966E+03  0.26004735966E+03  0.00000000000E+00 0.  1.
         23    2    1    2    0    0  0.27547300445E+02 -0.40016495948E+02 -0.14928214312E+03  0.20073085831E+03  0.12509014955E+03 0.  0.
         23    2    1    2    0    0 -0.27547300445E+02  0.40016495948E+02 -0.53844370767E+02  0.11623734712E+03  0.90839038379E+02 0.  0.
          5    1    3    3  502    0 -0.46179183227E+02  0.66213261256E+01 -0.53555787368E+02  0.71148110894E+02  0.41800000000E+01 0.  1.
         -5    1    3    3    0  502  0.73726483672E+02 -0.46637822074E+02 -0.95726355756E+02  0.12958274742E+03  0.41800000000E+01 0.  1.
        -11    1    4    4    0    0  0.11120828675E+02  0.55607579177E+01  0.21483632555E+02  0.24822194238E+02  0.00000000000E+00 0. -1.
         11    1    4    4    0    0 -0.38668129121E+02  0.34455738031E+02 -0.75328003321E+02  0.91415152887E+02  0.00000000000E+00 0.  1.
</event>
<event>
 8    1  0.4798744E-006  0.1302481E+03  0.7561462E-02  0.1227088E+00
         -2   -1    0    0    0  501 -0.00000000000E+00  0.00000000000E+00  0.76780293235E+02  0.76780293235E+02  0.00000000000E+00 0.  1.
          2   -1    0    0  501    0  0.00000000000E+00 -0.00000000000E+00 -0.24007714641E+03  0.24007714641E+03  0.00000000000E+00 0. -1.
         23    2    1    2    0    0  0.33981262374E+02  0.72800626146E+02 -0.73550972876E+02  0.16588413638E+03  0.12511252428E+03 0.  0.
         23    2    1    2    0    0 -0.33981262374E+02 -0.72800626146E+02 -0.89745880304E+02  0.15097330327E+03  0.91016250797E+02 0.  0.
          5    1    3    3  502    0  0.59815216073E+02 -0.97970889277E+01 -0.19707528174E+02  0.63872545683E+02  0.41800000000E+01 0.  1.
         -5    1    3    3    0  502 -0.25833953699E+02  0.82597715074E+02 -0.53843444702E+02  0.10201159070E+03  0.41800000000E+01 0.  1.
        -11    1    4    4    0    0  0.12970903256E+02  0.11020293293E+02 -0.38479474309E+02  0.42075659693E+02  0.00000000000E+00 0. -1.
         11    1    4    4    0    0 -0.46952165630E+02 -0.83820919439E+02 -0.51266405995E+02  0.10889764358E+03  0.00000000000E+00 0.  1.
</event>
<event>
 8    1  0.4798744E-006  0.1170186E+03  0.7561462E-02  0.1248098E+00
         -1   -1    0    0    0  501 -0.00000000000E+00  0.00000000000E+00  0.17687613792E+03  0.17687613792E+03  0.00000000000E+00 0.  1.
          1   -1    0    0  501    0  0.00000000000E+00 -0.00000000000E+00 -0.17634252382E+03  0.17634252382E+03  0.00000000000E+00 0. -1.
         23    2    1    2    0    0  0.58085594264E+02 -0.69485084366E+02  0.10543727013E+03  0.18699381560E+03  0.12509019118E+03 0.  0.
         23    2    1    2    0    0 -0.58085594264E+02  0.69485084366E+02 -0.10490365603E+03  0.16622484614E+03  0.91781311914E+02 0.  0.
          5    1    3    3  502    0  0.42475661662E+02 -0.10108779555E+02  0.11648916643E+03  0.12447315997E+03  0.41800000000E+01 0. -1.
         -5    1    3    3    0  502  0.15609932603E+02 -0.59376304811E+02 -0.11051896293E+02  0.62520655631E+02  0.41800000000E+01 0. -1.
        -11    1    4    4    0    0 -0.40016761748E+02 -0.14628701312E+02 -0.29474161147E+02  0.51807975238E+02  0.00000000000E+00 0.  1.
         11    1    4    4    0    0 -0.18068832516E+02  0.84113785679E+02 -0.75429494879E+02  0.11441687090E+03  0.00000000000E+00 0. -1.
</event>
<event>
 8    1  0.4798744E-006  0.9255073E+02  0.7561462E-02  0.1296790E+00
         -3   -1    0    0    0  501 -0.00000000000E+00  0.00000000000E+00  0.50924354503E+03  0.50924354503E+03  0.00000000000E+00 0.  1.
          3   -1    0    0  501    0  0.00000000000E+00 -0.00000000000E+00 -0.10159466343E+03  0.10159466343E+03  0.00000000000E+00 0. -1.
         23    2    1    2    0    0 -0.84490601952E+02 -0.32774014317E+02  0.44849504358E+03  0.47435004087E+03  0.12508940531E+03 0.  0.
         23    2    1    2    0    0  0.84490601952E+02  0.32774014317E+02 -0.40846161974E+02  0.13648816759E+03  0.93529744532E+02 0.  0.
          5    1    3    3  502    0 -0.31843152869E+02 -0.25351641466E+02  0.25948027881E+02  0.48450641488E+02  0.41800000000E+01 0.  1.
         -5    1    3    3    0  502 -0.52647449083E+02 -0.74223728508E+01  0.42254701570E+03  0.42589939938E+03  0.41800000000E+01 0.  1.
        -11    1    4    4    0    0  0.58702114354E+02  0.25913376978E+02 -0.71349655278E+02  0.95959442705E+02  0.00000000000E+00 0. -1.
         11    1    4    4    0    0  0.25788487598E+02  0.68606373391E+01  0.30503493304E+02  0.40528724888E+02  0.00000000000E+00 0.  1.
</event>
<event>
 8    1  0.4798744E-006  0.1760613E+03  0.7561462E-02  0.1171670E+00
          1   -1    0    0  501    0  0.00000000000E+00  0.00000000000E+00  0.16083134056E+03  0.16083134056E+03  0.00000000000E+00 0. -1.
         -1   -1    0    0    0  501 -0.00000000000E+00 -0.00000000000E+00 -0.21817059488E+03  0.21817059488E+03  0.00000000000E+00 0.  1.
         23    2    1    2    0    0 -0.11973967245E+03  0.91026509194E+02 -0.28606812607E+02  0.19768925899E+03  0.12505710239E+03 0.  0.
         23    2    1    2    0    0  0.11973967245E+03 -0.91026509194E+02 -0.28732441715E+02  0.18131267646E+03  0.97084081605E+02 0.  0.
          5    1    3    3  502    0 -0.14462392220E+03  0.71584671800E+02 -0.35059852990E+02  0.16518810429E+03  0.41800000000E+01 0. -1.
         -5    1    3    3    0  502  0.24884249742E+02  0.19441837394E+02  0.64530403829E+01  0.32501154697E+02  0.41800000000E+01 0. -1.
        -11    1    4    4    0    0  0.73485665876E+02 -0.23802833587E+02  0.27743448559E+02  0.82075677968E+02  0.00000000000E+00 0. -1.
         11    1    4    4    0    0  0.46254006579E+02 -0.67223675606E+02 -0.56475890274E+02  0.99236998488E+02  0.00000000000E+00 0.  1.
</event>
<event>
 7    1  0.4798744E-006  0.1254687E+03  0.7561462E-02  0.1234339E+00
         -2   -1    0    0    0  501 -0.00000000000E+00  0.00000000000E+00  0.33634609795E+02  0.33634609795E+02  0.00000000000E+00 0.  1.
          2   -1    0    0  501    0  0.00000000000E+00 -0.00000000000E+00 -0.85121031190E+03  0.85121031190E+03  0.00000000000E+00 0. -1.
         23    2    1    2    0    0 -0.40897988771E+02  0.67115581226E+02 -0.30011084455E+03  0.32311397976E+03  0.90327062217E+02 0.  0.
          5    1    1    2  502    0 -0.32695857715E+02  0.84632939200E-01 -0.42322451869E+03  0.42450617415E+03  0.41800000000E+01 0. -1.
         -5    1    1    2    0  502  0.73593846485E+02 -0.67200214165E+02 -0.94240338866E+02  0.13722476779E+03  0.41800000000E+01 0.  1.
        -11    1    3    3    0    0  0.59047876222E+01 -0.19174532873E+02 -0.34050884333E+02  0.39522043869E+02  0.00000000000E+00 0.  1.
         11    1    3    3    0    0 -0.46802776393E+02  0.86290114099E+02 -0.26605996022E+03  0.28359193589E+03  0.00000000000E+00 0. -1.
</event>
<event>
 8    1  0.4798744E-006  0.8078184E+02  0.7561462E-02  0.1326847E+00
          2   -1    0    0  501    0  0.00000000000E+00  0.00000000000E+00  0.21672261011E+03  0.21672261011E+03  0.00000000000E+00 0.  1.
         -2   -1    0    0    0  501 -0.00000000000E+00 -0.00000000000E+00 -0.59733430099E+02  0.59733430099E+02  0.00000000000E+00 0. -1.
         23    2    1    2    0    0  0.58201778987E+01 -0.16069603727E+02  0.54304601064E+02  0.13746846638E+03  0.12512586830E+03 0.  0.
         23    2    1    2    0    0 -0.58201778987E+01  0.16069603727E+02  0.10268457894E+03  0.13898757382E+03  0.92094062182E+02 0.  0.
          5    1    3    3  502    0 -0.50992747565E+02 -0.29004545192E+02  0.16697772688E+01  0.58836931447E+02  0.41800000000E+01 0. -1.
         -5    1    3    3    0  502  0.56812925464E+02  0.12934941465E+02  0.52634823795E+02  0.78631534936E+02  0.41800000000E+01 0. -1.
        -11    1    4    4    0    0 -0.22920570299E+02  0.14588647677E+02  0.11480437306E+03  0.11797552822E+03  0.00000000000E+00 0.  1.
         11    1    4    4    0    0  0.17100392400E+02  0.14809560498E+01 -0.12119794118E+02  0.21012045605E+02  0.00000000000E+00 0. -1.
</event>
<event>
 8    1  0.4798744E-006  0.1280861E+03  0.7561462E-02  0.1230324E+00
         -1   -1    0    0    0  501 -0.00000000000E+00  0.00000000000E+00  0.10702894581E+03  0.10702894581E+03  0.00000000000E+00 0.  1.
          1   -1    0    0  501    0  0.00000000000E+00 -0.00000000000E+00 -0.25714102787E+03  0.25714102787E+03  0.00000000000E+00 0. -1.
         23    2    1    2    0    0 -0.82365084272E+02 -0.95632589919E+02 -0.76957760341E+02  0.19362695159E+03  0.12505718749E+03 0.  0.
         23    2    1    2    0    0  0.82365084272E+02  0.95632589919E+02 -0.73154321719E+02  0.17054302209E+03  0.88338939514E+02 0.  0.
          5    1    3    3  502    0 -0.49367522685E+02 -0.38684889941E+02 -0.10466796366E+03  0.12209229305E+03  0.41800000000E+01 0. -1.
         -5    1    3    3    0  502 -0.32997561588E+02 -0.56947699978E+02  0.27710203320E+02  0.71534658534E+02  0.41800000000E+01 0. -1.
        -11    1    4    4    0    0  0.35614655041E+01  0.11723439222E+02 -0.52100190615E+02  0.53521518344E+02  0.00000000000E+00 0. -1.
         11    1    4    4    0    0  0.78803618768E+02  0.83909150698E+02 -0.21054131104E+02  0.11702150374E+03  0.00000000000E+00 0.  1.
</event>
<event>
 8    1  0.4798744E-006  0.1581930E+03  0.7561462E-02  0.1190752E+00
         -4   -1    0    0    0  501 -0.00000000000E+00  0.00000000000E+00  0.11296634664E+03  0.11296634664E+03  0.00000000000E+00 0.  1.
          4   -1    0    0  501    0  0.00000000000E+00 -0.00000000000E+00 -0.27943221520E+03  0.27943221520E+03  0.00000000000E+00 0. -1.
         23    2    1    2    0    0 -0.14362214795E+02 -0.13172838628E+03 -0.38031308292E+02  0.18615211069E+03  0.12509031512E+03 0.  0.
         23    2    1    2    0    0  0.14362214795E+02  0.13172838628E+03 -0.12843456027E+03  0.20624645115E+03  0.92106033319E+02 0.  0.
          5    1    3    3  502    0 -0.45826264813E+02 -0.12403542074E+01  0.18256598937E+01  0.46069409149E+02  0.41800000000E+01 0.  1.
         -5    1    3    3    0  502  0.31464050018E+02 -0.13048803207E+03 -0.39856968186E+02  0.14008270154E+03  0.41800000000E+01 0.  1.
        -11    1    4    4    0    0  0.22179505086E+02  0.11953819447E+03 -0.58669294598E+02  0.13499406103E+03  0.00000000000E+00 0.  1.
         11    1    4    4    0    0 -0.78172902913E+01  0.12190191807E+02 -0.69765265672E+02  0.71252390122E+02  0.00000000000E+00 0. -1.
</event>
<event>
 8    1  0.4798744E-006  0.1111255E+03  0.7561462E-02  0.1258500E+00
         -2   -1    0    0    0  501 -0.00000000000E+00  0.00000000000E+00  0.28446173175E+02  0.28446173175E+02  0.00000000000E+00 0.  1.
          2   -1    0    0  501    0  0.00000000000E+00 -0.00000000000E+00 -0.53624578635E+03  0.53624578635E+03  0.00000000000E+00 0. -1.
         23    2    1    2    0    0  0.45677576170E+02 -0.35779311264E+02 -0.25370143617E+03  0.28875402646E+03  0.12509144257E+03 0.  0.
         23    2    1    2    0    0 -0.45677576170E+02  0.35779311264E+02 -0.25409817701E+03  0.27593793307E+03  0.90604962710E+02 0.  0.
          5    1    3    3  502    0 -0.33807847927E+02 -0.46158835932E+02 -0.97153699651E+02  0.11282695809E+03  0.41800000000E+01 0.  1.
         -5    1    3    3    0  502  0.79485424097E+02  0.10379524668E+02 -0.15654773652E+03  0.17592706837E+03  0.41800000000E+01 0.  1.
        -11    1    4    4    0    0  0.35912104155E+01  0.35158167794E+02 -0.19861299130E+03  0.20173277837E+03  0.00000000000E+00 0. -1.
         11    1    4    4    0    0 -0.49268786585E+02  0.62114346983E+00 -0.55485185703E+02  0.74205154695E+02  0.00000000000E+00 0.  1.
</event>
<event>
 8    1  0.4798744E-006  0.1283284E+03  0.7561462E-02  0.1229957E+00
          1   -1    0    0  501    0  0.00000000000E+00  0.00000000000E+00  0.10996333029E+03  0.10996333029E+03  0.00000000000E+00 0. -1.
         -1   -1    0    0    0  501 -0.00000000000E+00 -0.00000000000E+00 -0.20188745130E+03  0.20188745130E+03  0.00000000000E+00 0.  1.
         23    2    1    2    0    0  0.46854840588E+02 -0.77542667888E+02 -0.10069353456E+03  0.18437632400E+03  0.12508876656E+03 0.  0.
         23    2    1    2    0    0 -0.46854840588E+02  0.77542667888E+02  0.87694135459E+01  0.12747445759E+03  0.89244570112E+02 0.  0.
          5    1    3    3  502    0 -0.11125030816E+02 -0.92334472854E+02 -0.73024939100E+02  0.11831963201E+03  0.41800000000E+01 0.  1.
         -5    1    3    3    0  502  0.57979871404E+02  0.14791804967E+02 -0.27668595460E+02  0.66056691992E+02  0.41800000000E+01 0.  1.
        -11    1    4    4    0    0 -0.54168416791E+02  0.45594082743E+02  0.40741473499E+02  0.81687853575E+02  0.00000000000E+00 0. -1.
         11    1    4    4    0    0  0.73135762037E+01  0.31948585144E+02 -0.31972059953E+02  0.45786604015E+02  0.00000000000E+00 0.  1.
</event>
<event>
 8    1  0.4798744E-006  0.8961157E+02  0.7561462E-02  0.1303795E+00
         -1   -1    0    0    0  501 -0.00000000000E+00  0.00000000000E+00  0.21495411504E+03  0.21495411504E+03  0.00000000000E+00 0.  1.
          1   -1    0    0  501    0  0.00000000000E+00 -0.00000000000E+00 -0.12263036332E+03  0.12263036332E+03  0.00000000000E+00 0. -1.
         23    2    1    2    0    0  0.77591443738E+02  0.16803609329E+00  0.14451634188E+03  0.20628323021E+03  0.12508931855E+03 0.  0.
         23    2    1    2    0    0 -0.77591443738E+02 -0.16803609329E+00 -0.52192590163E+02  0.13130124816E+03  0.92170987421E+02 0.  0.
          5    1    3    3  502    0  0.39668282287E+02  0.26209624562E+01  0.16008712248E+03  0.16500242801E+03  0.41800000000E+01 0. -1.
         -5    1    3    3    0  502  0.37923161451E+02 -0.24529263629E+01 -0.15570780596E+02  0.41280802203E+02  0.41800000000E+01 0. -1.
        -11    1    4    4    0    0 -0.44495552071E+02  0.32044445970E+02 -0.63353458908E+02  0.83787597097E+02  0.00000000000E+00 0. -1.
         11    1    4    4    0    0 -0.33095891668E+02 -0.32212482063E+02  0.11160868745E+02  0.47513651060E+02  0.00000000000E+00 0.  1.
</event>
<event>
 8    1  0.4798744E-006  0.2743683E+03  0.7561462E-02  0.1098805E+00
          3   -1    0    0  501    0  0.00000000000E+00  0.00000000000E+00  0.34546921770E+03  0.34546921770E+03  0.00000000000E+00 0. -1.
         -3   -1    0    0    0  501 -0.00000000000E+00 -0.00000000000E+00 -0.45139249483E+03  0.45139249483E+03  0.00000000000E+00 0.  1.
         23    2    1    2    0    0 -0.14638811015E+03 -0.22410892987E+03 -0.32516821807E+03  0.43935200397E+03  0.12506607095E+03 0.  0.
         23    2    1    2    0    0  0.14638811015E+03  0.22410892987E+03  0.21924494094E+03  0.35750970856E+03  0.89947519926E+02 0.  0.
          5    1    3    3  502    0 -0.12656894855E+03 -0.17354729890E+03 -0.31891117703E+03  0.38452590931E+03  0.41800000000E+01 0.  1.
         -5    1    3    3    0  502 -0.19819161606E+02 -0.50561630968E+02 -0.62570410399E+01  0.54826094658E+02  0.41800000000E+01 0.  1.
        -11    1    4    4    0    0  0.58059931239E+02  0.28235590253E+02  0.73746274482E+02  0.98013862144E+02  0.00000000000E+00 0. -1.
         11    1    4    4    0    0  0.88328178912E+02  0.19587333962E+03  0.14549866646E+03  0.25949584641E+03  0.00000000000E+00 0.  1.
</event>
<event>
 8    1  0.4798744E-006  0.1681803E+03  0.7561462E-02  0.1179759E+00
          2   -1    0    0  501    0  0.00000000000E+00  0.00000000000E+00  0.58139289648E+03  0.58139289648E+03  0.00000000000E+00 0. -1.
         -2   -1    0    0    0  501 -0.00000000000E+00 -0.00000000000E+00 -0.50968349701E+02  0.50968349701E+02  0.00000000000E+00 0.  1.
         23    2    1    2    0    0 -0.54516593820E+02  0.12231996791E+03  0.31391554048E+03  0.36349072741E+03  0.12509320049E+03 0.  0.
         23    2    1    2    0    0  0.54516593820E+02 -0.12231996791E+03  0.21650900629E+03  0.26887051877E+03  0.86492615319E+02 0.  0.
          5    1    3    3  502    0 -0.80837572597E+02  0.30548475987E+02  0.12874366528E+03  0.15511391387E+03  0.41800000000E+01 0.  1.
         -5    1    3    3    0  502  0.26320978777E+02  0.91771491920E+02  0.18517187521E+03  0.20837681354E+03  0.41800000000E+01 0.  1.
        -11    1    4    4    0    0 -0.19746475873E+02 -0.24705502098E+02  0.20633556371E+02  0.37762796399E+02  0.00000000000E+00 0.  1.
         11    1    4    4    0    0  0.74263069693E+02 -0.97614465809E+02  0.19587544992E+03  0.23110772237E+03  0.00000000000E+00 0. -1.
</event>
<event>
 8    1  0.4798744E-006  0.1269519E+03  0.7561462E-02  0.1232050E+00
         -1   -1    0    0    0  501 -0.00000000000E+00  0.00000000000E+00  0.37079240364E+03  0.37079240364E+03  0.00000000000E+00 0.  1.
          1   -1    0    0  501    0  0.00000000000E+00 -0.00000000000E+00 -0.55864825676E+02  0.55864825676E+02  0.00000000000E+00 0. -1.
         23    2    1    2    0    0  0.24559132074E+02  0.74038558721E+02  0.24958099582E+03  0.28987195186E+03  0.12510082275E+03 0.  0.
         23    2    1    2    0    0 -0.24559132074E+02 -0.74038558721E+02  0.65346582139E+02  0.13678527746E+03  0.91406658325E+02 0.  0.
          5    1    3    3  502    0  0.57824681191E+02  0.19375887148E+01  0.15947985256E+03  0.16970192626E+03  0.41800000000E+01 0.  1.
         -5    1    3    3    0  502 -0.33265549116E+02  0.72100970006E+02  0.90101143261E+02  0.12017002559E+03  0.41800000000E+01 0.  1.
        -11    1    4    4    0    0  0.13547477601E+02 -0.76978060698E+02  0.27127624399E+02  0.82734901847E+02  0.00000000000E+00 0.  1.
         11    1    4    4    0    0 -0.38106609675E+02  0.29395019772E+01  0.38218957740E+02  0.54050375610E+02  0.00000000000E+00 0. -1.
</event>
<event>
 8    1  0.4798744E-006  0.5457867E+02  0.7561462E-02  0.1422102E+00
         -2   -1    0    0    0  501 -0.00000000000E+00  0.00000000000E+00  0.44508576453E+02  0.44508576453E+02  0.00000000000E+00 0.  1.
          2   -1    0    0  501    0  0.00000000000E+00 -0.00000000000E+00 -0.28687706780E+03  0.28687706780E+03  0.00000000000E+00 0. -1.
         23    2    1    2    0    0  0.23663755193E+02  0.20837818390E+02 -0.14239447877E+03  0.19213997522E+03  0.12508954596E+03 0.  0.
         23    2    1    2    0    0 -0.23663755193E+02 -0.20837818390E+02 -0.99974012581E+02  0.13924566904E+03  0.91653506038E+02 0.  0.
          5    1    3    3  502    0 -0.86986124377E+00  0.52523202609E+00  0.23130209389E+02  0.23526825405E+02  0.41800000000E+01 0. -1.
         -5    1    3    3    0  502  0.24533616437E+02  0.20312586364E+02 -0.16552468816E+03  0.16861314981E+03  0.41800000000E+01 0. -1.
        -11    1    4    4    0    0 -0.41795675482E+02  0.39918673712E+01 -0.86265956448E+01  0.42862940246E+02  0.00000000000E+00 0.  1.
         11    1    4    4    0    0  0.18131920289E+02 -0.24829685761E+02 -0.91347416937E+02  0.96382728792E+02  0.00000000000E+00 0. -1.
</event>
<event>
 8    1  0.4798744E-006  0.1334666E+03  0.7561462E-02  0.1222401E+00
          1   -1    0    0  501    0  0.00000000000E+00  0.00000000000E+00  0.19601454818E+03  0.19601454818E+03  0.00000000000E+00 0. -1.
         -1   -1    0    0    0  501 -0.00000000000E+00 -0.00000000000E+00 -0.12067911191E+03  0.12067911191E+03  0.00000000000E+00 0.  1.
         23    2    1    2    0    0  0.54947260046E+02  0.82786527101E+02 -0.41231146186E+01  0.15979823636E+03  0.12508263594E+03 0.  0.
         23    2    1    2    0    0 -0.54947260046E+02 -0.82786527101E+02  0.79458550889E+02  0.15689542373E+03  0.91813409823E+02 0.  0.
          5    1    3    3  502    0  0.75495572961E+02  0.26811634624E+02 -0.40456793197E+02  0.89848037283E+02  0.41800000000E+01 0. -1.
         -5    1    3    3    0  502 -0.20548312915E+02  0.55974892477E+02  0.36333678578E+02  0.69950199074E+02  0.41800000000E+01 0. -1.
        -11    1    4    4    0    0 -0.53306530803E+02 -0.10130257861E+02  0.61538533754E+02  0.82043887567E+02  0.00000000000E+00 0.  1.
         11    1    4    4    0    0 -0.16407292428E+01 -0.72656269240E+02  0.17920017134E+02  0.74851536166E+02  0.00000000000E+00 0. -1.
</event>
<event>
 8    1  0.4798744E-006  0.2925356E+03  0.7561462E-02  0.1089033E+00
         -1   -1    0    0    0  501 -0.00000000000E+00  0.00000000000E+00  0.59835878912E+02  0.59835878912E+02  0.00000000000E+00 0.  1.
          1   -1    0    0  501    0  0.00000000000E+00 -0.00000000000E+00 -0.15777277738E+04  0.15777277738E+04  0.00000000000E+00 0. -1.
         23    2    1    2    0    0 -0.15519870221E+03  0.24144643001E+03 -0.78103294488E+03  0.84145020219E+03  0.12507184354E+03 0.  0.
         23    2    1    2    0    0  0.15519870221E+03 -0.24144643001E+03 -0.73685894997E+03  0.79611345049E+03  0.91937468731E+02 0.  0.
          5    1    3    3  502    0 -0.92240405789E+02  0.20181031931E+03 -0.44519403081E+03  0.49744436363E+03  0.41800000000E+01 0. -1.
         -5    1    3    3    0  502 -0.62958296422E+02  0.39636110702E+02 -0.33583891407E+03  0.34400583856E+03  0.41800000000E+01 0. -1.
        -11    1    4    4    0    0  0.53335129173E+02 -0.57985606659E+02 -0.11179886030E+03  0.13676970332E+03  0.00000000000E+00 0.  1.
         11    1    4    4    0    0  0.10186357304E+03 -0.18346082335E+03 -0.62506008968E+03  0.65934374716E+03  0.00000000000E+00 0. -1.
</event>
<event>
 8    1  0.4798744E-006  0.2180738E+03  0.7561462E-02  0.1135327E+00
          1   -1    0    0  501    0  0.00000000000E+00  0.00000000000E+00  0.17036472589E+03  0.17036472589E+03  0.00000000000E+00 0. -1.
         -1   -1    0    0    0  501 -0.00000000000E+00 -0.00000000000E+00 -0.35750156512E+03  0.35750156512E+03  0.00000000000E+00 0.  1.
         23    2    1    2    0    0 -0.10797781789E+03 -0.15885170957E+03 -0.21476305499E+03  0.31410749520E+03  0.12508906411E+03 0.  0.
         23    2    1    2    0    0  0.10797781789E+03  0.15885170957E+03  0.27626215757E+02  0.21375879582E+03  0.89646752326E+02 0.  0.
          5    1    3    3  502    0 -0.13079591106E+03 -0.15187767460E+03 -0.20815496949E+03  0.28899889639E+03  0.41800000000E+01 0. -1.
         -5    1    3    3    0  502  0.22818093174E+02 -0.69740349766E+01 -0.66080854962E+01  0.25108598804E+02  0.41800000000E+01 0. -1.
        -11    1    4    4    0    0 -0.52489203761E+01  0.62646291134E+02  0.13912376516E+01  0.62881193533E+02  0.00000000000E+00 0.  1.
         11    1    4    4    0    0  0.11322673827E+03  0.96205418438E+02  0.26234978105E+02  0.15087760229E+03  0.00000000000E+00 0. -1.
</event>
<event>
 7    1  0.4798744E-006  0.9689823E+02  0.7561462E-02  0.1286957E+00
         -4   -1    0    0    0  501 -0.00000000000E+00  0.00000000000E+00  0.44598518906E+03  0.44598518906E+03  0.00000000000E+00 0.  1.
          4   -1    0    0  501    0  0.00000000000E+00 -0.00000000000E+00 -0.24217196129E+02  0.24217196129E+02  0.00000000000E+00 0. -1.
         23    2    1    2    0    0 -0.21842445490E+02 -0.45205964294E+02  0.35903521091E+03  0.38350489727E+03  0.12509617070E+03 0.  0.
          5    1    3    3  502    0  0.29555673708E+02  0.30580303971E+02  0.12820308204E+03  0.13513769084E+03  0.41800000000E+01 0.  1.
         -5    1    3    3    0  502 -0.51398119197E+02 -0.75786268265E+02  0.23083212887E+03  0.24836720643E+03  0.41800000000E+01 0.  1.
        -11    1    1    2    0    0 -0.60090556005E+01  0.23010584878E+02  0.30388558698E+02  0.38588343646E+02  0.00000000000E+00 0.  1.
         11    1    1    2    0    0  0.27851501090E+02  0.22195379416E+02  0.32344223327E+02  0.48109144277E+02  0.00000000000E+00 0. -1.
</event>
<event>
 8    1  0.4798744E-006  0.3216289E+03  0.7561462E-02  0.1074902E+00
          1   -1    0    0  501    0  0.00000000000E+00  0.00000000000E+00  0.18684881925E+03  0.18684881925E+03  0.00000000000E+00 0. -1.
         -1   -1    0    0    0  501 -0.00000000000E+00 -0.00000000000E+00 -0.63932300504E+03  0.63932300504E+03  0.00000000000E+00 0.  1.
         23    2    1    2    0    0  0.19508132260E+03  0.24809520683E+03 -0.33555416932E+03  0.47733745426E+03  0.12508593288E+03 0.  0.
         23    2    1    2    0    0 -0.19508132260E+03 -0.24809520683E+03 -0.11692001647E+03  0.34883437003E+03  0.91690639561E+02 0.  0.
          5    1    3    3  502    0  0.16476876231E+03  0.24612161880E+03 -0.25397621803E+03  0.39018711921E+03  0.41800000000E+01 0.  1.
         -5    1    3    3    0  502  0.30312560288E+02  0.19735880357E+01 -0.81577951297E+02  0.87150335046E+02  0.41800000000E+01 0.  1.
        -11    1    4    4    0    0 -0.34861399006E+02 -0.59069039958E+02  0.11809898617E+02  0.69598436244E+02  0.00000000000E+00 0. -1.
         11    1    4    4    0    0 -0.16021992360E+03 -0.18902616688E+03 -0.12872991509E+03  0.27923593379E+03  0.00000000000E+00 0.  1.
</event>
<event>
 8    1  0.4798744E-006  0.1042153E+03  0.7561462E-02  0.1271673E+00
          2   -1    0    0  501    0  0.00000000000E+00  0.00000000000E+00  0.24037169817E+03  0.24037169817E+03  0.00000000000E+00 0. -1.
         -2   -1    0    0    0  501 -0.00000000000E+00 -0.00000000000E+00 -0.59951897291E+02  0.59951897291E+02  0.00000000000E+00 0.  1.
         23    2    1    2    0    0 -0.43887523755E+02 -0.48368821796E+00  0.75650815793E+02  0.15263328094E+03  0.12509006285E+03 0.  0.
         23    2    1    2    0    0  0.43887523755E+02  0.48368821796E+00  0.10476898509E+03  0.14769031453E+03  0.94390360066E+02 0.  0.
          5    1    3    3  502    0 -0.74511757008E+02 -0.35988686554E+02  0.62422544724E+02  0.10373636769E+03  0.41800000000E+01 0. -1.
         -5    1    3    3    0  502  0.30624233253E+02  0.35504998336E+02  0.13228271069E+02  0.48896913243E+02  0.41800000000E+01 0. -1.
        -11    1    4    4    0    0 -0.14116211579E+02 -0.12736343370E+02  0.81699769408E+02  0.83882859949E+02  0.00000000000E+00 0. -1.
         11    1    4    4    0    0  0.58003735334E+02  0.13220031588E+02  0.23069215680E+02  0.63807454580E+02  0.00000000000E+00 0.  1.
</event>
<event>
 8    1  0.4798744E-006  0.9306355E+02  0.7561462E-02  0.1295598E+00
          2   -1    0    0  501    0  0.00000000000E+00  0.00000000000E+00  0.47001546416E+02  0.47001546416E+02  0.00000000000E+00 0.  1.
         -2   -1    0    0    0  501 -0.00000000000E+00 -0.00000000000E+00 -0.21876318133E+03  0.21876318133E+03  0.00000000000E+00 0. -1.
         23    2    1    2    0    0 -0.63564730612E+01  0.12764185212E+02 -0.12639134632E+03  0.17839843654E+03  0.12509156871E+03 0.  0.
         23    2    1    2    0    0  0.63564730612E+01 -0.12764185212E+02 -0.45370288597E+02  0.87366291204E+02  0.73287629089E+02 0.  0.
          5    1    3    3  502    0 -0.60808123483E+02 -0.90824840553E+01 -0.90513993157E+02  0.10950056966E+03  0.41800000000E+01 0.  1.
         -5    1    3    3    0  502  0.54451650421E+02  0.21846669267E+02 -0.35877353162E+02  0.68897866887E+02  0.41800000000E+01 0.  1.
        -11    1    4    4    0    0 -0.21126580636E+02  0.15543673591E+02  0.12910971802E+01  0.26260333776E+02  0.00000000000E+00 0.  1.
         11    1    4    4    0    0  0.27483053697E+02 -0.28307858803E+02 -0.46661385777E+02  0.61105957428E+02  0.00000000000E+00 0. -1.
</event>
<event>
 8    1  0.4798744E-006  0.1296395E+03  0.7561462E-02  0.1227992E+00
         -1   -1    0    0    0  501 -0.00000000000E+00  0.00000000000E+00  0.99762590333E+02  0.99762590333E+02  0.00000000000E+00 0.  1.
          1   -1    0    0  501    0  0.00000000000E+00 -0.00000000000E+00 -0.21313295265E+03  0.21313295265E+03  0.00000000000E+00 0. -1.
         23    2    1    2    0    0 -0.64617940532E+02 -0.75675029714E+02 -0.55201309161E+02  0.16909858277E+03  0.12507980573E+03 0.  0.
         23    2    1    2    0    0  0.64617940532E+02  0.75675029714E+02 -0.58169053154E+02  0.14379696021E+03  0.85975221203E+02 0.  0.
          5    1    3    3  502    0  0.10816466858E+02 -0.71220421276E+02 -0.59165764820E+02  0.93313474315E+02  0.41800000000E+01 0.  1.
         -5    1    3    3    0  502 -0.75434407390E+02 -0.44546084379E+01  0.39644556589E+01  0.75785108454E+02  0.41800000000E+01 0.  1.
        -11    1    4    4    0    0  0.59913663453E+02  0.32794603064E+02  0.36679178879E+01  0.68400195030E+02  0.00000000000E+00 0.  1.
         11    1    4    4    0    0  0.47042770792E+01  0.42880426649E+02 -0.61836971042E+02  0.75396765183E+02  0.00000000000E+00 0. -1.
</event>
<event>
 7    1  0.4798744E-006  0.6882177E+02  0.7561462E-02  0.1364146E+00
         -4   -1    0    0    0  501 -0.00000000000E+00  0.00000000000E+00  0.16690546538E+03  0.16690546538E+03  0.00000000000E+00 0.  1.
          4   -1    0    0  501    0  0.00000000000E+00 -0.00000000000E+00 -0.14927095348E+03  0.14927095348E+03  0.00000000000E+00 0. -1.
         23    2    1    2    0    0  0.94657164091E+01  0.50352668913E+02  0.27780528766E+02  0.13800150791E+03  0.12509063655E+03 0.  0.
          5    1    3    3  502    0  0.29949495689E+02  0.13580388698E+02 -0.43755859517E+02  0.54894871265E+02  0.41800000000E+01 0.  1.
         -5    1    3    3    0  502 -0.20483779280E+02  0.36772280216E+02  0.71536388283E+02  0.83106636645E+02  0.41800000000E+01 0.  1.
        -11    1    1    2    0    0  0.11142341098E+02 -0.34323331516E+02 -0.88505950569E+02  0.95580050939E+02  0.00000000000E+00 0. -1.
         11    1    1    2    0    0 -0.20608057507E+02 -0.16029337397E+02  0.78359933695E+02  0.82594860012E+02  0.00000000000E+00 0.  1.
</event>
<event>
 8    1  0.4798744E-006  0.1553648E+03  0.7561462E-02  0.1194032E+00
          2   -1    0    0  501    0  0.00000000000E+00  0.00000000000E+00  0.48112156909E+03  0.48112156909E+03  0.00000000000E+00 0. -1.
         -2   -1    0    0    0  501 -0.00000000000E+00 -0.00000000000E+00 -0.69625867625E+02  0.69625867625E+02  0.00000000000E+00 0.  1.
         23    2    1    2    0    0 -0.85646541076E+02 -0.97626524156E+02  0.11308530488E+03  0.21285612464E+03  0.12511265084E+03 0.  0.
         23    2    1    2    0    0  0.85646541076E+02  0.97626524156E+02  0.29841039659E+03  0.33789131208E+03  0.90859813825E+02 0.  0.
          5    1    3    3  502    0 -0.57871790225E+02 -0.10996129439E+03  0.35306727370E+02  0.12924653870E+03  0.41800000000E+01 0. -1.
         -5    1    3    3    0  502 -0.27774750851E+02  0.12334770237E+02  0.77778577509E+02  0.83609585939E+02  0.41800000000E+01 0. -1.
        -11    1    4    4    0    0  0.56246197881E+01  0.71240743613E+02  0.10598956487E+03  0.12783062136E+03  0.00000000000E+00 0.  1.
         11    1    4    4    0    0  0.80021921288E+02  0.26385780543E+02  0.19242083173E+03  0.21006069072E+03  0.00000000000E+00 0. -1.
</event>
<event>
 8    1  0.4798744E-006  0.1155727E+03  0.7561462E-02  0.1250585E+00
         -2   -1    0    0    0  501 -0.00000000000E+00  0.00000000000E+00  0.60927259497E+02  0.60927259497E+02  0.00000000000E+00 0. -1.
          2   -1    0    0  501    0  0.00000000000E+00 -0.00000000000E+00 -0.31342696537E+03  0.31342696537E+03  0.00000000000E+00 0.  1.
         23    2    1    2    0    0 -0.77815973481E+02 -0.53102689326E+01 -0.10058820567E+03  0.17846311699E+03  0.12509025670E+03 0.  0.
         23    2    1    2    0    0  0.77815973481E+02  0.53102689326E+01 -0.15191150021E+03  0.19589110788E+03  0.95982798276E+02 0.  0.
          5    1    3    3  502    0 -0.97517699510E+02  0.29849548172E+02 -0.50029982658E+02  0.11367131920E+03  0.41800000000E+01 0.  1.
         -5    1    3    3    0  502  0.19701726028E+02 -0.35159817105E+02 -0.50558223008E+02  0.64791797791E+02  0.41800000000E+01 0.  1.
        -11    1    4    4    0    0  0.56831517083E+02 -0.15598432064E+02 -0.15527032199E+03  0.16607831077E+03  0.00000000000E+00 0.  1.
         11    1    4    4    0    0  0.20984456399E+02  0.20908700997E+02  0.33588217813E+01  0.29812797109E+02  0.00000000000E+00 0. -1.
</event>
<event>
 8    1  0.4798744E-006  0.1779050E+03  0.7561462E-02  0.1169846E+00
         -2   -1    0    0    0  501 -0.00000000000E+00  0.00000000000E+00  0.52461561160E+02  0.52461561160E+02  0.00000000000E+00 0.  1.
          2   -1    0    0  501    0  0.00000000000E+00 -0.00000000000E+00 -0.81702646213E+03  0.81702646213E+03  0.00000000000E+00 0. -1.
         23    2    1    2    0    0 -0.60093527870E+02 -0.14829392098E+03 -0.24553120511E+03  0.31864863393E+03  0.12509620352E+03 0.  0.
         23    2    1    2    0    0  0.60093527870E+02  0.14829392098E+03 -0.51903369586E+03  0.55083938935E+03  0.91791809711E+02 0.  0.
          5    1    3    3  502    0 -0.66877612860E+02 -0.32459840099E+02 -0.45198790051E+02  0.87101431350E+02  0.41800000000E+01 0.  1.
         -5    1    3    3    0  502  0.67840849899E+01 -0.11583408088E+03 -0.20033241505E+03  0.23154720258E+03  0.41800000000E+01 0.  1.
        -11    1    4    4    0    0  0.47607009311E+02  0.62593671815E+02 -0.12718338253E+03  0.14953263149E+03  0.00000000000E+00 0.  1.
         11    1    4    4    0    0  0.12486518559E+02  0.85700249169E+02 -0.39185031333E+03  0.40130675786E+03  0.00000000000E+00 0. -1.
</event>
<event>
 8    1  0.4798744E-006  0.9028573E+02  0.7561462E-02  0.1302161E+00
         -2   -1    0    0    0  501 -0.00000000000E+00  0.00000000000E+00  0.28193054823E+02  0.28193054823E+02  0.00000000000E+00 0. -1.
          2   -1    0    0  501    0  0.00000000000E+00 -0.00000000000E+00 -0.46589600616E+03  0.46589600616E+03  0.00000000000E+00 0.  1.
         23    2    1    2    0    0  0.36647110829E+02 -0.23029944203E+02 -0.25694235337E+03  0.28902605935E+03  0.12507318245E+03 0.  0.
         23    2    1    2    0    0 -0.36647110829E+02  0.23029944203E+02 -0.18076059797E+03  0.20506300163E+03  0.86620158146E+02 0.  0.
          5    1    3    3  502    0  0.35690862573E+02 -0.64926848393E+02 -0.88975159652E+02  0.11585933173E+03  0.41800000000E+01 0.  1.
         -5    1    3    3    0  502  0.95624825611E+00  0.41896904190E+02 -0.16796719371E+03  0.17316672762E+03  0.41800000000E+01 0.  1.
        -11    1    4    4    0    0 -0.14669520948E+01  0.28592958310E+02 -0.16256537696E+03  0.16506729233E+03  0.00000000000E+00 0.  1.
         11    1    4    4    0    0 -0.35180158734E+02 -0.55630141071E+01 -0.18195221015E+02  0.39995709298E+02  0.00000000000E+00 0. -1.
</event>
<event>
 8    1  0.4798744E-006  0.1151178E+03  0.7561462E-02  0.1251376E+00
         -2   -1    0    0    0  501 -0.00000000000E+00  0.00000000000E+00  0.22243889506E+03  0.22243889506E+03  0.00000000000E+00 0.  1.
          2   -1    0    0  501    0  0.00000000000E+00 -0.00000000000E+00 -0.10234518179E+03  0.10234518179E+03  0.00000000000E+00 0. -1.
         23    2    1    2    0    0 -0.88803047033E+02  0.13780554185E+02  0.12546001818E+03  0.19865221083E+03  0.12508636964E+03 0.  0.
         23    2    1    2    0    0  0.88803047033E+02 -0.13780554185E+02 -0.53663049137E+01  0.12613186601E+03  0.88343452271E+02 0.  0.
          5    1    3    3  502    0 -0.93413542677E+02  0.24221061075E+02  0.14583749615E+03  0.17492511952E+03  0.41800000000E+01 0.  1.
         -5    1    3    3    0  502  0.46104956445E+01 -0.10440506891E+02 -0.20377477963E+02  0.23727091317E+02  0.41800000000E+01 0.  1.
        -11    1    4    4    0    0  0.50870167350E+02 -0.48338375590E+02  0.13497594609E+02  0.71460181507E+02  0.00000000000E+00 0.  1.
         11    1    4    4    0    0  0.37932879683E+02  0.34557821405E+02 -0.18863899523E+02  0.54671684504E+02  0.00000000000E+00 0. -1.
</event>
<event>
 8    1  0.4798744E-006  0.1456885E+03  0.7561462E-02  0.1205873E+00
         -3   -1    0    0    0  501 -0.00000000000E+00  0.00000000000E+00  0.16721212766E+03  0.16721212766E+03  0.00000000000E+00 0.  1.
          3   -1    0    0  501    0  0.00000000000E+00 -0.00000000000E+00 -0.18003637850E+03  0.18003637850E+03  0.00000000000E+00 0. -1.
         23    2    1    2    0    0  0.19198928446E+02  0.12922707994E+03  0.29152242329E+02  0.18320932949E+03  0.12509023997E+03 0.  0.
         23    2    1    2    0    0 -0.19198928446E+02 -0.12922707994E+03 -0.41976493167E+02  0.16403917667E+03  0.89880968290E+02 0.  0.
          5    1    3    3  502    0 -0.49171358048E+01  0.19449068416E+02 -0.44345291893E+02  0.48851016365E+02  0.41800000000E+01 0.  1.
         -5    1    3    3    0  502  0.24116064250E+02  0.10977801153E+03  0.73497534222E+02  0.13435831313E+03  0.41800000000E+01 0.  1.
        -11    1    4    4    0    0  0.35719239279E+02 -0.39894157869E+02 -0.10656580591E+02  0.54598265510E+02  0.00000000000E+00 0.  1.
         11    1    4    4    0    0 -0.54918167725E+02 -0.89332922074E+02 -0.31319912576E+02  0.10944091116E+03  0.00000000000E+00 0. -1.
</event>
<event>
 8    1  0.4798744E-006  0.1105083E+03  0.7561462E-02  0.1259631E+00
         -2   -1    0    0    0  501 -0.00000000000E+00  0.00000000000E+00  0.42027747390E+02  0.42027747390E+02  0.00000000000E+00 0.  1.
          2   -1    0    0  501    0  0.00000000000E+00 -0.00000000000E+00 -0.49217246042E+03  0.49217246042E+03  0.00000000000E+00 0. -1.
         23    2    1    2    0    0  0.21805244000E+02 -0.92122106414E+02 -0.24245756513E+03  0.28878140700E+03  0.12508828476E+03 0.  0.
         23    2    1    2    0    0 -0.21805244000E+02  0.92122106414E+02 -0.20768714790E+03  0.24541880081E+03  0.90191381142E+02 0.  0.
          5    1    3    3  502    0  0.28933363984E+02 -0.42504135985E+02 -0.12088209552E+02  0.52984321619E+02  0.41800000000E+01 0.  1.
         -5    1    3    3    0  502 -0.71281199841E+01 -0.49617970430E+02 -0.23036935558E+03  0.23579708538E+03  0.41800000000E+01 0.  1.
        -11    1    4    4    0    0  0.25816525506E+02  0.46466420842E+02 -0.44233077750E+02  0.69153354382E+02  0.00000000000E+00 0.  1.
         11    1    4    4    0    0 -0.47621769506E+02  0.45655685572E+02 -0.16345407015E+03  0.17626544643E+03  0.00000000000E+00 0. -1.
</event>
<event>
 8    1  0.4798744E-006  0.1699774E+03  0.7561462E-02  0.1177871E+00
         -2   -1    0    0    0  501 -0.00000000000E+00  0.00000000000E+00  0.25358564550E+02  0.25358564550E+02  0.00000000000E+00 0.  1.
          2   -1    0    0  501    0  0.00000000000E+00 -0.00000000000E+00 -0.13565687815E+04  0.13565687815E+04  0.00000000000E+00 0. -1.
         23    2    1    2    0    0  0.14320803692E+03 -0.37341547571E+02 -0.76383625024E+03  0.78803446129E+03  0.12509820933E+03 0.  0.
         23    2    1    2    0    0 -0.14320803692E+03  0.37341547571E+02 -0.56737396673E+03  0.59389288479E+03  0.94300622825E+02 0.  0.
          5    1    3    3  502    0  0.11516270291E+03  0.13644030235E+02 -0.32020784643E+03  0.34058647216E+03  0.41800000000E+01 0.  1.
         -5    1    3    3    0  502  0.28045334004E+02 -0.50985577806E+02 -0.44362840382E+03  0.44744798913E+03  0.41800000000E+01 0.  1.
        -11    1    4    4    0    0 -0.80397292648E+02  0.58350483499E+02 -0.43081946932E+03  0.44212432498E+03  0.00000000000E+00 0.  1.
         11    1    4    4    0    0 -0.62810744267E+02 -0.21008935928E+02 -0.13655449741E+03  0.15176855981E+03  0.00000000000E+00 0. -1.
</event>
<event>
 8    1  0.4798744E-006  0.1169683E+03  0.7561462E-02  0.1248184E+00
          2   -1    0    0  501    0  0.00000000000E+00  0.00000000000E+00  0.17762891720E+03  0.17762891720E+03  0.00000000000E+00 0. -1.
         -2   -1    0    0    0  501 -0.00000000000E+00 -0.00000000000E+00 -0.11643491087E+03  0.11643491087E+03  0.00000000000E+00 0.  1.
         23    2    1    2    0    0 -0.59942020913E+02  0.68755659887E+02  0.59887315884E+02  0.16536452235E+03  0.12425195376E+03 0.  0.
         23    2    1    2    0    0  0.59942020913E+02 -0.68755659887E+02  0.13066904492E+01  0.12869930572E+03  0.90782251654E+02 0.  0.
          5    1    3    3  502    0 -0.16772220011E+02 -0.69223285845E+01  0.74616219239E+02  0.76904346891E+02  0.41800000000E+01 0. -1.
         -5    1    3    3    0  502 -0.43169800902E+02  0.75677988471E+02 -0.14728903356E+02  0.88460175463E+02  0.41800000000E+01 0.  1.
        -11    1    4    4    0    0 -0.22902630644E+02 -0.47215980180E+01  0.50575738395E+01  0.23924945797E+02  0.00000000000E+00 0.  1.
         11    1    4    4    0    0  0.82844651557E+02 -0.64034061869E+02 -0.37508833903E+01  0.10477435992E+03  0.00000000000E+00 0. -1.
</event>
<event>
 8    1  0.4798744E-006  0.1027435E+03  0.7561462E-02  0.1274630E+00
         -2   -1    0    0    0  501 -0.00000000000E+00  0.00000000000E+00  0.97688094229E+03  0.97688094229E+03  0.00000000000E+00 0. -1.
          2   -1    0    0  501    0  0.00000000000E+00 -0.00000000000E+00 -0.17105868497E+02  0.17105868497E+02  0.00000000000E+00 0.  1.
         23    2    1    2    0    0 -0.21397296634E+02 -0.58292331669E+02  0.64959988631E+03  0.66444030409E+03  0.12508023492E+03 0.  0.
         23    2    1    2    0    0  0.21397296634E+02  0.58292331669E+02  0.31017518748E+03  0.32954650670E+03  0.92392710281E+02 0.  0.
          5    1    3    3  502    0  0.93200871124E+01 -0.69704988130E+02  0.17437321109E+03  0.18806684594E+03  0.41800000000E+01 0. -1.
         -5    1    3    3    0  502 -0.30717383747E+02  0.11412656461E+02  0.47522667522E+03  0.47637345815E+03  0.41800000000E+01 0. -1.
        -11    1    4    4    0    0 -0.29422749513E+02  0.36038989358E+02  0.20943332857E+03  0.21453863536E+03  0.00000000000E+00 0. -1.
         11    1    4    4    0    0  0.50820046148E+02  0.22253342311E+02  0.10074185891E+03  0.11500787134E+03  0.00000000000E+00 0.  1.
</event>
<event>
 8    1  0.4798744E-006  0.1287277E+03  0.7561462E-02  0.1229356E+00
         -1   -1    0    0    0  501 -0.00000000000E+00  0.00000000000E+00  0.16809460650E+02  0.16809460650E+02  0.00000000000E+00 0.  1.
          1   -1    0    0  501    0  0.00000000000E+00 -0.00000000000E+00 -0.13354757189E+04  0.13354757189E+04  0.00000000000E+00 0. -1.
         23    2    1    2    0    0  0.97530747313E+02  0.22362096880E+02 -0.60864491220E+03  0.62937080658E+03  0.12508666192E+03 0.  0.
         23    2    1    2    0    0 -0.97530747313E+02 -0.22362096880E+02 -0.71002134606E+03  0.72291437297E+03  0.91992221083E+02 0.  0.
          5    1    3    3  502    0 -0.62856693182E+01 -0.10329565250E+02 -0.19090014845E+01  0.12935464572E+02  0.41800000000E+01 0.  1.
         -5    1    3    3    0  502  0.10381641663E+03  0.32691662130E+02 -0.60673591071E+03  0.61643534201E+03  0.41800000000E+01 0.  1.
        -11    1    4    4    0    0 -0.71438406931E+02  0.29808183046E+02 -0.38619805685E+03  0.39387931257E+03  0.00000000000E+00 0. -1.
         11    1    4    4    0    0 -0.26092340382E+02 -0.52170279926E+02 -0.32382328922E+03  0.32903506040E+03  0.00000000000E+00 0.  1.
</event>
<event>
 8    1  0.4798744E-006  0.1167282E+03  0.7561462E-02  0.1248594E+00
         -2   -1    0    0    0  501 -0.00000000000E+00  0.00000000000E+00  0.21305036967E+02  0.21305036967E+02  0.00000000000E+00 0.  1.
          2   -1    0    0  501    0  0.00000000000E+00 -0.00000000000E+00 -0.69678984855E+03  0.69678984855E+03  0.00000000000E+00 0. -1.
         23    2    1    2    0    0  0.47188887409E+02  0.14813242812E+02 -0.32638064038E+03  0.35301771733E+03  0.12510380919E+03 0.  0.
         23    2    1    2    0    0 -0.47188887409E+02 -0.14813242812E+02 -0.34910417120E+03  0.36507716819E+03  0.94664635029E+02 0.  0.
          5    1    3    3  502    0 -0.11408694033E+02 -0.43207552879E+02 -0.65657429036E+02  0.79532517331E+02  0.41800000000E+01 0. -1.
         -5    1    3    3    0  502  0.58597581442E+02  0.58020795692E+02 -0.26072321135E+03  0.27348520000E+03  0.41800000000E+01 0. -1.
        -11    1    4    4    0    0  0.21461686774E+02  0.19730409674E+02 -0.77207649209E+02  0.82528262804E+02  0.00000000000E+00 0.  1.
         11    1    4    4    0    0 -0.68650574182E+02 -0.34543652486E+02 -0.27189652199E+03  0.28254890539E+03  0.00000000000E+00 0. -1.
</event>
<event>
 8    1  0.4798744E-006  0.1285231E+03  0.7561462E-02  0.1229664E+00
         -2   -1    0    0    0  501 -0.00000000000E+00  0.00000000000E+00  0.54718856297E+02  0.54718856297E+02  0.00000000000E+00 0.  1.
          2   -1    0    0  501    0  0.00000000000E+00 -0.00000000000E+00 -0.55856711914E+03  0.55856711914E+03  0.00000000000E+00 0. -1.
         23    2    1    2    0    0 -0.35093049608E+02  0.99794261634E+02 -0.11534970573E+03  0.20035125887E+03  0.12507859742E+03 0.  0.
         23    2    1    2    0    0  0.35093049608E+02 -0.99794261634E+02 -0.38849855710E+03  0.41293471656E+03  0.91616234825E+02 0.  0.
          5    1    3    3  502    0  0.31537049637E+02  0.16182028039E+02 -0.80110852684E+02  0.87702135943E+02  0.41800000000E+01 0. -1.
         -5    1    3    3    0  502 -0.66630099244E+02  0.83612233596E+02 -0.35238853049E+02  0.11264912293E+03  0.41800000000E+01 0. -1.
        -11    1    4    4    0    0 -0.19116645017E+01 -0.59952929513E+02 -0.81702755846E+02  0.10135752824E+03  0.00000000000E+00 0.  1.
         11    1    4    4    0    0  0.37004714109E+02 -0.39841332121E+02 -0.30679580126E+03  0.31157718832E+03  0.00000000000E+00 0. -1.
</event>
<event>
 8    1  0.4798744E-006  0.8440571E+02  0.7561462E-02  0.1316994E+00
          2   -1    0    0  501    0  0.00000000000E+00  0.00000000000E+00  0.73240534782E+03  0.73240534782E+03  0.00000000000E+00 0. -1.
         -2   -1    0    0    0  501 -0.00000000000E+00 -0.00000000000E+00 -0.17442075747E+02  0.17442075747E+02  0.00000000000E+00 0.  1.
         23    2    1    2    0    0  0.24908259191E+01  0.48589332136E+02  0.45560988121E+03  0.47496788537E+03  0.12508797248E+03 0.  0.
         23    2    1    2    0    0 -0.24908259191E+01 -0.48589332136E+02  0.25935339086E+03  0.27487953820E+03  0.76989945835E+02 0.  0.
          5    1    3    3  502    0 -0.41576051272E+02  0.24296648986E+02  0.64444875996E+02  0.80557492721E+02  0.41800000000E+01 0. -1.
         -5    1    3    3    0  502  0.44066877191E+02  0.24292683150E+02  0.39116500522E+03  0.39441039265E+03  0.41800000000E+01 0. -1.
        -11    1    4    4    0    0 -0.24893281461E+02 -0.13408317652E+02  0.27985905339E+02  0.39782776949E+02  0.00000000000E+00 0.  1.
         11    1    4    4    0    0  0.22402455542E+02 -0.35181014484E+02  0.23136748552E+03  0.23509676125E+03  0.00000000000E+00 0. -1.
</event>
<event>
 8    1  0.4798744E-006  0.1131614E+03  0.7561462E-02  0.1254825E+00
         -1   -1    0    0    0  501 -0.00000000000E+00  0.00000000000E+00  0.32599453136E+03  0.32599453136E+03  0.00000000000E+00 0.  1.
          1   -1    0    0  501    0  0.00000000000E+00 -0.00000000000E+00 -0.74915380934E+02  0.74915380934E+02  0.00000000000E+00 0. -1.
         23    2    1    2    0    0  0.27402358722E+02  0.82430695310E+02  0.22575203642E+03  0.27231923340E+03  0.12509226250E+03 0.  0.
         23    2    1    2    0    0 -0.27402358722E+02 -0.82430695310E+02  0.25327114004E+02  0.12859067889E+03  0.91369531036E+02 0.  0.
          5    1    3    3  502    0  0.17982206747E+02 -0.25135599223E+02  0.13178665998E+02  0.33857166823E+02  0.41800000000E+01 0. -1.
         -5    1    3    3    0  502  0.94201519747E+01  0.10756629453E+03  0.21257337042E+03  0.23846206658E+03  0.41800000000E+01 0. -1.
        -11    1    4    4    0    0 -0.31949855864E+01 -0.17312398956E+02  0.51442949380E+02  0.54371905718E+02  0.00000000000E+00 0.  1.
         11    1    4    4    0    0 -0.24207373135E+02 -0.65118296354E+02 -0.26115835377E+02  0.74218773175E+02  0.00000000000E+00 0. -1.
</event>
<event>
 8    1  0.4798744E-006  0.1319808E+03  0.7561462E-02  0.1224546E+00
         -1   -1    0    0    0  501 -0.00000000000E+00  0.00000000000E+00  0.62726999734E+02  0.62726999734E+02  0.00000000000E+00 0.  1.
          1   -1    0    0  501    0  0.00000000000E+00 -0.00000000000E+00 -0.30447050630E+03  0.30447050630E+03  0.00000000000E+00 0. -1.
         23    2    1    2    0    0  0.59606622403E+02 -0.21632883922E+01 -0.77013370009E+02  0.15853890263E+03  0.12508355302E+03 0.  0.
         23    2    1    2    0    0 -0.59606622403E+02  0.21632883922E+01 -0.16473013655E+03  0.20865860340E+03  0.11333475034E+03 0.  0.
          5    1    3    3  502    0  0.78773328851E+02 -0.45244962063E+02 -0.45643602273E+02  0.10175045336E+03  0.41800000000E+01 0. -1.
         -5    1    3    3    0  502 -0.19166706449E+02  0.43081673671E+02 -0.31369767736E+02  0.56788449267E+02  0.41800000000E+01 0. -1.
        -11    1    4    4    0    0 -0.49960388561E+02  0.53645790741E+02 -0.11535080186E+03  0.13667376771E+03  0.00000000000E+00 0.  1.
         11    1    4    4    0    0 -0.96462338414E+01 -0.51482502349E+02 -0.49379334693E+02  0.71984835696E+02  0.00000000000E+00 0. -1.
</event>
<event>
 8    1  0.4798744E-006  0.8114480E+02  0.7561462E-02  0.1325834E+00
         -2   -1    0    0    0  501 -0.00000000000E+00  0.00000000000E+00  0.32222130897E+02  0.32222130897E+02  0.00000000000E+00 0.  1.
          2   -1    0    0  501    0  0.00000000000E+00 -0.00000000000E+00 -0.46317314704E+03  0.46317314704E+03  0.00000000000E+00 0. -1.
         23    2    1    2    0    0  0.13771057075E+02 -0.38757469328E+02 -0.16758966015E+03  0.21313130429E+03  0.12508747034E+03 0.  0.
         23    2    1    2    0    0 -0.13771057075E+02  0.38757469328E+02 -0.26336135599E+03  0.28226397365E+03  0.92854528967E+02 0.  0.
          5    1    3    3  502    0 -0.40114312081E+01 -0.44538723257E+02 -0.18306994302E+03  0.18849898113E+03  0.41800000000E+01 0. -1.
         -5    1    3    3    0  502  0.17782488283E+02  0.57812539289E+01  0.15480282867E+02  0.24632323158E+02  0.41800000000E+01 0. -1.
        -11    1    4    4    0    0  0.15283301709E+02 -0.24345464347E+02 -0.11350234088E+03  0.11708570507E+03  0.00000000000E+00 0.  1.
         11    1    4    4    0    0 -0.29054358783E+02  0.63102933675E+02 -0.14985901511E+03  0.16517826859E+03  0.00000000000E+00 0. -1.
</event>
<event>
 8    1  0.4798744E-006  0.2557430E+03  0.7561462E-02  0.1109728E+00
         -1   -1    0    0    0  501 -0.00000000000E+00  0.00000000000E+00  0.13874755255E+04  0.13874755255E+04  0.00000000000E+00 0.  1.
          1   -1    0    0  501    0  0.00000000000E+00 -0.00000000000E+00 -0.52170888080E+02  0.52170888080E+02  0.00000000000E+00 0. -1.
         23    2    1    2    0    0 -0.13799065676E+03  0.20463675369E+03  0.71867728977E+03  0.77010550230E+03  0.12509122878E+03 0.  0.
         23    2    1    2    0    0  0.13799065676E+03 -0.20463675369E+03  0.61662734763E+03  0.66954091126E+03  0.84487417374E+02 0.  0.
          5    1    3    3  502    0 -0.35174977990E+02  0.55648631245E+01  0.32975814339E+02  0.48714715534E+02  0.41800000000E+01 0.  1.
         -5    1    3    3    0  502 -0.10281567877E+03  0.19907189057E+03  0.68570147543E+03  0.72139078676E+03  0.41800000000E+01 0.  1.
        -11    1    4    4    0    0  0.12974071001E+03 -0.15927564990E+03  0.41957265154E+03  0.46716441903E+03  0.00000000000E+00 0. -1.
         11    1    4    4    0    0  0.82499467505E+01 -0.45361103795E+02  0.19705469608E+03  0.20237649223E+03  0.00000000000E+00 0.  1.
</event>
<event>
 8    1  0.4798744E-006  0.1912688E+03  0.7561462E-02  0.1157322E+00
         -2   -1    0    0    0  501 -0.00000000000E+00  0.00000000000E+00  0.47287302265E+02  0.47287302265E+02  0.00000000000E+00 0.  1.
          2   -1    0    0  501    0  0.00000000000E+00 -0.00000000000E+00 -0.10742764322E+04  0.10742764322E+04  0.00000000000E+00 0. -1.
         23    2    1    2    0    0 -0.68011918666E+01  0.17189065681E+03 -0.29161981432E+03  0.36094608545E+03  0.12508919376E+03 0.  0.
         23    2    1    2    0    0  0.68011918666E+01 -0.17189065681E+03 -0.73536931558E+03  0.76061764898E+03  0.90435189635E+02 0.  0.
          5    1    3    3  502    0 -0.60639530375E+02  0.12495485572E+03 -0.16701395812E+03  0.21726022006E+03  0.41800000000E+01 0. -1.
         -5    1    3    3    0  502  0.53838338508E+02  0.46935801090E+02 -0.12460585619E+03  0.14368586540E+03  0.41800000000E+01 0. -1.
        -11    1    4    4    0    0  0.51084572080E+01 -0.10540124935E+03 -0.60634690090E+03  0.61546087116E+03  0.00000000000E+00 0. -1.
         11    1    4    4    0    0  0.16927346586E+01 -0.66489407460E+02 -0.12902241468E+03  0.14515677781E+03  0.00000000000E+00 0.  1.
</event>
<event>
 8    1  0.4798744E-006  0.1237279E+03  0.7561462E-02  0.1237071E+00
         -2   -1    0    0    0  501 -0.00000000000E+00  0.00000000000E+00  0.82855691823E+02  0.82855691823E+02  0.00000000000E+00 0. -1.
          2   -1    0    0  501    0  0.00000000000E+00 -0.00000000000E+00 -0.21963739204E+03  0.21963739204E+03  0.00000000000E+00 0.  1.
         23    2    1    2    0    0 -0.51296623480E+02  0.60478137186E+02 -0.63370028869E+02  0.16109650975E+03  0.12508947292E+03 0.  0.
         23    2    1    2    0    0  0.51296623480E+02 -0.60478137186E+02 -0.73411671350E+02  0.14139657412E+03  0.91185355316E+02 0.  0.
          5    1    3    3  502    0  0.39646431417E+02  0.36292786912E+02 -0.22851573119E+02  0.58554869139E+02  0.41800000000E+01 0. -1.
         -5    1    3    3    0  502 -0.90943054897E+02  0.24185350275E+02 -0.40518455749E+02  0.10254164061E+03  0.41800000000E+01 0. -1.
        -11    1    4    4    0    0  0.51612234311E+02 -0.14833696269E+02  0.14447721186E+01  0.53721026070E+02  0.00000000000E+00 0. -1.
         11    1    4    4    0    0 -0.31561083062E+00 -0.45644440917E+02 -0.74856443468E+02  0.87675548048E+02  0.00000000000E+00 0.  1.
</event>
<event>
 7    1  0.4798744E-006  0.3199878E+03  0.7561462E-02  0.1075655E+00
         -2   -1    0    0    0  501 -0.00000000000E+00  0.00000000000E+00  0.76980025841E+02  0.76980025841E+02  0.00000000000E+00 0.  1.
          2   -1    0    0  501    0  0.00000000000E+00 -0.00000000000E+00 -0.14564583697E+04  0.14564583697E+04  0.00000000000E+00 0. -1.
         23    2    1    2    0    0 -0.84488830591E+02  0.29354296912E+03 -0.85015191011E+03  0.90779431791E+03  0.89590268098E+02 0.  0.
          5    1    1    2  502    0 -0.18981969500E+02 -0.15313701058E+03 -0.30119554230E+03  0.33844864644E+03  0.41800000000E+01 0. -1.
         -5    1    1    2    0  502  0.10347080009E+03 -0.14040595854E+03 -0.22813089144E+03  0.28719543119E+03  0.41800000000E+01 0.  1.
        -11    1    3    3    0    0 -0.28681445318E+02  0.29024170793E+02 -0.19190036742E+03  0.19619066953E+03  0.00000000000E+00 0. -1.
         11    1    3    3    0    0 -0.55807385274E+02  0.26451879833E+03 -0.65825154269E+03  0.71160364837E+03  0.00000000000E+00 0.  1.
</event>
<event>
 8    1  0.4798744E-006  0.1517723E+03  0.7561462E-02  0.1198312E+00
          3   -1    0    0  501    0  0.00000000000E+00  0.00000000000E+00  0.20016203041E+03  0.20016203041E+03  0.00000000000E+00 0. -1.
         -3   -1    0    0    0  501 -0.00000000000E+00 -0.00000000000E+00 -0.13764945593E+03  0.13764945593E+03  0.00000000000E+00 0.  1.
         23    2    1    2    0    0 -0.10669786215E+03 -0.59133296733E+02  0.29282031913E+01  0.17475323355E+03  0.12509571413E+03 0.  0.
         23    2    1    2    0    0  0.10669786215E+03  0.59133296733E+02  0.59584371284E+02  0.16305825279E+03  0.90313431635E+02 0.  0.
          5    1    3    3  502    0 -0.43997482493E+02  0.37384735005E+02 -0.10397596689E+02  0.58813087778E+02  0.41800000000E+01 0.  1.
         -5    1    3    3    0  502 -0.62700379652E+02 -0.96518031738E+02  0.13325799880E+02  0.11594014577E+03  0.41800000000E+01 0.  1.
        -11    1    4    4    0    0  0.66918067835E+02  0.10631060281E+02 -0.10982098705E+02  0.68641486999E+02  0.00000000000E+00 0.  1.
         11    1    4    4    0    0  0.39779794310E+02  0.48502236452E+02  0.70566469989E+02  0.94416765794E+02  0.00000000000E+00 0. -1.
</event>
<event>
 8    1  0.4798744E-006  0.1105978E+03  0.7561462E-02  0.1259467E+00
         -3   -1    0    0    0  501 -0.00000000000E+00  0.00000000000E+00  0.60013766916E+02  0.60013766916E+02  0.00000000000E+00 0.  1.
          3   -1    0    0  501    0  0.00000000000E+00 -0.00000000000E+00 -0.36179620303E+03  0.36179620303E+03  0.00000000000E+00 0. -1.
         23    2    1    2    0    0 -0.26477461316E+02  0.78133482221E+02 -0.83596246847E+02  0.17158529519E+03  0.12508910438E+03 0.  0.
         23    2    1    2    0    0  0.26477461316E+02 -0.78133482221E+02 -0.21818618927E+03  0.25022467476E+03  0.90560905860E+02 0.  0.
          5    1    3    3  502    0  0.10164312016E+02  0.96755368283E+02 -0.26153704157E+02  0.10082858311E+03  0.41800000000E+01 0.  1.
         -5    1    3    3    0  502 -0.36641773332E+02 -0.18621886061E+02 -0.57442542690E+02  0.70756712078E+02  0.41800000000E+01 0.  1.
        -11    1    4    4    0    0  0.12707562696E+02 -0.35957509876E+02 -0.19772069859E+03  0.20136508962E+03  0.00000000000E+00 0. -1.
         11    1    4    4    0    0  0.13769898619E+02 -0.42175972346E+02 -0.20465490672E+02  0.48859585137E+02  0.00000000000E+00 0.  1.
</event>
<event>
 8    1  0.6751997E-006  0.1836642E+03  0.7561462E-02  0.1164303E+00
         -1   -1    0    0    0  501 -0.00000000000E+00  0.00000000000E+00  0.25918789566E+02  0.25918789566E+02  0.00000000000E+00 0.  1.
          1   -1    0    0  501    0  0.00000000000E+00 -0.00000000000E+00 -0.15309378387E+04  0.15309378387E+04  0.00000000000E+00 0. -1.
         23    2    1    2    0    0 -0.11260130205E+03 -0.11458355656E+03 -0.60060942979E+03  0.63418269910E+03  0.12509022354E+03 0.  0.
         23    2    1    2    0    0  0.11260130205E+03  0.11458355656E+03 -0.90440961938E+03  0.92267392921E+03  0.86959619062E+02 0.  0.
          5    1    3    3  502    0 -0.12521839542E+03 -0.81465510039E+02 -0.56232944062E+03  0.58184890484E+03  0.41800000000E+01 0.  1.
         -5    1    3    3    0  502  0.12617093367E+02 -0.33118046521E+02 -0.38279989170E+02  0.52333794257E+02  0.41800000000E+01 0.  1.
        -11    1    4    4    0    0  0.11960734109E+03  0.73207375538E+02 -0.66671610685E+03  0.68130433949E+03  0.00000000000E+00 0.  1.
         11    1    4    4    0    0 -0.70060390418E+01  0.41376181022E+02 -0.23769351253E+03  0.24136958972E+03  0.00000000000E+00 0. -1.
</event>
<event>
 8    1  0.4798744E-006  0.1107077E+03  0.7561462E-02  0.1259265E+00
          1   -1    0    0  501    0  0.00000000000E+00  0.00000000000E+00  0.28451814979E+03  0.28451814979E+03  0.00000000000E+00 0. -1.
         -1   -1    0    0    0  501 -0.00000000000E+00 -0.00000000000E+00 -0.75900612436E+02  0.75900612436E+02  0.00000000000E+00 0.  1.
         23    2    1    2    0    0 -0.49658820877E+02  0.83396832404E+02  0.13203883993E+03  0.20616589348E+03  0.12509632384E+03 0.  0.
         23    2    1    2    0    0  0.49658820877E+02 -0.83396832404E+02  0.76578697429E+02  0.15425286875E+03  0.92242183801E+02 0.  0.
          5    1    3    3  502    0 -0.67887403971E+02  0.47097799241E+02  0.14181135968E+03  0.16417928141E+03  0.41800000000E+01 0. -1.
         -5    1    3    3    0  502  0.18228583094E+02  0.36299033163E+02 -0.97725197522E+01  0.41986612062E+02  0.41800000000E+01 0. -1.
        -11    1    4    4    0    0  0.22767571903E+02 -0.50255064369E+02 -0.11518978610E+02  0.56361517841E+02  0.00000000000E+00 0.  1.
         11    1    4    4    0    0  0.26891248974E+02 -0.33141768035E+02  0.88097676038E+02  0.97891350911E+02  0.00000000000E+00 0. -1.
</event>
<event>
 8    1  0.4798744E-006  0.1024529E+03  0.7561462E-02  0.1275221E+00
         -3   -1    0    0    0  501 -0.00000000000E+00  0.00000000000E+00  0.12534211079E+03  0.12534211079E+03  0.00000000000E+00 0. -1.
          3   -1    0    0  501    0  0.00000000000E+00 -0.00000000000E+00 -0.14898393972E+03  0.14898393972E+03  0.00000000000E+00 0.  1.
         23    2    1    2    0    0  0.43753755391E+02 -0.24576860919E+02  0.54866390571E+02  0.14552062996E+03  0.12509004647E+03 0.  0.
         23    2    1    2    0    0 -0.43753755391E+02  0.24576860919E+02 -0.78508219503E+02  0.12880542055E+03  0.88931898838E+02 0.  0.
          5    1    3    3  502    0  0.47209661775E+02  0.44380497716E+02  0.19272312789E+02  0.67729426269E+02  0.41800000000E+01 0. -1.
         -5    1    3    3    0  502 -0.34559063837E+01 -0.68957358635E+02  0.35594077782E+02  0.77791203693E+02  0.41800000000E+01 0. -1.
        -11    1    4    4    0    0 -0.29735912984E+02  0.40079176076E+02 -0.24913568342E+01  0.49967706920E+02  0.00000000000E+00 0. -1.
         11    1    4    4    0    0 -0.14017842407E+02 -0.15502315157E+02 -0.76016862668E+02  0.78837713633E+02  0.00000000000E+00 0.  1.
</event>
<event>
 8    1  0.4798744E-006  0.1095906E+03  0.7561462E-02  0.1261330E+00
          1   -1    0    0  501    0  0.00000000000E+00  0.00000000000E+00  0.55265426865E+02  0.55265426865E+02  0.00000000000E+00 0. -1.
         -1   -1    0    0    0  501 -0.00000000000E+00 -0.00000000000E+00 -0.32285498334E+03  0.32285498334E+03  0.00000000000E+00 0.  1.
         23    2    1    2    0    0  0.12227181712E+02  0.63214970204E+02 -0.21245760782E+03  0.25481532308E+03  0.12508787842E+03 0.  0.
         23    2    1    2    0    0 -0.12227181712E+02 -0.63214970204E+02 -0.55131948660E+02  0.12330508712E+03  0.89548737103E+02 0.  0.
          5    1    3    3  502    0  0.53332048950E+02  0.39636486531E+02 -0.44086016768E+02  0.79852412514E+02  0.41800000000E+01 0.  1.
         -5    1    3    3    0  502 -0.41104867238E+02  0.23578483673E+02 -0.16837159105E+03  0.17496291057E+03  0.41800000000E+01 0.  1.
        -11    1    4    4    0    0  0.14553068174E+02  0.15870963305E+02  0.27490132930E+01  0.21707978800E+02  0.00000000000E+00 0. -1.
         11    1    4    4    0    0 -0.26780249887E+02 -0.79085933508E+02 -0.57880961953E+02  0.10159710832E+03  0.00000000000E+00 0.  1.
</event>
<event>
 8    1  0.4798744E-006  0.1079518E+03  0.7561462E-02  0.1264410E+00
         -2   -1    0    0    0  501 -0.00000000000E+00  0.00000000000E+00  0.21322091929E+02  0.21322091929E+02  0.00000000000E+00 0.  1.
          2   -1    0    0  501    0  0.00000000000E+00 -0.00000000000E+00 -0.62562370388E+03  0.62562370388E+03  0.00000000000E+00 0. -1.
         23    2    1    2    0    0  0.64609953110E+01 -0.20860190402E+02 -0.24606816011E+03  0.27690055508E+03  0.12508991159E+03 0.  0.
         23    2    1    2    0    0 -0.64609953110E+01  0.20860190402E+02 -0.35823345184E+03  0.37004524073E+03  0.90140901722E+02 0.  0.
          5    1    3    3  502    0 -0.90407572674E+01 -0.70628393282E+02 -0.17227171604E+03  0.18645407417E+03  0.41800000000E+01 0. -1.
         -5    1    3    3    0  502  0.15501752578E+02  0.49768202879E+02 -0.73796444076E+02  0.90446480911E+02  0.41800000000E+01 0. -1.
        -11    1    4    4    0    0 -0.38138779142E+02 -0.17978089109E+02 -0.18228545295E+03  0.18709827503E+03  0.00000000000E+00 0.  1.
         11    1    4    4    0    0  0.31677783831E+02  0.38838279511E+02 -0.17594799889E+03  0.18294696570E+03  0.00000000000E+00 0. -1.
</event>
<event>
 8    1  0.4798744E-006  0.1456980E+03  0.7561462E-02  0.1205861E+00
          4   -1    0    0  501    0  0.00000000000E+00  0.00000000000E+00  0.52796772640E+03  0.52796772640E+03  0.00000000000E+00 0. -1.
         -4   -1    0    0    0  501 -0.00000000000E+00 -0.00000000000E+00 -0.51785866381E+02  0.51785866381E+02  0.00000000000E+00 0.  1.
         23    2    1    2    0    0  0.39300349150E+02  0.11494617695E+03  0.19799540304E+03  0.26383031376E+03  0.12508842391E+03 0.  0.
         23    2    1    2    0    0 -0.39300349150E+02 -0.11494617695E+03  0.27818645699E+03  0.31592327903E+03  0.87536691403E+02 0.  0.
          5    1    3    3  502    0  0.47301534221E+02  0.13739165880E+03  0.18802080822E+03  0.23766194431E+03  0.41800000000E+01 0. -1.
         -5    1    3    3    0  502 -0.80011850710E+01 -0.22445481851E+02  0.99745948144E+01  0.26168369452E+02  0.41800000000E+01 0. -1.
        -11    1    4    4    0    0 -0.10631192722E+02 -0.45095390708E+02  0.26979792401E+02  0.53614603606E+02  0.00000000000E+00 0.  1.
         11    1    4    4    0    0 -0.28669156427E+02 -0.69850786240E+02  0.25120666459E+03  0.26230867542E+03  0.00000000000E+00 0. -1.
</event>
<event>
 8    1  0.1330834E-005  0.1846442E+03  0.7561462E-02  0.1163383E+00
          4   -1    0    0  501    0  0.00000000000E+00  0.00000000000E+00  0.20923948009E+03  0.20923948009E+03  0.00000000000E+00 0. -1.
         -4   -1    0    0    0  501 -0.00000000000E+00 -0.00000000000E+00 -0.22054184879E+03  0.22054184879E+03  0.00000000000E+00 0.  1.
         23    2    1    2    0    0 -0.12903191040E+02  0.18044241488E+03 -0.44785308180E+02  0.22445292868E+03  0.12508971157E+03 0.  0.
         23    2    1    2    0    0  0.12903191040E+02 -0.18044241488E+03  0.33482939482E+02  0.20532840020E+03  0.91173939618E+02 0.  0.
          5    1    3    3  502    0 -0.22171270270E+02  0.14643939154E+03  0.21055623339E+02  0.14965584617E+03  0.41800000000E+01 0. -1.
         -5    1    3    3    0  502  0.92680792306E+01  0.34003023341E+02 -0.65840931519E+02  0.74797082512E+02  0.41800000000E+01 0. -1.
        -11    1    4    4    0    0  0.27959029266E+02 -0.13082944826E+03 -0.14649637433E+02  0.13458329661E+03  0.00000000000E+00 0.  1.
         11    1    4    4    0    0 -0.15055838226E+02 -0.49612966623E+02  0.48132576915E+02  0.70745103593E+02  0.00000000000E+00 0. -1.
</event>
<event>
 8    1  0.4798744E-006  0.1155535E+03  0.7561462E-02  0.1250618E+00
          2   -1    0    0  501    0  0.00000000000E+00  0.00000000000E+00  0.63497070634E+02  0.63497070634E+02  0.00000000000E+00 0. -1.
         -2   -1    0    0    0  501 -0.00000000000E+00 -0.00000000000E+00 -0.38211529849E+03  0.38211529849E+03  0.00000000000E+00 0.  1.
         23    2    1    2    0    0 -0.81138749731E+02 -0.24259391243E+02 -0.27985622300E+03  0.31802249287E+03  0.12508711222E+03 0.  0.
         23    2    1    2    0    0  0.81138749731E+02  0.24259391243E+02 -0.38762004850E+02  0.12758987626E+03  0.87204751771E+02 0.  0.
          5    1    3    3  502    0 -0.12930577411E+01  0.18961484281E+02 -0.18727663976E+03  0.18828494917E+03  0.41800000000E+01 0.  1.
         -5    1    3    3    0  502 -0.79845691990E+02 -0.43220875524E+02 -0.92579583243E+02  0.12973754369E+03  0.41800000000E+01 0.  1.
        -11    1    4    4    0    0  0.22998106957E+02  0.51612385183E+02 -0.25452018848E+02  0.61972223547E+02  0.00000000000E+00 0. -1.
         11    1    4    4    0    0  0.58140642774E+02 -0.27352993940E+02 -0.13309986002E+02  0.65617652708E+02  0.00000000000E+00 0.  1.
</event>
<event>
 8    1  0.4798744E-006  0.1213043E+03  0.7561462E-02  0.1240961E+00
         -1   -1    0    0    0  501 -0.00000000000E+00  0.00000000000E+00  0.39080788438E+02  0.39080788438E+02  0.00000000000E+00 0.  1.
          1   -1    0    0  501    0  0.00000000000E+00 -0.00000000000E+00 -0.71405516339E+03  0.71405516339E+03  0.00000000000E+00 0. -1.
         23    2    1    2    0    0  0.25849787109E+02 -0.10000507311E+03 -0.19305081031E+03  0.25215979988E+03  0.12508686251E+03 0.  0.
         23    2    1    2    0    0 -0.25849787109E+02  0.10000507311E+03 -0.48192356464E+03  0.50097615195E+03  0.89763893201E+02 0.  0.
          5    1    3    3  502    0 -0.28536134346E+01 -0.83488982967E+01 -0.14382013049E+03  0.14415113440E+03  0.41800000000E+01 0.  1.
         -5    1    3    3    0  502  0.28703400544E+02 -0.91656174812E+02 -0.49230679815E+02  0.10800866548E+03  0.41800000000E+01 0.  1.
        -11    1    4    4    0    0 -0.35530214130E+01 -0.17117818342E+02 -0.69477329594E+02  0.71643164318E+02  0.00000000000E+00 0. -1.
         11    1    4    4    0    0 -0.22296765696E+02  0.11712289145E+03 -0.41244623505E+03  0.42933298763E+03  0.00000000000E+00 0.  1.
</event>
<event>
 8    1  0.4798744E-006  0.1560670E+03  0.7561462E-02  0.1193210E+00
          1   -1    0    0  501    0  0.00000000000E+00  0.00000000000E+00  0.26232565325E+03  0.26232565325E+03  0.00000000000E+00 0. -1.
         -1   -1    0    0    0  501 -0.00000000000E+00 -0.00000000000E+00 -0.14003305132E+03  0.14003305132E+03  0.00000000000E+00 0.  1.
         23    2    1    2    0    0 -0.91820560390E+02 -0.73779385438E+02 -0.42371667040E+02  0.17696706418E+03  0.12509024986E+03 0.  0.
         23    2    1    2    0    0  0.91820560390E+02  0.73779385438E+02  0.16466426897E+03  0.22539164039E+03  0.99058856531E+02 0.  0.
          5    1    3    3  502    0  0.22675969895E+02 -0.35438912015E+02 -0.36749067240E+02  0.56018590114E+02  0.41800000000E+01 0. -1.
         -5    1    3    3    0  502 -0.11449653028E+03 -0.38340473423E+02 -0.56225998009E+01  0.12094847406E+03  0.41800000000E+01 0. -1.
        -11    1    4    4    0    0  0.22084237948E+01 -0.19536136855E+02  0.45220119794E+02  0.49309198058E+02  0.00000000000E+00 0.  1.
         11    1    4    4    0    0  0.89612136595E+02  0.93315522293E+02  0.11944414917E+03  0.17608244233E+03  0.00000000000E+00 0. -1.
</event>
<event>
 8    1  0.4798744E-006  0.8881712E+02  0.7561462E-02  0.1305742E+00
          1   -1    0    0  501    0  0.00000000000E+00  0.00000000000E+00  0.24262455772E+02  0.24262455772E+02  0.00000000000E+00 0. -1.
         -1   -1    0    0    0  501 -0.00000000000E+00 -0.00000000000E+00 -0.68154120283E+03  0.68154120283E+03  0.00000000000E+00 0.  1.
         23    2    1    2    0    0 -0.45030877886E+02 -0.34926140485E+02 -0.46503329367E+03  0.48492409091E+03  0.12509114466E+03 0.  0.
         23    2    1    2    0    0  0.45030877886E+02  0.34926140485E+02 -0.19224545338E+03  0.22087956769E+03  0.92638295657E+02 0.  0.
          5    1    3    3  502    0 -0.49687127801E+02 -0.37900533515E+02 -0.89010659015E+02  0.10883763562E+03  0.41800000000E+01 0. -1.
         -5    1    3    3    0  502  0.46562499149E+01  0.29743930300E+01 -0.37602263466E+03  0.37608645529E+03  0.41800000000E+01 0. -1.
        -11    1    4    4    0    0  0.32026474136E+02  0.66564094731E+02 -0.14250996987E+03  0.16051655761E+03  0.00000000000E+00 0.  1.
         11    1    4    4    0    0  0.13004403750E+02 -0.31637954246E+02 -0.49735483510E+02  0.60363010078E+02  0.00000000000E+00 0. -1.
</event>
<event>
 8    1  0.4798744E-006  0.1354436E+03  0.7561462E-02  0.1219595E+00
          1   -1    0    0  501    0  0.00000000000E+00  0.00000000000E+00  0.74265473090E+03  0.74265473090E+03  0.00000000000E+00 0. -1.
         -1   -1    0    0    0  501 -0.00000000000E+00 -0.00000000000E+00 -0.29409587544E+02  0.29409587544E+02  0.00000000000E+00 0.  1.
         23    2    1    2    0    0  0.89139620867E+02  0.23382179780E+02  0.28418920250E+03  0.32389002441E+03  0.12509455127E+03 0.  0.
         23    2    1    2    0    0 -0.89139620867E+02 -0.23382179780E+02  0.42905594086E+03  0.44817429403E+03  0.90986807323E+02 0.  0.
          5    1    3    3  502    0  0.37473083558E+02  0.67535563717E+02  0.20689749534E+03  0.22088306937E+03  0.41800000000E+01 0.  1.
         -5    1    3    3    0  502  0.51666537309E+02 -0.44153383936E+02  0.77291707157E+02  0.10300695504E+03  0.41800000000E+01 0.  1.
        -11    1    4    4    0    0 -0.24733138578E+02  0.32041659865E+02  0.19538720920E+03  0.19953585550E+03  0.00000000000E+00 0.  1.
         11    1    4    4    0    0 -0.64406482289E+02 -0.55423839645E+02  0.23366873166E+03  0.24863843853E+03  0.00000000000E+00 0. -1.
</event>
<event>
 8    1  0.4798744E-006  0.8370078E+02  0.7561462E-02  0.1318866E+00
          1   -1    0    0  501    0  0.00000000000E+00  0.00000000000E+00  0.44919641455E+02  0.44919641455E+02  0.00000000000E+00 0. -1.
         -1   -1    0    0    0  501 -0.00000000000E+00 -0.00000000000E+00 -0.56196085078E+03  0.56196085078E+03  0.00000000000E+00 0.  1.
         23    2    1    2    0    0 -0.62168025688E+02 -0.22313709589E+02 -0.46182879574E+03  0.48300665326E+03  0.12508727140E+03 0.  0.
         23    2    1    2    0    0  0.62168025688E+02  0.22313709589E+02 -0.55212413591E+02  0.12387383898E+03  0.89070490710E+02 0.  0.
          5    1    3    3  502    0  0.22440611007E+01 -0.15432380955E+02 -0.37108064854E+03  0.37143170881E+03  0.41800000000E+01 0. -1.
         -5    1    3    3    0  502 -0.64412086788E+02 -0.68813286345E+01 -0.90748147202E+02  0.11157494445E+03  0.41800000000E+01 0. -1.
        -11    1    4    4    0    0  0.30699125825E+01  0.26893122253E+02 -0.58550694614E+02  0.64504637257E+02  0.00000000000E+00 0.  1.
         11    1    4    4    0    0  0.59098113105E+02 -0.45794126641E+01  0.33382810233E+01  0.59369201722E+02  0.00000000000E+00 0. -1.
</event>
<event>
 8    1  0.4798744E-006  0.2722395E+03  0.7561462E-02  0.1100005E+00
          2   -1    0    0  501    0  0.00000000000E+00  0.00000000000E+00  0.79533349805E+03  0.79533349805E+03  0.00000000000E+00 0. -1.
         -2   -1    0    0    0  501 -0.00000000000E+00 -0.00000000000E+00 -0.12026672467E+03  0.12026672467E+03  0.00000000000E+00 0.  1.
         23    2    1    2    0    0 -0.13302528483E+03 -0.21783757627E+03  0.14235976493E+03  0.31790128932E+03  0.12508393599E+03 0.  0.
         23    2    1    2    0    0  0.13302528483E+03  0.21783757627E+03  0.53270700845E+03  0.59769893340E+03  0.91204835936E+02 0.  0.
          5    1    3    3  502    0 -0.90407396028E+02 -0.36089348013E+02  0.52527294299E+02  0.11069113489E+03  0.41800000000E+01 0.  1.
         -5    1    3    3    0  502 -0.42617888806E+02 -0.18174822826E+03  0.89832470631E+02  0.20721015444E+03  0.41800000000E+01 0.  1.
        -11    1    4    4    0    0  0.69204287709E+02  0.15944853362E+03  0.26995310146E+03  0.32107280374E+03  0.00000000000E+00 0.  1.
         11    1    4    4    0    0  0.63820997125E+02  0.58389042648E+02  0.26275390698E+03  0.27662612966E+03  0.00000000000E+00 0. -1.
</event>
<event>
 8    1  0.4798744E-006  0.1190992E+03  0.7561462E-02  0.1244591E+00
          2   -1    0    0  501    0  0.00000000000E+00  0.00000000000E+00  0.16533033421E+03  0.16533033421E+03  0.00000000000E+00 0. -1.
         -2   -1    0    0    0  501 -0.00000000000E+00 -0.00000000000E+00 -0.13773663924E+03  0.13773663924E+03  0.00000000000E+00 0.  1.
         23    2    1    2    0    0  0.98543569092E+02 -0.32524652108E+02  0.60852419572E+01  0.16264431930E+03  0.12508979345E+03 0.  0.
         23    2    1    2    0    0 -0.98543569092E+02  0.32524652108E+02  0.21508453017E+02  0.14042265415E+03  0.92126110537E+02 0.  0.
          5    1    3    3  502    0  0.38144773355E+02  0.84468514635E+01  0.60062189353E+02  0.71772641193E+02  0.41800000000E+01 0. -1.
         -5    1    3    3    0  502  0.60398795737E+02 -0.40971503572E+02 -0.53976947396E+02  0.90871678105E+02  0.41800000000E+01 0. -1.
        -11    1    4    4    0    0 -0.72119321135E+01  0.33700632895E+02 -0.20269413882E+02  0.39982418154E+02  0.00000000000E+00 0.  1.
         11    1    4    4    0    0 -0.91331636979E+02 -0.11759807867E+01  0.41777866898E+02  0.10044023599E+03  0.00000000000E+00 0. -1.
</event>
<event>
 8    1  0.4798744E-006  0.1100723E+03  0.7561462E-02  0.1260436E+00
          1   -1    0    0  501    0  0.00000000000E+00  0.00000000000E+00  0.70658365867E+03  0.70658365867E+03  0.00000000000E+00 0. -1.
         -1   -1    0    0    0  501 -0.00000000000E+00 -0.00000000000E+00 -0.19773636606E+02  0.19773636606E+02  0.00000000000E+00 0.  1.
         23    2    1    2    0    0 -0.30423285605E+02  0.35379454748E+02  0.38139399589E+03  0.40408830694E+03  0.12509475439E+03 0.  0.
         23    2    1    2    0    0  0.30423285605E+02 -0.35379454748E+02  0.30541602617E+03  0.32226898834E+03  0.91657349276E+02 0.  0.
          5    1    3    3  502    0 -0.62304473470E+02 -0.91598522399E+01  0.29524669758E+03  0.30191693417E+03  0.41800000000E+01 0. -1.
         -5    1    3    3    0  502  0.31881187865E+02  0.44539306988E+02  0.86147298309E+02  0.10217137276E+03  0.41800000000E+01 0. -1.
        -11    1    4    4    0    0  0.44011972231E+01  0.30734550018E+02  0.11167009120E+03  0.11590596348E+03  0.00000000000E+00 0.  1.
         11    1    4    4    0    0  0.26022088382E+02 -0.66114004766E+02  0.19374593497E+03  0.20636302486E+03  0.00000000000E+00 0. -1.
</event>
<event>
 8    1  0.4798744E-006  0.2052921E+03  0.7561462E-02  0.1145349E+00
          2   -1    0    0  501    0  0.00000000000E+00  0.00000000000E+00  0.11041389015E+03  0.11041389015E+03  0.00000000000E+00 0. -1.
         -2   -1    0    0    0  501 -0.00000000000E+00 -0.00000000000E+00 -0.76029736196E+03  0.76029736196E+03  0.00000000000E+00 0.  1.
         23    2    1    2    0    0 -0.26535489913E+02 -0.18265358012E+03 -0.62677866103E+03  0.66351181678E+03  0.11545552624E+03 0.  0.
         23    2    1    2    0    0  0.26535489913E+02  0.18265358012E+03 -0.23104810782E+02  0.20719943533E+03  0.91276016366E+02 0.  0.
          5    1    3    3  502    0  0.13519133156E+02  0.66139270084E+01 -0.14245237520E+02  0.21140250324E+02  0.41800000000E+01 0. -1.
         -5    1    3    3    0  502 -0.40054623070E+02 -0.18926750713E+03 -0.61253342351E+03  0.64237156646E+03  0.41800000000E+01 0.  1.
        -11    1    4    4    0    0 -0.29084562678E+02  0.70776189822E+02 -0.29709789218E+02  0.82084422440E+02  0.00000000000E+00 0.  1.
         11    1    4    4    0    0  0.55620052591E+02  0.11187739030E+03  0.66049784362E+01  0.12511501289E+03  0.00000000000E+00 0. -1.
</event>
<event>
 8    1  0.4798744E-006  0.1160422E+03  0.7561462E-02  0.1249773E+00
         -2   -1    0    0    0  501 -0.00000000000E+00  0.00000000000E+00  0.39420563978E+02  0.39420563978E+02  0.00000000000E+00 0.  1.
          2   -1    0    0  501    0  0.00000000000E+00 -0.00000000000E+00 -0.58410423070E+03  0.58410423070E+03  0.00000000000E+00 0. -1.
         23    2    1    2    0    0 -0.78124847235E+01 -0.99209319173E+02 -0.21732333529E+03  0.26977886459E+03  0.12509068626E+03 0.  0.
         23    2    1    2    0    0  0.78124847235E+01  0.99209319173E+02 -0.32736033143E+03  0.35374593009E+03  0.89821336734E+02 0.  0.
          5    1    3    3  502    0  0.68070787715E+00 -0.99461161408E+02 -0.23191790544E+03  0.25238140434E+03  0.41800000000E+01 0. -1.
         -5    1    3    3    0  502 -0.84931926007E+01  0.25184223484E+00  0.14594570153E+02  0.17397460246E+02  0.41800000000E+01 0. -1.
        -11    1    4    4    0    0  0.37669253820E+02  0.77431849424E+02 -0.15351080368E+03  0.17601201900E+03  0.00000000000E+00 0. -1.
         11    1    4    4    0    0 -0.29856769097E+02  0.21777469749E+02 -0.17384952775E+03  0.17773391108E+03  0.00000000000E+00 0.  1.
</event>
<event>
 8    1  0.4798744E-006  0.1057487E+03  0.7561462E-02  0.1268652E+00
         -2   -1    0    0    0  501 -0.00000000000E+00  0.00000000000E+00  0.33305044885E+03  0.33305044885E+03  0.00000000000E+00 0.  1.
          2   -1    0    0  501    0  0.00000000000E+00 -0.00000000000E+00 -0.46970118783E+02  0.46970118783E+02  0.00000000000E+00 0. -1.
         23    2    1    2    0    0  0.33505251310E+02  0.43123986081E+02  0.21143034275E+03  0.25165857358E+03  0.12508784028E+03 0.  0.
         23    2    1    2    0    0 -0.33505251310E+02 -0.43123986081E+02  0.74649987317E+02  0.12836199404E+03  0.89005060910E+02 0.  0.
          5    1    3    3  502    0  0.12202781518E+02  0.74541239272E+02  0.19666983435E+03  0.21071734711E+03  0.41800000000E+01 0. -1.
         -5    1    3    3    0  502  0.21302469792E+02 -0.31417253191E+02  0.14760508393E+02  0.40941226476E+02  0.41800000000E+01 0. -1.
        -11    1    4    4    0    0 -0.46524163425E+02  0.59370630088E+01  0.58741194578E+02  0.75168307418E+02  0.00000000000E+00 0.  1.
         11    1    4    4    0    0  0.13018912115E+02 -0.49061049090E+02  0.15908792739E+02  0.53193686626E+02  0.00000000000E+00 0. -1.
</event>
<event>
 8    1  0.4798744E-006  0.1183972E+03  0.7561462E-02  0.1245765E+00
          2   -1    0    0  501    0  0.00000000000E+00  0.00000000000E+00  0.74915383499E+03  0.74915383499E+03  0.00000000000E+00 0. -1.
         -2   -1    0    0    0  501 -0.00000000000E+00 -0.00000000000E+00 -0.32931035955E+02  0.32931035955E+02  0.00000000000E+00 0.  1.
         23    2    1    2    0    0 -0.57783926046E+02 -0.85338075873E+02  0.26908189433E+03  0.31416906992E+03  0.12520211394E+03 0.  0.
         23    2    1    2    0    0  0.57783926046E+02  0.85338075873E+02  0.44714090471E+03  0.46791580103E+03  0.91589512952E+02 0.  0.
          5    1    3    3  502    0 -0.54464739510E+02 -0.70926515815E+02  0.67796622943E+02  0.11229796515E+03  0.41800000000E+01 0.  1.
         -5    1    3    3    0  502 -0.33191865364E+01 -0.14411560058E+02  0.20128527138E+03  0.20187110476E+03  0.41800000000E+01 0.  1.
        -11    1    4    4    0    0  0.19260266939E+02  0.90954919336E+02  0.37007565482E+03  0.38157534711E+03  0.00000000000E+00 0.  1.
         11    1    4    4    0    0  0.38523659107E+02 -0.56168434624E+01  0.77065249888E+02  0.86340453912E+02  0.00000000000E+00 0. -1.
</event>
<event>
 7    1  0.4798744E-006  0.9548520E+02  0.7561462E-02  0.1290087E+00
          1   -1    0    0  501    0  0.00000000000E+00  0.00000000000E+00  0.62333880692E+03  0.62333880692E+03  0.00000000000E+00 0. -1.
         -1   -1    0    0    0  501 -0.00000000000E+00 -0.00000000000E+00 -0.34767277502E+02  0.34767277502E+02  0.00000000000E+00 0.  1.
         23    2    1    2    0    0 -0.32411579840E+02 -0.66565902847E+02  0.36579056960E+03  0.38396166589E+03  0.90234639348E+02 0.  0.
          5    1    1    2  502    0  0.42026374834E+02  0.56270954581E+02  0.24081491041E+03  0.25088230306E+03  0.41800000000E+01 0. -1.
         -5    1    1    2    0  502 -0.96147949938E+01  0.10294948266E+02 -0.18033950588E+02  0.23262115476E+02  0.41800000000E+01 0.  1.
        -11    1    3    3    0    0  0.13094714178E+02 -0.58194875568E+02  0.12179420210E+03  0.13561689698E+03  0.00000000000E+00 0.  1.
         11    1    3    3    0    0 -0.45506294018E+02 -0.83710272791E+01  0.24399636750E+03  0.24834476891E+03  0.00000000000E+00 0. -1.
</event>
<event>
 8    1  0.4798744E-006  0.1199197E+03  0.7561462E-02  0.1243230E+00
          1   -1    0    0  501    0  0.00000000000E+00  0.00000000000E+00  0.13772876517E+03  0.13772876517E+03  0.00000000000E+00 0. -1.
         -1   -1    0    0    0  501 -0.00000000000E+00 -0.00000000000E+00 -0.14378412403E+03  0.14378412403E+03  0.00000000000E+00 0.  1.
         23    2    1    2    0    0 -0.18097845505E+02 -0.83679935141E+02 -0.25155429740E+02  0.15365728689E+03  0.12509157690E+03 0.  0.
         23    2    1    2    0    0  0.18097845505E+02  0.83679935141E+02  0.19100070880E+02  0.12785560230E+03  0.93018163688E+02 0.  0.
          5    1    3    3  502    0 -0.49552767691E+02 -0.46394738960E+02 -0.62276451030E+02  0.92215927810E+02  0.41800000000E+01 0. -1.
         -5    1    3    3    0  502  0.31454922185E+02 -0.37285196181E+02  0.37121021290E+02  0.61441359080E+02  0.41800000000E+01 0. -1.
        -11    1    4    4    0    0  0.37680650004E+01  0.10061457868E+03  0.35188601829E+01  0.10074658373E+03  0.00000000000E+00 0.  1.
         11    1    4    4    0    0  0.14329780505E+02 -0.16934643539E+02  0.15581210697E+02  0.27109018572E+02  0.00000000000E+00 0. -1.
</event>
<event>
 8    1  0.4798744E-006  0.1082236E+03  0.7561462E-02  0.1263895E+00
         -1   -1    0    0    0  501 -0.00000000000E+00  0.00000000000E+00  0.40647087088E+02  0.40647087088E+02  0.00000000000E+00 0.  1.
          1   -1    0    0  501    0  0.00000000000E+00 -0.00000000000E+00 -0.36877382456E+03  0.36877382456E+03  0.00000000000E+00 0. -1.
         23    2    1    2    0    0  0.30848357281E+02  0.32385048400E+02 -0.12655451139E+03  0.18347851069E+03  0.12509159455E+03 0.  0.
         23    2    1    2    0    0 -0.30848357281E+02 -0.32385048400E+02 -0.20157222609E+03  0.22594240096E+03  0.91750715060E+02 0.  0.
          5    1    3    3  502    0 -0.20193157240E+02 -0.33831089150E+02 -0.11616292173E+02  0.41288216675E+02  0.41800000000E+01 0.  1.
         -5    1    3    3    0  502  0.51041514521E+02  0.66216137549E+02 -0.11493821921E+03  0.14219029402E+03  0.41800000000E+01 0.  1.
        -11    1    4    4    0    0 -0.23838303737E+02  0.25443104946E+02 -0.12476069516E+03  0.12954091002E+03  0.00000000000E+00 0. -1.
         11    1    4    4    0    0 -0.70100535447E+01 -0.57828153345E+02 -0.76811530931E+02  0.96401490933E+02  0.00000000000E+00 0.  1.
</event>
<event>
 7    1  0.4798744E-006  0.1721359E+03  0.7561462E-02  0.1175639E+00
          4   -1    0    0  501    0  0.00000000000E+00  0.00000000000E+00  0.68515436672E+02  0.68515436672E+02  0.00000000000E+00 0. -1.
         -4   -1    0    0    0  501 -0.00000000000E+00 -0.00000000000E+00 -0.51624439444E+03  0.51624439444E+03  0.00000000000E+00 0.  1.
         23    2    1    2    0    0  0.58418673612E+02  0.13236415055E+03 -0.26135956924E+03  0.30428285985E+03  0.57846560705E+02 0.  0.
          5    1    1    2  502    0 -0.85418358966E+02 -0.41161384434E+02 -0.34016646262E+02  0.10082241933E+03  0.41800000000E+01 0. -1.
         -5    1    1    2    0  502  0.26999685354E+02 -0.91202766113E+02 -0.15235274227E+03  0.17965455194E+03  0.41800000000E+01 0.  1.
        -11    1    3    3    0    0  0.68101516887E+02  0.12347202401E+03 -0.24944154350E+03  0.28653837603E+03  0.00000000000E+00 0.  1.
         11    1    3    3    0    0 -0.96828432746E+01  0.88921265404E+01 -0.11918025739E+02  0.17744483813E+02  0.00000000000E+00 0. -1.
</event>
<event>
 8    1  0.4798744E-006  0.1719388E+03  0.7561462E-02  0.1175841E+00
          1   -1    0    0  501    0  0.00000000000E+00  0.00000000000E+00  0.67982732849E+03  0.67982732849E+03  0.00000000000E+00 0. -1.
         -1   -1    0    0    0  501 -0.00000000000E+00 -0.00000000000E+00 -0.59757448755E+02  0.59757448755E+02  0.00000000000E+00 0.  1.
         23    2    1    2    0    0  0.73169624790E+02  0.14244709420E+03  0.42488971125E+03  0.47098182881E+03  0.12509055802E+03 0.  0.
         23    2    1    2    0    0 -0.73169624790E+02 -0.14244709420E+03  0.19518016848E+03  0.26860294843E+03  0.91691205135E+02 0.  0.
          5    1    3    3  502    0  0.68756262961E+02  0.11429583106E+03  0.42133482446E+03  0.44196319688E+03  0.41800000000E+01 0.  1.
         -5    1    3    3    0  502  0.44133618283E+01  0.28151263141E+02  0.35548867917E+01  0.29018631932E+02  0.41800000000E+01 0.  1.
        -11    1    4    4    0    0  0.19678453313E+02 -0.21374884299E+02  0.15664261321E+02  0.33007518633E+02  0.00000000000E+00 0.  1.
         11    1    4    4    0    0 -0.92848078102E+02 -0.12107220990E+03  0.17951590716E+03  0.23559542980E+03  0.00000000000E+00 0. -1.
</event>
<event>
 7    1  0.4798744E-006  0.1216018E+03  0.7561462E-02  0.1240478E+00
          1   -1    0    0  501    0  0.00000000000E+00  0.00000000000E+00  0.13811423922E+03  0.13811423922E+03  0.00000000000E+00 0. -1.
         -1   -1    0    0    0  501 -0.00000000000E+00 -0.00000000000E+00 -0.17170997641E+03  0.17170997641E+03  0.00000000000E+00 0.  1.
         23    2    1    2    0    0 -0.22742641316E+02 -0.21923738592E+02  0.72268019456E+02  0.12059452520E+03  0.91227708646E+02 0.  0.
          5    1    1    2  502    0 -0.44191034643E+02  0.63770685222E+02 -0.55835503201E+02  0.95679797524E+02  0.41800000000E+01 0. -1.
         -5    1    1    2    0  502  0.66933675959E+02 -0.41846946630E+02 -0.50028253445E+02  0.93549892904E+02  0.41800000000E+01 0.  1.
        -11    1    3    3    0    0  0.29686870392E+02 -0.15511267151E+00  0.13017189215E+01  0.29715800608E+02  0.00000000000E+00 0.  1.
         11    1    3    3    0    0 -0.52429511708E+02 -0.21768625920E+02  0.70966300534E+02  0.90878724594E+02  0.00000000000E+00 0. -1.
</event>
<event>
 8    1  0.4798744E-006  0.1300788E+03  0.7561462E-02  0.1227339E+00
          2   -1    0    0  501    0  0.00000000000E+00  0.00000000000E+00  0.21856520970E+03  0.21856520970E+03  0.00000000000E+00 0. -1.
         -2   -1    0    0    0  501 -0.00000000000E+00 -0.00000000000E+00 -0.10755017633E+03  0.10755017633E+03  0.00000000000E+00 0.  1.
         23    2    1    2    0    0  0.69089709008E+02  0.28808588334E+02 -0.24387329897E+02  0.14781323196E+03  0.12510270593E+03 0.  0.
         23    2    1    2    0    0 -0.69089709008E+02 -0.28808588334E+02  0.13540236327E+03  0.17830215406E+03  0.88625817415E+02 0.  0.
          5    1    3    3  502    0  0.33019363682E+01  0.68224765542E+02 -0.17894990119E+02  0.70733475020E+02  0.41800000000E+01 0.  1.
         -5    1    3    3    0  502  0.65787772640E+02 -0.39416177208E+02 -0.64923397781E+01  0.77079756943E+02  0.41800000000E+01 0.  1.
        -11    1    4    4    0    0 -0.71960052530E+02 -0.53746873949E+02  0.94999640524E+02  0.13073602151E+03  0.00000000000E+00 0.  1.
         11    1    4    4    0    0  0.28703435218E+01  0.24938285615E+02  0.40402722745E+02  0.47566132559E+02  0.00000000000E+00 0. -1.
</event>
<event>
 8    1  0.4798744E-006  0.7251763E+02  0.7561462E-02  0.1351735E+00
         -1   -1    0    0    0  501 -0.00000000000E+00  0.00000000000E+00  0.35002251991E+03  0.35002251991E+03  0.00000000000E+00 0.  1.
          1   -1    0    0  501    0  0.00000000000E+00 -0.00000000000E+00 -0.80059201282E+02  0.80059201282E+02  0.00000000000E+00 0. -1.
         23    2    1    2    0    0  0.24526183864E+02  0.40632326005E+00  0.30398329272E+03  0.32962927963E+03  0.12509165019E+03 0.  0.
         23    2    1    2    0    0 -0.24526183864E+02 -0.40632326005E+00 -0.34019974093E+02  0.10045244155E+03  0.91277793483E+02 0.  0.
          5    1    3    3  502    0 -0.12246833015E+02  0.35321263923E+01  0.28942613957E+03  0.28973681765E+03  0.41800000000E+01 0. -1.
         -5    1    3    3    0  502  0.36773016879E+02 -0.31258031323E+01  0.14557153150E+02  0.39892461988E+02  0.41800000000E+01 0. -1.
        -11    1    4    4    0    0 -0.51192919309E+02  0.25595055450E+02 -0.19240695680E+02  0.60382333684E+02  0.00000000000E+00 0.  1.
         11    1    4    4    0    0  0.26666735445E+02 -0.26001378711E+02 -0.14779278413E+02  0.40070107868E+02  0.00000000000E+00 0. -1.
</event>
<event>
 8    1  0.4798744E-006  0.1956981E+03  0.7561462E-02  0.1153420E+00
          2   -1    0    0  501    0  0.00000000000E+00  0.00000000000E+00  0.32366726607E+03  0.32366726607E+03  0.00000000000E+00 0. -1.
         -2   -1    0    0    0  501 -0.00000000000E+00 -0.00000000000E+00 -0.21206087061E+03  0.21206087061E+03  0.00000000000E+00 0.  1.
         23    2    1    2    0    0 -0.16338601200E+03 -0.29437932474E+02 -0.11743245033E+03  0.23874726718E+03  0.12509315093E+03 0.  0.
         23    2    1    2    0    0  0.16338601200E+03  0.29437932474E+02  0.22903884578E+03  0.29698086951E+03  0.90428221201E+02 0.  0.
          5    1    3    3  502    0  0.63817349192E+01 -0.33884582817E+02 -0.37140832984E+02  0.50850814822E+02  0.41800000000E+01 0.  1.
         -5    1    3    3    0  502 -0.16976774692E+03  0.44466503435E+01 -0.80291617341E+02  0.18789645236E+03  0.41800000000E+01 0.  1.
        -11    1    4    4    0    0  0.75082313526E+02 -0.29445980554E+02  0.76576602426E+02  0.11121328884E+03  0.00000000000E+00 0.  1.
         11    1    4    4    0    0  0.88303698472E+02  0.58883913027E+02  0.15246224336E+03  0.18576758067E+03  0.00000000000E+00 0. -1.
</event>
<event>
 8    1  0.4798744E-006  0.9638447E+02  0.7561462E-02  0.1288088E+00
          2   -1    0    0  501    0  0.00000000000E+00  0.00000000000E+00  0.28043817627E+03  0.28043817627E+03  0.00000000000E+00 0.  1.
         -2   -1    0    0    0  501 -0.00000000000E+00 -0.00000000000E+00 -0.70424795887E+02  0.70424795887E+02  0.00000000000E+00 0. -1.
         23    2    1    2    0    0 -0.80387586329E+01 -0.38643782102E+02  0.14792286925E+02  0.13195295633E+03  0.12503922343E+03 0.  0.
         23    2    1    2    0    0  0.80387586329E+01  0.38643782102E+02  0.19522109346E+03  0.21891001583E+03  0.90842479954E+02 0.  0.
          5    1    3    3  502    0  0.29984843015E+02  0.17624832288E+02 -0.33536084707E+02  0.48496050368E+02  0.41800000000E+01 0. -1.
         -5    1    3    3    0  502 -0.38023601648E+02 -0.56268614390E+02  0.48328371632E+02  0.83456905959E+02  0.41800000000E+01 0. -1.
        -11    1    4    4    0    0 -0.34145149130E+02  0.26554689199E+01  0.12403497251E+03  0.12867640471E+03  0.00000000000E+00 0. -1.
         11    1    4    4    0    0  0.42183907763E+02  0.35988313182E+02  0.71186120956E+02  0.90233611125E+02  0.00000000000E+00 0.  1.
</event>
<event>
 8    1  0.4798744E-006  0.8523882E+02  0.7561462E-02  0.1314809E+00
          1   -1    0    0  501    0  0.00000000000E+00  0.00000000000E+00  0.34082006208E+03  0.34082006208E+03  0.00000000000E+00 0. -1.
         -1   -1    0    0    0  501 -0.00000000000E+00 -0.00000000000E+00 -0.23017039867E+03  0.23017039867E+03  0.00000000000E+00 0.  1.
         23    2    1    2    0    0  0.11806353917E+02  0.47255341057E+01 -0.20673330459E+03  0.24058198336E+03  0.12238999479E+03 0.  0.
         23    2    1    2    0    0 -0.11806353917E+02 -0.47255341057E+01  0.31738296800E+03  0.33040847739E+03  0.90973033888E+02 0.  0.
          5    1    3    3  502    0  0.11329842547E+02 -0.38674887366E+02 -0.13829809739E+02  0.42811777379E+02  0.41800000000E+01 0. -1.
         -5    1    3    3    0  502  0.47651137030E+00  0.43400421472E+02 -0.19290349485E+03  0.19777020598E+03  0.41800000000E+01 0.  1.
        -11    1    4    4    0    0  0.33487017841E+01 -0.44068933102E+02  0.10570191792E+03  0.11456954273E+03  0.00000000000E+00 0. -1.
         11    1    4    4    0    0 -0.15155055702E+02  0.39343398996E+02  0.21168105008E+03  0.21583893467E+03  0.00000000000E+00 0.  1.
</event>
<event>
 8    1  0.4798744E-006  0.1799530E+03  0.7561462E-02  0.1167849E+00
          1   -1    0    0  501    0  0.00000000000E+00  0.00000000000E+00  0.53387911145E+02  0.53387911145E+02  0.00000000000E+00 0. -1.
         -1   -1    0    0    0  501 -0.00000000000E+00 -0.00000000000E+00 -0.68485688034E+03  0.68485688034E+03  0.00000000000E+00 0.  1.
         23    2    1    2    0    0  0.83726155426E+02 -0.12606552640E+03 -0.40714121338E+03  0.45201073990E+03  0.12508858983E+03 0.  0.
         23    2    1    2    0    0 -0.83726155426E+02  0.12606552640E+03 -0.22432775581E+03  0.28623405158E+03  0.93297396563E+02 0.  0.
          5    1    3    3  502    0  0.10557938688E+03 -0.12845268547E+03 -0.38946470906E+03  0.42349419281E+03  0.41800000000E+01 0.  1.
         -5    1    3    3    0  502 -0.21853231454E+02  0.23871590621E+01 -0.17676504322E+02  0.28516547098E+02  0.41800000000E+01 0.  1.
        -11    1    4    4    0    0 -0.45183881089E+01  0.78870954848E+02 -0.14261659195E+03  0.16303538159E+03  0.00000000000E+00 0.  1.
         11    1    4    4    0    0 -0.79207767317E+02  0.47194571555E+02 -0.81711163855E+02  0.12319866999E+03  0.00000000000E+00 0. -1.
</event>
<event>
 8    1  0.1459076E-005  0.2915736E+03  0.7561462E-02  0.1089530E+00
          2   -1    0    0  501    0  0.00000000000E+00  0.00000000000E+00  0.22482968844E+04  0.22482968844E+04  0.00000000000E+00 0. -1.
         -2   -1    0    0    0  501 -0.00000000000E+00 -0.00000000000E+00 -0.40890313030E+02  0.40890313030E+02  0.00000000000E+00 0.  1.
         23    2    1    2    0    0  0.68641113134E+02  0.27285626455E+03  0.12518375268E+04  0.12891498175E+04  0.12509162689E+03 0.  0.
         23    2    1    2    0    0 -0.68641113134E+02 -0.27285626455E+03  0.95556904464E+03  0.10000373799E+04  0.88319978848E+02 0.  0.
          5    1    3    3  502    0  0.57714249978E+02  0.72595264766E+02  0.23420028402E+03  0.25192906253E+03  0.41800000000E+01 0. -1.
         -5    1    3    3    0  502  0.10926863156E+02  0.20026099979E+03  0.10176372428E+04  0.10372207550E+04  0.41800000000E+01 0. -1.
        -11    1    4    4    0    0 -0.61608447005E+02 -0.10525302389E+03  0.49711855971E+03  0.51186000253E+03  0.00000000000E+00 0.  1.
         11    1    4    4    0    0 -0.70326661282E+01 -0.16760324066E+03  0.45845048493E+03  0.48817737740E+03  0.00000000000E+00 0. -1.
</event>
<event>
 8    1  0.4798744E-006  0.1096955E+03  0.7561462E-02  0.1261135E+00
          2   -1    0    0  501    0  0.00000000000E+00  0.00000000000E+00  0.32091970813E+03  0.32091970813E+03  0.00000000000E+00 0.  1.
         -2   -1    0    0    0  501 -0.00000000000E+00 -0.00000000000E+00 -0.43626457868E+02  0.43626457868E+02  0.00000000000E+00 0. -1.
         23    2    1    2    0    0 -0.36268201093E+02  0.17493863554E+02  0.11856707152E+03  0.17699427696E+03  0.12508959172E+03 0.  0.
         23    2    1    2    0    0  0.36268201093E+02 -0.17493863554E+02  0.15872617874E+03  0.18755188904E+03  0.91434641084E+02 0.  0.
          5    1    3    3  502    0 -0.32201931865E+02  0.64452016941E+02  0.10564482469E+03  0.12794267578E+03  0.41800000000E+01 0.  1.
         -5    1    3    3    0  502 -0.40662692287E+01 -0.46958153386E+02  0.12922246832E+02  0.49051601178E+02  0.41800000000E+01 0.  1.
        -11    1    4    4    0    0  0.34795822777E+02 -0.53525015428E+02  0.10041998264E+03  0.11899516575E+03  0.00000000000E+00 0.  1.
         11    1    4    4    0    0  0.14723783163E+01  0.36031151874E+02  0.58306196105E+02  0.68556723284E+02  0.00000000000E+00 0. -1.
</event>
<event>
 8    1  0.4798744E-006  0.1214881E+03  0.7561462E-02  0.1240662E+00
          1   -1    0    0  501    0  0.00000000000E+00  0.00000000000E+00  0.17043852965E+03  0.17043852965E+03  0.00000000000E+00 0. -1.
         -1   -1    0    0    0  501 -0.00000000000E+00 -0.00000000000E+00 -0.12092847669E+03  0.12092847669E+03  0.00000000000E+00 0.  1.
         23    2    1    2    0    0 -0.68422191925E+02 -0.63998846554E+02  0.34373443138E+02  0.16002189518E+03  0.12509206464E+03 0.  0.
         23    2    1    2    0    0  0.68422191925E+02  0.63998846554E+02  0.15136609814E+02  0.13134511116E+03  0.90801831264E+02 0.  0.
          5    1    3    3  502    0  0.21304355732E+02 -0.18194079971E+02  0.50509688726E+02  0.57910285566E+02  0.41800000000E+01 0. -1.
         -5    1    3    3    0  502 -0.89726547656E+02 -0.45804766583E+02 -0.16136245588E+02  0.10211160961E+03  0.41800000000E+01 0. -1.
        -11    1    4    4    0    0  0.45413948413E+02  0.75494456418E+02 -0.17468637887E+02  0.89816440422E+02  0.00000000000E+00 0.  1.
         11    1    4    4    0    0  0.23008243512E+02 -0.11495609865E+02  0.32605247701E+02  0.41528670738E+02  0.00000000000E+00 0. -1.
</event>
<event>
 8    1  0.4798744E-006  0.1012314E+03  0.7561462E-02  0.1277728E+00
         -1   -1    0    0    0  501 -0.00000000000E+00  0.00000000000E+00  0.83244930442E+02  0.83244930442E+02  0.00000000000E+00 0.  1.
          1   -1    0    0  501    0  0.00000000000E+00 -0.00000000000E+00 -0.32697189079E+03  0.32697189079E+03  0.00000000000E+00 0. -1.
         23    2    1    2    0    0  0.21758718383E+02 -0.32552843469E+02  0.15857698312E+02  0.13202451359E+03  0.12508347672E+03 0.  0.
         23    2    1    2    0    0 -0.21758718383E+02  0.32552843469E+02 -0.25958465866E+03  0.27819230764E+03  0.92052352371E+02 0.  0.
          5    1    3    3  502    0  0.13652640888E+02 -0.76002725483E+02 -0.13907950612E+02  0.78572974834E+02  0.41800000000E+01 0.  1.
         -5    1    3    3    0  502  0.81060774952E+01  0.43449882013E+02  0.29765648924E+02  0.53451538754E+02  0.41800000000E+01 0.  1.
        -11    1    4    4    0    0 -0.43836577256E+02  0.37977263581E+02 -0.24357841438E+03  0.25038842227E+03  0.00000000000E+00 0. -1.
         11    1    4    4    0    0  0.22077858873E+02 -0.54244201118E+01 -0.16006244279E+02  0.27803885374E+02  0.00000000000E+00 0.  1.
</event>
<event>
 8    1  0.4798744E-006  0.1179069E+03  0.7561462E-02  0.1246590E+00
          1   -1    0    0  501    0  0.00000000000E+00  0.00000000000E+00  0.81441213083E+02  0.81441213083E+02  0.00000000000E+00 0. -1.
         -1   -1    0    0    0  501 -0.00000000000E+00 -0.00000000000E+00 -0.20149170560E+03  0.20149170560E+03  0.00000000000E+00 0.  1.
         23    2    1    2    0    0  0.33535771828E+02 -0.50028907031E+02 -0.11488753432E+03  0.18020784020E+03  0.12509268803E+03 0.  0.
         23    2    1    2    0    0 -0.33535771828E+02  0.50028907031E+02 -0.51629581954E+01  0.10272507848E+03  0.83055680599E+02 0.  0.
          5    1    3    3  502    0 -0.43076110582E+02 -0.41974527198E+02 -0.63206636876E+02  0.87349662744E+02  0.41800000000E+01 0.  1.
         -5    1    3    3    0  502  0.76611882409E+02 -0.80543798333E+01 -0.51680897443E+02  0.92858177460E+02  0.41800000000E+01 0.  1.
        -11    1    4    4    0    0  0.87361966529E+01 -0.17010324266E+02 -0.12941876297E+02  0.23090353520E+02  0.00000000000E+00 0.  1.
         11    1    4    4    0    0 -0.42271968480E+02  0.67039231297E+02  0.77789181011E+01  0.79634724957E+02  0.00000000000E+00 0. -1.
</event>
<event>
 8    1  0.4798744E-006  0.1305236E+03  0.7561462E-02  0.1226681E+00
         -3   -1    0    0    0  501 -0.00000000000E+00  0.00000000000E+00  0.90745200518E+03  0.90745200518E+03  0.00000000000E+00 0.  1.
          3   -1    0    0  501    0  0.00000000000E+00 -0.00000000000E+00 -0.19202014637E+03  0.19202014637E+03  0.00000000000E+00 0. -1.
         23    2    1    2    0    0 -0.88237236880E+02 -0.86991958728E+02  0.86624521192E+03  0.88395786763E+03  0.12508930295E+03 0.  0.
         23    2    1    2    0    0  0.88237236880E+02  0.86991958728E+02 -0.15081335310E+03  0.21551428392E+03  0.91369186514E+02 0.  0.
          5    1    3    3  502    0 -0.22592603304E+02 -0.29870600235E+02  0.47702006717E+02  0.60791712653E+02  0.41800000000E+01 0.  1.
         -5    1    3    3    0  502 -0.65644633576E+02 -0.57121358493E+02  0.81854320520E+03  0.82316615498E+03  0.41800000000E+01 0.  1.
        -11    1    4    4    0    0  0.21584112165E+02  0.60993902878E+02 -0.22312761721E+02  0.68439677248E+02  0.00000000000E+00 0.  1.
         11    1    4    4    0    0  0.66653124716E+02  0.25998055850E+02 -0.12850059138E+03  0.14707460667E+03  0.00000000000E+00 0. -1.
</event>
<event>
 8    1  0.4798744E-006  0.1147170E+03  0.7561462E-02  0.1252076E+00
          2   -1    0    0  501    0  0.00000000000E+00  0.00000000000E+00  0.43094413541E+03  0.43094413541E+03  0.00000000000E+00 0.  1.
         -2   -1    0    0    0  501 -0.00000000000E+00 -0.00000000000E+00 -0.46425626494E+02  0.46425626494E+02  0.00000000000E+00 0. -1.
         23    2    1    2    0    0  0.92999713731E+02  0.12992484156E+02  0.16948670460E+03  0.23063136767E+03  0.12508930138E+03 0.  0.
         23    2    1    2    0    0 -0.92999713731E+02 -0.12992484156E+02  0.21503180432E+03  0.24673839424E+03  0.76311250296E+02 0.  0.
          5    1    3    3  502    0 -0.62563084201E+01  0.15937078420E+02  0.11683869612E+03  0.11816042135E+03  0.41800000000E+01 0. -1.
         -5    1    3    3    0  502  0.99256022151E+02 -0.29445942637E+01  0.52648008476E+02  0.11247094632E+03  0.41800000000E+01 0. -1.
        -11    1    4    4    0    0 -0.13376689238E+02 -0.28335811528E+02  0.10802974654E+03  0.11248235492E+03  0.00000000000E+00 0.  1.
         11    1    4    4    0    0 -0.79623024493E+02  0.15343327372E+02  0.10700205778E+03  0.13425603932E+03  0.00000000000E+00 0. -1.
</event>
<event>
 8    1  0.4798744E-006  0.1063506E+03  0.7561462E-02  0.1267481E+00
         -2   -1    0    0    0  501 -0.00000000000E+00  0.00000000000E+00  0.19847491411E+03  0.19847491411E+03  0.00000000000E+00 0.  1.
          2   -1    0    0  501    0  0.00000000000E+00 -0.00000000000E+00 -0.68635992156E+02  0.68635992156E+02  0.00000000000E+00 0. -1.
         23    2    1    2    0    0 -0.32682338528E+02 -0.65581179832E+00  0.53593706354E+02  0.13996907962E+03  0.12510192863E+03 0.  0.
         23    2    1    2    0    0  0.32682338528E+02  0.65581179832E+00  0.76245215600E+02  0.12714182665E+03  0.96349083235E+02 0.  0.
          5    1    3    3  502    0 -0.76009077766E+02  0.59634747825E+01  0.57762197713E+02  0.95743860477E+02  0.41800000000E+01 0. -1.
         -5    1    3    3    0  502  0.43326739238E+02 -0.66192865808E+01 -0.41684913598E+01  0.44225219141E+02  0.41800000000E+01 0. -1.
        -11    1    4    4    0    0  0.60258515842E+02  0.13721128294E+02  0.74189471243E+02  0.96557939790E+02  0.00000000000E+00 0.  1.
         11    1    4    4    0    0 -0.27576177314E+02 -0.13065316495E+02  0.20557443571E+01  0.30583886856E+02  0.00000000000E+00 0. -1.
</event>
<event>
 8    1  0.4798744E-006  0.4103860E+03  0.7561462E-02  0.1040242E+00
          1   -1    0    0  501    0  0.00000000000E+00  0.00000000000E+00  0.35575197378E+03  0.35575197378E+03  0.00000000000E+00 0. -1.
         -1   -1    0    0    0  501 -0.00000000000E+00 -0.00000000000E+00 -0.51361886564E+03  0.51361886564E+03  0.00000000000E+00 0.  1.
         23    2    1    2    0    0  0.36670236379E+03  0.17640413315E+03 -0.15451278938E+03  0.45288875303E+03  0.12507988944E+03 0.  0.
         23    2    1    2    0    0 -0.36670236379E+03 -0.17640413315E+03 -0.33541024769E+01  0.41648208639E+03  0.88639925991E+02 0.  0.
          5    1    3    3  502    0  0.92482321746E+02  0.52970676358E+02  0.14917626962E+02  0.10769809833E+03  0.41800000000E+01 0. -1.
         -5    1    3    3    0  502  0.27422004204E+03  0.12343345679E+03 -0.16943041634E+03  0.34519065470E+03  0.41800000000E+01 0. -1.
        -11    1    4    4    0    0 -0.67680151609E+02 -0.66217472526E+02 -0.22180868567E+02  0.97248894698E+02  0.00000000000E+00 0.  1.
         11    1    4    4    0    0 -0.29902221218E+03 -0.11018666062E+03  0.18826766090E+02  0.31923319169E+03  0.00000000000E+00 0. -1.
</event>
<event>
 8    1  0.4798744E-006  0.1090542E+03  0.7561462E-02  0.1262331E+00
          2   -1    0    0  501    0  0.00000000000E+00  0.00000000000E+00  0.62590993574E+02  0.62590993574E+02  0.00000000000E+00 0. -1.
         -2   -1    0    0    0  501 -0.00000000000E+00 -0.00000000000E+00 -0.24712070910E+03  0.24712070910E+03  0.00000000000E+00 0.  1.
         23    2    1    2    0    0 -0.87057733232E+01 -0.41862552470E+02 -0.15725518937E+03  0.20543494792E+03  0.12508420945E+03 0.  0.
         23    2    1    2    0    0  0.87057733232E+01  0.41862552470E+02 -0.27274526154E+02  0.10427675475E+03  0.91112447099E+02 0.  0.
          5    1    3    3  502    0  0.42044020447E+02 -0.54903191784E+02 -0.48272806825E+02  0.84438121735E+02  0.41800000000E+01 0. -1.
         -5    1    3    3    0  502 -0.50749793770E+02  0.13040639314E+02 -0.10898238254E+03  0.12099682618E+03  0.41800000000E+01 0. -1.
        -11    1    4    4    0    0 -0.44870336400E+01  0.67385044525E+02 -0.46259361618E+01  0.67692517916E+02  0.00000000000E+00 0. -1.
         11    1    4    4    0    0  0.13192806963E+02 -0.25522492054E+02 -0.22648589993E+02  0.36584236836E+02  0.00000000000E+00 0.  1.
</event>
<event>
 8    1  0.4798744E-006  0.1430346E+03  0.7561462E-02  0.1209303E+00
         -2   -1    0    0    0  501 -0.00000000000E+00  0.00000000000E+00  0.44423623072E+02  0.44423623072E+02  0.00000000000E+00 0.  1.
          2   -1    0    0  501    0  0.00000000000E+00 -0.00000000000E+00 -0.71426507696E+03  0.71426507696E+03  0.00000000000E+00 0. -1.
         23    2    1    2    0    0  0.17396926974E+02 -0.89149428995E+02 -0.12830536874E+03  0.20090237187E+03  0.12509684894E+03 0.  0.
         23    2    1    2    0    0 -0.17396926974E+02  0.89149428995E+02 -0.54153608514E+03  0.55778632816E+03  0.98050918482E+02 0.  0.
          5    1    3    3  502    0  0.32830883274E+02  0.22591942457E+02 -0.21374244568E+02  0.45415784606E+02  0.41800000000E+01 0. -1.
         -5    1    3    3    0  502 -0.15433956300E+02 -0.11174137145E+03 -0.10693112418E+03  0.15548658726E+03  0.41800000000E+01 0. -1.
        -11    1    4    4    0    0  0.33941314793E+02  0.46678636633E+01 -0.11852431472E+03  0.12337671977E+03  0.00000000000E+00 0.  1.
         11    1    4    4    0    0 -0.51338241767E+02  0.84481565331E+02 -0.42301177042E+03  0.43440960839E+03  0.00000000000E+00 0. -1.
</event>
<event>
 8    1  0.4798744E-006  0.1559794E+03  0.7561462E-02  0.1193312E+00
         -2   -1    0    0    0  501 -0.00000000000E+00  0.00000000000E+00  0.74246902352E+02  0.74246902352E+02  0.00000000000E+00 0.  1.
          2   -1    0    0  501    0  0.00000000000E+00 -0.00000000000E+00 -0.40089748603E+03  0.40089748603E+03  0.00000000000E+00 0. -1.
         23    2    1    2    0    0 -0.10941124530E+03 -0.39341491611E+02 -0.83089626222E+02  0.18989801984E+03  0.12505518140E+03 0.  0.
         23    2    1    2    0    0  0.10941124530E+03  0.39341491611E+02 -0.24356095746E+03  0.28524636854E+03  0.92330803140E+02 0.  0.
          5    1    3    3  502    0 -0.23575806099E+02  0.43464860670E+02 -0.12237792479E+02  0.51110162502E+02  0.41800000000E+01 0. -1.
         -5    1    3    3    0  502 -0.85835439197E+02 -0.82806352281E+02 -0.70851833743E+02  0.13878785734E+03  0.41800000000E+01 0. -1.
        -11    1    4    4    0    0  0.13068797300E+02 -0.24257406123E+02 -0.83280911582E+02  0.87720724168E+02  0.00000000000E+00 0. -1.
         11    1    4    4    0    0  0.96342447996E+02  0.63598897734E+02 -0.16028004588E+03  0.19752564437E+03  0.00000000000E+00 0.  1.
</event>
<event>
 8    1  0.4798744E-006  0.2200329E+03  0.7561462E-02  0.1133858E+00
          2   -1    0    0  501    0  0.00000000000E+00  0.00000000000E+00  0.25614162158E+03  0.25614162158E+03  0.00000000000E+00 0.  1.
         -2   -1    0    0    0  501 -0.00000000000E+00 -0.00000000000E+00 -0.28336855176E+03  0.28336855176E+03  0.00000000000E+00 0. -1.
         23    2    1    2    0    0 -0.18144058550E+03 -0.11492319965E+03 -0.13458521477E+03  0.28264781269E+03  0.12509427686E+03 0.  0.
         23    2    1    2    0    0  0.18144058550E+03  0.11492319965E+03  0.10735828459E+03  0.25686236065E+03  0.91238386468E+02 0.  0.
          5    1    3    3  502    0 -0.88768044217E+02 -0.47525559838E+02  0.63291321608E+01  0.10097511984E+03  0.41800000000E+01 0. -1.
         -5    1    3    3    0  502 -0.92672541279E+02 -0.67397639807E+02 -0.14091434693E+03  0.18167269286E+03  0.41800000000E+01 0. -1.
        -11    1    4    4    0    0  0.33634645089E+02  0.56371594589E+02  0.64900202976E+02  0.92309708987E+02  0.00000000000E+00 0.  1.
         11    1    4    4    0    0  0.14780594041E+03  0.58551605056E+02  0.42458081615E+02  0.16455265166E+03  0.00000000000E+00 0. -1.
</event>
<event>
 8    1  0.4798744E-006  0.1034581E+03  0.7561462E-02  0.1273188E+00
         -2   -1    0    0    0  501 -0.00000000000E+00  0.00000000000E+00  0.50250867803E+02  0.50250867803E+02  0.00000000000E+00 0.  1.
          2   -1    0    0  501    0  0.00000000000E+00 -0.00000000000E+00 -0.30672764785E+03  0.30672764785E+03  0.00000000000E+00 0. -1.
         23    2    1    2    0    0 -0.40006833404E+02  0.44857670456E+02 -0.14410326742E+03  0.20006232703E+03  0.12508567343E+03 0.  0.
         23    2    1    2    0    0  0.40006833404E+02 -0.44857670456E+02 -0.11237351263E+03  0.15691618862E+03  0.91553954552E+02 0.  0.
          5    1    3    3  502    0 -0.81802887856E+02  0.50482355233E+02 -0.10467781215E+03  0.14217980661E+03  0.41800000000E+01 0.  1.
         -5    1    3    3    0  502  0.41796054452E+02 -0.56246847776E+01 -0.39425455263E+02  0.57882520413E+02  0.41800000000E+01 0.  1.
        -11    1    4    4    0    0 -0.15741324786E+01 -0.19612112489E+02  0.12221379084E+02  0.23161929023E+02  0.00000000000E+00 0.  1.
         11    1    4    4    0    0  0.41580965883E+02 -0.25245557967E+02 -0.12459489171E+03  0.13375425960E+03  0.00000000000E+00 0. -1.
</event>
<event>
 8    1  0.4798744E-006  0.9380672E+02  0.7561462E-02  0.1293886E+00
         -1   -1    0    0    0  501 -0.00000000000E+00  0.00000000000E+00  0.28412064296E+02  0.28412064296E+02  0.00000000000E+00 0.  1.
          1   -1    0    0  501    0  0.00000000000E+00 -0.00000000000E+00 -0.71931842663E+03  0.71931842663E+03  0.00000000000E+00 0. -1.
         23    2    1    2    0    0 -0.62081803862E+02 -0.13397636902E+02 -0.19825871373E+03  0.24288390603E+03  0.12510966068E+03 0.  0.
         23    2    1    2    0    0  0.62081803862E+02  0.13397636902E+02 -0.49264764860E+03  0.50484658489E+03  0.90192691264E+02 0.  0.
          5    1    3    3  502    0 -0.36177813689E+02  0.18267040145E+02 -0.34658044912E+00  0.40744465600E+02  0.41800000000E+01 0. -1.
         -5    1    3    3    0  502 -0.25903990173E+02 -0.31664677047E+02 -0.19791213328E+03  0.20213944043E+03  0.41800000000E+01 0. -1.
        -11    1    4    4    0    0  0.83479652390E+02  0.11437495215E+02 -0.43978002612E+03  0.44777911970E+03  0.00000000000E+00 0. -1.
         11    1    4    4    0    0 -0.21397848528E+02  0.19601416869E+01 -0.52867622483E+02  0.57067465198E+02  0.00000000000E+00 0.  1.
</event>
<event>
 8    1  0.4798744E-006  0.1934274E+03  0.7561462E-02  0.1155406E+00
          1   -1    0    0  501    0  0.00000000000E+00  0.00000000000E+00  0.89061610996E+03  0.89061610996E+03  0.00000000000E+00 0. -1.
         -1   -1    0    0    0  501 -0.00000000000E+00 -0.00000000000E+00 -0.50498197961E+02  0.50498197961E+02  0.00000000000E+00 0.  1.
         23    2    1    2    0    0 -0.91241113377E+02 -0.14742915593E+03  0.32147954621E+03  0.38603820505E+03  0.12496439630E+03 0.  0.
         23    2    1    2    0    0  0.91241113377E+02  0.14742915593E+03  0.51863836579E+03  0.55507610287E+03  0.95202041567E+02 0.  0.
          5    1    3    3  502    0 -0.11266356150E+03 -0.69937836262E+02  0.18655316988E+03  0.22891906129E+03  0.41800000000E+01 0.  1.
         -5    1    3    3    0  502  0.21422448121E+02 -0.77491319666E+02  0.13492637633E+03  0.15711914376E+03  0.41800000000E+01 0.  1.
        -11    1    4    4    0    0  0.74232115710E+02  0.11186586989E+03  0.48504606466E+03  0.50328328473E+03  0.00000000000E+00 0. -1.
         11    1    4    4    0    0  0.17008997666E+02  0.35563286035E+02  0.33592301131E+02  0.51792818136E+02  0.00000000000E+00 0.  1.
</event>
<event>
 8    1  0.4798744E-006  0.2905534E+03  0.7561462E-02  0.1090061E+00
         -1   -1    0    0    0  501 -0.00000000000E+00  0.00000000000E+00  0.19658141051E+03  0.19658141051E+03  0.00000000000E+00 0.  1.
          1   -1    0    0  501    0  0.00000000000E+00 -0.00000000000E+00 -0.50380901648E+03  0.50380901648E+03  0.00000000000E+00 0. -1.
         23    2    1    2    0    0  0.77525893016E+01 -0.28882634822E+03 -0.81903740678E+02  0.32532327708E+03  0.12508497036E+03 0.  0.
         23    2    1    2    0    0 -0.77525893016E+01  0.28882634822E+03 -0.22532386529E+03  0.37506714990E+03  0.80148366170E+02 0.  0.
          5    1    3    3  502    0 -0.27513714405E+00 -0.20674053836E+03  0.31038164006E+01  0.20680626677E+03  0.41800000000E+01 0. -1.
         -5    1    3    3    0  502  0.80277264457E+01 -0.82085809862E+02 -0.85007557078E+02  0.11851701031E+03  0.41800000000E+01 0. -1.
        -11    1    4    4    0    0  0.14475355756E+02  0.18478871875E+03 -0.18329952355E+03  0.26068203205E+03  0.00000000000E+00 0. -1.
         11    1    4    4    0    0 -0.22227945058E+02  0.10403762946E+03 -0.42024341744E+02  0.11438511785E+03  0.00000000000E+00 0.  1.
</event>
<event>
 8    1  0.4798744E-006  0.1281022E+03  0.7561462E-02  0.1230299E+00
         -1   -1    0    0    0  501 -0.00000000000E+00  0.00000000000E+00  0.71023723412E+02  0.71023723412E+02  0.00000000000E+00 0.  1.
          1   -1    0    0  501    0  0.00000000000E+00 -0.00000000000E+00 -0.41153053617E+03  0.41153053617E+03  0.00000000000E+00 0. -1.
         23    2    1    2    0    0  0.30724006132E+02  0.91593792896E+02 -0.54472918567E+02  0.16717574918E+03  0.12508814815E+03 0.  0.
         23    2    1    2    0    0 -0.30724006132E+02 -0.91593792896E+02 -0.28603389419E+03  0.31537851040E+03  0.91185682797E+02 0.  0.
          5    1    3    3  502    0  0.79501916347E+02  0.52094572898E+02 -0.32054382440E+02  0.10039599126E+03  0.41800000000E+01 0.  1.
         -5    1    3    3    0  502 -0.48777910215E+02  0.39499219998E+02 -0.22418536127E+02  0.66779757917E+02  0.41800000000E+01 0.  1.
        -11    1    4    4    0    0 -0.29998533242E+02 -0.65365677823E+02 -0.27913084845E+03  0.28824748809E+03  0.00000000000E+00 0. -1.
         11    1    4    4    0    0 -0.72547289006E+00 -0.26228115073E+02 -0.69030457420E+01  0.27131022312E+02  0.00000000000E+00 0.  1.
</event>
<event>
 8    1  0.4798744E-006  0.2308767E+03  0.7561462E-02  0.1126024E+00
          2   -1    0    0  501    0  0.00000000000E+00  0.00000000000E+00  0.12023355382E+03  0.12023355382E+03  0.00000000000E+00 0. -1.
         -2   -1    0    0    0  501 -0.00000000000E+00 -0.00000000000E+00 -0.52504252633E+03  0.52504252633E+03  0.00000000000E+00 0.  1.
         23    2    1    2    0    0 -0.12771375348E+02 -0.22576463647E+03 -0.21358916361E+03  0.33526005180E+03  0.12508474093E+03 0.  0.
         23    2    1    2    0    0  0.12771375348E+02  0.22576463647E+03 -0.19121980889E+03  0.31001602834E+03  0.91717737705E+02 0.  0.
          5    1    3    3  502    0  0.79633163742E+01 -0.14972198255E+03 -0.58037238075E+02  0.16082872837E+03  0.41800000000E+01 0. -1.
         -5    1    3    3    0  502 -0.20734691722E+02 -0.76042653922E+02 -0.15555192554E+03  0.17443132343E+03  0.41800000000E+01 0. -1.
        -11    1    4    4    0    0  0.21586053631E+02  0.30485961149E+02 -0.71831230249E+02  0.80963431113E+02  0.00000000000E+00 0.  1.
         11    1    4    4    0    0 -0.88146782836E+01  0.19527867532E+03 -0.11938857864E+03  0.22905259723E+03  0.00000000000E+00 0. -1.
</event>
<event>
 8    1  0.4798744E-006  0.1798545E+03  0.7561462E-02  0.1167944E+00
          3   -1    0    0  501    0  0.00000000000E+00  0.00000000000E+00  0.24029452262E+03  0.24029452262E+03  0.00000000000E+00 0. -1.
         -3   -1    0    0    0  501 -0.00000000000E+00 -0.00000000000E+00 -0.23053471309E+03  0.23053471309E+03  0.00000000000E+00 0.  1.
         23    2    1    2    0    0 -0.17551223590E+03  0.29705268468E+02 -0.85655943063E+02  0.23381782336E+03  0.12508751342E+03 0.  0.
         23    2    1    2    0    0  0.17551223590E+03 -0.29705268468E+02  0.95415752585E+02  0.23701141235E+03  0.12402941514E+03 0.  0.
          5    1    3    3  502    0 -0.74007421713E+01 -0.51813573655E+01  0.26761477876E+02  0.28552872832E+02  0.41800000000E+01 0.  1.
         -5    1    3    3    0  502 -0.16811149373E+03  0.34886625834E+02 -0.11241742094E+03  0.20526495053E+03  0.41800000000E+01 0.  1.
        -11    1    4    4    0    0  0.88973292504E+02 -0.15517411622E+02 -0.19559401729E+02  0.92409994256E+02  0.00000000000E+00 0.  1.
         11    1    4    4    0    0  0.86538943393E+02 -0.14187856846E+02  0.11497515431E+03  0.14460141809E+03  0.00000000000E+00 0. -1.
</event>
<event>
 7    1  0.4798744E-006  0.8864647E+02  0.7561462E-02  0.1306163E+00
          2   -1    0    0  501    0  0.00000000000E+00  0.00000000000E+00  0.22230832925E+03  0.22230832925E+03  0.00000000000E+00 0. -1.
         -2   -1    0    0    0  501 -0.00000000000E+00 -0.00000000000E+00 -0.63234076221E+02  0.63234076221E+02  0.00000000000E+00 0.  1.
         23    2    1    2    0    0 -0.88782155440E+01 -0.15165697929E+02  0.10595032735E+03  0.13821871192E+03  0.87006432832E+02 0.  0.
          5    1    1    2  502    0  0.54564390784E+02  0.47692449991E+01  0.76988201696E+02  0.94576286879E+02  0.41800000000E+01 0. -1.
         -5    1    1    2    0  502 -0.45686175240E+02  0.10396452930E+02 -0.23864276012E+02  0.52747406677E+02  0.41800000000E+01 0.  1.
        -11    1    3    3    0    0 -0.27399153968E+02 -0.37413264749E+02  0.97654139736E+02  0.10810549026E+03  0.00000000000E+00 0. -1.
         11    1    3    3    0    0  0.18520938424E+02  0.22247566819E+02  0.82961876093E+01  0.30113221653E+02  0.00000000000E+00 0.  1.
</event>
<event>
 8    1  0.4798744E-006  0.3163820E+03  0.7561462E-02  0.1077327E+00
          1   -1    0    0  501    0  0.00000000000E+00  0.00000000000E+00  0.50320029055E+03  0.50320029055E+03  0.00000000000E+00 0. -1.
         -1   -1    0    0    0  501 -0.00000000000E+00 -0.00000000000E+00 -0.22186059301E+03  0.22186059301E+03  0.00000000000E+00 0.  1.
         23    2    1    2    0    0  0.18581235360E+03  0.23905643500E+03  0.45321624413E+02  0.33072578625E+03  0.12510510056E+03 0.  0.
         23    2    1    2    0    0 -0.18581235360E+03 -0.23905643500E+03  0.23601807314E+03  0.39433509731E+03  0.90118967226E+02 0.  0.
          5    1    3    3  502    0  0.13216131027E+03  0.23683157970E+03  0.52843504925E+02  0.27634347738E+03  0.41800000000E+01 0.  1.
         -5    1    3    3    0  502  0.53651043336E+02  0.22248552985E+01 -0.75218805122E+01  0.54382308875E+02  0.41800000000E+01 0.  1.
        -11    1    4    4    0    0 -0.10833107429E+03 -0.94984171683E+02  0.66246505881E+02  0.15857557841E+03  0.00000000000E+00 0.  1.
         11    1    4    4    0    0 -0.77481279314E+02 -0.14407226332E+03  0.16977156725E+03  0.23575951890E+03  0.00000000000E+00 0. -1.
</event>
<event>
 8    1  0.4798744E-006  0.1451249E+03  0.7561462E-02  0.1206595E+00
          2   -1    0    0  501    0  0.00000000000E+00  0.00000000000E+00  0.94893729070E+03  0.94893729070E+03  0.00000000000E+00 0.  1.
         -2   -1    0    0    0  501 -0.00000000000E+00 -0.00000000000E+00 -0.22901530009E+02  0.22901530009E+02  0.00000000000E+00 0. -1.
         23    2    1    2    0    0 -0.31173251652E+02  0.92598465212E+02  0.43750866789E+03  0.46541731292E+03  0.12511272240E+03 0.  0.
         23    2    1    2    0    0  0.31173251652E+02 -0.92598465212E+02  0.48852709280E+03  0.50642150779E+03  0.90872304774E+02 0.  0.
          5    1    3    3  502    0 -0.29866782032E+02 -0.25522252482E+02  0.87993627843E+02  0.96456005421E+02  0.41800000000E+01 0.  1.
         -5    1    3    3    0  502 -0.13064696201E+01  0.11812071769E+03  0.34951504005E+03  0.36896130750E+03  0.41800000000E+01 0.  1.
        -11    1    4    4    0    0  0.38858594879E+02  0.75961795017E+00  0.11795422480E+03  0.12419245776E+03  0.00000000000E+00 0.  1.
         11    1    4    4    0    0 -0.76853432265E+01 -0.93358083162E+02  0.37057286800E+03  0.38222905003E+03  0.00000000000E+00 0. -1.
</event>
<event>
 7    1  0.4798744E-006  0.9330511E+02  0.7561462E-02  0.1295040E+00
          1   -1    0    0  501    0  0.00000000000E+00  0.00000000000E+00  0.22235235992E+03  0.22235235992E+03  0.00000000000E+00 0. -1.
         -1   -1    0    0    0  501 -0.00000000000E+00 -0.00000000000E+00 -0.66540305143E+02  0.66540305143E+02  0.00000000000E+00 0.  1.
         23    2    1    2    0    0  0.23955902990E+02  0.13359848343E+02  0.95362746462E+02  0.13416431526E+03  0.90297504073E+02 0.  0.
          5    1    1    2  502    0  0.48830743082E+02  0.10997705606E+02  0.59484955233E+02  0.77854500818E+02  0.41800000000E+01 0. -1.
         -5    1    1    2    0  502 -0.72786646072E+02 -0.24357553949E+02  0.96435308480E+00  0.76873848984E+02  0.41800000000E+01 0.  1.
        -11    1    3    3    0    0  0.33208957490E+01  0.31720193499E+02 -0.29647481144E+01  0.32031059232E+02  0.00000000000E+00 0.  1.
         11    1    3    3    0    0  0.20635007241E+02 -0.18360345156E+02  0.98327494577E+02  0.10213325603E+03  0.00000000000E+00 0. -1.
</event>
<event>
 8    1  0.4798744E-006  0.1061539E+03  0.7561462E-02  0.1267863E+00
         -2   -1    0    0    0  501 -0.00000000000E+00  0.00000000000E+00  0.91914158424E+02  0.91914158424E+02  0.00000000000E+00 0.  1.
          2   -1    0    0  501    0  0.00000000000E+00 -0.00000000000E+00 -0.15959830032E+03  0.15959830032E+03  0.00000000000E+00 0. -1.
         23    2    1    2    0    0 -0.17247248438E+02 -0.10653566979E+02  0.82921432801E+01  0.12699027878E+03  0.12508719037E+03 0.  0.
         23    2    1    2    0    0  0.17247248438E+02  0.10653566979E+02 -0.75976285172E+02  0.12452217996E+03  0.96552635003E+02 0.  0.
          5    1    3    3  502    0 -0.49669079963E+02  0.37550551047E+02  0.23681073112E+02  0.66748236021E+02  0.41800000000E+01 0. -1.
         -5    1    3    3    0  502  0.32421831525E+02 -0.48204118026E+02 -0.15388929832E+02  0.60242042756E+02  0.41800000000E+01 0. -1.
        -11    1    4    4    0    0 -0.36414145011E+02  0.10850727392E+02 -0.96427694586E+01  0.39200908723E+02  0.00000000000E+00 0.  1.
         11    1    4    4    0    0  0.53661393449E+02 -0.19716041318E+00 -0.66333515714E+02  0.85321271240E+02  0.00000000000E+00 0. -1.
</event>
<event>
 8    1  0.4798744E-006  0.1226727E+03  0.7561462E-02  0.1238752E+00
         -4   -1    0    0    0  501 -0.00000000000E+00  0.00000000000E+00  0.10009492937E+03  0.10009492937E+03  0.00000000000E+00 0.  1.
          4   -1    0    0  501    0  0.00000000000E+00 -0.00000000000E+00 -0.26856443763E+03  0.26856443763E+03  0.00000000000E+00 0. -1.
         23    2    1    2    0    0  0.60900496954E+02 -0.68610913149E+02  0.15047444400E+01  0.15512914414E+03  0.12508580724E+03 0.  0.
         23    2    1    2    0    0 -0.60900496954E+02  0.68610913149E+02 -0.16997425270E+03  0.21353022286E+03  0.91036155238E+02 0.  0.
          5    1    3    3  502    0  0.84528844251E+02 -0.48856167188E+02 -0.38011657553E+02  0.10485422782E+03  0.41800000000E+01 0. -1.
         -5    1    3    3    0  502 -0.23628347297E+02 -0.19754745961E+02  0.39516401993E+02  0.50274916315E+02  0.41800000000E+01 0. -1.
        -11    1    4    4    0    0 -0.68952155985E+02  0.26821860656E+02 -0.14839134094E+03  0.16581255106E+03  0.00000000000E+00 0. -1.
         11    1    4    4    0    0  0.80516590306E+01  0.41789052493E+02 -0.21582911756E+02  0.47717671792E+02  0.00000000000E+00 0.  1.
</event>
<event>
 8    1  0.4798744E-006  0.1333910E+03  0.7561462E-02  0.1222509E+00
         -2   -1    0    0    0  501 -0.00000000000E+00  0.00000000000E+00  0.13062129521E+03  0.13062129521E+03  0.00000000000E+00 0.  1.
          2   -1    0    0  501    0  0.00000000000E+00 -0.00000000000E+00 -0.19653662348E+03  0.19653662348E+03  0.00000000000E+00 0. -1.
         23    2    1    2    0    0 -0.12334245230E+02  0.72957188202E+02  0.54781083508E+02  0.15531404075E+03  0.12508636707E+03 0.  0.
         23    2    1    2    0    0  0.12334245230E+02 -0.72957188202E+02 -0.12069641179E+03  0.17184387794E+03  0.97405388212E+02 0.  0.
          5    1    3    3  502    0 -0.58670148042E+02  0.10028356107E+01  0.14261819250E+02  0.60531511123E+02  0.41800000000E+01 0.  1.
         -5    1    3    3    0  502  0.46335902812E+02  0.71954352591E+02  0.40519264258E+02  0.94782529626E+02  0.41800000000E+01 0.  1.
        -11    1    4    4    0    0 -0.42887106576E+02 -0.32732143568E+02 -0.50763964375E+02  0.74078858064E+02  0.00000000000E+00 0. -1.
         11    1    4    4    0    0  0.55221351805E+02 -0.40225044633E+02 -0.69932447411E+02  0.97765019878E+02  0.00000000000E+00 0.  1.
</event>
<event>
 8    1  0.4798744E-006  0.1594924E+03  0.7561462E-02  0.1189271E+00
         -3   -1    0    0    0  501 -0.00000000000E+00  0.00000000000E+00  0.12599905997E+03  0.12599905997E+03  0.00000000000E+00 0.  1.
          3   -1    0    0  501    0  0.00000000000E+00 -0.00000000000E+00 -0.21579763023E+03  0.21579763023E+03  0.00000000000E+00 0. -1.
         23    2    1    2    0    0  0.85035260686E+02  0.92741599771E+02 -0.10819057492E+02  0.16766835453E+03  0.11028882635E+03 0.  0.
         23    2    1    2    0    0 -0.85035260686E+02 -0.92741599771E+02 -0.78979512762E+02  0.17412833567E+03  0.90834541666E+02 0.  0.
          5    1    3    3  502    0 -0.87535134797E+01  0.65943597776E+02 -0.20044024397E+02  0.69601849112E+02  0.41800000000E+01 0. -1.
         -5    1    3    3    0  502  0.93788774166E+02  0.26798001995E+02  0.92249669056E+01  0.98066505418E+02  0.41800000000E+01 0.  1.
        -11    1    4    4    0    0  0.70396704442E+00 -0.64391301251E+02 -0.39711058329E+02  0.75655161093E+02  0.00000000000E+00 0.  1.
         11    1    4    4    0    0 -0.85739227731E+02 -0.28350298520E+02 -0.39268454433E+02  0.98473174579E+02  0.00000000000E+00 0. -1.
</event>
<event>
 8    1  0.4798744E-006  0.9451628E+02  0.7561462E-02  0.1292269E+00
          1   -1    0    0  501    0  0.00000000000E+00  0.00000000000E+00  0.50755069114E+03  0.50755069114E+03  0.00000000000E+00 0. -1.
         -1   -1    0    0    0  501 -0.00000000000E+00 -0.00000000000E+00 -0.27892324286E+02  0.27892324286E+02  0.00000000000E+00 0.  1.
         23    2    1    2    0    0 -0.10682623862E+02 -0.51367112977E+01  0.16307051709E+03  0.20586696516E+03  0.12509480223E+03 0.  0.
         23    2    1    2    0    0  0.10682623862E+02  0.51367112977E+01  0.31658784976E+03  0.32957605026E+03  0.90840530803E+02 0.  0.
          5    1    3    3  502    0  0.42625675759E+02 -0.12133138577E+02  0.14054060927E+03  0.14742217113E+03  0.41800000000E+01 0.  1.
         -5    1    3    3    0  502 -0.53308299622E+02  0.69964272789E+01  0.22529907823E+02  0.58444794034E+02  0.41800000000E+01 0.  1.
        -11    1    4    4    0    0  0.35780902653E+02 -0.30489961589E+02  0.18867513449E+03  0.19444335198E+03  0.00000000000E+00 0.  1.
         11    1    4    4    0    0 -0.25098278790E+02  0.35626672887E+02  0.12791271526E+03  0.13513269828E+03  0.00000000000E+00 0. -1.
</event>
<event>
 8    1  0.4798744E-006  0.7846156E+02  0.7561462E-02  0.1333475E+00
          1   -1    0    0  501    0  0.00000000000E+00  0.00000000000E+00  0.21690069028E+03  0.21690069028E+03  0.00000000000E+00 0. -1.
         -1   -1    0    0    0  501 -0.00000000000E+00 -0.00000000000E+00 -0.68661633341E+02  0.68661633341E+02  0.00000000000E+00 0.  1.
         23    2    1    2    0    0  0.50072529263E+02 -0.57731409742E+01  0.57039918523E+02  0.14643295649E+03  0.12509384916E+03 0.  0.
         23    2    1    2    0    0 -0.50072529263E+02  0.57731409742E+01  0.91199138414E+02  0.13912936713E+03  0.92190621033E+02 0.  0.
          5    1    3    3  502    0  0.32461709292E+02  0.47588949261E+00  0.96863572190E+02  0.10224486813E+03  0.41800000000E+01 0.  1.
         -5    1    3    3    0  502  0.17610819971E+02 -0.62490304668E+01 -0.39823653667E+02  0.44188088364E+02  0.41800000000E+01 0.  1.
        -11    1    4    4    0    0  0.27261240757E+02 -0.19034533887E+01  0.22316360651E+02  0.35281983151E+02  0.00000000000E+00 0.  1.
         11    1    4    4    0    0 -0.77333770019E+02  0.76765943629E+01  0.68882777763E+02  0.10384738398E+03  0.00000000000E+00 0. -1.
</event>
<event>
 8    1  0.4798744E-006  0.9256340E+02  0.7561462E-02  0.1296760E+00
          1   -1    0    0  501    0  0.00000000000E+00  0.00000000000E+00  0.18671189818E+03  0.18671189818E+03  0.00000000000E+00 0. -1.
         -1   -1    0    0    0  501 -0.00000000000E+00 -0.00000000000E+00 -0.86009122390E+02  0.86009122390E+02  0.00000000000E+00 0.  1.
         23    2    1    2    0    0  0.17104808888E+02 -0.42854858105E+02 -0.12308887716E+02  0.12031089344E+03  0.11042684916E+03 0.  0.
         23    2    1    2    0    0 -0.17104808888E+02  0.42854858105E+02  0.11301166351E+03  0.15241012713E+03  0.91258410088E+02 0.  0.
          5    1    3    3  502    0 -0.26483709385E+02 -0.43161480543E+02  0.30343492149E+02  0.59181924447E+02  0.41800000000E+01 0. -1.
         -5    1    3    3    0  502  0.43588518272E+02  0.30662243807E+00 -0.42652379866E+02  0.61128968998E+02  0.41800000000E+01 0.  1.
        -11    1    4    4    0    0  0.31172648324E+02  0.13082844315E+02  0.10754858085E+02  0.35476214445E+02  0.00000000000E+00 0.  1.
         11    1    4    4    0    0 -0.48277457212E+02  0.29772013789E+02  0.10225680542E+03  0.11693391268E+03  0.00000000000E+00 0. -1.
</event>
<event>
 8    1  0.4798744E-006  0.1232391E+03  0.7561462E-02  0.1237847E+00
          2   -1    0    0  501    0  0.00000000000E+00  0.00000000000E+00  0.15219950860E+03  0.15219950860E+03  0.00000000000E+00 0. -1.
         -2   -1    0    0    0  501 -0.00000000000E+00 -0.00000000000E+00 -0.16179041529E+03  0.16179041529E+03  0.00000000000E+00 0.  1.
         23    2    1    2    0    0  0.81559063155E+02  0.70775355230E+02 -0.36447348893E+02  0.16921958025E+03  0.12508327389E+03 0.  0.
         23    2    1    2    0    0 -0.81559063155E+02 -0.70775355230E+02  0.26856442199E+02  0.14477034364E+03  0.92607517075E+02 0.  0.
          5    1    3    3  502    0 -0.14105578862E+02 -0.35828285167E+01  0.28063533864E+02  0.31887902850E+02  0.41800000000E+01 0.  1.
         -5    1    3    3    0  502  0.95664642017E+02  0.74358183747E+02 -0.64510882757E+02  0.13733167740E+03  0.41800000000E+01 0.  1.
        -11    1    4    4    0    0 -0.32945464173E+02 -0.15260617459E+02 -0.33528335251E+02  0.49421041263E+02  0.00000000000E+00 0.  1.
         11    1    4    4    0    0 -0.48613598983E+02 -0.55514737771E+02  0.60384777450E+02  0.95349302375E+02  0.00000000000E+00 0. -1.
</event>
<event>
 8    1  0.4798744E-006  0.8660408E+02  0.7561462E-02  0.1311290E+00
         -1   -1    0    0    0  501 -0.00000000000E+00  0.00000000000E+00  0.61119757395E+02  0.61119757395E+02  0.00000000000E+00 0.  1.
          1   -1    0    0  501    0  0.00000000000E+00 -0.00000000000E+00 -0.41193123856E+03  0.41193123856E+03  0.00000000000E+00 0. -1.
         23    2    1    2    0    0 -0.24184151842E+02 -0.28427591298E+02 -0.24968677018E+02  0.13291515029E+03  0.12509996482E+03 0.  0.
         23    2    1    2    0    0  0.24184151842E+02  0.28427591298E+02 -0.32584280415E+03  0.34013584566E+03  0.90143548537E+02 0.  0.
          5    1    3    3  502    0 -0.56276087512E+02 -0.18282104638E+02  0.31409744234E+02  0.67121366259E+02  0.41800000000E+01 0. -1.
         -5    1    3    3    0  502  0.32091935670E+02 -0.10145486660E+02 -0.56378421252E+02  0.65793784033E+02  0.41800000000E+01 0. -1.
        -11    1    4    4    0    0 -0.21596490600E+02  0.26454409155E+02 -0.50228961798E+02  0.60738725483E+02  0.00000000000E+00 0.  1.
         11    1    4    4    0    0  0.45780642443E+02  0.19731821423E+01 -0.27561384235E+03  0.27939712018E+03  0.00000000000E+00 0. -1.
</event>
<event>
 8    1  0.4798744E-006  0.9964726E+02  0.7561462E-02  0.1281039E+00
         -2   -1    0    0    0  501 -0.00000000000E+00  0.00000000000E+00  0.16909863136E+03  0.16909863136E+03  0.00000000000E+00 0.  1.
          2   -1    0    0  501    0  0.00000000000E+00 -0.00000000000E+00 -0.78856807468E+02  0.78856807468E+02  0.00000000000E+00 0. -1.
         23    2    1    2    0    0  0.26457246705E+02  0.47638749461E+00  0.79914441577E+02  0.15078093248E+03  0.12509340022E+03 0.  0.
         23    2    1    2    0    0 -0.26457246705E+02 -0.47638749461E+00  0.10327382316E+02  0.97174506346E+02  0.92930172763E+02 0.  0.
          5    1    3    3  502    0 -0.33168571833E+02  0.28019387547E+02  0.72420882635E+02  0.84542870057E+02  0.41800000000E+01 0. -1.
         -5    1    3    3    0  502  0.59625818538E+02 -0.27543000052E+02  0.74935589428E+01  0.66238062425E+02  0.41800000000E+01 0. -1.
        -11    1    4    4    0    0 -0.22616543997E+02  0.41738580048E+02 -0.12416236907E+02  0.49069135572E+02  0.00000000000E+00 0. -1.
         11    1    4    4    0    0 -0.38407027075E+01 -0.42214967543E+02  0.22743619223E+02  0.48105370774E+02  0.00000000000E+00 0.  1.
</event>
<event>
 8    1  0.4798744E-006  0.1442300E+03  0.7561462E-02  0.1207748E+00
         -1   -1    0    0    0  501 -0.00000000000E+00  0.00000000000E+00  0.22407312023E+03  0.22407312023E+03  0.00000000000E+00 0.  1.
          1   -1    0    0  501    0  0.00000000000E+00 -0.00000000000E+00 -0.10779850198E+03  0.10779850198E+03  0.00000000000E+00 0. -1.
         23    2    1    2    0    0 -0.63082265181E+02  0.67281974830E+02  0.24030108616E+02  0.15725935283E+03  0.12508725600E+03 0.  0.
         23    2    1    2    0    0  0.63082265181E+02 -0.67281974830E+02  0.92244509640E+02  0.17461226938E+03  0.11607824405E+03 0.  0.
          5    1    3    3  502    0 -0.10104011479E+03  0.55371587812E+02  0.15157849322E+02  0.11628564112E+03  0.41800000000E+01 0.  1.
         -5    1    3    3    0  502  0.37957849613E+02  0.11910387018E+02  0.88722592939E+01  0.40973711709E+02  0.41800000000E+01 0.  1.
        -11    1    4    4    0    0  0.35607913169E+02  0.20566332034E+02 -0.41511592328E+01  0.41329524756E+02  0.00000000000E+00 0. -1.
         11    1    4    4    0    0  0.27474352012E+02 -0.87848306864E+02  0.96395668873E+02  0.13328274463E+03  0.00000000000E+00 0.  1.
</event>
<event>
 8    1  0.4798744E-006  0.1108436E+03  0.7561462E-02  0.1259016E+00
         -2   -1    0    0    0  501 -0.00000000000E+00  0.00000000000E+00  0.52416925548E+02  0.52416925548E+02  0.00000000000E+00 0.  1.
          2   -1    0    0  501    0  0.00000000000E+00 -0.00000000000E+00 -0.24918100408E+03  0.24918100408E+03  0.00000000000E+00 0. -1.
         23    2    1    2    0    0  0.26774995158E+02  0.42872539984E+02 -0.11193818196E+03  0.17530587053E+03  0.12508811538E+03 0.  0.
         23    2    1    2    0    0 -0.26774995158E+02 -0.42872539984E+02 -0.84825896569E+02  0.12629205910E+03  0.78735610834E+02 0.  0.
          5    1    3    3  502    0 -0.49282692222E+02  0.22175879823E+02 -0.31905281929E+02  0.62896524654E+02  0.41800000000E+01 0. -1.
         -5    1    3    3    0  502  0.76057687380E+02  0.20696660161E+02 -0.80032900034E+02  0.11240934587E+03  0.41800000000E+01 0. -1.
        -11    1    4    4    0    0  0.23828075013E+01  0.19527973797E+02 -0.39568264543E+01  0.20066788677E+02  0.00000000000E+00 0.  1.
         11    1    4    4    0    0 -0.29157802659E+02 -0.62400513780E+02 -0.80869070114E+02  0.10622527043E+03  0.00000000000E+00 0. -1.
</event>
<event>
 8    1  0.4798744E-006  0.1167795E+03  0.7561462E-02  0.1248506E+00
         -1   -1    0    0    0  501 -0.00000000000E+00  0.00000000000E+00  0.28946738570E+02  0.28946738570E+02  0.00000000000E+00 0. -1.
          1   -1    0    0  501    0  0.00000000000E+00 -0.00000000000E+00 -0.79017089800E+03  0.79017089800E+03  0.00000000000E+00 0.  1.
         23    2    1    2    0    0 -0.94540623002E+02 -0.17806566239E+02 -0.30279304374E+03  0.34144782021E+03  0.12509189978E+03 0.  0.
         23    2    1    2    0    0  0.94540623002E+02  0.17806566239E+02 -0.45843111569E+03  0.47766981636E+03  0.93564749930E+02 0.  0.
          5    1    3    3  502    0 -0.87444180986E+02 -0.35681666039E+02 -0.30708226912E+03  0.32130461946E+03  0.41800000000E+01 0.  1.
         -5    1    3    3    0  502 -0.70964420156E+01  0.17875099801E+02  0.42892253767E+01  0.20143200751E+02  0.41800000000E+01 0.  1.
        -11    1    4    4    0    0  0.78898258539E+02  0.42873126124E+02 -0.41833210917E+03  0.42786071765E+03  0.00000000000E+00 0.  1.
         11    1    4    4    0    0  0.15642364463E+02 -0.25066559885E+02 -0.40099006516E+02  0.49809098707E+02  0.00000000000E+00 0. -1.
</event>
<event>
 8    1  0.4798744E-006  0.1271172E+03  0.7561462E-02  0.1231797E+00
          2   -1    0    0  501    0  0.00000000000E+00  0.00000000000E+00  0.65954779134E+03  0.65954779134E+03  0.00000000000E+00 0.  1.
         -2   -1    0    0    0  501 -0.00000000000E+00 -0.00000000000E+00 -0.42455859305E+02  0.42455859305E+02  0.00000000000E+00 0. -1.
         23    2    1    2    0    0 -0.34686768700E+02 -0.59942447207E+02  0.10519042791E+03  0.17756812901E+03  0.12517645712E+03 0.  0.
         23    2    1    2    0    0  0.34686768700E+02  0.59942447207E+02  0.51190150412E+03  0.52443552163E+03  0.90516283196E+02 0.  0.
          5    1    3    3  502    0  0.12167874849E+02 -0.85873638451E+02  0.48446363979E+02  0.99432698555E+02  0.41800000000E+01 0.  1.
         -5    1    3    3    0  502 -0.46854643549E+02  0.25931191244E+02  0.56744063928E+02  0.78135430456E+02  0.41800000000E+01 0.  1.
        -11    1    4    4    0    0  0.39188112241E+01 -0.23982498589E+02  0.12532281948E+03  0.12765706562E+03  0.00000000000E+00 0.  1.
         11    1    4    4    0    0  0.30767957476E+02  0.83924945796E+02  0.38657868464E+03  0.39677845601E+03  0.00000000000E+00 0. -1.
</event>
<event>
 8    1  0.4798744E-006  0.9529764E+02  0.7561462E-02  0.1290507E+00
         -1   -1    0    0    0  501 -0.00000000000E+00  0.00000000000E+00  0.23672635486E+03  0.23672635486E+03  0.00000000000E+00 0.  1.
          1   -1    0    0  501    0  0.00000000000E+00 -0.00000000000E+00 -0.53202902632E+02  0.53202902632E+02  0.00000000000E+00 0. -1.
         23    2    1    2    0    0 -0.10217120744E+02 -0.18578775004E+02  0.13451341269E+03  0.18490863844E+03  0.12509111054E+03 0.  0.
         23    2    1    2    0    0  0.10217120744E+02  0.18578775004E+02  0.49010039531E+02  0.10502061905E+03  0.90431111982E+02 0.  0.
          5    1    3    3  502    0 -0.66525499896E+02 -0.50842620618E+01  0.55651231946E+02  0.86982894147E+02  0.41800000000E+01 0. -1.
         -5    1    3    3    0  502  0.56308379151E+02 -0.13494512942E+02  0.78862180747E+02  0.97925744288E+02  0.41800000000E+01 0. -1.
        -11    1    4    4    0    0  0.31143974570E+02 -0.77161316703E+01  0.61339466617E+02  0.69224388800E+02  0.00000000000E+00 0.  1.
         11    1    4    4    0    0 -0.20926853826E+02  0.26294906674E+02 -0.12329427085E+02  0.35796230252E+02  0.00000000000E+00 0. -1.
</event>
<event>
 8    1  0.4798744E-006  0.1169257E+03  0.7561462E-02  0.1248257E+00
         -2   -1    0    0    0  501 -0.00000000000E+00  0.00000000000E+00  0.93786384728E+02  0.93786384728E+02  0.00000000000E+00 0. -1.
          2   -1    0    0  501    0  0.00000000000E+00 -0.00000000000E+00 -0.22316106596E+03  0.22316106596E+03  0.00000000000E+00 0.  1.
         23    2    1    2    0    0 -0.64026548802E+02  0.64943846266E+02 -0.35842045521E+02  0.15889954155E+03  0.12508920800E+03 0.  0.
         23    2    1    2    0    0  0.64026548802E+02 -0.64943846266E+02 -0.93532635712E+02  0.15804790914E+03  0.88958897934E+02 0.  0.
          5    1    3    3  502    0 -0.74082967367E+02  0.52454007124E+02  0.26289960181E+02  0.94595683430E+02  0.41800000000E+01 0.  1.
         -5    1    3    3    0  502  0.10056418564E+02  0.12489839142E+02 -0.62132005702E+02  0.64303858117E+02  0.41800000000E+01 0.  1.
        -11    1    4    4    0    0 -0.21548991454E+02 -0.55753858668E+01 -0.94103134947E+01  0.24166049746E+02  0.00000000000E+00 0.  1.
         11    1    4    4    0    0  0.85575540256E+02 -0.59368460400E+02 -0.84122322217E+02  0.13388185940E+03  0.00000000000E+00 0. -1.
</event>
<event>
 7    1  0.4798744E-006  0.1131937E+03  0.7561462E-02  0.1254767E+00
         -1   -1    0    0    0  501 -0.00000000000E+00  0.00000000000E+00  0.19547788753E+03  0.19547788753E+03  0.00000000000E+00 0.  1.
          1   -1    0    0  501    0  0.00000000000E+00 -0.00000000000E+00 -0.22089872513E+03  0.22089872513E+03  0.00000000000E+00 0. -1.
         23    2    1    2    0    0 -0.30666418388E+02 -0.57765360164E+02 -0.17401923629E+03  0.20546427380E+03  0.87496326534E+02 0.  0.
          5    1    1    2  502    0  0.20864595628E+02 -0.26706201016E+02 -0.57603537667E+01  0.34629562500E+02  0.41800000000E+01 0. -1.
         -5    1    1    2    0  502  0.98018227591E+01  0.84471561179E+02  0.15435875246E+03  0.17628277635E+03  0.41800000000E+01 0.  1.
        -11    1    3    3    0    0  0.21870108473E+02  0.76766335684E+01 -0.56386001741E+02  0.60964034806E+02  0.00000000000E+00 0.  1.
         11    1    3    3    0    0 -0.52536526861E+02 -0.65441993732E+02 -0.11763323455E+03  0.14450023899E+03  0.00000000000E+00 0. -1.
</event>
<event>
 8    1  0.4798744E-006  0.1052638E+03  0.7561462E-02  0.1269601E+00
          1   -1    0    0  501    0  0.00000000000E+00  0.00000000000E+00  0.51820816905E+03  0.51820816905E+03  0.00000000000E+00 0. -1.
         -1   -1    0    0    0  501 -0.00000000000E+00 -0.00000000000E+00 -0.24960388893E+02  0.24960388893E+02  0.00000000000E+00 0.  1.
         23    2    1    2    0    0 -0.16163040745E+02 -0.33834748642E+02  0.24082085931E+03  0.27392190945E+03  0.12502996480E+03 0.  0.
         23    2    1    2    0    0  0.16163040745E+02  0.33834748642E+02  0.25242692085E+03  0.26924664850E+03  0.85839229107E+02 0.  0.
          5    1    3    3  502    0 -0.67116298451E+02 -0.11495159664E+02  0.88759974294E+02  0.11194883497E+03  0.41800000000E+01 0.  1.
         -5    1    3    3    0  502  0.50953257707E+02 -0.22339588977E+02  0.15206088501E+03  0.16197307448E+03  0.41800000000E+01 0.  1.
        -11    1    4    4    0    0  0.64283299003E+01  0.59094427768E+02  0.21493325505E+03  0.22300174650E+03  0.00000000000E+00 0. -1.
         11    1    4    4    0    0  0.97347108443E+01 -0.25259679127E+02  0.37493665807E+02  0.46244901994E+02  0.00000000000E+00 0.  1.
</event>
<event>
 8    1  0.4798744E-006  0.4896941E+02  0.7561462E-02  0.1450981E+00
          1   -1    0    0  501    0  0.00000000000E+00  0.00000000000E+00  0.14945687422E+03  0.14945687422E+03  0.00000000000E+00 0. -1.
         -1   -1    0    0    0  501 -0.00000000000E+00 -0.00000000000E+00 -0.79871447199E+02  0.79871447199E+02  0.00000000000E+00 0.  1.
         23    2    1    2    0    0 -0.86088547152E+01  0.18799356334E+02  0.33630084151E+02  0.13116918544E+03  0.12508734736E+03 0.  0.
         23    2    1    2    0    0  0.86088547152E+01 -0.18799356334E+02  0.35955342867E+02  0.98159135979E+02  0.88965730016E+02 0.  0.
          5    1    3    3  502    0 -0.23642462332E+02 -0.52820775419E+01 -0.42895555481E+02  0.49440544579E+02  0.41800000000E+01 0. -1.
         -5    1    3    3    0  502  0.15033607616E+02  0.24081433876E+02  0.76525639633E+02  0.81728640859E+02  0.41800000000E+01 0. -1.
        -11    1    4    4    0    0 -0.51640256269E+01  0.10823613152E+02  0.57688702362E+02  0.58922017469E+02  0.00000000000E+00 0. -1.
         11    1    4    4    0    0  0.13772880342E+02 -0.29622969485E+02 -0.21733359495E+02  0.39237118510E+02  0.00000000000E+00 0.  1.
</event>
<event>
 8    1  0.4798744E-006  0.1136047E+03  0.7561462E-02  0.1254036E+00
          2   -1    0    0  501    0  0.00000000000E+00  0.00000000000E+00  0.23810263360E+03  0.23810263360E+03  0.00000000000E+00 0.  1.
         -2   -1    0    0    0  501 -0.00000000000E+00 -0.00000000000E+00 -0.10366458874E+03  0.10366458874E+03  0.00000000000E+00 0. -1.
         23    2    1    2    0    0 -0.51301696666E+02 -0.96763286223E+02  0.42148197506E+02  0.17152086371E+03  0.12509172032E+03 0.  0.
         23    2    1    2    0    0  0.51301696666E+02  0.96763286223E+02  0.92289847354E+02  0.17024635863E+03  0.92040257817E+02 0.  0.
          5    1    3    3  502    0 -0.94268469870E+01 -0.56183596776E+02  0.82601127977E+02  0.10042848567E+03  0.41800000000E+01 0.  1.
         -5    1    3    3    0  502 -0.41874849679E+02 -0.40579689447E+02 -0.40452930471E+02  0.71092378037E+02  0.41800000000E+01 0.  1.
        -11    1    4    4    0    0  0.23299653005E+02  0.66172275098E+02  0.12052838166E+01  0.70164781272E+02  0.00000000000E+00 0. -1.
         11    1    4    4    0    0  0.28002043661E+02  0.30591011125E+02  0.91084563538E+02  0.10008157735E+03  0.00000000000E+00 0.  1.
</event>
<event>
 8    1  0.4798744E-006  0.1195522E+03  0.7561462E-02  0.1243838E+00
          1   -1    0    0  501    0  0.00000000000E+00  0.00000000000E+00  0.44144631971E+02  0.44144631971E+02  0.00000000000E+00 0. -1.
         -1   -1    0    0    0  501 -0.00000000000E+00 -0.00000000000E+00 -0.34957199607E+03  0.34957199607E+03  0.00000000000E+00 0.  1.
         23    2    1    2    0    0  0.60632771091E+02  0.15757015128E+01 -0.17528684764E+03  0.22372373398E+03  0.12509202383E+03 0.  0.
         23    2    1    2    0    0 -0.60632771091E+02 -0.15757015128E+01 -0.13014051646E+03  0.16999289406E+03  0.91006671406E+02 0.  0.
          5    1    3    3  502    0  0.23180718584E+02  0.62395138809E+02 -0.72776021884E+02  0.98713326468E+02  0.41800000000E+01 0.  1.
         -5    1    3    3    0  502  0.37452052507E+02 -0.60819437296E+02 -0.10251082576E+03  0.12501040751E+03  0.41800000000E+01 0.  1.
        -11    1    4    4    0    0 -0.60793380141E+02  0.31031605387E+02 -0.11569556504E+03  0.13432892232E+03  0.00000000000E+00 0.  1.
         11    1    4    4    0    0  0.16060905083E+00 -0.32607306900E+02 -0.14444951420E+02  0.35663971737E+02  0.00000000000E+00 0. -1.
</event>
<event>
 8    1  0.4798744E-006  0.7625682E+02  0.7561462E-02  0.1340023E+00
         -1   -1    0    0    0  501 -0.00000000000E+00  0.00000000000E+00  0.97732067077E+02  0.97732067077E+02  0.00000000000E+00 0.  1.
          1   -1    0    0  501    0  0.00000000000E+00 -0.00000000000E+00 -0.92294921559E+02  0.92294921559E+02  0.00000000000E+00 0. -1.
         23    2    1    2    0    0 -0.46817585561E+01 -0.18760091920E+02  0.25703664767E+02  0.12916209865E+03  0.12509320299E+03 0.  0.
         23    2    1    2    0    0  0.46817585561E+01  0.18760091920E+02 -0.20266519249E+02  0.60864889987E+02  0.54036498023E+02 0.  0.
          5    1    3    3  502    0 -0.58621101463E+02 -0.27231891745E+02  0.34991184875E+02  0.73619731620E+02  0.41800000000E+01 0.  1.
         -5    1    3    3    0  502  0.53939342907E+02  0.84717998251E+01 -0.92875201080E+01  0.55542367030E+02  0.41800000000E+01 0.  1.
        -11    1    4    4    0    0  0.15382628516E+02  0.64782215369E+01 -0.35079037157E+02  0.38847541264E+02  0.00000000000E+00 0. -1.
         11    1    4    4    0    0 -0.10700869960E+02  0.12281870383E+02  0.14812517909E+02  0.22017348723E+02  0.00000000000E+00 0.  1.
</event>
<event>
 8    1  0.4798744E-006  0.1321540E+03  0.7561462E-02  0.1224294E+00
          1   -1    0    0  501    0  0.00000000000E+00  0.00000000000E+00  0.50424333137E+02  0.50424333137E+02  0.00000000000E+00 0. -1.
         -1   -1    0    0    0  501 -0.00000000000E+00 -0.00000000000E+00 -0.47039549290E+03  0.47039549290E+03  0.00000000000E+00 0.  1.
         23    2    1    2    0    0 -0.99110919692E+02 -0.10107357737E+02 -0.30398981375E+03  0.34348654759E+03  0.12509223967E+03 0.  0.
         23    2    1    2    0    0  0.99110919692E+02  0.10107357737E+02 -0.11598134601E+03  0.17733327845E+03  0.89834770222E+02 0.  0.
          5    1    3    3  502    0 -0.17314636232E+02 -0.40091521715E+02 -0.23539088783E+02  0.49786422266E+02  0.41800000000E+01 0.  1.
         -5    1    3    3    0  502 -0.81796283460E+02  0.29984163978E+02 -0.28045072497E+03  0.29370012532E+03  0.41800000000E+01 0.  1.
        -11    1    4    4    0    0  0.89564478942E+02 -0.28074638520E+02 -0.71875224060E+02  0.11822025651E+03  0.00000000000E+00 0.  1.
         11    1    4    4    0    0  0.95464407509E+01  0.38181996257E+02 -0.44106121953E+02  0.59113021940E+02  0.00000000000E+00 0. -1.
</event>
<event>
 8    1  0.4798744E-006  0.1604394E+03  0.7561462E-02  0.1188202E+00
         -1   -1    0    0    0  501 -0.00000000000E+00  0.00000000000E+00  0.55103183604E+02  0.55103183604E+02  0.00000000000E+00 0.  1.
          1   -1    0    0  501    0  0.00000000000E+00 -0.00000000000E+00 -0.53273016113E+03  0.53273016113E+03  0.00000000000E+00 0. -1.
         23    2    1    2    0    0  0.11660856660E+02 -0.12647753239E+03 -0.20300389344E+03  0.27016807906E+03  0.12509064080E+03 0.  0.
         23    2    1    2    0    0 -0.11660856660E+02  0.12647753239E+03 -0.27462308409E+03  0.31766526567E+03  0.96751438867E+02 0.  0.
          5    1    3    3  502    0  0.65250155545E+02 -0.73382994275E+02 -0.84438093208E+02  0.12957588754E+03  0.41800000000E+01 0.  1.
         -5    1    3    3    0  502 -0.53589298886E+02 -0.53094538115E+02 -0.11856580023E+03  0.14059219152E+03  0.41800000000E+01 0.  1.
        -11    1    4    4    0    0 -0.35982419625E+02  0.27972380592E+02 -0.35059706766E+02  0.57501057700E+02  0.00000000000E+00 0.  1.
         11    1    4    4    0    0  0.24321562965E+02  0.98505151798E+02 -0.23956337732E+03  0.26016420797E+03  0.00000000000E+00 0. -1.
</event>
<event>
 8    1  0.4798744E-006  0.1144867E+03  0.7561462E-02  0.1252480E+00
         -4   -1    0    0    0  501 -0.00000000000E+00  0.00000000000E+00  0.17036553556E+03  0.17036553556E+03  0.00000000000E+00 0.  1.
          4   -1    0    0  501    0  0.00000000000E+00 -0.00000000000E+00 -0.98679108298E+02  0.98679108298E+02  0.00000000000E+00 0. -1.
         23    2    1    2    0    0  0.41916588095E+01 -0.46772117783E+02  0.82695039352E+02  0.15713498880E+03  0.12509090361E+03 0.  0.
         23    2    1    2    0    0 -0.41916588095E+01  0.46772117783E+02 -0.11008612089E+02  0.11190965506E+03  0.10098207935E+03 0.  0.
          5    1    3    3  502    0  0.52570066576E+02  0.59955228686E+01  0.63773402842E+02  0.82970341112E+02  0.41800000000E+01 0. -1.
         -5    1    3    3    0  502 -0.48378407766E+02 -0.52767640652E+02  0.18921636510E+02  0.74164647685E+02  0.41800000000E+01 0. -1.
        -11    1    4    4    0    0  0.35780281803E+02  0.52781586994E+02 -0.25910134310E+02  0.68829205657E+02  0.00000000000E+00 0. -1.
         11    1    4    4    0    0 -0.39971940612E+02 -0.60094692105E+01  0.14901522220E+02  0.43080449405E+02  0.00000000000E+00 0.  1.
</event>
<event>
 7    1  0.4798744E-006  0.1543172E+03  0.7561462E-02  0.1195266E+00
          4   -1    0    0  501    0  0.00000000000E+00  0.00000000000E+00  0.46205789038E+03  0.46205789038E+03  0.00000000000E+00 0. -1.
         -4   -1    0    0    0  501 -0.00000000000E+00 -0.00000000000E+00 -0.55128935703E+02  0.55128935703E+02  0.00000000000E+00 0.  1.
         23    2    1    2    0    0 -0.88050710232E+02 -0.77779007371E+01  0.17625348726E+03  0.21784523129E+03  0.92616573639E+02 0.  0.
          5    1    1    2  502    0  0.15555269581E+02 -0.71481189376E+02  0.14279041035E+03  0.16049330371E+03  0.41800000000E+01 0. -1.
         -5    1    1    2    0  502  0.72495440651E+02  0.79259090114E+02  0.87885057055E+02  0.13884829107E+03  0.41800000000E+01 0.  1.
        -11    1    3    3    0    0  0.44605259882E+01  0.28240588625E+02  0.34966408422E+02  0.45167209964E+02  0.00000000000E+00 0.  1.
         11    1    3    3    0    0 -0.92511236220E+02 -0.36018489362E+02  0.14128707884E+03  0.17267802133E+03  0.00000000000E+00 0. -1.
</event>
<event>
 8    1  0.4798744E-006  0.8488746E+02  0.7561462E-02  0.1315727E+00
         -2   -1    0    0    0  501 -0.00000000000E+00  0.00000000000E+00  0.14269864257E+03  0.14269864257E+03  0.00000000000E+00 0.  1.
          2   -1    0    0  501    0  0.00000000000E+00 -0.00000000000E+00 -0.12226196873E+03  0.12226196873E+03  0.00000000000E+00 0. -1.
         23    2    1    2    0    0  0.54006293159E+02 -0.29005625133E+02  0.55900707916E+02  0.15010097015E+03  0.12508959231E+03 0.  0.
         23    2    1    2    0    0 -0.54006293159E+02  0.29005625133E+02 -0.35464034070E+02  0.11485964115E+03  0.90426950976E+02 0.  0.
          5    1    3    3  502    0  0.47440204051E+02  0.33902289011E+00 -0.31818720000E+02  0.57276445764E+02  0.41800000000E+01 0. -1.
         -5    1    3    3    0  502  0.65660891079E+01 -0.29344648023E+02  0.87719427916E+02  0.92824524386E+02  0.41800000000E+01 0. -1.
        -11    1    4    4    0    0 -0.61357492057E+02 -0.52368111982E+00  0.79184039857E+01  0.61868547705E+02  0.00000000000E+00 0.  1.
         11    1    4    4    0    0  0.73511988988E+01  0.29529306252E+02 -0.43382438055E+02  0.52991093446E+02  0.00000000000E+00 0. -1.
</event>
<event>
 8    1  0.4798744E-006  0.1807412E+03  0.7561462E-02  0.1167088E+00
         -1   -1    0    0    0  501 -0.00000000000E+00  0.00000000000E+00  0.52270394948E+03  0.52270394948E+03  0.00000000000E+00 0. -1.
          1   -1    0    0  501    0  0.00000000000E+00 -0.00000000000E+00 -0.85343982817E+02  0.85343982817E+02  0.00000000000E+00 0.  1.
         23    2    1    2    0    0 -0.62696992299E+02 -0.16212557704E+03  0.30385800394E+03  0.37174254879E+03  0.12508885022E+03 0.  0.
         23    2    1    2    0    0  0.62696992299E+02  0.16212557704E+03  0.13350196273E+03  0.23630538351E+03  0.88328051330E+02 0.  0.
          5    1    3    3  502    0 -0.23902103415E+02 -0.80421466986E+02  0.25579166326E+03  0.26923181516E+03  0.41800000000E+01 0. -1.
         -5    1    3    3    0  502 -0.38794888884E+02 -0.81704110050E+02  0.48066340673E+02  0.10251073362E+03  0.41800000000E+01 0. -1.
        -11    1    4    4    0    0 -0.14428473215E+02  0.39722885493E+02  0.61717591835E+02  0.74800732705E+02  0.00000000000E+00 0. -1.
         11    1    4    4    0    0  0.77125465513E+02  0.12240269154E+03  0.71784370890E+02  0.16150465081E+03  0.00000000000E+00 0.  1.
</event>
<event>
 8    1  0.4798744E-006  0.1144570E+03  0.7561462E-02  0.1252532E+00
         -1   -1    0    0    0  501 -0.00000000000E+00  0.00000000000E+00  0.22463084174E+02  0.22463084174E+02  0.00000000000E+00 0.  1.
          1   -1    0    0  501    0  0.00000000000E+00 -0.00000000000E+00 -0.85848559589E+03  0.85848559589E+03  0.00000000000E+00 0. -1.
         23    2    1    2    0    0 -0.42750346693E+02 -0.59857353338E+02 -0.31742574793E+03  0.34902292751E+03  0.12508958225E+03 0.  0.
         23    2    1    2    0    0  0.42750346693E+02  0.59857353338E+02 -0.51859676379E+03  0.53192575255E+03  0.92692545171E+02 0.  0.
          5    1    3    3  502    0 -0.47970603792E+02 -0.78181077424E+02 -0.12233813278E+03  0.15296257983E+03  0.41800000000E+01 0. -1.
         -5    1    3    3    0  502  0.52202570990E+01  0.18323724086E+02 -0.19508761514E+03  0.19606034767E+03  0.41800000000E+01 0. -1.
        -11    1    4    4    0    0  0.61292500866E+02  0.71427541670E+01 -0.24224731829E+03  0.24998310507E+03  0.00000000000E+00 0.  1.
         11    1    4    4    0    0 -0.18542154172E+02  0.52714599171E+02 -0.27634944549E+03  0.28194264749E+03  0.00000000000E+00 0. -1.
</event>
<event>
 8    1  0.4798744E-006  0.1234766E+03  0.7561462E-02  0.1237469E+00
         -1   -1    0    0    0  501 -0.00000000000E+00  0.00000000000E+00  0.47099234561E+02  0.47099234561E+02  0.00000000000E+00 0.  1.
          1   -1    0    0  501    0  0.00000000000E+00 -0.00000000000E+00 -0.47106370198E+03  0.47106370198E+03  0.00000000000E+00 0. -1.
         23    2    1    2    0    0 -0.58492286068E+02  0.76862387565E+02 -0.17611693603E+03  0.23662781909E+03  0.12508547261E+03 0.  0.
         23    2    1    2    0    0  0.58492286068E+02 -0.76862387565E+02 -0.24784753139E+03  0.28153511745E+03  0.92219571628E+02 0.  0.
          5    1    3    3  502    0 -0.46134702657E+02  0.10726580245E+03 -0.10060233316E+03  0.15418386752E+03  0.41800000000E+01 0. -1.
         -5    1    3    3    0  502 -0.12357583411E+02 -0.30403414887E+02 -0.75514602866E+02  0.82443951570E+02  0.41800000000E+01 0. -1.
        -11    1    4    4    0    0  0.37000622803E+02 -0.41070710904E+02 -0.22926939099E+03  0.23583957053E+03  0.00000000000E+00 0. -1.
         11    1    4    4    0    0  0.21491663265E+02 -0.35791676661E+02 -0.18578140402E+02  0.45695546926E+02  0.00000000000E+00 0.  1.
</event>
<event>
 8    1  0.4798744E-006  0.1731616E+03  0.7561462E-02  0.1174590E+00
         -1   -1    0    0    0  501 -0.00000000000E+00  0.00000000000E+00  0.54044654413E+03  0.54044654413E+03  0.00000000000E+00 0.  1.
          1   -1    0    0  501    0  0.00000000000E+00 -0.00000000000E+00 -0.71367814408E+02  0.71367814408E+02  0.00000000000E+00 0. -1.
         23    2    1    2    0    0  0.15860298192E+03 -0.20644946352E+02  0.29345819058E+03  0.35685362428E+03  0.12508269208E+03 0.  0.
         23    2    1    2    0    0 -0.15860298192E+03  0.20644946352E+02  0.17562053914E+03  0.25496073426E+03  0.92635212308E+02 0.  0.
          5    1    3    3  502    0  0.15705262154E+03 -0.43557665734E+02  0.29076876272E+03  0.33335677877E+03  0.41800000000E+01 0.  1.
         -5    1    3    3    0  502  0.15503603826E+01  0.22912719382E+02  0.26894278596E+01  0.23496845512E+02  0.41800000000E+01 0.  1.
        -11    1    4    4    0    0 -0.45668615340E+02  0.53513822297E+01  0.11926748983E+03  0.12782407382E+03  0.00000000000E+00 0.  1.
         11    1    4    4    0    0 -0.11293436658E+03  0.15293564122E+02  0.56353049312E+02  0.12713666043E+03  0.00000000000E+00 0. -1.
</event>
<event>
 7    1  0.4798744E-006  0.1705805E+03  0.7561462E-02  0.1177244E+00
          1   -1    0    0  501    0  0.00000000000E+00  0.00000000000E+00  0.86624712637E+03  0.86624712637E+03  0.00000000000E+00 0. -1.
         -1   -1    0    0    0  501 -0.00000000000E+00 -0.00000000000E+00 -0.34070878825E+02  0.34070878825E+02  0.00000000000E+00 0.  1.
         23    2    1    2    0    0  0.30753825408E+02 -0.28588266694E+02  0.26847353750E+03  0.28688919490E+03  0.92001538263E+02 0.  0.
          5    1    1    2  502    0  0.11889729578E+02  0.12978549566E+03  0.34117933240E+03  0.36524847680E+03  0.41800000000E+01 0. -1.
         -5    1    1    2    0  502 -0.42643554986E+02 -0.10119722897E+03  0.22252337765E+03  0.24818033350E+03  0.41800000000E+01 0.  1.
        -11    1    3    3    0    0  0.20212575228E+02 -0.62327364218E+02  0.16437467486E+03  0.17695276845E+03  0.00000000000E+00 0.  1.
         11    1    3    3    0    0  0.10541250180E+02  0.33739097524E+02  0.10409886263E+03  0.10993642644E+03  0.00000000000E+00 0. -1.
</event>
<event>
 8    1  0.4798744E-006  0.9143951E+02  0.7561462E-02  0.1299403E+00
          2   -1    0    0  501    0  0.00000000000E+00  0.00000000000E+00  0.91792825829E+02  0.91792825829E+02  0.00000000000E+00 0. -1.
         -2   -1    0    0    0  501 -0.00000000000E+00 -0.00000000000E+00 -0.13272950903E+03  0.13272950903E+03  0.00000000000E+00 0.  1.
         23    2    1    2    0    0  0.19977598898E+02  0.25670230195E+01 -0.34837170900E+02  0.13140280932E+03  0.12508947100E+03 0.  0.
         23    2    1    2    0    0 -0.19977598898E+02 -0.25670230195E+01 -0.60995123029E+01  0.93119525544E+02  0.90710241551E+02 0.  0.
          5    1    3    3  502    0  0.47566531274E+02  0.29739555984E+02 -0.62153327695E+02  0.83830332405E+02  0.41800000000E+01 0. -1.
         -5    1    3    3    0  502 -0.27588932376E+02 -0.27172532965E+02  0.27316156795E+02  0.47572476911E+02  0.41800000000E+01 0. -1.
        -11    1    4    4    0    0 -0.33035658688E+02 -0.37741119012E+02 -0.18715998710E+02  0.53535366039E+02  0.00000000000E+00 0.  1.
         11    1    4    4    0    0  0.13058059790E+02  0.35174095993E+02  0.12616486407E+02  0.39584159504E+02  0.00000000000E+00 0. -1.
</event>
<event>
 8    1  0.4798744E-006  0.1988919E+03  0.7561462E-02  0.1150677E+00
         -1   -1    0    0    0  501 -0.00000000000E+00  0.00000000000E+00  0.20609703161E+03  0.20609703161E+03  0.00000000000E+00 0.  1.
          1   -1    0    0  501    0  0.00000000000E+00 -0.00000000000E+00 -0.23605133951E+03  0.23605133951E+03  0.00000000000E+00 0. -1.
         23    2    1    2    0    0 -0.26508906195E+02 -0.18976566684E+03  0.92983020139E+01  0.22900241901E+03  0.12506765800E+03 0.  0.
         23    2    1    2    0    0  0.26508906195E+02  0.18976566684E+03 -0.39252609915E+02  0.21314595210E+03  0.84715400582E+02 0.  0.
          5    1    3    3  502    0 -0.16670866419E+02 -0.15320687430E+03 -0.46871874837E+02  0.16113568559E+03  0.41800000000E+01 0.  1.
         -5    1    3    3    0  502 -0.98380397765E+01 -0.36558792537E+02  0.56170176850E+02  0.67866733425E+02  0.41800000000E+01 0.  1.
        -11    1    4    4    0    0  0.52675597859E+02  0.12212024356E+03 -0.54035862670E+01  0.13310624043E+03  0.00000000000E+00 0. -1.
         11    1    4    4    0    0 -0.26166691664E+02  0.67645423272E+02 -0.33849023648E+02  0.80039711670E+02  0.00000000000E+00 0.  1.
</event>
<event>
 8    1  0.4798744E-006  0.1235045E+03  0.7561462E-02  0.1237425E+00
         -2   -1    0    0    0  501 -0.00000000000E+00  0.00000000000E+00  0.70906218515E+02  0.70906218515E+02  0.00000000000E+00 0.  1.
          2   -1    0    0  501    0  0.00000000000E+00 -0.00000000000E+00 -0.24418035936E+03  0.24418035936E+03  0.00000000000E+00 0. -1.
         23    2    1    2    0    0 -0.52284169652E+02  0.41572048300E+02 -0.53446372752E+02  0.15154715557E+03  0.12509258972E+03 0.  0.
         23    2    1    2    0    0  0.52284169652E+02 -0.41572048300E+02 -0.11982776809E+03  0.16353942230E+03  0.89020104731E+02 0.  0.
          5    1    3    3  502    0 -0.46738426295E+02  0.82520355335E+02 -0.17310751965E+02  0.96494684158E+02  0.41800000000E+01 0. -1.
         -5    1    3    3    0  502 -0.55457433570E+01 -0.40948307036E+02 -0.36135620787E+02  0.55052471408E+02  0.41800000000E+01 0. -1.
        -11    1    4    4    0    0  0.33087125258E+02  0.24866988246E+02 -0.35903447761E+02  0.54792175750E+02  0.00000000000E+00 0.  1.
         11    1    4    4    0    0  0.19197044394E+02 -0.66439036546E+02 -0.83924320328E+02  0.10874724655E+03  0.00000000000E+00 0. -1.
</event>
<event>
 8    1  0.4798744E-006  0.1127186E+03  0.7561462E-02  0.1255617E+00
         -1   -1    0    0    0  501 -0.00000000000E+00  0.00000000000E+00  0.25659652620E+02  0.25659652620E+02  0.00000000000E+00 0.  1.
          1   -1    0    0  501    0  0.00000000000E+00 -0.00000000000E+00 -0.58073602952E+03  0.58073602952E+03  0.00000000000E+00 0. -1.
         23    2    1    2    0    0 -0.10414889175E+02  0.48558263723E+02 -0.18063688880E+03  0.21788132486E+03  0.11124842127E+03 0.  0.
         23    2    1    2    0    0  0.10414889175E+02 -0.48558263723E+02 -0.37443948810E+03  0.38851435728E+03  0.90951089446E+02 0.  0.
          5    1    3    3  502    0  0.41972915763E+02 -0.97748664313E+01 -0.62515242854E+02  0.76045392106E+02  0.41800000000E+01 0. -1.
         -5    1    3    3    0  502 -0.52387804938E+02  0.58333130154E+02 -0.11812164595E+03  0.14183593276E+03  0.41800000000E+01 0.  1.
        -11    1    4    4    0    0  0.17518163303E+02  0.24556278715E+02 -0.11041968712E+03  0.11446573363E+03  0.00000000000E+00 0.  1.
         11    1    4    4    0    0 -0.71032741280E+01 -0.73114542438E+02 -0.26401980098E+03  0.27404862366E+03  0.00000000000E+00 0. -1.
</event>
<event>
 8    1  0.4798744E-006  0.1574477E+03  0.7561462E-02  0.1191609E+00
          1   -1    0    0  501    0  0.00000000000E+00  0.00000000000E+00  0.37358574469E+03  0.37358574469E+03  0.00000000000E+00 0. -1.
         -1   -1    0    0    0  501 -0.00000000000E+00 -0.00000000000E+00 -0.83133817737E+02  0.83133817737E+02  0.00000000000E+00 0.  1.
         23    2    1    2    0    0 -0.89047327209E+02 -0.84757055964E+02  0.93069702036E+02  0.19855528538E+03  0.12509615061E+03 0.  0.
         23    2    1    2    0    0  0.89047327209E+02  0.84757055964E+02  0.19738222492E+03  0.25816427705E+03  0.11214216964E+03 0.  0.
          5    1    3    3  502    0 -0.94560575131E+02 -0.34850686389E+02  0.10622368916E+03  0.14648282237E+03  0.41800000000E+01 0. -1.
         -5    1    3    3    0  502  0.55132479221E+01 -0.49906369575E+02 -0.13153987123E+02  0.52072463011E+02  0.41800000000E+01 0. -1.
        -11    1    4    4    0    0  0.75660281905E+02  0.11091442263E+03  0.14170925613E+03  0.19521270624E+03  0.00000000000E+00 0.  1.
         11    1    4    4    0    0  0.13387045304E+02 -0.26157366668E+02  0.55672968788E+02  0.62951570804E+02  0.00000000000E+00 0. -1.
</event>
<event>
 8    1  0.4798744E-006  0.2082626E+03  0.7561462E-02  0.1142949E+00
          2   -1    0    0  501    0  0.00000000000E+00  0.00000000000E+00  0.10374635402E+04  0.10374635402E+04  0.00000000000E+00 0. -1.
         -2   -1    0    0    0  501 -0.00000000000E+00 -0.00000000000E+00 -0.99901839139E+02  0.99901839139E+02  0.00000000000E+00 0.  1.
         23    2    1    2    0    0  0.18110931455E+03  0.71087542518E+01  0.48375346739E+02  0.22548124736E+03  0.12510196057E+03 0.  0.
         23    2    1    2    0    0 -0.18110931455E+03 -0.71087542518E+01  0.88918635429E+03  0.91188413194E+03  0.89605687502E+02 0.  0.
          5    1    3    3  502    0  0.34702027050E+02 -0.50096524952E+02  0.27026594926E+02  0.66796719433E+02  0.41800000000E+01 0. -1.
         -5    1    3    3    0  502  0.14640728750E+03  0.57205279204E+02  0.21348751813E+02  0.15868452793E+03  0.41800000000E+01 0. -1.
        -11    1    4    4    0    0 -0.85044032551E+02  0.36688349535E+02  0.32671143876E+03  0.33958634643E+03  0.00000000000E+00 0.  1.
         11    1    4    4    0    0 -0.96065281995E+02 -0.43797103787E+02  0.56247491553E+03  0.57229778551E+03  0.00000000000E+00 0. -1.
</event>
<event>
 8    1  0.4798744E-006  0.1208357E+03  0.7561462E-02  0.1241725E+00
          2   -1    0    0  501    0  0.00000000000E+00  0.00000000000E+00  0.95242822841E+02  0.95242822841E+02  0.00000000000E+00 0. -1.
         -2   -1    0    0    0  501 -0.00000000000E+00 -0.00000000000E+00 -0.18657576897E+03  0.18657576897E+03  0.00000000000E+00 0.  1.
         23    2    1    2    0    0 -0.58735873957E+02 -0.32062705050E+02 -0.52235273218E+02  0.15117717266E+03  0.12509234118E+03 0.  0.
         23    2    1    2    0    0  0.58735873957E+02  0.32062705050E+02 -0.39097672906E+02  0.13064141915E+03  0.10516954134E+03 0.  0.
          5    1    3    3  502    0 -0.49453027392E+02 -0.65889013132E+02  0.63852263150E+01  0.82735769078E+02  0.41800000000E+01 0. -1.
         -5    1    3    3    0  502 -0.92828465643E+01  0.33826308082E+02 -0.58620499533E+02  0.68441403582E+02  0.41800000000E+01 0. -1.
        -11    1    4    4    0    0  0.68527165326E+02 -0.19599934634E+02 -0.15172951756E+02  0.72872136583E+02  0.00000000000E+00 0.  1.
         11    1    4    4    0    0 -0.97912913689E+01  0.51662639683E+02 -0.23924721150E+02  0.57769282563E+02  0.00000000000E+00 0. -1.
</event>
<event>
 8    1  0.4798744E-006  0.1111414E+03  0.7561462E-02  0.1258471E+00
         -1   -1    0    0    0  501 -0.00000000000E+00  0.00000000000E+00  0.35746307483E+02  0.35746307483E+02  0.00000000000E+00 0. -1.
          1   -1    0    0  501    0  0.00000000000E+00 -0.00000000000E+00 -0.42583923394E+03  0.42583923394E+03  0.00000000000E+00 0.  1.
         23    2    1    2    0    0  0.60372471753E+02 -0.19833537409E+02 -0.18576905403E+03  0.23280005298E+03  0.12509004228E+03 0.  0.
         23    2    1    2    0    0 -0.60372471753E+02  0.19833537409E+02 -0.20432387243E+03  0.22878548844E+03  0.80971293236E+02 0.  0.
          5    1    3    3  502    0  0.96974082827E+02 -0.21566658642E+02 -0.15779969286E+03  0.18651356244E+03  0.41800000000E+01 0.  1.
         -5    1    3    3    0  502 -0.36601611073E+02  0.17331212329E+01 -0.27969361167E+02  0.46286490539E+02  0.41800000000E+01 0.  1.
        -11    1    4    4    0    0 -0.13323958441E+02  0.34260754379E+02 -0.29399547174E+02  0.47070803405E+02  0.00000000000E+00 0. -1.
         11    1    4    4    0    0 -0.47048513313E+02 -0.14427216970E+02 -0.17492432525E+03  0.18171468504E+03  0.00000000000E+00 0.  1.
</event>
<event>
 8    1  0.4798744E-006  0.1149636E+03  0.7561462E-02  0.1251645E+00
          1   -1    0    0  501    0  0.00000000000E+00  0.00000000000E+00  0.42517258709E+02  0.42517258709E+02  0.00000000000E+00 0. -1.
         -1   -1    0    0    0  501 -0.00000000000E+00 -0.00000000000E+00 -0.34939515902E+03  0.34939515902E+03  0.00000000000E+00 0.  1.
         23    2    1    2    0    0  0.18334450604E+01  0.54337167883E+02 -0.19781374345E+03  0.24027914676E+03  0.12509157418E+03 0.  0.
         23    2    1    2    0    0 -0.18334450604E+01 -0.54337167883E+02 -0.10906415686E+03  0.15163327098E+03  0.90231752843E+02 0.  0.
          5    1    3    3  502    0 -0.56988131310E+02  0.24439042855E+02 -0.55356867060E+02  0.83227213438E+02  0.41800000000E+01 0.  1.
         -5    1    3    3    0  502  0.58821576371E+02  0.29898125028E+02 -0.14245687639E+03  0.15705193332E+03  0.41800000000E+01 0.  1.
        -11    1    4    4    0    0  0.30954636395E+02 -0.60816258049E+02 -0.90679979775E+02  0.11348861392E+03  0.00000000000E+00 0.  1.
         11    1    4    4    0    0 -0.32788081456E+02  0.64790901657E+01 -0.18384177086E+02  0.38144657057E+02  0.00000000000E+00 0. -1.
</event>
<event>
 8    1  0.4798744E-006  0.1060776E+03  0.7561462E-02  0.1268011E+00
          2   -1    0    0  501    0  0.00000000000E+00  0.00000000000E+00  0.35848126443E+03  0.35848126443E+03  0.00000000000E+00 0. -1.
         -2   -1    0    0    0  501 -0.00000000000E+00 -0.00000000000E+00 -0.45081621624E+02  0.45081621624E+02  0.00000000000E+00 0.  1.
         23    2    1    2    0    0 -0.20618474336E+02 -0.43908027769E+02  0.11912614313E+03  0.17942417895E+03  0.12509580979E+03 0.  0.
         23    2    1    2    0    0  0.20618474336E+02  0.43908027769E+02  0.19427349968E+03  0.22413870711E+03  0.10071211924E+03 0.  0.
          5    1    3    3  502    0  0.46915388574E+02 -0.27854570460E+02  0.87098773429E+02  0.10286204117E+03  0.41800000000E+01 0. -1.
         -5    1    3    3    0  502 -0.67533862910E+02 -0.16053457309E+02  0.32027369705E+02  0.76562137779E+02  0.41800000000E+01 0. -1.
        -11    1    4    4    0    0 -0.26755004169E+02  0.25824317582E+02  0.19159448333E+02  0.41830731371E+02  0.00000000000E+00 0.  1.
         11    1    4    4    0    0  0.47373478504E+02  0.18083710187E+02  0.17511405135E+03  0.18230797574E+03  0.00000000000E+00 0. -1.
</event>
<event>
 8    1  0.4798744E-006  0.1141500E+03  0.7561462E-02  0.1253072E+00
         -1   -1    0    0    0  501 -0.00000000000E+00  0.00000000000E+00  0.30563956373E+02  0.30563956373E+02  0.00000000000E+00 0.  1.
          1   -1    0    0  501    0  0.00000000000E+00 -0.00000000000E+00 -0.62918627591E+03  0.62918627591E+03  0.00000000000E+00 0. -1.
         23    2    1    2    0    0 -0.22264823690E+02  0.35561502177E+02 -0.14694251033E+03  0.19748100506E+03  0.12508518380E+03 0.  0.
         23    2    1    2    0    0  0.22264823690E+02 -0.35561502177E+02 -0.45167980921E+03  0.46226922723E+03  0.88982276776E+02 0.  0.
          5    1    3    3  502    0  0.16081781553E+02  0.74628503568E+02 -0.94521831520E+02  0.12157255561E+03  0.41800000000E+01 0. -1.
         -5    1    3    3    0  502 -0.38346605244E+02 -0.39067001392E+02 -0.52420678808E+02  0.75908449451E+02  0.41800000000E+01 0. -1.
        -11    1    4    4    0    0  0.30868530670E+02 -0.61934969103E+02 -0.28395524369E+03  0.29226595252E+03  0.00000000000E+00 0.  1.
         11    1    4    4    0    0 -0.86037069793E+01  0.26373466926E+02 -0.16772456552E+03  0.17000327471E+03  0.00000000000E+00 0. -1.
</event>
<event>
 8    1  0.4798744E-006  0.1284259E+03  0.7561462E-02  0.1229810E+00
         -2   -1    0    0    0  501 -0.00000000000E+00  0.00000000000E+00  0.36220892784E+03  0.36220892784E+03  0.00000000000E+00 0.  1.
          2   -1    0    0  501    0  0.00000000000E+00 -0.00000000000E+00 -0.59081578726E+02  0.59081578726E+02  0.00000000000E+00 0. -1.
         23    2    1    2    0    0  0.94771322512E+02 -0.23975913390E+02  0.16777971091E+03  0.23098087880E+03  0.12508272057E+03 0.  0.
         23    2    1    2    0    0 -0.94771322512E+02  0.23975913390E+02  0.13534763821E+03  0.19030962777E+03  0.91336319490E+02 0.  0.
          5    1    3    3  502    0  0.10757901216E+02  0.45739286468E+02  0.33432802871E+02  0.57819023453E+02  0.41800000000E+01 0.  1.
         -5    1    3    3    0  502  0.84013421296E+02 -0.69715199858E+02  0.13434690804E+03  0.17316185535E+03  0.41800000000E+01 0.  1.
        -11    1    4    4    0    0 -0.36102841883E+02 -0.22304020075E+01  0.11847792723E+03  0.12387658829E+03  0.00000000000E+00 0.  1.
         11    1    4    4    0    0 -0.58668480629E+02  0.26206315398E+02  0.16869710983E+02  0.66433039481E+02  0.00000000000E+00 0. -1.
</event>
<event>
 8    1  0.4798744E-006  0.1847009E+03  0.7561462E-02  0.1163329E+00
         -1   -1    0    0    0  501 -0.00000000000E+00  0.00000000000E+00  0.43891010897E+03  0.43891010897E+03  0.00000000000E+00 0.  1.
          1   -1    0    0  501    0  0.00000000000E+00 -0.00000000000E+00 -0.99107489666E+02  0.99107489666E+02  0.00000000000E+00 0. -1.
         23    2    1    2    0    0 -0.13849115255E+03 -0.53819207784E+02  0.30124660649E+03  0.35843195114E+03  0.12509052408E+03 0.  0.
         23    2    1    2    0    0  0.13849115255E+03  0.53819207784E+02  0.38556012816E+02  0.17958564750E+03  0.93210150747E+02 0.  0.
          5    1    3    3  502    0 -0.52156770889E+02  0.40491294171E+02  0.10913852360E+03  0.12762665625E+03  0.41800000000E+01 0. -1.
         -5    1    3    3    0  502 -0.86334381660E+02 -0.94310501955E+02  0.19210808289E+03  0.23080529489E+03  0.41800000000E+01 0. -1.
        -11    1    4    4    0    0  0.10980796236E+03 -0.49474634910E+01  0.21457025109E+02  0.11199406198E+03  0.00000000000E+00 0. -1.
         11    1    4    4    0    0  0.28683190190E+02  0.58766671275E+02  0.17098987707E+02  0.67591585518E+02  0.00000000000E+00 0.  1.
</event>
<event>
 8    1  0.4798744E-006  0.1810895E+03  0.7561462E-02  0.1166753E+00
         -2   -1    0    0    0  501 -0.00000000000E+00  0.00000000000E+00  0.93739191416E+02  0.93739191416E+02  0.00000000000E+00 0.  1.
          2   -1    0    0  501    0  0.00000000000E+00 -0.00000000000E+00 -0.47997253454E+03  0.47997253454E+03  0.00000000000E+00 0. -1.
         23    2    1    2    0    0 -0.11756459076E+03 -0.12891116866E+03 -0.13577538923E+03  0.25401146720E+03  0.12508935504E+03 0.  0.
         23    2    1    2    0    0  0.11756459076E+03  0.12891116866E+03 -0.25045795389E+03  0.31970025875E+03  0.95076529028E+02 0.  0.
          5    1    3    3  502    0 -0.12161698646E+02 -0.18589756138E+02  0.24052245445E+02  0.33007103147E+02  0.41800000000E+01 0. -1.
         -5    1    3    3    0  502 -0.10540289212E+03 -0.11032141252E+03 -0.15982763467E+03  0.22100436406E+03  0.41800000000E+01 0. -1.
        -11    1    4    4    0    0  0.11942461355E+03  0.94010628973E+02 -0.15085580841E+03  0.21414413747E+03  0.00000000000E+00 0.  1.
         11    1    4    4    0    0 -0.18600227905E+01  0.34900539682E+02 -0.99602145483E+02  0.10555612128E+03  0.00000000000E+00 0. -1.
</event>
<event>
 8    1  0.4798744E-006  0.1019305E+03  0.7561462E-02  0.1276288E+00
         -2   -1    0    0    0  501 -0.00000000000E+00  0.00000000000E+00  0.72619036546E+02  0.72619036546E+02  0.00000000000E+00 0. -1.
          2   -1    0    0  501    0  0.00000000000E+00 -0.00000000000E+00 -0.22144863934E+03  0.22144863934E+03  0.00000000000E+00 0.  1.
         23    2    1    2    0    0 -0.48228680336E+02 -0.32541764878E+02 -0.47450570274E+02  0.14589044907E+03  0.12508994541E+03 0.  0.
         23    2    1    2    0    0  0.48228680336E+02  0.32541764878E+02 -0.10137903252E+03  0.14817722681E+03  0.91070358753E+02 0.  0.
          5    1    3    3  502    0  0.57035173161E+01 -0.70325056547E+02 -0.34493711580E+02  0.78647518884E+02  0.41800000000E+01 0. -1.
         -5    1    3    3    0  502 -0.53932197652E+02  0.37783291669E+02 -0.12956858694E+02  0.67242930187E+02  0.41800000000E+01 0. -1.
        -11    1    4    4    0    0  0.18594833819E+02 -0.51095803618E+01 -0.98289456900E+02  0.10016333158E+03  0.00000000000E+00 0.  1.
         11    1    4    4    0    0  0.29633846517E+02  0.37651345239E+02 -0.30895756201E+01  0.48013895231E+02  0.00000000000E+00 0. -1.
</event>
<event>
 8    1  0.4798744E-006  0.1250281E+03  0.7561462E-02  0.1235025E+00
          1   -1    0    0  501    0  0.00000000000E+00  0.00000000000E+00  0.15477153443E+03  0.15477153443E+03  0.00000000000E+00 0. -1.
         -1   -1    0    0    0  501 -0.00000000000E+00 -0.00000000000E+00 -0.15147191877E+03  0.15147191877E+03  0.00000000000E+00 0.  1.
         23    2    1    2    0    0 -0.65609181792E+02 -0.82028790112E+02 -0.18574697509E+02  0.16439608936E+03  0.12509103751E+03 0.  0.
         23    2    1    2    0    0  0.65609181792E+02  0.82028790112E+02  0.21874313167E+02  0.14184736385E+03  0.92784168432E+02 0.  0.
          5    1    3    3  502    0 -0.30514252597E+02 -0.63342126556E+02 -0.69971258433E+02  0.99281388059E+02  0.41800000000E+01 0.  1.
         -5    1    3    3    0  502 -0.35094929195E+02 -0.18686663556E+02  0.51396560924E+02  0.65114701296E+02  0.41800000000E+01 0.  1.
        -11    1    4    4    0    0  0.85617331351E+02  0.43052440622E+02  0.93889996602E+01  0.96291190593E+02  0.00000000000E+00 0.  1.
         11    1    4    4    0    0 -0.20008149559E+02  0.38976349490E+02  0.12485313507E+02  0.45556173256E+02  0.00000000000E+00 0. -1.
</event>
<event>
 8    1  0.4798744E-006  0.2252352E+03  0.7561462E-02  0.1130039E+00
         -1   -1    0    0    0  501 -0.00000000000E+00  0.00000000000E+00  0.10580089077E+03  0.10580089077E+03  0.00000000000E+00 0.  1.
          1   -1    0    0  501    0  0.00000000000E+00 -0.00000000000E+00 -0.50323376792E+03  0.50323376792E+03  0.00000000000E+00 0. -1.
         23    2    1    2    0    0  0.34808583339E+02  0.19953536147E+03 -0.17585228483E+03  0.29597115136E+03  0.12509555708E+03 0.  0.
         23    2    1    2    0    0 -0.34808583339E+02 -0.19953536147E+03 -0.22158059232E+03  0.31306350734E+03  0.88796411985E+02 0.  0.
          5    1    3    3  502    0  0.46570497836E+02  0.21049792515E+03 -0.14177965091E+03  0.25806419661E+03  0.41800000000E+01 0.  1.
         -5    1    3    3    0  502 -0.11761914497E+02 -0.10962563681E+02 -0.34072633927E+02  0.37906954742E+02  0.41800000000E+01 0.  1.
        -11    1    4    4    0    0  0.12391559636E+02 -0.14732723575E+03 -0.12530070876E+03  0.19380178730E+03  0.00000000000E+00 0.  1.
         11    1    4    4    0    0 -0.47200142975E+02 -0.52208125718E+02 -0.96279883558E+02  0.11926172004E+03  0.00000000000E+00 0. -1.
</event>
<event>
 8    1  0.4798744E-006  0.1565186E+03  0.7561462E-02  0.1192684E+00
         -1   -1    0    0    0  501 -0.00000000000E+00  0.00000000000E+00  0.14984814094E+04  0.14984814094E+04  0.00000000000E+00 0.  1.
          1   -1    0    0  501    0  0.00000000000E+00 -0.00000000000E+00 -0.20820593563E+02  0.20820593563E+02  0.00000000000E+00 0. -1.
         23    2    1    2    0    0 -0.64752638410E+02 -0.10993117939E+03  0.10229166207E+04  0.10384046486E+04  0.12509209835E+03 0.  0.
         23    2    1    2    0    0  0.64752638410E+02  0.10993117939E+03  0.45474419520E+03  0.48089735436E+03  0.90510850109E+02 0.  0.
          5    1    3    3  502    0 -0.10769101365E+02  0.24786881868E+02  0.84296190896E+02  0.88621009115E+02  0.41800000000E+01 0. -1.
         -5    1    3    3    0  502 -0.53983537044E+02 -0.13471806125E+03  0.93862042977E+03  0.94978363951E+03  0.41800000000E+01 0. -1.
        -11    1    4    4    0    0 -0.11061299164E+02  0.20179428485E+02  0.19777961873E+02  0.30343524004E+02  0.00000000000E+00 0.  1.
         11    1    4    4    0    0  0.75813937574E+02  0.89751750901E+02  0.43496623332E+03  0.45055383036E+03  0.00000000000E+00 0. -1.
</event>
<event>
 8    1  0.4798744E-006  0.5362301E+02  0.7561462E-02  0.1426725E+00
         -2   -1    0    0    0  501 -0.00000000000E+00  0.00000000000E+00  0.30013335928E+02  0.30013335928E+02  0.00000000000E+00 0.  1.
          2   -1    0    0  501    0  0.00000000000E+00 -0.00000000000E+00 -0.45003251998E+03  0.45003251998E+03  0.00000000000E+00 0. -1.
         23    2    1    2    0    0 -0.39465681716E+01 -0.39591500714E+02 -0.20719300125E+03  0.24527306453E+03  0.12508746576E+03 0.  0.
         23    2    1    2    0    0  0.39465681716E+01  0.39591500714E+02 -0.21282618280E+03  0.23477279138E+03  0.90775641858E+02 0.  0.
          5    1    3    3  502    0 -0.24754188906E+01 -0.79643146732E+01 -0.21266673523E+03  0.21287125377E+03  0.41800000000E+01 0. -1.
         -5    1    3    3    0  502 -0.14711492810E+01 -0.31627186040E+02  0.54737339829E+01  0.32401810764E+02  0.41800000000E+01 0. -1.
        -11    1    4    4    0    0  0.27540561086E+02  0.13073374807E+02 -0.15350691735E+02  0.34132673065E+02  0.00000000000E+00 0.  1.
         11    1    4    4    0    0 -0.23593992915E+02  0.26518125906E+02 -0.19747549107E+03  0.20064011831E+03  0.00000000000E+00 0. -1.
</event>
<event>
 8    1  0.4798744E-006  0.1389040E+03  0.7561462E-02  0.1214811E+00
         -1   -1    0    0    0  501 -0.00000000000E+00  0.00000000000E+00  0.11395181369E+03  0.11395181369E+03  0.00000000000E+00 0.  1.
          1   -1    0    0  501    0  0.00000000000E+00 -0.00000000000E+00 -0.21812350347E+03  0.21812350347E+03  0.00000000000E+00 0. -1.
         23    2    1    2    0    0 -0.10263190213E+03  0.47529127206E+02 -0.62931509755E+02  0.18000824197E+03  0.12510102713E+03 0.  0.
         23    2    1    2    0    0  0.10263190213E+03 -0.47529127206E+02 -0.41240180021E+02  0.15206707519E+03  0.92904884909E+02 0.  0.
          5    1    3    3  502    0 -0.12928907002E+03  0.36991295705E+02 -0.33367019560E+02  0.13861763950E+03  0.41800000000E+01 0.  1.
         -5    1    3    3    0  502  0.26657167888E+02  0.10537831501E+02 -0.29564490195E+02  0.41390602472E+02  0.41800000000E+01 0.  1.
        -11    1    4    4    0    0  0.48151380524E+02 -0.13287821354E+02  0.28228356010E+02  0.57375619611E+02  0.00000000000E+00 0.  1.
         11    1    4    4    0    0  0.54480521610E+02 -0.34241305853E+02 -0.69468536031E+02  0.94691455579E+02  0.00000000000E+00 0. -1.
</event>
<event>
 8    1  0.4798744E-006  0.2334952E+03  0.7561462E-02  0.1124204E+00
         -2   -1    0    0    0  501 -0.00000000000E+00  0.00000000000E+00  0.39421574400E+03  0.39421574400E+03  0.00000000000E+00 0.  1.
          2   -1    0    0  501    0  0.00000000000E+00 -0.00000000000E+00 -0.16716958343E+03  0.16716958343E+03  0.00000000000E+00 0. -1.
         23    2    1    2    0    0 -0.21789342722E+03  0.79223052178E+02  0.12713253908E+03  0.29252340455E+03  0.12511363672E+03 0.  0.
         23    2    1    2    0    0  0.21789342722E+03 -0.79223052178E+02  0.99913621490E+02  0.26886192288E+03  0.92467097913E+02 0.  0.
          5    1    3    3  502    0 -0.99793134834E+02  0.21260708624E+02 -0.98010771297E+01  0.10258762598E+03  0.41800000000E+01 0. -1.
         -5    1    3    3    0  502 -0.11810029239E+03  0.57962343554E+02  0.13693361621E+03  0.18993577857E+03  0.41800000000E+01 0. -1.
        -11    1    4    4    0    0  0.81310992651E+02 -0.42825729496E+02 -0.62092114546E+01  0.92109038317E+02  0.00000000000E+00 0. -1.
         11    1    4    4    0    0  0.13658243457E+03 -0.36397322683E+02  0.10612283294E+03  0.17675288457E+03  0.00000000000E+00 0.  1.
</event>
<event>
 8    1  0.4798744E-006  0.1069728E+03  0.7561462E-02  0.1266281E+00
          2   -1    0    0  501    0  0.00000000000E+00  0.00000000000E+00  0.14795618362E+03  0.14795618362E+03  0.00000000000E+00 0.  1.
         -2   -1    0    0    0  501 -0.00000000000E+00 -0.00000000000E+00 -0.89841844799E+02  0.89841844799E+02  0.00000000000E+00 0. -1.
         23    2    1    2    0    0  0.13558664229E+02  0.24796341991E+02  0.12116653716E+02  0.12881170076E+03  0.12508774921E+03 0.  0.
         23    2    1    2    0    0 -0.13558664229E+02 -0.24796341991E+02  0.45997685105E+02  0.10898632766E+03  0.94675955924E+02 0.  0.
          5    1    3    3  502    0  0.21955249043E+02  0.69508292071E+02  0.31072644539E+02  0.79349967018E+02  0.41800000000E+01 0. -1.
         -5    1    3    3    0  502 -0.83965848145E+01 -0.44711950080E+02 -0.18955990822E+02  0.49461733740E+02  0.41800000000E+01 0. -1.
        -11    1    4    4    0    0  0.76651272730E+01  0.32894834442E+02  0.28758786338E+01  0.33898303600E+02  0.00000000000E+00 0.  1.
         11    1    4    4    0    0 -0.21223791502E+02 -0.57691176433E+02  0.43121806471E+02  0.75088024060E+02  0.00000000000E+00 0. -1.
</event>
<event>
 8    1  0.4798744E-006  0.1018097E+03  0.7561462E-02  0.1276536E+00
         -1   -1    0    0    0  501 -0.00000000000E+00  0.00000000000E+00  0.60128935611E+02  0.60128935611E+02  0.00000000000E+00 0.  1.
          1   -1    0    0  501    0  0.00000000000E+00 -0.00000000000E+00 -0.21190897747E+03  0.21190897747E+03  0.00000000000E+00 0. -1.
         23    2    1    2    0    0 -0.21680815592E+02 -0.72882086333E+01 -0.56282901106E+02  0.13906395310E+03  0.12509133601E+03 0.  0.
         23    2    1    2    0    0  0.21680815592E+02  0.72882086333E+01 -0.95497140753E+02  0.13297395998E+03  0.89661554696E+02 0.  0.
          5    1    3    3  502    0 -0.57294913273E+02 -0.40094078656E+02 -0.57220514003E+02  0.90453865883E+02  0.41800000000E+01 0.  1.
         -5    1    3    3    0  502  0.35614097681E+02  0.32805870023E+02  0.93761289755E+00  0.48610087220E+02  0.41800000000E+01 0.  1.
        -11    1    4    4    0    0 -0.26036817486E+02 -0.17322580852E+02 -0.62680113563E+02  0.70048442584E+02  0.00000000000E+00 0.  1.
         11    1    4    4    0    0  0.47717633079E+02  0.24610789486E+02 -0.32817027191E+02  0.62925517394E+02  0.00000000000E+00 0. -1.
</event>
<event>
 8    1  0.4798744E-006  0.1779180E+03  0.7561462E-02  0.1169833E+00
         -1   -1    0    0    0  501 -0.00000000000E+00  0.00000000000E+00  0.54770931076E+03  0.54770931076E+03  0.00000000000E+00 0.  1.
          1   -1    0    0  501    0  0.00000000000E+00 -0.00000000000E+00 -0.71466872069E+02  0.71466872069E+02  0.00000000000E+00 0. -1.
         23    2    1    2    0    0 -0.72480948637E+02  0.13797426974E+03  0.16660203891E+03  0.26018140528E+03  0.12509091598E+03 0.  0.
         23    2    1    2    0    0  0.72480948637E+02 -0.13797426974E+03  0.30964039978E+03  0.35899477754E+03  0.93325699033E+02 0.  0.
          5    1    3    3  502    0  0.12945078849E+02  0.55035257506E+02  0.16649830831E+01  0.56715951934E+02  0.41800000000E+01 0.  1.
         -5    1    3    3    0  502 -0.85426027486E+02  0.82939012236E+02  0.16493705583E+03  0.20346545335E+03  0.41800000000E+01 0.  1.
        -11    1    4    4    0    0  0.56803648260E+01 -0.10563798331E+03  0.20527750955E+03  0.23093398621E+03  0.00000000000E+00 0. -1.
         11    1    4    4    0    0  0.66800583811E+02 -0.32336286427E+02  0.10436289024E+03  0.12806079133E+03  0.00000000000E+00 0.  1.
</event>
<event>
 8    1  0.4798744E-006  0.2058236E+03  0.7561462E-02  0.1144917E+00
         -2   -1    0    0    0  501 -0.00000000000E+00  0.00000000000E+00  0.58280749687E+02  0.58280749687E+02  0.00000000000E+00 0.  1.
          2   -1    0    0  501    0  0.00000000000E+00 -0.00000000000E+00 -0.75114607441E+03  0.75114607441E+03  0.00000000000E+00 0. -1.
         23    2    1    2    0    0 -0.94842289285E+01 -0.17676534959E+03 -0.31281023570E+03  0.38057051673E+03  0.12509090786E+03 0.  0.
         23    2    1    2    0    0  0.94842289285E+01  0.17676534959E+03 -0.38005508902E+03  0.42885630737E+03  0.90221517754E+02 0.  0.
          5    1    3    3  502    0  0.34461278633E+02 -0.16349941820E+03 -0.27066062055E+03  0.31811048929E+03  0.41800000000E+01 0.  1.
         -5    1    3    3    0  502 -0.43945507561E+02 -0.13265931385E+02 -0.42149615148E+02  0.62460027437E+02  0.41800000000E+01 0.  1.
        -11    1    4    4    0    0 -0.39502648634E+02  0.60611712099E+02 -0.14960957951E+03  0.16618443120E+03  0.00000000000E+00 0. -1.
         11    1    4    4    0    0  0.48986877562E+02  0.11615363749E+03 -0.23044550951E+03  0.26267187617E+03  0.00000000000E+00 0.  1.
</event>
<event>
 8    1  0.4798744E-006  0.1379732E+03  0.7561462E-02  0.1216082E+00
          1   -1    0    0  501    0  0.00000000000E+00  0.00000000000E+00  0.83208450241E+02  0.83208450241E+02  0.00000000000E+00 0. -1.
         -1   -1    0    0    0  501 -0.00000000000E+00 -0.00000000000E+00 -0.49247258501E+03  0.49247258501E+03  0.00000000000E+00 0.  1.
         23    2    1    2    0    0 -0.10023165065E+02 -0.11479944297E+03 -0.39228347313E+03  0.42756504378E+03  0.12508464105E+03 0.  0.
         23    2    1    2    0    0  0.10023165065E+02  0.11479944297E+03 -0.16980661639E+02  0.14811599147E+03  0.91491136814E+02 0.  0.
          5    1    3    3  502    0  0.24428043299E+02  0.13184800600E+02 -0.26969114651E+02  0.38927802550E+02  0.41800000000E+01 0. -1.
         -5    1    3    3    0  502 -0.34451208364E+02 -0.12798424357E+03 -0.36531435848E+03  0.38863724123E+03  0.41800000000E+01 0. -1.
        -11    1    4    4    0    0  0.83872168164E+01  0.81905693557E+02 -0.54080495029E+02  0.98506791571E+02  0.00000000000E+00 0.  1.
         11    1    4    4    0    0  0.16359482482E+01  0.32893749413E+02  0.37099833390E+02  0.49609199900E+02  0.00000000000E+00 0. -1.
</event>
<event>
 8    1  0.4798744E-006  0.1274837E+03  0.7561462E-02  0.1231238E+00
         -1   -1    0    0    0  501 -0.00000000000E+00  0.00000000000E+00  0.60859815222E+03  0.60859815222E+03  0.00000000000E+00 0.  1.
          1   -1    0    0  501    0  0.00000000000E+00 -0.00000000000E+00 -0.39655054239E+02  0.39655054239E+02  0.00000000000E+00 0. -1.
         23    2    1    2    0    0 -0.82797319440E+02 -0.46987257636E+02  0.42516746544E+03  0.45329695937E+03  0.12509021235E+03 0.  0.
         23    2    1    2    0    0  0.82797319440E+02  0.46987257636E+02  0.14377563254E+03  0.19495624708E+03  0.90957722472E+02 0.  0.
          5    1    3    3  502    0 -0.95272958170E+02  0.11917615827E+02  0.23940427026E+03  0.25797450096E+03  0.41800000000E+01 0.  1.
         -5    1    3    3    0  502  0.12475638730E+02 -0.58904873462E+02  0.18576319518E+03  0.19532245842E+03  0.41800000000E+01 0.  1.
        -11    1    4    4    0    0  0.11429122969E+02  0.18322657856E+02  0.10799142228E+03  0.11012943262E+03  0.00000000000E+00 0.  1.
         11    1    4    4    0    0  0.71368196471E+02  0.28664599780E+02  0.35784210259E+02  0.84826814463E+02  0.00000000000E+00 0. -1.
</event>
<event>
 8    1  0.4798744E-006  0.1081772E+03  0.7561462E-02  0.1263983E+00
          1   -1    0    0  501    0  0.00000000000E+00  0.00000000000E+00  0.15697176240E+03  0.15697176240E+03  0.00000000000E+00 0. -1.
         -1   -1    0    0    0  501 -0.00000000000E+00 -0.00000000000E+00 -0.10026028642E+03  0.10026028642E+03  0.00000000000E+00 0.  1.
         23    2    1    2    0    0 -0.83094221448E+01 -0.59276116142E+02  0.11953074234E+02  0.13922605786E+03  0.12513318810E+03 0.  0.
         23    2    1    2    0    0  0.83094221448E+01  0.59276116142E+02  0.44758401745E+02  0.11800599095E+03  0.91320287628E+02 0.  0.
          5    1    3    3  502    0 -0.37288334348E+02  0.70349600264E+01 -0.35870747114E+02  0.52384095292E+02  0.41800000000E+01 0.  1.
         -5    1    3    3    0  502  0.28978912203E+02 -0.66311076169E+02  0.47823821348E+02  0.86841962573E+02  0.41800000000E+01 0.  1.
        -11    1    4    4    0    0 -0.34420567204E+02  0.51979315466E+02  0.11560350431E+02  0.63405570615E+02  0.00000000000E+00 0.  1.
         11    1    4    4    0    0  0.42729989348E+02  0.72968006759E+01  0.33198051315E+02  0.54600420336E+02  0.00000000000E+00 0. -1.
</event>
<event>
 8    1  0.4798744E-006  0.2037083E+03  0.7561462E-02  0.1146648E+00
          4   -1    0    0  501    0  0.00000000000E+00  0.00000000000E+00  0.12642549994E+03  0.12642549994E+03  0.00000000000E+00 0. -1.
         -4   -1    0    0    0  501 -0.00000000000E+00 -0.00000000000E+00 -0.75819201604E+03  0.75819201604E+03  0.00000000000E+00 0.  1.
         23    2    1    2    0    0  0.14143177349E+03  0.13097967328E+03 -0.63099905388E+03  0.67153977085E+03  0.12508891429E+03 0.  0.
         23    2    1    2    0    0 -0.14143177349E+03 -0.13097967328E+03 -0.76746222428E+00  0.21307774513E+03  0.90790501185E+02 0.  0.
          5    1    3    3  502    0  0.63074190929E+01  0.16517175653E+02 -0.25775720530E+03  0.25839669098E+03  0.41800000000E+01 0.  1.
         -5    1    3    3    0  502  0.13512435440E+03  0.11446249763E+03 -0.37324184858E+03  0.41314307987E+03  0.41800000000E+01 0.  1.
        -11    1    4    4    0    0  0.12062345832E+02 -0.17363926108E+02  0.60385760429E+01  0.21987963013E+02  0.00000000000E+00 0.  1.
         11    1    4    4    0    0 -0.15349411932E+03 -0.11361574717E+03 -0.68060382672E+01  0.19108978211E+03  0.00000000000E+00 0. -1.
</event>
<event>
 8    1  0.4798744E-006  0.1317422E+03  0.7561462E-02  0.1224893E+00
         -2   -1    0    0    0  501 -0.00000000000E+00  0.00000000000E+00  0.52733132149E+02  0.52733132149E+02  0.00000000000E+00 0.  1.
          2   -1    0    0  501    0  0.00000000000E+00 -0.00000000000E+00 -0.52855004946E+03  0.52855004946E+03  0.00000000000E+00 0. -1.
         23    2    1    2    0    0  0.12227885508E+03  0.15854953027E+02 -0.20133380870E+03  0.26718142771E+03  0.12508842813E+03 0.  0.
         23    2    1    2    0    0 -0.12227885508E+03 -0.15854953027E+02 -0.27448310861E+03  0.31410175390E+03  0.90085720031E+02 0.  0.
          5    1    3    3  502    0  0.12502690219E+03  0.16031617228E+02 -0.88115150379E+02  0.15385217303E+03  0.41800000000E+01 0. -1.
         -5    1    3    3    0  502 -0.27480471028E+01 -0.17666420122E+00 -0.11321865833E+03  0.11332925468E+03  0.41800000000E+01 0. -1.
        -11    1    4    4    0    0 -0.40665580671E+02  0.17398580365E+02 -0.28027504082E+02  0.52363546815E+02  0.00000000000E+00 0.  1.
         11    1    4    4    0    0 -0.81613274413E+02 -0.33253533392E+02 -0.24645560453E+03  0.26173820708E+03  0.00000000000E+00 0. -1.
</event>
<event>
 8    1  0.4798744E-006  0.1878494E+03  0.7561462E-02  0.1160415E+00
         -2   -1    0    0    0  501 -0.00000000000E+00  0.00000000000E+00  0.29424367176E+03  0.29424367176E+03  0.00000000000E+00 0.  1.
          2   -1    0    0  501    0  0.00000000000E+00 -0.00000000000E+00 -0.30145540992E+03  0.30145540992E+03  0.00000000000E+00 0. -1.
         23    2    1    2    0    0 -0.19976048367E+01 -0.18701662534E+03  0.20113907107E+03  0.30180092622E+03  0.12509062546E+03 0.  0.
         23    2    1    2    0    0  0.19976048367E+01  0.18701662534E+03 -0.20835080923E+03  0.29389815547E+03  0.89369220108E+02 0.  0.
          5    1    3    3  502    0 -0.11101722034E+02 -0.57004879347E+02 -0.43958398529E+01  0.58391782894E+02  0.41800000000E+01 0. -1.
         -5    1    3    3    0  502  0.91041171975E+01 -0.13001174599E+03  0.20553491092E+03  0.24340914333E+03  0.41800000000E+01 0. -1.
        -11    1    4    4    0    0  0.23907302672E+01  0.48968337164E+02 -0.12094792333E+03  0.13050675766E+03  0.00000000000E+00 0. -1.
         11    1    4    4    0    0 -0.39312543052E+00  0.13804828817E+03 -0.87402885897E+02  0.16339139781E+03  0.00000000000E+00 0.  1.
</event>
<event>
 8    1  0.4798744E-006  0.9641973E+02  0.7561462E-02  0.1288010E+00
          4   -1    0    0  501    0  0.00000000000E+00  0.00000000000E+00  0.26593356141E+03  0.26593356141E+03  0.00000000000E+00 0. -1.
         -4   -1    0    0    0  501 -0.00000000000E+00 -0.00000000000E+00 -0.60461624941E+02  0.60461624941E+02  0.00000000000E+00 0.  1.
         23    2    1    2    0    0 -0.63782846562E+02  0.80308144219E+01  0.96521104478E+02  0.17057708661E+03  0.12508986118E+03 0.  0.
         23    2    1    2    0    0  0.63782846562E+02 -0.80308144219E+01  0.10895083199E+03  0.15581809974E+03  0.90973902411E+02 0.  0.
          5    1    3    3  502    0  0.61961891219E+01  0.36579178448E+02 -0.11147548109E+02  0.38963691874E+02  0.41800000000E+01 0. -1.
         -5    1    3    3    0  502 -0.69979035684E+02 -0.28548364026E+02  0.10766865259E+03  0.13161339474E+03  0.41800000000E+01 0. -1.
        -11    1    4    4    0    0  0.28843937373E+02 -0.27466819671E+02  0.70961088193E-01  0.39829686686E+02  0.00000000000E+00 0.  1.
         11    1    4    4    0    0  0.34938909189E+02  0.19436005249E+02  0.10887987091E+03  0.11598841306E+03  0.00000000000E+00 0. -1.
</event>
<event>
 8    1  0.4798744E-006  0.1051066E+03  0.7561462E-02  0.1269910E+00
          2   -1    0    0  501    0  0.00000000000E+00  0.00000000000E+00  0.14202184968E+03  0.14202184968E+03  0.00000000000E+00 0. -1.
         -2   -1    0    0    0  501 -0.00000000000E+00 -0.00000000000E+00 -0.98265749429E+02  0.98265749429E+02  0.00000000000E+00 0.  1.
         23    2    1    2    0    0  0.44568373319E+02 -0.34696683127E+01  0.32175760315E+02  0.13667623016E+03  0.12508690515E+03 0.  0.
         23    2    1    2    0    0 -0.44568373319E+02  0.34696683127E+01  0.11580339941E+02  0.10361136895E+03  0.92751458234E+02 0.  0.
          5    1    3    3  502    0 -0.19683769209E+02 -0.48830569401E+02  0.37700613284E+01  0.52948664201E+02  0.41800000000E+01 0. -1.
         -5    1    3    3    0  502  0.64252142527E+02  0.45360901088E+02  0.28405698986E+02  0.83727565961E+02  0.41800000000E+01 0. -1.
        -11    1    4    4    0    0 -0.50304936118E+02  0.25128235876E+02 -0.24342054032E+02  0.61274386415E+02  0.00000000000E+00 0. -1.
         11    1    4    4    0    0  0.57365627990E+01 -0.21658567563E+02  0.35922393973E+02  0.42336982537E+02  0.00000000000E+00 0.  1.
</event>
<event>
 7    1  0.4798744E-006  0.9326248E+02  0.7561462E-02  0.1295138E+00
         -4   -1    0    0    0  501 -0.00000000000E+00  0.00000000000E+00  0.41424077837E+03  0.41424077837E+03  0.00000000000E+00 0.  1.
          4   -1    0    0  501    0  0.00000000000E+00 -0.00000000000E+00 -0.23826272812E+02  0.23826272812E+02  0.00000000000E+00 0. -1.
         23    2    1    2    0    0 -0.38237195704E+02 -0.30315615426E+02  0.29978129370E+03  0.32847688365E+03  0.12508844617E+03 0.  0.
          5    1    3    3  502    0  0.39276838069E+02 -0.35676386693E+02  0.15831939500E+03  0.16702687750E+03  0.41800000000E+01 0.  1.
         -5    1    3    3    0  502 -0.77514033773E+02  0.53607712664E+01  0.14146189871E+03  0.16145000615E+03  0.41800000000E+01 0.  1.
        -11    1    1    2    0    0  0.22270040434E+01  0.16921581788E+02  0.53505453714E+02  0.56161668906E+02  0.00000000000E+00 0.  1.
         11    1    1    2    0    0  0.36010191660E+02  0.13394033638E+02  0.37127758143E+02  0.53428498624E+02  0.00000000000E+00 0. -1.
</event>
<event>
 8    1  0.4798744E-006  0.1708829E+03  0.7561462E-02  0.1176930E+00
          2   -1    0    0  501    0  0.00000000000E+00  0.00000000000E+00  0.42675522846E+03  0.42675522846E+03  0.00000000000E+00 0. -1.
         -2   -1    0    0    0  501 -0.00000000000E+00 -0.00000000000E+00 -0.92485228651E+02  0.92485228651E+02  0.00000000000E+00 0.  1.
         23    2    1    2    0    0  0.13599484378E+03  0.46734162553E+02  0.66806262784E+02  0.20196393296E+03  0.12509066305E+03 0.  0.
         23    2    1    2    0    0 -0.13599484378E+03 -0.46734162553E+02  0.26746373703E+03  0.31727652416E+03  0.91917695090E+02 0.  0.
          5    1    3    3  502    0  0.80247360071E+02  0.73740615736E+02 -0.22701280615E+01  0.10908686029E+03  0.41800000000E+01 0.  1.
         -5    1    3    3    0  502  0.55747483714E+02 -0.27006453182E+02  0.69076390846E+02  0.92877072662E+02  0.41800000000E+01 0.  1.
        -11    1    4    4    0    0  0.85071468188E+01  0.11937053567E+02  0.25217390287E+02  0.29168160171E+02  0.00000000000E+00 0.  1.
         11    1    4    4    0    0 -0.14450199060E+03 -0.58671216121E+02  0.24224634674E+03  0.28810836398E+03  0.00000000000E+00 0. -1.
</event>
<event>
 8    1  0.4798744E-006  0.7460901E+02  0.7561462E-02  0.1345086E+00
         -1   -1    0    0    0  501 -0.00000000000E+00  0.00000000000E+00  0.49863185958E+02  0.49863185958E+02  0.00000000000E+00 0.  1.
          1   -1    0    0  501    0  0.00000000000E+00 -0.00000000000E+00 -0.28291960868E+03  0.28291960868E+03  0.00000000000E+00 0. -1.
         23    2    1    2    0    0 -0.26591662449E+02  0.11921295038E+02 -0.76475432875E+02  0.14948355703E+03  0.12509040012E+03 0.  0.
         23    2    1    2    0    0  0.26591662449E+02 -0.11921295038E+02 -0.15658098985E+03  0.18329923761E+03  0.90729104141E+02 0.  0.
          5    1    3    3  502    0 -0.44836355446E+02 -0.26272253051E+01  0.20576013259E+02  0.49578682961E+02  0.41800000000E+01 0.  1.
         -5    1    3    3    0  502  0.18244692996E+02  0.14548520343E+02 -0.97051446134E+02  0.99904874072E+02  0.41800000000E+01 0.  1.
        -11    1    4    4    0    0  0.24457885391E+02  0.29843267510E+02 -0.12521277340E+03  0.13102307963E+03  0.00000000000E+00 0. -1.
         11    1    4    4    0    0  0.21337770583E+01 -0.41764562549E+02 -0.31368216444E+02  0.52276157972E+02  0.00000000000E+00 0.  1.
</event>
<event>
 8    1  0.4798744E-006  0.1248194E+03  0.7561462E-02  0.1235352E+00
         -1   -1    0    0    0  501 -0.00000000000E+00  0.00000000000E+00  0.50446974197E+02  0.50446974197E+02  0.00000000000E+00 0.  1.
          1   -1    0    0  501    0  0.00000000000E+00 -0.00000000000E+00 -0.38463093901E+03  0.38463093901E+03  0.00000000000E+00 0. -1.
         23    2    1    2    0    0  0.61984681312E+02  0.37458195803E+01 -0.89495828295E+02  0.16587213449E+03  0.12509168572E+03 0.  0.
         23    2    1    2    0    0 -0.61984681312E+02 -0.37458195803E+01 -0.24468813651E+03  0.26920577871E+03  0.93505803347E+02 0.  0.
          5    1    3    3  502    0 -0.36391892959E+02 -0.14196050009E+02 -0.20542315787E+02  0.44332345380E+02  0.41800000000E+01 0. -1.
         -5    1    3    3    0  502  0.98376574271E+02  0.17941869590E+02 -0.68953512508E+02  0.12153978911E+03  0.41800000000E+01 0. -1.
        -11    1    4    4    0    0 -0.15111530083E+01  0.37202690255E+02 -0.60151390293E+02  0.70742586182E+02  0.00000000000E+00 0.  1.
         11    1    4    4    0    0 -0.60473528304E+02 -0.40948509835E+02 -0.18453674622E+03  0.19846319253E+03  0.00000000000E+00 0. -1.
</event>
<event>
 8    1  0.4798744E-006  0.1777007E+03  0.7561462E-02  0.1170047E+00
          2   -1    0    0  501    0  0.00000000000E+00  0.00000000000E+00  0.17121804501E+03  0.17121804501E+03  0.00000000000E+00 0. -1.
         -2   -1    0    0    0  501 -0.00000000000E+00 -0.00000000000E+00 -0.29570435682E+03  0.29570435682E+03  0.00000000000E+00 0.  1.
         23    2    1    2    0    0 -0.14480503244E+02  0.17397465137E+03 -0.16431315711E+03  0.27041328796E+03  0.12509064079E+03 0.  0.
         23    2    1    2    0    0  0.14480503244E+02 -0.17397465137E+03  0.39826845298E+02  0.19650911386E+03  0.80949304690E+02 0.  0.
          5    1    3    3  502    0  0.50822951655E+01  0.52872604531E+02 -0.13367786473E+03  0.14390478086E+03  0.41800000000E+01 0.  1.
         -5    1    3    3    0  502 -0.19562798409E+02  0.12110204684E+03 -0.30635292374E+02  0.12650850710E+03  0.41800000000E+01 0.  1.
        -11    1    4    4    0    0  0.26179351420E+02 -0.15416112626E+03  0.58421451937E+02  0.16692536457E+03  0.00000000000E+00 0. -1.
         11    1    4    4    0    0 -0.11698848176E+02 -0.19813525112E+02 -0.18594606639E+02  0.29583749291E+02  0.00000000000E+00 0.  1.
</event>
<event>
 8    1  0.4798744E-006  0.1037512E+03  0.7561462E-02  0.1272600E+00
          1   -1    0    0  501    0  0.00000000000E+00  0.00000000000E+00  0.51077709456E+03  0.51077709456E+03  0.00000000000E+00 0. -1.
         -1   -1    0    0    0  501 -0.00000000000E+00 -0.00000000000E+00 -0.24808013495E+02  0.24808013495E+02  0.00000000000E+00 0.  1.
         23    2    1    2    0    0 -0.29857695264E+02  0.12467807059E+02  0.27913642322E+03  0.30759005087E+03  0.12509024121E+03 0.  0.
         23    2    1    2    0    0  0.29857695264E+02 -0.12467807059E+02  0.20683265784E+03  0.22799505718E+03  0.90305423818E+02 0.  0.
          5    1    3    3  502    0  0.34508426281E+02 -0.22776984998E+02  0.17663693586E+03  0.18145991855E+03  0.41800000000E+01 0. -1.
         -5    1    3    3    0  502 -0.64366121546E+02  0.35244792057E+02  0.10249948737E+03  0.12613013233E+03  0.41800000000E+01 0. -1.
        -11    1    4    4    0    0  0.22171110958E+02  0.36590991091E+02  0.12664907555E+03  0.13368039171E+03  0.00000000000E+00 0. -1.
         11    1    4    4    0    0  0.76865843060E+01 -0.49058798150E+02  0.80183582291E+02  0.94314665473E+02  0.00000000000E+00 0.  1.
</event>
<event>
 8    1  0.4798744E-006  0.1142856E+03  0.7561462E-02  0.1252833E+00
         -1   -1    0    0    0  501 -0.00000000000E+00  0.00000000000E+00  0.29728040423E+03  0.29728040423E+03  0.00000000000E+00 0.  1.
          1   -1    0    0  501    0  0.00000000000E+00 -0.00000000000E+00 -0.74690926166E+02  0.74690926166E+02  0.00000000000E+00 0. -1.
         23    2    1    2    0    0 -0.38501826255E+02  0.82280107849E+02  0.17804970746E+03  0.23580107132E+03  0.12509212658E+03 0.  0.
         23    2    1    2    0    0  0.38501826255E+02 -0.82280107849E+02  0.44539770599E+02  0.13617025908E+03  0.91138035528E+02 0.  0.
          5    1    3    3  502    0 -0.46714528258E+02  0.80957261364E+02  0.47516403548E+02  0.10493620121E+03  0.41800000000E+01 0. -1.
         -5    1    3    3    0  502  0.82127020030E+01  0.13228464849E+01  0.13053330392E+03  0.13086487011E+03  0.41800000000E+01 0. -1.
        -11    1    4    4    0    0 -0.26062171434E+02 -0.42530595440E+02  0.32153993501E+02  0.59346167749E+02  0.00000000000E+00 0.  1.
         11    1    4    4    0    0  0.64563997690E+02 -0.39749512408E+02  0.12385777098E+02  0.76824091330E+02  0.00000000000E+00 0. -1.
</event>
<event>
 8    1  0.4798744E-006  0.4682204E+02  0.7561462E-02  0.1463277E+00
         -2   -1    0    0    0  501 -0.00000000000E+00  0.00000000000E+00  0.34323726073E+02  0.34323726073E+02  0.00000000000E+00 0.  1.
          2   -1    0    0  501    0  0.00000000000E+00 -0.00000000000E+00 -0.29460627415E+03  0.29460627415E+03  0.00000000000E+00 0. -1.
         23    2    1    2    0    0 -0.11919781808E+02  0.92872799841E+01 -0.14234702358E+03  0.19010055418E+03  0.12508881168E+03 0.  0.
         23    2    1    2    0    0  0.11919781808E+02 -0.92872799841E+01 -0.11793552449E+03  0.13882944604E+03  0.71669326661E+02 0.  0.
          5    1    3    3  502    0 -0.31909332358E+01 -0.23888811704E+01  0.23175657681E+02  0.23884562318E+02  0.41800000000E+01 0. -1.
         -5    1    3    3    0  502 -0.87288485719E+01  0.11676161155E+02 -0.16552268127E+03  0.16621599186E+03  0.41800000000E+01 0. -1.
        -11    1    4    4    0    0  0.34291200136E+02 -0.27419407336E+02 -0.79292970216E+02  0.90637108466E+02  0.00000000000E+00 0. -1.
         11    1    4    4    0    0 -0.22371418328E+02  0.18132127352E+02 -0.38642554271E+02  0.48192337575E+02  0.00000000000E+00 0.  1.
</event>
<event>
 8    1  0.4798744E-006  0.8482714E+02  0.7561462E-02  0.1315885E+00
         -1   -1    0    0    0  501 -0.00000000000E+00  0.00000000000E+00  0.83355001182E+02  0.83355001182E+02  0.00000000000E+00 0.  1.
          1   -1    0    0  501    0  0.00000000000E+00 -0.00000000000E+00 -0.22664653968E+03  0.22664653968E+03  0.00000000000E+00 0. -1.
         23    2    1    2    0    0  0.88615673967E+00  0.18563011629E+02  0.14084551149E+02  0.12724712261E+03  0.12509230575E+03 0.  0.
         23    2    1    2    0    0 -0.88615673967E+00 -0.18563011629E+02 -0.15737608965E+03  0.18275441825E+03  0.91030616405E+02 0.  0.
          5    1    3    3  502    0  0.30351236143E+02  0.45529095992E+02  0.49347964734E+02  0.73802372189E+02  0.41800000000E+01 0.  1.
         -5    1    3    3    0  502 -0.29465079403E+02 -0.26966084363E+02 -0.35263413585E+02  0.53444750423E+02  0.41800000000E+01 0.  1.
        -11    1    4    4    0    0  0.12363700611E+01 -0.46541316478E+02 -0.37916989933E+02  0.60044324261E+02  0.00000000000E+00 0.  1.
         11    1    4    4    0    0 -0.21225268007E+01  0.27978304849E+02 -0.11945909972E+03  0.12271009399E+03  0.00000000000E+00 0. -1.
</event>
<event>
 8    1  0.4798744E-006  0.1140410E+03  0.7561462E-02  0.1253264E+00
         -2   -1    0    0    0  501 -0.00000000000E+00  0.00000000000E+00  0.71368891009E+03  0.71368891009E+03  0.00000000000E+00 0.  1.
          2   -1    0    0  501    0  0.00000000000E+00 -0.00000000000E+00 -0.30725410927E+02  0.30725410927E+02  0.00000000000E+00 0. -1.
         23    2    1    2    0    0  0.25863372696E+02  0.66676618817E+02  0.54725367388E+03  0.56590498195E+03  0.12508868645E+03 0.  0.
         23    2    1    2    0    0 -0.25863372696E+02 -0.66676618817E+02  0.13570982528E+03  0.17850933906E+03  0.91289330762E+02 0.  0.
          5    1    3    3  502    0 -0.31730466989E+02  0.34253899468E+02  0.71071779532E+02  0.85140016502E+02  0.41800000000E+01 0.  1.
         -5    1    3    3    0  502  0.57593839685E+02  0.32422719349E+02  0.47618189435E+03  0.48076496545E+03  0.41800000000E+01 0.  1.
        -11    1    4    4    0    0 -0.16493112431E+02  0.21056041848E+02  0.22322535248E+02  0.34837842009E+02  0.00000000000E+00 0.  1.
         11    1    4    4    0    0 -0.93702602656E+01 -0.87732660665E+02  0.11338729003E+03  0.14367149705E+03  0.00000000000E+00 0. -1.
</event>
<event>
 6    1  0.4798744E-006  0.1231154E+03  0.7561462E-02  0.1238044E+00
          1   -1    0    0  501    0  0.00000000000E+00  0.00000000000E+00  0.19167029987E+03  0.19167029987E+03  0.00000000000E+00 0. -1.
         -1   -1    0    0    0  501 -0.00000000000E+00 -0.00000000000E+00 -0.14604480830E+03  0.14604480830E+03  0.00000000000E+00 0.  1.
          5    1    1    2  502    0  0.93230986568E+02  0.34777218739E+01  0.28698276752E+02  0.97699410922E+02  0.41800000000E+01 0. -1.
         -5    1    1    2    0  502 -0.38334286953E+02  0.29875179103E+00 -0.64213520026E+02  0.74902972992E+02  0.41800000000E+01 0.  1.
        -11    1    1    2    0    0 -0.84438489080E+02  0.42532602153E+00  0.64539923915E+01  0.84685850991E+02  0.00000000000E+00 0.  1.
         11    1    1    2    0    0  0.29541789465E+02 -0.42017996864E+01  0.74686742453E+02  0.80426873268E+02  0.00000000000E+00 0. -1.
</event>
<event>
 8    1  0.4798744E-006  0.1737061E+03  0.7561462E-02  0.1174037E+00
          2   -1    0    0  501    0  0.00000000000E+00  0.00000000000E+00  0.37359462931E+03  0.37359462931E+03  0.00000000000E+00 0. -1.
         -2   -1    0    0    0  501 -0.00000000000E+00 -0.00000000000E+00 -0.16305105037E+03  0.16305105037E+03  0.00000000000E+00 0.  1.
         23    2    1    2    0    0 -0.12810987774E+02  0.14789258478E+03 -0.69720731913E+02  0.20626491504E+03  0.12509155318E+03 0.  0.
         23    2    1    2    0    0  0.12810987774E+02 -0.14789258478E+03  0.28026431085E+03  0.33038076465E+03  0.92558239351E+02 0.  0.
          5    1    3    3  502    0  0.30233009285E+02  0.10399274728E+02  0.18599058091E+02  0.37223341161E+02  0.41800000000E+01 0.  1.
         -5    1    3    3    0  502 -0.43043997059E+02  0.13749331005E+03 -0.88319790005E+02  0.16904157388E+03  0.41800000000E+01 0.  1.
        -11    1    4    4    0    0  0.42463313370E+02 -0.37246829175E+02  0.12739260384E+03  0.13935327330E+03  0.00000000000E+00 0.  1.
         11    1    4    4    0    0 -0.29652325596E+02 -0.11064575561E+03  0.15287170701E+03  0.19102749135E+03  0.00000000000E+00 0. -1.
</event>
<event>
 8    1  0.4798744E-006  0.1401007E+03  0.7561462E-02  0.1213194E+00
         -1   -1    0    0    0  501 -0.00000000000E+00  0.00000000000E+00  0.83961598378E+02  0.83961598378E+02  0.00000000000E+00 0.  1.
          1   -1    0    0  501    0  0.00000000000E+00 -0.00000000000E+00 -0.36791460289E+03  0.36791460289E+03  0.00000000000E+00 0. -1.
         23    2    1    2    0    0 -0.10874067314E+03  0.23165705880E+02 -0.45770259595E+02  0.17350154406E+03  0.12508671074E+03 0.  0.
         23    2    1    2    0    0  0.10874067314E+03 -0.23165705880E+02 -0.23818274492E+03  0.27837465720E+03  0.91652855237E+02 0.  0.
          5    1    3    3  502    0 -0.11803325486E+02  0.46757341974E+02  0.21641274224E+02  0.53022492124E+02  0.41800000000E+01 0.  1.
         -5    1    3    3    0  502 -0.96937347656E+02 -0.23591636095E+02 -0.67411533819E+02  0.12047905194E+03  0.41800000000E+01 0.  1.
        -11    1    4    4    0    0  0.10596704152E+03  0.26281133265E+01 -0.13317706201E+03  0.17021178195E+03  0.00000000000E+00 0.  1.
         11    1    4    4    0    0  0.27736316255E+01 -0.25793819206E+02 -0.10500568290E+03  0.10816287526E+03  0.00000000000E+00 0. -1.
</event>
<event>
 7    1  0.4798744E-006  0.7514408E+02  0.7561462E-02  0.1343425E+00
          2   -1    0    0  501    0  0.00000000000E+00  0.00000000000E+00  0.35090874329E+03  0.35090874329E+03  0.00000000000E+00 0. -1.
         -2   -1    0    0    0  501 -0.00000000000E+00 -0.00000000000E+00 -0.75870408439E+02  0.75870408439E+02  0.00000000000E+00 0.  1.
         23    2    1    2    0    0  0.16288945495E+02  0.18151414399E+02  0.27465915121E+03  0.29023768528E+03  0.90583999825E+02 0.  0.
          5    1    1    2  502    0  0.17980842814E+02 -0.36309063030E+02  0.55605549471E+02  0.68928283733E+02  0.41800000000E+01 0. -1.
         -5    1    1    2    0  502 -0.34269788309E+02  0.18157648631E+02 -0.55226365827E+02  0.67613182716E+02  0.41800000000E+01 0.  1.
        -11    1    3    3    0    0 -0.12313227276E+02 -0.19623317539E+02  0.18261210602E+02  0.29498507926E+02  0.00000000000E+00 0.  1.
         11    1    3    3    0    0  0.28602172771E+02  0.37774731938E+02  0.25639794061E+03  0.26073917736E+03  0.00000000000E+00 0. -1.
</event>
<event>
 8    1  0.4798744E-006  0.9136604E+02  0.7561462E-02  0.1299577E+00
          1   -1    0    0  501    0  0.00000000000E+00  0.00000000000E+00  0.60504143629E+03  0.60504143629E+03  0.00000000000E+00 0. -1.
         -1   -1    0    0    0  501 -0.00000000000E+00 -0.00000000000E+00 -0.26375886333E+02  0.26375886333E+02  0.00000000000E+00 0.  1.
         23    2    1    2    0    0  0.38532076783E+02 -0.29411193908E+02  0.21414279073E+03  0.25269448495E+03  0.12509048179E+03 0.  0.
         23    2    1    2    0    0 -0.38532076783E+02  0.29411193908E+02  0.36452275923E+03  0.37872283767E+03  0.90578178994E+02 0.  0.
          5    1    3    3  502    0  0.45001070058E+02  0.84198246823E+01  0.12852421771E+02  0.47735174656E+02  0.41800000000E+01 0.  1.
         -5    1    3    3    0  502 -0.64689932748E+01 -0.37831018590E+02  0.20129036896E+03  0.20495931030E+03  0.41800000000E+01 0.  1.
        -11    1    4    4    0    0  0.22114360649E+02  0.30285227901E+02  0.88540965614E+02  0.96154784425E+02  0.00000000000E+00 0.  1.
         11    1    4    4    0    0 -0.60646437432E+02 -0.87403399367E+00  0.27598179361E+03  0.28256805325E+03  0.00000000000E+00 0. -1.
</event>
<event>
 8    1  0.4798744E-006  0.1082789E+03  0.7561462E-02  0.1263791E+00
         -1   -1    0    0    0  501 -0.00000000000E+00  0.00000000000E+00  0.31922228945E+03  0.31922228945E+03  0.00000000000E+00 0.  1.
          1   -1    0    0  501    0  0.00000000000E+00 -0.00000000000E+00 -0.40624540985E+02  0.40624540985E+02  0.00000000000E+00 0. -1.
         23    2    1    2    0    0  0.50410258746E+02  0.16675133999E+01  0.16039985936E+03  0.20156006219E+03  0.11115020916E+03 0.  0.
         23    2    1    2    0    0 -0.50410258746E+02 -0.16675133999E+01  0.11819788910E+03  0.15828676824E+03  0.92412040484E+02 0.  0.
          5    1    3    3  502    0 -0.22049776165E+02 -0.30793266428E+02  0.28629920167E+02  0.47660912864E+02  0.41800000000E+01 0. -1.
         -5    1    3    3    0  502  0.72460034911E+02  0.32460779828E+02  0.13176993920E+03  0.15389914932E+03  0.41800000000E+01 0.  1.
        -11    1    4    4    0    0 -0.32239774486E+02  0.41241609527E+02  0.89131154228E+02  0.10336651329E+03  0.00000000000E+00 0.  1.
         11    1    4    4    0    0 -0.18170484260E+02 -0.42909122926E+02  0.29066734869E+02  0.54920254957E+02  0.00000000000E+00 0. -1.
</event>
<event>
 8    1  0.4798744E-006  0.1055345E+03  0.7561462E-02  0.1269070E+00
         -4   -1    0    0    0  501 -0.00000000000E+00  0.00000000000E+00  0.89632495486E+02  0.89632495486E+02  0.00000000000E+00 0.  1.
          4   -1    0    0  501    0  0.00000000000E+00 -0.00000000000E+00 -0.17114355029E+03  0.17114355029E+03  0.00000000000E+00 0. -1.
         23    2    1    2    0    0 -0.59196359161E+02  0.11526558279E+02 -0.52793066341E+02  0.14856654225E+03  0.12509132319E+03 0.  0.
         23    2    1    2    0    0  0.59196359161E+02 -0.11526558279E+02 -0.28717988460E+02  0.11220950353E+03  0.90161961697E+02 0.  0.
          5    1    3    3  502    0 -0.77799207334E+02  0.44888747151E+02 -0.90951504641E+01  0.90376492766E+02  0.41800000000E+01 0. -1.
         -5    1    3    3    0  502  0.18602848173E+02 -0.33362188872E+02 -0.43697915876E+02  0.58190049480E+02  0.41800000000E+01 0. -1.
        -11    1    4    4    0    0 -0.11232947455E+02  0.64610652417E+00  0.21904116742E+02  0.24624924211E+02  0.00000000000E+00 0.  1.
         11    1    4    4    0    0  0.70429306616E+02 -0.12172664803E+02 -0.50622105203E+02  0.87584579316E+02  0.00000000000E+00 0. -1.
</event>
<event>
 8    1  0.4798744E-006  0.1106901E+03  0.7561462E-02  0.1259297E+00
          1   -1    0    0  501    0  0.00000000000E+00  0.00000000000E+00  0.76411439011E+02  0.76411439011E+02  0.00000000000E+00 0. -1.
         -1   -1    0    0    0  501 -0.00000000000E+00 -0.00000000000E+00 -0.22560023119E+03  0.22560023119E+03  0.00000000000E+00 0.  1.
         23    2    1    2    0    0 -0.11455654698E+02 -0.50094407329E+02 -0.12397992087E+03  0.18346543609E+03  0.12509142173E+03 0.  0.
         23    2    1    2    0    0  0.11455654698E+02  0.50094407329E+02 -0.25208871309E+02  0.11854623411E+03  0.10381252699E+03 0.  0.
          5    1    3    3  502    0 -0.29683358088E+02  0.35940495400E+02 -0.49775086145E+02  0.68321684389E+02  0.41800000000E+01 0.  1.
         -5    1    3    3    0  502  0.18227703390E+02 -0.86034902729E+02 -0.74204834725E+02  0.11514375170E+03  0.41800000000E+01 0.  1.
        -11    1    4    4    0    0  0.28451994571E+02 -0.49921994510E+01 -0.48434495300E+02  0.56394488963E+02  0.00000000000E+00 0.  1.
         11    1    4    4    0    0 -0.16996339873E+02  0.55086606780E+02  0.23225623991E+02  0.62151745152E+02  0.00000000000E+00 0. -1.
</event>
<event>
 8    1  0.7400537E-006  0.1577971E+03  0.7561462E-02  0.1191206E+00
         -2   -1    0    0    0  501 -0.00000000000E+00  0.00000000000E+00  0.21730773047E+02  0.21730773047E+02  0.00000000000E+00 0.  1.
          2   -1    0    0  501    0  0.00000000000E+00 -0.00000000000E+00 -0.12123525712E+04  0.12123525712E+04  0.00000000000E+00 0. -1.
         23    2    1    2    0    0  0.12398629815E+01 -0.12009864958E+03 -0.61291369198E+03  0.63697403762E+03  0.12508999918E+03 0.  0.
         23    2    1    2    0    0 -0.12398629815E+01  0.12009864958E+03 -0.57770810615E+03  0.59710930660E+03  0.91474833852E+02 0.  0.
          5    1    3    3  502    0  0.55872710894E+02 -0.92872723929E+02 -0.45171173593E+03  0.46455146911E+03  0.41800000000E+01 0. -1.
         -5    1    3    3    0  502 -0.54632847912E+02 -0.27225925652E+02 -0.16120195605E+03  0.17242256851E+03  0.41800000000E+01 0. -1.
        -11    1    4    4    0    0 -0.42076688123E+02  0.59766281245E+02 -0.36569899982E+03  0.37293191675E+03  0.00000000000E+00 0. -1.
         11    1    4    4    0    0  0.40836825141E+02  0.60332368336E+02 -0.21200910633E+03  0.22417738986E+03  0.00000000000E+00 0.  1.
</event>
<event>
 8    1  0.4798744E-006  0.7976225E+02  0.7561462E-02  0.1329727E+00
          1   -1    0    0  501    0  0.00000000000E+00  0.00000000000E+00  0.24467541618E+03  0.24467541618E+03  0.00000000000E+00 0. -1.
         -1   -1    0    0    0  501 -0.00000000000E+00 -0.00000000000E+00 -0.57059484730E+02  0.57059484730E+02  0.00000000000E+00 0.  1.
         23    2    1    2    0    0 -0.49129199817E+02  0.70283733898E+01  0.10588638780E+03  0.17123629958E+03  0.12508743688E+03 0.  0.
         23    2    1    2    0    0  0.49129199817E+02 -0.70283733898E+01  0.81729543646E+02  0.13049860133E+03  0.88809291954E+02 0.  0.
          5    1    3    3  502    0 -0.37590554655E+01 -0.83276043515E+01  0.12055118180E+03  0.12096916684E+03  0.41800000000E+01 0. -1.
         -5    1    3    3    0  502 -0.45370144351E+02  0.15355977741E+02 -0.14664793998E+02  0.50267132739E+02  0.41800000000E+01 0. -1.
        -11    1    4    4    0    0  0.60980141461E+02  0.26011119353E+02  0.48286201570E+02  0.82016542506E+02  0.00000000000E+00 0. -1.
         11    1    4    4    0    0 -0.11850941645E+02 -0.33039492743E+02  0.33443342076E+02  0.48482058823E+02  0.00000000000E+00 0.  1.
</event>
<event>
 7    1  0.4798744E-006  0.1184547E+03  0.7561462E-02  0.1245668E+00
          2   -1    0    0  501    0  0.00000000000E+00  0.00000000000E+00  0.10473825446E+03  0.10473825446E+03  0.00000000000E+00 0. -1.
         -2   -1    0    0    0  501 -0.00000000000E+00 -0.00000000000E+00 -0.17574440575E+03  0.17574440575E+03  0.00000000000E+00 0.  1.
         23    2    1    2    0    0  0.29886354052E+02 -0.37510462811E+02  0.25950611382E+02  0.10633543691E+03  0.91288345006E+02 0.  0.
          5    1    1    2  502    0 -0.58406931290E+02  0.73416195310E+02 -0.43205392416E+02  0.10337062296E+03  0.41800000000E+01 0. -1.
         -5    1    1    2    0  502  0.28520577238E+02 -0.35905732499E+02 -0.53751370249E+02  0.70776600342E+02  0.41800000000E+01 0.  1.
        -11    1    3    3    0    0  0.22181984173E+02 -0.64856935883E+02  0.34402128090E+02  0.76693995665E+02  0.00000000000E+00 0.  1.
         11    1    3    3    0    0  0.77043698787E+01  0.27346473072E+02 -0.84515167077E+01  0.29641441250E+02  0.00000000000E+00 0. -1.
</event>
<event>
 8    1  0.4798744E-006  0.1360669E+03  0.7561462E-02  0.1218721E+00
          1   -1    0    0  501    0  0.00000000000E+00  0.00000000000E+00  0.10015831979E+03  0.10015831979E+03  0.00000000000E+00 0. -1.
         -1   -1    0    0    0  501 -0.00000000000E+00 -0.00000000000E+00 -0.29784740852E+03  0.29784740852E+03  0.00000000000E+00 0.  1.
         23    2    1    2    0    0  0.31502516818E+02 -0.10217383782E+03 -0.19611543271E+03  0.25600912624E+03  0.12508999989E+03 0.  0.
         23    2    1    2    0    0 -0.31502516818E+02  0.10217383782E+03 -0.15736560159E+01  0.14199660206E+03  0.93427281361E+02 0.  0.
          5    1    3    3  502    0 -0.29091617456E+02 -0.11604800779E+02  0.17810832192E-01  0.31598517759E+02  0.41800000000E+01 0. -1.
         -5    1    3    3    0  502  0.60594134274E+02 -0.90569037045E+02 -0.19613324354E+03  0.22441060849E+03  0.41800000000E+01 0. -1.
        -11    1    4    4    0    0 -0.51670298006E+02  0.98150146509E+02  0.19421287669E+02  0.11260753692E+03  0.00000000000E+00 0. -1.
         11    1    4    4    0    0  0.20167781189E+02  0.40236913158E+01 -0.20994943684E+02  0.29389065146E+02  0.00000000000E+00 0.  1.
</event>
<event>
 8    1  0.4798744E-006  0.1280505E+03  0.7561462E-02  0.1230377E+00
         -2   -1    0    0    0  501 -0.00000000000E+00  0.00000000000E+00  0.30882089848E+02  0.30882089848E+02  0.00000000000E+00 0.  1.
          2   -1    0    0  501    0  0.00000000000E+00 -0.00000000000E+00 -0.88051280084E+03  0.88051280084E+03  0.00000000000E+00 0. -1.
         23    2    1    2    0    0 -0.74415767451E+02 -0.93875872217E+02 -0.36731431031E+03  0.40610069084E+03  0.12509029823E+03 0.  0.
         23    2    1    2    0    0  0.74415767451E+02  0.93875872217E+02 -0.48231640069E+03  0.50529419985E+03  0.91338558141E+02 0.  0.
          5    1    3    3  502    0 -0.48079278592E+02 -0.21634648732E+02 -0.29748173514E+03  0.30214653762E+03  0.41800000000E+01 0. -1.
         -5    1    3    3    0  502 -0.26336488859E+02 -0.72241223485E+02 -0.69832575169E+02  0.10395415322E+03  0.41800000000E+01 0. -1.
        -11    1    4    4    0    0 -0.23237433997E+01  0.18485191544E+02 -0.10534361891E+02  0.21402683716E+02  0.00000000000E+00 0.  1.
         11    1    4    4    0    0  0.76739510851E+02  0.75390680672E+02 -0.47178203879E+03  0.48389151613E+03  0.00000000000E+00 0. -1.
</event>
<event>
 8    1  0.4798744E-006  0.1679291E+03  0.7561462E-02  0.1180025E+00
         -2   -1    0    0    0  501 -0.00000000000E+00  0.00000000000E+00  0.60147096066E+02  0.60147096066E+02  0.00000000000E+00 0.  1.
          2   -1    0    0  501    0  0.00000000000E+00 -0.00000000000E+00 -0.76451473316E+03  0.76451473316E+03  0.00000000000E+00 0. -1.
         23    2    1    2    0    0 -0.83459910425E+02  0.13076595454E+03 -0.17279665454E+03  0.26376083000E+03  0.12508317275E+03 0.  0.
         23    2    1    2    0    0  0.83459910425E+02 -0.13076595454E+03 -0.53157098255E+03  0.56090099923E+03  0.89313660344E+02 0.  0.
          5    1    3    3  502    0 -0.38784368057E+02  0.81023782391E+02 -0.17498057555E+03  0.19673524021E+03  0.41800000000E+01 0.  1.
         -5    1    3    3    0  502 -0.44675542368E+02  0.49742172154E+02  0.21839210095E+01  0.67025589795E+02  0.41800000000E+01 0.  1.
        -11    1    4    4    0    0  0.74892303297E+02 -0.34777898421E+02 -0.23804449881E+03  0.25195940690E+03  0.00000000000E+00 0.  1.
         11    1    4    4    0    0  0.85676071276E+01 -0.95988056123E+02 -0.29352648375E+03  0.30894159233E+03  0.00000000000E+00 0. -1.
</event>
<event>
 8    1  0.4798744E-006  0.9067368E+02  0.7561462E-02  0.1301228E+00
         -2   -1    0    0    0  501 -0.00000000000E+00  0.00000000000E+00  0.19977880906E+03  0.19977880906E+03  0.00000000000E+00 0.  1.
          2   -1    0    0  501    0  0.00000000000E+00 -0.00000000000E+00 -0.72188110382E+02  0.72188110382E+02  0.00000000000E+00 0. -1.
         23    2    1    2    0    0  0.22712686006E+02 -0.30961127363E+02  0.11052431534E+03  0.17128315540E+03  0.12509131675E+03 0.  0.
         23    2    1    2    0    0 -0.22712686006E+02  0.30961127363E+02  0.17066383331E+02  0.10068376404E+03  0.91495909134E+02 0.  0.
          5    1    3    3  502    0 -0.34731423800E+02 -0.27022299754E+00 -0.80842869200E+01  0.35905054166E+02  0.41800000000E+01 0.  1.
         -5    1    3    3    0  502  0.57444109806E+02 -0.30690904366E+02  0.11860860226E+03  0.13537810123E+03  0.41800000000E+01 0.  1.
        -11    1    4    4    0    0 -0.11623011374E+02  0.54157421860E+02  0.38296581929E+02  0.67340544425E+02  0.00000000000E+00 0.  1.
         11    1    4    4    0    0 -0.11089674633E+02 -0.23196294497E+02 -0.21230198598E+02  0.33343219616E+02  0.00000000000E+00 0. -1.
</event>
<event>
 8    1  0.4798744E-006  0.1501314E+03  0.7561462E-02  0.1200312E+00
         -4   -1    0    0    0  501 -0.00000000000E+00  0.00000000000E+00  0.39674848627E+02  0.39674848627E+02  0.00000000000E+00 0. -1.
          4   -1    0    0  501    0  0.00000000000E+00 -0.00000000000E+00 -0.93138364404E+03  0.93138364404E+03  0.00000000000E+00 0.  1.
         23    2    1    2    0    0  0.67601025082E+02 -0.11646407689E+03 -0.24070805240E+03  0.30285580962E+03  0.12508994817E+03 0.  0.
         23    2    1    2    0    0 -0.67601025082E+02  0.11646407689E+03 -0.65100074301E+03  0.66820268304E+03  0.67520948104E+02 0.  0.
          5    1    3    3  502    0  0.84506078228E+00 -0.65687546295E+02 -0.19797502486E+03  0.20863161490E+03  0.41800000000E+01 0. -1.
         -5    1    3    3    0  502  0.66755964300E+02 -0.50776530595E+02 -0.42733027546E+02  0.94224194727E+02  0.41800000000E+01 0. -1.
        -11    1    4    4    0    0  0.89388580347E+01  0.44545282356E+02 -0.18184177565E+03  0.18743163217E+03  0.00000000000E+00 0.  1.
         11    1    4    4    0    0 -0.76539883117E+02  0.71918794534E+02 -0.46915896735E+03  0.48077105088E+03  0.00000000000E+00 0. -1.
</event>
<event>
 8    1  0.8865142E-006  0.5481643E+03  0.7561462E-02  0.1001920E+00
          1   -1    0    0  501    0  0.00000000000E+00  0.00000000000E+00  0.11373699304E+04  0.11373699304E+04  0.00000000000E+00 0. -1.
         -1   -1    0    0    0  501 -0.00000000000E+00 -0.00000000000E+00 -0.26922782592E+03  0.26922782592E+03  0.00000000000E+00 0.  1.
         23    2    1    2    0    0 -0.24904458323E+02 -0.54098326487E+03  0.39384816671E+03  0.68120973137E+03  0.12508874762E+03 0.  0.
         23    2    1    2    0    0  0.24904458323E+02  0.54098326487E+03  0.47429393773E+03  0.72538802492E+03  0.89162337462E+02 0.  0.
          5    1    3    3  502    0 -0.16346748525E+02 -0.15521780176E+02 -0.23559335977E+01  0.23047010007E+02  0.41800000000E+01 0. -1.
         -5    1    3    3    0  502 -0.85577097989E+01 -0.52546148469E+03  0.39620410031E+03  0.65816272136E+03  0.41800000000E+01 0. -1.
        -11    1    4    4    0    0 -0.27620601395E+02  0.99667176823E+02  0.10715412997E+03  0.14892431409E+03  0.00000000000E+00 0.  1.
         11    1    4    4    0    0  0.52525059718E+02  0.44131608804E+03  0.36713980776E+03  0.57646371083E+03  0.00000000000E+00 0. -1.
</event>
<event>
 8    1  0.4798744E-006  0.1560449E+03  0.7561462E-02  0.1193236E+00
         -2   -1    0    0    0  501 -0.00000000000E+00  0.00000000000E+00  0.80724445221E+02  0.80724445221E+02  0.00000000000E+00 0.  1.
          2   -1    0    0  501    0  0.00000000000E+00 -0.00000000000E+00 -0.33520380115E+03  0.33520380115E+03  0.00000000000E+00 0. -1.
         23    2    1    2    0    0 -0.93161554995E+02  0.75640912930E+02 -0.12845751554E+03  0.21575152300E+03  0.12508702306E+03 0.  0.
         23    2    1    2    0    0  0.93161554995E+02 -0.75640912930E+02 -0.12602184038E+03  0.20017672337E+03  0.98937319998E+02 0.  0.
          5    1    3    3  502    0 -0.30446777788E+02  0.89697290988E+02 -0.11656198688E+03  0.15025571362E+03  0.41800000000E+01 0.  1.
         -5    1    3    3    0  502 -0.62714777207E+02 -0.14056378058E+02 -0.11895528662E+02  0.65495809380E+02  0.41800000000E+01 0.  1.
        -11    1    4    4    0    0  0.52707844653E+02 -0.94521807950E+02 -0.10515587108E+03  0.15089813216E+03  0.00000000000E+00 0.  1.
         11    1    4    4    0    0  0.40453710341E+02  0.18880895020E+02 -0.20865969303E+02  0.49278591215E+02  0.00000000000E+00 0. -1.
</event>
<event>
 8    1  0.4798744E-006  0.1490345E+03  0.7561462E-02  0.1201664E+00
          2   -1    0    0  501    0  0.00000000000E+00  0.00000000000E+00  0.61656164581E+03  0.61656164581E+03  0.00000000000E+00 0. -1.
         -2   -1    0    0    0  501 -0.00000000000E+00 -0.00000000000E+00 -0.51709110761E+02  0.51709110761E+02  0.00000000000E+00 0.  1.
         23    2    1    2    0    0  0.10314403673E+03 -0.88099836688E+02  0.21431468259E+03  0.28281510755E+03  0.12511326209E+03 0.  0.
         23    2    1    2    0    0 -0.10314403673E+03  0.88099836688E+02  0.35053785246E+03  0.38545564902E+03  0.85434172410E+02 0.  0.
          5    1    3    3  502    0  0.86998880164E+02 -0.57063067410E+02  0.51378589651E+02  0.11611300826E+03  0.41800000000E+01 0.  1.
         -5    1    3    3    0  502  0.16145156564E+02 -0.31036769279E+02  0.16293609293E+03  0.16670209929E+03  0.41800000000E+01 0.  1.
        -11    1    4    4    0    0 -0.10771665110E+03  0.47285664991E+02  0.23426896375E+03  0.26214644459E+03  0.00000000000E+00 0. -1.
         11    1    4    4    0    0  0.45726143693E+01  0.40814171697E+02  0.11626888871E+03  0.12330920443E+03  0.00000000000E+00 0.  1.
</event>
<event>
 8    1  0.4798744E-006  0.9695442E+02  0.7561462E-02  0.1286834E+00
         -1   -1    0    0    0  501 -0.00000000000E+00  0.00000000000E+00  0.80797482469E+02  0.80797482469E+02  0.00000000000E+00 0.  1.
          1   -1    0    0  501    0  0.00000000000E+00 -0.00000000000E+00 -0.25225645906E+03  0.25225645906E+03  0.00000000000E+00 0. -1.
         23    2    1    2    0    0 -0.73052466952E+02  0.21158375974E+02 -0.16542704825E+02  0.13789847711E+03  0.11383316346E+03 0.  0.
         23    2    1    2    0    0  0.73052466952E+02 -0.21158375974E+02 -0.15491627176E+03  0.19515546442E+03  0.91116761544E+02 0.  0.
          5    1    3    3  502    0 -0.29021080708E+02 -0.29886459267E+02 -0.47741952829E+02  0.63499527817E+02  0.41800000000E+01 0. -1.
         -5    1    3    3    0  502 -0.44031386244E+02  0.51044835241E+02  0.31199248004E+02  0.74398949290E+02  0.41800000000E+01 0.  1.
        -11    1    4    4    0    0  0.50111120067E+02  0.42211292815E+01 -0.17038467154E+02  0.53096625596E+02  0.00000000000E+00 0. -1.
         11    1    4    4    0    0  0.22941346885E+02 -0.25379505255E+02 -0.13787780461E+03  0.14205883882E+03  0.00000000000E+00 0.  1.
</event>
<event>
 8    1  0.4798744E-006  0.1108893E+03  0.7561462E-02  0.1258932E+00
          2   -1    0    0  501    0  0.00000000000E+00  0.00000000000E+00  0.75001345793E+03  0.75001345793E+03  0.00000000000E+00 0. -1.
         -2   -1    0    0    0  501 -0.00000000000E+00 -0.00000000000E+00 -0.26168185340E+02  0.26168185340E+02  0.00000000000E+00 0.  1.
         23    2    1    2    0    0 -0.47294608201E+02  0.40342936344E+02  0.22927366015E+03  0.26847475454E+03  0.12509176674E+03 0.  0.
         23    2    1    2    0    0  0.47294608201E+02 -0.40342936344E+02  0.49457161244E+03  0.50770688873E+03  0.96441031506E+02 0.  0.
          5    1    3    3  502    0 -0.27828804399E+01  0.64646515331E+02  0.19892377443E+03  0.20922489527E+03  0.41800000000E+01 0. -1.
         -5    1    3    3    0  502 -0.44511727761E+02 -0.24303578987E+02  0.30349885722E+02  0.59249859267E+02  0.41800000000E+01 0. -1.
        -11    1    4    4    0    0  0.22670324143E+02 -0.66421598410E+02  0.40811183028E+03  0.41410269058E+03  0.00000000000E+00 0.  1.
         11    1    4    4    0    0  0.24624284058E+02  0.26078662066E+02  0.86459782160E+02  0.93604198152E+02  0.00000000000E+00 0. -1.
</event>
<event>
 8    1  0.4798744E-006  0.8737114E+02  0.7561462E-02  0.1309346E+00
         -1   -1    0    0    0  501 -0.00000000000E+00  0.00000000000E+00  0.16044121081E+03  0.16044121081E+03  0.00000000000E+00 0.  1.
          1   -1    0    0  501    0  0.00000000000E+00 -0.00000000000E+00 -0.98787835799E+02  0.98787835799E+02  0.00000000000E+00 0. -1.
         23    2    1    2    0    0 -0.31838553330E+02 -0.45592868026E+02  0.30207266811E+02  0.14011182490E+03  0.12500576553E+03 0.  0.
         23    2    1    2    0    0  0.31838553330E+02  0.45592868026E+02  0.31446108195E+02  0.11911722171E+03  0.10053681760E+03 0.  0.
          5    1    3    3  502    0 -0.22077922683E+02 -0.43699491011E+02 -0.43495997994E+02  0.65623581327E+02  0.41800000000E+01 0. -1.
         -5    1    3    3    0  502 -0.97606306469E+01 -0.18933770143E+01  0.73703264805E+02  0.74488243570E+02  0.41800000000E+01 0. -1.
        -11    1    4    4    0    0  0.37480028559E+02  0.75549472778E+02  0.24960939747E+02  0.87951827103E+02  0.00000000000E+00 0.  1.
         11    1    4    4    0    0 -0.56414752291E+01 -0.29956604752E+02  0.64851684486E+01  0.31165394604E+02  0.00000000000E+00 0. -1.
</event>
<event>
 7    1  0.4798744E-006  0.1782360E+03  0.7561462E-02  0.1169521E+00
          1   -1    0    0  501    0  0.00000000000E+00  0.00000000000E+00  0.13308160378E+03  0.13308160378E+03  0.00000000000E+00 0. -1.
         -1   -1    0    0    0  501 -0.00000000000E+00 -0.00000000000E+00 -0.35917801965E+03  0.35917801965E+03  0.00000000000E+00 0.  1.
         23    2    1    2    0    0 -0.13530964866E+03  0.41814013491E+02  0.26453370816E+02  0.16931955610E+03  0.88950652072E+02 0.  0.
          5    1    1    2  502    0 -0.21312370430E+02  0.10564192903E+02 -0.39756180639E+01  0.24476463062E+02  0.41800000000E+01 0. -1.
         -5    1    1    2    0  502  0.15662201909E+03 -0.52378206394E+02 -0.24857416862E+03  0.29846360427E+03  0.41800000000E+01 0.  1.
        -11    1    3    3    0    0 -0.23911939677E+02  0.49997766489E+02  0.11808634418E+02  0.56665698264E+02  0.00000000000E+00 0.  1.
         11    1    3    3    0    0 -0.11139770899E+03 -0.81837529978E+01  0.14644736398E+02  0.11265385783E+03  0.00000000000E+00 0. -1.
</event>
<event>
 8    1  0.4798744E-006  0.9530591E+02  0.7561462E-02  0.1290489E+00
         -1   -1    0    0    0  501 -0.00000000000E+00  0.00000000000E+00  0.22743746292E+03  0.22743746292E+03  0.00000000000E+00 0.  1.
          1   -1    0    0  501    0  0.00000000000E+00 -0.00000000000E+00 -0.58248599601E+02  0.58248599601E+02  0.00000000000E+00 0. -1.
         23    2    1    2    0    0 -0.40119251643E+01 -0.30643199072E+02  0.11563917104E+03  0.17313638972E+03  0.12509472560E+03 0.  0.
         23    2    1    2    0    0  0.40119251643E+01  0.30643199072E+02  0.53549692278E+02  0.11254967280E+03  0.94046574158E+02 0.  0.
          5    1    3    3  502    0  0.17340312163E+02 -0.64726851164E+02  0.21204269125E+02  0.70408416518E+02  0.41800000000E+01 0.  1.
         -5    1    3    3    0  502 -0.21352237327E+02  0.34083652092E+02  0.94434901913E+02  0.10272797320E+03  0.41800000000E+01 0.  1.
        -11    1    4    4    0    0  0.22177757247E+02  0.51083526934E+02  0.62561030600E+02  0.83757162024E+02  0.00000000000E+00 0.  1.
         11    1    4    4    0    0 -0.18165832082E+02 -0.20440327861E+02 -0.90113383221E+01  0.28792510774E+02  0.00000000000E+00 0. -1.
</event>
<event>
 7    1  0.4798744E-006  0.1853125E+03  0.7561462E-02  0.1162758E+00
          2   -1    0    0  501    0  0.00000000000E+00  0.00000000000E+00  0.41970956383E+03  0.41970956383E+03  0.00000000000E+00 0. -1.
         -2   -1    0    0    0  501 -0.00000000000E+00 -0.00000000000E+00 -0.16020481432E+03  0.16020481432E+03  0.00000000000E+00 0.  1.
         23    2    1    2    0    0  0.37312789622E+02 -0.14031747285E+02  0.12305958823E+03  0.16101202113E+03  0.95875306997E+02 0.  0.
          5    1    1    2  502    0 -0.15798171086E+03 -0.29047521850E+02  0.21510673632E+03  0.26849648024E+03  0.41800000000E+01 0. -1.
         -5    1    1    2    0  502  0.12066892124E+03  0.43079269136E+02 -0.78661575034E+02  0.15040587678E+03  0.41800000000E+01 0.  1.
        -11    1    3    3    0    0  0.55284962385E+02 -0.25015942006E+02  0.12589777221E+03  0.13975862573E+03  0.00000000000E+00 0.  1.
         11    1    3    3    0    0 -0.17972172763E+02  0.10984194721E+02 -0.28381839793E+01  0.21253395394E+02  0.00000000000E+00 0. -1.
</event>
<event>
 8    1  0.4798744E-006  0.1495079E+03  0.7561462E-02  0.1201079E+00
         -1   -1    0    0    0  501 -0.00000000000E+00  0.00000000000E+00  0.80626663156E+02  0.80626663156E+02  0.00000000000E+00 0.  1.
          1   -1    0    0  501    0  0.00000000000E+00 -0.00000000000E+00 -0.38163482866E+03  0.38163482866E+03  0.00000000000E+00 0. -1.
         23    2    1    2    0    0 -0.10256460096E+03  0.10182970365E+02 -0.42371668796E+02  0.16753012435E+03  0.12509114275E+03 0.  0.
         23    2    1    2    0    0  0.10256460096E+03 -0.10182970365E+02 -0.25863649671E+03  0.29473136747E+03  0.96698248609E+02 0.  0.
          5    1    3    3  502    0 -0.13047526372E+03  0.16728903529E+02 -0.43283851210E+02  0.13854463119E+03  0.41800000000E+01 0. -1.
         -5    1    3    3    0  502  0.27910662764E+02 -0.65459331638E+01  0.91218241483E+00  0.28985493159E+02  0.41800000000E+01 0. -1.
        -11    1    4    4    0    0  0.95464247116E+02 -0.43113027500E+02 -0.21865379005E+03  0.24244924319E+03  0.00000000000E+00 0.  1.
         11    1    4    4    0    0  0.71003538400E+01  0.32930057135E+02 -0.39982706656E+02  0.52282124279E+02  0.00000000000E+00 0. -1.
</event>
<event>
 8    1  0.4798744E-006  0.1073931E+03  0.7561462E-02  0.1265475E+00
         -3   -1    0    0    0  501 -0.00000000000E+00  0.00000000000E+00  0.38170753066E+02  0.38170753066E+02  0.00000000000E+00 0.  1.
          3   -1    0    0  501    0  0.00000000000E+00 -0.00000000000E+00 -0.33750079531E+03  0.33750079531E+03  0.00000000000E+00 0. -1.
         23    2    1    2    0    0  0.27503366337E+02  0.15456999854E+02 -0.14174697166E+03  0.19166388190E+03  0.12508991026E+03 0.  0.
         23    2    1    2    0    0 -0.27503366337E+02 -0.15456999854E+02 -0.15758307059E+03  0.18400766647E+03  0.89616087727E+02 0.  0.
          5    1    3    3  502    0  0.16899054793E+02  0.67094430858E+02 -0.48950775784E+02  0.84858067118E+02  0.41800000000E+01 0.  1.
         -5    1    3    3    0  502  0.10604311544E+02 -0.51637431004E+02 -0.92796195873E+02  0.10680581479E+03  0.41800000000E+01 0.  1.
        -11    1    4    4    0    0  0.12081075454E+02  0.29983267293E+02 -0.75923089058E+02  0.82518265577E+02  0.00000000000E+00 0.  1.
         11    1    4    4    0    0 -0.39584441790E+02 -0.45440267147E+02 -0.81659981529E+02  0.10148940089E+03  0.00000000000E+00 0. -1.
</event>
<event>
 8    1  0.4798744E-006  0.5692782E+02  0.7561462E-02  0.1411196E+00
         -1   -1    0    0    0  501 -0.00000000000E+00  0.00000000000E+00  0.83133805083E+02  0.83133805083E+02  0.00000000000E+00 0.  1.
          1   -1    0    0  501    0  0.00000000000E+00 -0.00000000000E+00 -0.16159670720E+03  0.16159670720E+03  0.00000000000E+00 0. -1.
         23    2    1    2    0    0  0.26898734502E+02 -0.61190852936E+01 -0.38986893597E+01  0.12815217675E+03  0.12508715163E+03 0.  0.
         23    2    1    2    0    0 -0.26898734502E+02  0.61190852936E+01 -0.74564212755E+02  0.11657833553E+03  0.85262543767E+02 0.  0.
          5    1    3    3  502    0  0.38574648993E+02 -0.11139296619E+02 -0.58978658079E+02  0.71470567249E+02  0.41800000000E+01 0. -1.
         -5    1    3    3    0  502 -0.11675914491E+02  0.50202113250E+01  0.55079968719E+02  0.56681609496E+02  0.41800000000E+01 0. -1.
        -11    1    4    4    0    0  0.13543791919E+02 -0.97246288568E+01 -0.71073491428E+02  0.73003040277E+02  0.00000000000E+00 0. -1.
         11    1    4    4    0    0 -0.40442526421E+02  0.15843714150E+02 -0.34907213269E+01  0.43575295257E+02  0.00000000000E+00 0.  1.
</event>
<event>
 8    1  0.4798744E-006  0.9160512E+02  0.7561462E-02  0.1299011E+00
          1   -1    0    0  501    0  0.00000000000E+00  0.00000000000E+00  0.38849820749E+02  0.38849820749E+02  0.00000000000E+00 0. -1.
         -1   -1    0    0    0  501 -0.00000000000E+00 -0.00000000000E+00 -0.36171098355E+03  0.36171098355E+03  0.00000000000E+00 0.  1.
         23    2    1    2    0    0  0.16757761108E+02  0.13171487594E+02 -0.25894454367E+03  0.28836477273E+03  0.12509058643E+03 0.  0.
         23    2    1    2    0    0 -0.16757761108E+02 -0.13171487594E+02 -0.63916619126E+02  0.11219603156E+03  0.89712343940E+02 0.  0.
          5    1    3    3  502    0 -0.10269014927E+02  0.63748711037E+02 -0.17533008313E+03  0.18688890090E+03  0.41800000000E+01 0. -1.
         -5    1    3    3    0  502  0.27026776035E+02 -0.50577223443E+02 -0.83614460541E+02  0.10147587184E+03  0.41800000000E+01 0. -1.
        -11    1    4    4    0    0  0.64682833234E+01 -0.31037506571E+02 -0.74559668698E+02  0.81020427669E+02  0.00000000000E+00 0.  1.
         11    1    4    4    0    0 -0.23226044431E+02  0.17866018976E+02  0.10643049572E+02  0.31175603895E+02  0.00000000000E+00 0. -1.
</event>
<event>
 8    1  0.4798744E-006  0.1035091E+03  0.7561462E-02  0.1273085E+00
         -1   -1    0    0    0  501 -0.00000000000E+00  0.00000000000E+00  0.28007366091E+02  0.28007366091E+02  0.00000000000E+00 0.  1.
          1   -1    0    0  501    0  0.00000000000E+00 -0.00000000000E+00 -0.49482730313E+03  0.49482730313E+03  0.00000000000E+00 0. -1.
         23    2    1    2    0    0  0.50730898930E+01  0.27661587206E+02 -0.18020530995E+03  0.22116070547E+03  0.12508878551E+03 0.  0.
         23    2    1    2    0    0 -0.50730898930E+01 -0.27661587206E+02 -0.28661462708E+03  0.30167396375E+03  0.89823918300E+02 0.  0.
          5    1    3    3  502    0 -0.43222628828E+02 -0.25961373868E+02 -0.44389706451E+02  0.67306069672E+02  0.41800000000E+01 0. -1.
         -5    1    3    3    0  502  0.48295718721E+02  0.53622961074E+02 -0.13581560350E+03  0.15385463580E+03  0.41800000000E+01 0. -1.
        -11    1    4    4    0    0  0.35125414824E+02 -0.26364369725E+02 -0.80783955921E+02  0.91950651394E+02  0.00000000000E+00 0.  1.
         11    1    4    4    0    0 -0.40198504717E+02 -0.12972174816E+01 -0.20583067116E+03  0.20972331235E+03  0.00000000000E+00 0. -1.
</event>
<event>
 8    1  0.4798744E-006  0.7654709E+02  0.7561462E-02  0.1339146E+00
          2   -1    0    0  501    0  0.00000000000E+00  0.00000000000E+00  0.19173953485E+03  0.19173953485E+03  0.00000000000E+00 0. -1.
         -2   -1    0    0    0  501 -0.00000000000E+00 -0.00000000000E+00 -0.70502118521E+02  0.70502118521E+02  0.00000000000E+00 0.  1.
         23    2    1    2    0    0  0.37858601687E+02 -0.20931533254E+02  0.51480104033E+02  0.14201579328E+03  0.12508749588E+03 0.  0.
         23    2    1    2    0    0 -0.37858601687E+02  0.20931533254E+02  0.69757312296E+02  0.12022586009E+03  0.87845159281E+02 0.  0.
          5    1    3    3  502    0  0.86807016752E+01 -0.33278255181E+02 -0.35347092501E+02  0.49494304700E+02  0.41800000000E+01 0. -1.
         -5    1    3    3    0  502  0.29177900012E+02  0.12346721928E+02  0.86827196535E+02  0.92521488583E+02  0.41800000000E+01 0. -1.
        -11    1    4    4    0    0 -0.10069072035E+02 -0.28256395391E+02 -0.58844324828E+00  0.30002605847E+02  0.00000000000E+00 0.  1.
         11    1    4    4    0    0 -0.27789529653E+02  0.49187928645E+02  0.70345755545E+02  0.90223254241E+02  0.00000000000E+00 0. -1.
</event>
<event>
 8    1  0.4798744E-006  0.1303727E+03  0.7561462E-02  0.1226904E+00
         -1   -1    0    0    0  501 -0.00000000000E+00  0.00000000000E+00  0.11838586749E+03  0.11838586749E+03  0.00000000000E+00 0. -1.
          1   -1    0    0  501    0  0.00000000000E+00 -0.00000000000E+00 -0.22145984739E+03  0.22145984739E+03  0.00000000000E+00 0.  1.
         23    2    1    2    0    0  0.16125380836E+02  0.91855407027E+02  0.22143440352E+02  0.15758912834E+03  0.12508620113E+03 0.  0.
         23    2    1    2    0    0 -0.16125380836E+02 -0.91855407027E+02 -0.12521742025E+03  0.18225658654E+03  0.94024556867E+02 0.  0.
          5    1    3    3  502    0 -0.36233404435E+02  0.45021654478E+02  0.55031337740E+02  0.79910759615E+02  0.41800000000E+01 0.  1.
         -5    1    3    3    0  502  0.52358785271E+02  0.46833752549E+02 -0.32887897388E+02  0.77678368723E+02  0.41800000000E+01 0.  1.
        -11    1    4    4    0    0  0.39617510141E+02 -0.36373198345E+02 -0.50580986342E+02  0.73830839403E+02  0.00000000000E+00 0.  1.
         11    1    4    4    0    0 -0.55742890976E+02 -0.55482208682E+02 -0.74636433911E+02  0.10842574713E+03  0.00000000000E+00 0. -1.
</event>
<event>
 8    1  0.4798744E-006  0.9617783E+02  0.7561462E-02  0.1288545E+00
          2   -1    0    0  501    0  0.00000000000E+00  0.00000000000E+00  0.71677380185E+02  0.71677380185E+02  0.00000000000E+00 0. -1.
         -2   -1    0    0    0  501 -0.00000000000E+00 -0.00000000000E+00 -0.21303423768E+03  0.21303423768E+03  0.00000000000E+00 0.  1.
         23    2    1    2    0    0 -0.46252724066E+02 -0.34046598868E+02 -0.10849616508E+03  0.17526331398E+03  0.12508927218E+03 0.  0.
         23    2    1    2    0    0  0.46252724066E+02  0.34046598868E+02 -0.32860692416E+02  0.10944830388E+03  0.87181538974E+02 0.  0.
          5    1    3    3  502    0 -0.46321907997E+01 -0.53727702136E+02 -0.11640988103E+03  0.12836220616E+03  0.41800000000E+01 0.  1.
         -5    1    3    3    0  502 -0.41620533267E+02  0.19681103268E+02  0.79137159509E+01  0.46901107827E+02  0.41800000000E+01 0.  1.
        -11    1    4    4    0    0 -0.10952281893E+02  0.33057629859E+02 -0.38552380755E+02  0.51952338084E+02  0.00000000000E+00 0.  1.
         11    1    4    4    0    0  0.57205005959E+02  0.98896900925E+00  0.56916883391E+01  0.57495965795E+02  0.00000000000E+00 0. -1.
</event>
<event>
 8    1  0.4798744E-006  0.1173368E+03  0.7561462E-02  0.1247556E+00
         -2   -1    0    0    0  501 -0.00000000000E+00  0.00000000000E+00  0.59882456293E+02  0.59882456293E+02  0.00000000000E+00 0.  1.
          2   -1    0    0  501    0  0.00000000000E+00 -0.00000000000E+00 -0.25453192783E+03  0.25453192783E+03  0.00000000000E+00 0. -1.
         23    2    1    2    0    0  0.28851280525E+02  0.36093606218E+02 -0.62071281647E+02  0.14708798917E+03  0.12508752038E+03 0.  0.
         23    2    1    2    0    0 -0.28851280525E+02 -0.36093606218E+02 -0.13257818989E+03  0.16732639495E+03  0.91027475064E+02 0.  0.
          5    1    3    3  502    0  0.20747368507E+02 -0.45760690969E+02 -0.30232350955E+02  0.58787427076E+02  0.41800000000E+01 0.  1.
         -5    1    3    3    0  502  0.81039120180E+01  0.81854297187E+02 -0.31838930692E+02  0.88300562091E+02  0.41800000000E+01 0.  1.
        -11    1    4    4    0    0 -0.15025587984E+02  0.30436682558E+02 -0.39450211197E+02  0.52043050477E+02  0.00000000000E+00 0. -1.
         11    1    4    4    0    0 -0.13825692540E+02 -0.66530288776E+02 -0.93127978691E+02  0.11528334448E+03  0.00000000000E+00 0.  1.
</event>
<event>
 8    1  0.4798744E-006  0.2299505E+03  0.7561462E-02  0.1126675E+00
          2   -1    0    0  501    0  0.00000000000E+00  0.00000000000E+00  0.67192658170E+02  0.67192658170E+02  0.00000000000E+00 0. -1.
         -2   -1    0    0    0  501 -0.00000000000E+00 -0.00000000000E+00 -0.94383483561E+03  0.94383483561E+03  0.00000000000E+00 0.  1.
         23    2    1    2    0    0  0.11153299690E+03  0.19583953525E+03 -0.50461153932E+03  0.56663298422E+03  0.12508956882E+03 0.  0.
         23    2    1    2    0    0 -0.11153299690E+03 -0.19583953525E+03 -0.37203063812E+03  0.44439450956E+03  0.91032694460E+02 0.  0.
          5    1    3    3  502    0  0.10094155618E+03  0.17409957549E+03 -0.30446860252E+03  0.36499104409E+03  0.41800000000E+01 0.  1.
         -5    1    3    3    0  502  0.10591440724E+02  0.21739959761E+02 -0.20014293680E+03  0.20164194013E+03  0.41800000000E+01 0.  1.
        -11    1    4    4    0    0 -0.76601491382E+02 -0.18018471919E+03 -0.25649387690E+03  0.32268162389E+03  0.00000000000E+00 0. -1.
         11    1    4    4    0    0 -0.34931505518E+02 -0.15654816064E+02 -0.11553676122E+03  0.12171288567E+03  0.00000000000E+00 0.  1.
</event>
<event>
 8    1  0.4798744E-006  0.1112193E+03  0.7561462E-02  0.1258328E+00
          1   -1    0    0  501    0  0.00000000000E+00  0.00000000000E+00  0.39780247636E+03  0.39780247636E+03  0.00000000000E+00 0. -1.
         -1   -1    0    0    0  501 -0.00000000000E+00 -0.00000000000E+00 -0.45496861510E+02  0.45496861510E+02  0.00000000000E+00 0.  1.
         23    2    1    2    0    0  0.64304296621E+02 -0.44935954507E+02  0.21643462142E+03  0.26200255451E+03  0.12508841133E+03 0.  0.
         23    2    1    2    0    0 -0.64304296621E+02  0.44935954507E+02  0.13587099344E+03  0.18129678337E+03  0.90847753028E+02 0.  0.
          5    1    3    3  502    0  0.90337628685E+02 -0.69537588061E-01  0.10216394458E+03  0.13643986208E+03  0.41800000000E+01 0. -1.
         -5    1    3    3    0  502 -0.26033332064E+02 -0.44866416919E+02  0.11427067683E+03  0.12556269242E+03  0.41800000000E+01 0. -1.
        -11    1    4    4    0    0 -0.36093530835E+02  0.34367982129E+02  0.14205438399E+03  0.15054351256E+03  0.00000000000E+00 0. -1.
         11    1    4    4    0    0 -0.28210765786E+02  0.10567972378E+02 -0.61833905535E+01  0.30753270804E+02  0.00000000000E+00 0.  1.
</event>
<event>
 8    1  0.4798744E-006  0.1427105E+03  0.7561462E-02  0.1209728E+00
          3   -1    0    0  501    0  0.00000000000E+00  0.00000000000E+00  0.13041365472E+03  0.13041365472E+03  0.00000000000E+00 0. -1.
         -3   -1    0    0    0  501 -0.00000000000E+00 -0.00000000000E+00 -0.19923479817E+03  0.19923479817E+03  0.00000000000E+00 0.  1.
         23    2    1    2    0    0  0.45600303530E+02  0.10880102427E+03 -0.46259235740E+02  0.17805572786E+03  0.12508746847E+03 0.  0.
         23    2    1    2    0    0 -0.45600303530E+02 -0.10880102427E+03 -0.22561907706E+02  0.15159272503E+03  0.92489264446E+02 0.  0.
          5    1    3    3  502    0 -0.75693717583E+01  0.71022259896E+02 -0.77618859542E+02  0.10556332955E+03  0.41800000000E+01 0.  1.
         -5    1    3    3    0  502  0.53169675288E+02  0.37778764373E+02  0.31359623802E+02  0.72492398310E+02  0.41800000000E+01 0.  1.
        -11    1    4    4    0    0 -0.57200097708E+02 -0.11965859031E+03 -0.26441505073E+02  0.13523750442E+03  0.00000000000E+00 0. -1.
         11    1    4    4    0    0  0.11599794178E+02  0.10857566038E+02  0.38795973666E+01  0.16355220603E+02  0.00000000000E+00 0.  1.
</event>
<event>
 8    1  0.4798744E-006  0.1447409E+03  0.7561462E-02  0.1207088E+00
          2   -1    0    0  501    0  0.00000000000E+00  0.00000000000E+00  0.27793450138E+03  0.27793450138E+03  0.00000000000E+00 0. -1.
         -2   -1    0    0    0  501 -0.00000000000E+00 -0.00000000000E+00 -0.11244803064E+03  0.11244803064E+03  0.00000000000E+00 0.  1.
         23    2    1    2    0    0  0.10742817536E+03  0.35132966093E+02  0.56593732131E+01  0.16869028611E+03  0.12509694623E+03 0.  0.
         23    2    1    2    0    0 -0.10742817536E+03 -0.35132966093E+02  0.15982709753E+03  0.22169224591E+03  0.10405581494E+03 0.  0.
          5    1    3    3  502    0 -0.12291332846E+02 -0.22604988780E+02 -0.20497394453E+02  0.33161392616E+02  0.41800000000E+01 0. -1.
         -5    1    3    3    0  502  0.11971950820E+03  0.57737954873E+02  0.26156767666E+02  0.13552889349E+03  0.41800000000E+01 0. -1.
        -11    1    4    4    0    0  0.14500559133E+01 -0.20528630948E+02 -0.71783959940E+01  0.21795795920E+02  0.00000000000E+00 0.  1.
         11    1    4    4    0    0 -0.10887823127E+03 -0.14604335145E+02  0.16700549352E+03  0.19989644999E+03  0.00000000000E+00 0. -1.
</event>
<event>
 8    1  0.4798744E-006  0.8284951E+02  0.7561462E-02  0.1321154E+00
         -1   -1    0    0    0  501 -0.00000000000E+00  0.00000000000E+00  0.10069779435E+03  0.10069779435E+03  0.00000000000E+00 0.  1.
          1   -1    0    0  501    0  0.00000000000E+00 -0.00000000000E+00 -0.16950389651E+03  0.16950389651E+03  0.00000000000E+00 0. -1.
         23    2    1    2    0    0  0.18683803186E+02 -0.41687563720E+02  0.20094777437E+02  0.13467615683E+03  0.12508768791E+03 0.  0.
         23    2    1    2    0    0 -0.18683803186E+02  0.41687563720E+02 -0.88900879596E+02  0.13552553404E+03  0.91525223365E+02 0.  0.
          5    1    3    3  502    0  0.10823909645E+02 -0.64452347410E+02  0.59384157215E+02  0.88403691296E+02  0.41800000000E+01 0.  1.
         -5    1    3    3    0  502  0.78598935407E+01  0.22764783690E+02 -0.39289379778E+02  0.46272465531E+02  0.41800000000E+01 0.  1.
        -11    1    4    4    0    0 -0.40275198345E+02  0.19288122067E+02 -0.36842822339E+01  0.44807334112E+02  0.00000000000E+00 0.  1.
         11    1    4    4    0    0  0.21591395160E+02  0.22399441653E+02 -0.85216597363E+02  0.90718199924E+02  0.00000000000E+00 0. -1.
</event>
<event>
 7    1  0.4798744E-006  0.1337586E+03  0.7561462E-02  0.1221983E+00
         -1   -1    0    0    0  501 -0.00000000000E+00  0.00000000000E+00  0.16608400269E+03  0.16608400269E+03  0.00000000000E+00 0.  1.
          1   -1    0    0  501    0  0.00000000000E+00 -0.00000000000E+00 -0.15720351115E+03  0.15720351115E+03  0.00000000000E+00 0. -1.
         23    2    1    2    0    0 -0.37299265951E+02 -0.51695753897E+02 -0.81579995747E+02  0.13753537440E+03  0.90537270199E+02 0.  0.
          5    1    1    2  502    0 -0.11472592345E+02 -0.46654020700E+02  0.47801933494E+02  0.67902247889E+02  0.41800000000E+01 0. -1.
         -5    1    1    2    0  502  0.48771858296E+02  0.98349774597E+02  0.42658553799E+02  0.11784989155E+03  0.41800000000E+01 0.  1.
        -11    1    3    3    0    0  0.23346149613E+02 -0.41951732233E+02 -0.25499670320E+02  0.54361969478E+02  0.00000000000E+00 0. -1.
         11    1    3    3    0    0 -0.60645415564E+02 -0.97440216649E+01 -0.56080325426E+02  0.83173404927E+02  0.00000000000E+00 0.  1.
</event>
<event>
 8    1  0.4798744E-006  0.8008625E+02  0.7561462E-02  0.1328807E+00
          1   -1    0    0  501    0  0.00000000000E+00  0.00000000000E+00  0.39314023697E+02  0.39314023697E+02  0.00000000000E+00 0. -1.
         -1   -1    0    0    0  501 -0.00000000000E+00 -0.00000000000E+00 -0.37590674394E+03  0.37590674394E+03  0.00000000000E+00 0.  1.
         23    2    1    2    0    0  0.11994567272E+02  0.11642509350E+02 -0.27745889599E+03  0.30479595971E+03  0.12505087135E+03 0.  0.
         23    2    1    2    0    0 -0.11994567272E+02 -0.11642509350E+02 -0.59133824259E+02  0.11042480793E+03  0.91746451520E+02 0.  0.
          5    1    3    3  502    0  0.50053039760E+02 -0.84609120696E+01 -0.43825275149E+02  0.67193905707E+02  0.41800000000E+01 0.  1.
         -5    1    3    3    0  502 -0.38058472488E+02  0.20103421419E+02 -0.23363362084E+03  0.23760205401E+03  0.41800000000E+01 0.  1.
        -11    1    4    4    0    0 -0.54297740891E+01 -0.38226766686E+02  0.66412704620E+01  0.39177475815E+02  0.00000000000E+00 0. -1.
         11    1    4    4    0    0 -0.65647931827E+01  0.26584257336E+02 -0.65775094721E+02  0.71247332113E+02  0.00000000000E+00 0.  1.
</event>
<event>
 8    1  0.4798744E-006  0.1325143E+03  0.7561462E-02  0.1223772E+00
         -1   -1    0    0    0  501 -0.00000000000E+00  0.00000000000E+00  0.16462121858E+03  0.16462121858E+03  0.00000000000E+00 0.  1.
          1   -1    0    0  501    0  0.00000000000E+00 -0.00000000000E+00 -0.15966998561E+03  0.15966998561E+03  0.00000000000E+00 0. -1.
         23    2    1    2    0    0  0.10184710222E+03 -0.59087002513E+00  0.67605178544E+02  0.17489377086E+03  0.12507673470E+03 0.  0.
         23    2    1    2    0    0 -0.10184710222E+03  0.59087002513E+00 -0.62653945572E+02  0.14939743333E+03  0.89559448587E+02 0.  0.
          5    1    3    3  502    0 -0.28697874442E+02 -0.73567295925E+01  0.18586729593E+02  0.35222555057E+02  0.41800000000E+01 0. -1.
         -5    1    3    3    0  502  0.13054497666E+03  0.67658595673E+01  0.49018448951E+02  0.13967121580E+03  0.41800000000E+01 0. -1.
        -11    1    4    4    0    0 -0.36282876764E+02  0.11051795014E+02 -0.72939746762E+02  0.82211896809E+02  0.00000000000E+00 0. -1.
         11    1    4    4    0    0 -0.65564225452E+02 -0.10460924989E+02  0.10285801190E+02  0.67185536516E+02  0.00000000000E+00 0.  1.
</event>
<event>
 8    1  0.4798744E-006  0.1046068E+03  0.7561462E-02  0.1270896E+00
         -2   -1    0    0    0  501 -0.00000000000E+00  0.00000000000E+00  0.14359253875E+03  0.14359253875E+03  0.00000000000E+00 0.  1.
          2   -1    0    0  501    0  0.00000000000E+00 -0.00000000000E+00 -0.94074966797E+02  0.94074966797E+02  0.00000000000E+00 0. -1.
         23    2    1    2    0    0 -0.27480292330E+02 -0.85237146280E+01  0.50495120048E+02  0.13792494283E+03  0.12508282268E+03 0.  0.
         23    2    1    2    0    0  0.27480292330E+02  0.85237146280E+01 -0.97754809758E+00  0.99742562712E+02  0.95497659859E+02 0.  0.
          5    1    3    3  502    0 -0.58683332565E+01  0.53750702465E+02  0.47030417004E+02  0.71783757733E+02  0.41800000000E+01 0.  1.
         -5    1    3    3    0  502 -0.21611959073E+02 -0.62274417093E+02  0.34647030447E+01  0.66141185100E+02  0.41800000000E+01 0.  1.
        -11    1    4    4    0    0  0.31203546252E+02 -0.34056063684E+02 -0.23067710377E+02  0.51629410556E+02  0.00000000000E+00 0.  1.
         11    1    4    4    0    0 -0.37232539223E+01  0.42579778312E+02  0.22090162280E+02  0.48113152156E+02  0.00000000000E+00 0. -1.
</event>
<event>
 8    1  0.4798744E-006  0.9905035E+02  0.7561462E-02  0.1282306E+00
          2   -1    0    0  501    0  0.00000000000E+00  0.00000000000E+00  0.66975034812E+03  0.66975034812E+03  0.00000000000E+00 0. -1.
         -2   -1    0    0    0  501 -0.00000000000E+00 -0.00000000000E+00 -0.31028234805E+02  0.31028234805E+02  0.00000000000E+00 0.  1.
         23    2    1    2    0    0  0.91943410151E+02  0.22502217086E+02  0.33315342019E+03  0.36823437265E+03  0.12508161884E+03 0.  0.
         23    2    1    2    0    0 -0.91943410151E+02 -0.22502217086E+02  0.30556869312E+03  0.33254421027E+03  0.90848693582E+02 0.  0.
          5    1    3    3  502    0  0.59306635649E+01 -0.85628706855E+01  0.23017059170E+03  0.23044406959E+03  0.41800000000E+01 0.  1.
         -5    1    3    3    0  502  0.86012746587E+02  0.31065087771E+02  0.10298282849E+03  0.13779030306E+03  0.41800000000E+01 0.  1.
        -11    1    4    4    0    0 -0.49945749247E+02 -0.64081217341E+01  0.27147757711E+03  0.27610816136E+03  0.00000000000E+00 0. -1.
         11    1    4    4    0    0 -0.41997660904E+02 -0.16094095352E+02  0.34091116008E+02  0.56436048916E+02  0.00000000000E+00 0.  1.
</event>
<event>
 8    1  0.4798744E-006  0.1268875E+03  0.7561462E-02  0.1232149E+00
         -2   -1    0    0    0  501 -0.00000000000E+00  0.00000000000E+00  0.16808482983E+02  0.16808482983E+02  0.00000000000E+00 0.  1.
          2   -1    0    0  501    0  0.00000000000E+00 -0.00000000000E+00 -0.10389468971E+04  0.10389468971E+04  0.00000000000E+00 0. -1.
         23    2    1    2    0    0  0.45627366745E+02 -0.13442781259E+02 -0.38001162985E+03  0.40177890495E+03  0.12146968624E+03 0.  0.
         23    2    1    2    0    0 -0.45627366745E+02  0.13442781259E+02 -0.64212678425E+03  0.65397647512E+03  0.11443713555E+03 0.  0.
          5    1    3    3  502    0  0.56208545388E+02  0.43889186628E+02 -0.22742042750E+03  0.23837614084E+03  0.41800000000E+01 0. -1.
         -5    1    3    3    0  502 -0.10581178643E+02 -0.57331967887E+02 -0.15259120235E+03  0.16340276410E+03  0.41800000000E+01 0.  1.
        -11    1    4    4    0    0  0.18102807331E+02 -0.37931741552E+02 -0.21003302955E+03  0.21419711051E+03  0.00000000000E+00 0.  1.
         11    1    4    4    0    0 -0.63730174076E+02  0.51374522811E+02 -0.43209375471E+03  0.43977936461E+03  0.00000000000E+00 0. -1.
</event>
<event>
 8    1  0.4798744E-006  0.1109147E+03  0.7561462E-02  0.1258885E+00
          2   -1    0    0  501    0  0.00000000000E+00  0.00000000000E+00  0.90503392991E+02  0.90503392991E+02  0.00000000000E+00 0. -1.
         -2   -1    0    0    0  501 -0.00000000000E+00 -0.00000000000E+00 -0.17295985693E+03  0.17295985693E+03  0.00000000000E+00 0.  1.
         23    2    1    2    0    0  0.72589650471E+00 -0.58534678712E+02 -0.56976385262E+02  0.14940250502E+03  0.12509182423E+03 0.  0.
         23    2    1    2    0    0 -0.72589650471E+00  0.58534678712E+02 -0.25480078678E+02  0.11406074491E+03  0.94518694350E+02 0.  0.
          5    1    3    3  502    0 -0.52401757853E+02 -0.62776545340E+02 -0.19661775077E+02  0.84207462081E+02  0.41800000000E+01 0. -1.
         -5    1    3    3    0  502  0.53127654358E+02  0.42418666284E+01 -0.37314610185E+02  0.65195042935E+02  0.41800000000E+01 0. -1.
        -11    1    4    4    0    0  0.14970714814E+02  0.67002213616E+02 -0.49142443266E+02  0.84429844615E+02  0.00000000000E+00 0.  1.
         11    1    4    4    0    0 -0.15696611319E+02 -0.84675349045E+01  0.23662364588E+02  0.29630900292E+02  0.00000000000E+00 0. -1.
</event>
<event>
 8    1  0.4798744E-006  0.7677306E+02  0.7561462E-02  0.1338467E+00
          2   -1    0    0  501    0  0.00000000000E+00  0.00000000000E+00  0.12346984218E+03  0.12346984218E+03  0.00000000000E+00 0. -1.
         -2   -1    0    0    0  501 -0.00000000000E+00 -0.00000000000E+00 -0.11233665792E+03  0.11233665792E+03  0.00000000000E+00 0.  1.
         23    2    1    2    0    0 -0.46627770617E+02  0.85232923439E+01 -0.13251665284E+02  0.13442350213E+03  0.12508907141E+03 0.  0.
         23    2    1    2    0    0  0.46627770617E+02 -0.85232923439E+01  0.24384849553E+02  0.10138299797E+03  0.86238598582E+02 0.  0.
          5    1    3    3  502    0 -0.48030427777E+02 -0.46776449143E+00 -0.65439783997E+02  0.81283322555E+02  0.41800000000E+01 0. -1.
         -5    1    3    3    0  502  0.14026571598E+01  0.89910568353E+01  0.52188118713E+02  0.53140179572E+02  0.41800000000E+01 0. -1.
        -11    1    4    4    0    0 -0.11217993647E+02  0.25745544394E+02  0.19054560059E+02  0.33937482179E+02  0.00000000000E+00 0. -1.
         11    1    4    4    0    0  0.57845764264E+02 -0.34268836738E+02  0.53302894936E+01  0.67445515794E+02  0.00000000000E+00 0.  1.
</event>
<event>
 8    1  0.4798744E-006  0.1146177E+03  0.7561462E-02  0.1252250E+00
          2   -1    0    0  501    0  0.00000000000E+00  0.00000000000E+00  0.53290931675E+02  0.53290931675E+02  0.00000000000E+00 0. -1.
         -2   -1    0    0    0  501 -0.00000000000E+00 -0.00000000000E+00 -0.37278960830E+03  0.37278960830E+03  0.00000000000E+00 0.  1.
         23    2    1    2    0    0 -0.70967334356E+02 -0.31170160598E+00 -0.28131717340E+03  0.31594743423E+03  0.12508784692E+03 0.  0.
         23    2    1    2    0    0  0.70967334356E+02  0.31170160598E+00 -0.38181503224E+02  0.11013310574E+03  0.75066730900E+02 0.  0.
          5    1    3    3  502    0 -0.84654158037E+02 -0.45199617277E+02 -0.17423485452E+03  0.19895876157E+03  0.41800000000E+01 0. -1.
         -5    1    3    3    0  502  0.13686823681E+02  0.44887915671E+02 -0.10708231888E+03  0.11698867266E+03  0.41800000000E+01 0. -1.
        -11    1    4    4    0    0  0.74613496361E+02  0.10403047426E+02 -0.52802590548E+02  0.91997341285E+02  0.00000000000E+00 0.  1.
         11    1    4    4    0    0 -0.36461620058E+01 -0.10091345820E+02  0.14621087323E+02  0.18135764455E+02  0.00000000000E+00 0. -1.
</event>
<event>
 8    1  0.4798744E-006  0.9727691E+02  0.7561462E-02  0.1286129E+00
          1   -1    0    0  501    0  0.00000000000E+00  0.00000000000E+00  0.17294072732E+03  0.17294072732E+03  0.00000000000E+00 0. -1.
         -1   -1    0    0    0  501 -0.00000000000E+00 -0.00000000000E+00 -0.11163075355E+03  0.11163075355E+03  0.00000000000E+00 0.  1.
         23    2    1    2    0    0 -0.74230421522E+02  0.34666107010E+02  0.55589430843E+02  0.15952764051E+03  0.12508792432E+03 0.  0.
         23    2    1    2    0    0  0.74230421522E+02 -0.34666107010E+02  0.57205429306E+01  0.12504384035E+03  0.94293917856E+02 0.  0.
          5    1    3    3  502    0 -0.61267623026E+02  0.58668967585E+02  0.84327137924E+02  0.11968420104E+03  0.41800000000E+01 0.  1.
         -5    1    3    3    0  502 -0.12962798496E+02 -0.24002860576E+02 -0.28737707080E+02  0.39843439471E+02  0.41800000000E+01 0.  1.
        -11    1    4    4    0    0  0.37437655458E+02 -0.15261094454E+02  0.49993946257E+02  0.64295207539E+02  0.00000000000E+00 0. -1.
         11    1    4    4    0    0  0.36792766064E+02 -0.19405012555E+02 -0.44273403326E+02  0.60748632816E+02  0.00000000000E+00 0.  1.
</event>
<event>
 8    1  0.4798744E-006  0.7233455E+02  0.7561462E-02  0.1352330E+00
         -2   -1    0    0    0  501 -0.00000000000E+00  0.00000000000E+00  0.26442992029E+02  0.26442992029E+02  0.00000000000E+00 0.  1.
          2   -1    0    0  501    0  0.00000000000E+00 -0.00000000000E+00 -0.49840302645E+03  0.49840302645E+03  0.00000000000E+00 0. -1.
         23    2    1    2    0    0 -0.19744892467E+02  0.26598785957E+02 -0.22593578466E+03  0.26036930142E+03  0.12509131920E+03 0.  0.
         23    2    1    2    0    0  0.19744892467E+02 -0.26598785957E+02 -0.24602424976E+03  0.26447671706E+03  0.91228538319E+02 0.  0.
          5    1    3    3  502    0 -0.20842134679E+02  0.52358953858E+00 -0.23222824669E+03  0.23319969916E+03  0.41800000000E+01 0. -1.
         -5    1    3    3    0  502  0.10972422120E+01  0.26075196418E+02  0.62924620326E+01  0.27169602264E+02  0.41800000000E+01 0. -1.
        -11    1    4    4    0    0  0.49970946118E+02 -0.39905074821E+02 -0.15701824854E+03  0.16954126586E+03  0.00000000000E+00 0.  1.
         11    1    4    4    0    0 -0.30226053652E+02  0.13306288864E+02 -0.89006001219E+02  0.94935451206E+02  0.00000000000E+00 0. -1.
</event>
<event>
 8    1  0.4798744E-006  0.1130726E+03  0.7561462E-02  0.1254983E+00
         -1   -1    0    0    0  501 -0.00000000000E+00  0.00000000000E+00  0.49252772125E+03  0.49252772125E+03  0.00000000000E+00 0.  1.
          1   -1    0    0  501    0  0.00000000000E+00 -0.00000000000E+00 -0.66790642708E+02  0.66790642708E+02  0.00000000000E+00 0. -1.
         23    2    1    2    0    0  0.32092932105E+02 -0.55012646055E+02  0.42856796417E+03  0.44964303870E+03  0.12021653309E+03 0.  0.
         23    2    1    2    0    0 -0.32092932105E+02  0.55012646055E+02 -0.28308856297E+01  0.10967532525E+03  0.89243013944E+02 0.  0.
          5    1    3    3  502    0 -0.34128299572E+02  0.31394032030E+01  0.48914026122E+02  0.59871955335E+02  0.41800000000E+01 0. -1.
         -5    1    3    3    0  502  0.66221231677E+02 -0.58152049258E+02  0.37965393805E+03  0.38977108337E+03  0.41800000000E+01 0.  1.
        -11    1    4    4    0    0 -0.35527549611E+02 -0.11074356191E+02  0.16537962391E+02  0.40722872522E+02  0.00000000000E+00 0.  1.
         11    1    4    4    0    0  0.34346175056E+01  0.66087002247E+02 -0.19368848021E+02  0.68952452727E+02  0.00000000000E+00 0. -1.
</event>
<event>
 8    1  0.4798744E-006  0.1135095E+03  0.7561462E-02  0.1254205E+00
          2   -1    0    0  501    0  0.00000000000E+00  0.00000000000E+00  0.15097231633E+03  0.15097231633E+03  0.00000000000E+00 0. -1.
         -2   -1    0    0    0  501 -0.00000000000E+00 -0.00000000000E+00 -0.28731205624E+03  0.28731205624E+03  0.00000000000E+00 0.  1.
         23    2    1    2    0    0 -0.70053819497E+02  0.70748714939E+01 -0.24211179470E+03  0.28146687709E+03  0.12509152783E+03 0.  0.
         23    2    1    2    0    0  0.70053819497E+02 -0.70748714939E+01  0.10577205479E+03  0.15681749548E+03  0.91904340925E+02 0.  0.
          5    1    3    3  502    0 -0.39674542722E+02  0.57430700674E+02 -0.19114004382E+03  0.20352971152E+03  0.41800000000E+01 0. -1.
         -5    1    3    3    0  502 -0.30379276775E+02 -0.50355829180E+02 -0.50971750885E+02  0.77937165576E+02  0.41800000000E+01 0. -1.
        -11    1    4    4    0    0 -0.13749836256E+02  0.17743204969E+01  0.58653005019E+02  0.60269239318E+02  0.00000000000E+00 0. -1.
         11    1    4    4    0    0  0.83803655752E+02 -0.88491919908E+01  0.47119049775E+02  0.96548256163E+02  0.00000000000E+00 0.  1.
</event>
<event>
 8    1  0.4798744E-006  0.1704652E+03  0.7561462E-02  0.1177364E+00
          2   -1    0    0  501    0  0.00000000000E+00  0.00000000000E+00  0.18570367272E+03  0.18570367272E+03  0.00000000000E+00 0. -1.
         -2   -1    0    0    0  501 -0.00000000000E+00 -0.00000000000E+00 -0.18162229321E+03  0.18162229321E+03  0.00000000000E+00 0.  1.
         23    2    1    2    0    0 -0.14368698723E+03  0.27036688443E+02  0.21322064041E+02  0.19359636053E+03  0.12509191651E+03 0.  0.
         23    2    1    2    0    0  0.14368698723E+03 -0.27036688443E+02 -0.17240684533E+02  0.17372960540E+03  0.92237745898E+02 0.  0.
          5    1    3    3  502    0 -0.40542759979E+02 -0.49252428322E+02  0.37509710864E+01  0.64039513321E+02  0.41800000000E+01 0. -1.
         -5    1    3    3    0  502 -0.10314422725E+03  0.76289116765E+02  0.17571092955E+02  0.12955684721E+03  0.41800000000E+01 0. -1.
        -11    1    4    4    0    0  0.20723157870E+02 -0.13953880851E+02 -0.40805859941E+02  0.47846402879E+02  0.00000000000E+00 0.  1.
         11    1    4    4    0    0  0.12296382936E+03 -0.13082807592E+02  0.23565175407E+02  0.12588320252E+03  0.00000000000E+00 0. -1.
</event>
<event>
 8    1  0.4798744E-006  0.1757618E+03  0.7561462E-02  0.1171969E+00
         -1   -1    0    0    0  501 -0.00000000000E+00  0.00000000000E+00  0.52675758706E+02  0.52675758706E+02  0.00000000000E+00 0.  1.
          1   -1    0    0  501    0  0.00000000000E+00 -0.00000000000E+00 -0.70527976898E+03  0.70527976898E+03  0.00000000000E+00 0. -1.
         23    2    1    2    0    0 -0.95566346951E+02 -0.11807042548E+03 -0.24883807077E+03  0.31724398294E+03  0.12509918946E+03 0.  0.
         23    2    1    2    0    0  0.95566346951E+02  0.11807042548E+03 -0.40376593950E+03  0.44071154474E+03  0.90145325594E+02 0.  0.
          5    1    3    3  502    0 -0.11560892343E+03 -0.74586224964E+02 -0.13115836448E+03  0.19012763372E+03  0.41800000000E+01 0. -1.
         -5    1    3    3    0  502  0.20042576477E+02 -0.43484200516E+02 -0.11767970629E+03  0.12711634922E+03  0.41800000000E+01 0. -1.
        -11    1    4    4    0    0  0.89400473248E+02  0.60571728101E+02 -0.18289486915E+03  0.21239564973E+03  0.00000000000E+00 0.  1.
         11    1    4    4    0    0  0.61658737031E+01  0.57498697380E+02 -0.22087107035E+03  0.22831589501E+03  0.00000000000E+00 0. -1.
</event>
<event>
 8    1  0.4798744E-006  0.2238932E+03  0.7561462E-02  0.1131013E+00
          3   -1    0    0  501    0  0.00000000000E+00  0.00000000000E+00  0.57152589123E+03  0.57152589123E+03  0.00000000000E+00 0. -1.
         -3   -1    0    0    0  501 -0.00000000000E+00 -0.00000000000E+00 -0.96151792932E+02  0.96151792932E+02  0.00000000000E+00 0.  1.
         23    2    1    2    0    0  0.13097925360E+03  0.15019759184E+03  0.16298381347E+03  0.28622814112E+03  0.12509174172E+03 0.  0.
         23    2    1    2    0    0 -0.13097925360E+03 -0.15019759184E+03  0.31239028483E+03  0.38144954304E+03  0.90560379660E+02 0.  0.
          5    1    3    3  502    0  0.15016726709E+03  0.15193784082E+03  0.13780785275E+03  0.25425143512E+03  0.41800000000E+01 0. -1.
         -5    1    3    3    0  502 -0.19188013494E+02 -0.17402489801E+01  0.25175960722E+02  0.31976706000E+02  0.41800000000E+01 0. -1.
        -11    1    4    4    0    0 -0.93112718566E+02 -0.46635807271E+02  0.11349040844E+03  0.15402905468E+03  0.00000000000E+00 0. -1.
         11    1    4    4    0    0 -0.37866535034E+02 -0.10356178457E+03  0.19889987638E+03  0.22742048836E+03  0.00000000000E+00 0.  1.
</event>
<event>
 8    1  0.4798744E-006  0.6950766E+02  0.7561462E-02  0.1361775E+00
         -1   -1    0    0    0  501 -0.00000000000E+00  0.00000000000E+00  0.47791942171E+02  0.47791942171E+02  0.00000000000E+00 0.  1.
          1   -1    0    0  501    0  0.00000000000E+00 -0.00000000000E+00 -0.29557846949E+03  0.29557846949E+03  0.00000000000E+00 0. -1.
         23    2    1    2    0    0 -0.37090798297E+02  0.39996287656E+02 -0.12448617069E+03  0.18472040667E+03  0.12509752837E+03 0.  0.
         23    2    1    2    0    0  0.37090798297E+02 -0.39996287656E+02 -0.12330035663E+03  0.15865000499E+03  0.83614686463E+02 0.  0.
          5    1    3    3  502    0 -0.84423942684E+00  0.21295302818E+02 -0.13940780216E+03  0.14108937013E+03  0.41800000000E+01 0.  1.
         -5    1    3    3    0  502 -0.36246558870E+02  0.18700984838E+02  0.14921631471E+02  0.43631036540E+02  0.41800000000E+01 0.  1.
        -11    1    4    4    0    0 -0.12542419940E+02 -0.18165837339E+02  0.19556679312E+01  0.22161556381E+02  0.00000000000E+00 0.  1.
         11    1    4    4    0    0  0.49633218237E+02 -0.21830450318E+02 -0.12525602456E+03  0.13648844860E+03  0.00000000000E+00 0. -1.
</event>
<event>
 8    1  0.4798744E-006  0.2761916E+03  0.7561462E-02  0.1097787E+00
          3   -1    0    0  501    0  0.00000000000E+00  0.00000000000E+00  0.12473396794E+04  0.12473396794E+04  0.00000000000E+00 0. -1.
         -3   -1    0    0    0  501 -0.00000000000E+00 -0.00000000000E+00 -0.70356224584E+02  0.70356224584E+02  0.00000000000E+00 0.  1.
         23    2    1    2    0    0  0.14922201310E+03 -0.22810405796E+03  0.51519175511E+03  0.59612765158E+03  0.12508781712E+03 0.  0.
         23    2    1    2    0    0 -0.14922201310E+03  0.22810405796E+03  0.66179169970E+03  0.72156825240E+03  0.91617785523E+02 0.  0.
          5    1    3    3  502    0  0.14657923240E+03 -0.19960946154E+03  0.50969618398E+03  0.56668958070E+03  0.41800000000E+01 0.  1.
         -5    1    3    3    0  502  0.26427806970E+01 -0.28494596420E+02  0.54955711265E+01  0.29438070877E+02  0.41800000000E+01 0.  1.
        -11    1    4    4    0    0 -0.12784635017E+03  0.16239071195E+03  0.39295205182E+03  0.44398958052E+03  0.00000000000E+00 0.  1.
         11    1    4    4    0    0 -0.21375662928E+02  0.65713346014E+02  0.26883964788E+03  0.27757867188E+03  0.00000000000E+00 0. -1.
</event>
<event>
 8    1  0.4798744E-006  0.5026242E+02  0.7561462E-02  0.1443931E+00
         -1   -1    0    0    0  501 -0.00000000000E+00  0.00000000000E+00  0.14697968904E+03  0.14697968904E+03  0.00000000000E+00 0.  1.
          1   -1    0    0  501    0  0.00000000000E+00 -0.00000000000E+00 -0.10045743711E+03  0.10045743711E+03  0.00000000000E+00 0. -1.
         23    2    1    2    0    0 -0.14580983586E+02 -0.29274320524E+02  0.55030378498E+02  0.14051212373E+03  0.12508286627E+03 0.  0.
         23    2    1    2    0    0  0.14580983586E+02  0.29274320524E+02 -0.85081265672E+01  0.10692500241E+03  0.10144445277E+03 0.  0.
          5    1    3    3  502    0  0.38855775385E+01 -0.14472203726E+01  0.91035205530E+02  0.91225397810E+02  0.41800000000E+01 0. -1.
         -5    1    3    3    0  502 -0.18466561124E+02 -0.27827100151E+02 -0.36004827032E+02  0.49286725923E+02  0.41800000000E+01 0. -1.
        -11    1    4    4    0    0  0.18099738990E+02 -0.10583392107E+02 -0.46961906099E+02  0.51429848964E+02  0.00000000000E+00 0. -1.
         11    1    4    4    0    0 -0.35187554044E+01  0.39857712631E+02  0.38453779532E+02  0.55495153447E+02  0.00000000000E+00 0.  1.
</event>
<event>
 8    1  0.4798744E-006  0.1180235E+03  0.7561462E-02  0.1246394E+00
          2   -1    0    0  501    0  0.00000000000E+00  0.00000000000E+00  0.57936350104E+03  0.57936350104E+03  0.00000000000E+00 0.  1.
         -2   -1    0    0    0  501 -0.00000000000E+00 -0.00000000000E+00 -0.35112014855E+02  0.35112014855E+02  0.00000000000E+00 0. -1.
         23    2    1    2    0    0  0.57550072320E+02 -0.15838130873E+02  0.14360715449E+03  0.19957718326E+03  0.12508069412E+03 0.  0.
         23    2    1    2    0    0 -0.57550072320E+02  0.15838130873E+02  0.40064433169E+03  0.41489833264E+03  0.89788020885E+02 0.  0.
          5    1    3    3  502    0 -0.25148080113E+02 -0.34956450659E+02  0.15726971572E+02  0.46034654455E+02  0.41800000000E+01 0.  1.
         -5    1    3    3    0  502  0.82698152433E+02  0.19118319786E+02  0.12788018292E+03  0.15354252880E+03  0.41800000000E+01 0.  1.
        -11    1    4    4    0    0 -0.43687106640E+02 -0.34450041969E+02  0.21056945940E+03  0.21779546806E+03  0.00000000000E+00 0.  1.
         11    1    4    4    0    0 -0.13862965680E+02  0.50288172842E+02  0.19007487229E+03  0.19710286457E+03  0.00000000000E+00 0. -1.
</event>
<event>
 8    1  0.4798744E-006  0.9901206E+02  0.7561462E-02  0.1282387E+00
         -1   -1    0    0    0  501 -0.00000000000E+00  0.00000000000E+00  0.59776043345E+02  0.59776043345E+02  0.00000000000E+00 0.  1.
          1   -1    0    0  501    0  0.00000000000E+00 -0.00000000000E+00 -0.24234369318E+03  0.24234369318E+03  0.00000000000E+00 0. -1.
         23    2    1    2    0    0  0.30103000366E+02  0.52116501980E+02 -0.10794783719E+03  0.17583660843E+03  0.12507380581E+03 0.  0.
         23    2    1    2    0    0 -0.30103000366E+02 -0.52116501980E+02 -0.74619812641E+02  0.12628312809E+03  0.82200922090E+02 0.  0.
          5    1    3    3  502    0  0.37797492775E+02 -0.66556096867E+01  0.13282373111E+02  0.40826969467E+02  0.41800000000E+01 0.  1.
         -5    1    3    3    0  502 -0.76944924098E+01  0.58772111667E+02 -0.12123021030E+03  0.13500963896E+03  0.41800000000E+01 0.  1.
        -11    1    4    4    0    0 -0.25338253792E+01  0.21364748111E+02 -0.26846621627E+02  0.34403689129E+02  0.00000000000E+00 0.  1.
         11    1    4    4    0    0 -0.27569174986E+02 -0.73481250091E+02 -0.47773191014E+02  0.91879438963E+02  0.00000000000E+00 0. -1.
</event>
<event>
 8    1  0.4798744E-006  0.1345822E+03  0.7561462E-02  0.1220811E+00
         -2   -1    0    0    0  501 -0.00000000000E+00  0.00000000000E+00  0.43386280628E+02  0.43386280628E+02  0.00000000000E+00 0. -1.
          2   -1    0    0  501    0  0.00000000000E+00 -0.00000000000E+00 -0.57065387421E+03  0.57065387421E+03  0.00000000000E+00 0.  1.
         23    2    1    2    0    0  0.45687747468E+02  0.10302337906E+03 -0.24774875127E+03  0.29954632252E+03  0.12508944272E+03 0.  0.
         23    2    1    2    0    0 -0.45687747468E+02 -0.10302337906E+03 -0.27951884232E+03  0.31449383232E+03  0.89857667761E+02 0.  0.
          5    1    3    3  502    0  0.61186698886E+02  0.45094367140E+02 -0.22101582051E+03  0.23375795042E+03  0.41800000000E+01 0.  1.
         -5    1    3    3    0  502 -0.15498951418E+02  0.57929011919E+02 -0.26732930757E+02  0.65788372102E+02  0.41800000000E+01 0.  1.
        -11    1    4    4    0    0 -0.60796252489E+02 -0.52937084720E+02 -0.22467664365E+03  0.23870088701E+03  0.00000000000E+00 0.  1.
         11    1    4    4    0    0  0.15108505021E+02 -0.50086294340E+02 -0.54842198663E+02  0.75792945311E+02  0.00000000000E+00 0. -1.
</event>
<event>
 8    1  0.4798744E-006  0.8759575E+02  0.7561462E-02  0.1308781E+00
         -1   -1    0    0    0  501 -0.00000000000E+00  0.00000000000E+00  0.17401519091E+03  0.17401519091E+03  0.00000000000E+00 0.  1.
          1   -1    0    0  501    0  0.00000000000E+00 -0.00000000000E+00 -0.90475070630E+02  0.90475070630E+02  0.00000000000E+00 0. -1.
         23    2    1    2    0    0  0.20938795471E+02 -0.60234049313E+02  0.43447834639E+02  0.14697824443E+03  0.12509322983E+03 0.  0.
         23    2    1    2    0    0 -0.20938795471E+02  0.60234049313E+02  0.40092285640E+02  0.11751201711E+03  0.90194838791E+02 0.  0.
          5    1    3    3  502    0 -0.16919976248E+02 -0.18327958412E+02  0.77074099446E+02  0.81117746895E+02  0.41800000000E+01 0.  1.
         -5    1    3    3    0  502  0.37858771720E+02 -0.41906090901E+02 -0.33626264808E+02  0.65860497536E+02  0.41800000000E+01 0.  1.
        -11    1    4    4    0    0  0.12058167747E+02 -0.10003952459E+02  0.36620870295E+02  0.39831728752E+02  0.00000000000E+00 0.  1.
         11    1    4    4    0    0 -0.32996963218E+02  0.70238001772E+02  0.34714153448E+01  0.77680288356E+02  0.00000000000E+00 0. -1.
</event>
<event>
 8    1  0.4798744E-006  0.1277114E+03  0.7561462E-02  0.1230892E+00
         -1   -1    0    0    0  501 -0.00000000000E+00  0.00000000000E+00  0.36068198143E+03  0.36068198143E+03  0.00000000000E+00 0.  1.
          1   -1    0    0  501    0  0.00000000000E+00 -0.00000000000E+00 -0.50718893464E+02  0.50718893464E+02  0.00000000000E+00 0. -1.
         23    2    1    2    0    0  0.58553651021E+02  0.48210805975E+02  0.20887367518E+03  0.25500625089E+03  0.12508862438E+03 0.  0.
         23    2    1    2    0    0 -0.58553651021E+02 -0.48210805975E+02  0.10108941278E+03  0.15639462400E+03  0.92127070821E+02 0.  0.
          5    1    3    3  502    0 -0.52446706568E+01 -0.36858088135E+02  0.35702111937E+02  0.51750733599E+02  0.41800000000E+01 0. -1.
         -5    1    3    3    0  502  0.63798321678E+02  0.85068894110E+02  0.17317156325E+03  0.20325551730E+03  0.41800000000E+01 0. -1.
        -11    1    4    4    0    0 -0.78539984191E+02 -0.28719726709E+02  0.48026248728E+02  0.96435845959E+02  0.00000000000E+00 0. -1.
         11    1    4    4    0    0  0.19986333169E+02 -0.19491079266E+02  0.53063164054E+02  0.59958778039E+02  0.00000000000E+00 0.  1.
</event>
<event>
 8    1  0.4798744E-006  0.1433472E+03  0.7561462E-02  0.1208895E+00
         -2   -1    0    0    0  501 -0.00000000000E+00  0.00000000000E+00  0.10992217913E+03  0.10992217913E+03  0.00000000000E+00 0.  1.
          2   -1    0    0  501    0  0.00000000000E+00 -0.00000000000E+00 -0.22049575238E+03  0.22049575238E+03  0.00000000000E+00 0. -1.
         23    2    1    2    0    0 -0.10321555853E+03  0.42099559781E+02 -0.36548799255E+02  0.17149084223E+03  0.12508984685E+03 0.  0.
         23    2    1    2    0    0  0.10321555853E+03 -0.42099559781E+02 -0.74024773993E+02  0.15892708928E+03  0.85745717588E+02 0.  0.
          5    1    3    3  502    0 -0.55110654255E+01  0.55171245310E+02 -0.46287074222E+02  0.72347797417E+02  0.41800000000E+01 0.  1.
         -5    1    3    3    0  502 -0.97704493106E+02 -0.13071685529E+02  0.97382749672E+01  0.99143044814E+02  0.41800000000E+01 0.  1.
        -11    1    4    4    0    0  0.11396779674E+03 -0.42585837500E+02 -0.80945004217E+02  0.14613112590E+03  0.00000000000E+00 0. -1.
         11    1    4    4    0    0 -0.10752238205E+02  0.48627771959E+00  0.69202302240E+01  0.12795963379E+02  0.00000000000E+00 0.  1.
</event>
<event>
 8    1  0.4798744E-006  0.1151601E+03  0.7561462E-02  0.1251302E+00
         -2   -1    0    0    0  501 -0.00000000000E+00  0.00000000000E+00  0.61541287270E+02  0.61541287270E+02  0.00000000000E+00 0.  1.
          2   -1    0    0  501    0  0.00000000000E+00 -0.00000000000E+00 -0.33039485942E+03  0.33039485942E+03  0.00000000000E+00 0. -1.
         23    2    1    2    0    0 -0.64498703536E+02  0.50088715692E+02 -0.89161899806E+02  0.17396871085E+03  0.12508519409E+03 0.  0.
         23    2    1    2    0    0  0.64498703536E+02 -0.50088715692E+02 -0.17969167234E+03  0.21796743584E+03  0.92475638841E+02 0.  0.
          5    1    3    3  502    0  0.25483690826E+02 -0.15643535637E+00  0.12896666237E+02  0.28865885924E+02  0.41800000000E+01 0. -1.
         -5    1    3    3    0  502 -0.89982394362E+02  0.50245151049E+02 -0.10205856604E+03  0.14510282493E+03  0.41800000000E+01 0. -1.
        -11    1    4    4    0    0  0.26944259068E+02 -0.57108575761E+02 -0.16562683645E+03  0.17725583622E+03  0.00000000000E+00 0. -1.
         11    1    4    4    0    0  0.37554444468E+02  0.70198600690E+01 -0.14064835894E+02  0.40711599618E+02  0.00000000000E+00 0.  1.
</event>
<event>
 8    1  0.4798744E-006  0.1336132E+03  0.7561462E-02  0.1222191E+00
          2   -1    0    0  501    0  0.00000000000E+00  0.00000000000E+00  0.97321138549E+03  0.97321138549E+03  0.00000000000E+00 0. -1.
         -2   -1    0    0    0  501 -0.00000000000E+00 -0.00000000000E+00 -0.23125435906E+02  0.23125435906E+02  0.00000000000E+00 0.  1.
         23    2    1    2    0    0  0.77738542312E+02  0.56353773282E+02  0.38085588041E+03  0.41221122257E+03  0.12509141316E+03 0.  0.
         23    2    1    2    0    0 -0.77738542312E+02 -0.56353773282E+02  0.56923006917E+03  0.58412559882E+03  0.89223398435E+02 0.  0.
          5    1    3    3  502    0  0.13211333052E+02  0.74129526641E+02  0.28775202256E+03  0.29747004039E+03  0.41800000000E+01 0. -1.
         -5    1    3    3    0  502  0.64527209260E+02 -0.17775753360E+02  0.93103857856E+02  0.11474118219E+03  0.41800000000E+01 0. -1.
        -11    1    4    4    0    0 -0.65787477462E+02  0.13719431840E+01  0.38825286526E+03  0.39378948919E+03  0.00000000000E+00 0. -1.
         11    1    4    4    0    0 -0.11951064850E+02 -0.57725716466E+02  0.18097720392E+03  0.19033610963E+03  0.00000000000E+00 0.  1.
</event>
<event>
 8    1  0.4798744E-006  0.1494102E+03  0.7561462E-02  0.1201200E+00
         -1   -1    0    0    0  501 -0.00000000000E+00  0.00000000000E+00  0.15776090231E+03  0.15776090231E+03  0.00000000000E+00 0.  1.
          1   -1    0    0  501    0  0.00000000000E+00 -0.00000000000E+00 -0.21314300689E+03  0.21314300689E+03  0.00000000000E+00 0. -1.
         23    2    1    2    0    0  0.42881652496E+02  0.13373913829E+03  0.11607244688E+02  0.18843157701E+03  0.12508692120E+03 0.  0.
         23    2    1    2    0    0 -0.42881652496E+02 -0.13373913829E+03 -0.66989349261E+02  0.18247233219E+03  0.95307847889E+02 0.  0.
          5    1    3    3  502    0  0.46912327023E+02  0.11762908997E+03 -0.40945435462E+02  0.13315919164E+03  0.41800000000E+01 0.  1.
         -5    1    3    3    0  502 -0.40306745275E+01  0.16110048320E+02  0.52552680150E+02  0.55272385374E+02  0.41800000000E+01 0.  1.
        -11    1    4    4    0    0  0.38431313907E+01 -0.92758474742E+02 -0.75603786769E+02  0.11972817909E+03  0.00000000000E+00 0. -1.
         11    1    4    4    0    0 -0.46724783887E+02 -0.40980663544E+02  0.86144375086E+01  0.62744153093E+02  0.00000000000E+00 0.  1.
</event>
<event>
 8    1  0.4798744E-006  0.1400409E+03  0.7561462E-02  0.1213274E+00
         -2   -1    0    0    0  501 -0.00000000000E+00  0.00000000000E+00  0.12481775658E+03  0.12481775658E+03  0.00000000000E+00 0.  1.
          2   -1    0    0  501    0  0.00000000000E+00 -0.00000000000E+00 -0.32032900037E+03  0.32032900037E+03  0.00000000000E+00 0. -1.
         23    2    1    2    0    0 -0.98941944053E+02 -0.63809590188E+02  0.35425328941E+02  0.17030804753E+03  0.11785035015E+03 0.  0.
         23    2    1    2    0    0  0.98941944053E+02  0.63809590188E+02 -0.23093657273E+03  0.27483870942E+03  0.91342451665E+02 0.  0.
          5    1    3    3  502    0 -0.68111709378E+01  0.11047122921E+02 -0.31248246060E+02  0.34093346215E+02  0.41800000000E+01 0. -1.
         -5    1    3    3    0  502 -0.92130773115E+02 -0.74856713108E+02  0.66673575001E+02  0.13621470132E+03  0.41800000000E+01 0.  1.
        -11    1    4    4    0    0  0.97649108520E+02  0.83166603247E+02 -0.21165078734E+03  0.24748351071E+03  0.00000000000E+00 0. -1.
         11    1    4    4    0    0  0.12928355324E+01 -0.19357013059E+02 -0.19285785396E+02  0.27355198713E+02  0.00000000000E+00 0.  1.
</event>
<event>
 8    1  0.4798744E-006  0.1166629E+03  0.7561462E-02  0.1248706E+00
          2   -1    0    0  501    0  0.00000000000E+00  0.00000000000E+00  0.22662673127E+03  0.22662673127E+03  0.00000000000E+00 0. -1.
         -2   -1    0    0    0  501 -0.00000000000E+00 -0.00000000000E+00 -0.70544598479E+02  0.70544598479E+02  0.00000000000E+00 0.  1.
         23    2    1    2    0    0  0.48992123399E+02 -0.38443454344E+02  0.75153711456E+02  0.15866139861E+03  0.12508889530E+03 0.  0.
         23    2    1    2    0    0 -0.48992123399E+02  0.38443454344E+02  0.80928421339E+02  0.13850993114E+03  0.93581324567E+02 0.  0.
          5    1    3    3  502    0  0.83700325031E+02 -0.25955211409E+02  0.16534771202E+02  0.89276472086E+02  0.41800000000E+01 0. -1.
         -5    1    3    3    0  502 -0.34708201632E+02 -0.12488242934E+02  0.58618940254E+02  0.69384926523E+02  0.41800000000E+01 0. -1.
        -11    1    4    4    0    0  0.24262778007E+02  0.23358232115E+02  0.92736211868E+01  0.34932641670E+02  0.00000000000E+00 0.  1.
         11    1    4    4    0    0 -0.73254901406E+02  0.15085222229E+02  0.71654800152E+02  0.10357728947E+03  0.00000000000E+00 0. -1.
</event>
<event>
 8    1  0.4798744E-006  0.1456787E+03  0.7561462E-02  0.1205886E+00
         -3   -1    0    0    0  501 -0.00000000000E+00  0.00000000000E+00  0.81833069729E+03  0.81833069729E+03  0.00000000000E+00 0.  1.
          3   -1    0    0  501    0  0.00000000000E+00 -0.00000000000E+00 -0.58437991196E+02  0.58437991196E+02  0.00000000000E+00 0. -1.
         23    2    1    2    0    0  0.13226362207E+03  0.10798911743E+02  0.66129543551E+03  0.68621831713E+03  0.12638688033E+03 0.  0.
         23    2    1    2    0    0 -0.13226362207E+03 -0.10798911743E+02  0.98597270589E+02  0.19055037136E+03  0.94750936879E+02 0.  0.
          5    1    3    3  502    0  0.10331464962E+02 -0.10340538089E+02  0.36202340287E+03  0.36234249340E+03  0.41800000000E+01 0. -1.
         -5    1    3    3    0  502  0.12193215711E+03  0.21139449832E+02  0.29927203264E+03  0.32387582373E+03  0.41800000000E+01 0.  1.
        -11    1    4    4    0    0 -0.72942286491E+02  0.31522227609E+02  0.85116798936E+02  0.11644353762E+03  0.00000000000E+00 0. -1.
         11    1    4    4    0    0 -0.59321335583E+02 -0.42321139353E+02  0.13480471653E+02  0.74106833743E+02  0.00000000000E+00 0.  1.
</event>
<event>
 8    1  0.4798744E-006  0.9950588E+02  0.7561462E-02  0.1281338E+00
         -2   -1    0    0    0  501 -0.00000000000E+00  0.00000000000E+00  0.67715358166E+02  0.67715358166E+02  0.00000000000E+00 0. -1.
          2   -1    0    0  501    0  0.00000000000E+00 -0.00000000000E+00 -0.28384664814E+03  0.28384664814E+03  0.00000000000E+00 0.  1.
         23    2    1    2    0    0  0.79126429628E+01 -0.50649582449E+02 -0.25861407888E+02  0.13763434939E+03  0.12508561705E+03 0.  0.
         23    2    1    2    0    0 -0.79126429628E+01  0.50649582449E+02 -0.19026988209E+03  0.21392765692E+03  0.83273190423E+02 0.  0.
          5    1    3    3  502    0 -0.21668939750E+02 -0.80103291485E+02  0.83421673327E+01  0.83505355591E+02  0.41800000000E+01 0. -1.
         -5    1    3    3    0  502  0.29581582713E+02  0.29453709036E+02 -0.34203575221E+02  0.54128993799E+02  0.41800000000E+01 0. -1.
        -11    1    4    4    0    0  0.22380039132E+02  0.13898753372E+02 -0.14775667220E+03  0.15008689375E+03  0.00000000000E+00 0.  1.
         11    1    4    4    0    0 -0.30292682095E+02  0.36750829076E+02 -0.42513209888E+02  0.63840763163E+02  0.00000000000E+00 0. -1.
</event>
<event>
 8    1  0.4798744E-006  0.9433665E+02  0.7561462E-02  0.1292677E+00
          3   -1    0    0  501    0  0.00000000000E+00  0.00000000000E+00  0.62215366164E+02  0.62215366164E+02  0.00000000000E+00 0. -1.
         -3   -1    0    0    0  501 -0.00000000000E+00 -0.00000000000E+00 -0.32064903909E+03  0.32064903909E+03  0.00000000000E+00 0.  1.
         23    2    1    2    0    0  0.23676412522E+01 -0.66821566166E+02 -0.21703425381E+03  0.25927219163E+03  0.12508986608E+03 0.  0.
         23    2    1    2    0    0 -0.23676412522E+01  0.66821566166E+02 -0.41399419115E+02  0.12359221362E+03  0.95343567876E+02 0.  0.
          5    1    3    3  502    0 -0.21126967420E+02 -0.74397383813E+02 -0.54220164709E+02  0.94544265461E+02  0.41800000000E+01 0.  1.
         -5    1    3    3    0  502  0.23494608673E+02  0.75758176473E+01 -0.16281408911E+03  0.16472792617E+03  0.41800000000E+01 0.  1.
        -11    1    4    4    0    0  0.14285237665E+02 -0.28357372653E+01  0.23035035566E+02  0.27252931668E+02  0.00000000000E+00 0. -1.
         11    1    4    4    0    0 -0.16652878917E+02  0.69657303431E+02 -0.64434454681E+02  0.96339281955E+02  0.00000000000E+00 0.  1.
</event>
<event>
 8    1  0.4798744E-006  0.1130850E+03  0.7561462E-02  0.1254961E+00
          1   -1    0    0  501    0  0.00000000000E+00  0.00000000000E+00  0.44529424496E+03  0.44529424496E+03  0.00000000000E+00 0. -1.
         -1   -1    0    0    0  501 -0.00000000000E+00 -0.00000000000E+00 -0.49794752291E+02  0.49794752291E+02  0.00000000000E+00 0.  1.
         23    2    1    2    0    0  0.94793899424E+02 -0.92363154431E+01  0.15240418898E+03  0.21896835348E+03  0.12509560391E+03 0.  0.
         23    2    1    2    0    0 -0.94793899424E+02  0.92363154431E+01  0.24309530369E+03  0.27612064377E+03  0.89867070438E+02 0.  0.
          5    1    3    3  502    0  0.44751406932E+02 -0.31569700719E+01  0.16141766587E+03  0.16758815632E+03  0.41800000000E+01 0.  1.
         -5    1    3    3    0  502  0.50042492492E+02 -0.60793453712E+01 -0.90134768912E+01  0.51380197164E+02  0.41800000000E+01 0.  1.
        -11    1    4    4    0    0 -0.23005842717E+02 -0.38123293352E+02  0.72717666354E+02  0.85267304960E+02  0.00000000000E+00 0.  1.
         11    1    4    4    0    0 -0.71788056707E+02  0.47359608795E+02  0.17037763734E+03  0.19085333881E+03  0.00000000000E+00 0. -1.
</event>
<event>
 8    1  0.4798744E-006  0.9588313E+02  0.7561462E-02  0.1289199E+00
          2   -1    0    0  501    0  0.00000000000E+00  0.00000000000E+00  0.15052152035E+03  0.15052152035E+03  0.00000000000E+00 0. -1.
         -2   -1    0    0    0  501 -0.00000000000E+00 -0.00000000000E+00 -0.85446105690E+02  0.85446105690E+02  0.00000000000E+00 0.  1.
         23    2    1    2    0    0 -0.18297553164E+02  0.29525388773E+02  0.42281761136E+02  0.13653556365E+03  0.12509062228E+03 0.  0.
         23    2    1    2    0    0  0.18297553164E+02 -0.29525388773E+02  0.22793653526E+02  0.99432062390E+02  0.90336235011E+02 0.  0.
          5    1    3    3  502    0 -0.41424948510E+02  0.56038737443E+02 -0.12864733933E+02  0.70988310533E+02  0.41800000000E+01 0.  1.
         -5    1    3    3    0  502  0.23127395346E+02 -0.26513348670E+02  0.55146495069E+02  0.65547253120E+02  0.41800000000E+01 0.  1.
        -11    1    4    4    0    0  0.49647546247E+02 -0.21875251501E+02 -0.79848818166E+01  0.54837613134E+02  0.00000000000E+00 0.  1.
         11    1    4    4    0    0 -0.31349993083E+02 -0.76501372713E+01  0.30778535343E+02  0.44594449256E+02  0.00000000000E+00 0. -1.
</event>
<event>
 8    1  0.4798744E-006  0.1538092E+03  0.7561462E-02  0.1195869E+00
          1   -1    0    0  501    0  0.00000000000E+00  0.00000000000E+00  0.14266035340E+03  0.14266035340E+03  0.00000000000E+00 0. -1.
         -1   -1    0    0    0  501 -0.00000000000E+00 -0.00000000000E+00 -0.23797151942E+03  0.23797151942E+03  0.00000000000E+00 0.  1.
         23    2    1    2    0    0  0.13647460953E+03 -0.11037658790E+02 -0.10919210285E+03  0.21521581873E+03  0.12509110419E+03 0.  0.
         23    2    1    2    0    0 -0.13647460953E+03  0.11037658790E+02  0.13880936832E+02  0.16541605409E+03  0.91774950754E+02 0.  0.
          5    1    3    3  502    0  0.13810268387E+03 -0.27042317151E+02 -0.43353261488E+02  0.14731128908E+03  0.41800000000E+01 0. -1.
         -5    1    3    3    0  502 -0.16280743337E+01  0.16004658361E+02 -0.65838841366E+02  0.67904529655E+02  0.41800000000E+01 0. -1.
        -11    1    4    4    0    0 -0.34975689357E+02  0.31034563489E+02  0.36744832567E+02  0.59469535876E+02  0.00000000000E+00 0. -1.
         11    1    4    4    0    0 -0.10149892017E+03 -0.19996904699E+02 -0.22863895735E+02  0.10594651822E+03  0.00000000000E+00 0.  1.
</event>
<event>
 8    1  0.4798744E-006  0.3052206E+03  0.7561462E-02  0.1082660E+00
          1   -1    0    0  501    0  0.00000000000E+00  0.00000000000E+00  0.47113783635E+03  0.47113783635E+03  0.00000000000E+00 0. -1.
         -1   -1    0    0    0  501 -0.00000000000E+00 -0.00000000000E+00 -0.22581199110E+03  0.22581199110E+03  0.00000000000E+00 0.  1.
         23    2    1    2    0    0 -0.16991313337E+03  0.24626927156E+03  0.51149050410E+02  0.32830171632E+03  0.12508702801E+03 0.  0.
         23    2    1    2    0    0  0.16991313337E+03 -0.24626927156E+03  0.19417679484E+03  0.36864811113E+03  0.93154576795E+02 0.  0.
          5    1    3    3  502    0 -0.31903390258E+02  0.95344076867E+02 -0.34728869243E+02  0.10645133190E+03  0.41800000000E+01 0.  1.
         -5    1    3    3    0  502 -0.13800974311E+03  0.15092519469E+03  0.85877919653E+02  0.22185038443E+03  0.41800000000E+01 0.  1.
        -11    1    4    4    0    0  0.10790537991E+03 -0.10311292021E+03  0.13668754418E+03  0.20238411514E+03  0.00000000000E+00 0. -1.
         11    1    4    4    0    0  0.62007753462E+02 -0.14315635135E+03  0.57489250666E+02  0.16626399599E+03  0.00000000000E+00 0.  1.
</event>
<event>
 8    1  0.4798744E-006  0.1050624E+03  0.7561462E-02  0.1269997E+00
          2   -1    0    0  501    0  0.00000000000E+00  0.00000000000E+00  0.25329928106E+03  0.25329928106E+03  0.00000000000E+00 0. -1.
         -2   -1    0    0    0  501 -0.00000000000E+00 -0.00000000000E+00 -0.71416472396E+02  0.71416472396E+02  0.00000000000E+00 0.  1.
         23    2    1    2    0    0  0.47710069977E+02  0.58119977605E+02  0.71187046395E+02  0.16238057206E+03  0.12508266080E+03 0.  0.
         23    2    1    2    0    0 -0.47710069977E+02 -0.58119977605E+02  0.11069576227E+03  0.16233518140E+03  0.91896554677E+02 0.  0.
          5    1    3    3  502    0 -0.27430643272E+01 -0.31088078364E+02 -0.83590759157E+01  0.32578206956E+02  0.41800000000E+01 0.  1.
         -5    1    3    3    0  502  0.50453134304E+02  0.89208055969E+02  0.79546122310E+02  0.12980236510E+03  0.41800000000E+01 0.  1.
        -11    1    4    4    0    0 -0.31699287686E+02 -0.29665153178E+02  0.12063206572E+03  0.12820671368E+03  0.00000000000E+00 0. -1.
         11    1    4    4    0    0 -0.16010782292E+02 -0.28454824428E+02 -0.99363034489E+01  0.34128467722E+02  0.00000000000E+00 0.  1.
</event>
<event>
 8    1  0.4798744E-006  0.7098840E+02  0.7561462E-02  0.1356764E+00
          1   -1    0    0  501    0  0.00000000000E+00  0.00000000000E+00  0.11275545871E+03  0.11275545871E+03  0.00000000000E+00 0. -1.
         -1   -1    0    0    0  501 -0.00000000000E+00 -0.00000000000E+00 -0.13258720813E+03  0.13258720813E+03  0.00000000000E+00 0.  1.
         23    2    1    2    0    0 -0.35998234927E+02 -0.20231919054E+02 -0.50941247535E+02  0.14123769723E+03  0.12509145835E+03 0.  0.
         23    2    1    2    0    0  0.35998234927E+02  0.20231919054E+02  0.31109498115E+02  0.10410496961E+03  0.90359506186E+02 0.  0.
          5    1    3    3  502    0 -0.61248466732E+02 -0.23965833391E+02  0.17403673433E+02  0.68162277663E+02  0.41800000000E+01 0. -1.
         -5    1    3    3    0  502  0.25250231805E+02  0.37339143376E+01 -0.68344920968E+02  0.73075419565E+02  0.41800000000E+01 0. -1.
        -11    1    4    4    0    0  0.10367373786E+02  0.22201204500E+02 -0.29453004130E+02  0.38312600705E+02  0.00000000000E+00 0.  1.
         11    1    4    4    0    0  0.25630861142E+02 -0.19692854464E+01  0.60562502246E+02  0.65792368906E+02  0.00000000000E+00 0. -1.
</event>
<event>
 8    1  0.4798744E-006  0.1639575E+03  0.7561462E-02  0.1184300E+00
         -1   -1    0    0    0  501 -0.00000000000E+00  0.00000000000E+00  0.14009999233E+03  0.14009999233E+03  0.00000000000E+00 0.  1.
          1   -1    0    0  501    0  0.00000000000E+00 -0.00000000000E+00 -0.30818787767E+03  0.30818787767E+03  0.00000000000E+00 0. -1.
         23    2    1    2    0    0 -0.36140146890E+02  0.14799374750E+03  0.89302469832E+01  0.19732038484E+03  0.12508926990E+03 0.  0.
         23    2    1    2    0    0  0.36140146890E+02 -0.14799374750E+03 -0.17701813232E+03  0.25096748517E+03  0.91874914562E+02 0.  0.
          5    1    3    3  502    0 -0.56721126191E+02  0.14038141468E+03 -0.28123546271E+02  0.15405399702E+03  0.41800000000E+01 0.  1.
         -5    1    3    3    0  502  0.20580979301E+02  0.76123328235E+01  0.37053793254E+02  0.43266387814E+02  0.41800000000E+01 0.  1.
        -11    1    4    4    0    0  0.24741792449E+01 -0.57583014478E+02 -0.10593583405E+02  0.58601613704E+02  0.00000000000E+00 0.  1.
         11    1    4    4    0    0  0.33665967645E+02 -0.90410733023E+02 -0.16642454892E+03  0.19236587147E+03  0.00000000000E+00 0. -1.
</event>
<event>
 8    1  0.4798744E-006  0.5493032E+02  0.7561462E-02  0.1420429E+00
         -1   -1    0    0    0  501 -0.00000000000E+00  0.00000000000E+00  0.64110362953E+02  0.64110362953E+02  0.00000000000E+00 0.  1.
          1   -1    0    0  501    0  0.00000000000E+00 -0.00000000000E+00 -0.19639995705E+03  0.19639995705E+03  0.00000000000E+00 0. -1.
         23    2    1    2    0    0  0.12627723858E+02 -0.15946404179E+02 -0.51508766122E+02  0.13679977214E+03  0.12508907808E+03 0.  0.
         23    2    1    2    0    0 -0.12627723858E+02  0.15946404179E+02 -0.80780827977E+02  0.12371054786E+03  0.91460430065E+02 0.  0.
          5    1    3    3  502    0 -0.12630714188E+02 -0.37463841502E+02  0.29271894263E+02  0.49369935738E+02  0.41800000000E+01 0.  1.
         -5    1    3    3    0  502  0.25258438045E+02  0.21517437323E+02 -0.80780660385E+02  0.87429836405E+02  0.41800000000E+01 0.  1.
        -11    1    4    4    0    0  0.52833967398E+01  0.17881576283E+02  0.16425576534E+02  0.24848835304E+02  0.00000000000E+00 0.  1.
         11    1    4    4    0    0 -0.17911120598E+02 -0.19351721042E+01 -0.97206404511E+02  0.98861712559E+02  0.00000000000E+00 0. -1.
</event>
<event>
 7    1  0.4798744E-006  0.1823451E+03  0.7561462E-02  0.1165553E+00
         -3   -1    0    0    0  501 -0.00000000000E+00  0.00000000000E+00  0.99443241038E+02  0.99443241038E+02  0.00000000000E+00 0.  1.
          3   -1    0    0  501    0  0.00000000000E+00 -0.00000000000E+00 -0.35906353270E+03  0.35906353270E+03  0.00000000000E+00 0. -1.
         23    2    1    2    0    0  0.85282797332E+02 -0.46025542455E+02 -0.14511895252E+03  0.19811262884E+03  0.93795507592E+02 0.  0.
          5    1    1    2  502    0  0.58579237764E+02  0.63256337658E+02 -0.24305481030E+02  0.89672293152E+02  0.41800000000E+01 0. -1.
         -5    1    1    2    0  502 -0.14386203510E+03 -0.17230795203E+02 -0.90195858114E+02  0.17072185175E+03  0.41800000000E+01 0.  1.
        -11    1    3    3    0    0 -0.13015007495E+02 -0.31469138515E+02 -0.50438506537E+02  0.60858360483E+02  0.00000000000E+00 0.  1.
         11    1    3    3    0    0  0.98297804827E+02 -0.14556403940E+02 -0.94680445986E+02  0.13725426835E+03  0.00000000000E+00 0. -1.
</event>
<event>
 8    1  0.4798744E-006  0.9300863E+02  0.7561462E-02  0.1295725E+00
         -2   -1    0    0    0  501 -0.00000000000E+00  0.00000000000E+00  0.23002556593E+03  0.23002556593E+03  0.00000000000E+00 0.  1.
          2   -1    0    0  501    0  0.00000000000E+00 -0.00000000000E+00 -0.72764808314E+02  0.72764808314E+02  0.00000000000E+00 0. -1.
         23    2    1    2    0    0 -0.40896414752E+02  0.52350915053E+02  0.11779329708E+03  0.18421748194E+03  0.12509070616E+03 0.  0.
         23    2    1    2    0    0  0.40896414752E+02 -0.52350915053E+02  0.39467460532E+02  0.11857289230E+03  0.89937285381E+02 0.  0.
          5    1    3    3  502    0  0.86467573911E+01  0.33990720245E+02 -0.17131005607E+02  0.39256581986E+02  0.41800000000E+01 0. -1.
         -5    1    3    3    0  502 -0.49543172143E+02  0.18360194808E+02  0.13492430269E+03  0.14496089995E+03  0.41800000000E+01 0. -1.
        -11    1    4    4    0    0  0.51821598432E+02 -0.63582834148E+02  0.67576934841E+01  0.82303835169E+02  0.00000000000E+00 0. -1.
         11    1    4    4    0    0 -0.10925183679E+02  0.11231919096E+02  0.32709767048E+02  0.36269057133E+02  0.00000000000E+00 0.  1.
</event>
<event>
 8    1  0.4798744E-006  0.1493694E+03  0.7561462E-02  0.1201250E+00
          2   -1    0    0  501    0  0.00000000000E+00  0.00000000000E+00  0.40423839006E+03  0.40423839006E+03  0.00000000000E+00 0. -1.
         -2   -1    0    0    0  501 -0.00000000000E+00 -0.00000000000E+00 -0.12091829244E+03  0.12091829244E+03  0.00000000000E+00 0.  1.
         23    2    1    2    0    0 -0.12840089836E+03 -0.21237513002E+02 -0.20967132684E+02  0.18173049969E+03  0.12509408942E+03 0.  0.
         23    2    1    2    0    0  0.12840089836E+03  0.21237513002E+02  0.30428723031E+03  0.34342618280E+03  0.91722417370E+02 0.  0.
          5    1    3    3  502    0 -0.29083486119E+02 -0.46414577902E+02 -0.50918070934E+02  0.74901832783E+02  0.41800000000E+01 0. -1.
         -5    1    3    3    0  502 -0.99317412245E+02  0.25177064899E+02  0.29950938249E+02  0.10682866691E+03  0.41800000000E+01 0. -1.
        -11    1    4    4    0    0  0.24631953486E+02 -0.17802407846E+02  0.15227219429E+03  0.15527549714E+03  0.00000000000E+00 0.  1.
         11    1    4    4    0    0  0.10376894488E+03  0.39039920848E+02  0.15201503601E+03  0.18815068566E+03  0.00000000000E+00 0. -1.
</event>
<event>
 8    1  0.4798744E-006  0.9382069E+02  0.7561462E-02  0.1293854E+00
         -2   -1    0    0    0  501 -0.00000000000E+00  0.00000000000E+00  0.89960417880E+03  0.89960417880E+03  0.00000000000E+00 0.  1.
          2   -1    0    0  501    0  0.00000000000E+00 -0.00000000000E+00 -0.29802771637E+02  0.29802771637E+02  0.00000000000E+00 0. -1.
         23    2    1    2    0    0 -0.59329911475E+02 -0.36261569745E+02  0.75242926442E+03  0.76591806437E+03  0.12508294664E+03 0.  0.
         23    2    1    2    0    0  0.59329911475E+02  0.36261569745E+02  0.11737214274E+03  0.16348888606E+03  0.90096926356E+02 0.  0.
          5    1    3    3  502    0 -0.74722750691E+02 -0.54598496213E+02  0.71696653878E+03  0.72292667359E+03  0.41800000000E+01 0. -1.
         -5    1    3    3    0  502  0.15392839216E+02  0.18336926468E+02  0.35462725637E+02  0.42991390778E+02  0.41800000000E+01 0. -1.
        -11    1    4    4    0    0  0.32865597261E+02  0.27404586147E+02  0.12696242621E+03  0.13397991078E+03  0.00000000000E+00 0.  1.
         11    1    4    4    0    0  0.26464314214E+02  0.88569835977E+01 -0.95902834637E+01  0.29508975282E+02  0.00000000000E+00 0. -1.
</event>
<event>
 8    1  0.4798744E-006  0.7626141E+02  0.7561462E-02  0.1340009E+00
          1   -1    0    0  501    0  0.00000000000E+00  0.00000000000E+00  0.10390604258E+03  0.10390604258E+03  0.00000000000E+00 0. -1.
         -1   -1    0    0    0  501 -0.00000000000E+00 -0.00000000000E+00 -0.14349167528E+03  0.14349167528E+03  0.00000000000E+00 0.  1.
         23    2    1    2    0    0  0.38454427554E+02  0.12665954727E+02 -0.61437540494E+02  0.14512598718E+03  0.12509121219E+03 0.  0.
         23    2    1    2    0    0 -0.38454427554E+02 -0.12665954727E+02  0.21851907795E+02  0.10227173067E+03  0.91339102320E+02 0.  0.
          5    1    3    3  502    0  0.43443294466E+02  0.14388586374E+02  0.29064189031E+02  0.54374173427E+02  0.41800000000E+01 0. -1.
         -5    1    3    3    0  502 -0.49888669114E+01 -0.17226316472E+01 -0.90501729525E+02  0.90751813755E+02  0.41800000000E+01 0. -1.
        -11    1    4    4    0    0  0.16877645704E+02 -0.36019057256E+02  0.10641554226E+02  0.41176086343E+02  0.00000000000E+00 0.  1.
         11    1    4    4    0    0 -0.55332073259E+02  0.23353102530E+02  0.11210353568E+02  0.61095644329E+02  0.00000000000E+00 0. -1.
</event>
<event>
 8    1  0.4798744E-006  0.8183437E+02  0.7561462E-02  0.1323925E+00
         -3   -1    0    0    0  501 -0.00000000000E+00  0.00000000000E+00  0.32887687216E+03  0.32887687216E+03  0.00000000000E+00 0.  1.
          3   -1    0    0  501    0  0.00000000000E+00 -0.00000000000E+00 -0.44108248634E+02  0.44108248634E+02  0.00000000000E+00 0. -1.
         23    2    1    2    0    0  0.42568143696E+02  0.17577481906E+01  0.21183694745E+03  0.24969170940E+03  0.12512362247E+03 0.  0.
         23    2    1    2    0    0 -0.42568143696E+02 -0.17577481906E+01  0.72931676070E+02  0.12329341139E+03  0.89817032806E+02 0.  0.
          5    1    3    3  502    0 -0.13348185898E+02 -0.32657982221E+02  0.16537514071E+03  0.16914824101E+03  0.41800000000E+01 0. -1.
         -5    1    3    3    0  502  0.55916329594E+02  0.34415730412E+02  0.46461806738E+02  0.80543468390E+02  0.41800000000E+01 0. -1.
        -11    1    4    4    0    0 -0.30756757831E+02 -0.22754402280E+02  0.87249365833E+02  0.95269054859E+02  0.00000000000E+00 0.  1.
         11    1    4    4    0    0 -0.11811385865E+02  0.20996654089E+02 -0.14317689763E+02  0.28024356534E+02  0.00000000000E+00 0. -1.
</event>
<event>
 8    1  0.4798744E-006  0.1761512E+03  0.7561462E-02  0.1171581E+00
          1   -1    0    0  501    0  0.00000000000E+00  0.00000000000E+00  0.61693028450E+03  0.61693028450E+03  0.00000000000E+00 0. -1.
         -1   -1    0    0    0  501 -0.00000000000E+00 -0.00000000000E+00 -0.64505671080E+02  0.64505671080E+02  0.00000000000E+00 0.  1.
         23    2    1    2    0    0 -0.15482041374E+03  0.30994137874E+02  0.19515099972E+03  0.28046755302E+03  0.12509251981E+03 0.  0.
         23    2    1    2    0    0  0.15482041374E+03 -0.30994137874E+02  0.35727361370E+03  0.40096840256E+03  0.90560630051E+02 0.  0.
          5    1    3    3  502    0 -0.10409650130E+03 -0.18170683029E+02  0.17896565695E+03  0.20787600649E+03  0.41800000000E+01 0.  1.
         -5    1    3    3    0  502 -0.50723912439E+02  0.49164820904E+02  0.16185342773E+02  0.72591546535E+02  0.41800000000E+01 0.  1.
        -11    1    4    4    0    0  0.47348608153E+02 -0.47482639835E+02  0.88498146503E+02  0.11103339009E+03  0.00000000000E+00 0.  1.
         11    1    4    4    0    0  0.10747180558E+03  0.16488501961E+02  0.26877546720E+03  0.28993501247E+03  0.00000000000E+00 0. -1.
</event>
<event>
 8    1  0.4798744E-006  0.1077397E+03  0.7561462E-02  0.1264814E+00
          1   -1    0    0  501    0  0.00000000000E+00  0.00000000000E+00  0.27637213393E+02  0.27637213393E+02  0.00000000000E+00 0. -1.
         -1   -1    0    0    0  501 -0.00000000000E+00 -0.00000000000E+00 -0.56757771998E+03  0.56757771998E+03  0.00000000000E+00 0.  1.
         23    2    1    2    0    0  0.33373535000E+02 -0.53807538791E+02 -0.32458481901E+03  0.35356745662E+03  0.12508236318E+03 0.  0.
         23    2    1    2    0    0 -0.33373535000E+02  0.53807538791E+02 -0.21535568758E+03  0.24164747675E+03  0.89478415166E+02 0.  0.
          5    1    3    3  502    0 -0.27451824077E+02 -0.36254795604E+02 -0.25638233077E+03  0.26041771211E+03  0.41800000000E+01 0.  1.
         -5    1    3    3    0  502  0.60825359078E+02 -0.17552743187E+02 -0.68202488249E+02  0.93149744517E+02  0.41800000000E+01 0.  1.
        -11    1    4    4    0    0 -0.49930989472E+02 -0.14493348760E+00 -0.72335513208E+02  0.87895114691E+02  0.00000000000E+00 0. -1.
         11    1    4    4    0    0  0.16557454472E+02  0.53952472279E+02 -0.14302017437E+03  0.15375236206E+03  0.00000000000E+00 0.  1.
</event>
<event>
 8    1  0.4798744E-006  0.1025282E+03  0.7561462E-02  0.1275068E+00
         -3   -1    0    0    0  501 -0.00000000000E+00  0.00000000000E+00  0.68643797214E+03  0.68643797214E+03  0.00000000000E+00 0.  1.
          3   -1    0    0  501    0  0.00000000000E+00 -0.00000000000E+00 -0.25687009069E+02  0.25687009069E+02  0.00000000000E+00 0. -1.
         23    2    1    2    0    0  0.74527504716E+02 -0.63728365291E+00  0.41374372087E+03  0.43861944277E+03  0.12509354070E+03 0.  0.
         23    2    1    2    0    0 -0.74527504716E+02  0.63728365291E+00  0.24700724220E+03  0.27350553844E+03  0.90763135517E+02 0.  0.
          5    1    3    3  502    0  0.29073849494E+02  0.25260914554E+02  0.24465610099E+02  0.45819657419E+02  0.41800000000E+01 0. -1.
         -5    1    3    3    0  502  0.45453655221E+02 -0.25898198206E+02  0.38927811077E+03  0.39279978535E+03  0.41800000000E+01 0. -1.
        -11    1    4    4    0    0 -0.60426024397E+02 -0.38895417422E+02  0.12144222461E+03  0.14111120380E+03  0.00000000000E+00 0.  1.
         11    1    4    4    0    0 -0.14101480319E+02  0.39532701075E+02  0.12556501759E+03  0.13239433464E+03  0.00000000000E+00 0. -1.
</event>
<event>
 8    1  0.4798744E-006  0.1540564E+03  0.7561462E-02  0.1195575E+00
          3   -1    0    0  501    0  0.00000000000E+00  0.00000000000E+00  0.58579829920E+02  0.58579829920E+02  0.00000000000E+00 0. -1.
         -3   -1    0    0    0  501 -0.00000000000E+00 -0.00000000000E+00 -0.49118384127E+03  0.49118384127E+03  0.00000000000E+00 0.  1.
         23    2    1    2    0    0 -0.12065530344E+03  0.47917109993E+02 -0.25935646222E+03  0.31585996911E+03  0.12509194182E+03 0.  0.
         23    2    1    2    0    0  0.12065530344E+03 -0.47917109993E+02 -0.17324754912E+03  0.23390370208E+03  0.88557760187E+02 0.  0.
          5    1    3    3  502    0 -0.11481370729E+02  0.39544915511E+02 -0.16852544404E+03  0.17353362760E+03  0.41800000000E+01 0. -1.
         -5    1    3    3    0  502 -0.10917393271E+03  0.83721944816E+01 -0.90831018181E+02  0.14232634151E+03  0.41800000000E+01 0. -1.
        -11    1    4    4    0    0  0.84327778987E+02  0.13882600358E+02 -0.94709553656E+02  0.12756880675E+03  0.00000000000E+00 0.  1.
         11    1    4    4    0    0  0.36327524457E+02 -0.61799710351E+02 -0.78537995466E+02  0.10633489533E+03  0.00000000000E+00 0. -1.
</event>
<event>
 8    1  0.4798744E-006  0.1360006E+03  0.7561462E-02  0.1218814E+00
          3   -1    0    0  501    0  0.00000000000E+00  0.00000000000E+00  0.11706637492E+03  0.11706637492E+03  0.00000000000E+00 0. -1.
         -3   -1    0    0    0  501 -0.00000000000E+00 -0.00000000000E+00 -0.18708649543E+03  0.18708649543E+03  0.00000000000E+00 0.  1.
         23    2    1    2    0    0  0.95323822710E+02 -0.26712485150E+02 -0.49735881145E+02  0.16709632350E+03  0.12508930976E+03 0.  0.
         23    2    1    2    0    0 -0.95323822710E+02  0.26712485150E+02 -0.20284239363E+02  0.13705654685E+03  0.92589732851E+02 0.  0.
          5    1    3    3  502    0 -0.26737913339E+02  0.90668137101E+01  0.42450558598E+01  0.28855086550E+02  0.41800000000E+01 0. -1.
         -5    1    3    3    0  502  0.12206173605E+03 -0.35779298860E+02 -0.53980937005E+02  0.13824123695E+03  0.41800000000E+01 0. -1.
        -11    1    4    4    0    0 -0.12934055121E+00 -0.13034222586E+02 -0.30719951435E+02  0.33370991948E+02  0.00000000000E+00 0.  1.
         11    1    4    4    0    0 -0.95194482159E+02  0.39746707736E+02  0.10435712071E+02  0.10368555490E+03  0.00000000000E+00 0. -1.
</event>
<event>
 8    1  0.4798744E-006  0.9551293E+02  0.7561462E-02  0.1290025E+00
         -4   -1    0    0    0  501 -0.00000000000E+00  0.00000000000E+00  0.44325933532E+03  0.44325933532E+03  0.00000000000E+00 0.  1.
          4   -1    0    0  501    0  0.00000000000E+00 -0.00000000000E+00 -0.34415595362E+02  0.34415595362E+02  0.00000000000E+00 0. -1.
         23    2    1    2    0    0 -0.53392807124E+01 -0.21583501554E+02  0.33230353392E+03  0.35576111530E+03  0.12508388006E+03 0.  0.
         23    2    1    2    0    0  0.53392807124E+01  0.21583501554E+02  0.76540206039E+02  0.12191381538E+03  0.92250852471E+02 0.  0.
          5    1    3    3  502    0  0.19297180080E+02  0.39358978580E+02  0.22936267377E+03  0.23355131957E+03  0.41800000000E+01 0.  1.
         -5    1    3    3    0  502 -0.24636460792E+02 -0.60942480134E+02  0.10294086015E+03  0.12220979573E+03  0.41800000000E+01 0.  1.
        -11    1    4    4    0    0  0.32500324304E+02 -0.14808476617E+02  0.66383883828E+02  0.75381576607E+02  0.00000000000E+00 0.  1.
         11    1    4    4    0    0 -0.27161043592E+02  0.36391978171E+02  0.10156322211E+02  0.46532238771E+02  0.00000000000E+00 0. -1.
</event>
<event>
 8    1  0.4798744E-006  0.1043369E+03  0.7561462E-02  0.1271432E+00
          2   -1    0    0  501    0  0.00000000000E+00  0.00000000000E+00  0.40118519971E+03  0.40118519971E+03  0.00000000000E+00 0. -1.
         -2   -1    0    0    0  501 -0.00000000000E+00 -0.00000000000E+00 -0.31756764754E+02  0.31756764754E+02  0.00000000000E+00 0.  1.
         23    2    1    2    0    0 -0.22324006215E+02  0.95181435000E+01  0.24577028437E+03  0.27683750404E+03  0.12508802763E+03 0.  0.
         23    2    1    2    0    0  0.22324006215E+02 -0.95181435000E+01  0.12365815058E+03  0.15610446042E+03  0.92132014243E+02 0.  0.
          5    1    3    3  502    0  0.19556748381E+02  0.57504236700E+02  0.14848704312E+03  0.16048388710E+03  0.41800000000E+01 0. -1.
         -5    1    3    3    0  502 -0.41880754596E+02 -0.47986093200E+02  0.97283241251E+02  0.11635361694E+03  0.41800000000E+01 0. -1.
        -11    1    4    4    0    0  0.34506135456E+02 -0.38993423093E+02  0.37314841303E+02  0.64059018179E+02  0.00000000000E+00 0. -1.
         11    1    4    4    0    0 -0.12182129241E+02  0.29475279593E+02  0.86343309280E+02  0.92045442242E+02  0.00000000000E+00 0.  1.
</event>
<event>
 8    1  0.4798744E-006  0.1391579E+03  0.7561462E-02  0.1214467E+00
         -2   -1    0    0    0  501 -0.00000000000E+00  0.00000000000E+00  0.53255709387E+02  0.53255709387E+02  0.00000000000E+00 0. -1.
          2   -1    0    0  501    0  0.00000000000E+00 -0.00000000000E+00 -0.41783500508E+03  0.41783500508E+03  0.00000000000E+00 0.  1.
         23    2    1    2    0    0  0.41302164401E+02 -0.79108435807E+02 -0.15192332243E+03  0.21608113192E+03  0.12508535596E+03 0.  0.
         23    2    1    2    0    0 -0.41302164401E+02  0.79108435807E+02 -0.21265597326E+03  0.25500958254E+03  0.10882697655E+03 0.  0.
          5    1    3    3  502    0 -0.82994423478E+01  0.31224848101E+02 -0.30324030495E+02  0.44507202874E+02  0.41800000000E+01 0.  1.
         -5    1    3    3    0  502  0.49601606748E+02 -0.11033328391E+03 -0.12159929193E+03  0.17157392905E+03  0.41800000000E+01 0.  1.
        -11    1    4    4    0    0  0.25496743691E+02  0.39566654545E+02 -0.14358560494E+03  0.15110403713E+03  0.00000000000E+00 0.  1.
         11    1    4    4    0    0 -0.66798908091E+02  0.39541781262E+02 -0.69070368322E+02  0.10390554541E+03  0.00000000000E+00 0. -1.
</event>
<event>
 8    1  0.4798744E-006  0.2823420E+03  0.7561462E-02  0.1094417E+00
         -2   -1    0    0    0  501 -0.00000000000E+00  0.00000000000E+00  0.41906785698E+02  0.41906785698E+02  0.00000000000E+00 0. -1.
          2   -1    0    0  501    0  0.00000000000E+00 -0.00000000000E+00 -0.19905929435E+04  0.19905929435E+04  0.00000000000E+00 0.  1.
         23    2    1    2    0    0  0.19598098894E+03 -0.18133341017E+03 -0.95367777279E+03  0.99821709056E+03  0.12508282023E+03 0.  0.
         23    2    1    2    0    0 -0.19598098894E+03  0.18133341017E+03 -0.99500838500E+03  0.10342826386E+04  0.91698073385E+02 0.  0.
          5    1    3    3  502    0  0.25280003731E+02 -0.88043875289E+02 -0.42730630039E+03  0.43703426561E+03  0.41800000000E+01 0.  1.
         -5    1    3    3    0  502  0.17070098521E+03 -0.93289534877E+02 -0.52637147240E+03  0.56118282496E+03  0.41800000000E+01 0.  1.
        -11    1    4    4    0    0 -0.74829522460E+02  0.21508343126E+02 -0.20714911725E+03  0.22129804119E+03  0.00000000000E+00 0. -1.
         11    1    4    4    0    0 -0.12115146648E+03  0.15982506704E+03 -0.78785926775E+03  0.81298459743E+03  0.00000000000E+00 0.  1.
</event>
<event>
 8    1  0.4798744E-006  0.1062775E+03  0.7561462E-02  0.1267623E+00
          2   -1    0    0  501    0  0.00000000000E+00  0.00000000000E+00  0.13314132187E+02  0.13314132187E+02  0.00000000000E+00 0. -1.
         -2   -1    0    0    0  501 -0.00000000000E+00 -0.00000000000E+00 -0.11725214486E+04  0.11725214486E+04  0.00000000000E+00 0.  1.
         23    2    1    2    0    0 -0.23882289977E+02  0.18604189138E+02 -0.89404809551E+03  0.90326493606E+03  0.12509623495E+03 0.  0.
         23    2    1    2    0    0  0.23882289977E+02 -0.18604189138E+02 -0.26515922095E+03  0.28257064478E+03  0.92845447959E+02 0.  0.
          5    1    3    3  502    0 -0.61714243359E+02  0.43076030984E+02 -0.69821383711E+03  0.70227076474E+03  0.41800000000E+01 0.  1.
         -5    1    3    3    0  502  0.37831953382E+02 -0.24471841846E+02 -0.19583425840E+03  0.20099417132E+03  0.41800000000E+01 0.  1.
        -11    1    4    4    0    0 -0.32179271139E+02  0.18972848567E+01 -0.14324445606E+03  0.14682669844E+03  0.00000000000E+00 0. -1.
         11    1    4    4    0    0  0.56061561115E+02 -0.20501473995E+02 -0.12191476489E+03  0.13574394634E+03  0.00000000000E+00 0.  1.
</event>
<event>
 8    1  0.4798744E-006  0.7271055E+02  0.7561462E-02  0.1351111E+00
         -3   -1    0    0    0  501 -0.00000000000E+00  0.00000000000E+00  0.41545832748E+03  0.41545832748E+03  0.00000000000E+00 0.  1.
          3   -1    0    0  501    0  0.00000000000E+00 -0.00000000000E+00 -0.31091150482E+02  0.31091150482E+02  0.00000000000E+00 0. -1.
         23    2    1    2    0    0  0.10405113644E+01 -0.12033119475E+02  0.29671574616E+03  0.31910985773E+03  0.11681176591E+03 0.  0.
         23    2    1    2    0    0 -0.10405113644E+01  0.12033119475E+02  0.87651430838E+02  0.12743962023E+03  0.91718072636E+02 0.  0.
          5    1    3    3  502    0  0.27742227659E+02  0.13667226303E+02  0.27329323026E+03  0.27506923924E+03  0.41800000000E+01 0. -1.
         -5    1    3    3    0  502 -0.26701716295E+02 -0.25700345778E+02  0.23422515904E+02  0.44040618495E+02  0.41800000000E+01 0.  1.
        -11    1    4    4    0    0  0.27455789087E+02  0.31968956803E+02  0.82015560086E+02  0.92208387090E+02  0.00000000000E+00 0.  1.
         11    1    4    4    0    0 -0.28496300451E+02 -0.19935837329E+02  0.56358707519E+01  0.35231233140E+02  0.00000000000E+00 0. -1.
</event>
<event>
 8    1  0.4798744E-006  0.1258787E+03  0.7561462E-02  0.1233702E+00
         -2   -1    0    0    0  501 -0.00000000000E+00  0.00000000000E+00  0.85105074379E+02  0.85105074379E+02  0.00000000000E+00 0. -1.
          2   -1    0    0  501    0  0.00000000000E+00 -0.00000000000E+00 -0.26229423632E+03  0.26229423632E+03  0.00000000000E+00 0.  1.
         23    2    1    2    0    0 -0.69883396800E+02 -0.72922725449E+02 -0.75279311954E+02  0.17752729156E+03  0.12509017310E+03 0.  0.
         23    2    1    2    0    0  0.69883396800E+02  0.72922725449E+02 -0.10190984999E+03  0.16987201913E+03  0.90936639070E+02 0.  0.
          5    1    3    3  502    0  0.22659434749E+02  0.55128014405E+01 -0.47389150279E+02  0.52981552705E+02  0.41800000000E+01 0. -1.
         -5    1    3    3    0  502 -0.92542831550E+02 -0.78435526889E+02 -0.27890161675E+02  0.12454573886E+03  0.41800000000E+01 0. -1.
        -11    1    4    4    0    0 -0.14285150410E+01  0.14290739547E+02 -0.71115085615E+02  0.72550818700E+02  0.00000000000E+00 0.  1.
         11    1    4    4    0    0  0.71311911841E+02  0.58631985902E+02 -0.30794764371E+02  0.97321200434E+02  0.00000000000E+00 0. -1.
</event>
<event>
 8    1  0.4798744E-006  0.1051826E+03  0.7561462E-02  0.1269760E+00
          2   -1    0    0  501    0  0.00000000000E+00  0.00000000000E+00  0.20036257030E+03  0.20036257030E+03  0.00000000000E+00 0. -1.
         -2   -1    0    0    0  501 -0.00000000000E+00 -0.00000000000E+00 -0.62292211396E+02  0.62292211396E+02  0.00000000000E+00 0.  1.
         23    2    1    2    0    0 -0.49875117352E+01  0.10525259266E+02  0.60343936515E+02  0.13936731110E+03  0.12508477274E+03 0.  0.
         23    2    1    2    0    0  0.49875117352E+01 -0.10525259266E+02  0.77726422391E+02  0.12328747060E+03  0.94988143013E+02 0.  0.
          5    1    3    3  502    0 -0.43322523414E+02  0.45624470179E+02  0.48839273092E+01  0.63243643633E+02  0.41800000000E+01 0.  1.
         -5    1    3    3    0  502  0.38335011678E+02 -0.35099210914E+02  0.55460009206E+02  0.76123667464E+02  0.41800000000E+01 0.  1.
        -11    1    4    4    0    0  0.25610755938E+02  0.36054739933E+02  0.42633158421E+02  0.61428342712E+02  0.00000000000E+00 0.  1.
         11    1    4    4    0    0 -0.20623244203E+02 -0.46579999199E+02  0.35093263969E+02  0.61859127886E+02  0.00000000000E+00 0. -1.
</event>
<event>
 8    1  0.4798744E-006  0.1605598E+03  0.7561462E-02  0.1188066E+00
         -1   -1    0    0    0  501 -0.00000000000E+00  0.00000000000E+00  0.72748516101E+02  0.72748516101E+02  0.00000000000E+00 0. -1.
          1   -1    0    0  501    0  0.00000000000E+00 -0.00000000000E+00 -0.43489708011E+03  0.43489708011E+03  0.00000000000E+00 0.  1.
         23    2    1    2    0    0  0.13089221604E+03  0.51498333669E+02 -0.18558991019E+03  0.26434096992E+03  0.12509069919E+03 0.  0.
         23    2    1    2    0    0 -0.13089221604E+03 -0.51498333669E+02 -0.17655865383E+03  0.24330462629E+03  0.90770768104E+02 0.  0.
          5    1    3    3  502    0  0.65148510689E+02 -0.32278842402E+02 -0.11630321372E+03  0.13722303755E+03  0.41800000000E+01 0. -1.
         -5    1    3    3    0  502  0.65743705355E+02  0.83777176072E+02 -0.69286696467E+02  0.12711793238E+03  0.41800000000E+01 0. -1.
        -11    1    4    4    0    0 -0.72391730885E+02 -0.37663594447E+02 -0.16209196390E+03  0.18147427864E+03  0.00000000000E+00 0.  1.
         11    1    4    4    0    0 -0.58500485159E+02 -0.13834739222E+02 -0.14466689926E+02  0.61830347651E+02  0.00000000000E+00 0. -1.
</event>
<event>
 8    1  0.4798744E-006  0.9135573E+02  0.7561462E-02  0.1299601E+00
         -1   -1    0    0    0  501 -0.00000000000E+00  0.00000000000E+00  0.45746242079E+03  0.45746242079E+03  0.00000000000E+00 0.  1.
          1   -1    0    0  501    0  0.00000000000E+00 -0.00000000000E+00 -0.40565751443E+02  0.40565751443E+02  0.00000000000E+00 0. -1.
         23    2    1    2    0    0  0.42348588409E+02 -0.56728986992E+02  0.31504004247E+03  0.34627923479E+03  0.12508996436E+03 0.  0.
         23    2    1    2    0    0 -0.42348588409E+02  0.56728986992E+02  0.10185662688E+03  0.15174893745E+03  0.87415025427E+02 0.  0.
          5    1    3    3  502    0  0.16496035147E+02 -0.16610898055E+02  0.29226729855E+03  0.29323316203E+03  0.41800000000E+01 0. -1.
         -5    1    3    3    0  502  0.25852553263E+02 -0.40118088937E+02  0.22772743914E+02  0.53046072763E+02  0.41800000000E+01 0. -1.
        -11    1    4    4    0    0 -0.48378671326E+02  0.76409976962E+02  0.72580848155E+02  0.11596102767E+03  0.00000000000E+00 0. -1.
         11    1    4    4    0    0  0.60300829167E+01 -0.19680989970E+02  0.29275778729E+02  0.35787909779E+02  0.00000000000E+00 0.  1.
</event>
<event>
 8    1  0.4798744E-006  0.1039491E+03  0.7561462E-02  0.1272204E+00
          2   -1    0    0  501    0  0.00000000000E+00  0.00000000000E+00  0.11340167055E+03  0.11340167055E+03  0.00000000000E+00 0. -1.
         -2   -1    0    0    0  501 -0.00000000000E+00 -0.00000000000E+00 -0.10242264372E+03  0.10242264372E+03  0.00000000000E+00 0.  1.
         23    2    1    2    0    0 -0.46616232835E+01  0.15043745005E+01 -0.19924195361E+00  0.12519249847E+03  0.12509647518E+03 0.  0.
         23    2    1    2    0    0  0.46616232835E+01 -0.15043745005E+01  0.11178268775E+02  0.90631815800E+02  0.89806338685E+02 0.  0.
          5    1    3    3  502    0  0.55728381377E+02 -0.87363680798E+01 -0.21050422141E+02  0.60353701547E+02  0.41800000000E+01 0. -1.
         -5    1    3    3    0  502 -0.60390004660E+02  0.10240742580E+02  0.20851180187E+02  0.64838796925E+02  0.41800000000E+01 0. -1.
        -11    1    4    4    0    0  0.39282341212E+02 -0.26371948070E+02  0.58885908376E+01  0.47678689979E+02  0.00000000000E+00 0. -1.
         11    1    4    4    0    0 -0.34620717928E+02  0.24867573569E+02  0.52896779375E+01  0.42953125821E+02  0.00000000000E+00 0.  1.
</event>
<event>
 8    1  0.4798744E-006  0.1354304E+03  0.7561462E-02  0.1219613E+00
          1   -1    0    0  501    0  0.00000000000E+00  0.00000000000E+00  0.84609372545E+02  0.84609372545E+02  0.00000000000E+00 0. -1.
         -1   -1    0    0    0  501 -0.00000000000E+00 -0.00000000000E+00 -0.28385633726E+03  0.28385633726E+03  0.00000000000E+00 0.  1.
         23    2    1    2    0    0 -0.63335916896E+02 -0.87584163134E+02 -0.13969775951E+03  0.21643290001E+03  0.12508122239E+03 0.  0.
         23    2    1    2    0    0  0.63335916896E+02  0.87584163134E+02 -0.59549205204E+02  0.15203280979E+03  0.88800019215E+02 0.  0.
          5    1    3    3  502    0 -0.11803090887E+02  0.27151363351E+02 -0.61195064142E+02  0.68108866982E+02  0.41800000000E+01 0.  1.
         -5    1    3    3    0  502 -0.51532826009E+02 -0.11473552648E+03 -0.78502695373E+02  0.14832403303E+03  0.41800000000E+01 0.  1.
        -11    1    4    4    0    0  0.35551490925E+02  0.17298595401E+02 -0.65192482332E+02  0.76244407418E+02  0.00000000000E+00 0.  1.
         11    1    4    4    0    0  0.27784425971E+02  0.70285567733E+02  0.56432771281E+01  0.75788402377E+02  0.00000000000E+00 0. -1.
</event>
<event>
 7    1  0.4798744E-006  0.1357708E+03  0.7561462E-02  0.1219136E+00
          2   -1    0    0  501    0  0.00000000000E+00  0.00000000000E+00  0.35279528036E+03  0.35279528036E+03  0.00000000000E+00 0. -1.
         -2   -1    0    0    0  501 -0.00000000000E+00 -0.00000000000E+00 -0.13119690545E+03  0.13119690545E+03  0.00000000000E+00 0.  1.
         23    2    1    2    0    0  0.26240503708E+02 -0.94359131619E+02  0.20321519561E+03  0.24266575653E+03  0.89431783567E+02 0.  0.
          5    1    1    2  502    0  0.67211017969E+01 -0.26617510006E+02  0.91840337503E+02  0.95946782337E+02  0.41800000000E+01 0. -1.
         -5    1    1    2    0  502 -0.32961605505E+02  0.12097664162E+03 -0.73457158195E+02  0.14537964695E+03  0.41800000000E+01 0.  1.
        -11    1    3    3    0    0  0.48425813521E+02 -0.56287962277E+02  0.68852614954E+02  0.10126241503E+03  0.00000000000E+00 0.  1.
         11    1    3    3    0    0 -0.22185309813E+02 -0.38071169342E+02  0.13436258065E+03  0.14140334150E+03  0.00000000000E+00 0. -1.
</event>
<event>
 8    1  0.4798744E-006  0.1095500E+03  0.7561462E-02  0.1261405E+00
         -1   -1    0    0    0  501 -0.00000000000E+00  0.00000000000E+00  0.14945205906E+02  0.14945205906E+02  0.00000000000E+00 0. -1.
          1   -1    0    0  501    0  0.00000000000E+00 -0.00000000000E+00 -0.82841668653E+03  0.82841668653E+03  0.00000000000E+00 0.  1.
         23    2    1    2    0    0  0.15196114637E+02 -0.86062012030E+01 -0.39435393447E+03  0.41408670344E+03  0.12509110175E+03 0.  0.
         23    2    1    2    0    0 -0.15196114637E+02  0.86062012030E+01 -0.41911754615E+03  0.42927518899E+03  0.91173909598E+02 0.  0.
          5    1    3    3  502    0 -0.25737689895E+01 -0.65935979500E+02 -0.20280124413E+03  0.21330727765E+03  0.41800000000E+01 0. -1.
         -5    1    3    3    0  502  0.17769883627E+02  0.57329778297E+02 -0.19155269034E+03  0.20077942579E+03  0.41800000000E+01 0. -1.
        -11    1    4    4    0    0  0.10645295141E+02 -0.38033625977E+02 -0.18227459707E+03  0.18650444432E+03  0.00000000000E+00 0.  1.
         11    1    4    4    0    0 -0.25841409778E+02  0.46639827180E+02 -0.23684294909E+03  0.24277074468E+03  0.00000000000E+00 0. -1.
</event>
<event>
 7    1  0.4798744E-006  0.1330537E+03  0.7561462E-02  0.1222994E+00
         -3   -1    0    0    0  501 -0.00000000000E+00  0.00000000000E+00  0.70763393475E+02  0.70763393475E+02  0.00000000000E+00 0.  1.
          3   -1    0    0  501    0  0.00000000000E+00 -0.00000000000E+00 -0.31107500428E+03  0.31107500428E+03  0.00000000000E+00 0. -1.
         23    2    1    2    0    0  0.67825550211E+02  0.55123488805E+02 -0.14805416080E+03  0.18128397360E+03  0.57488609975E+02 0.  0.
          5    1    1    2  502    0 -0.11816772337E+03 -0.37995170753E+02 -0.57280417465E+02  0.13676901137E+03  0.41800000000E+01 0. -1.
         -5    1    1    2    0  502  0.50342173159E+02 -0.17128318052E+02 -0.34977032541E+02  0.63785412776E+02  0.41800000000E+01 0.  1.
        -11    1    3    3    0    0  0.15857883836E+02  0.56924405183E+01 -0.82217818493E+02  0.83926432288E+02  0.00000000000E+00 0. -1.
         11    1    3    3    0    0  0.51967666374E+02  0.49431048287E+02 -0.65836342305E+02  0.97357541316E+02  0.00000000000E+00 0.  1.
</event>
<event>
 8    1  0.4798744E-006  0.9953951E+02  0.7561462E-02  0.1281267E+00
          2   -1    0    0  501    0  0.00000000000E+00  0.00000000000E+00  0.16087350348E+03  0.16087350348E+03  0.00000000000E+00 0.  1.
         -2   -1    0    0    0  501 -0.00000000000E+00 -0.00000000000E+00 -0.12924831179E+03  0.12924831179E+03  0.00000000000E+00 0. -1.
         23    2    1    2    0    0  0.61841291296E+02 -0.60753537860E+02 -0.22023327547E+02  0.15377599075E+03  0.12508673273E+03 0.  0.
         23    2    1    2    0    0 -0.61841291296E+02  0.60753537860E+02  0.53648519240E+02  0.13634582452E+03  0.90535532120E+02 0.  0.
          5    1    3    3  502    0  0.48925075832E+02  0.63406237952E+00  0.41578208771E+02  0.64345045845E+02  0.41800000000E+01 0. -1.
         -5    1    3    3    0  502  0.12916215464E+02 -0.61387600240E+02 -0.63601536317E+02  0.89430944907E+02  0.41800000000E+01 0. -1.
        -11    1    4    4    0    0 -0.17673982757E+02  0.22932477619E+02  0.70159844643E+02  0.75899090881E+02  0.00000000000E+00 0.  1.
         11    1    4    4    0    0 -0.44167308539E+02  0.37821060241E+02 -0.16511325403E+02  0.60446733641E+02  0.00000000000E+00 0. -1.
</event>
<event>
 8    1  0.4798744E-006  0.1006854E+03  0.7561462E-02  0.1278861E+00
         -1   -1    0    0    0  501 -0.00000000000E+00  0.00000000000E+00  0.33737585079E+02  0.33737585079E+02  0.00000000000E+00 0.  1.
          1   -1    0    0  501    0  0.00000000000E+00 -0.00000000000E+00 -0.39334458845E+03  0.39334458845E+03  0.00000000000E+00 0. -1.
         23    2    1    2    0    0 -0.39424065101E+01  0.27886868507E+02 -0.14822274462E+03  0.19598471318E+03  0.12508719268E+03 0.  0.
         23    2    1    2    0    0  0.39424065101E+01 -0.27886868507E+02 -0.21138425876E+03  0.23109746036E+03  0.89047803616E+02 0.  0.
          5    1    3    3  502    0  0.27861777361E+02  0.60624672892E+02 -0.38668614805E+02  0.77229293483E+02  0.41800000000E+01 0. -1.
         -5    1    3    3    0  502 -0.31804183871E+02 -0.32737804385E+02 -0.10955412981E+03  0.11875541969E+03  0.41800000000E+01 0. -1.
        -11    1    4    4    0    0 -0.19697144317E+02 -0.51581972506E+02 -0.93822463922E+02  0.10886382374E+03  0.00000000000E+00 0.  1.
         11    1    4    4    0    0  0.23639550827E+02  0.23695104000E+02 -0.11756179483E+03  0.12223363662E+03  0.00000000000E+00 0. -1.
</event>
<event>
 8    1  0.4798744E-006  0.1689668E+03  0.7561462E-02  0.1178930E+00
          1   -1    0    0  501    0  0.00000000000E+00  0.00000000000E+00  0.61922178121E+03  0.61922178121E+03  0.00000000000E+00 0. -1.
         -1   -1    0    0    0  501 -0.00000000000E+00 -0.00000000000E+00 -0.69743016262E+02  0.69743016262E+02  0.00000000000E+00 0.  1.
         23    2    1    2    0    0 -0.14770966778E+03 -0.19491475999E+02  0.12784296102E+03  0.23278357085E+03  0.12508518930E+03 0.  0.
         23    2    1    2    0    0  0.14770966778E+03  0.19491475999E+02  0.42163580393E+03  0.45618122663E+03  0.90147084163E+02 0.  0.
          5    1    3    3  502    0 -0.31491082925E+02  0.27671421592E+02  0.93689459719E+02  0.10272576668E+03  0.41800000000E+01 0. -1.
         -5    1    3    3    0  502 -0.11621858485E+03 -0.47162897590E+02  0.34153501304E+02  0.13005780417E+03  0.41800000000E+01 0. -1.
        -11    1    4    4    0    0  0.16656953209E+02  0.34589800263E+02  0.14020148112E+03  0.14536286899E+03  0.00000000000E+00 0.  1.
         11    1    4    4    0    0  0.13105271457E+03 -0.15098324264E+02  0.28143432280E+03  0.31081835764E+03  0.00000000000E+00 0. -1.
</event>
<event>
 8    1  0.4798744E-006  0.1178288E+03  0.7561462E-02  0.1246722E+00
         -1   -1    0    0    0  501 -0.00000000000E+00  0.00000000000E+00  0.22577503067E+02  0.22577503067E+02  0.00000000000E+00 0.  1.
          1   -1    0    0  501    0  0.00000000000E+00 -0.00000000000E+00 -0.66450568103E+03  0.66450568103E+03  0.00000000000E+00 0. -1.
         23    2    1    2    0    0 -0.56595223663E+02  0.73240136241E-01 -0.33493442726E+03  0.36199020544E+03  0.12511120478E+03 0.  0.
         23    2    1    2    0    0  0.56595223663E+02 -0.73240136241E-01 -0.30699375070E+03  0.32509297866E+03  0.90759336145E+02 0.  0.
          5    1    3    3  502    0  0.61727039366E+01 -0.53777024020E+02 -0.12278428758E+03  0.13425171978E+03  0.41800000000E+01 0.  1.
         -5    1    3    3    0  502 -0.62767927599E+02  0.53850264156E+02 -0.21215013968E+03  0.22773848566E+03  0.41800000000E+01 0.  1.
        -11    1    4    4    0    0  0.66777591794E+02 -0.25256746033E+02 -0.26947986384E+03  0.27877687674E+03  0.00000000000E+00 0. -1.
         11    1    4    4    0    0 -0.10182368131E+02  0.25183505897E+02 -0.37513886858E+02  0.46316101922E+02  0.00000000000E+00 0.  1.
</event>
<event>
 8    1  0.4798744E-006  0.8657858E+02  0.7561462E-02  0.1311355E+00
          1   -1    0    0  501    0  0.00000000000E+00  0.00000000000E+00  0.22234397473E+02  0.22234397473E+02  0.00000000000E+00 0. -1.
         -1   -1    0    0    0  501 -0.00000000000E+00 -0.00000000000E+00 -0.71156557309E+03  0.71156557309E+03  0.00000000000E+00 0.  1.
         23    2    1    2    0    0 -0.14405789211E+02  0.24128360076E+02 -0.52783239465E+03  0.54317879386E+03  0.12508581347E+03 0.  0.
         23    2    1    2    0    0  0.14405789211E+02 -0.24128360076E+02 -0.16149878096E+03  0.19062117670E+03  0.97287574910E+02 0.  0.
          5    1    3    3  502    0 -0.28598550079E+02 -0.20223068106E+02 -0.40914912193E+02  0.54021773296E+02  0.41800000000E+01 0.  1.
         -5    1    3    3    0  502  0.14192760868E+02  0.44351428182E+02 -0.48691748246E+03  0.48915702056E+03  0.41800000000E+01 0.  1.
        -11    1    4    4    0    0  0.35822082906E+02 -0.47457359129E+02 -0.60722467805E+02  0.84986120370E+02  0.00000000000E+00 0. -1.
         11    1    4    4    0    0 -0.21416293695E+02  0.23328999053E+02 -0.10077631316E+03  0.10563505633E+03  0.00000000000E+00 0.  1.
</event>
<event>
 8    1  0.4798744E-006  0.1034808E+03  0.7561462E-02  0.1273142E+00
         -3   -1    0    0    0  501 -0.00000000000E+00  0.00000000000E+00  0.85422864009E+02  0.85422864009E+02  0.00000000000E+00 0.  1.
          3   -1    0    0  501    0  0.00000000000E+00 -0.00000000000E+00 -0.24254839966E+03  0.24254839966E+03  0.00000000000E+00 0. -1.
         23    2    1    2    0    0  0.13612775617E+02 -0.68666719267E+02 -0.16565804472E+02  0.14429297453E+03  0.12508241533E+03 0.  0.
         23    2    1    2    0    0 -0.13612775617E+02  0.68666719267E+02 -0.14055973118E+03  0.18367828914E+03  0.95290345144E+02 0.  0.
          5    1    3    3  502    0  0.51773736533E+01  0.20209788441E+02 -0.45601436305E+02  0.50321010918E+02  0.41800000000E+01 0. -1.
         -5    1    3    3    0  502  0.84354019639E+01 -0.88876507708E+02  0.29035631833E+02  0.93971963609E+02  0.41800000000E+01 0. -1.
        -11    1    4    4    0    0  0.24071723027E+02  0.89176370947E+01  0.76541585163E+00  0.25681860569E+02  0.00000000000E+00 0.  1.
         11    1    4    4    0    0 -0.37684498644E+02  0.59749082172E+02 -0.14132514703E+03  0.15799642857E+03  0.00000000000E+00 0. -1.
</event>
<event>
 8    1  0.4798744E-006  0.1862883E+03  0.7561462E-02  0.1161852E+00
          2   -1    0    0  501    0  0.00000000000E+00  0.00000000000E+00  0.20323908052E+03  0.20323908052E+03  0.00000000000E+00 0. -1.
         -2   -1    0    0    0  501 -0.00000000000E+00 -0.00000000000E+00 -0.26658313401E+03  0.26658313401E+03  0.00000000000E+00 0.  1.
         23    2    1    2    0    0 -0.10118642801E+03 -0.14680711565E+03 -0.13630427388E+03  0.25693878129E+03  0.12509060649E+03 0.  0.
         23    2    1    2    0    0  0.10118642801E+03  0.14680711565E+03  0.72960220385E+02  0.21288343325E+03  0.90582227689E+02 0.  0.
          5    1    3    3  502    0  0.87774951741E+01 -0.37471994515E+02 -0.85250610648E+02  0.93628701851E+02  0.41800000000E+01 0. -1.
         -5    1    3    3    0  502 -0.10996392319E+03 -0.10933512113E+03 -0.51053663230E+02  0.16331007944E+03  0.41800000000E+01 0. -1.
        -11    1    4    4    0    0  0.23819647656E+02  0.25807763865E+02 -0.21318793482E+02  0.41084148350E+02  0.00000000000E+00 0.  1.
         11    1    4    4    0    0  0.77366780357E+02  0.12099935178E+03  0.94279013867E+02  0.17179928490E+03  0.00000000000E+00 0. -1.
</event>
<event>
 7    1  0.4798744E-006  0.1418189E+03  0.7561462E-02  0.1210902E+00
          1   -1    0    0  501    0  0.00000000000E+00  0.00000000000E+00  0.47861690656E+03  0.47861690656E+03  0.00000000000E+00 0. -1.
         -1   -1    0    0    0  501 -0.00000000000E+00 -0.00000000000E+00 -0.63431288560E+03  0.63431288560E+03  0.00000000000E+00 0.  1.
         23    2    1    2    0    0 -0.44121332394E+02  0.57293816683E+02  0.45466597627E+03  0.46909025619E+03  0.89973579859E+02 0.  0.
          5    1    1    2  502    0  0.87029561595E+02 -0.89782061006E+02 -0.25106934550E+03  0.28051426295E+03  0.41800000000E+01 0. -1.
         -5    1    1    2    0  502 -0.42908229201E+02  0.32488244322E+02 -0.35929260981E+03  0.36332527302E+03  0.41800000000E+01 0.  1.
        -11    1    3    3    0    0  0.12545515236E+02 -0.10377865282E+02  0.21208226562E+02  0.26737219643E+02  0.00000000000E+00 0.  1.
         11    1    3    3    0    0 -0.56666847630E+02  0.67671681965E+02  0.43345774971E+03  0.44235303655E+03  0.00000000000E+00 0. -1.
</event>
<event>
 8    1  0.4798744E-006  0.1454695E+03  0.7561462E-02  0.1206153E+00
          3   -1    0    0  501    0  0.00000000000E+00  0.00000000000E+00  0.37033402677E+03  0.37033402677E+03  0.00000000000E+00 0. -1.
         -3   -1    0    0    0  501 -0.00000000000E+00 -0.00000000000E+00 -0.74165738364E+02  0.74165738364E+02  0.00000000000E+00 0.  1.
         23    2    1    2    0    0  0.64779951174E+02 -0.92571133888E+02  0.64326793734E+02  0.18042541194E+03  0.12509810542E+03 0.  0.
         23    2    1    2    0    0 -0.64779951174E+02  0.92571133888E+02  0.23184149467E+03  0.26407435319E+03  0.56735601322E+02 0.  0.
          5    1    3    3  502    0 -0.35796318967E+02 -0.29368342345E+02  0.34464145703E+02  0.57871631416E+02  0.41800000000E+01 0.  1.
         -5    1    3    3    0  502  0.10057627014E+03 -0.63202791543E+02  0.29862648031E+02  0.12255378053E+03  0.41800000000E+01 0.  1.
        -11    1    4    4    0    0 -0.10966163390E+02  0.63470182886E+02  0.13407304768E+03  0.14874240474E+03  0.00000000000E+00 0.  1.
         11    1    4    4    0    0 -0.53813787784E+02  0.29100951003E+02  0.97768446995E+02  0.11533194845E+03  0.00000000000E+00 0. -1.
</event>
<event>
 8    1  0.4798744E-006  0.1146849E+03  0.7561462E-02  0.1252132E+00
         -3   -1    0    0    0  501 -0.00000000000E+00  0.00000000000E+00  0.31633517799E+03  0.31633517799E+03  0.00000000000E+00 0.  1.
          3   -1    0    0  501    0  0.00000000000E+00 -0.00000000000E+00 -0.77920538580E+02  0.77920538580E+02  0.00000000000E+00 0. -1.
         23    2    1    2    0    0  0.65306213635E+02  0.57355555487E+01  0.24246191704E+03  0.28059389032E+03  0.12508937579E+03 0.  0.
         23    2    1    2    0    0 -0.65306213635E+02 -0.57355555487E+01 -0.40472776276E+01  0.11366182625E+03  0.92762234518E+02 0.  0.
          5    1    3    3  502    0  0.85837115811E+02  0.23632258686E+02  0.93771494861E+02  0.12937178885E+03  0.41800000000E+01 0. -1.
         -5    1    3    3    0  502 -0.20530902176E+02 -0.17896703137E+02  0.14869042218E+03  0.15122210147E+03  0.41800000000E+01 0. -1.
        -11    1    4    4    0    0 -0.45892084408E+01 -0.41809674651E+02 -0.84441820285E+01  0.42900045905E+02  0.00000000000E+00 0. -1.
         11    1    4    4    0    0 -0.60717005194E+02  0.36074119102E+02  0.43969044009E+01  0.70761780341E+02  0.00000000000E+00 0.  1.
</event>
<event>
 8    1  0.4798744E-006  0.1156188E+03  0.7561462E-02  0.1250505E+00
          3   -1    0    0  501    0  0.00000000000E+00  0.00000000000E+00  0.84373577275E+02  0.84373577275E+02  0.00000000000E+00 0. -1.
         -3   -1    0    0    0  501 -0.00000000000E+00 -0.00000000000E+00 -0.16514497787E+03  0.16514497787E+03  0.00000000000E+00 0.  1.
         23    2    1    2    0    0  0.15796467659E+01 -0.43972532345E+02 -0.63350657625E+02  0.14695822558E+03  0.12508930953E+03 0.  0.
         23    2    1    2    0    0 -0.15796467659E+01  0.43972532345E+02 -0.17420742972E+02  0.10256032957E+03  0.90989340206E+02 0.  0.
          5    1    3    3  502    0 -0.56395014915E+02  0.16791307936E+01 -0.40570025312E+02  0.69617645331E+02  0.41800000000E+01 0.  1.
         -5    1    3    3    0  502  0.57974661681E+02 -0.45651663138E+02 -0.22780632313E+02  0.77340580247E+02  0.41800000000E+01 0.  1.
        -11    1    4    4    0    0  0.36175569990E+02 -0.74741527527E+01 -0.10310218080E+02  0.38351472205E+02  0.00000000000E+00 0.  1.
         11    1    4    4    0    0 -0.37755216756E+02  0.51446685097E+02 -0.71105248921E+01  0.64208857364E+02  0.00000000000E+00 0. -1.
</event>
<event>
 8    1  0.4798744E-006  0.1189427E+03  0.7561462E-02  0.1244852E+00
         -1   -1    0    0    0  501 -0.00000000000E+00  0.00000000000E+00  0.22196391196E+02  0.22196391196E+02  0.00000000000E+00 0.  1.
          1   -1    0    0  501    0  0.00000000000E+00 -0.00000000000E+00 -0.98033555626E+03  0.98033555626E+03  0.00000000000E+00 0. -1.
         23    2    1    2    0    0  0.83797059212E+02  0.40332852750E+02 -0.41801123564E+03  0.44612426977E+03  0.12507911424E+03 0.  0.
         23    2    1    2    0    0 -0.83797059212E+02 -0.40332852750E+02 -0.54012792943E+03  0.55640767768E+03  0.95930378363E+02 0.  0.
          5    1    3    3  502    0  0.92707292453E+02  0.40854216286E+02 -0.17017887556E+03  0.19809601498E+03  0.41800000000E+01 0.  1.
         -5    1    3    3    0  502 -0.89102332409E+01 -0.52136353607E+00 -0.24783236008E+03  0.24802825480E+03  0.41800000000E+01 0.  1.
        -11    1    4    4    0    0 -0.19315369864E+02 -0.56873535386E+02 -0.16898995044E+03  0.17934683128E+03  0.00000000000E+00 0.  1.
         11    1    4    4    0    0 -0.64481689349E+02  0.16540682636E+02 -0.37113797899E+03  0.37706084640E+03  0.00000000000E+00 0. -1.
</event>
<event>
 8    1  0.4910741E-006  0.1530383E+03  0.7561462E-02  0.1196788E+00
          2   -1    0    0  501    0  0.00000000000E+00  0.00000000000E+00  0.43896107841E+03  0.43896107841E+03  0.00000000000E+00 0. -1.
         -2   -1    0    0    0  501 -0.00000000000E+00 -0.00000000000E+00 -0.67734761739E+02  0.67734761739E+02  0.00000000000E+00 0.  1.
         23    2    1    2    0    0  0.11569820746E+02  0.12704782870E+03  0.20449419684E+03  0.27155137228E+03  0.12508900719E+03 0.  0.
         23    2    1    2    0    0 -0.11569820746E+02 -0.12704782870E+03  0.16673211984E+03  0.23514446787E+03  0.10591652115E+03 0.  0.
          5    1    3    3  502    0  0.57657208267E+02  0.90823232443E+02  0.17581322515E+03  0.20615764782E+03  0.41800000000E+01 0.  1.
         -5    1    3    3    0  502 -0.46087387520E+02  0.36224596259E+02  0.28680971686E+02  0.65393724465E+02  0.41800000000E+01 0.  1.
        -11    1    4    4    0    0 -0.20772699146E+02 -0.11517869139E+02  0.97047842798E+02  0.99912212122E+02  0.00000000000E+00 0.  1.
         11    1    4    4    0    0  0.92028783992E+01 -0.11552995956E+03  0.69684277037E+02  0.13523225574E+03  0.00000000000E+00 0. -1.
</event>
<event>
 8    1  0.4798744E-006  0.7930993E+02  0.7561462E-02  0.1331021E+00
         -1   -1    0    0    0  501 -0.00000000000E+00  0.00000000000E+00  0.31128602781E+03  0.31128602781E+03  0.00000000000E+00 0. -1.
          1   -1    0    0  501    0  0.00000000000E+00 -0.00000000000E+00 -0.97750442325E+02  0.97750442325E+02  0.00000000000E+00 0.  1.
         23    2    1    2    0    0 -0.22926986106E+01 -0.71434681904E+02  0.24957481516E+03  0.28817327229E+03  0.12509227095E+03 0.  0.
         23    2    1    2    0    0  0.22926986106E+01  0.71434681904E+02 -0.36039229681E+02  0.12086319784E+03  0.90558910502E+02 0.  0.
          5    1    3    3  502    0  0.15580982123E+02 -0.22258312303E+02 -0.52603809440E+01  0.27988273941E+02  0.41800000000E+01 0. -1.
         -5    1    3    3    0  502 -0.17873680734E+02 -0.49176369601E+02  0.25483519611E+03  0.26018499835E+03  0.41800000000E+01 0. -1.
        -11    1    4    4    0    0  0.17370432452E+02  0.44534417680E+02 -0.63561078964E+02  0.79530227214E+02  0.00000000000E+00 0.  1.
         11    1    4    4    0    0 -0.15077733841E+02  0.26900264224E+02  0.27521849283E+02  0.41332970629E+02  0.00000000000E+00 0. -1.
</event>
<event>
 8    1  0.4798744E-006  0.9015313E+02  0.7561462E-02  0.1302481E+00
          2   -1    0    0  501    0  0.00000000000E+00  0.00000000000E+00  0.23039630151E+03  0.23039630151E+03  0.00000000000E+00 0. -1.
         -2   -1    0    0    0  501 -0.00000000000E+00 -0.00000000000E+00 -0.53334735589E+02  0.53334735589E+02  0.00000000000E+00 0.  1.
         23    2    1    2    0    0 -0.19105053526E+01  0.14033979207E+02  0.75458443607E+02  0.14677500265E+03  0.12509325356E+03 0.  0.
         23    2    1    2    0    0  0.19105053526E+01 -0.14033979207E+02  0.10160312231E+03  0.13695603445E+03  0.90736752787E+02 0.  0.
          5    1    3    3  502    0  0.35191138777E+02 -0.17575667679E+02  0.87819427266E+02  0.96317415601E+02  0.41800000000E+01 0.  1.
         -5    1    3    3    0  502 -0.37101644129E+02  0.31609646886E+02 -0.12360983658E+02  0.50457587044E+02  0.41800000000E+01 0.  1.
        -11    1    4    4    0    0  0.37744113579E+02 -0.34007215155E+02  0.57039245817E+02  0.76384451008E+02  0.00000000000E+00 0.  1.
         11    1    4    4    0    0 -0.35833608226E+02  0.19973235948E+02  0.44563876494E+02  0.60571583444E+02  0.00000000000E+00 0. -1.
</event>
<event>
 8    1  0.4798744E-006  0.1445606E+03  0.7561462E-02  0.1207321E+00
         -1   -1    0    0    0  501 -0.00000000000E+00  0.00000000000E+00  0.12926596060E+03  0.12926596060E+03  0.00000000000E+00 0.  1.
          1   -1    0    0  501    0  0.00000000000E+00 -0.00000000000E+00 -0.21379475485E+03  0.21379475485E+03  0.00000000000E+00 0. -1.
         23    2    1    2    0    0  0.76446293115E+02  0.95614875378E+02 -0.16597446816E+02  0.17581067912E+03  0.12509068521E+03 0.  0.
         23    2    1    2    0    0 -0.76446293115E+02 -0.95614875378E+02 -0.67931347438E+02  0.16725003633E+03  0.91496811773E+02 0.  0.
          5    1    3    3  502    0  0.19444431110E+02 -0.11599577125E+02 -0.45436879414E+02  0.50937397868E+02  0.41800000000E+01 0.  1.
         -5    1    3    3    0  502  0.57001862005E+02  0.10721445250E+03  0.28839432598E+02  0.12487328125E+03  0.41800000000E+01 0.  1.
        -11    1    4    4    0    0 -0.76868912843E+02 -0.35822982421E+02 -0.12513347844E+02  0.85724557190E+02  0.00000000000E+00 0.  1.
         11    1    4    4    0    0  0.42261972787E+00 -0.59791892957E+02 -0.55417999594E+02  0.81525479145E+02  0.00000000000E+00 0. -1.
</event>
<event>
 8    1  0.4798744E-006  0.1087115E+03  0.7561462E-02  0.1262975E+00
          2   -1    0    0  501    0  0.00000000000E+00  0.00000000000E+00  0.19880316327E+03  0.19880316327E+03  0.00000000000E+00 0. -1.
         -2   -1    0    0    0  501 -0.00000000000E+00 -0.00000000000E+00 -0.10068677319E+03  0.10068677319E+03  0.00000000000E+00 0.  1.
         23    2    1    2    0    0  0.12695751430E+02  0.77465723873E+02  0.71879546289E+01  0.14785398878E+03  0.12508802831E+03 0.  0.
         23    2    1    2    0    0 -0.12695751430E+02 -0.77465723873E+02  0.90928435446E+02  0.15163594768E+03  0.92538423252E+02 0.  0.
          5    1    3    3  502    0  0.37956135783E+02  0.18300391562E+02 -0.47270625077E+02  0.63463036250E+02  0.41800000000E+01 0.  1.
         -5    1    3    3    0  502 -0.25260384353E+02  0.59165332311E+02  0.54458579706E+02  0.84390952529E+02  0.41800000000E+01 0.  1.
        -11    1    4    4    0    0  0.39138118882E+01  0.15595476254E+02 -0.51165735475E+01  0.16873533357E+02  0.00000000000E+00 0.  1.
         11    1    4    4    0    0 -0.16609563318E+02 -0.93061200127E+02  0.96045008994E+02  0.13476241433E+03  0.00000000000E+00 0. -1.
</event>
<event>
 8    1  0.4798744E-006  0.1007163E+03  0.7561462E-02  0.1278797E+00
          1   -1    0    0  501    0  0.00000000000E+00  0.00000000000E+00  0.12808323305E+03  0.12808323305E+03  0.00000000000E+00 0. -1.
         -1   -1    0    0    0  501 -0.00000000000E+00 -0.00000000000E+00 -0.23303614142E+03  0.23303614142E+03  0.00000000000E+00 0.  1.
         23    2    1    2    0    0 -0.15622650378E+02 -0.37017350262E+02 -0.18961123170E+03  0.23068138629E+03  0.12508849415E+03 0.  0.
         23    2    1    2    0    0  0.15622650378E+02  0.37017350262E+02  0.84658323328E+02  0.13043798818E+03  0.90734148077E+02 0.  0.
          5    1    3    3  502    0  0.37610876496E+02 -0.61216419944E+02 -0.11693569523E+03  0.13730789242E+03  0.41800000000E+01 0. -1.
         -5    1    3    3    0  502 -0.53233526874E+02  0.24199069681E+02 -0.72675536468E+02  0.93373493872E+02  0.41800000000E+01 0. -1.
        -11    1    4    4    0    0  0.18687271072E+02 -0.11685349310E+02 -0.97988213658E+01  0.24120082686E+02  0.00000000000E+00 0.  1.
         11    1    4    4    0    0 -0.30646206936E+01  0.48702699573E+02  0.94457144694E+02  0.10631790550E+03  0.00000000000E+00 0. -1.
</event>
<event>
 8    1  0.4798744E-006  0.9213502E+02  0.7561462E-02  0.1297762E+00
         -3   -1    0    0    0  501 -0.00000000000E+00  0.00000000000E+00  0.10128793290E+03  0.10128793290E+03  0.00000000000E+00 0.  1.
          3   -1    0    0  501    0  0.00000000000E+00 -0.00000000000E+00 -0.13133742032E+03  0.13133742032E+03  0.00000000000E+00 0. -1.
         23    2    1    2    0    0 -0.97799374987E+01  0.59896080268E+01  0.20220324494E+02  0.12722793857E+03  0.12508622725E+03 0.  0.
         23    2    1    2    0    0  0.97799374987E+01 -0.59896080268E+01 -0.50269811917E+02  0.10539741464E+03  0.91924090649E+02 0.  0.
          5    1    3    3  502    0 -0.30588620401E+02  0.58115970145E+02 -0.40595289243E+01  0.65932403710E+02  0.41800000000E+01 0. -1.
         -5    1    3    3    0  502  0.20808682903E+02 -0.52126362118E+02  0.24279853419E+02  0.61295534861E+02  0.41800000000E+01 0. -1.
        -11    1    4    4    0    0 -0.82335556156E+01 -0.30596723290E+02  0.13707889709E+02  0.34523284236E+02  0.00000000000E+00 0.  1.
         11    1    4    4    0    0  0.18013493114E+02  0.24607115263E+02 -0.63977701626E+02  0.70874130408E+02  0.00000000000E+00 0. -1.
</event>
<event>
 8    1  0.4798744E-006  0.1049010E+03  0.7561462E-02  0.1270315E+00
          1   -1    0    0  501    0  0.00000000000E+00  0.00000000000E+00  0.17966643434E+03  0.17966643434E+03  0.00000000000E+00 0. -1.
         -1   -1    0    0    0  501 -0.00000000000E+00 -0.00000000000E+00 -0.14437339578E+03  0.14437339578E+03  0.00000000000E+00 0.  1.
         23    2    1    2    0    0 -0.15031165914E+02 -0.76222606168E+02 -0.57562203684E+02  0.15810296786E+03  0.12508924619E+03 0.  0.
         23    2    1    2    0    0  0.15031165914E+02  0.76222606168E+02  0.92855242251E+02  0.16593686226E+03  0.11347741892E+03 0.  0.
          5    1    3    3  502    0 -0.26038042940E+02 -0.54066909234E+02  0.29854932125E+02  0.67156531525E+02  0.41800000000E+01 0. -1.
         -5    1    3    3    0  502  0.11006877026E+02 -0.22155696934E+02 -0.87417135809E+02  0.90946436332E+02  0.41800000000E+01 0. -1.
        -11    1    4    4    0    0 -0.79805101369E+01 -0.22142004868E+02 -0.63211031144E+01  0.24370335784E+02  0.00000000000E+00 0.  1.
         11    1    4    4    0    0  0.23011676051E+02  0.98364611037E+02  0.99176345365E+02  0.14156652648E+03  0.00000000000E+00 0. -1.
</event>
<event>
 8    1  0.4798744E-006  0.1605958E+03  0.7561462E-02  0.1188026E+00
         -2   -1    0    0    0  501 -0.00000000000E+00  0.00000000000E+00  0.57132146848E+02  0.57132146848E+02  0.00000000000E+00 0. -1.
          2   -1    0    0  501    0  0.00000000000E+00 -0.00000000000E+00 -0.48728103947E+03  0.48728103947E+03  0.00000000000E+00 0.  1.
         23    2    1    2    0    0  0.44783095657E+02  0.11755867361E+03 -0.23574962598E+03  0.29504336913E+03  0.12508851315E+03 0.  0.
         23    2    1    2    0    0 -0.44783095657E+02 -0.11755867361E+03 -0.19439926664E+03  0.24936981719E+03  0.92567075444E+02 0.  0.
          5    1    3    3  502    0  0.56640718335E+02 -0.48627571251E+00 -0.97333065564E+02  0.11269252633E+03  0.41800000000E+01 0. -1.
         -5    1    3    3    0  502 -0.11857622678E+02  0.11804494932E+03 -0.13841656042E+03  0.18235084281E+03  0.41800000000E+01 0. -1.
        -11    1    4    4    0    0 -0.48701743866E+02 -0.28279236168E+02 -0.34079956783E+02  0.65825667548E+02  0.00000000000E+00 0. -1.
         11    1    4    4    0    0  0.39186482087E+01 -0.89279437438E+02 -0.16031930986E+03  0.18354414964E+03  0.00000000000E+00 0.  1.
</event>
<event>
 8    1  0.4798744E-006  0.1605505E+03  0.7561462E-02  0.1188077E+00
          2   -1    0    0  501    0  0.00000000000E+00  0.00000000000E+00  0.17439328262E+03  0.17439328262E+03  0.00000000000E+00 0. -1.
         -2   -1    0    0    0  501 -0.00000000000E+00 -0.00000000000E+00 -0.16878831867E+03  0.16878831867E+03  0.00000000000E+00 0.  1.
         23    2    1    2    0    0 -0.61898330981E+01 -0.12213056188E+03 -0.48534913628E+02  0.18154663198E+03  0.12509737633E+03 0.  0.
         23    2    1    2    0    0  0.61898330981E+01  0.12213056188E+03  0.54139877573E+02  0.16163496930E+03  0.90777468452E+02 0.  0.
          5    1    3    3  502    0 -0.51664318758E+02 -0.88932217274E+01 -0.19085812342E+02  0.55946687643E+02  0.41800000000E+01 0.  1.
         -5    1    3    3    0  502  0.45474485660E+02 -0.11323734016E+03 -0.29449101286E+02  0.12559994434E+03  0.41800000000E+01 0.  1.
        -11    1    4    4    0    0  0.41002291310E+02  0.90585941826E+02  0.15143036685E+02  0.10057988024E+03  0.00000000000E+00 0.  1.
         11    1    4    4    0    0 -0.34812458212E+02  0.31544620058E+02  0.38996840888E+02  0.61055089064E+02  0.00000000000E+00 0. -1.
</event>
<event>
 8    1  0.4798744E-006  0.9522333E+02  0.7561462E-02  0.1290674E+00
         -1   -1    0    0    0  501 -0.00000000000E+00  0.00000000000E+00  0.40070197807E+02  0.40070197807E+02  0.00000000000E+00 0. -1.
          1   -1    0    0  501    0  0.00000000000E+00 -0.00000000000E+00 -0.45149616025E+03  0.45149616025E+03  0.00000000000E+00 0.  1.
         23    2    1    2    0    0 -0.15920542795E+02  0.47134809868E+02 -0.11461467603E+03  0.17680291411E+03  0.12509033733E+03 0.  0.
         23    2    1    2    0    0  0.15920542795E+02 -0.47134809868E+02 -0.29681128641E+03  0.31476344395E+03  0.92216765928E+02 0.  0.
          5    1    3    3  502    0 -0.44072392639E+02  0.23798950611E+02 -0.12809858181E+03  0.13760626768E+03  0.41800000000E+01 0.  1.
         -5    1    3    3    0  502  0.28151849844E+02  0.23335859257E+02  0.13483905775E+02  0.39196646436E+02  0.41800000000E+01 0.  1.
        -11    1    4    4    0    0  0.80027696927E+01 -0.74481778785E+02 -0.23629120523E+03  0.24788124851E+03  0.00000000000E+00 0. -1.
         11    1    4    4    0    0  0.79177731022E+01  0.27346968918E+02 -0.60520081179E+02  0.66882195432E+02  0.00000000000E+00 0.  1.
</event>
<event>
 8    1  0.4798744E-006  0.5694497E+02  0.7561462E-02  0.1411119E+00
          2   -1    0    0  501    0  0.00000000000E+00  0.00000000000E+00  0.27435626027E+03  0.27435626027E+03  0.00000000000E+00 0. -1.
         -2   -1    0    0    0  501 -0.00000000000E+00 -0.00000000000E+00 -0.81999089059E+02  0.81999089059E+02  0.00000000000E+00 0.  1.
         23    2    1    2    0    0  0.99271634877E+00 -0.43958892142E+02 -0.73403003918E+01  0.13279892799E+03  0.12509318759E+03 0.  0.
         23    2    1    2    0    0 -0.99271634877E+00  0.43958892142E+02  0.19969747160E+03  0.22355642134E+03  0.90360520547E+02 0.  0.
          5    1    3    3  502    0  0.21243176218E+02 -0.34765123626E+02  0.53794332397E+02  0.67610568365E+02  0.41800000000E+01 0. -1.
         -5    1    3    3    0  502 -0.20250459869E+02 -0.91937685155E+01 -0.61134632788E+02  0.65188359625E+02  0.41800000000E+01 0. -1.
        -11    1    4    4    0    0  0.10345766501E+02  0.32814668640E+02  0.20416377104E+03  0.20704270760E+03  0.00000000000E+00 0. -1.
         11    1    4    4    0    0 -0.11338482850E+02  0.11144223501E+02 -0.44662994429E+01  0.16513713740E+02  0.00000000000E+00 0.  1.
</event>
<event>
 8    1  0.4798744E-006  0.9335598E+02  0.7561462E-02  0.1294922E+00
          2   -1    0    0  501    0  0.00000000000E+00  0.00000000000E+00  0.46320756131E+03  0.46320756131E+03  0.00000000000E+00 0. -1.
         -2   -1    0    0    0  501 -0.00000000000E+00 -0.00000000000E+00 -0.39927729082E+02  0.39927729082E+02  0.00000000000E+00 0.  1.
         23    2    1    2    0    0  0.76341361578E+02  0.31017925553E+02  0.24232253810E+03  0.28488152746E+03  0.12508859670E+03 0.  0.
         23    2    1    2    0    0 -0.76341361578E+02 -0.31017925553E+02  0.18095729412E+03  0.21825376293E+03  0.89994708414E+02 0.  0.
          5    1    3    3  502    0  0.35249782717E+02  0.16822925485E+01 -0.17762201636E+01  0.35580959064E+02  0.41800000000E+01 0.  1.
         -5    1    3    3    0  502  0.41091578861E+02  0.29335633005E+02  0.24409875827E+03  0.24930056840E+03  0.41800000000E+01 0.  1.
        -11    1    4    4    0    0 -0.36813138149E+02  0.15086316893E+02  0.16732597270E+02  0.43159980413E+02  0.00000000000E+00 0.  1.
         11    1    4    4    0    0 -0.39528223429E+02 -0.46104242447E+02  0.16422469685E+03  0.17509378252E+03  0.00000000000E+00 0. -1.
</event>
<event>
 8    1  0.4798744E-006  0.1276550E+03  0.7561462E-02  0.1230977E+00
          2   -1    0    0  501    0  0.00000000000E+00  0.00000000000E+00  0.41917339772E+03  0.41917339772E+03  0.00000000000E+00 0. -1.
         -2   -1    0    0    0  501 -0.00000000000E+00 -0.00000000000E+00 -0.50912336323E+02  0.50912336323E+02  0.00000000000E+00 0.  1.
         23    2    1    2    0    0  0.36532242825E+02 -0.74251614778E+02  0.11950475345E+03  0.18413471167E+03  0.11303229133E+03 0.  0.
         23    2    1    2    0    0 -0.36532242825E+02  0.74251614778E+02  0.24875630795E+03  0.28595102236E+03  0.11419448054E+03 0.  0.
          5    1    3    3  502    0  0.46393574570E+02 -0.87265854181E+02  0.13069034851E+03  0.16390586524E+03  0.41800000000E+01 0. -1.
         -5    1    3    3    0  502 -0.98613317453E+01  0.13014239403E+02 -0.11185595063E+02  0.20228846432E+02  0.41800000000E+01 0.  1.
        -11    1    4    4    0    0  0.28619621026E+02 -0.12343320370E+02  0.74362858735E+02  0.80630484463E+02  0.00000000000E+00 0.  1.
         11    1    4    4    0    0 -0.65151863850E+02  0.86594935148E+02  0.17439344921E+03  0.20532053790E+03  0.00000000000E+00 0. -1.
</event>
<event>
 8    1  0.4798744E-006  0.1140516E+03  0.7561462E-02  0.1253246E+00
         -2   -1    0    0    0  501 -0.00000000000E+00  0.00000000000E+00  0.30659132127E+02  0.30659132127E+02  0.00000000000E+00 0.  1.
          2   -1    0    0  501    0  0.00000000000E+00 -0.00000000000E+00 -0.47770143751E+03  0.47770143751E+03  0.00000000000E+00 0. -1.
         23    2    1    2    0    0 -0.43931961052E+02  0.16323689628E+01 -0.18860936318E+03  0.23055182604E+03  0.12509184938E+03 0.  0.
         23    2    1    2    0    0  0.43931961052E+02 -0.16323689628E+01 -0.25843294220E+03  0.27780874360E+03  0.91964289664E+02 0.  0.
          5    1    3    3  502    0  0.60612802711E+01 -0.52822498791E+02 -0.11178198743E+03  0.12385330279E+03  0.41800000000E+01 0.  1.
         -5    1    3    3    0  502 -0.49993241323E+02  0.54454867754E+02 -0.76827375753E+02  0.10669852326E+03  0.41800000000E+01 0.  1.
        -11    1    4    4    0    0 -0.70361136867E+01 -0.37660699346E+02 -0.11969837422E+03  0.12568029265E+03  0.00000000000E+00 0. -1.
         11    1    4    4    0    0  0.50968074738E+02  0.36028330383E+02 -0.13873456799E+03  0.15212845095E+03  0.00000000000E+00 0.  1.
</event>
<event>
 8    1  0.4798744E-006  0.9717459E+02  0.7561462E-02  0.1286352E+00
         -2   -1    0    0    0  501 -0.00000000000E+00  0.00000000000E+00  0.46160720754E+02  0.46160720754E+02  0.00000000000E+00 0.  1.
          2   -1    0    0  501    0  0.00000000000E+00 -0.00000000000E+00 -0.36346825564E+03  0.36346825564E+03  0.00000000000E+00 0. -1.
         23    2    1    2    0    0 -0.15360417508E+02  0.62411655674E+02 -0.13051136176E+03  0.19186463903E+03  0.12509063503E+03 0.  0.
         23    2    1    2    0    0  0.15360417508E+02 -0.62411655674E+02 -0.18679617312E+03  0.21776433736E+03  0.91636996576E+02 0.  0.
          5    1    3    3  502    0 -0.52351990488E+02  0.37379203829E+02 -0.12565793773E+02  0.65675774529E+02  0.41800000000E+01 0. -1.
         -5    1    3    3    0  502  0.36991572979E+02  0.25032451846E+02 -0.11794556798E+03  0.12618886450E+03  0.41800000000E+01 0. -1.
        -11    1    4    4    0    0  0.17800544095E+02  0.42653861551E+01  0.11357886341E+01  0.18339653894E+02  0.00000000000E+00 0.  1.
         11    1    4    4    0    0 -0.24401265863E+01 -0.66677041829E+02 -0.18793196176E+03  0.19942468346E+03  0.00000000000E+00 0. -1.
</event>
<event>
 8    1  0.4798744E-006  0.4123825E+03  0.7561462E-02  0.1039574E+00
         -2   -1    0    0    0  501 -0.00000000000E+00  0.00000000000E+00  0.48306150479E+03  0.48306150479E+03  0.00000000000E+00 0.  1.
          2   -1    0    0  501    0  0.00000000000E+00 -0.00000000000E+00 -0.36925426757E+03  0.36925426757E+03  0.00000000000E+00 0. -1.
         23    2    1    2    0    0  0.18484317638E+03 -0.35959531667E+03  0.33743135952E+01  0.42324285520E+03  0.12508931551E+03 0.  0.
         23    2    1    2    0    0 -0.18484317638E+03  0.35959531667E+03  0.11043292363E+03  0.42907291716E+03  0.91827806222E+02 0.  0.
          5    1    3    3  502    0  0.19609384398E+03 -0.31174284040E+03 -0.19574232116E+02  0.36883196330E+03  0.41800000000E+01 0.  1.
         -5    1    3    3    0  502 -0.11250667600E+02 -0.47852476272E+02  0.22948545712E+02  0.54410891898E+02  0.41800000000E+01 0.  1.
        -11    1    4    4    0    0 -0.11831800931E+02  0.59999243299E+02  0.47493644134E+02  0.77430917228E+02  0.00000000000E+00 0.  1.
         11    1    4    4    0    0 -0.17301137545E+03  0.29959607337E+03  0.62939279493E+02  0.35164199994E+03  0.00000000000E+00 0. -1.
</event>
<event>
 8    1  0.4798744E-006  0.3141063E+03  0.7561462E-02  0.1078394E+00
          1   -1    0    0  501    0  0.00000000000E+00  0.00000000000E+00  0.88663650667E+03  0.88663650667E+03  0.00000000000E+00 0. -1.
         -1   -1    0    0    0  501 -0.00000000000E+00 -0.00000000000E+00 -0.11772737460E+03  0.11772737460E+03  0.00000000000E+00 0.  1.
         23    2    1    2    0    0  0.90878946162E+02 -0.28195530334E+03  0.28945582801E+03  0.43265308087E+03  0.12508491547E+03 0.  0.
         23    2    1    2    0    0 -0.90878946162E+02  0.28195530334E+03  0.47945330406E+03  0.57171080041E+03  0.96020792525E+02 0.  0.
          5    1    3    3  502    0 -0.15688860540E+01 -0.17853044052E+03  0.12784580323E+03  0.21963060214E+03  0.41800000000E+01 0.  1.
         -5    1    3    3    0  502  0.92447832216E+02 -0.10342486282E+03  0.16161002478E+03  0.21302247872E+03  0.41800000000E+01 0.  1.
        -11    1    4    4    0    0 -0.87263433895E+02  0.11755904619E+03  0.24312327182E+03  0.28380268064E+03  0.00000000000E+00 0.  1.
         11    1    4    4    0    0 -0.36155122669E+01  0.16439625715E+03  0.23633003223E+03  0.28790811977E+03  0.00000000000E+00 0. -1.
</event>
<event>
 8    1  0.4798744E-006  0.1777081E+03  0.7561462E-02  0.1170040E+00
         -1   -1    0    0    0  501 -0.00000000000E+00  0.00000000000E+00  0.70818753490E+02  0.70818753490E+02  0.00000000000E+00 0.  1.
          1   -1    0    0  501    0  0.00000000000E+00 -0.00000000000E+00 -0.54979648839E+03  0.54979648839E+03  0.00000000000E+00 0. -1.
         23    2    1    2    0    0  0.15936740315E+03  0.29783748181E+02 -0.28970101646E+03  0.35476842282E+03  0.12509561962E+03 0.  0.
         23    2    1    2    0    0 -0.15936740315E+03 -0.29783748181E+02 -0.18927671844E+03  0.26584681906E+03  0.92540878632E+02 0.  0.
          5    1    3    3  502    0  0.54572780106E+02 -0.12230596633E+02 -0.15472043491E+02  0.58177593215E+02  0.41800000000E+01 0.  1.
         -5    1    3    3    0  502  0.10479462305E+03  0.42014344815E+02 -0.27422897297E+03  0.29659082960E+03  0.41800000000E+01 0.  1.
        -11    1    4    4    0    0 -0.14326970489E+03  0.98170116324E+01 -0.15228004564E+03  0.20931267128E+03  0.00000000000E+00 0.  1.
         11    1    4    4    0    0 -0.16097698258E+02 -0.39600759814E+02 -0.36996672793E+02  0.56534147776E+02  0.00000000000E+00 0. -1.
</event>
<event>
 8    1  0.4798744E-006  0.7725619E+02  0.7561462E-02  0.1337023E+00
          2   -1    0    0  501    0  0.00000000000E+00  0.00000000000E+00  0.22957561749E+02  0.22957561749E+02  0.00000000000E+00 0. -1.
         -2   -1    0    0    0  501 -0.00000000000E+00 -0.00000000000E+00 -0.61275235515E+03  0.61275235515E+03  0.00000000000E+00 0.  1.
         23    2    1    2    0    0  0.31573172469E+02  0.35993447761E+01 -0.43427520512E+03  0.45304800636E+03  0.12509085411E+03 0.  0.
         23    2    1    2    0    0 -0.31573172469E+02 -0.35993447761E+01 -0.15551958828E+03  0.18266191054E+03  0.90383686141E+02 0.  0.
          5    1    3    3  502    0 -0.13018554844E+02 -0.23326808756E+01  0.23700549999E+01  0.14071735180E+02  0.41800000000E+01 0. -1.
         -5    1    3    3    0  502  0.44591727313E+02  0.59320256517E+01 -0.43664526012E+03  0.43897627118E+03  0.41800000000E+01 0. -1.
        -11    1    4    4    0    0 -0.18681157160E+02  0.43122701443E+02 -0.68837649739E+02  0.83349715262E+02  0.00000000000E+00 0. -1.
         11    1    4    4    0    0 -0.12892015309E+02 -0.46722046219E+02 -0.86681938542E+02  0.99312195279E+02  0.00000000000E+00 0.  1.
</event>
<event>
 8    1  0.4798744E-006  0.3293895E+03  0.7561462E-02  0.1071407E+00
         -1   -1    0    0    0  501 -0.00000000000E+00  0.00000000000E+00  0.58333553035E+02  0.58333553035E+02  0.00000000000E+00 0.  1.
          1   -1    0    0  501    0  0.00000000000E+00 -0.00000000000E+00 -0.20343964661E+04  0.20343964661E+04  0.00000000000E+00 0. -1.
         23    2    1    2    0    0 -0.16549669441E+03  0.27279615983E+03 -0.12069426112E+04  0.12546574636E+04  0.12509189979E+03 0.  0.
         23    2    1    2    0    0  0.16549669441E+03 -0.27279615983E+03 -0.76912030188E+03  0.83807255561E+03  0.94935077987E+02 0.  0.
          5    1    3    3  502    0  0.13214531783E+02  0.14626538292E+01 -0.22602991336E+02  0.26554299535E+02  0.41800000000E+01 0. -1.
         -5    1    3    3    0  502 -0.17871122619E+03  0.27133350600E+03 -0.11843396199E+04  0.12281031640E+04  0.41800000000E+01 0. -1.
        -11    1    4    4    0    0  0.76992400614E+02 -0.10491940370E+03 -0.43234656139E+03  0.45150798461E+03  0.00000000000E+00 0. -1.
         11    1    4    4    0    0  0.88504293798E+02 -0.16787675613E+03 -0.33677374049E+03  0.38656457100E+03  0.00000000000E+00 0.  1.
</event>
<event>
 8    1  0.4798744E-006  0.6875452E+02  0.7561462E-02  0.1364380E+00
         -2   -1    0    0    0  501 -0.00000000000E+00  0.00000000000E+00  0.10214934548E+03  0.10214934548E+03  0.00000000000E+00 0.  1.
          2   -1    0    0  501    0  0.00000000000E+00 -0.00000000000E+00 -0.12238304160E+03  0.12238304160E+03  0.00000000000E+00 0. -1.
         23    2    1    2    0    0 -0.17340036269E+02 -0.12284926544E+02  0.79988555893E+01  0.12713659789E+03  0.12509251198E+03 0.  0.
         23    2    1    2    0    0  0.17340036269E+02  0.12284926544E+02 -0.28232551704E+02  0.97395789193E+02  0.90759387938E+02 0.  0.
          5    1    3    3  502    0 -0.25814389838E+02  0.18398980341E+02  0.58863234726E+02  0.66986998759E+02  0.41800000000E+01 0. -1.
         -5    1    3    3    0  502  0.84743535689E+01 -0.30683906885E+02 -0.50864379137E+02  0.60149599127E+02  0.41800000000E+01 0. -1.
        -11    1    4    4    0    0 -0.30121714185E+01  0.39405640075E+02 -0.44729669311E+02  0.59687695240E+02  0.00000000000E+00 0. -1.
         11    1    4    4    0    0  0.20352207688E+02 -0.27120713532E+02  0.16497117607E+02  0.37708093953E+02  0.00000000000E+00 0.  1.
</event>
<event>
 7    1  0.4798744E-006  0.8335218E+02  0.7561462E-02  0.1319799E+00
          1   -1    0    0  501    0  0.00000000000E+00  0.00000000000E+00  0.56530678298E+02  0.56530678298E+02  0.00000000000E+00 0. -1.
         -1   -1    0    0    0  501 -0.00000000000E+00 -0.00000000000E+00 -0.30972854232E+03  0.30972854232E+03  0.00000000000E+00 0.  1.
         23    2    1    2    0    0  0.45951988678E+02 -0.95817886178E+01 -0.11532035845E+03  0.16031320301E+03  0.10098585074E+03 0.  0.
          5    1    1    2  502    0 -0.19498293751E+02 -0.11522535177E+02  0.28196922523E+02  0.36407294816E+02  0.41800000000E+01 0. -1.
         -5    1    1    2    0  502 -0.26453694928E+02  0.21104323795E+02 -0.16607442809E+03  0.16953872279E+03  0.41800000000E+01 0.  1.
        -11    1    3    3    0    0 -0.23069115911E+02  0.23591693606E+02 -0.48616034148E+02  0.58756028562E+02  0.00000000000E+00 0.  1.
         11    1    3    3    0    0  0.69021104589E+02 -0.33173482224E+02 -0.66704324302E+02  0.10155717445E+03  0.00000000000E+00 0. -1.
</event>
<event>
 8    1  0.4798744E-006  0.1451272E+03  0.7561462E-02  0.1206592E+00
          2   -1    0    0  501    0  0.00000000000E+00  0.00000000000E+00  0.26091266775E+03  0.26091266775E+03  0.00000000000E+00 0. -1.
         -2   -1    0    0    0  501 -0.00000000000E+00 -0.00000000000E+00 -0.12994343296E+03  0.12994343296E+03  0.00000000000E+00 0.  1.
         23    2    1    2    0    0 -0.69903407817E+02 -0.83933808929E+02 -0.37377470219E+02  0.17022217412E+03  0.12508853896E+03 0.  0.
         23    2    1    2    0    0  0.69903407817E+02  0.83933808929E+02  0.16834670500E+03  0.22063392659E+03  0.91691579601E+02 0.  0.
          5    1    3    3  502    0  0.12839533722E+02 -0.78789378391E+02 -0.19275690702E+01  0.79961288734E+02  0.41800000000E+01 0.  1.
         -5    1    3    3    0  502 -0.82742941538E+02 -0.51444305376E+01 -0.35449901149E+02  0.90260885390E+02  0.41800000000E+01 0.  1.
        -11    1    4    4    0    0  0.29323346322E+02 -0.48206414515E+01  0.92138953200E+02  0.96812622733E+02  0.00000000000E+00 0. -1.
         11    1    4    4    0    0  0.40580061495E+02  0.88754450381E+02  0.76207751805E+02  0.12382130386E+03  0.00000000000E+00 0.  1.
</event>
<event>
 8    1  0.4798744E-006  0.1116189E+03  0.7561462E-02  0.1257601E+00
          1   -1    0    0  501    0  0.00000000000E+00  0.00000000000E+00  0.90065414363E+03  0.90065414363E+03  0.00000000000E+00 0.  1.
         -1   -1    0    0    0  501 -0.00000000000E+00 -0.00000000000E+00 -0.15997727349E+02  0.15997727349E+02  0.00000000000E+00 0. -1.
         23    2    1    2    0    0  0.19719520932E+01  0.48315932677E+02  0.50836197235E+03  0.52575447132E+03  0.12509017245E+03 0.  0.
         23    2    1    2    0    0 -0.19719520932E+01 -0.48315932677E+02  0.37629444393E+03  0.39089739966E+03  0.94153866500E+02 0.  0.
          5    1    3    3  502    0  0.59882159984E+02  0.35225159726E+02  0.20171608474E+03  0.21338588567E+03  0.41800000000E+01 0. -1.
         -5    1    3    3    0  502 -0.57910207891E+02  0.13090772951E+02  0.30664588761E+03  0.31236858565E+03  0.41800000000E+01 0. -1.
        -11    1    4    4    0    0  0.37259110474E+02 -0.38713155635E+02  0.29793674907E+03  0.30274288791E+03  0.00000000000E+00 0.  1.
         11    1    4    4    0    0 -0.39231062568E+02 -0.96027770414E+01  0.78357694863E+02  0.88154511747E+02  0.00000000000E+00 0. -1.
</event>
<event>
 8    1  0.4798744E-006  0.1153489E+03  0.7561462E-02  0.1250973E+00
          2   -1    0    0  501    0  0.00000000000E+00  0.00000000000E+00  0.58196701139E+03  0.58196701139E+03  0.00000000000E+00 0.  1.
         -2   -1    0    0    0  501 -0.00000000000E+00 -0.00000000000E+00 -0.26339796725E+02  0.26339796725E+02  0.00000000000E+00 0. -1.
         23    2    1    2    0    0  0.29476415085E+02  0.20369820757E+02  0.21926744717E+03  0.25496805578E+03  0.12508679961E+03 0.  0.
         23    2    1    2    0    0 -0.29476415085E+02 -0.20369820757E+02  0.33635976750E+03  0.35333875233E+03  0.10211068537E+03 0.  0.
          5    1    3    3  502    0 -0.46868412873E+02  0.25437781759E+02  0.89989720264E+02  0.10468691905E+03  0.41800000000E+01 0.  1.
         -5    1    3    3    0  502  0.76344827958E+02 -0.50679610017E+01  0.12927772691E+03  0.15028113674E+03  0.41800000000E+01 0.  1.
        -11    1    4    4    0    0 -0.32972151067E+02 -0.55888804578E+02  0.27311993015E+03  0.28072267003E+03  0.00000000000E+00 0. -1.
         11    1    4    4    0    0  0.34957359817E+01  0.35518983821E+02  0.63239837343E+02  0.72616082302E+02  0.00000000000E+00 0.  1.
</event>
<event>
 8    1  0.4798744E-006  0.9687644E+02  0.7561462E-02  0.1287005E+00
          2   -1    0    0  501    0  0.00000000000E+00  0.00000000000E+00  0.11655795812E+03  0.11655795812E+03  0.00000000000E+00 0. -1.
         -2   -1    0    0    0  501 -0.00000000000E+00 -0.00000000000E+00 -0.11088549999E+03  0.11088549999E+03  0.00000000000E+00 0.  1.
         23    2    1    2    0    0 -0.27028816821E+02  0.12755007013E+02 -0.13298872601E+02  0.12930019481E+03  0.12509369777E+03 0.  0.
         23    2    1    2    0    0  0.27028816821E+02 -0.12755007013E+02  0.18971330727E+02  0.98143263296E+02  0.91536558806E+02 0.  0.
          5    1    3    3  502    0 -0.12123421859E+02  0.52909486218E+02 -0.49106230404E+02  0.73316337565E+02  0.41800000000E+01 0. -1.
         -5    1    3    3    0  502 -0.14905394963E+02 -0.40154479205E+02  0.35807357802E+02  0.55983857245E+02  0.41800000000E+01 0. -1.
        -11    1    4    4    0    0  0.69879329914E+01 -0.51863385379E+02  0.11199027928E+02  0.53516914868E+02  0.00000000000E+00 0.  1.
         11    1    4    4    0    0  0.20040883830E+02  0.39108378366E+02  0.77723027994E+01  0.44626348427E+02  0.00000000000E+00 0. -1.
</event>
<event>
 8    1  0.4798744E-006  0.8809713E+02  0.7561462E-02  0.1307526E+00
         -3   -1    0    0    0  501 -0.00000000000E+00  0.00000000000E+00  0.15961561512E+03  0.15961561512E+03  0.00000000000E+00 0.  1.
          3   -1    0    0  501    0  0.00000000000E+00 -0.00000000000E+00 -0.94730085516E+02  0.94730085516E+02  0.00000000000E+00 0. -1.
         23    2    1    2    0    0 -0.15462725682E+02 -0.32443357895E+02  0.10125900764E+03  0.15390047205E+03  0.11018303550E+03 0.  0.
         23    2    1    2    0    0  0.15462725682E+02  0.32443357895E+02 -0.36373478040E+02  0.10044522858E+03  0.86455460690E+02 0.  0.
          5    1    3    3  502    0  0.26959259320E+02 -0.35749655467E+02  0.10844391573E+01  0.44983196167E+02  0.41800000000E+01 0. -1.
         -5    1    3    3    0  502 -0.42421985001E+02  0.33062975725E+01  0.10017456849E+03  0.10891727589E+03  0.41800000000E+01 0.  1.
        -11    1    4    4    0    0  0.44722768349E+01 -0.27329906985E+02  0.32661763186E+01  0.27885354286E+02  0.00000000000E+00 0.  1.
         11    1    4    4    0    0  0.10990448847E+02  0.59773264880E+02 -0.39639654359E+02  0.72559874296E+02  0.00000000000E+00 0. -1.
</event>
<event>
 8    1  0.4798744E-006  0.1496934E+03  0.7561462E-02  0.1200850E+00
         -2   -1    0    0    0  501 -0.00000000000E+00  0.00000000000E+00  0.74260193944E+02  0.74260193944E+02  0.00000000000E+00 0. -1.
          2   -1    0    0  501    0  0.00000000000E+00 -0.00000000000E+00 -0.57676890933E+03  0.57676890933E+03  0.00000000000E+00 0.  1.
         23    2    1    2    0    0 -0.59465848450E+02 -0.12308367952E+03 -0.99575684133E+02  0.21036127759E+03  0.12510304131E+03 0.  0.
         23    2    1    2    0    0  0.59465848450E+02  0.12308367952E+03 -0.40293303126E+03  0.44066782568E+03  0.11466178796E+03 0.  0.
          5    1    3    3  502    0 -0.72125185785E+02 -0.12282209497E+03 -0.38161724951E+02  0.14751643667E+03  0.41800000000E+01 0. -1.
         -5    1    3    3    0  502  0.12659337336E+02 -0.26158455253E+00 -0.61413959181E+02  0.62844840923E+02  0.41800000000E+01 0. -1.
        -11    1    4    4    0    0  0.46407752997E+02  0.45882453811E+02 -0.32010520225E+03  0.32668979111E+03  0.00000000000E+00 0.  1.
         11    1    4    4    0    0  0.13058095452E+02  0.77201225710E+02 -0.82827829007E+02  0.11397803458E+03  0.00000000000E+00 0. -1.
</event>
<event>
 8    1  0.4798744E-006  0.9813369E+02  0.7561462E-02  0.1284270E+00
         -2   -1    0    0    0  501 -0.00000000000E+00  0.00000000000E+00  0.18111824388E+02  0.18111824388E+02  0.00000000000E+00 0.  1.
          2   -1    0    0  501    0  0.00000000000E+00 -0.00000000000E+00 -0.10435736338E+04  0.10435736338E+04  0.00000000000E+00 0. -1.
         23    2    1    2    0    0  0.23100207181E+02  0.68431249882E+02 -0.40132328162E+03  0.42652588380E+03  0.12508995823E+03 0.  0.
         23    2    1    2    0    0 -0.23100207181E+02 -0.68431249882E+02 -0.62413852778E+03  0.63515957437E+03  0.93071625787E+02 0.  0.
          5    1    3    3  502    0  0.29437102738E+02  0.62154207039E+02 -0.82226139712E+02  0.10727673989E+03  0.41800000000E+01 0.  1.
         -5    1    3    3    0  502 -0.63368955573E+01  0.62770428428E+01 -0.31909714191E+03  0.31924914391E+03  0.41800000000E+01 0.  1.
        -11    1    4    4    0    0 -0.59009942395E+02 -0.35959292619E+02 -0.34478129449E+03  0.35163814506E+03  0.00000000000E+00 0.  1.
         11    1    4    4    0    0  0.35909735214E+02 -0.32471957263E+02 -0.27935723329E+03  0.28352142932E+03  0.00000000000E+00 0. -1.
</event>
<event>
 8    1  0.4798744E-006  0.1210798E+03  0.7561462E-02  0.1241326E+00
          2   -1    0    0  501    0  0.00000000000E+00  0.00000000000E+00  0.27360657815E+03  0.27360657815E+03  0.00000000000E+00 0. -1.
         -2   -1    0    0    0  501 -0.00000000000E+00 -0.00000000000E+00 -0.58474304983E+02  0.58474304983E+02  0.00000000000E+00 0.  1.
         23    2    1    2    0    0  0.16776815689E+02 -0.64306071127E+02  0.91516029266E+02  0.16864128652E+03  0.12509183657E+03 0.  0.
         23    2    1    2    0    0 -0.16776815689E+02  0.64306071127E+02  0.12361624390E+03  0.16343959661E+03  0.83754365000E+02 0.  0.
          5    1    3    3  502    0 -0.45213584276E+02 -0.58180303545E+02  0.26271724877E+02  0.78338316625E+02  0.41800000000E+01 0.  1.
         -5    1    3    3    0  502  0.61990399965E+02 -0.61257675825E+01  0.65244304389E+02  0.90302969893E+02  0.41800000000E+01 0.  1.
        -11    1    4    4    0    0 -0.50473944145E+02  0.38306134825E+02  0.84620285619E+02  0.10571457677E+03  0.00000000000E+00 0. -1.
         11    1    4    4    0    0  0.33697128456E+02  0.25999936302E+02  0.38995958278E+02  0.57725019843E+02  0.00000000000E+00 0.  1.
</event>
<event>
 8    1  0.4798744E-006  0.1771703E+03  0.7561462E-02  0.1170570E+00
         -1   -1    0    0    0  501 -0.00000000000E+00  0.00000000000E+00  0.15140991878E+03  0.15140991878E+03  0.00000000000E+00 0.  1.
          1   -1    0    0  501    0  0.00000000000E+00 -0.00000000000E+00 -0.26968121608E+03  0.26968121608E+03  0.00000000000E+00 0. -1.
         23    2    1    2    0    0  0.16006813907E+03  0.65219414161E+01 -0.24952885014E+01  0.20326910576E+03  0.12509099898E+03 0.  0.
         23    2    1    2    0    0 -0.16006813907E+03 -0.65219414161E+01 -0.11577600880E+03  0.21782202910E+03  0.91531455147E+02 0.  0.
          5    1    3    3  502    0  0.97404542074E+02 -0.30995093952E+02  0.49371073978E+02  0.11359276390E+03  0.41800000000E+01 0. -1.
         -5    1    3    3    0  502  0.62663596998E+02  0.37517035369E+02 -0.51866362479E+02  0.89676341854E+02  0.41800000000E+01 0. -1.
        -11    1    4    4    0    0 -0.29294904119E+02  0.31180083018E+02 -0.64838316405E+01  0.43271573314E+02  0.00000000000E+00 0.  1.
         11    1    4    4    0    0 -0.13077323495E+03 -0.37702024434E+02 -0.10929217716E+03  0.17455045578E+03  0.00000000000E+00 0. -1.
</event>
<event>
 8    1  0.4798744E-006  0.7738981E+02  0.7561462E-02  0.1336626E+00
         -2   -1    0    0    0  501 -0.00000000000E+00  0.00000000000E+00  0.51398280477E+02  0.51398280477E+02  0.00000000000E+00 0.  1.
          2   -1    0    0  501    0  0.00000000000E+00 -0.00000000000E+00 -0.28900835864E+03  0.28900835864E+03  0.00000000000E+00 0. -1.
         23    2    1    2    0    0  0.46829303477E+02 -0.18102321206E+01 -0.93187487377E+02  0.16287196852E+03  0.12508840762E+03 0.  0.
         23    2    1    2    0    0 -0.46829303477E+02  0.18102321206E+01 -0.14442259079E+03  0.17753467060E+03  0.92002249594E+02 0.  0.
          5    1    3    3  502    0 -0.88874225102E+01 -0.27113507804E+02 -0.97217061212E+02  0.10140393471E+03  0.41800000000E+01 0. -1.
         -5    1    3    3    0  502  0.55716725987E+02  0.25303275684E+02  0.40295738350E+01  0.61468033809E+02  0.41800000000E+01 0. -1.
        -11    1    4    4    0    0 -0.37273089294E+02  0.21278431974E+02 -0.14926550361E+03  0.15531337811E+03  0.00000000000E+00 0. -1.
         11    1    4    4    0    0 -0.95562141833E+01 -0.19468199854E+02  0.48429128240E+01  0.22221292485E+02  0.00000000000E+00 0.  1.
</event>
<event>
 8    1  0.4798744E-006  0.9117709E+02  0.7561462E-02  0.1300026E+00
         -2   -1    0    0    0  501 -0.00000000000E+00  0.00000000000E+00  0.76198510037E+02  0.76198510037E+02  0.00000000000E+00 0.  1.
          2   -1    0    0  501    0  0.00000000000E+00 -0.00000000000E+00 -0.29084585797E+03  0.29084585797E+03  0.00000000000E+00 0. -1.
         23    2    1    2    0    0 -0.56663704165E+02 -0.45818747264E+02 -0.29742997240E+02  0.14779068915E+03  0.12508920395E+03 0.  0.
         23    2    1    2    0    0  0.56663704165E+02  0.45818747264E+02 -0.18490435069E+03  0.21925367885E+03  0.92587384755E+02 0.  0.
          5    1    3    3  502    0 -0.43821395287E+02 -0.44432314702E+02 -0.76666123344E+02  0.98942974199E+02  0.41800000000E+01 0.  1.
         -5    1    3    3    0  502 -0.12842308878E+02 -0.13864325613E+01  0.46923126105E+02  0.48847714952E+02  0.41800000000E+01 0.  1.
        -11    1    4    4    0    0  0.47011629759E+02 -0.11261016310E+02 -0.38434021072E+02  0.61758220479E+02  0.00000000000E+00 0.  1.
         11    1    4    4    0    0  0.96520744059E+01  0.57079763574E+02 -0.14647032962E+03  0.15749545838E+03  0.00000000000E+00 0. -1.
</event>
<event>
 8    1  0.4798744E-006  0.1286602E+03  0.7561462E-02  0.1229457E+00
         -2   -1    0    0    0  501 -0.00000000000E+00  0.00000000000E+00  0.59347891806E+02  0.59347891806E+02  0.00000000000E+00 0.  1.
          2   -1    0    0  501    0  0.00000000000E+00 -0.00000000000E+00 -0.43833383976E+03  0.43833383976E+03  0.00000000000E+00 0. -1.
         23    2    1    2    0    0 -0.84589368594E+02 -0.26207625589E+02 -0.80639987170E+02  0.17318108768E+03  0.12508669266E+03 0.  0.
         23    2    1    2    0    0  0.84589368594E+02  0.26207625589E+02 -0.29834596078E+03  0.32450064389E+03  0.91913843625E+02 0.  0.
          5    1    3    3  502    0 -0.37778318163E+02  0.39114675991E+02  0.60775343032E+01  0.54877755277E+02  0.41800000000E+01 0.  1.
         -5    1    3    3    0  502 -0.46811050432E+02 -0.65322301580E+02 -0.86717521473E+02  0.11830333240E+03  0.41800000000E+01 0.  1.
        -11    1    4    4    0    0  0.79697244663E+02 -0.14757456207E+02 -0.23781077195E+03  0.25124369957E+03  0.00000000000E+00 0. -1.
         11    1    4    4    0    0  0.48921239310E+01  0.40965081796E+02 -0.60535188839E+02  0.73256944318E+02  0.00000000000E+00 0.  1.
</event>
<event>
 8    1  0.4798744E-006  0.1175838E+03  0.7561462E-02  0.1247137E+00
          1   -1    0    0  501    0  0.00000000000E+00  0.00000000000E+00  0.22318977571E+03  0.22318977571E+03  0.00000000000E+00 0. -1.
         -1   -1    0    0    0  501 -0.00000000000E+00 -0.00000000000E+00 -0.78201735584E+02  0.78201735584E+02  0.00000000000E+00 0.  1.
         23    2    1    2    0    0  0.51685181611E+02 -0.56155756733E+02  0.83687528425E+02  0.16874460396E+03  0.12508521871E+03 0.  0.
         23    2    1    2    0    0 -0.51685181611E+02  0.56155756733E+02  0.61300511698E+02  0.13264690733E+03  0.89513251960E+02 0.  0.
          5    1    3    3  502    0 -0.40722326011E+02 -0.85395427878E+01  0.31479872084E+02  0.52342013461E+02  0.41800000000E+01 0.  1.
         -5    1    3    3    0  502  0.92407507621E+02 -0.47616213945E+02  0.52207656341E+02  0.11640259050E+03  0.41800000000E+01 0.  1.
        -11    1    4    4    0    0 -0.34666049698E+02  0.45391467465E+01 -0.15758591896E+02  0.38349342542E+02  0.00000000000E+00 0.  1.
         11    1    4    4    0    0 -0.17019131913E+02  0.51616609986E+02  0.77059103594E+02  0.94297564784E+02  0.00000000000E+00 0. -1.
</event>
<event>
 8    1  0.4798744E-006  0.8451694E+02  0.7561462E-02  0.1316701E+00
         -2   -1    0    0    0  501 -0.00000000000E+00  0.00000000000E+00  0.54457075865E+02  0.54457075865E+02  0.00000000000E+00 0.  1.
          2   -1    0    0  501    0  0.00000000000E+00 -0.00000000000E+00 -0.23049342742E+03  0.23049342742E+03  0.00000000000E+00 0. -1.
         23    2    1    2    0    0  0.24485076714E+02  0.15932288631E+02 -0.90601269670E+02  0.15719202311E+03  0.12508950899E+03 0.  0.
         23    2    1    2    0    0 -0.24485076714E+02 -0.15932288631E+02 -0.85435081888E+02  0.12775848018E+03  0.90386499201E+02 0.  0.
          5    1    3    3  502    0  0.74531083163E+02 -0.78903280310E+00 -0.43898349853E+02  0.86602785463E+02  0.41800000000E+01 0. -1.
         -5    1    3    3    0  502 -0.50046006448E+02  0.16721321434E+02 -0.46702919817E+02  0.70589237646E+02  0.41800000000E+01 0. -1.
        -11    1    4    4    0    0 -0.14346136309E+02  0.73041339009E+01  0.16301477723E+02  0.22910700011E+02  0.00000000000E+00 0.  1.
         11    1    4    4    0    0 -0.10138940405E+02 -0.23236422532E+02 -0.10173655961E+03  0.10484778017E+03  0.00000000000E+00 0. -1.
</event>
<event>
 8    1  0.4798744E-006  0.1069015E+03  0.7561462E-02  0.1266418E+00
         -1   -1    0    0    0  501 -0.00000000000E+00  0.00000000000E+00  0.75196215981E+03  0.75196215981E+03  0.00000000000E+00 0.  1.
          1   -1    0    0  501    0  0.00000000000E+00 -0.00000000000E+00 -0.61068739445E+02  0.61068739445E+02  0.00000000000E+00 0. -1.
         23    2    1    2    0    0  0.30147589440E+02  0.16213418053E+02  0.70647586349E+03  0.71704772738E+03  0.11780299476E+03 0.  0.
         23    2    1    2    0    0 -0.30147589440E+02 -0.16213418053E+02 -0.15582443119E+02  0.95983171879E+02  0.88307444060E+02 0.  0.
          5    1    3    3  502    0  0.64218768875E+02 -0.23168599653E+02  0.46345329022E+03  0.46847332784E+03  0.41800000000E+01 0. -1.
         -5    1    3    3    0  502 -0.34071179435E+02  0.39382017706E+02  0.24302257327E+03  0.24857439954E+03  0.41800000000E+01 0.  1.
        -11    1    4    4    0    0  0.60523515265E+01  0.32170760532E+02  0.27117843227E+01  0.32847261171E+02  0.00000000000E+00 0.  1.
         11    1    4    4    0    0 -0.36199940966E+02 -0.48384178585E+02 -0.18294227441E+02  0.63135910709E+02  0.00000000000E+00 0. -1.
</event>
<event>
 8    1  0.4798744E-006  0.8686708E+02  0.7561462E-02  0.1310621E+00
          2   -1    0    0  501    0  0.00000000000E+00  0.00000000000E+00  0.40440011679E+03  0.40440011679E+03  0.00000000000E+00 0. -1.
         -2   -1    0    0    0  501 -0.00000000000E+00 -0.00000000000E+00 -0.42667038041E+02  0.42667038041E+02  0.00000000000E+00 0.  1.
         23    2    1    2    0    0 -0.70794459339E+02  0.13040476668E+02  0.15758053001E+03  0.21368361879E+03  0.12508859258E+03 0.  0.
         23    2    1    2    0    0  0.70794459339E+02 -0.13040476668E+02  0.20415254873E+03  0.23338353604E+03  0.87222143032E+02 0.  0.
          5    1    3    3  502    0 -0.75338868716E+02 -0.11343617417E+02  0.27365699666E+02  0.81061561259E+02  0.41800000000E+01 0.  1.
         -5    1    3    3    0  502  0.45444093778E+01  0.24384094085E+02  0.13021483035E+03  0.13262205753E+03  0.41800000000E+01 0.  1.
        -11    1    4    4    0    0  0.21839899928E+02 -0.99209023072E+00 -0.12365656408E+01  0.21897364373E+02  0.00000000000E+00 0.  1.
         11    1    4    4    0    0  0.48954559411E+02 -0.12048386437E+02  0.20538911437E+03  0.21148617167E+03  0.00000000000E+00 0. -1.
</event>
<event>
 8    1  0.4798744E-006  0.9373291E+02  0.7561462E-02  0.1294056E+00
         -2   -1    0    0    0  501 -0.00000000000E+00  0.00000000000E+00  0.16885954620E+02  0.16885954620E+02  0.00000000000E+00 0.  1.
          2   -1    0    0  501    0  0.00000000000E+00 -0.00000000000E+00 -0.78702587161E+03  0.78702587161E+03  0.00000000000E+00 0. -1.
         23    2    1    2    0    0  0.12542666475E+02 -0.18130824215E+02 -0.38586426856E+03  0.40623261098E+03  0.12509058799E+03 0.  0.
         23    2    1    2    0    0 -0.12542666475E+02  0.18130824215E+02 -0.38427564843E+03  0.39767921525E+03  0.99974691771E+02 0.  0.
          5    1    3    3  502    0  0.39731715150E+02  0.14598324954E+02 -0.42192276399E+02  0.59911441878E+02  0.41800000000E+01 0.  1.
         -5    1    3    3    0  502 -0.27189048675E+02 -0.32729149170E+02 -0.34367199216E+03  0.34632116910E+03  0.41800000000E+01 0.  1.
        -11    1    4    4    0    0 -0.45581404389E+02 -0.21653279744E+02 -0.20220373533E+03  0.20840556502E+03  0.00000000000E+00 0.  1.
         11    1    4    4    0    0  0.33038737914E+02  0.39784103959E+02 -0.18207191310E+03  0.18927365022E+03  0.00000000000E+00 0. -1.
</event>
<event>
 8    1  0.4798744E-006  0.1011083E+03  0.7561462E-02  0.1277982E+00
          4   -1    0    0  501    0  0.00000000000E+00  0.00000000000E+00  0.10050301072E+03  0.10050301072E+03  0.00000000000E+00 0. -1.
         -4   -1    0    0    0  501 -0.00000000000E+00 -0.00000000000E+00 -0.19773091743E+03  0.19773091743E+03  0.00000000000E+00 0.  1.
         23    2    1    2    0    0  0.28068902437E+02  0.23191744415E+02 -0.13796935406E+03  0.18973511526E+03  0.12505259296E+03 0.  0.
         23    2    1    2    0    0 -0.28068902437E+02 -0.23191744415E+02  0.40741447358E+02  0.10849881289E+03  0.93735833990E+02 0.  0.
          5    1    3    3  502    0  0.17946224745E+02 -0.48559965539E+02 -0.85994707408E+02  0.10046242749E+03  0.41800000000E+01 0. -1.
         -5    1    3    3    0  502  0.10122677692E+02  0.71751709955E+02 -0.51974646656E+02  0.89272687761E+02  0.41800000000E+01 0. -1.
        -11    1    4    4    0    0 -0.24663828378E+02  0.21593522953E+02  0.52660286139E+02  0.62029754151E+02  0.00000000000E+00 0. -1.
         11    1    4    4    0    0 -0.34050740592E+01 -0.44785267369E+02 -0.11918838781E+02  0.46469058744E+02  0.00000000000E+00 0.  1.
</event>
<event>
 8    1  0.4798744E-006  0.1019232E+03  0.7561462E-02  0.1276303E+00
          1   -1    0    0  501    0  0.00000000000E+00  0.00000000000E+00  0.44512608910E+02  0.44512608910E+02  0.00000000000E+00 0. -1.
         -1   -1    0    0    0  501 -0.00000000000E+00 -0.00000000000E+00 -0.37786515208E+03  0.37786515208E+03  0.00000000000E+00 0.  1.
         23    2    1    2    0    0 -0.47691083323E+02 -0.31136528153E+02 -0.25765682215E+03  0.29202212924E+03  0.12508382448E+03 0.  0.
         23    2    1    2    0    0  0.47691083323E+02  0.31136528153E+02 -0.75695721014E+02  0.13035563175E+03  0.89547896322E+02 0.  0.
          5    1    3    3  502    0  0.19236612674E+02  0.79521104607E+01 -0.18332908350E+03  0.18455435131E+03  0.41800000000E+01 0. -1.
         -5    1    3    3    0  502 -0.66927695998E+02 -0.39088638614E+02 -0.74327738650E+02  0.10746777793E+03  0.41800000000E+01 0. -1.
        -11    1    4    4    0    0  0.15496136989E+02 -0.31200264495E+02 -0.16440356506E+02  0.38521060320E+02  0.00000000000E+00 0. -1.
         11    1    4    4    0    0  0.32194946335E+02  0.62336792648E+02 -0.59255364508E+02  0.91834571432E+02  0.00000000000E+00 0.  1.
</event>
<event>
 8    1  0.4798744E-006  0.1309697E+03  0.7561462E-02  0.1226024E+00
          1   -1    0    0  501    0  0.00000000000E+00  0.00000000000E+00  0.48506369226E+03  0.48506369226E+03  0.00000000000E+00 0. -1.
         -1   -1    0    0    0  501 -0.00000000000E+00 -0.00000000000E+00 -0.63338148332E+02  0.63338148332E+02  0.00000000000E+00 0.  1.
         23    2    1    2    0    0  0.49950337843E+02 -0.10017277567E+03  0.97891664458E+02  0.19431938898E+03  0.12509047016E+03 0.  0.
         23    2    1    2    0    0 -0.49950337843E+02  0.10017277567E+03  0.32383387947E+03  0.35408245161E+03  0.89310580628E+02 0.  0.
          5    1    3    3  502    0 -0.19797047283E+02 -0.41817375378E+02  0.92035724337E+02  0.10309540688E+03  0.41800000000E+01 0. -1.
         -5    1    3    3    0  502  0.69747385125E+02 -0.58355400296E+02  0.58559401211E+01  0.91223982100E+02  0.41800000000E+01 0. -1.
        -11    1    4    4    0    0  0.22568987339E+01  0.56043831421E+02  0.62597817456E+02  0.84050528746E+02  0.00000000000E+00 0.  1.
         11    1    4    4    0    0 -0.52207236577E+02  0.44128944254E+02  0.26123606201E+03  0.27003192287E+03  0.00000000000E+00 0. -1.
</event>
<event>
 8    1  0.4798744E-006  0.9990072E+02  0.7561462E-02  0.1280505E+00
         -3   -1    0    0    0  501 -0.00000000000E+00  0.00000000000E+00  0.23622368549E+03  0.23622368549E+03  0.00000000000E+00 0.  1.
          3   -1    0    0  501    0  0.00000000000E+00 -0.00000000000E+00 -0.98236057981E+02  0.98236057981E+02  0.00000000000E+00 0. -1.
         23    2    1    2    0    0  0.56336997198E+02 -0.23628105823E+02  0.17312848158E+03  0.22215354313E+03  0.12508629402E+03 0.  0.
         23    2    1    2    0    0 -0.56336997198E+02  0.23628105823E+02 -0.35140854077E+02  0.11230620034E+03  0.87439455458E+02 0.  0.
          5    1    3    3  502    0  0.66553444866E+02 -0.60470213332E+02  0.76436268110E+02  0.11809311244E+03  0.41800000000E+01 0.  1.
         -5    1    3    3    0  502 -0.10216447669E+02  0.36842107509E+02  0.96692213471E+02  0.10406043069E+03  0.41800000000E+01 0.  1.
        -11    1    4    4    0    0 -0.27907046582E+02  0.31240919422E+02  0.22526147906E+02  0.47562859826E+02  0.00000000000E+00 0.  1.
         11    1    4    4    0    0 -0.28429950615E+02 -0.76128135998E+01 -0.57667001983E+02  0.64743340511E+02  0.00000000000E+00 0. -1.
</event>
<event>
 8    1  0.4798744E-006  0.1316272E+03  0.7561462E-02  0.1225061E+00
         -1   -1    0    0    0  501 -0.00000000000E+00  0.00000000000E+00  0.18551433869E+04  0.18551433869E+04  0.00000000000E+00 0.  1.
          1   -1    0    0  501    0  0.00000000000E+00 -0.00000000000E+00 -0.14312225037E+02  0.14312225037E+02  0.00000000000E+00 0. -1.
         23    2    1    2    0    0 -0.16529474953E+02 -0.77347079115E+02  0.15194068641E+04  0.15265977283E+04  0.12509041150E+03 0.  0.
         23    2    1    2    0    0  0.16529474953E+02  0.77347079115E+02  0.32142429776E+03  0.34285788367E+03  0.89342906939E+02 0.  0.
          5    1    3    3  502    0 -0.30084241348E+02  0.27216672972E+02  0.32766085613E+03  0.33018921530E+03  0.41800000000E+01 0. -1.
         -5    1    3    3    0  502  0.13554766396E+02 -0.10456375209E+03  0.11917460080E+04  0.11964085129E+04  0.41800000000E+01 0. -1.
        -11    1    4    4    0    0 -0.17486499939E+02  0.80881803184E+02  0.19372698497E+03  0.21066036284E+03  0.00000000000E+00 0. -1.
         11    1    4    4    0    0  0.34015974891E+02 -0.35347240694E+01  0.12769731279E+03  0.13219752084E+03  0.00000000000E+00 0.  1.
</event>
<event>
 8    1  0.4798744E-006  0.1069407E+03  0.7561462E-02  0.1266342E+00
          2   -1    0    0  501    0  0.00000000000E+00  0.00000000000E+00  0.33348942107E+03  0.33348942107E+03  0.00000000000E+00 0. -1.
         -2   -1    0    0    0  501 -0.00000000000E+00 -0.00000000000E+00 -0.48943038270E+02  0.48943038270E+02  0.00000000000E+00 0.  1.
         23    2    1    2    0    0 -0.35587842858E+01 -0.11386776554E+02  0.60855877350E+02  0.13961716722E+03  0.12508873630E+03 0.  0.
         23    2    1    2    0    0  0.35587842858E+01  0.11386776554E+02  0.22369050545E+03  0.24281529212E+03  0.93698987360E+02 0.  0.
          5    1    3    3  502    0  0.29074250819E+02  0.47619985098E+02  0.14869942967E+02  0.57892682139E+02  0.41800000000E+01 0. -1.
         -5    1    3    3    0  502 -0.32633035104E+02 -0.59006761652E+02  0.45985934383E+02  0.81724485082E+02  0.41800000000E+01 0. -1.
        -11    1    4    4    0    0  0.12024389880E+02  0.49700541802E+02  0.90294273686E+02  0.10376794143E+03  0.00000000000E+00 0. -1.
         11    1    4    4    0    0 -0.84656055944E+01 -0.38313765248E+02  0.13339623176E+03  0.13904735069E+03  0.00000000000E+00 0.  1.
</event>
<event>
 8    1  0.4798744E-006  0.1094879E+03  0.7561462E-02  0.1261521E+00
         -2   -1    0    0    0  501 -0.00000000000E+00  0.00000000000E+00  0.16081749174E+02  0.16081749174E+02  0.00000000000E+00 0.  1.
          2   -1    0    0  501    0  0.00000000000E+00 -0.00000000000E+00 -0.89728700639E+03  0.89728700639E+03  0.00000000000E+00 0. -1.
         23    2    1    2    0    0  0.39007482394E+02  0.26982369512E+02 -0.49171224192E+03  0.50958657678E+03  0.12509164015E+03 0.  0.
         23    2    1    2    0    0 -0.39007482394E+02 -0.26982369512E+02 -0.38949301530E+03  0.40378217878E+03  0.95318450415E+02 0.  0.
          5    1    3    3  502    0  0.14213502169E+02  0.68266948798E+02 -0.16298821966E+03  0.17732747134E+03  0.41800000000E+01 0.  1.
         -5    1    3    3    0  502  0.24793980225E+02 -0.41284579286E+02 -0.32872402225E+03  0.33225910544E+03  0.41800000000E+01 0.  1.
        -11    1    4    4    0    0  0.17307535038E+02  0.20706102422E+02 -0.55233427212E+02  0.61473774312E+02  0.00000000000E+00 0.  1.
         11    1    4    4    0    0 -0.56315017432E+02 -0.47688471934E+02 -0.33425958808E+03  0.34230840447E+03  0.00000000000E+00 0. -1.
</event>
<event>
 8    1  0.4798744E-006  0.1978066E+03  0.7561462E-02  0.1151603E+00
          3   -1    0    0  501    0  0.00000000000E+00  0.00000000000E+00  0.38548230442E+03  0.38548230442E+03  0.00000000000E+00 0. -1.
         -3   -1    0    0    0  501 -0.00000000000E+00 -0.00000000000E+00 -0.13059509374E+03  0.13059509374E+03  0.00000000000E+00 0.  1.
         23    2    1    2    0    0 -0.12615924342E+03 -0.13134502854E+03  0.47537743506E+02  0.22599828759E+03  0.12509083784E+03 0.  0.
         23    2    1    2    0    0  0.12615924342E+03  0.13134502854E+03  0.20734946717E+03  0.29007911057E+03  0.89355568531E+02 0.  0.
          5    1    3    3  502    0 -0.12960663869E+03 -0.89688884294E+02  0.76227656449E+02  0.17512882335E+03  0.41800000000E+01 0. -1.
         -5    1    3    3    0  502  0.34473952710E+01 -0.41656144245E+02 -0.28689912942E+02  0.50869464241E+02  0.41800000000E+01 0. -1.
        -11    1    4    4    0    0  0.11518146557E+03  0.72549279677E+02  0.17615174409E+03  0.22261986646E+03  0.00000000000E+00 0. -1.
         11    1    4    4    0    0  0.10977777847E+02  0.58795748862E+02  0.31197723079E+02  0.67459244111E+02  0.00000000000E+00 0.  1.
</event>
<event>
 8    1  0.4798744E-006  0.1188332E+03  0.7561462E-02  0.1245034E+00
          2   -1    0    0  501    0  0.00000000000E+00  0.00000000000E+00  0.70444970426E+03  0.70444970426E+03  0.00000000000E+00 0. -1.
         -2   -1    0    0    0  501 -0.00000000000E+00 -0.00000000000E+00 -0.23117098726E+02  0.23117098726E+02  0.00000000000E+00 0.  1.
         23    2    1    2    0    0 -0.42682341896E+02  0.29579803741E+02  0.26079501133E+03  0.29386724455E+03  0.12508865809E+03 0.  0.
         23    2    1    2    0    0  0.42682341896E+02 -0.29579803741E+02  0.42053759421E+03  0.43369955844E+03  0.92448319374E+02 0.  0.
          5    1    3    3  502    0 -0.23086290395E+02 -0.48262202406E+02  0.84301100789E+02  0.99931801642E+02  0.41800000000E+01 0. -1.
         -5    1    3    3    0  502 -0.19596051501E+02  0.77842006148E+02  0.17649391054E+03  0.19393544290E+03  0.41800000000E+01 0. -1.
        -11    1    4    4    0    0 -0.10434425221E+02 -0.46672834491E+02  0.24066243183E+03  0.24536836961E+03  0.00000000000E+00 0.  1.
         11    1    4    4    0    0  0.53116767117E+02  0.17093030749E+02  0.17987516237E+03  0.18833118884E+03  0.00000000000E+00 0. -1.
</event>
<event>
 8    1  0.4798744E-006  0.6586892E+02  0.7561462E-02  0.1374732E+00
          2   -1    0    0  501    0  0.00000000000E+00  0.00000000000E+00  0.28290428957E+03  0.28290428957E+03  0.00000000000E+00 0. -1.
         -2   -1    0    0    0  501 -0.00000000000E+00 -0.00000000000E+00 -0.65537609145E+02  0.65537609145E+02  0.00000000000E+00 0.  1.
         23    2    1    2    0    0  0.22177560241E+01 -0.31577854340E+02  0.98569234157E+01  0.11801360264E+03  0.11326063809E+03 0.  0.
         23    2    1    2    0    0 -0.22177560241E+01  0.31577854340E+02  0.20750975701E+03  0.23042829608E+03  0.95051675701E+02 0.  0.
          5    1    3    3  502    0 -0.13174709592E+01 -0.34833506693E+02  0.58894075254E+02  0.68564520112E+02  0.41800000000E+01 0. -1.
         -5    1    3    3    0  502  0.35352269832E+01  0.32556523533E+01 -0.49037151838E+02  0.49449082524E+02  0.41800000000E+01 0.  1.
        -11    1    4    4    0    0 -0.61423413518E+01 -0.28955505832E+02  0.12230614884E+03  0.12583697279E+03  0.00000000000E+00 0.  1.
         11    1    4    4    0    0  0.39245853278E+01  0.60533360172E+02  0.85203608169E+02  0.10459132330E+03  0.00000000000E+00 0. -1.
</event>
<event>
 8    1  0.4798744E-006  0.8352564E+02  0.7561462E-02  0.1319334E+00
         -2   -1    0    0    0  501 -0.00000000000E+00  0.00000000000E+00  0.24840747096E+02  0.24840747096E+02  0.00000000000E+00 0.  1.
          2   -1    0    0  501    0  0.00000000000E+00 -0.00000000000E+00 -0.53292342695E+03  0.53292342695E+03  0.00000000000E+00 0. -1.
         23    2    1    2    0    0 -0.14068913873E+01  0.37313776247E+02 -0.30597072915E+03  0.33265538801E+03  0.12508885973E+03 0.  0.
         23    2    1    2    0    0  0.14068913873E+01 -0.37313776247E+02 -0.20211195070E+03  0.22510878604E+03  0.91817360530E+02 0.  0.
          5    1    3    3  502    0 -0.77009170596E+01 -0.20309054059E+02 -0.25317302818E+03  0.25413739669E+03  0.41800000000E+01 0.  1.
         -5    1    3    3    0  502  0.62940256723E+01  0.57622830306E+02 -0.52797700972E+02  0.78517991311E+02  0.41800000000E+01 0.  1.
        -11    1    4    4    0    0  0.17108507850E+02 -0.58213694210E+02 -0.80986460972E+02  0.10119457542E+03  0.00000000000E+00 0.  1.
         11    1    4    4    0    0 -0.15701616463E+02  0.20899917964E+02 -0.12112548972E+03  0.12391421061E+03  0.00000000000E+00 0. -1.
</event>
<event>
 8    1  0.4798744E-006  0.1515692E+03  0.7561462E-02  0.1198558E+00
         -1   -1    0    0    0  501 -0.00000000000E+00  0.00000000000E+00  0.23103174265E+03  0.23103174265E+03  0.00000000000E+00 0.  1.
          1   -1    0    0  501    0  0.00000000000E+00 -0.00000000000E+00 -0.27380691114E+03  0.27380691114E+03  0.00000000000E+00 0. -1.
         23    2    1    2    0    0  0.10049581754E+03 -0.86187149259E+02  0.16262267806E+03  0.24417563973E+03  0.12509186055E+03 0.  0.
         23    2    1    2    0    0 -0.10049581754E+03  0.86187149259E+02 -0.20539784655E+03  0.26066301406E+03  0.90715475498E+02 0.  0.
          5    1    3    3  502    0  0.17654859408E+02 -0.48282335535E+02 -0.65447541347E+01  0.51992155102E+02  0.41800000000E+01 0.  1.
         -5    1    3    3    0  502  0.82840958127E+02 -0.37904813724E+02  0.16916743220E+03  0.19218348463E+03  0.41800000000E+01 0.  1.
        -11    1    4    4    0    0 -0.47415981191E+02 -0.11853904846E+02 -0.67430992826E+02  0.83281025006E+02  0.00000000000E+00 0.  1.
         11    1    4    4    0    0 -0.53079836344E+02  0.98041054106E+02 -0.13796685372E+03  0.17738198906E+03  0.00000000000E+00 0. -1.
</event>
<event>
 8    1  0.4798744E-006  0.1098444E+03  0.7561462E-02  0.1260858E+00
         -1   -1    0    0    0  501 -0.00000000000E+00  0.00000000000E+00  0.45050089114E+03  0.45050089114E+03  0.00000000000E+00 0.  1.
          1   -1    0    0  501    0  0.00000000000E+00 -0.00000000000E+00 -0.30249080513E+02  0.30249080513E+02  0.00000000000E+00 0. -1.
         23    2    1    2    0    0  0.28393154760E+01 -0.46473819822E+02  0.28240132672E+03  0.30892403418E+03  0.11625692203E+03 0.  0.
         23    2    1    2    0    0 -0.28393154760E+01  0.46473819822E+02  0.13785048391E+03  0.17182593748E+03  0.91397588775E+02 0.  0.
          5    1    3    3  502    0 -0.12938951334E+02  0.34665033369E+02  0.13317477086E+03  0.13828258384E+03  0.41800000000E+01 0. -1.
         -5    1    3    3    0  502  0.15778266810E+02 -0.81138853190E+02  0.14922655586E+03  0.17064145034E+03  0.41800000000E+01 0.  1.
        -11    1    4    4    0    0 -0.45273446967E+02  0.18764501144E+02  0.88066087711E+02  0.10078406277E+03  0.00000000000E+00 0.  1.
         11    1    4    4    0    0  0.42434131491E+02  0.27709318678E+02  0.49784396204E+02  0.71041874710E+02  0.00000000000E+00 0. -1.
</event>
<event>
 8    1  0.4798744E-006  0.9390699E+02  0.7561462E-02  0.1293657E+00
         -1   -1    0    0    0  501 -0.00000000000E+00  0.00000000000E+00  0.38690126102E+02  0.38690126102E+02  0.00000000000E+00 0. -1.
          1   -1    0    0  501    0  0.00000000000E+00 -0.00000000000E+00 -0.36713476086E+03  0.36713476086E+03  0.00000000000E+00 0.  1.
         23    2    1    2    0    0  0.22340866599E+01  0.39913484483E+02 -0.13381932445E+03  0.18749012711E+03  0.12508740455E+03 0.  0.
         23    2    1    2    0    0 -0.22340866599E+01 -0.39913484483E+02 -0.19462531030E+03  0.21833475985E+03  0.90515073681E+02 0.  0.
          5    1    3    3  502    0 -0.15633542619E+02 -0.41244003786E+02 -0.69071474021E+02  0.82059834429E+02  0.41800000000E+01 0.  1.
         -5    1    3    3    0  502  0.17867629278E+02  0.81157488269E+02 -0.64747850433E+02  0.10543029268E+03  0.41800000000E+01 0.  1.
        -11    1    4    4    0    0 -0.20915768867E+02 -0.35345936499E+02 -0.19481974876E+03  0.19910183103E+03  0.00000000000E+00 0.  1.
         11    1    4    4    0    0  0.18681682207E+02 -0.45675479845E+01  0.19443845810E+00  0.19232928820E+02  0.00000000000E+00 0. -1.
</event>
<event>
 8    1  0.4798744E-006  0.1815840E+03  0.7561462E-02  0.1166279E+00
          2   -1    0    0  501    0  0.00000000000E+00  0.00000000000E+00  0.41777400356E+03  0.41777400356E+03  0.00000000000E+00 0. -1.
         -2   -1    0    0    0  501 -0.00000000000E+00 -0.00000000000E+00 -0.78980418062E+02  0.78980418062E+02  0.00000000000E+00 0.  1.
         23    2    1    2    0    0 -0.11025697065E+03  0.96754709921E+02  0.17619814673E+03  0.26116599916E+03  0.12507525228E+03 0.  0.
         23    2    1    2    0    0  0.11025697065E+03 -0.96754709921E+02  0.16259543876E+03  0.23558842246E+03  0.86870907804E+02 0.  0.
          5    1    3    3  502    0  0.25351977566E+02 -0.73837523600E+00  0.23495465514E+02  0.34824951748E+02  0.41800000000E+01 0. -1.
         -5    1    3    3    0  502 -0.13560894822E+03  0.97493085157E+02  0.15270268122E+03  0.22634104741E+03  0.41800000000E+01 0. -1.
        -11    1    4    4    0    0  0.39769140894E+02 -0.91430415748E+02  0.98894197871E+02  0.14043207562E+03  0.00000000000E+00 0. -1.
         11    1    4    4    0    0  0.70487829760E+02 -0.53242941722E+01  0.63701240894E+02  0.95156346841E+02  0.00000000000E+00 0.  1.
</event>
<event>
 8    1  0.4798744E-006  0.1130205E+03  0.7561462E-02  0.1255077E+00
         -1   -1    0    0    0  501 -0.00000000000E+00  0.00000000000E+00  0.71356699844E+02  0.71356699844E+02  0.00000000000E+00 0.  1.
          1   -1    0    0  501    0  0.00000000000E+00 -0.00000000000E+00 -0.22441168098E+03  0.22441168098E+03  0.00000000000E+00 0. -1.
         23    2    1    2    0    0 -0.52596194327E+02 -0.35698008214E+02 -0.72948105785E+02  0.15814399819E+03  0.12508953025E+03 0.  0.
         23    2    1    2    0    0  0.52596194327E+02  0.35698008214E+02 -0.80106875355E+02  0.13762438264E+03  0.92101312523E+02 0.  0.
          5    1    3    3  502    0 -0.52900740609E+02 -0.76648391676E+02 -0.70547553048E+02  0.11690976839E+03  0.41800000000E+01 0.  1.
         -5    1    3    3    0  502  0.30454628131E+00  0.40950383461E+02 -0.24005527370E+01  0.41234229804E+02  0.41800000000E+01 0.  1.
        -11    1    4    4    0    0  0.48829552202E+02 -0.65224766139E+01 -0.81479073912E+02  0.95214008186E+02  0.00000000000E+00 0. -1.
         11    1    4    4    0    0  0.37666421256E+01  0.42220484828E+02  0.13721985570E+01  0.42410374449E+02  0.00000000000E+00 0.  1.
</event>
<event>
 8    1  0.4798744E-006  0.1060478E+03  0.7561462E-02  0.1268069E+00
         -3   -1    0    0    0  501 -0.00000000000E+00  0.00000000000E+00  0.17344700446E+03  0.17344700446E+03  0.00000000000E+00 0.  1.
          3   -1    0    0  501    0  0.00000000000E+00 -0.00000000000E+00 -0.97407634567E+02  0.97407634567E+02  0.00000000000E+00 0. -1.
         23    2    1    2    0    0  0.42946422220E+02  0.53527501651E+02  0.67160294165E+02  0.15769325392E+03  0.12508824327E+03 0.  0.
         23    2    1    2    0    0 -0.42946422220E+02 -0.53527501651E+02  0.88790757242E+01  0.11316138510E+03  0.89538106290E+02 0.  0.
          5    1    3    3  502    0 -0.97019241159E+00 -0.17371135515E+02  0.71863727957E+02  0.74057851834E+02  0.41800000000E+01 0.  1.
         -5    1    3    3    0  502  0.43916614632E+02  0.70898637166E+02 -0.47034337915E+01  0.83635402086E+02  0.41800000000E+01 0.  1.
        -11    1    4    4    0    0 -0.65051611885E+02 -0.59114352806E+02  0.15855858972E+02  0.89317563672E+02  0.00000000000E+00 0.  1.
         11    1    4    4    0    0  0.22105189665E+02  0.55868511549E+01 -0.69767832478E+01  0.23843821431E+02  0.00000000000E+00 0. -1.
</event>
<event>
 8    1  0.4798744E-006  0.7734532E+02  0.7561462E-02  0.1336758E+00
          1   -1    0    0  501    0  0.00000000000E+00  0.00000000000E+00  0.10774479159E+02  0.10774479159E+02  0.00000000000E+00 0. -1.
         -1   -1    0    0    0  501 -0.00000000000E+00 -0.00000000000E+00 -0.19965151393E+04  0.19965151393E+04  0.00000000000E+00 0.  1.
         23    2    1    2    0    0  0.75066409524E+01  0.36988322513E+02 -0.16983655329E+04  0.17033746343E+04  0.12496069735E+03 0.  0.
         23    2    1    2    0    0 -0.75066409524E+01 -0.36988322513E+02 -0.28737512731E+03  0.30391498419E+03  0.91407702963E+02 0.  0.
          5    1    3    3  502    0  0.34853077245E+02  0.28592629627E+02 -0.16049372645E+04  0.16055757132E+04  0.41800000000E+01 0.  1.
         -5    1    3    3    0  502 -0.27346436293E+02  0.83956928866E+01 -0.93428268408E+02  0.97798921133E+02  0.41800000000E+01 0.  1.
        -11    1    4    4    0    0 -0.23660989774E+02 -0.52826451861E+02 -0.26784439936E+03  0.27402755102E+03  0.00000000000E+00 0.  1.
         11    1    4    4    0    0  0.16154348821E+02  0.15838129348E+02 -0.19530727948E+02  0.29887433166E+02  0.00000000000E+00 0. -1.
</event>
<event>
 8    1  0.4798744E-006  0.2472051E+03  0.7561462E-02  0.1115084E+00
          1   -1    0    0  501    0  0.00000000000E+00  0.00000000000E+00  0.19523448977E+03  0.19523448977E+03  0.00000000000E+00 0. -1.
         -1   -1    0    0    0  501 -0.00000000000E+00 -0.00000000000E+00 -0.34242188614E+03  0.34242188614E+03  0.00000000000E+00 0.  1.
         23    2    1    2    0    0 -0.52482459920E+02 -0.22561887888E+03 -0.11580086054E+03  0.28760328371E+03  0.12509005712E+03 0.  0.
         23    2    1    2    0    0  0.52482459920E+02  0.22561887888E+03 -0.31386535833E+02  0.25005309221E+03  0.88787089061E+02 0.  0.
          5    1    3    3  502    0 -0.12014016386E+01 -0.20545436285E+03 -0.10685893843E+03  0.23162306384E+03  0.41800000000E+01 0.  1.
         -5    1    3    3    0  502 -0.51281058281E+02 -0.20164516029E+02 -0.89419221044E+01  0.55980219864E+02  0.41800000000E+01 0.  1.
        -11    1    4    4    0    0  0.47947150126E+02  0.14140977903E+03 -0.60113126210E+02  0.16096348267E+03  0.00000000000E+00 0.  1.
         11    1    4    4    0    0  0.45353097935E+01  0.84209099855E+02  0.28726590378E+02  0.89089609540E+02  0.00000000000E+00 0. -1.
</event>
<event>
 8    1  0.4798744E-006  0.2695109E+03  0.7561462E-02  0.1101560E+00
          2   -1    0    0  501    0  0.00000000000E+00  0.00000000000E+00  0.39807402775E+03  0.39807402775E+03  0.00000000000E+00 0. -1.
         -2   -1    0    0    0  501 -0.00000000000E+00 -0.00000000000E+00 -0.27467070833E+03  0.27467070833E+03  0.00000000000E+00 0.  1.
         23    2    1    2    0    0  0.79021066825E+02  0.24783874598E+03 -0.11310380265E+03  0.31001259830E+03  0.12508784081E+03 0.  0.
         23    2    1    2    0    0 -0.79021066825E+02 -0.24783874598E+03  0.23650712207E+03  0.36273213778E+03  0.89278283912E+02 0.  0.
          5    1    3    3  502    0 -0.21875107650E+02  0.71194985344E+02 -0.69427899476E+02  0.10190658418E+03  0.41800000000E+01 0. -1.
         -5    1    3    3    0  502  0.10089617447E+03  0.17664376064E+03 -0.43675903176E+02  0.20810601412E+03  0.41800000000E+01 0. -1.
        -11    1    4    4    0    0 -0.14546924288E+02 -0.76818639438E+02  0.12855328609E+03  0.15046150251E+03  0.00000000000E+00 0.  1.
         11    1    4    4    0    0 -0.64474142537E+02 -0.17102010654E+03  0.10795383598E+03  0.21227063528E+03  0.00000000000E+00 0. -1.
</event>
<event>
 8    1  0.4798744E-006  0.9910688E+02  0.7561462E-02  0.1282185E+00
          1   -1    0    0  501    0  0.00000000000E+00  0.00000000000E+00  0.44455112795E+03  0.44455112795E+03  0.00000000000E+00 0. -1.
         -1   -1    0    0    0  501 -0.00000000000E+00 -0.00000000000E+00 -0.28241008776E+02  0.28241008776E+02  0.00000000000E+00 0.  1.
         23    2    1    2    0    0 -0.25326960171E+02 -0.38493557417E+02  0.18677869218E+03  0.22947025059E+03  0.12508839746E+03 0.  0.
         23    2    1    2    0    0  0.25326960171E+02  0.38493557417E+02  0.22953142699E+03  0.24332188613E+03  0.66314820525E+02 0.  0.
          5    1    3    3  502    0  0.39855991351E+01 -0.78523974366E+02  0.14265808477E+03  0.16294385874E+03  0.41800000000E+01 0. -1.
         -5    1    3    3    0  502 -0.29312559306E+02  0.40030416949E+02  0.44120607409E+02  0.66526391848E+02  0.41800000000E+01 0. -1.
        -11    1    4    4    0    0 -0.44143402693E+01  0.39677124759E+02  0.66242317748E+02  0.77342131402E+02  0.00000000000E+00 0.  1.
         11    1    4    4    0    0  0.29741300441E+02 -0.11835673428E+01  0.16328910924E+03  0.16597975473E+03  0.00000000000E+00 0. -1.
</event>
<event>
 8    1  0.4798744E-006  0.3710749E+03  0.7561462E-02  0.1054283E+00
          2   -1    0    0  501    0  0.00000000000E+00  0.00000000000E+00  0.41547880838E+03  0.41547880838E+03  0.00000000000E+00 0.  1.
         -2   -1    0    0    0  501 -0.00000000000E+00 -0.00000000000E+00 -0.65831177099E+03  0.65831177099E+03  0.00000000000E+00 0. -1.
         23    2    1    2    0    0 -0.74259392492E+02 -0.35383316377E+03 -0.49383075306E+03  0.62468281826E+03  0.12508975019E+03 0.  0.
         23    2    1    2    0    0  0.74259392492E+02  0.35383316377E+03  0.25099779045E+03  0.44910776111E+03  0.89361765436E+02 0.  0.
          5    1    3    3  502    0 -0.88864329177E+02 -0.15405676837E+03 -0.18586919912E+03  0.25728425615E+03  0.41800000000E+01 0. -1.
         -5    1    3    3    0  502  0.14604936685E+02 -0.19977639540E+03 -0.30796155394E+03  0.36739856211E+03  0.41800000000E+01 0. -1.
        -11    1    4    4    0    0  0.71493958657E+02  0.24983189159E+03  0.22019079045E+03  0.34060438104E+03  0.00000000000E+00 0. -1.
         11    1    4    4    0    0  0.27654338355E+01  0.10400127217E+03  0.30806999998E+02  0.10850338007E+03  0.00000000000E+00 0.  1.
</event>
<event>
 8    1  0.5064269E-006  0.1893448E+03  0.7561462E-02  0.1159054E+00
         -1   -1    0    0    0  501 -0.00000000000E+00  0.00000000000E+00  0.27387199270E+02  0.27387199270E+02  0.00000000000E+00 0. -1.
          1   -1    0    0  501    0  0.00000000000E+00 -0.00000000000E+00 -0.14929336482E+04  0.14929336482E+04  0.00000000000E+00 0.  1.
         23    2    1    2    0    0  0.14674222838E+03  0.80688166335E+02 -0.64678810979E+03  0.67972556928E+03  0.12509248095E+03 0.  0.
         23    2    1    2    0    0 -0.14674222838E+03 -0.80688166335E+02 -0.81875833915E+03  0.84059527820E+03  0.90506033107E+02 0.  0.
          5    1    3    3  502    0  0.13464630287E+03  0.32508658477E+02 -0.31393828376E+03  0.34316345691E+03  0.41800000000E+01 0. -1.
         -5    1    3    3    0  502  0.12095925515E+02  0.48179507858E+02 -0.33284982603E+03  0.33656211237E+03  0.41800000000E+01 0. -1.
        -11    1    4    4    0    0 -0.11706691615E+02 -0.50570341874E+02 -0.23534834884E+03  0.24100467092E+03  0.00000000000E+00 0. -1.
         11    1    4    4    0    0 -0.13503553677E+03 -0.30117824461E+02 -0.58340999032E+03  0.59959060728E+03  0.00000000000E+00 0.  1.
</event>
<event>
 8    1  0.4798744E-006  0.9813638E+02  0.7561462E-02  0.1284264E+00
         -3   -1    0    0    0  501 -0.00000000000E+00  0.00000000000E+00  0.34759338796E+03  0.34759338796E+03  0.00000000000E+00 0.  1.
          3   -1    0    0  501    0  0.00000000000E+00 -0.00000000000E+00 -0.35391728947E+02  0.35391728947E+02  0.00000000000E+00 0. -1.
         23    2    1    2    0    0  0.15565997359E+02  0.61360272220E+01  0.23544480197E+03  0.26326014176E+03  0.11658343091E+03 0.  0.
         23    2    1    2    0    0 -0.15565997359E+02 -0.61360272220E+01  0.76756857047E+02  0.11972497515E+03  0.90346574181E+02 0.  0.
          5    1    3    3  502    0  0.49247185941E+02  0.39289401315E+02  0.87552390520E+02  0.10794366987E+03  0.41800000000E+01 0. -1.
         -5    1    3    3    0  502 -0.33681188582E+02 -0.33153374093E+02  0.14789241145E+03  0.15531647189E+03  0.41800000000E+01 0.  1.
        -11    1    4    4    0    0 -0.28180485004E+02 -0.40354402823E+02  0.21948605634E+02  0.53892103796E+02  0.00000000000E+00 0.  1.
         11    1    4    4    0    0  0.12614487645E+02  0.34218375601E+02  0.54808251412E+02  0.65832871350E+02  0.00000000000E+00 0. -1.
</event>
<event>
 8    1  0.4798744E-006  0.1074128E+03  0.7561462E-02  0.1265437E+00
          2   -1    0    0  501    0  0.00000000000E+00  0.00000000000E+00  0.43750667877E+03  0.43750667877E+03  0.00000000000E+00 0.  1.
         -2   -1    0    0    0  501 -0.00000000000E+00 -0.00000000000E+00 -0.27291407014E+02  0.27291407014E+02  0.00000000000E+00 0. -1.
         23    2    1    2    0    0 -0.10864178257E+02 -0.14895015997E+02  0.22362762724E+03  0.25689860827E+03  0.12509071666E+03 0.  0.
         23    2    1    2    0    0  0.10864178257E+02  0.14895015997E+02  0.18658764452E+03  0.20789947752E+03  0.89818437948E+02 0.  0.
          5    1    3    3  502    0 -0.58979212796E+02  0.21435266375E+02  0.85606968473E+02  0.10622637920E+03  0.41800000000E+01 0. -1.
         -5    1    3    3    0  502  0.48115034539E+02 -0.36330282372E+02  0.13802065877E+03  0.15067222907E+03  0.41800000000E+01 0. -1.
        -11    1    4    4    0    0 -0.36835831603E+02 -0.93294363769E+01  0.70905813720E+02  0.80445952616E+02  0.00000000000E+00 0. -1.
         11    1    4    4    0    0  0.47700009860E+02  0.24224452374E+02  0.11568183080E+03  0.12745352490E+03  0.00000000000E+00 0.  1.
</event>
<event>
 8    1  0.4798744E-006  0.7705192E+02  0.7561462E-02  0.1337632E+00
         -1   -1    0    0    0  501 -0.00000000000E+00  0.00000000000E+00  0.47012037100E+02  0.47012037100E+02  0.00000000000E+00 0.  1.
          1   -1    0    0  501    0  0.00000000000E+00 -0.00000000000E+00 -0.35180849220E+03  0.35180849220E+03  0.00000000000E+00 0. -1.
         23    2    1    2    0    0 -0.27922359920E+02  0.39800669064E+02 -0.10140136166E+03  0.16820697843E+03  0.12509036734E+03 0.  0.
         23    2    1    2    0    0  0.27922359920E+02 -0.39800669064E+02 -0.20339509343E+03  0.23061355087E+03  0.97207481047E+02 0.  0.
          5    1    3    3  502    0 -0.57875444548E+01 -0.28523155947E+01  0.28563253763E+02  0.29579777562E+02  0.41800000000E+01 0. -1.
         -5    1    3    3    0  502 -0.22134815465E+02  0.42652984659E+02 -0.12996461543E+03  0.13862720086E+03  0.41800000000E+01 0. -1.
        -11    1    4    4    0    0 -0.11980432395E+02  0.21747317528E+02 -0.10494519404E+03  0.10784234017E+03  0.00000000000E+00 0. -1.
         11    1    4    4    0    0  0.39902792315E+02 -0.61547986592E+02 -0.98449899393E+02  0.12277121071E+03  0.00000000000E+00 0.  1.
</event>
<event>
 8    1  0.4798744E-006  0.1853032E+03  0.7561462E-02  0.1162767E+00
          2   -1    0    0  501    0  0.00000000000E+00  0.00000000000E+00  0.98141317382E+02  0.98141317382E+02  0.00000000000E+00 0.  1.
         -2   -1    0    0    0  501 -0.00000000000E+00 -0.00000000000E+00 -0.53020653209E+03  0.53020653209E+03  0.00000000000E+00 0. -1.
         23    2    1    2    0    0  0.15341237160E+03 -0.89054345591E+02 -0.35252724906E+03  0.41399044270E+03  0.12508634254E+03 0.  0.
         23    2    1    2    0    0 -0.15341237160E+03  0.89054345591E+02 -0.79537965650E+02  0.21435740677E+03  0.90314880458E+02 0.  0.
          5    1    3    3  502    0  0.15975581358E+03 -0.75542099942E+02 -0.35656169363E+03  0.39797266564E+03  0.41800000000E+01 0.  1.
         -5    1    3    3    0  502 -0.63434419885E+01 -0.13512245649E+02  0.40344445698E+01  0.16017777053E+02  0.41800000000E+01 0.  1.
        -11    1    4    4    0    0 -0.73460739891E+02  0.53285861887E+02  0.72664992210E+01  0.91042107804E+02  0.00000000000E+00 0.  1.
         11    1    4    4    0    0 -0.79951631704E+02  0.35768483704E+02 -0.86804464871E+02  0.12331529897E+03  0.00000000000E+00 0. -1.
</event>
<event>
 8    1  0.4798744E-006  0.1168737E+03  0.7561462E-02  0.1248345E+00
         -2   -1    0    0    0  501 -0.00000000000E+00  0.00000000000E+00  0.58654382758E+02  0.58654382758E+02  0.00000000000E+00 0.  1.
          2   -1    0    0  501    0  0.00000000000E+00 -0.00000000000E+00 -0.36556323420E+03  0.36556323420E+03  0.00000000000E+00 0. -1.
         23    2    1    2    0    0  0.32712460653E+02  0.57207290595E+02 -0.64241411684E+02  0.15529432375E+03  0.12508632553E+03 0.  0.
         23    2    1    2    0    0 -0.32712460653E+02 -0.57207290595E+02 -0.24266743975E+03  0.26892329320E+03  0.95338723152E+02 0.  0.
          5    1    3    3  502    0 -0.16399622066E+02 -0.25535144408E+02  0.11548319234E+02  0.32738773358E+02  0.41800000000E+01 0. -1.
         -5    1    3    3    0  502  0.49112082719E+02  0.82742435003E+02 -0.75789730918E+02  0.12255555039E+03  0.41800000000E+01 0. -1.
        -11    1    4    4    0    0  0.20480604366E+02 -0.48832995116E+02 -0.68257387285E+02  0.86389741788E+02  0.00000000000E+00 0. -1.
         11    1    4    4    0    0 -0.53193065019E+02 -0.83742954798E+01 -0.17441005247E+03  0.18253355142E+03  0.00000000000E+00 0.  1.
</event>
<event>
 8    1  0.4798744E-006  0.1141229E+03  0.7561462E-02  0.1253120E+00
         -1   -1    0    0    0  501 -0.00000000000E+00  0.00000000000E+00  0.10450649320E+03  0.10450649320E+03  0.00000000000E+00 0.  1.
          1   -1    0    0  501    0  0.00000000000E+00 -0.00000000000E+00 -0.16670470682E+03  0.16670470682E+03  0.00000000000E+00 0. -1.
         23    2    1    2    0    0  0.46376733355E+02  0.34881668126E+02  0.11614972619E+02  0.13838295878E+03  0.12508958199E+03 0.  0.
         23    2    1    2    0    0 -0.46376733355E+02 -0.34881668126E+02 -0.73813186239E+02  0.13282824125E+03  0.93954366805E+02 0.  0.
          5    1    3    3  502    0  0.30384101873E+02 -0.39227361859E+02 -0.23102375693E+02  0.54892364930E+02  0.41800000000E+01 0.  1.
         -5    1    3    3    0  502  0.15992631483E+02  0.74109029985E+02  0.34717348311E+02  0.83490593846E+02  0.41800000000E+01 0.  1.
        -11    1    4    4    0    0 -0.93061173030E+01  0.28011092986E+02 -0.46100907292E+02  0.54740467687E+02  0.00000000000E+00 0.  1.
         11    1    4    4    0    0 -0.37070616052E+02 -0.62892761112E+02 -0.27712278947E+02  0.78087773558E+02  0.00000000000E+00 0. -1.
</event>
<event>
 8    1  0.4798744E-006  0.3378236E+03  0.7561462E-02  0.1067727E+00
          1   -1    0    0  501    0  0.00000000000E+00  0.00000000000E+00  0.12494014210E+04  0.12494014210E+04  0.00000000000E+00 0. -1.
         -1   -1    0    0    0  501 -0.00000000000E+00 -0.00000000000E+00 -0.10677751812E+03  0.10677751812E+03  0.00000000000E+00 0.  1.
         23    2    1    2    0    0 -0.65320450201E+02 -0.32097629999E+03  0.35386162009E+03  0.49815328993E+03  0.12508440243E+03 0.  0.
         23    2    1    2    0    0  0.65320450201E+02  0.32097629999E+03  0.78876228279E+03  0.85802564919E+03  0.82277150779E+02 0.  0.
          5    1    3    3  502    0 -0.95891453350E+02 -0.28159723198E+03  0.27732666053E+03  0.40671823284E+03  0.41800000000E+01 0.  1.
         -5    1    3    3    0  502  0.30571003149E+02 -0.39379068009E+02  0.76534959559E+02  0.91435057093E+02  0.41800000000E+01 0.  1.
        -11    1    4    4    0    0  0.12854219497E+02  0.10836060712E+03  0.36585137515E+03  0.38177805180E+03  0.00000000000E+00 0.  1.
         11    1    4    4    0    0  0.52466230704E+02  0.21261569287E+03  0.42291090764E+03  0.47624759739E+03  0.00000000000E+00 0. -1.
</event>
<event>
 8    1  0.4798744E-006  0.1006114E+03  0.7561462E-02  0.1279015E+00
         -1   -1    0    0    0  501 -0.00000000000E+00  0.00000000000E+00  0.23842955331E+02  0.23842955331E+02  0.00000000000E+00 0.  1.
          1   -1    0    0  501    0  0.00000000000E+00 -0.00000000000E+00 -0.87931519878E+03  0.87931519878E+03  0.00000000000E+00 0. -1.
         23    2    1    2    0    0 -0.71725404990E+02  0.62318376243E+02 -0.44339909782E+03  0.47040321297E+03  0.12509320157E+03 0.  0.
         23    2    1    2    0    0  0.71725404990E+02 -0.62318376243E+02 -0.41207314562E+03  0.43275494114E+03  0.91893677706E+02 0.  0.
          5    1    3    3  502    0 -0.68407610617E+02  0.44870042141E+02 -0.44463233010E+03  0.45211536497E+03  0.41800000000E+01 0.  1.
         -5    1    3    3    0  502 -0.33177943738E+01  0.17448334102E+02  0.12332322762E+01  0.18287847995E+02  0.41800000000E+01 0.  1.
        -11    1    4    4    0    0  0.10292441034E+02 -0.29849450535E+02 -0.27245053070E+02  0.41703920157E+02  0.00000000000E+00 0.  1.
         11    1    4    4    0    0  0.61432963956E+02 -0.32468925708E+02 -0.38482809255E+03  0.39105102099E+03  0.00000000000E+00 0. -1.
</event>
<event>
 8    1  0.4798744E-006  0.1068452E+03  0.7561462E-02  0.1266526E+00
         -1   -1    0    0    0  501 -0.00000000000E+00  0.00000000000E+00  0.46891417195E+02  0.46891417195E+02  0.00000000000E+00 0.  1.
          1   -1    0    0  501    0  0.00000000000E+00 -0.00000000000E+00 -0.35434885351E+03  0.35434885351E+03  0.00000000000E+00 0. -1.
         23    2    1    2    0    0  0.25450767470E+02 -0.34480136752E+02 -0.91511718886E+02  0.16079625730E+03  0.12507765697E+03 0.  0.
         23    2    1    2    0    0 -0.25450767470E+02  0.34480136752E+02 -0.21594571743E+03  0.24044401340E+03  0.96665140095E+02 0.  0.
          5    1    3    3  502    0  0.22238009712E+02  0.42216103733E+02 -0.10347105177E+02  0.49002688456E+02  0.41800000000E+01 0.  1.
         -5    1    3    3    0  502  0.32127577577E+01 -0.76696240485E+02 -0.81164613709E+02  0.11179356885E+03  0.41800000000E+01 0.  1.
        -11    1    4    4    0    0  0.27969706961E+02  0.16887666383E+02 -0.24306908590E+02  0.40722519428E+02  0.00000000000E+00 0.  1.
         11    1    4    4    0    0 -0.53420474431E+02  0.17592470369E+02 -0.19163880884E+03  0.19972149397E+03  0.00000000000E+00 0. -1.
</event>
<event>
 8    1  0.4798744E-006  0.2013138E+03  0.7561462E-02  0.1148635E+00
         -1   -1    0    0    0  501 -0.00000000000E+00  0.00000000000E+00  0.96298298977E+03  0.96298298977E+03  0.00000000000E+00 0.  1.
          1   -1    0    0  501    0  0.00000000000E+00 -0.00000000000E+00 -0.44332331085E+02  0.44332331085E+02  0.00000000000E+00 0. -1.
         23    2    1    2    0    0 -0.16204162497E+03 -0.66610053325E+02  0.50909467938E+03  0.55273806898E+03  0.12509033895E+03 0.  0.
         23    2    1    2    0    0  0.16204162497E+03  0.66610053325E+02  0.40955597930E+03  0.45457725187E+03  0.90608996860E+02 0.  0.
          5    1    3    3  502    0 -0.17955114638E+03 -0.54146043766E+02  0.48584869051E+03  0.52080402331E+03  0.41800000000E+01 0. -1.
         -5    1    3    3    0  502  0.17509521412E+02 -0.12464009559E+02  0.23245988872E+02  0.31934045673E+02  0.41800000000E+01 0. -1.
        -11    1    4    4    0    0  0.17836299693E+01  0.28323957675E+02  0.32838523969E+02  0.43402725384E+02  0.00000000000E+00 0.  1.
         11    1    4    4    0    0  0.16025799500E+03  0.38286095649E+02  0.37671745533E+03  0.41117452649E+03  0.00000000000E+00 0. -1.
</event>
<event>
 8    1  0.4798744E-006  0.1018488E+03  0.7561462E-02  0.1276455E+00
         -3   -1    0    0    0  501 -0.00000000000E+00  0.00000000000E+00  0.70295084751E+02  0.70295084751E+02  0.00000000000E+00 0.  1.
          3   -1    0    0  501    0  0.00000000000E+00 -0.00000000000E+00 -0.21004816367E+03  0.21004816367E+03  0.00000000000E+00 0. -1.
         23    2    1    2    0    0  0.53611014526E+02  0.12577439944E+02 -0.69997881489E+02  0.15355073144E+03  0.12508313571E+03 0.  0.
         23    2    1    2    0    0 -0.53611014526E+02 -0.12577439944E+02 -0.69755197432E+02  0.12679251699E+03  0.90433522108E+02 0.  0.
          5    1    3    3  502    0  0.63470076425E+02  0.51640598208E+02 -0.77012133973E+02  0.11244351099E+03  0.41800000000E+01 0. -1.
         -5    1    3    3    0  502 -0.98590618994E+01 -0.39063158263E+02  0.70142524837E+01  0.41107220448E+02  0.41800000000E+01 0. -1.
        -11    1    4    4    0    0 -0.54448505684E+02 -0.31110985353E+02 -0.82978801640E+02  0.10400968562E+03  0.00000000000E+00 0. -1.
         11    1    4    4    0    0  0.83749115858E+00  0.18533545408E+02  0.13223604208E+02  0.22782831367E+02  0.00000000000E+00 0.  1.
</event>
<event>
 8    1  0.4798744E-006  0.9591481E+02  0.7561462E-02  0.1289129E+00
          1   -1    0    0  501    0  0.00000000000E+00  0.00000000000E+00  0.10586520105E+03  0.10586520105E+03  0.00000000000E+00 0. -1.
         -1   -1    0    0    0  501 -0.00000000000E+00 -0.00000000000E+00 -0.14349822720E+03  0.14349822720E+03  0.00000000000E+00 0.  1.
         23    2    1    2    0    0  0.55330701204E+01 -0.54312139466E+02 -0.41065317008E+02  0.14253162209E+03  0.12509388345E+03 0.  0.
         23    2    1    2    0    0 -0.55330701204E+01  0.54312139466E+02  0.34322908590E+01  0.10683180617E+03  0.91765085027E+02 0.  0.
          5    1    3    3  502    0  0.40357278294E+02 -0.73171480737E+02 -0.55243315354E+02  0.10026002092E+03  0.41800000000E+01 0. -1.
         -5    1    3    3    0  502 -0.34824208173E+02  0.18859341271E+02  0.14177998346E+02  0.42271601166E+02  0.41800000000E+01 0. -1.
        -11    1    4    4    0    0  0.15326513244E+02  0.40547296686E+02  0.42336562333E+02  0.60591829374E+02  0.00000000000E+00 0. -1.
         11    1    4    4    0    0 -0.20859583365E+02  0.13764842780E+02 -0.38904271474E+02  0.46239976793E+02  0.00000000000E+00 0.  1.
</event>
<event>
 8    1  0.4798744E-006  0.1654133E+03  0.7561462E-02  0.1182717E+00
          2   -1    0    0  501    0  0.00000000000E+00  0.00000000000E+00  0.30853401950E+03  0.30853401950E+03  0.00000000000E+00 0. -1.
         -2   -1    0    0    0  501 -0.00000000000E+00 -0.00000000000E+00 -0.11625119745E+03  0.11625119745E+03  0.00000000000E+00 0.  1.
         23    2    1    2    0    0  0.37499501992E+02 -0.14175352061E+03  0.44425435571E+02  0.19778916435E+03  0.12508661380E+03 0.  0.
         23    2    1    2    0    0 -0.37499501992E+02  0.14175352061E+03  0.14785738648E+03  0.22699605261E+03  0.90361097311E+02 0.  0.
          5    1    3    3  502    0  0.31829322302E+02 -0.14871648457E+03 -0.13415571327E+00  0.15214200255E+03  0.41800000000E+01 0. -1.
         -5    1    3    3    0  502  0.56701796894E+01  0.69629639613E+01  0.44559591284E+02  0.45647161798E+02  0.41800000000E+01 0. -1.
        -11    1    4    4    0    0 -0.29168564999E+02  0.24979768979E+01  0.10180557393E+02  0.30994980586E+02  0.00000000000E+00 0.  1.
         11    1    4    4    0    0 -0.83309369930E+01  0.13925554371E+03  0.13767682909E+03  0.19600107202E+03  0.00000000000E+00 0. -1.
</event>
<event>
 8    1  0.4798744E-006  0.9756467E+02  0.7561462E-02  0.1285502E+00
          2   -1    0    0  501    0  0.00000000000E+00  0.00000000000E+00  0.35207370009E+02  0.35207370009E+02  0.00000000000E+00 0. -1.
         -2   -1    0    0    0  501 -0.00000000000E+00 -0.00000000000E+00 -0.34858181221E+03  0.34858181221E+03  0.00000000000E+00 0.  1.
         23    2    1    2    0    0 -0.15683083009E+02 -0.62573907233E+01 -0.20726591243E+03  0.24267248479E+03  0.12508262225E+03 0.  0.
         23    2    1    2    0    0  0.15683083009E+02  0.62573907233E+01 -0.10610852977E+03  0.14111669742E+03  0.91486546395E+02 0.  0.
          5    1    3    3  502    0 -0.49650139554E+02 -0.32127574652E+02 -0.43906696957E+02  0.73773896796E+02  0.41800000000E+01 0.  1.
         -5    1    3    3    0  502  0.33967056544E+02  0.25870183929E+02 -0.16335921547E+03  0.16889858800E+03  0.41800000000E+01 0.  1.
        -11    1    4    4    0    0 -0.32781648226E+02 -0.19413679525E+02 -0.40477470598E+02  0.55587346035E+02  0.00000000000E+00 0.  1.
         11    1    4    4    0    0  0.48464731236E+02  0.25671070249E+02 -0.65631059170E+02  0.85529351390E+02  0.00000000000E+00 0. -1.
</event>
<event>
 8    1  0.4798744E-006  0.1024538E+03  0.7561462E-02  0.1275219E+00
         -1   -1    0    0    0  501 -0.00000000000E+00  0.00000000000E+00  0.62614172904E+02  0.62614172904E+02  0.00000000000E+00 0.  1.
          1   -1    0    0  501    0  0.00000000000E+00 -0.00000000000E+00 -0.29706593492E+03  0.29706593492E+03  0.00000000000E+00 0. -1.
         23    2    1    2    0    0 -0.56741567332E+02 -0.76301088346E+01 -0.49519286772E+02  0.14620895079E+03  0.12508826286E+03 0.  0.
         23    2    1    2    0    0  0.56741567332E+02  0.76301088346E+01 -0.18493247524E+03  0.21347115703E+03  0.89956047382E+02 0.  0.
          5    1    3    3  502    0 -0.51961842606E+02  0.35034599174E+02  0.18667588220E+02  0.65524098439E+02  0.41800000000E+01 0. -1.
         -5    1    3    3    0  502 -0.47797247263E+01 -0.42664708008E+02 -0.68186874992E+02  0.80684852352E+02  0.41800000000E+01 0. -1.
        -11    1    4    4    0    0  0.56837006542E+01 -0.33141276813E+02 -0.29002104536E+02  0.44404625316E+02  0.00000000000E+00 0.  1.
         11    1    4    4    0    0  0.51057866678E+02  0.40771385648E+02 -0.15593037071E+03  0.16906653171E+03  0.00000000000E+00 0. -1.
</event>
<event>
 7    1  0.4798744E-006  0.1241455E+03  0.7561462E-02  0.1236411E+00
          2   -1    0    0  501    0  0.00000000000E+00  0.00000000000E+00  0.72128519408E+03  0.72128519408E+03  0.00000000000E+00 0. -1.
         -2   -1    0    0    0  501 -0.00000000000E+00 -0.00000000000E+00 -0.33828166489E+02  0.33828166489E+02  0.00000000000E+00 0.  1.
         23    2    1    2    0    0  0.35966453745E+02  0.23576606241E+02  0.25683897997E+03  0.28890103834E+03  0.12509239051E+03 0.  0.
          5    1    3    3  502    0 -0.22132265136E+02 -0.78054162155E+01  0.16697307476E+00  0.23838245790E+02  0.41800000000E+01 0.  1.
         -5    1    3    3    0  502  0.58098718881E+02  0.31382022457E+02  0.25667200690E+03  0.26506279255E+03  0.41800000000E+01 0.  1.
        -11    1    1    2    0    0 -0.58303092579E+02 -0.79201304094E+02  0.36189833453E+03  0.37502333489E+03  0.00000000000E+00 0. -1.
         11    1    1    2    0    0  0.22336638835E+02  0.55624697853E+02  0.68719713095E+02  0.91188987347E+02  0.00000000000E+00 0.  1.
</event>
<event>
 8    1  0.4798744E-006  0.1414087E+03  0.7561462E-02  0.1211446E+00
          1   -1    0    0  501    0  0.00000000000E+00  0.00000000000E+00  0.21420562873E+03  0.21420562873E+03  0.00000000000E+00 0. -1.
         -1   -1    0    0    0  501 -0.00000000000E+00 -0.00000000000E+00 -0.11709497123E+03  0.11709497123E+03  0.00000000000E+00 0.  1.
         23    2    1    2    0    0  0.39126363694E+02 -0.10062866988E+03  0.11515289399E+02  0.16564099051E+03  0.12508930533E+03 0.  0.
         23    2    1    2    0    0 -0.39126363694E+02  0.10062866988E+03  0.85595368100E+02  0.16565960946E+03  0.91975744779E+02 0.  0.
          5    1    3    3  502    0  0.42362325895E+01  0.29253131345E+02 -0.43109921194E+01  0.30162035958E+02  0.41800000000E+01 0.  1.
         -5    1    3    3    0  502  0.34890131105E+02 -0.12988180123E+03  0.15826281518E+02  0.13547895455E+03  0.41800000000E+01 0.  1.
        -11    1    4    4    0    0  0.32402338181E+01  0.58760112645E+02 -0.29737323591E+01  0.58924468919E+02  0.00000000000E+00 0.  1.
         11    1    4    4    0    0 -0.42366597512E+02  0.41868557238E+02  0.88569100459E+02  0.10673514054E+03  0.00000000000E+00 0. -1.
</event>
<event>
 8    1  0.4798744E-006  0.1505540E+03  0.7561462E-02  0.1199794E+00
         -1   -1    0    0    0  501 -0.00000000000E+00  0.00000000000E+00  0.10528798775E+03  0.10528798775E+03  0.00000000000E+00 0.  1.
          1   -1    0    0  501    0  0.00000000000E+00 -0.00000000000E+00 -0.28585999650E+03  0.28585999650E+03  0.00000000000E+00 0. -1.
         23    2    1    2    0    0 -0.10697748830E+03  0.64337610445E+02 -0.40278542769E+02  0.18125711561E+03  0.12509304469E+03 0.  0.
         23    2    1    2    0    0  0.10697748830E+03 -0.64337610445E+02 -0.14029346599E+03  0.20989086864E+03  0.93746514706E+02 0.  0.
          5    1    3    3  502    0 -0.80540892026E+02  0.49104948762E+01  0.29274864513E+02  0.85938573065E+02  0.41800000000E+01 0. -1.
         -5    1    3    3    0  502 -0.26436596275E+02  0.59427115569E+02 -0.69553407281E+02  0.95318542540E+02  0.41800000000E+01 0. -1.
        -11    1    4    4    0    0  0.41170190446E+02  0.21917582779E+02 -0.53321155648E+02  0.70841447302E+02  0.00000000000E+00 0. -1.
         11    1    4    4    0    0  0.65807297855E+02 -0.86255193225E+02 -0.86972310338E+02  0.13904942134E+03  0.00000000000E+00 0.  1.
</event>
<event>
 8    1  0.4798744E-006  0.1086612E+03  0.7561462E-02  0.1263069E+00
          2   -1    0    0  501    0  0.00000000000E+00  0.00000000000E+00  0.14195822934E+03  0.14195822934E+03  0.00000000000E+00 0. -1.
         -2   -1    0    0    0  501 -0.00000000000E+00 -0.00000000000E+00 -0.92225089256E+02  0.92225089256E+02  0.00000000000E+00 0.  1.
         23    2    1    2    0    0 -0.62197455826E+01 -0.34659319519E+02  0.63744873386E+01  0.13010262456E+03  0.12508439217E+03 0.  0.
         23    2    1    2    0    0  0.62197455826E+01  0.34659319519E+02  0.43358652744E+02  0.10408069404E+03  0.87822915224E+02 0.  0.
          5    1    3    3  502    0  0.20618819298E+02  0.42000954600E+02 -0.75832699460E+01  0.47583550515E+02  0.41800000000E+01 0.  1.
         -5    1    3    3    0  502 -0.26838564881E+02 -0.76660274119E+02  0.13957757285E+02  0.82519074045E+02  0.41800000000E+01 0.  1.
        -11    1    4    4    0    0 -0.36732429945E+02  0.26507531570E+02  0.39658292421E+02  0.60205488100E+02  0.00000000000E+00 0. -1.
         11    1    4    4    0    0  0.42952175528E+02  0.81517879488E+01  0.37003603228E+01  0.43875205935E+02  0.00000000000E+00 0.  1.
</event>
<event>
 8    1  0.4798744E-006  0.9984256E+02  0.7561462E-02  0.1280627E+00
         -1   -1    0    0    0  501 -0.00000000000E+00  0.00000000000E+00  0.41323297630E+02  0.41323297630E+02  0.00000000000E+00 0.  1.
          1   -1    0    0  501    0  0.00000000000E+00 -0.00000000000E+00 -0.47486360738E+03  0.47486360738E+03  0.00000000000E+00 0. -1.
         23    2    1    2    0    0  0.46863585815E+02  0.35267294203E+02 -0.92982284752E+02  0.15882698871E+03  0.11463127561E+03 0.  0.
         23    2    1    2    0    0 -0.46863585815E+02 -0.35267294203E+02 -0.34055802500E+03  0.35735991630E+03  0.91029465957E+02 0.  0.
          5    1    3    3  502    0 -0.10126668589E+02 -0.13424029983E+02 -0.80962919198E+02  0.82796260077E+02  0.41800000000E+01 0. -1.
         -5    1    3    3    0  502  0.56990254405E+02  0.48691324186E+02 -0.12019365555E+02  0.76030728632E+02  0.41800000000E+01 0.  1.
        -11    1    4    4    0    0 -0.73014609974E+02 -0.15858666347E+02 -0.21357456217E+03  0.22626693125E+03  0.00000000000E+00 0. -1.
         11    1    4    4    0    0  0.26151024158E+02 -0.19408627856E+02 -0.12698346283E+03  0.13109298506E+03  0.00000000000E+00 0.  1.
</event>
<event>
 8    1  0.4798744E-006  0.7538000E+02  0.7561462E-02  0.1342698E+00
         -2   -1    0    0    0  501 -0.00000000000E+00  0.00000000000E+00  0.38411773114E+03  0.38411773114E+03  0.00000000000E+00 0.  1.
          2   -1    0    0  501    0  0.00000000000E+00 -0.00000000000E+00 -0.39753751674E+02  0.39753751674E+02  0.00000000000E+00 0. -1.
         23    2    1    2    0    0 -0.55945428536E+02  0.15915153470E+02  0.20971158534E+03  0.25101791157E+03  0.12509140585E+03 0.  0.
         23    2    1    2    0    0  0.55945428536E+02 -0.15915153470E+02  0.13465239412E+03  0.17285357124E+03  0.91454397192E+02 0.  0.
          5    1    3    3  502    0 -0.42456517603E+02  0.41162111961E+02  0.21374175835E+03  0.22181047543E+03  0.41800000000E+01 0.  1.
         -5    1    3    3    0  502 -0.13488910933E+02 -0.25246958491E+02 -0.40301730076E+01  0.29207436136E+02  0.41800000000E+01 0.  1.
        -11    1    4    4    0    0  0.46565435025E+02 -0.21863750587E+02  0.14729797931E+03  0.15602262027E+03  0.00000000000E+00 0.  1.
         11    1    4    4    0    0  0.93799935106E+01  0.59485971169E+01 -0.12645585187E+02  0.16830950972E+02  0.00000000000E+00 0. -1.
</event>
<event>
 7    1  0.4798744E-006  0.1616345E+03  0.7561462E-02  0.1186864E+00
         -1   -1    0    0    0  501 -0.00000000000E+00  0.00000000000E+00  0.83602151045E+03  0.83602151045E+03  0.00000000000E+00 0.  1.
          1   -1    0    0  501    0  0.00000000000E+00 -0.00000000000E+00 -0.61982283727E+02  0.61982283727E+02  0.00000000000E+00 0. -1.
         23    2    1    2    0    0  0.18171654326E+02  0.48445632799E+02  0.10045377819E+03  0.14390445682E+03  0.89108601053E+02 0.  0.
          5    1    1    2  502    0  0.67698481963E+02 -0.11678516517E+03  0.94843509631E+02  0.16502915798E+03  0.41800000000E+01 0. -1.
         -5    1    1    2    0  502 -0.85870136288E+02  0.68339532369E+02  0.57874193890E+03  0.58907017938E+03  0.41800000000E+01 0.  1.
        -11    1    3    3    0    0  0.34620344403E+02  0.51106503694E+02  0.24944042132E+02  0.66578136083E+02  0.00000000000E+00 0.  1.
         11    1    3    3    0    0 -0.16448690078E+02 -0.26608708949E+01  0.75509736055E+02  0.77326320734E+02  0.00000000000E+00 0. -1.
</event>
<event>
 8    1  0.4798744E-006  0.1237084E+03  0.7561462E-02  0.1237102E+00
         -1   -1    0    0    0  501 -0.00000000000E+00  0.00000000000E+00  0.55856421686E+02  0.55856421686E+02  0.00000000000E+00 0.  1.
          1   -1    0    0  501    0  0.00000000000E+00 -0.00000000000E+00 -0.32066866408E+03  0.32066866408E+03  0.00000000000E+00 0. -1.
         23    2    1    2    0    0 -0.54280416650E+02  0.25596346355E+02 -0.75064790393E+02  0.15774495503E+03  0.12508881446E+03 0.  0.
         23    2    1    2    0    0  0.54280416650E+02 -0.25596346355E+02 -0.18974745201E+03  0.21878013074E+03  0.90879664863E+02 0.  0.
          5    1    3    3  502    0 -0.92744543997E+02  0.13095475105E+01 -0.46190031034E+02  0.10370273248E+03  0.41800000000E+01 0.  1.
         -5    1    3    3    0  502  0.38464127347E+02  0.24286798844E+02 -0.28874759359E+02  0.54042222556E+02  0.41800000000E+01 0.  1.
        -11    1    4    4    0    0 -0.15002622178E+02 -0.35837772896E+02 -0.65733776337E+02  0.76356754710E+02  0.00000000000E+00 0.  1.
         11    1    4    4    0    0  0.69283038828E+02  0.10241426542E+02 -0.12401367567E+03  0.14242337603E+03  0.00000000000E+00 0. -1.
</event>
<event>
 8    1  0.4798744E-006  0.1196571E+03  0.7561462E-02  0.1243664E+00
          2   -1    0    0  501    0  0.00000000000E+00  0.00000000000E+00  0.11875809519E+04  0.11875809519E+04  0.00000000000E+00 0. -1.
         -2   -1    0    0    0  501 -0.00000000000E+00 -0.00000000000E+00 -0.17871688530E+02  0.17871688530E+02  0.00000000000E+00 0.  1.
         23    2    1    2    0    0  0.27579237652E+02  0.92097256196E+02  0.63042224846E+03  0.64986307478E+03  0.12508911087E+03 0.  0.
         23    2    1    2    0    0 -0.27579237652E+02 -0.92097256196E+02  0.53928701490E+03  0.55558956564E+03  0.92772636393E+02 0.  0.
          5    1    3    3  502    0  0.25946457354E+02  0.97465696683E+01  0.21356712047E+02  0.35239123414E+02  0.41800000000E+01 0. -1.
         -5    1    3    3    0  502  0.16327802979E+01  0.82350686528E+02  0.60906553641E+03  0.61462395137E+03  0.41800000000E+01 0. -1.
        -11    1    4    4    0    0  0.28209259868E+02 -0.10784731046E+02  0.73203318991E+02  0.79188374635E+02  0.00000000000E+00 0. -1.
         11    1    4    4    0    0 -0.55788497520E+02 -0.81312525150E+02  0.46608369591E+03  0.47640119100E+03  0.00000000000E+00 0.  1.
</event>
<event>
 8    1  0.4798744E-006  0.9329242E+02  0.7561462E-02  0.1295069E+00
         -1   -1    0    0    0  501 -0.00000000000E+00  0.00000000000E+00  0.44485586160E+02  0.44485586160E+02  0.00000000000E+00 0.  1.
          1   -1    0    0  501    0  0.00000000000E+00 -0.00000000000E+00 -0.38128555596E+03  0.38128555596E+03  0.00000000000E+00 0. -1.
         23    2    1    2    0    0  0.12170610909E+02  0.48523613900E+02 -0.10289039998E+03  0.16951970807E+03  0.12509129522E+03 0.  0.
         23    2    1    2    0    0 -0.12170610909E+02 -0.48523613900E+02 -0.23390956982E+03  0.25625143405E+03  0.91915427017E+02 0.  0.
          5    1    3    3  502    0  0.45136175325E+02  0.25016135327E+02  0.70820142617E+01  0.52256183133E+02  0.41800000000E+01 0. -1.
         -5    1    3    3    0  502 -0.32965564416E+02  0.23507478573E+02 -0.10997241424E+03  0.11726352493E+03  0.41800000000E+01 0. -1.
        -11    1    4    4    0    0 -0.45925801578E+02 -0.20756483358E+02 -0.67753149845E+02  0.84442288967E+02  0.00000000000E+00 0.  1.
         11    1    4    4    0    0  0.33755190668E+02 -0.27767130542E+02 -0.16615641998E+03  0.17180914509E+03  0.00000000000E+00 0. -1.
</event>
<event>
 8    1  0.4798744E-006  0.8111385E+02  0.7561462E-02  0.1325920E+00
          1   -1    0    0  501    0  0.00000000000E+00  0.00000000000E+00  0.14747475229E+02  0.14747475229E+02  0.00000000000E+00 0. -1.
         -1   -1    0    0    0  501 -0.00000000000E+00 -0.00000000000E+00 -0.14281302735E+04  0.14281302735E+04  0.00000000000E+00 0.  1.
         23    2    1    2    0    0 -0.33899491434E+02  0.28395154857E+02 -0.11911716167E+04  0.11985380588E+04  0.12509275659E+03 0.  0.
         23    2    1    2    0    0  0.33899491434E+02 -0.28395154857E+02 -0.22221118157E+03  0.24433968988E+03  0.91480131692E+02 0.  0.
          5    1    3    3  502    0 -0.38586714354E+02  0.38055114170E+02 -0.19873218568E+03  0.20603174577E+03  0.41800000000E+01 0.  1.
         -5    1    3    3    0  502  0.46872229203E+01 -0.96599593132E+01 -0.99243943100E+03  0.99250631307E+03  0.41800000000E+01 0.  1.
        -11    1    4    4    0    0 -0.11324920454E+02  0.24359576944E+02 -0.31697167125E+02  0.41549406926E+02  0.00000000000E+00 0.  1.
         11    1    4    4    0    0  0.45224411888E+02 -0.52754731801E+02 -0.19051401445E+03  0.20279028295E+03  0.00000000000E+00 0. -1.
</event>
<event>
 8    1  0.4798744E-006  0.7185671E+02  0.7561462E-02  0.1353891E+00
          1   -1    0    0  501    0  0.00000000000E+00  0.00000000000E+00  0.27878701806E+03  0.27878701806E+03  0.00000000000E+00 0. -1.
         -1   -1    0    0    0  501 -0.00000000000E+00 -0.00000000000E+00 -0.60368723357E+02  0.60368723357E+02  0.00000000000E+00 0.  1.
         23    2    1    2    0    0  0.10332753019E+02  0.34948422740E+02  0.39569746786E+02  0.13616540246E+03  0.12508834450E+03 0.  0.
         23    2    1    2    0    0 -0.10332753019E+02 -0.34948422740E+02  0.17884854792E+03  0.20299033896E+03  0.88826328190E+02 0.  0.
          5    1    3    3  502    0  0.95481159106E+01 -0.40736615616E+01  0.79434502194E+02  0.80218911578E+02  0.41800000000E+01 0.  1.
         -5    1    3    3    0  502  0.78463710849E+00  0.39022084302E+02 -0.39864755408E+02  0.55946490886E+02  0.41800000000E+01 0.  1.
        -11    1    4    4    0    0  0.37808853595E+02 -0.20487444985E+02  0.58836651427E+02  0.72876583093E+02  0.00000000000E+00 0.  1.
         11    1    4    4    0    0 -0.48141606615E+02 -0.14460977755E+02  0.12001189649E+03  0.13011375586E+03  0.00000000000E+00 0. -1.
</event>
<event>
 8    1  0.4798744E-006  0.1215722E+03  0.7561462E-02  0.1240526E+00
         -2   -1    0    0    0  501 -0.00000000000E+00  0.00000000000E+00  0.31834920210E+02  0.31834920210E+02  0.00000000000E+00 0.  1.
          2   -1    0    0  501    0  0.00000000000E+00 -0.00000000000E+00 -0.61737613213E+03  0.61737613213E+03  0.00000000000E+00 0. -1.
         23    2    1    2    0    0  0.72850231267E+02  0.45549407652E+02 -0.27261208893E+03  0.31200281677E+03  0.12508597808E+03 0.  0.
         23    2    1    2    0    0 -0.72850231267E+02 -0.45549407652E+02 -0.31292912300E+03  0.33720823557E+03  0.91667079059E+02 0.  0.
          5    1    3    3  502    0 -0.18865146367E+02 -0.37920693659E+01  0.47923277499E+00  0.19697096273E+02  0.41800000000E+01 0.  1.
         -5    1    3    3    0  502  0.91715377634E+02  0.49341477018E+02 -0.27309132170E+03  0.29230572050E+03  0.41800000000E+01 0.  1.
        -11    1    4    4    0    0  0.78166010151E+01 -0.37329726935E+02 -0.15569018730E+03  0.16029361243E+03  0.00000000000E+00 0. -1.
         11    1    4    4    0    0 -0.80666832282E+02 -0.82196807163E+01 -0.15723893570E+03  0.17691462314E+03  0.00000000000E+00 0.  1.
</event>
<event>
 8    1  0.4798744E-006  0.7419657E+02  0.7561462E-02  0.1346377E+00
         -1   -1    0    0    0  501 -0.00000000000E+00  0.00000000000E+00  0.15405536445E+02  0.15405536445E+02  0.00000000000E+00 0.  1.
          1   -1    0    0  501    0  0.00000000000E+00 -0.00000000000E+00 -0.89344746944E+03  0.89344746944E+03  0.00000000000E+00 0. -1.
         23    2    1    2    0    0  0.42679613870E+02 -0.17121652143E+02 -0.48656631487E+03  0.50448895194E+03  0.12509046108E+03 0.  0.
         23    2    1    2    0    0 -0.42679613870E+02  0.17121652143E+02 -0.39147561812E+03  0.40436405394E+03  0.90235403933E+02 0.  0.
          5    1    3    3  502    0  0.32032190068E+02 -0.14999695811E+02 -0.26794132610E+02  0.44569608673E+02  0.41800000000E+01 0.  1.
         -5    1    3    3    0  502  0.10647423802E+02 -0.21219563319E+01 -0.45977218226E+03  0.45991934327E+03  0.41800000000E+01 0.  1.
        -11    1    4    4    0    0  0.78764749190E+01 -0.30614440425E+02 -0.13220152115E+03  0.13592838193E+03  0.00000000000E+00 0.  1.
         11    1    4    4    0    0 -0.50556088789E+02  0.47736092567E+02 -0.25927409697E+03  0.26843567201E+03  0.00000000000E+00 0. -1.
</event>
<event>
 8    1  0.4798744E-006  0.7558941E+02  0.7561462E-02  0.1342055E+00
          1   -1    0    0  501    0  0.00000000000E+00  0.00000000000E+00  0.34958865033E+03  0.34958865033E+03  0.00000000000E+00 0. -1.
         -1   -1    0    0    0  501 -0.00000000000E+00 -0.00000000000E+00 -0.66405503023E+02  0.66405503023E+02  0.00000000000E+00 0.  1.
         23    2    1    2    0    0 -0.45456871894E+02  0.38121307648E+02  0.31951183249E+02  0.14209244484E+03  0.12509925448E+03 0.  0.
         23    2    1    2    0    0  0.45456871894E+02 -0.38121307648E+02  0.25123196406E+03  0.27390170851E+03  0.91570108992E+02 0.  0.
          5    1    3    3  502    0 -0.19324263507E+02  0.12853786898E+02  0.79026081480E+02  0.82469636545E+02  0.41800000000E+01 0. -1.
         -5    1    3    3    0  502 -0.26132608387E+02  0.25267520751E+02 -0.47074898231E+02  0.59622808299E+02  0.41800000000E+01 0. -1.
        -11    1    4    4    0    0 -0.62856648251E+01 -0.38753731565E+02  0.18867464358E+03  0.19271606685E+03  0.00000000000E+00 0. -1.
         11    1    4    4    0    0  0.51742536719E+02  0.63242391658E+00  0.62557320478E+02  0.81185641658E+02  0.00000000000E+00 0.  1.
</event>
<event>
 7    1  0.4798744E-006  0.2127197E+03  0.7561462E-02  0.1139430E+00
          2   -1    0    0  501    0  0.00000000000E+00  0.00000000000E+00  0.53449891923E+03  0.53449891923E+03  0.00000000000E+00 0. -1.
         -2   -1    0    0    0  501 -0.00000000000E+00 -0.00000000000E+00 -0.10252198794E+03  0.10252198794E+03  0.00000000000E+00 0.  1.
         23    2    1    2    0    0  0.16649227836E+03  0.19122794470E+02  0.12284430680E+03  0.24253797358E+03  0.12509430401E+03 0.  0.
          5    1    3    3  502    0  0.43654134757E+02 -0.31252148308E+02 -0.98937780159E+01  0.54751616402E+02  0.41800000000E+01 0.  1.
         -5    1    3    3    0  502  0.12283814360E+03  0.50374942778E+02  0.13273808481E+03  0.18778635718E+03  0.41800000000E+01 0.  1.
        -11    1    1    2    0    0 -0.11095416494E+03  0.71839319522E+02  0.21449862475E+03  0.25195510427E+03  0.00000000000E+00 0. -1.
         11    1    1    2    0    0 -0.55538113413E+02 -0.90962113992E+02  0.94633999744E+02  0.14252782932E+03  0.00000000000E+00 0.  1.
</event>
<event>
 8    1  0.4798744E-006  0.1504944E+03  0.7561462E-02  0.1199867E+00
         -4   -1    0    0    0  501 -0.00000000000E+00  0.00000000000E+00  0.24121958470E+03  0.24121958470E+03  0.00000000000E+00 0.  1.
          4   -1    0    0  501    0  0.00000000000E+00 -0.00000000000E+00 -0.12982449532E+03  0.12982449532E+03  0.00000000000E+00 0. -1.
         23    2    1    2    0    0  0.10852203039E+03 -0.79064169855E+02  0.98324826944E+02  0.20819037011E+03  0.12508910655E+03 0.  0.
         23    2    1    2    0    0 -0.10852203039E+03  0.79064169855E+02  0.13070262435E+02  0.16285370991E+03  0.91226778072E+02 0.  0.
          5    1    3    3  502    0  0.77752489085E+01 -0.21161207595E+02 -0.28204114338E+02  0.36348255365E+02  0.41800000000E+01 0. -1.
         -5    1    3    3    0  502  0.10074678148E+03 -0.57902962260E+02  0.12652894128E+03  0.17184211474E+03  0.41800000000E+01 0. -1.
        -11    1    4    4    0    0 -0.30104101362E+02 -0.19471871239E+02 -0.26218851393E+01  0.35948365332E+02  0.00000000000E+00 0. -1.
         11    1    4    4    0    0 -0.78417929029E+02  0.98536041094E+02  0.15692147574E+02  0.12690534458E+03  0.00000000000E+00 0.  1.
</event>
<event>
 8    1  0.4798744E-006  0.1694523E+03  0.7561462E-02  0.1178420E+00
         -1   -1    0    0    0  501 -0.00000000000E+00  0.00000000000E+00  0.80440931624E+03  0.80440931624E+03  0.00000000000E+00 0.  1.
          1   -1    0    0  501    0  0.00000000000E+00 -0.00000000000E+00 -0.57470696587E+02  0.57470696587E+02  0.00000000000E+00 0. -1.
         23    2    1    2    0    0 -0.10719926982E+03  0.88076764356E+02  0.62632339262E+03  0.65358714121E+03  0.12508380849E+03 0.  0.
         23    2    1    2    0    0  0.10719926982E+03 -0.88076764356E+02  0.12061522703E+03  0.20829287161E+03  0.97921843849E+02 0.  0.
          5    1    3    3  502    0  0.15683393043E+02 -0.12112951169E+02  0.27732548270E+02  0.34340341246E+02  0.41800000000E+01 0. -1.
         -5    1    3    3    0  502 -0.12288266286E+03  0.10018971552E+03  0.59859084435E+03  0.61924679997E+03  0.41800000000E+01 0. -1.
        -11    1    4    4    0    0  0.96788895673E+02 -0.30418498813E+02  0.10834391531E+03  0.14843105935E+03  0.00000000000E+00 0. -1.
         11    1    4    4    0    0  0.10410374147E+02 -0.57658265543E+02  0.12271311716E+02  0.59861812256E+02  0.00000000000E+00 0.  1.
</event>
<event>
 8    1  0.4798744E-006  0.1243663E+03  0.7561462E-02  0.1236063E+00
          1   -1    0    0  501    0  0.00000000000E+00  0.00000000000E+00  0.19656314651E+03  0.19656314651E+03  0.00000000000E+00 0. -1.
         -1   -1    0    0    0  501 -0.00000000000E+00 -0.00000000000E+00 -0.11387050477E+03  0.11387050477E+03  0.00000000000E+00 0.  1.
         23    2    1    2    0    0  0.30926004836E+02  0.71001461609E+02 -0.23510518314E+02  0.14898948687E+03  0.12508995723E+03 0.  0.
         23    2    1    2    0    0 -0.30926004836E+02 -0.71001461609E+02  0.10620316005E+03  0.16144416441E+03  0.93741568640E+02 0.  0.
          5    1    3    3  502    0  0.51529655616E+02 -0.90989317184E+01  0.19095463872E+02  0.55858796145E+02  0.41800000000E+01 0.  1.
         -5    1    3    3    0  502 -0.20603650780E+02  0.80100393328E+02 -0.42605982186E+02  0.93130690724E+02  0.41800000000E+01 0.  1.
        -11    1    4    4    0    0 -0.57652118566E+02 -0.63284446169E+02  0.51051776005E+02  0.99674328367E+02  0.00000000000E+00 0.  1.
         11    1    4    4    0    0  0.26726113730E+02 -0.77170154398E+01  0.55151384047E+02  0.61769836042E+02  0.00000000000E+00 0. -1.
</event>
<event>
 8    1  0.4798744E-006  0.1137265E+03  0.7561462E-02  0.1253821E+00
         -2   -1    0    0    0  501 -0.00000000000E+00  0.00000000000E+00  0.62044883176E+02  0.62044883176E+02  0.00000000000E+00 0.  1.
          2   -1    0    0  501    0  0.00000000000E+00 -0.00000000000E+00 -0.27444545715E+03  0.27444545715E+03  0.00000000000E+00 0. -1.
         23    2    1    2    0    0  0.60110971621E+01 -0.61893465158E+02 -0.67655914588E+02  0.15521422672E+03  0.12508876480E+03 0.  0.
         23    2    1    2    0    0 -0.60110971621E+01  0.61893465158E+02 -0.14474465939E+03  0.18127611361E+03  0.89683212613E+02 0.  0.
          5    1    3    3  502    0  0.19960964330E+02  0.33288609959E+02 -0.37953926238E+02  0.54447631417E+02  0.41800000000E+01 0. -1.
         -5    1    3    3    0  502 -0.13949867168E+02 -0.95182075117E+02 -0.29701988351E+02  0.10076659531E+03  0.41800000000E+01 0. -1.
        -11    1    4    4    0    0  0.27419528030E+02  0.49277622850E+02 -0.36224899849E+02  0.67025055019E+02  0.00000000000E+00 0.  1.
         11    1    4    4    0    0 -0.33430625193E+02  0.12615842307E+02 -0.10851975954E+03  0.11425105859E+03  0.00000000000E+00 0. -1.
</event>
<event>
 8    1  0.4798744E-006  0.1203988E+03  0.7561462E-02  0.1242441E+00
          1   -1    0    0  501    0  0.00000000000E+00  0.00000000000E+00  0.26009846141E+02  0.26009846141E+02  0.00000000000E+00 0. -1.
         -1   -1    0    0    0  501 -0.00000000000E+00 -0.00000000000E+00 -0.77080376698E+03  0.77080376698E+03  0.00000000000E+00 0.  1.
         23    2    1    2    0    0  0.81480586440E+02 -0.39928721650E+02 -0.46790527672E+03  0.49276462230E+03  0.12509291039E+03 0.  0.
         23    2    1    2    0    0 -0.81480586440E+02  0.39928721650E+02 -0.27688864412E+03  0.30404899082E+03  0.86862413027E+02 0.  0.
          5    1    3    3  502    0 -0.21220913328E+02 -0.23213653002E+02 -0.33862020278E+02  0.46403767794E+02  0.41800000000E+01 0.  1.
         -5    1    3    3    0  502  0.10270149977E+03 -0.16715068648E+02 -0.43404325644E+03  0.44636085451E+03  0.41800000000E+01 0.  1.
        -11    1    4    4    0    0 -0.11186449082E+02  0.32351983498E+02 -0.18483288103E+03  0.18797601280E+03  0.00000000000E+00 0.  1.
         11    1    4    4    0    0 -0.70294137357E+02  0.75767381516E+01 -0.92055763094E+02  0.11607297802E+03  0.00000000000E+00 0. -1.
</event>
<event>
 8    1  0.4798744E-006  0.1111934E+03  0.7561462E-02  0.1258376E+00
          2   -1    0    0  501    0  0.00000000000E+00  0.00000000000E+00  0.53553822543E+03  0.53553822543E+03  0.00000000000E+00 0. -1.
         -2   -1    0    0    0  501 -0.00000000000E+00 -0.00000000000E+00 -0.38578570773E+02  0.38578570773E+02  0.00000000000E+00 0.  1.
         23    2    1    2    0    0 -0.13282358613E+02 -0.53186762060E+02  0.12330730545E+03  0.18400366797E+03  0.12508959005E+03 0.  0.
         23    2    1    2    0    0  0.13282358613E+02  0.53186762060E+02  0.37365234920E+03  0.39011312823E+03  0.97810643815E+02 0.  0.
          5    1    3    3  502    0  0.31837760258E+02 -0.61306440183E+02  0.11913763943E+03  0.13778015864E+03  0.41800000000E+01 0. -1.
         -5    1    3    3    0  502 -0.45120118871E+02  0.81196781231E+01  0.41696660180E+01  0.46223509326E+02  0.41800000000E+01 0. -1.
        -11    1    4    4    0    0  0.37272281277E+02 -0.10802683358E+02  0.19526555206E+03  0.19908429557E+03  0.00000000000E+00 0. -1.
         11    1    4    4    0    0 -0.23989922663E+02  0.63989445417E+02  0.17838679714E+03  0.19102883266E+03  0.00000000000E+00 0.  1.
</event>
<event>
 8    1  0.4798744E-006  0.1035024E+03  0.7561462E-02  0.1273099E+00
         -1   -1    0    0    0  501 -0.00000000000E+00  0.00000000000E+00  0.75351928478E+02  0.75351928478E+02  0.00000000000E+00 0.  1.
          1   -1    0    0  501    0  0.00000000000E+00 -0.00000000000E+00 -0.25196108283E+03  0.25196108283E+03  0.00000000000E+00 0. -1.
         23    2    1    2    0    0  0.58236362980E+02 -0.58349034166E+02 -0.12751704273E+03  0.19640941898E+03  0.12457921141E+03 0.  0.
         23    2    1    2    0    0 -0.58236362980E+02  0.58349034166E+02 -0.49092111617E+02  0.13090359233E+03  0.89048477244E+02 0.  0.
          5    1    3    3  502    0  0.44192418187E+02 -0.29318964054E+02  0.10832285420E+02  0.54289799095E+02  0.41800000000E+01 0. -1.
         -5    1    3    3    0  502  0.14043944794E+02 -0.29030070112E+02 -0.13834932815E+03  0.14211961989E+03  0.41800000000E+01 0. -1.
        -11    1    4    4    0    0 -0.41691009472E+02 -0.16347248930E+02 -0.16122376182E+02  0.47595208080E+02  0.00000000000E+00 0.  1.
         11    1    4    4    0    0 -0.16545353508E+02  0.74696283096E+02 -0.32969735435E+02  0.83308384246E+02  0.00000000000E+00 0. -1.
</event>
<event>
 8    1  0.4798744E-006  0.1024861E+03  0.7561462E-02  0.1275153E+00
         -1   -1    0    0    0  501 -0.00000000000E+00  0.00000000000E+00  0.20614063757E+02  0.20614063757E+02  0.00000000000E+00 0.  1.
          1   -1    0    0  501    0  0.00000000000E+00 -0.00000000000E+00 -0.64824146550E+03  0.64824146550E+03  0.00000000000E+00 0. -1.
         23    2    1    2    0    0 -0.21329566212E+01 -0.25710274321E+02 -0.27797133107E+03  0.30590158387E+03  0.12506858281E+03 0.  0.
         23    2    1    2    0    0  0.21329566212E+01  0.25710274321E+02 -0.34965607067E+03  0.36295394539E+03  0.93864961537E+02 0.  0.
          5    1    3    3  502    0 -0.55127677719E+02 -0.29113797480E+02 -0.21251101577E+03  0.22150638428E+03  0.41800000000E+01 0.  1.
         -5    1    3    3    0  502  0.52994721098E+02  0.34035231597E+01 -0.65460315306E+02  0.84395199592E+02  0.41800000000E+01 0.  1.
        -11    1    4    4    0    0  0.25737443829E+02 -0.23366774500E+02 -0.71326150970E+02  0.79346341929E+02  0.00000000000E+00 0.  1.
         11    1    4    4    0    0 -0.23604487208E+02  0.49077048821E+02 -0.27832991970E+03  0.28360760346E+03  0.00000000000E+00 0. -1.
</event>
<event>
 8    1  0.4798744E-006  0.1096097E+03  0.7561462E-02  0.1261294E+00
         -2   -1    0    0    0  501 -0.00000000000E+00  0.00000000000E+00  0.28214540274E+02  0.28214540274E+02  0.00000000000E+00 0.  1.
          2   -1    0    0  501    0  0.00000000000E+00 -0.00000000000E+00 -0.70453897938E+03  0.70453897938E+03  0.00000000000E+00 0. -1.
         23    2    1    2    0    0  0.85215702991E+02 -0.20619616810E+02 -0.31376229958E+03  0.34897101195E+03  0.12508837640E+03 0.  0.
         23    2    1    2    0    0 -0.85215702991E+02  0.20619616810E+02 -0.36256213953E+03  0.38378250770E+03  0.90281911628E+02 0.  0.
          5    1    3    3  502    0  0.41298996999E+02 -0.45674915920E+02 -0.28297259222E+03  0.28962521548E+03  0.41800000000E+01 0. -1.
         -5    1    3    3    0  502  0.43916705992E+02  0.25055299110E+02 -0.30789707357E+02  0.59345796464E+02  0.41800000000E+01 0. -1.
        -11    1    4    4    0    0 -0.49374671846E+02  0.42181278243E+02 -0.30938471833E+03  0.31612659235E+03  0.00000000000E+00 0.  1.
         11    1    4    4    0    0 -0.35841031145E+02 -0.21561661433E+02 -0.53177421196E+02  0.67655915354E+02  0.00000000000E+00 0. -1.
</event>
<event>
 8    1  0.4798744E-006  0.3449562E+03  0.7561462E-02  0.1064704E+00
         -1   -1    0    0    0  501 -0.00000000000E+00  0.00000000000E+00  0.11411699322E+03  0.11411699322E+03  0.00000000000E+00 0.  1.
          1   -1    0    0  501    0  0.00000000000E+00 -0.00000000000E+00 -0.11349882796E+04  0.11349882796E+04  0.00000000000E+00 0. -1.
         23    2    1    2    0    0 -0.43275361414E+02  0.33038010581E+03 -0.37846383551E+03  0.51952465169E+03  0.12508883921E+03 0.  0.
         23    2    1    2    0    0  0.43275361414E+02 -0.33038010581E+03 -0.64240745085E+03  0.72958062112E+03  0.92610898886E+02 0.  0.
          5    1    3    3  502    0 -0.78299277128E+02  0.24310427063E+03 -0.31697081604E+03  0.40708529059E+03  0.41800000000E+01 0. -1.
         -5    1    3    3    0  502  0.35023915714E+02  0.87275835183E+02 -0.61493019478E+02  0.11243936109E+03  0.41800000000E+01 0. -1.
        -11    1    4    4    0    0 -0.16339850307E+02 -0.30579651094E+02 -0.33275519306E+02  0.48055862849E+02  0.00000000000E+00 0.  1.
         11    1    4    4    0    0  0.59615211721E+02 -0.29980045472E+03 -0.60913193154E+03  0.68152475827E+03  0.00000000000E+00 0. -1.
</event>
<event>
 8    1  0.4798744E-006  0.9714245E+02  0.7561462E-02  0.1286422E+00
          4   -1    0    0  501    0  0.00000000000E+00  0.00000000000E+00  0.70923206945E+02  0.70923206945E+02  0.00000000000E+00 0. -1.
         -4   -1    0    0    0  501 -0.00000000000E+00 -0.00000000000E+00 -0.20841711655E+03  0.20841711655E+03  0.00000000000E+00 0.  1.
         23    2    1    2    0    0 -0.34764092408E+02  0.45408916161E+02 -0.82516739649E+02  0.16040891142E+03  0.12510593412E+03 0.  0.
         23    2    1    2    0    0  0.34764092408E+02 -0.45408916161E+02 -0.54977169955E+02  0.11893141207E+03  0.88609704737E+02 0.  0.
          5    1    3    3  502    0  0.16222499001E+02 -0.31261335604E+02 -0.52723348537E+02  0.63542619229E+02  0.41800000000E+01 0.  1.
         -5    1    3    3    0  502 -0.50986591409E+02  0.76670251765E+02 -0.29793391112E+02  0.96866292192E+02  0.41800000000E+01 0.  1.
        -11    1    4    4    0    0 -0.69934598100E+01 -0.73947579663E+01 -0.61272790320E+02  0.62112363979E+02  0.00000000000E+00 0.  1.
         11    1    4    4    0    0  0.41757552218E+02 -0.38014158195E+02  0.62956203653E+01  0.56819048094E+02  0.00000000000E+00 0. -1.
</event>
<event>
 8    1  0.4798744E-006  0.1358284E+03  0.7561462E-02  0.1219055E+00
          1   -1    0    0  501    0  0.00000000000E+00  0.00000000000E+00  0.44636061885E+03  0.44636061885E+03  0.00000000000E+00 0. -1.
         -1   -1    0    0    0  501 -0.00000000000E+00 -0.00000000000E+00 -0.69377274945E+02  0.69377274945E+02  0.00000000000E+00 0.  1.
         23    2    1    2    0    0  0.19446888089E+01  0.11305552673E+03  0.85305340838E+02  0.18897243301E+03  0.12509294675E+03 0.  0.
         23    2    1    2    0    0 -0.19446888089E+01 -0.11305552673E+03  0.29167800306E+03  0.32676546078E+03  0.94415438078E+02 0.  0.
          5    1    3    3  502    0  0.40875338946E+02  0.10459475522E+03  0.95682262829E+02  0.14759208642E+03  0.41800000000E+01 0. -1.
         -5    1    3    3    0  502 -0.38930650137E+02  0.84607715115E+01 -0.10376921991E+02  0.41380346599E+02  0.41800000000E+01 0. -1.
        -11    1    4    4    0    0  0.13629711594E+02 -0.16417400055E+02  0.25166911968E+01  0.21485664925E+02  0.00000000000E+00 0.  1.
         11    1    4    4    0    0 -0.15574400403E+02 -0.96638126673E+02  0.28916131187E+03  0.30527979585E+03  0.00000000000E+00 0. -1.
</event>
<event>
 8    1  0.4798744E-006  0.2768670E+03  0.7561462E-02  0.1097413E+00
          2   -1    0    0  501    0  0.00000000000E+00  0.00000000000E+00  0.41128248493E+03  0.41128248493E+03  0.00000000000E+00 0. -1.
         -2   -1    0    0    0  501 -0.00000000000E+00 -0.00000000000E+00 -0.21157735912E+03  0.21157735912E+03  0.00000000000E+00 0.  1.
         23    2    1    2    0    0 -0.22961710743E+03  0.13399192590E+03  0.17228520846E+03  0.34059782368E+03  0.12508729837E+03 0.  0.
         23    2    1    2    0    0  0.22961710743E+03 -0.13399192590E+03  0.27419917352E+02  0.28226202037E+03  0.90786254737E+02 0.  0.
          5    1    3    3  502    0 -0.20395606496E+02  0.63528468223E+02  0.12428262811E+02  0.67998390831E+02  0.41800000000E+01 0. -1.
         -5    1    3    3    0  502 -0.20922150093E+03  0.70463457674E+02  0.15985694565E+03  0.27259943285E+03  0.41800000000E+01 0. -1.
        -11    1    4    4    0    0  0.20209031301E+03 -0.12188793272E+03 -0.75728288631E+01  0.23612393037E+03  0.00000000000E+00 0.  1.
         11    1    4    4    0    0  0.27526794416E+02 -0.12103993176E+02  0.34992746215E+02  0.46138090005E+02  0.00000000000E+00 0. -1.
</event>
<event>
 8    1  0.4798744E-006  0.1592685E+03  0.7561462E-02  0.1189525E+00
         -2   -1    0    0    0  501 -0.00000000000E+00  0.00000000000E+00  0.99939754133E+02  0.99939754133E+02  0.00000000000E+00 0.  1.
          2   -1    0    0  501    0  0.00000000000E+00 -0.00000000000E+00 -0.27459363746E+03  0.27459363746E+03  0.00000000000E+00 0. -1.
         23    2    1    2    0    0 -0.67230314802E+02  0.10383674564E+03 -0.75571893262E+02  0.19147531477E+03  0.12509876155E+03 0.  0.
         23    2    1    2    0    0  0.67230314802E+02 -0.10383674564E+03 -0.99081990065E+02  0.18305807682E+03  0.91602585994E+02 0.  0.
          5    1    3    3  502    0  0.23407422786E+02  0.70433822893E+02 -0.10853732786E+02  0.75127270443E+02  0.41800000000E+01 0.  1.
         -5    1    3    3    0  502 -0.90637737589E+02  0.33402922750E+02 -0.64718160476E+02  0.11634804433E+03  0.41800000000E+01 0.  1.
        -11    1    4    4    0    0 -0.43482247711E+01 -0.66756126559E+02 -0.19266779717E+02  0.69616781687E+02  0.00000000000E+00 0.  1.
         11    1    4    4    0    0  0.71578539573E+02 -0.37080619083E+02 -0.79815210348E+02  0.11344129513E+03  0.00000000000E+00 0. -1.
</event>
<event>
 8    1  0.4798744E-006  0.1813380E+03  0.7561462E-02  0.1166514E+00
         -2   -1    0    0    0  501 -0.00000000000E+00  0.00000000000E+00  0.43282312478E+02  0.43282312478E+02  0.00000000000E+00 0.  1.
          2   -1    0    0  501    0  0.00000000000E+00 -0.00000000000E+00 -0.82940413163E+03  0.82940413163E+03  0.00000000000E+00 0. -1.
         23    2    1    2    0    0 -0.14306075925E+03  0.33738310501E+02 -0.30155669179E+03  0.35803501734E+03  0.12509188961E+03 0.  0.
         23    2    1    2    0    0  0.14306075925E+03 -0.33738310501E+02 -0.48456512736E+03  0.51465142677E+03  0.91967787766E+02 0.  0.
          5    1    3    3  502    0 -0.13448729095E+03  0.71355307072E+02 -0.25883444567E+03  0.30031842091E+03  0.41800000000E+01 0.  1.
         -5    1    3    3    0  502 -0.85734682971E+01 -0.37616996571E+02 -0.42722246120E+02  0.57716596428E+02  0.41800000000E+01 0.  1.
        -11    1    4    4    0    0  0.98487301250E+02 -0.64212723907E+02 -0.36478063598E+03  0.38325961802E+03  0.00000000000E+00 0.  1.
         11    1    4    4    0    0  0.44573457996E+02  0.30474413405E+02 -0.11978449138E+03  0.13139180874E+03  0.00000000000E+00 0. -1.
</event>
<event>
 8    1  0.4798744E-006  0.1635840E+03  0.7561462E-02  0.1184709E+00
         -1   -1    0    0    0  501 -0.00000000000E+00  0.00000000000E+00  0.37649607320E+02  0.37649607320E+02  0.00000000000E+00 0.  1.
          1   -1    0    0  501    0  0.00000000000E+00 -0.00000000000E+00 -0.10425700332E+04  0.10425700332E+04  0.00000000000E+00 0. -1.
         23    2    1    2    0    0 -0.15551843099E+03  0.10206677230E+02 -0.37654290901E+03  0.42628887290E+03  0.12508989647E+03 0.  0.
         23    2    1    2    0    0  0.15551843099E+03 -0.10206677230E+02 -0.62837751684E+03  0.65393076759E+03  0.92070551703E+02 0.  0.
          5    1    3    3  502    0 -0.11369360104E+03  0.38084768548E+02 -0.34851292059E+03  0.36858569252E+03  0.41800000000E+01 0. -1.
         -5    1    3    3    0  502 -0.41824829941E+02 -0.27878091318E+02 -0.28029988418E+02  0.57703180378E+02  0.41800000000E+01 0. -1.
        -11    1    4    4    0    0  0.10992478634E+02 -0.51527668846E+01 -0.36403003749E+01  0.12674280252E+02  0.00000000000E+00 0.  1.
         11    1    4    4    0    0  0.14452595235E+03 -0.50539103451E+01 -0.62473721646E+03  0.64125648733E+03  0.00000000000E+00 0. -1.
</event>
<event>
 8    1  0.4798744E-006  0.9922425E+02  0.7561462E-02  0.1281936E+00
          1   -1    0    0  501    0  0.00000000000E+00  0.00000000000E+00  0.85442908492E+03  0.85442908492E+03  0.00000000000E+00 0. -1.
         -1   -1    0    0    0  501 -0.00000000000E+00 -0.00000000000E+00 -0.15961143368E+02  0.15961143368E+02  0.00000000000E+00 0.  1.
         23    2    1    2    0    0  0.32360717982E+02  0.12435669099E+02  0.38134267216E+03  0.40282798531E+03  0.12508513185E+03 0.  0.
         23    2    1    2    0    0 -0.32360717982E+02 -0.12435669099E+02  0.45712526940E+03  0.46756224297E+03  0.91918862051E+02 0.  0.
          5    1    3    3  502    0  0.58840105633E+02  0.31922601148E+02  0.10559553769E+03  0.12509636476E+03  0.41800000000E+01 0.  1.
         -5    1    3    3    0  502 -0.26479387652E+02 -0.19486932049E+02  0.27574713447E+03  0.27773162056E+03  0.41800000000E+01 0.  1.
        -11    1    4    4    0    0  0.27262355705E+02  0.16598679805E+02  0.14641565739E+03  0.14985425232E+03  0.00000000000E+00 0. -1.
         11    1    4    4    0    0 -0.59623073686E+02 -0.29034348903E+02  0.31070961201E+03  0.31770799065E+03  0.00000000000E+00 0.  1.
</event>
<event>
 8    1  0.4798744E-006  0.1042843E+03  0.7561462E-02  0.1271536E+00
          1   -1    0    0  501    0  0.00000000000E+00  0.00000000000E+00  0.73766651675E+02  0.73766651675E+02  0.00000000000E+00 0. -1.
         -1   -1    0    0    0  501 -0.00000000000E+00 -0.00000000000E+00 -0.33077444233E+03  0.33077444233E+03  0.00000000000E+00 0.  1.
         23    2    1    2    0    0 -0.26103489753E+02 -0.36552730103E+02 -0.26351706208E+03  0.29513427903E+03  0.12508199868E+03 0.  0.
         23    2    1    2    0    0  0.26103489753E+02  0.36552730103E+02  0.65092714304E+01  0.10940681497E+03  0.99548914071E+02 0.  0.
          5    1    3    3  502    0 -0.69526543098E+02 -0.46615431894E+02 -0.13353013596E+03  0.15765376081E+03  0.41800000000E+01 0. -1.
         -5    1    3    3    0  502  0.43423053345E+02  0.10062701791E+02 -0.12998692612E+03  0.13748051822E+03  0.41800000000E+01 0. -1.
        -11    1    4    4    0    0  0.48213197124E+02  0.30550876465E+02  0.39376825199E+02  0.69342647717E+02  0.00000000000E+00 0. -1.
         11    1    4    4    0    0 -0.22109707372E+02  0.60018536380E+01 -0.32867553768E+02  0.40064167255E+02  0.00000000000E+00 0.  1.
</event>
<event>
 8    1  0.4798744E-006  0.1303123E+03  0.7561462E-02  0.1226993E+00
          1   -1    0    0  501    0  0.00000000000E+00  0.00000000000E+00  0.35203279196E+03  0.35203279196E+03  0.00000000000E+00 0. -1.
         -1   -1    0    0    0  501 -0.00000000000E+00 -0.00000000000E+00 -0.52045644883E+02  0.52045644883E+02  0.00000000000E+00 0.  1.
         23    2    1    2    0    0  0.25040387538E+02  0.68217012379E+02  0.11191552199E+03  0.18290108290E+03  0.12508852976E+03 0.  0.
         23    2    1    2    0    0 -0.25040387538E+02 -0.68217012379E+02  0.18807162508E+03  0.22117735395E+03  0.90928015216E+02 0.  0.
          5    1    3    3  502    0  0.53665696182E+02 -0.15374807573E+02  0.38423227468E+02  0.67898515916E+02  0.41800000000E+01 0.  1.
         -5    1    3    3    0  502 -0.28625308644E+02  0.83591819952E+02  0.73492294527E+02  0.11500256698E+03  0.41800000000E+01 0.  1.
        -11    1    4    4    0    0  0.19281688996E+02 -0.69218753213E+02  0.12268721086E+03  0.14218006553E+03  0.00000000000E+00 0. -1.
         11    1    4    4    0    0 -0.44322076534E+02  0.10017408341E+01  0.65384414224E+02  0.78997288411E+02  0.00000000000E+00 0.  1.
</event>
<event>
 8    1  0.4798744E-006  0.1340732E+03  0.7561462E-02  0.1221534E+00
         -2   -1    0    0    0  501 -0.00000000000E+00  0.00000000000E+00  0.43903311886E+03  0.43903311886E+03  0.00000000000E+00 0.  1.
          2   -1    0    0  501    0  0.00000000000E+00 -0.00000000000E+00 -0.46372213197E+02  0.46372213197E+02  0.00000000000E+00 0. -1.
         23    2    1    2    0    0 -0.32142442477E+02  0.83843059385E+02  0.25016030721E+03  0.29375312476E+03  0.12509166154E+03 0.  0.
         23    2    1    2    0    0  0.32142442477E+02 -0.83843059385E+02  0.14250059845E+03  0.19165220729E+03  0.91440433002E+02 0.  0.
          5    1    3    3  502    0 -0.61284403182E+02 -0.19424015750E+01  0.12376998230E+03  0.13818839284E+03  0.41800000000E+01 0.  1.
         -5    1    3    3    0  502  0.29141960705E+02  0.85785460960E+02  0.12639032491E+03  0.15556473192E+03  0.41800000000E+01 0.  1.
        -11    1    4    4    0    0 -0.23362694217E+02 -0.15903451964E+02  0.77422615093E+02  0.82419637182E+02  0.00000000000E+00 0.  1.
         11    1    4    4    0    0  0.55505136694E+02 -0.67939607420E+02  0.65077983354E+02  0.10923257011E+03  0.00000000000E+00 0. -1.
</event>
<event>
 8    1  0.4798744E-006  0.1111580E+03  0.7561462E-02  0.1258440E+00
          1   -1    0    0  501    0  0.00000000000E+00  0.00000000000E+00  0.21045557078E+02  0.21045557078E+02  0.00000000000E+00 0. -1.
         -1   -1    0    0    0  501 -0.00000000000E+00 -0.00000000000E+00 -0.87964046107E+03  0.87964046107E+03  0.00000000000E+00 0.  1.
         23    2    1    2    0    0 -0.25162313901E+02 -0.60622590959E+02 -0.63582346049E+03  0.65132748733E+03  0.12509109588E+03 0.  0.
         23    2    1    2    0    0  0.25162313901E+02  0.60622590959E+02 -0.22277144351E+03  0.24935853082E+03  0.90798239388E+02 0.  0.
          5    1    3    3  502    0 -0.54917634889E+02 -0.74601673690E+02 -0.30335487744E+03  0.31721130246E+03  0.41800000000E+01 0.  1.
         -5    1    3    3    0  502  0.29755320988E+02  0.13979082731E+02 -0.33246858304E+03  0.33411618487E+03  0.41800000000E+01 0.  1.
        -11    1    4    4    0    0  0.46374384250E+01  0.72556122676E+02 -0.96220034252E+02  0.12059930250E+03  0.00000000000E+00 0. -1.
         11    1    4    4    0    0  0.20524875476E+02 -0.11933531717E+02 -0.12655140926E+03  0.12875922832E+03  0.00000000000E+00 0.  1.
</event>
<event>
 8    1  0.4798744E-006  0.4385192E+02  0.7561462E-02  0.1481639E+00
          2   -1    0    0  501    0  0.00000000000E+00  0.00000000000E+00  0.86142471188E+02  0.86142471188E+02  0.00000000000E+00 0. -1.
         -2   -1    0    0    0  501 -0.00000000000E+00 -0.00000000000E+00 -0.19902693948E+03  0.19902693948E+03  0.00000000000E+00 0.  1.
         23    2    1    2    0    0  0.31239024137E+02  0.74514060431E+01 -0.13391186459E+03  0.18603732529E+03  0.12508436689E+03 0.  0.
         23    2    1    2    0    0 -0.31239024137E+02 -0.74514060431E+01  0.21027396297E+02  0.99132085383E+02  0.91398133878E+02 0.  0.
          5    1    3    3  502    0  0.13464801578E+02  0.77308263284E+01  0.23001818170E+02  0.28064614666E+02  0.41800000000E+01 0. -1.
         -5    1    3    3    0  502  0.17774222559E+02 -0.27942028532E+00 -0.15691368276E+03  0.15797271062E+03  0.41800000000E+01 0. -1.
        -11    1    4    4    0    0 -0.25561999355E+02  0.15383104617E+02  0.52171213381E+02  0.60099011842E+02  0.00000000000E+00 0. -1.
         11    1    4    4    0    0 -0.56770247814E+01 -0.22834510660E+02 -0.31143817085E+02  0.39033073541E+02  0.00000000000E+00 0.  1.
</event>
<event>
 8    1  0.4798744E-006  0.1777730E+03  0.7561462E-02  0.1169976E+00
          2   -1    0    0  501    0  0.00000000000E+00  0.00000000000E+00  0.66045981212E+03  0.66045981212E+03  0.00000000000E+00 0.  1.
         -2   -1    0    0    0  501 -0.00000000000E+00 -0.00000000000E+00 -0.83422845034E+02  0.83422845034E+02  0.00000000000E+00 0. -1.
         23    2    1    2    0    0  0.76983467445E+02 -0.14057370919E+03  0.88469579598E+02  0.22172441137E+03  0.12508967228E+03 0.  0.
         23    2    1    2    0    0 -0.76983467445E+02  0.14057370919E+03  0.48856738749E+03  0.52215824578E+03  0.90905002853E+02 0.  0.
          5    1    3    3  502    0  0.10012238305E+03 -0.73730838486E+02  0.25647117559E+02  0.12702745833E+03  0.41800000000E+01 0.  1.
         -5    1    3    3    0  502 -0.23138915603E+02 -0.66842870702E+02  0.62822462039E+02  0.94696953043E+02  0.41800000000E+01 0.  1.
        -11    1    4    4    0    0 -0.60878472298E+02  0.11023186994E+03  0.46165210888E+03  0.47851846691E+03  0.00000000000E+00 0.  1.
         11    1    4    4    0    0 -0.16104995147E+02  0.30341839245E+02  0.26915278616E+02  0.43639778877E+02  0.00000000000E+00 0. -1.
</event>
<event>
 8    1  0.4798744E-006  0.1909548E+03  0.7561462E-02  0.1157603E+00
          2   -1    0    0  501    0  0.00000000000E+00  0.00000000000E+00  0.57285330114E+03  0.57285330114E+03  0.00000000000E+00 0.  1.
         -2   -1    0    0    0  501 -0.00000000000E+00 -0.00000000000E+00 -0.96884948570E+02  0.96884948570E+02  0.00000000000E+00 0. -1.
         23    2    1    2    0    0 -0.14535689415E+03 -0.98675903140E+02  0.91505923928E+02  0.23427847862E+03  0.12509001117E+03 0.  0.
         23    2    1    2    0    0  0.14535689415E+03  0.98675903140E+02  0.38446242864E+03  0.43545977109E+03  0.10463408939E+03 0.  0.
          5    1    3    3  502    0 -0.15814964144E+03 -0.10414975696E+03  0.10313539983E+03  0.21566841229E+03  0.41800000000E+01 0. -1.
         -5    1    3    3    0  502  0.12792747296E+02  0.54738538166E+01 -0.11629475905E+02  0.18610066330E+02  0.41800000000E+01 0. -1.
        -11    1    4    4    0    0  0.34036834552E+02  0.38642613340E+02  0.31130234187E+02  0.60173492109E+02  0.00000000000E+00 0. -1.
         11    1    4    4    0    0  0.11132005959E+03  0.60033289800E+02  0.35333219445E+03  0.37528627898E+03  0.00000000000E+00 0.  1.
</event>
<event>
 7    1  0.4798744E-006  0.2254729E+03  0.7561462E-02  0.1129867E+00
         -2   -1    0    0    0  501 -0.00000000000E+00  0.00000000000E+00  0.67329692699E+03  0.67329692699E+03  0.00000000000E+00 0.  1.
          2   -1    0    0  501    0  0.00000000000E+00 -0.00000000000E+00 -0.88889537674E+02  0.88889537674E+02  0.00000000000E+00 0. -1.
         23    2    1    2    0    0 -0.99663690473E+01 -0.12553802052E+03  0.15611056810E+03  0.22035589809E+03  0.91252886198E+02 0.  0.
          5    1    1    2  502    0 -0.84603272817E+02  0.17084211726E+03  0.14450689539E+03  0.23925814096E+03  0.41800000000E+01 0. -1.
         -5    1    1    2    0  502  0.94569641865E+02 -0.45304096744E+02  0.28378992582E+03  0.30257242561E+03  0.41800000000E+01 0.  1.
        -11    1    3    3    0    0 -0.22875208561E+02  0.55918290539E+01  0.27892736695E+02  0.36504088527E+02  0.00000000000E+00 0.  1.
         11    1    3    3    0    0  0.12908839514E+02 -0.13112984957E+03  0.12821783141E+03  0.18385180956E+03  0.00000000000E+00 0. -1.
</event>
<event>
 8    1  0.4798744E-006  0.1420657E+03  0.7561462E-02  0.1210576E+00
         -2   -1    0    0    0  501 -0.00000000000E+00  0.00000000000E+00  0.96611570042E+03  0.96611570042E+03  0.00000000000E+00 0.  1.
          2   -1    0    0  501    0  0.00000000000E+00 -0.00000000000E+00 -0.25492662677E+02  0.25492662677E+02  0.00000000000E+00 0. -1.
         23    2    1    2    0    0 -0.93458964185E+02  0.44272162261E+02  0.64956176463E+03  0.66953160223E+03  0.12508987959E+03 0.  0.
         23    2    1    2    0    0  0.93458964185E+02 -0.44272162261E+02  0.29106127311E+03  0.32207676087E+03  0.91225943939E+02 0.  0.
          5    1    3    3  502    0  0.59311516711E+01  0.47133664592E+02  0.36430947778E+03  0.36741751305E+03  0.41800000000E+01 0. -1.
         -5    1    3    3    0  502 -0.99390115856E+02 -0.28615023306E+01  0.28525228685E+03  0.30211408918E+03  0.41800000000E+01 0. -1.
        -11    1    4    4    0    0 -0.35347304447E+01 -0.39662982961E+02  0.68092028656E+02  0.78880738480E+02  0.00000000000E+00 0.  1.
         11    1    4    4    0    0  0.96993694630E+02 -0.46091793002E+01  0.22296924446E+03  0.24319602239E+03  0.00000000000E+00 0. -1.
</event>
<event>
 8    1  0.4798744E-006  0.1209986E+03  0.7561462E-02  0.1241459E+00
         -2   -1    0    0    0  501 -0.00000000000E+00  0.00000000000E+00  0.33066344518E+02  0.33066344518E+02  0.00000000000E+00 0.  1.
          2   -1    0    0  501    0  0.00000000000E+00 -0.00000000000E+00 -0.47832446722E+03  0.47832446722E+03  0.00000000000E+00 0. -1.
         23    2    1    2    0    0  0.48254210619E+02 -0.36287044971E+02 -0.21879594990E+03  0.25916537374E+03  0.12509917976E+03 0.  0.
         23    2    1    2    0    0 -0.48254210619E+02  0.36287044971E+02 -0.22646217281E+03  0.25222543800E+03  0.93205887094E+02 0.  0.
          5    1    3    3  502    0  0.42875333528E+02 -0.81714643955E+02 -0.13450878993E+03  0.16317372408E+03  0.41800000000E+01 0.  1.
         -5    1    3    3    0  502  0.53788770913E+01  0.45427598984E+02 -0.84287159969E+02  0.95991649657E+02  0.41800000000E+01 0.  1.
        -11    1    4    4    0    0  0.20328654410E+02 -0.82209080956E+01 -0.18225067106E+02  0.28512989866E+02  0.00000000000E+00 0.  1.
         11    1    4    4    0    0 -0.68582865029E+02  0.44507953066E+02 -0.20823710570E+03  0.22371244814E+03  0.00000000000E+00 0. -1.
</event>
<event>
 8    1  0.4798744E-006  0.1328472E+03  0.7561462E-02  0.1223291E+00
          4   -1    0    0  501    0  0.00000000000E+00  0.00000000000E+00  0.84096253079E+03  0.84096253079E+03  0.00000000000E+00 0. -1.
         -4   -1    0    0    0  501 -0.00000000000E+00 -0.00000000000E+00 -0.24336103672E+02  0.24336103672E+02  0.00000000000E+00 0.  1.
         23    2    1    2    0    0  0.59526191896E+02  0.67548360591E+02  0.36231325529E+03  0.39373063875E+03  0.12508705925E+03 0.  0.
         23    2    1    2    0    0 -0.59526191896E+02 -0.67548360591E+02  0.45431317183E+03  0.47156799572E+03  0.88711712547E+02 0.  0.
          5    1    3    3  502    0 -0.29306123880E+02 -0.13901859867E+02  0.95078958767E+02  0.10054646391E+03  0.41800000000E+01 0.  1.
         -5    1    3    3    0  502  0.88832315777E+02  0.81450220457E+02  0.26723429652E+03  0.29318417484E+03  0.41800000000E+01 0.  1.
        -11    1    4    4    0    0  0.66796937244E+00 -0.49570264850E+02  0.98723457106E+02  0.11047161773E+03  0.00000000000E+00 0.  1.
         11    1    4    4    0    0 -0.60194161269E+02 -0.17978095741E+02  0.35558971473E+03  0.36109637799E+03  0.00000000000E+00 0. -1.
</event>
<event>
 8    1  0.4798744E-006  0.1337664E+03  0.7561462E-02  0.1221972E+00
          2   -1    0    0  501    0  0.00000000000E+00  0.00000000000E+00  0.31464697039E+03  0.31464697039E+03  0.00000000000E+00 0. -1.
         -2   -1    0    0    0  501 -0.00000000000E+00 -0.00000000000E+00 -0.68664206827E+02  0.68664206827E+02  0.00000000000E+00 0.  1.
         23    2    1    2    0    0  0.67920074760E+02 -0.71166459354E+02  0.11467750881E+03  0.19615372191E+03  0.12509016787E+03 0.  0.
         23    2    1    2    0    0 -0.67920074760E+02  0.71166459354E+02  0.13130525475E+03  0.18715745531E+03  0.90050217435E+02 0.  0.
          5    1    3    3  502    0 -0.78965888988E+01  0.16281410282E+02  0.69337053469E+02  0.71781194061E+02  0.41800000000E+01 0.  1.
         -5    1    3    3    0  502  0.75816663659E+02 -0.87447869636E+02  0.45340455341E+02  0.12437252785E+03  0.41800000000E+01 0.  1.
        -11    1    4    4    0    0  0.12059072481E+02  0.48559685803E+02  0.44191972607E+02  0.66756233846E+02  0.00000000000E+00 0.  1.
         11    1    4    4    0    0 -0.79979147242E+02  0.22606773551E+02  0.87113282147E+02  0.12040122147E+03  0.00000000000E+00 0. -1.
</event>
<event>
 8    1  0.4798744E-006  0.1325140E+03  0.7561462E-02  0.1223772E+00
         -1   -1    0    0    0  501 -0.00000000000E+00  0.00000000000E+00  0.13774290831E+03  0.13774290831E+03  0.00000000000E+00 0.  1.
          1   -1    0    0  501    0  0.00000000000E+00 -0.00000000000E+00 -0.15583365447E+03  0.15583365447E+03  0.00000000000E+00 0. -1.
         23    2    1    2    0    0 -0.75914251140E+02 -0.49089611845E+01  0.49626110196E+02  0.15457101316E+03  0.12506948416E+03 0.  0.
         23    2    1    2    0    0  0.75914251140E+02  0.49089611845E+01 -0.67716856355E+02  0.13900554962E+03  0.94603904589E+02 0.  0.
          5    1    3    3  502    0  0.25926281913E+02  0.27482476389E+02  0.22736388672E+02  0.44293051059E+02  0.41800000000E+01 0.  1.
         -5    1    3    3    0  502 -0.10184053305E+03 -0.32391437574E+02  0.26889721524E+02  0.11027796210E+03  0.41800000000E+01 0.  1.
        -11    1    4    4    0    0  0.62837034548E+02  0.45396093151E+02 -0.33682454149E+02  0.84521038219E+02  0.00000000000E+00 0.  1.
         11    1    4    4    0    0  0.13077216592E+02 -0.40487131967E+02 -0.34034402206E+02  0.54484511397E+02  0.00000000000E+00 0. -1.
</event>
<event>
 7    1  0.4798744E-006  0.3628972E+03  0.7561462E-02  0.1057443E+00
         -3   -1    0    0    0  501 -0.00000000000E+00  0.00000000000E+00  0.24180282992E+04  0.24180282992E+04  0.00000000000E+00 0.  1.
          3   -1    0    0  501    0  0.00000000000E+00 -0.00000000000E+00 -0.12149184355E+03  0.12149184355E+03  0.00000000000E+00 0. -1.
         23    2    1    2    0    0 -0.42498183043E+02 -0.13575779075E+03  0.19597067880E+02  0.16991648195E+03  0.90836625075E+02 0.  0.
          5    1    1    2  502    0  0.73911608067E+02 -0.20966350005E+03  0.37235905879E+03  0.43369395905E+03  0.41800000000E+01 0. -1.
         -5    1    1    2    0  502 -0.31413425025E+02  0.34542129080E+03  0.19045803290E+04  0.19359097018E+04  0.41800000000E+01 0.  1.
        -11    1    3    3    0    0 -0.85051230598E+00 -0.10449239011E+03 -0.17534865923E+02  0.10595685200E+03  0.00000000000E+00 0.  1.
         11    1    3    3    0    0 -0.41647670737E+02 -0.31265400642E+02  0.37131933803E+02  0.63959629948E+02  0.00000000000E+00 0. -1.
</event>
<event>
 8    1  0.4798744E-006  0.1078330E+03  0.7561462E-02  0.1264636E+00
         -3   -1    0    0    0  501 -0.00000000000E+00  0.00000000000E+00  0.32951434744E+02  0.32951434744E+02  0.00000000000E+00 0.  1.
          3   -1    0    0  501    0  0.00000000000E+00 -0.00000000000E+00 -0.38966396289E+03  0.38966396289E+03  0.00000000000E+00 0. -1.
         23    2    1    2    0    0  0.19244463004E+02 -0.33629689203E+02 -0.20735379558E+03  0.24524381606E+03  0.12509047694E+03 0.  0.
         23    2    1    2    0    0 -0.19244463004E+02  0.33629689203E+02 -0.14935873256E+03  0.17737158157E+03  0.87471947527E+02 0.  0.
          5    1    3    3  502    0  0.38722303149E+02  0.33192275557E+02 -0.43472364672E+02  0.67145087743E+02  0.41800000000E+01 0.  1.
         -5    1    3    3    0  502 -0.19477840145E+02 -0.66821964760E+02 -0.16388143091E+03  0.17809872832E+03  0.41800000000E+01 0.  1.
        -11    1    4    4    0    0 -0.33908438675E+02  0.57498318168E+02 -0.11575493037E+03  0.13362276270E+03  0.00000000000E+00 0. -1.
         11    1    4    4    0    0  0.14663975671E+02 -0.23868628965E+02 -0.33603802187E+02  0.43748818871E+02  0.00000000000E+00 0.  1.
</event>
<event>
 8    1  0.4798744E-006  0.9632176E+02  0.7561462E-02  0.1288227E+00
         -2   -1    0    0    0  501 -0.00000000000E+00  0.00000000000E+00  0.30139771670E+03  0.30139771670E+03  0.00000000000E+00 0. -1.
          2   -1    0    0  501    0  0.00000000000E+00 -0.00000000000E+00 -0.48448679359E+02  0.48448679359E+02  0.00000000000E+00 0.  1.
         23    2    1    2    0    0 -0.36945792440E+02  0.41478374942E+02  0.21098653968E+03  0.25147975522E+03  0.12506518378E+03 0.  0.
         23    2    1    2    0    0  0.36945792440E+02 -0.41478374942E+02  0.41962497655E+02  0.98366640831E+02  0.69496026161E+02 0.  0.
          5    1    3    3  502    0 -0.72890873322E+02 -0.10238498559E+02  0.11401160278E+03  0.13577195673E+03  0.41800000000E+01 0.  1.
         -5    1    3    3    0  502  0.35945080882E+02  0.51716873501E+02  0.96974936906E+02  0.11570779849E+03  0.41800000000E+01 0.  1.
        -11    1    4    4    0    0  0.20428327393E+02 -0.18956349360E+02 -0.17335433904E+02  0.32820374919E+02  0.00000000000E+00 0.  1.
         11    1    4    4    0    0  0.16517465047E+02 -0.22522025582E+02  0.59297931559E+02  0.65546265913E+02  0.00000000000E+00 0. -1.
</event>
<event>
 8    1  0.4798744E-006  0.9178039E+02  0.7561462E-02  0.1298597E+00
          2   -1    0    0  501    0  0.00000000000E+00  0.00000000000E+00  0.38094992200E+02  0.38094992200E+02  0.00000000000E+00 0. -1.
         -2   -1    0    0    0  501 -0.00000000000E+00 -0.00000000000E+00 -0.32925672249E+03  0.32925672249E+03  0.00000000000E+00 0.  1.
         23    2    1    2    0    0 -0.52024453651E+02 -0.16153136239E+02 -0.23220336918E+03  0.26887029343E+03  0.12411834048E+03 0.  0.
         23    2    1    2    0    0  0.52024453651E+02  0.16153136239E+02 -0.58958361116E+02  0.98481421263E+02  0.57052908782E+02 0.  0.
          5    1    3    3  502    0 -0.22419602628E+02  0.42797874655E+02 -0.32160925519E+02  0.58190155415E+02  0.41800000000E+01 0. -1.
         -5    1    3    3    0  502 -0.29604851023E+02 -0.58951010894E+02 -0.20004244366E+03  0.21068013802E+03  0.41800000000E+01 0.  1.
        -11    1    4    4    0    0 -0.56655018785E+01  0.92739864924E+01  0.50964390654E+01  0.12003267394E+02  0.00000000000E+00 0. -1.
         11    1    4    4    0    0  0.57689955529E+02  0.68791497465E+01 -0.64054800181E+02  0.86478153868E+02  0.00000000000E+00 0.  1.
</event>
<event>
 8    1  0.4798744E-006  0.1183080E+03  0.7561462E-02  0.1245915E+00
          1   -1    0    0  501    0  0.00000000000E+00  0.00000000000E+00  0.72536082712E+02  0.72536082712E+02  0.00000000000E+00 0.  1.
         -1   -1    0    0    0  501 -0.00000000000E+00 -0.00000000000E+00 -0.29561912634E+03  0.29561912634E+03  0.00000000000E+00 0. -1.
         23    2    1    2    0    0 -0.43239726372E+02 -0.31971006662E+02 -0.22445884394E+03  0.26251432697E+03  0.12506070541E+03 0.  0.
         23    2    1    2    0    0  0.43239726372E+02  0.31971006662E+02  0.13758003132E+01  0.10564088208E+03  0.90919106556E+02 0.  0.
          5    1    3    3  502    0  0.18323313513E+01 -0.73361946096E+02 -0.10419675081E+03  0.12751379476E+03  0.41800000000E+01 0. -1.
         -5    1    3    3    0  502 -0.45072057723E+02  0.41390939434E+02 -0.12026209313E+03  0.13500053222E+03  0.41800000000E+01 0. -1.
        -11    1    4    4    0    0  0.35304036016E+02 -0.25632559677E+02 -0.13410750322E+02  0.45642647807E+02  0.00000000000E+00 0. -1.
         11    1    4    4    0    0  0.79356903553E+01  0.57603566339E+02  0.14786550635E+02  0.59998234275E+02  0.00000000000E+00 0.  1.
</event>
<event>
 8    1  0.4798744E-006  0.1269305E+03  0.7561462E-02  0.1232083E+00
         -2   -1    0    0    0  501 -0.00000000000E+00  0.00000000000E+00  0.71009390540E+02  0.71009390540E+02  0.00000000000E+00 0.  1.
          2   -1    0    0  501    0  0.00000000000E+00 -0.00000000000E+00 -0.33814598687E+03  0.33814598687E+03  0.00000000000E+00 0. -1.
         23    2    1    2    0    0 -0.32207372781E+02 -0.82488594697E+02 -0.95439490615E+02  0.18054691719E+03  0.12508720886E+03 0.  0.
         23    2    1    2    0    0  0.32207372781E+02  0.82488594697E+02 -0.17169710572E+03  0.22860846023E+03  0.12223031072E+03 0.  0.
          5    1    3    3  502    0 -0.10114014559E+02 -0.11010038956E+03 -0.46484678545E+02  0.12001119453E+03  0.41800000000E+01 0.  1.
         -5    1    3    3    0  502 -0.22093358222E+02  0.27611794865E+02 -0.48954812070E+02  0.60535722660E+02  0.41800000000E+01 0.  1.
        -11    1    4    4    0    0  0.40958864671E+02  0.22005258328E+02 -0.14503257096E+00  0.46496032343E+02  0.00000000000E+00 0.  1.
         11    1    4    4    0    0 -0.87514918901E+01  0.60483336369E+02 -0.17155207315E+03  0.18211242788E+03  0.00000000000E+00 0. -1.
</event>
<event>
 8    1  0.4798744E-006  0.9836222E+02  0.7561462E-02  0.1283778E+00
          1   -1    0    0  501    0  0.00000000000E+00  0.00000000000E+00  0.39144177285E+02  0.39144177285E+02  0.00000000000E+00 0. -1.
         -1   -1    0    0    0  501 -0.00000000000E+00 -0.00000000000E+00 -0.45610644111E+03  0.45610644111E+03  0.00000000000E+00 0.  1.
         23    2    1    2    0    0  0.42806378295E+02 -0.59183918317E+02 -0.28085602993E+03  0.31600860514E+03  0.12508479831E+03 0.  0.
         23    2    1    2    0    0 -0.42806378295E+02  0.59183918317E+02 -0.13610623390E+03  0.17924201326E+03  0.90926729837E+02 0.  0.
          5    1    3    3  502    0  0.11288167648E+02 -0.63437577044E+02 -0.27613719037E+03  0.28358591152E+03  0.41800000000E+01 0. -1.
         -5    1    3    3    0  502  0.31518210647E+02  0.42536587271E+01 -0.47188395601E+01  0.32422693622E+02  0.41800000000E+01 0. -1.
        -11    1    4    4    0    0 -0.51092888743E+02  0.12414321570E+02 -0.11657702017E+03  0.12788588778E+03  0.00000000000E+00 0. -1.
         11    1    4    4    0    0  0.82865104479E+01  0.46769596747E+02 -0.19529213729E+02  0.51356125478E+02  0.00000000000E+00 0.  1.
</event>
<event>
 8    1  0.4798744E-006  0.1514339E+03  0.7561462E-02  0.1198722E+00
          2   -1    0    0  501    0  0.00000000000E+00  0.00000000000E+00  0.73198134290E+03  0.73198134290E+03  0.00000000000E+00 0. -1.
         -2   -1    0    0    0  501 -0.00000000000E+00 -0.00000000000E+00 -0.35136962935E+02  0.35136962935E+02  0.00000000000E+00 0.  1.
         23    2    1    2    0    0  0.79892823530E+02  0.85587080612E+02  0.30327697645E+03  0.34832696312E+03  0.12508691847E+03 0.  0.
         23    2    1    2    0    0 -0.79892823530E+02 -0.85587080612E+02  0.39356740352E+03  0.41879134272E+03  0.82358217591E+02 0.  0.
          5    1    3    3  502    0 -0.12091134230E+02  0.71636825297E+02  0.90989852140E+02  0.11651032511E+03  0.41800000000E+01 0. -1.
         -5    1    3    3    0  502  0.91983957760E+02  0.13950255314E+02  0.21228712431E+03  0.23181663800E+03  0.41800000000E+01 0. -1.
        -11    1    4    4    0    0 -0.80574250433E+02 -0.37495146068E+02  0.19208362688E+03  0.21164643991E+03  0.00000000000E+00 0.  1.
         11    1    4    4    0    0  0.68142690363E+00 -0.48091934544E+02  0.20148377664E+03  0.20714490281E+03  0.00000000000E+00 0. -1.
</event>
<event>
 7    1  0.4798744E-006  0.5252655E+02  0.7561462E-02  0.1432172E+00
         -3   -1    0    0    0  501 -0.00000000000E+00  0.00000000000E+00  0.71218905032E+02  0.71218905032E+02  0.00000000000E+00 0.  1.
          3   -1    0    0  501    0  0.00000000000E+00 -0.00000000000E+00 -0.14449110453E+03  0.14449110453E+03  0.00000000000E+00 0. -1.
         23    2    1    2    0    0 -0.28773904444E+00  0.17625939272E+02  0.83041209701E+01  0.11695166234E+03  0.11531685207E+03 0.  0.
          5    1    3    3  502    0  0.12398240979E+02 -0.11633075965E+02 -0.48561030515E+02  0.51620644324E+02  0.41800000000E+01 0. -1.
         -5    1    3    3    0  502 -0.12685980024E+02  0.29259015236E+02  0.56865151485E+02  0.65331018017E+02  0.41800000000E+01 0.  1.
        -11    1    1    2    0    0  0.85347607247E+01 -0.35066263306E+02 -0.57770803900E+02  0.68117183927E+02  0.00000000000E+00 0. -1.
         11    1    1    2    0    0 -0.82470216803E+01  0.17440324034E+02 -0.23805516569E+02  0.30641163296E+02  0.00000000000E+00 0.  1.
</event>
<event>
 8    1  0.4798744E-006  0.1288467E+03  0.7561462E-02  0.1229177E+00
          2   -1    0    0  501    0  0.00000000000E+00  0.00000000000E+00  0.56122965121E+03  0.56122965121E+03  0.00000000000E+00 0. -1.
         -2   -1    0    0    0  501 -0.00000000000E+00 -0.00000000000E+00 -0.41607613192E+02  0.41607613192E+02  0.00000000000E+00 0.  1.
         23    2    1    2    0    0 -0.99715720845E+02  0.26184082696E+02  0.21688284055E+03  0.27077321991E+03  0.12510451202E+03 0.  0.
         23    2    1    2    0    0  0.99715720845E+02 -0.26184082696E+02  0.30273919747E+03  0.33206404449E+03  0.89368209049E+02 0.  0.
          5    1    3    3  502    0 -0.70471772864E+02 -0.34373428171E+02  0.17402576538E+03  0.19091946666E+03  0.41800000000E+01 0. -1.
         -5    1    3    3    0  502 -0.29243947981E+02  0.60557510867E+02  0.42857075171E+02  0.79853753250E+02  0.41800000000E+01 0. -1.
        -11    1    4    4    0    0  0.64695253939E+02 -0.37763324305E+02  0.27734282544E+03  0.28728137317E+03  0.00000000000E+00 0. -1.
         11    1    4    4    0    0  0.35020466906E+02  0.11579241610E+02  0.25396372024E+02  0.44782671320E+02  0.00000000000E+00 0.  1.
</event>
<event>
 8    1  0.4798744E-006  0.1182470E+03  0.7561462E-02  0.1246017E+00
         -2   -1    0    0    0  501 -0.00000000000E+00  0.00000000000E+00  0.47389260646E+02  0.47389260646E+02  0.00000000000E+00 0.  1.
          2   -1    0    0  501    0  0.00000000000E+00 -0.00000000000E+00 -0.30456670380E+03  0.30456670380E+03  0.00000000000E+00 0. -1.
         23    2    1    2    0    0  0.97588409691E+01 -0.64072109383E+02 -0.11646696504E+03  0.17293081134E+03  0.11018185598E+03 0.  0.
         23    2    1    2    0    0 -0.97588409691E+01  0.64072109383E+02 -0.14071047811E+03  0.17902515311E+03  0.89722330641E+02 0.  0.
          5    1    3    3  502    0  0.53556953023E+02 -0.64288525309E+02 -0.73962810755E+02  0.11175567761E+03  0.41800000000E+01 0. -1.
         -5    1    3    3    0  502 -0.43798112054E+02  0.21641592585E+00 -0.42504154286E+02  0.61175133730E+02  0.41800000000E+01 0.  1.
        -11    1    4    4    0    0 -0.31481888426E+02  0.77174842072E+02 -0.12085823146E+03  0.14681204875E+03  0.00000000000E+00 0.  1.
         11    1    4    4    0    0  0.21723047457E+02 -0.13102732689E+02 -0.19852246654E+02  0.32213104351E+02  0.00000000000E+00 0. -1.
</event>
<event>
 8    1  0.4798744E-006  0.1006260E+03  0.7561462E-02  0.1278985E+00
         -1   -1    0    0    0  501 -0.00000000000E+00  0.00000000000E+00  0.25933154016E+03  0.25933154016E+03  0.00000000000E+00 0.  1.
          1   -1    0    0  501    0  0.00000000000E+00 -0.00000000000E+00 -0.48608700140E+02  0.48608700140E+02  0.00000000000E+00 0. -1.
         23    2    1    2    0    0  0.25725778056E+01  0.14709416433E+02  0.17312760373E+03  0.20784430122E+03  0.11403114175E+03 0.  0.
         23    2    1    2    0    0 -0.25725778056E+01 -0.14709416433E+02  0.37595236293E+02  0.10009593908E+03  0.91557687496E+02 0.  0.
          5    1    3    3  502    0  0.47566896603E+02  0.34967487364E+02  0.12724020025E+03  0.14033130722E+03  0.41800000000E+01 0. -1.
         -5    1    3    3    0  502 -0.44994318797E+02 -0.20258070931E+02  0.45887403476E+02  0.67512994006E+02  0.41800000000E+01 0.  1.
        -11    1    4    4    0    0  0.42577588693E+02 -0.20085115478E+02  0.22575995711E+02  0.52210521019E+02  0.00000000000E+00 0. -1.
         11    1    4    4    0    0 -0.45150166499E+02  0.53756990456E+01  0.15019240582E+02  0.47885418060E+02  0.00000000000E+00 0.  1.
</event>
<event>
 8    1  0.4798744E-006  0.1265414E+03  0.7561462E-02  0.1232680E+00
          2   -1    0    0  501    0  0.00000000000E+00  0.00000000000E+00  0.20906340475E+03  0.20906340475E+03  0.00000000000E+00 0. -1.
         -2   -1    0    0    0  501 -0.00000000000E+00 -0.00000000000E+00 -0.89687452352E+02  0.89687452352E+02  0.00000000000E+00 0.  1.
         23    2    1    2    0    0 -0.67399642378E+02 -0.48447936719E+02  0.56872290716E+02  0.16065911124E+03  0.12524766747E+03 0.  0.
         23    2    1    2    0    0  0.67399642378E+02  0.48447936719E+02  0.62503661686E+02  0.13809174587E+03  0.90954429181E+02 0.  0.
          5    1    3    3  502    0  0.36545673458E+02 -0.40407018962E+01  0.11058760049E+02  0.38622300477E+02  0.41800000000E+01 0.  1.
         -5    1    3    3    0  502 -0.10394531584E+03 -0.44407234823E+02  0.45813530668E+02  0.12203681076E+03  0.41800000000E+01 0.  1.
        -11    1    4    4    0    0 -0.30033966749E+01  0.30049582119E+02 -0.13314172350E+02  0.33004014339E+02  0.00000000000E+00 0.  1.
         11    1    4    4    0    0  0.70403039053E+02  0.18398354599E+02  0.75817834036E+02  0.10508773153E+03  0.00000000000E+00 0. -1.
</event>
<event>
 8    1  0.4798744E-006  0.1222110E+03  0.7561462E-02  0.1239493E+00
         -2   -1    0    0    0  501 -0.00000000000E+00  0.00000000000E+00  0.73802414212E+02  0.73802414212E+02  0.00000000000E+00 0.  1.
          2   -1    0    0  501    0  0.00000000000E+00 -0.00000000000E+00 -0.31964360329E+03  0.31964360329E+03  0.00000000000E+00 0. -1.
         23    2    1    2    0    0  0.74388784821E+02 -0.64883067860E+02 -0.73755663000E+02  0.17560521152E+03  0.12511510175E+03 0.  0.
         23    2    1    2    0    0 -0.74388784821E+02  0.64883067860E+02 -0.17208552608E+03  0.21784080598E+03  0.89987136097E+02 0.  0.
          5    1    3    3  502    0  0.96577640966E+02 -0.61388222801E+02 -0.91578195352E+02  0.14662807677E+03  0.41800000000E+01 0.  1.
         -5    1    3    3    0  502 -0.22188856145E+02 -0.34948450594E+01  0.17822532352E+02  0.28977134752E+02  0.41800000000E+01 0.  1.
        -11    1    4    4    0    0 -0.46341611519E+02  0.63979284635E+02 -0.17255068881E+03  0.18977521975E+03  0.00000000000E+00 0. -1.
         11    1    4    4    0    0 -0.28047173303E+02  0.90378322478E+00  0.46516273199E+00  0.28065586236E+02  0.00000000000E+00 0.  1.
</event>
<event>
 8    1  0.4798744E-006  0.9534537E+02  0.7561462E-02  0.1290400E+00
         -3   -1    0    0    0  501 -0.00000000000E+00  0.00000000000E+00  0.23511206576E+03  0.23511206576E+03  0.00000000000E+00 0.  1.
          3   -1    0    0  501    0  0.00000000000E+00 -0.00000000000E+00 -0.74132180863E+02  0.74132180863E+02  0.00000000000E+00 0. -1.
         23    2    1    2    0    0  0.56619573777E+00 -0.72956095703E+02  0.11201847375E+03  0.18307527041E+03  0.12508198790E+03 0.  0.
         23    2    1    2    0    0 -0.56619573777E+00  0.72956095703E+02  0.48961411146E+02  0.12616897621E+03  0.90545448800E+02 0.  0.
          5    1    3    3  502    0 -0.13485393755E+02 -0.57748042308E+02  0.13760393637E+03  0.14989665753E+03  0.41800000000E+01 0. -1.
         -5    1    3    3    0  502  0.14051589493E+02 -0.15208053395E+02 -0.25585462618E+02  0.33178612881E+02  0.41800000000E+01 0. -1.
        -11    1    4    4    0    0  0.39524990128E+02  0.50626020745E+02  0.81249597083E+01  0.64739738889E+02  0.00000000000E+00 0. -1.
         11    1    4    4    0    0 -0.40091185866E+02  0.22330074958E+02  0.40836451438E+02  0.61429237320E+02  0.00000000000E+00 0.  1.
</event>
<event>
 8    1  0.4798744E-006  0.8791459E+02  0.7561462E-02  0.1307982E+00
          4   -1    0    0  501    0  0.00000000000E+00  0.00000000000E+00  0.33112514069E+03  0.33112514069E+03  0.00000000000E+00 0. -1.
         -4   -1    0    0    0  501 -0.00000000000E+00 -0.00000000000E+00 -0.36731072718E+02  0.36731072718E+02  0.00000000000E+00 0.  1.
         23    2    1    2    0    0  0.37972938808E+02  0.21496964498E+02  0.16043223702E+03  0.20806240802E+03  0.12508956549E+03 0.  0.
         23    2    1    2    0    0 -0.37972938808E+02 -0.21496964498E+02  0.13396183095E+03  0.15979380538E+03  0.75393796308E+02 0.  0.
          5    1    3    3  502    0  0.58754881506E+02  0.62592733376E+02  0.11077779610E+03  0.14021119385E+03  0.41800000000E+01 0. -1.
         -5    1    3    3    0  502 -0.20781942698E+02 -0.41095768879E+02  0.49654440920E+02  0.67851214175E+02  0.41800000000E+01 0. -1.
        -11    1    4    4    0    0 -0.16597378248E+02 -0.91381198687E+01 -0.42302533593E+01  0.19413223404E+02  0.00000000000E+00 0.  1.
         11    1    4    4    0    0 -0.21375560559E+02 -0.12358844629E+02  0.13819208431E+03  0.14038058198E+03  0.00000000000E+00 0. -1.
</event>
<event>
 8    1  0.4798744E-006  0.1991142E+03  0.7561462E-02  0.1150489E+00
         -1   -1    0    0    0  501 -0.00000000000E+00  0.00000000000E+00  0.30595437488E+02  0.30595437488E+02  0.00000000000E+00 0.  1.
          1   -1    0    0  501    0  0.00000000000E+00 -0.00000000000E+00 -0.14554587152E+04  0.14554587152E+04  0.00000000000E+00 0. -1.
         23    2    1    2    0    0  0.76589096949E+02  0.16299718103E+03 -0.78419619317E+03  0.81426908939E+03  0.12504603059E+03 0.  0.
         23    2    1    2    0    0 -0.76589096949E+02 -0.16299718103E+03 -0.64066708459E+03  0.67178506334E+03  0.91689079262E+02 0.  0.
          5    1    3    3  502    0  0.29828178897E+02 -0.56324929419E+01 -0.43745943043E+02  0.53409972531E+02  0.41800000000E+01 0.  1.
         -5    1    3    3    0  502  0.46760918052E+02  0.16862967397E+03 -0.74045025012E+03  0.76085911686E+03  0.41800000000E+01 0.  1.
        -11    1    4    4    0    0  0.12679901685E+02 -0.27509990730E+02 -0.43775809234E+02  0.53234396501E+02  0.00000000000E+00 0.  1.
         11    1    4    4    0    0 -0.89268998634E+02 -0.13548719030E+03 -0.59689127536E+03  0.61855066684E+03  0.00000000000E+00 0. -1.
</event>
<event>
 8    1  0.4798744E-006  0.9189548E+02  0.7561462E-02  0.1298325E+00
          2   -1    0    0  501    0  0.00000000000E+00  0.00000000000E+00  0.39325902558E+03  0.39325902558E+03  0.00000000000E+00 0. -1.
         -2   -1    0    0    0  501 -0.00000000000E+00 -0.00000000000E+00 -0.40557320396E+02  0.40557320396E+02  0.00000000000E+00 0.  1.
         23    2    1    2    0    0  0.35107871994E+02  0.52387713858E+02  0.18555604528E+03  0.23249998668E+03  0.12509261620E+03 0.  0.
         23    2    1    2    0    0 -0.35107871994E+02 -0.52387713858E+02  0.16714565990E+03  0.20131635929E+03  0.92809318796E+02 0.  0.
          5    1    3    3  502    0  0.84119068402E+01  0.48255107724E+02  0.44713966641E+01  0.49363765924E+02  0.41800000000E+01 0.  1.
         -5    1    3    3    0  502  0.26695965153E+02  0.41326061340E+01  0.18108464862E+03  0.18313622076E+03  0.41800000000E+01 0.  1.
        -11    1    4    4    0    0  0.26046561268E+02  0.10708738234E+01  0.69944640719E+02  0.74644644081E+02  0.00000000000E+00 0. -1.
         11    1    4    4    0    0 -0.61154433261E+02 -0.53458587681E+02  0.97201019183E+02  0.12667171521E+03  0.00000000000E+00 0.  1.
</event>
<event>
 8    1  0.4798744E-006  0.1391197E+03  0.7561462E-02  0.1214518E+00
          3   -1    0    0  501    0  0.00000000000E+00  0.00000000000E+00  0.18778342156E+03  0.18778342156E+03  0.00000000000E+00 0. -1.
         -3   -1    0    0    0  501 -0.00000000000E+00 -0.00000000000E+00 -0.12770601169E+03  0.12770601169E+03  0.00000000000E+00 0.  1.
         23    2    1    2    0    0 -0.88475947697E+02  0.11406542946E+02 -0.33431521143E+02  0.15723560636E+03  0.12508903532E+03 0.  0.
         23    2    1    2    0    0  0.88475947697E+02 -0.11406542946E+02  0.93508931014E+02  0.15825382689E+03  0.91335923943E+02 0.  0.
          5    1    3    3  502    0  0.13552975660E+02 -0.36009242303E+02  0.32161360055E+01  0.38835095098E+02  0.41800000000E+01 0.  1.
         -5    1    3    3    0  502 -0.10202892336E+03  0.47415785249E+02 -0.36647657148E+02  0.11840051126E+03  0.41800000000E+01 0.  1.
        -11    1    4    4    0    0  0.53519347390E+02  0.38565380414E+02  0.40176283987E+02  0.77238221798E+02  0.00000000000E+00 0.  1.
         11    1    4    4    0    0  0.34956600307E+02 -0.49971923360E+02  0.53332647026E+02  0.81015605090E+02  0.00000000000E+00 0. -1.
</event>
<event>
 8    1  0.4798744E-006  0.1745338E+03  0.7561462E-02  0.1173201E+00
          2   -1    0    0  501    0  0.00000000000E+00  0.00000000000E+00  0.33800654371E+03  0.33800654371E+03  0.00000000000E+00 0. -1.
         -2   -1    0    0    0  501 -0.00000000000E+00 -0.00000000000E+00 -0.14785929261E+03  0.14785929261E+03  0.00000000000E+00 0.  1.
         23    2    1    2    0    0  0.12099984764E+03  0.12508606440E+03  0.18844292133E+01  0.21433500577E+03  0.12509379276E+03 0.  0.
         23    2    1    2    0    0 -0.12099984764E+03 -0.12508606440E+03  0.18826282189E+03  0.27153083056E+03  0.89434977488E+02 0.  0.
          5    1    3    3  502    0  0.83961679604E+02  0.96974792350E+02  0.58423612693E+02  0.14101228639E+03  0.41800000000E+01 0. -1.
         -5    1    3    3    0  502  0.37038168038E+02  0.28111272049E+02 -0.56539183480E+02  0.73322719374E+02  0.41800000000E+01 0. -1.
        -11    1    4    4    0    0 -0.65121394018E+02 -0.66047763140E+02  0.37100717230E+02  0.99897778722E+02  0.00000000000E+00 0.  1.
         11    1    4    4    0    0 -0.55878453623E+02 -0.59038301259E+02  0.15116210466E+03  0.17163305183E+03  0.00000000000E+00 0. -1.
</event>
<event>
 8    1  0.4798744E-006  0.1251717E+03  0.7561462E-02  0.1234801E+00
          3   -1    0    0  501    0  0.00000000000E+00  0.00000000000E+00  0.50422587950E+02  0.50422587950E+02  0.00000000000E+00 0. -1.
         -3   -1    0    0    0  501 -0.00000000000E+00 -0.00000000000E+00 -0.38986573379E+03  0.38986573379E+03  0.00000000000E+00 0.  1.
         23    2    1    2    0    0 -0.11287539612E+01  0.73511717968E+02 -0.21601656894E+03  0.26022183247E+03  0.12508795815E+03 0.  0.
         23    2    1    2    0    0  0.11287539612E+01 -0.73511717968E+02 -0.12342657689E+03  0.18006648926E+03  0.10855677735E+03 0.  0.
          5    1    3    3  502    0 -0.25804181845E+02 -0.20162474333E+02 -0.13453657749E+02  0.35649045973E+02  0.41800000000E+01 0. -1.
         -5    1    3    3    0  502  0.24675427884E+02  0.93674192302E+02 -0.20256291119E+03  0.22457278650E+03  0.41800000000E+01 0. -1.
        -11    1    4    4    0    0  0.35491352689E+02  0.38705751389E+01 -0.74480075012E+01  0.36470402840E+02  0.00000000000E+00 0. -1.
         11    1    4    4    0    0 -0.34362598728E+02 -0.77382293107E+02 -0.11597856939E+03  0.14359608642E+03  0.00000000000E+00 0.  1.
</event>
<event>
 8    1  0.4798744E-006  0.1515000E+03  0.7561462E-02  0.1198642E+00
         -2   -1    0    0    0  501 -0.00000000000E+00  0.00000000000E+00  0.27309999282E+02  0.27309999282E+02  0.00000000000E+00 0.  1.
          2   -1    0    0  501    0  0.00000000000E+00 -0.00000000000E+00 -0.11696926428E+04  0.11696926428E+04  0.00000000000E+00 0. -1.
         23    2    1    2    0    0  0.67376658718E+02  0.10332072273E+03 -0.37075432122E+03  0.41026875242E+03  0.12508755582E+03 0.  0.
         23    2    1    2    0    0 -0.67376658718E+02 -0.10332072273E+03 -0.77162832225E+03  0.78673388962E+03  0.91242311942E+02 0.  0.
          5    1    3    3  502    0 -0.11294703671E+02 -0.76988359049E+01 -0.15162013805E+03  0.15229241960E+03  0.41800000000E+01 0.  1.
         -5    1    3    3    0  502  0.78671362389E+02  0.11101955863E+03 -0.21913418317E+03  0.25797633281E+03  0.41800000000E+01 0.  1.
        -11    1    4    4    0    0 -0.24007456116E+01 -0.85041944590E+02 -0.47093098547E+03  0.47855395620E+03  0.00000000000E+00 0. -1.
         11    1    4    4    0    0 -0.64975913107E+02 -0.18278778139E+02 -0.30069733678E+03  0.30817993342E+03  0.00000000000E+00 0.  1.
</event>
<event>
 8    1  0.4798744E-006  0.1134815E+03  0.7561462E-02  0.1254255E+00
          2   -1    0    0  501    0  0.00000000000E+00  0.00000000000E+00  0.34102289340E+03  0.34102289340E+03  0.00000000000E+00 0. -1.
         -2   -1    0    0    0  501 -0.00000000000E+00 -0.00000000000E+00 -0.50408446223E+02  0.50408446223E+02  0.00000000000E+00 0.  1.
         23    2    1    2    0    0  0.66703965019E+02 -0.22068256025E+02  0.19189448856E+03  0.23959789927E+03  0.12508889527E+03 0.  0.
         23    2    1    2    0    0 -0.66703965019E+02  0.22068256025E+02  0.98719958619E+02  0.15183344036E+03  0.91495008107E+02 0.  0.
          5    1    3    3  502    0  0.76345721755E+02  0.30043266448E+02  0.15323394582E+03  0.17386598759E+03  0.41800000000E+01 0. -1.
         -5    1    3    3    0  502 -0.96417567363E+01 -0.52111522473E+02  0.38660542737E+02  0.65731911672E+02  0.41800000000E+01 0. -1.
        -11    1    4    4    0    0 -0.26531189036E+02  0.39724933004E+02  0.46054688576E+01  0.47991505886E+02  0.00000000000E+00 0.  1.
         11    1    4    4    0    0 -0.40172775983E+02 -0.17656676979E+02  0.94114489761E+02  0.10384193447E+03  0.00000000000E+00 0. -1.
</event>
<event>
 7    1  0.4798744E-006  0.2320768E+03  0.7561462E-02  0.1125187E+00
          4   -1    0    0  501    0  0.00000000000E+00  0.00000000000E+00  0.10060980476E+03  0.10060980476E+03  0.00000000000E+00 0. -1.
         -4   -1    0    0    0  501 -0.00000000000E+00 -0.00000000000E+00 -0.63116547397E+03  0.63116547397E+03  0.00000000000E+00 0.  1.
         23    2    1    2    0    0 -0.11865251260E+03  0.13628651769E+03 -0.22784632286E+03  0.31702974277E+03  0.12625956322E+03 0.  0.
          5    1    1    2  502    0  0.13486746982E+03 -0.16699035662E+03 -0.15984280089E+03  0.26766061909E+03  0.41800000000E+01 0. -1.
         -5    1    1    2    0  502 -0.16214957217E+02  0.30703838925E+02 -0.14286654545E+03  0.14708491687E+03  0.41800000000E+01 0.  1.
        -11    1    3    3    0    0  0.83748528854E+01  0.71324138491E+02 -0.43648195542E+02  0.84038299998E+02  0.00000000000E+00 0.  1.
         11    1    3    3    0    0 -0.12702736549E+03  0.64962379200E+02 -0.18419812732E+03  0.23299144277E+03  0.00000000000E+00 0. -1.
</event>
<event>
 8    1  0.4798744E-006  0.9127158E+02  0.7561462E-02  0.1299801E+00
          2   -1    0    0  501    0  0.00000000000E+00  0.00000000000E+00  0.21255293803E+03  0.21255293803E+03  0.00000000000E+00 0. -1.
         -2   -1    0    0    0  501 -0.00000000000E+00 -0.00000000000E+00 -0.58279665768E+02  0.58279665768E+02  0.00000000000E+00 0.  1.
         23    2    1    2    0    0  0.89070823484E+00 -0.45080110277E+01  0.58447305978E+02  0.13781907261E+03  0.12472727719E+03 0.  0.
         23    2    1    2    0    0 -0.89070823484E+00  0.45080110277E+01  0.95825966289E+02  0.13301353119E+03  0.92135053805E+02 0.  0.
          5    1    3    3  502    0 -0.27158269636E+02 -0.37941925480E+02 -0.17596449644E+02  0.50042669381E+02  0.41800000000E+01 0. -1.
         -5    1    3    3    0  502  0.28048977871E+02  0.33433914452E+02  0.76043755622E+02  0.87776403232E+02  0.41800000000E+01 0. -1.
        -11    1    4    4    0    0  0.19499551863E+01 -0.43609876754E+02  0.39424523009E+02  0.58821056521E+02  0.00000000000E+00 0. -1.
         11    1    4    4    0    0 -0.28406634212E+01  0.48117887782E+02  0.56401443280E+02  0.74192474668E+02  0.00000000000E+00 0.  1.
</event>
<event>
 8    1  0.4798744E-006  0.8473515E+02  0.7561462E-02  0.1316127E+00
         -2   -1    0    0    0  501 -0.00000000000E+00  0.00000000000E+00  0.10705707946E+03  0.10705707946E+03  0.00000000000E+00 0.  1.
          2   -1    0    0  501    0  0.00000000000E+00 -0.00000000000E+00 -0.11431391372E+03  0.11431391372E+03  0.00000000000E+00 0. -1.
         23    2    1    2    0    0  0.13590869703E+01  0.10732203854E+01  0.20825705304E+02  0.12682093947E+03  0.12508733656E+03 0.  0.
         23    2    1    2    0    0 -0.13590869703E+01 -0.10732203854E+01 -0.28082539560E+02  0.94550053707E+02  0.90266741984E+02 0.  0.
          5    1    3    3  502    0  0.89171436050E+01  0.40352479718E+02  0.58478106939E+02  0.71728651602E+02  0.41800000000E+01 0. -1.
         -5    1    3    3    0  502 -0.75580566348E+01 -0.39279259333E+02 -0.37652401635E+02  0.55092287870E+02  0.41800000000E+01 0. -1.
        -11    1    4    4    0    0  0.41498629801E+02 -0.12537647718E+02 -0.25081594214E+02  0.50084081842E+02  0.00000000000E+00 0.  1.
         11    1    4    4    0    0 -0.42857716771E+02  0.11464427333E+02 -0.30009453454E+01  0.44465971865E+02  0.00000000000E+00 0. -1.
</event>
<event>
 8    1  0.4798744E-006  0.1078067E+03  0.7561462E-02  0.1264686E+00
          2   -1    0    0  501    0  0.00000000000E+00  0.00000000000E+00  0.24284466730E+02  0.24284466730E+02  0.00000000000E+00 0. -1.
         -2   -1    0    0    0  501 -0.00000000000E+00 -0.00000000000E+00 -0.58885332690E+03  0.58885332690E+03  0.00000000000E+00 0.  1.
         23    2    1    2    0    0 -0.34554794626E+01  0.33992043360E+02 -0.37101715301E+03  0.39304031869E+03  0.12513818336E+03 0.  0.
         23    2    1    2    0    0  0.34554794626E+01 -0.33992043360E+02 -0.19355170716E+03  0.22009747495E+03  0.99061777605E+02 0.  0.
          5    1    3    3  502    0  0.37629049564E+02 -0.23999407143E+02 -0.65717773546E+02  0.79550079033E+02  0.41800000000E+01 0.  1.
         -5    1    3    3    0  502 -0.41084529026E+02  0.57991450503E+02 -0.30529937946E+03  0.31349023965E+03  0.41800000000E+01 0.  1.
        -11    1    4    4    0    0  0.30080829620E+02  0.22218567640E+02 -0.41761333577E+02  0.56058273615E+02  0.00000000000E+00 0. -1.
         11    1    4    4    0    0 -0.26625350158E+02 -0.56210611000E+02 -0.15179037358E+03  0.16403920133E+03  0.00000000000E+00 0.  1.
</event>
<event>
 8    1  0.4798744E-006  0.9016877E+02  0.7561462E-02  0.1302444E+00
         -3   -1    0    0    0  501 -0.00000000000E+00  0.00000000000E+00  0.66456818525E+03  0.66456818525E+03  0.00000000000E+00 0.  1.
          3   -1    0    0  501    0  0.00000000000E+00 -0.00000000000E+00 -0.20634278346E+02  0.20634278346E+02  0.00000000000E+00 0. -1.
         23    2    1    2    0    0 -0.74428583237E+01 -0.26271060860E+02  0.46341814496E+03  0.48078012331E+03  0.12509030786E+03 0.  0.
         23    2    1    2    0    0  0.74428583237E+01  0.26271060860E+02  0.18051576195E+03  0.20442234029E+03  0.91961884041E+02 0.  0.
          5    1    3    3  502    0 -0.56094369983E+02 -0.74557818172E+01  0.11268713741E+03  0.12616667691E+03  0.41800000000E+01 0. -1.
         -5    1    3    3    0  502  0.48651511659E+02 -0.18815279043E+02  0.35073100755E+03  0.35461344640E+03  0.41800000000E+01 0. -1.
        -11    1    4    4    0    0 -0.29397076302E+02  0.11062741135E+02  0.16198666242E+02  0.35340757272E+02  0.00000000000E+00 0. -1.
         11    1    4    4    0    0  0.36839934626E+02  0.15208319725E+02  0.16431709571E+03  0.16908158302E+03  0.00000000000E+00 0.  1.
</event>
<event>
 8    1  0.4798744E-006  0.1370644E+03  0.7561462E-02  0.1217334E+00
          1   -1    0    0  501    0  0.00000000000E+00  0.00000000000E+00  0.14033765212E+03  0.14033765212E+03  0.00000000000E+00 0. -1.
         -1   -1    0    0    0  501 -0.00000000000E+00 -0.00000000000E+00 -0.17788282191E+03  0.17788282191E+03  0.00000000000E+00 0.  1.
         23    2    1    2    0    0 -0.85850521018E+02  0.51265419224E+02 -0.77111409775E+02  0.17774151775E+03  0.12508965764E+03 0.  0.
         23    2    1    2    0    0  0.85850521018E+02 -0.51265419224E+02  0.39566239986E+02  0.14047895628E+03  0.90390235340E+02 0.  0.
          5    1    3    3  502    0 -0.85557469825E+02 -0.14218687995E+02 -0.16442583184E+02  0.88374672124E+02  0.41800000000E+01 0. -1.
         -5    1    3    3    0  502 -0.29305119288E+00  0.65484107219E+02 -0.60668826592E+02  0.89366845627E+02  0.41800000000E+01 0. -1.
        -11    1    4    4    0    0  0.37028269751E+02 -0.61508469171E+02  0.52503106768E+02  0.88943581898E+02  0.00000000000E+00 0. -1.
         11    1    4    4    0    0  0.48822251267E+02  0.10243049947E+02 -0.12936866782E+02  0.51535374386E+02  0.00000000000E+00 0.  1.
</event>
<event>
 8    1  0.4798744E-006  0.1141114E+03  0.7561462E-02  0.1253140E+00
         -2   -1    0    0    0  501 -0.00000000000E+00  0.00000000000E+00  0.91480076014E+02  0.91480076014E+02  0.00000000000E+00 0.  1.
          2   -1    0    0  501    0  0.00000000000E+00 -0.00000000000E+00 -0.21814602694E+03  0.21814602694E+03  0.00000000000E+00 0. -1.
         23    2    1    2    0    0 -0.84576045672E+02 -0.51270286105E+01 -0.33083499130E+02  0.15466103629E+03  0.12508446869E+03 0.  0.
         23    2    1    2    0    0  0.84576045672E+02  0.51270286105E+01 -0.93582451799E+02  0.15496506667E+03  0.89872702633E+02 0.  0.
          5    1    3    3  502    0  0.27543826255E+02 -0.12980921913E+02 -0.28780423996E+02  0.42106435421E+02  0.41800000000E+01 0.  1.
         -5    1    3    3    0  502 -0.11211987193E+03  0.78538933025E+01 -0.43030751346E+01  0.11255460087E+03  0.41800000000E+01 0.  1.
        -11    1    4    4    0    0  0.20111378633E+02  0.41938293509E+01  0.17196413059E+02  0.26791274274E+02  0.00000000000E+00 0.  1.
         11    1    4    4    0    0  0.64464667039E+02  0.93319925954E+00 -0.11077886486E+03  0.12817379239E+03  0.00000000000E+00 0. -1.
</event>
<event>
 8    1  0.4798744E-006  0.1171292E+03  0.7561462E-02  0.1247910E+00
         -3   -1    0    0    0  501 -0.00000000000E+00  0.00000000000E+00  0.27586884864E+03  0.27586884864E+03  0.00000000000E+00 0.  1.
          3   -1    0    0  501    0  0.00000000000E+00 -0.00000000000E+00 -0.87536138124E+02  0.87536138124E+02  0.00000000000E+00 0. -1.
         23    2    1    2    0    0  0.14756742564E+02 -0.57668638848E+02  0.21131736399E+03  0.25267955428E+03  0.12509394659E+03 0.  0.
         23    2    1    2    0    0 -0.14756742564E+02  0.57668638848E+02 -0.22984653473E+02  0.11072543248E+03  0.90489743865E+02 0.  0.
          5    1    3    3  502    0  0.15278316923E+02  0.32537637008E+02  0.20546081148E+02  0.41614163943E+02  0.41800000000E+01 0.  1.
         -5    1    3    3    0  502 -0.52157435923E+00 -0.90206275856E+02  0.19077128284E+03  0.21106539034E+03  0.41800000000E+01 0.  1.
        -11    1    4    4    0    0 -0.45670416409E+02  0.40194388813E+01 -0.42943993818E+01  0.46047635009E+02  0.00000000000E+00 0. -1.
         11    1    4    4    0    0  0.30913673845E+02  0.53649199966E+02 -0.18690254091E+02  0.64677797470E+02  0.00000000000E+00 0.  1.
</event>
<event>
 8    1  0.4798744E-006  0.1189066E+03  0.7561462E-02  0.1244912E+00
          1   -1    0    0  501    0  0.00000000000E+00  0.00000000000E+00  0.23362139311E+02  0.23362139311E+02  0.00000000000E+00 0. -1.
         -1   -1    0    0    0  501 -0.00000000000E+00 -0.00000000000E+00 -0.10624482909E+04  0.10624482909E+04  0.00000000000E+00 0.  1.
         23    2    1    2    0    0 -0.49797373860E+02 -0.83324674645E+02 -0.76433415237E+03  0.78056171752E+03  0.12508844285E+03 0.  0.
         23    2    1    2    0    0  0.49797373860E+02  0.83324674645E+02 -0.27475199921E+03  0.30524871268E+03  0.90913891538E+02 0.  0.
          5    1    3    3  502    0  0.25853186525E+02 -0.30603129476E+02 -0.47852126513E+03  0.48021350707E+03  0.41800000000E+01 0. -1.
         -5    1    3    3    0  502 -0.75650560385E+02 -0.52721545169E+02 -0.28581288724E+03  0.30034821045E+03  0.41800000000E+01 0. -1.
        -11    1    4    4    0    0  0.47299857943E+02  0.40319902662E+02 -0.24533501267E+03  0.25308543924E+03  0.00000000000E+00 0.  1.
         11    1    4    4    0    0  0.24975159162E+01  0.43004771983E+02 -0.29416986540E+02  0.52163273442E+02  0.00000000000E+00 0. -1.
</event>
<event>
 8    1  0.4798744E-006  0.1116929E+03  0.7561462E-02  0.1257467E+00
         -3   -1    0    0    0  501 -0.00000000000E+00  0.00000000000E+00  0.30309833697E+02  0.30309833697E+02  0.00000000000E+00 0.  1.
          3   -1    0    0  501    0  0.00000000000E+00 -0.00000000000E+00 -0.65165665216E+03  0.65165665216E+03  0.00000000000E+00 0. -1.
         23    2    1    2    0    0 -0.42666946638E+02  0.75437489898E+02 -0.28480887121E+03  0.32291421990E+03  0.12508483950E+03 0.  0.
         23    2    1    2    0    0  0.42666946638E+02 -0.75437489898E+02 -0.33653794725E+03  0.35905226596E+03  0.90274340404E+02 0.  0.
          5    1    3    3  502    0 -0.40522207995E+02  0.20614865668E+02 -0.15765059338E+02  0.48301465022E+02  0.41800000000E+01 0. -1.
         -5    1    3    3    0  502 -0.21447386433E+01  0.54822624231E+02 -0.26904381188E+03  0.27461275487E+03  0.41800000000E+01 0. -1.
        -11    1    4    4    0    0 -0.16539654746E+02 -0.58979125815E+02 -0.13275284994E+03  0.14620334000E+03  0.00000000000E+00 0. -1.
         11    1    4    4    0    0  0.59206601385E+02 -0.16458364083E+02 -0.20378509731E+03  0.21284892596E+03  0.00000000000E+00 0.  1.
</event>
<event>
 8    1  0.4798744E-006  0.1161792E+03  0.7561462E-02  0.1249537E+00
          1   -1    0    0  501    0  0.00000000000E+00  0.00000000000E+00  0.46215914124E+03  0.46215914124E+03  0.00000000000E+00 0. -1.
         -1   -1    0    0    0  501 -0.00000000000E+00 -0.00000000000E+00 -0.47630648022E+02  0.47630648022E+02  0.00000000000E+00 0.  1.
         23    2    1    2    0    0  0.28304885452E+02  0.42362807829E+02  0.75147690814E+02  0.15456423805E+03  0.12508858550E+03 0.  0.
         23    2    1    2    0    0 -0.28304885452E+02 -0.42362807829E+02  0.33938080241E+03  0.35522555122E+03  0.91706538297E+02 0.  0.
          5    1    3    3  502    0 -0.29231116322E+02  0.64861155293E+02  0.27317991671E+02  0.76322818975E+02  0.41800000000E+01 0. -1.
         -5    1    3    3    0  502  0.57536001773E+02 -0.22498347464E+02  0.47829699143E+02  0.78241419075E+02  0.41800000000E+01 0. -1.
        -11    1    4    4    0    0 -0.54553717406E+02 -0.68065255282E+01  0.12855397416E+03  0.13981616911E+03  0.00000000000E+00 0. -1.
         11    1    4    4    0    0  0.26248831954E+02 -0.35556282301E+02  0.21082682824E+03  0.21540938210E+03  0.00000000000E+00 0.  1.
</event>
<event>
 8    1  0.4798744E-006  0.2130584E+03  0.7561462E-02  0.1139167E+00
         -1   -1    0    0    0  501 -0.00000000000E+00  0.00000000000E+00  0.32057218591E+03  0.32057218591E+03  0.00000000000E+00 0.  1.
          1   -1    0    0  501    0  0.00000000000E+00 -0.00000000000E+00 -0.14855464692E+03  0.14855464692E+03  0.00000000000E+00 0. -1.
         23    2    1    2    0    0 -0.72908051191E+01  0.18431174760E+03  0.13330631754E+03  0.25969541849E+03  0.12508860839E+03 0.  0.
         23    2    1    2    0    0  0.72908051191E+01 -0.18431174760E+03  0.38711221451E+02  0.20943141433E+03  0.91318029433E+02 0.  0.
          5    1    3    3  502    0 -0.61741927834E+02  0.58079483226E+02  0.42813390047E+02  0.95056566274E+02  0.41800000000E+01 0. -1.
         -5    1    3    3    0  502  0.54451122715E+02  0.12623226437E+03  0.90492927491E+02  0.16463885222E+03  0.41800000000E+01 0. -1.
        -11    1    4    4    0    0 -0.37691776344E+02 -0.11553703577E+03  0.83249894863E+01  0.12181453973E+03  0.00000000000E+00 0.  1.
         11    1    4    4    0    0  0.44982581464E+02 -0.68774711827E+02  0.30386231965E+02  0.87616874602E+02  0.00000000000E+00 0. -1.
</event>
<event>
 7    1  0.4798744E-006  0.1080079E+03  0.7561462E-02  0.1264304E+00
         -1   -1    0    0    0  501 -0.00000000000E+00  0.00000000000E+00  0.30732974451E+03  0.30732974451E+03  0.00000000000E+00 0.  1.
          1   -1    0    0  501    0  0.00000000000E+00 -0.00000000000E+00 -0.95795770005E+02  0.95795770005E+02  0.00000000000E+00 0. -1.
         23    2    1    2    0    0  0.25968448912E+02 -0.24272922075E+01 -0.23625528600E+01  0.95125315707E+02  0.91449395547E+02 0.  0.
          5    1    1    2  502    0 -0.61717427554E+01 -0.90987753267E+02  0.22438456237E+02  0.94009671691E+02  0.41800000000E+01 0. -1.
         -5    1    1    2    0  502 -0.19796706157E+02  0.93415045475E+02  0.19145807113E+03  0.21399052712E+03  0.41800000000E+01 0.  1.
        -11    1    3    3    0    0  0.88470348333E+01  0.53481127151E+01 -0.46243528254E+02  0.47384979058E+02  0.00000000000E+00 0. -1.
         11    1    3    3    0    0  0.17121414079E+02 -0.77754049226E+01  0.43880975394E+02  0.47740336649E+02  0.00000000000E+00 0.  1.
</event>
<event>
 8    1  0.4798744E-006  0.1099608E+03  0.7561462E-02  0.1260642E+00
         -3   -1    0    0    0  501 -0.00000000000E+00  0.00000000000E+00  0.50904935164E+03  0.50904935164E+03  0.00000000000E+00 0.  1.
          3   -1    0    0  501    0  0.00000000000E+00 -0.00000000000E+00 -0.37589219648E+02  0.37589219648E+02  0.00000000000E+00 0. -1.
         23    2    1    2    0    0  0.61952165726E+02 -0.57842783750E+02  0.30209812763E+03  0.33778650129E+03  0.12511028439E+03 0.  0.
         23    2    1    2    0    0 -0.61952165726E+02  0.57842783750E+02  0.16936200436E+03  0.20885207000E+03  0.88044535058E+02 0.  0.
          5    1    3    3  502    0  0.75654679593E+02 -0.30447219015E+02  0.29496426663E+03  0.30605890720E+03  0.41800000000E+01 0. -1.
         -5    1    3    3    0  502 -0.13702513867E+02 -0.27395564735E+02  0.71338610033E+01  0.31727594082E+02  0.41800000000E+01 0. -1.
        -11    1    4    4    0    0 -0.61282044556E+02  0.71218598579E+02  0.96181403291E+02  0.13445608989E+03  0.00000000000E+00 0. -1.
         11    1    4    4    0    0 -0.67012117051E+00 -0.13375814829E+02  0.73180601067E+02  0.74395980115E+02  0.00000000000E+00 0.  1.
</event>
<event>
 8    1  0.4798744E-006  0.3035768E+03  0.7561462E-02  0.1083466E+00
         -1   -1    0    0    0  501 -0.00000000000E+00  0.00000000000E+00  0.88745083230E+02  0.88745083230E+02  0.00000000000E+00 0.  1.
          1   -1    0    0  501    0  0.00000000000E+00 -0.00000000000E+00 -0.16661681827E+04  0.16661681827E+04  0.00000000000E+00 0. -1.
         23    2    1    2    0    0  0.20770761983E+03 -0.21521687051E+03 -0.30727189338E+03  0.44667896548E+03  0.12508127382E+03 0.  0.
         23    2    1    2    0    0 -0.20770761983E+03  0.21521687051E+03 -0.12701512061E+04  0.13082343005E+04  0.93445930048E+02 0.  0.
          5    1    3    3  502    0  0.63562944969E+02 -0.45913901429E+02 -0.15872623154E+02  0.80110841235E+02  0.41800000000E+01 0.  1.
         -5    1    3    3    0  502  0.14414467486E+03 -0.16930296908E+03 -0.29139927022E+03  0.36656812425E+03  0.41800000000E+01 0.  1.
        -11    1    4    4    0    0 -0.30793738340E+02  0.73066324621E+02 -0.22033551451E+03  0.23416806159E+03  0.00000000000E+00 0.  1.
         11    1    4    4    0    0 -0.17691388149E+03  0.14215054589E+03 -0.10498156916E+04  0.10740662389E+04  0.00000000000E+00 0. -1.
</event>
<event>
 8    1  0.4798744E-006  0.9883790E+02  0.7561462E-02  0.1282759E+00
         -2   -1    0    0    0  501 -0.00000000000E+00  0.00000000000E+00  0.98240317195E+02  0.98240317195E+02  0.00000000000E+00 0.  1.
          2   -1    0    0  501    0  0.00000000000E+00 -0.00000000000E+00 -0.16350562954E+03  0.16350562954E+03  0.00000000000E+00 0. -1.
         23    2    1    2    0    0 -0.10141527279E+02 -0.23017818837E+02  0.26820598548E+02  0.13037913645E+03  0.12508678650E+03 0.  0.
         23    2    1    2    0    0  0.10141527279E+02  0.23017818837E+02 -0.92085910890E+02  0.13136681028E+03  0.90248286959E+02 0.  0.
          5    1    3    3  502    0  0.42796999367E+02  0.27115118388E+02 -0.42539353031E+01  0.51013539042E+02  0.41800000000E+01 0.  1.
         -5    1    3    3    0  502 -0.52938526645E+02 -0.50132937225E+02  0.31074533851E+02  0.79365597410E+02  0.41800000000E+01 0.  1.
        -11    1    4    4    0    0 -0.19273671621E+02  0.36635644668E+02 -0.92533893916E+01  0.42417803965E+02  0.00000000000E+00 0.  1.
         11    1    4    4    0    0  0.29415198899E+02 -0.13617825831E+02 -0.82832521499E+02  0.88949006315E+02  0.00000000000E+00 0. -1.
</event>
<event>
 8    1  0.4798744E-006  0.1092011E+03  0.7561462E-02  0.1262057E+00
          2   -1    0    0  501    0  0.00000000000E+00  0.00000000000E+00  0.88497011271E+03  0.88497011271E+03  0.00000000000E+00 0. -1.
         -2   -1    0    0    0  501 -0.00000000000E+00 -0.00000000000E+00 -0.15027762656E+02  0.15027762656E+02  0.00000000000E+00 0.  1.
         23    2    1    2    0    0  0.32440721582E+02 -0.30678211339E+02  0.45641678364E+03  0.47535014489E+03  0.12509167356E+03 0.  0.
         23    2    1    2    0    0 -0.32440721582E+02  0.30678211339E+02  0.41352556641E+03  0.42464773047E+03  0.85608106220E+02 0.  0.
          5    1    3    3  502    0 -0.31629441356E+02  0.23678694578E+02  0.76180552443E+02  0.85918863516E+02  0.41800000000E+01 0.  1.
         -5    1    3    3    0  502  0.64070162938E+02 -0.54356905917E+02  0.38023623119E+03  0.38943128137E+03  0.41800000000E+01 0.  1.
        -11    1    4    4    0    0  0.78847353367E+01  0.49442885627E+02  0.26147732213E+03  0.26622764315E+03  0.00000000000E+00 0. -1.
         11    1    4    4    0    0 -0.40325456919E+02 -0.18764674288E+02  0.15204824429E+03  0.15842008732E+03  0.00000000000E+00 0.  1.
</event>
<event>
 8    1  0.4798744E-006  0.1422476E+03  0.7561462E-02  0.1210336E+00
          1   -1    0    0  501    0  0.00000000000E+00  0.00000000000E+00  0.62390635694E+03  0.62390635694E+03  0.00000000000E+00 0. -1.
         -1   -1    0    0    0  501 -0.00000000000E+00 -0.00000000000E+00 -0.59395949304E+02  0.59395949304E+02  0.00000000000E+00 0.  1.
         23    2    1    2    0    0 -0.59859400777E+02 -0.78219384130E+02  0.74485036282E+02  0.17574671301E+03  0.12504985641E+03 0.  0.
         23    2    1    2    0    0  0.59859400777E+02  0.78219384130E+02  0.49002537135E+03  0.50755559324E+03  0.88240556094E+02 0.  0.
          5    1    3    3  502    0 -0.97699533608E+02 -0.69441813749E+02  0.59700193628E+02  0.13397369101E+03  0.41800000000E+01 0. -1.
         -5    1    3    3    0  502  0.37840132831E+02 -0.87775703804E+01  0.14784842654E+02  0.41773021997E+02  0.41800000000E+01 0. -1.
        -11    1    4    4    0    0 -0.18969734257E+02  0.19406942036E+02  0.52351859253E+02  0.58967765637E+02  0.00000000000E+00 0. -1.
         11    1    4    4    0    0  0.78829135035E+02  0.58812442093E+02  0.43767351210E+03  0.44858782760E+03  0.00000000000E+00 0.  1.
</event>
<event>
 8    1  0.4798744E-006  0.9843800E+02  0.7561462E-02  0.1283615E+00
          2   -1    0    0  501    0  0.00000000000E+00  0.00000000000E+00  0.32894716171E+03  0.32894716171E+03  0.00000000000E+00 0. -1.
         -2   -1    0    0    0  501 -0.00000000000E+00 -0.00000000000E+00 -0.58322010654E+02  0.58322010654E+02  0.00000000000E+00 0.  1.
         23    2    1    2    0    0  0.74785428030E+02  0.32646311864E+02  0.18376709565E+03  0.23680489543E+03  0.12509025194E+03 0.  0.
         23    2    1    2    0    0 -0.74785428030E+02 -0.32646311864E+02  0.86858055409E+02  0.15046427694E+03  0.91850611983E+02 0.  0.
          5    1    3    3  502    0  0.26775277412E+02  0.51917636658E+02  0.15309141170E+02  0.60532624922E+02  0.41800000000E+01 0. -1.
         -5    1    3    3    0  502  0.48010150618E+02 -0.19271324794E+02  0.16845795448E+03  0.17627227051E+03  0.41800000000E+01 0. -1.
        -11    1    4    4    0    0 -0.45419905281E+02 -0.34422190230E+02 -0.18349046995E+01  0.57019486592E+02  0.00000000000E+00 0.  1.
         11    1    4    4    0    0 -0.29365522749E+02  0.17758783662E+01  0.88692960109E+02  0.93444790348E+02  0.00000000000E+00 0. -1.
</event>
<event>
 8    1  0.4798744E-006  0.1412361E+03  0.7561462E-02  0.1211675E+00
         -2   -1    0    0    0  501 -0.00000000000E+00  0.00000000000E+00  0.11787974733E+02  0.11787974733E+02  0.00000000000E+00 0.  1.
          2   -1    0    0  501    0  0.00000000000E+00 -0.00000000000E+00 -0.18750381363E+04  0.18750381363E+04  0.00000000000E+00 0. -1.
         23    2    1    2    0    0 -0.46168411172E+02  0.80005253458E+02 -0.12847522968E+04  0.12941290961E+04  0.12509712479E+03 0.  0.
         23    2    1    2    0    0  0.46168411172E+02 -0.80005253458E+02 -0.57849786481E+03  0.59269701491E+03  0.89986716384E+02 0.  0.
          5    1    3    3  502    0 -0.83400354794E+02  0.24080844555E+02 -0.80491022742E+03  0.80958844660E+03  0.41800000000E+01 0. -1.
         -5    1    3    3    0  502  0.37231943622E+02  0.55924408903E+02 -0.47984206933E+03  0.48454064952E+03  0.41800000000E+01 0. -1.
        -11    1    4    4    0    0 -0.29799524674E+01  0.18194895867E+02 -0.63548798858E+02  0.66169359893E+02  0.00000000000E+00 0.  1.
         11    1    4    4    0    0  0.49148363640E+02 -0.98200149325E+02 -0.51494906595E+03  0.52652765501E+03  0.00000000000E+00 0. -1.
</event>
<event>
 8    1  0.4798744E-006  0.1324464E+03  0.7561462E-02  0.1223870E+00
         -1   -1    0    0    0  501 -0.00000000000E+00  0.00000000000E+00  0.17517967649E+02  0.17517967649E+02  0.00000000000E+00 0.  1.
          1   -1    0    0  501    0  0.00000000000E+00 -0.00000000000E+00 -0.15747747375E+04  0.15747747375E+04  0.00000000000E+00 0. -1.
         23    2    1    2    0    0 -0.17060034288E+02 -0.12605570962E+03 -0.92541010793E+03  0.94244953718E+03  0.12508467361E+03 0.  0.
         23    2    1    2    0    0  0.17060034288E+02  0.12605570962E+03 -0.63184666195E+03  0.64984316800E+03  0.82975008763E+02 0.  0.
          5    1    3    3  502    0 -0.27582470646E+01  0.45909287939E+00 -0.45695145585E+03  0.45697912873E+03  0.41800000000E+01 0.  1.
         -5    1    3    3    0  502 -0.14301787224E+02 -0.12651480250E+03 -0.46845865207E+03  0.48547040844E+03  0.41800000000E+01 0.  1.
        -11    1    4    4    0    0  0.31617881449E+01  0.11409362424E+03 -0.61304638968E+03  0.62358097140E+03  0.00000000000E+00 0. -1.
         11    1    4    4    0    0  0.13898246143E+02  0.11962085382E+02 -0.18800272266E+02  0.26262196591E+02  0.00000000000E+00 0.  1.
</event>
<event>
 8    1  0.4798744E-006  0.1666076E+03  0.7561462E-02  0.1181432E+00
          1   -1    0    0  501    0  0.00000000000E+00  0.00000000000E+00  0.13185552725E+04  0.13185552725E+04  0.00000000000E+00 0. -1.
         -1   -1    0    0    0  501 -0.00000000000E+00 -0.00000000000E+00 -0.24582343823E+02  0.24582343823E+02  0.00000000000E+00 0.  1.
         23    2    1    2    0    0 -0.26273477369E+02  0.12888564564E+03  0.45019215816E+03  0.48540965912E+03  0.12509097744E+03 0.  0.
         23    2    1    2    0    0  0.26273477369E+02 -0.12888564564E+03  0.84378077057E+03  0.85772795725E+03  0.80183879957E+02 0.  0.
          5    1    3    3  502    0 -0.33189506688E+02 -0.14734280217E+02  0.11458060121E+03  0.12026981725E+03  0.41800000000E+01 0.  1.
         -5    1    3    3    0  502  0.69160293198E+01  0.14361992586E+03  0.33561155695E+03  0.36513984187E+03  0.41800000000E+01 0.  1.
        -11    1    4    4    0    0  0.26744361737E+02 -0.29812665149E+01  0.11143587107E+03  0.11463900818E+03  0.00000000000E+00 0.  1.
         11    1    4    4    0    0 -0.47088436886E+00 -0.12590437912E+03  0.73234489950E+03  0.74308894907E+03  0.00000000000E+00 0. -1.
</event>
<event>
 7    1  0.4798744E-006  0.1098104E+03  0.7561462E-02  0.1260921E+00
         -2   -1    0    0    0  501 -0.00000000000E+00  0.00000000000E+00  0.24622700618E+02  0.24622700618E+02  0.00000000000E+00 0.  1.
          2   -1    0    0  501    0  0.00000000000E+00 -0.00000000000E+00 -0.74014080563E+03  0.74014080563E+03  0.00000000000E+00 0. -1.
         23    2    1    2    0    0  0.52105640225E+02 -0.20803384788E+02 -0.43051330954E+03  0.44352767724E+03  0.90704532558E+02 0.  0.
          5    1    1    2  502    0 -0.27130166448E+02 -0.39201635670E+02 -0.23307605990E+03  0.23793851364E+03  0.41800000000E+01 0. -1.
         -5    1    1    2    0  502 -0.24975473777E+02  0.60005020457E+02 -0.51928735570E+02  0.83297315373E+02  0.41800000000E+01 0.  1.
        -11    1    3    3    0    0  0.33004463958E+02 -0.56909233764E+02 -0.26143375704E+03  0.26958405897E+03  0.00000000000E+00 0. -1.
         11    1    3    3    0    0  0.19101176268E+02  0.36105848977E+02 -0.16907955249E+03  0.17394361827E+03  0.00000000000E+00 0.  1.
</event>
<event>
 8    1  0.4798744E-006  0.1315795E+03  0.7561462E-02  0.1225131E+00
          1   -1    0    0  501    0  0.00000000000E+00  0.00000000000E+00  0.22571231750E+03  0.22571231750E+03  0.00000000000E+00 0. -1.
         -1   -1    0    0    0  501 -0.00000000000E+00 -0.00000000000E+00 -0.10453684139E+03  0.10453684139E+03  0.00000000000E+00 0.  1.
         23    2    1    2    0    0 -0.25665800520E+01 -0.74112226388E+02 -0.17993374795E+02  0.14796351591E+03  0.12676841511E+03 0.  0.
         23    2    1    2    0    0  0.25665800520E+01  0.74112226388E+02  0.13916885091E+03  0.18228564298E+03  0.91437832105E+02 0.  0.
          5    1    3    3  502    0 -0.62616309455E+02 -0.22484103996E+02 -0.75798241769E-01  0.66661947823E+02  0.41800000000E+01 0. -1.
         -5    1    3    3    0  502  0.60049729403E+02 -0.51628122392E+02 -0.17917576554E+02  0.81301568082E+02  0.41800000000E+01 0.  1.
        -11    1    4    4    0    0 -0.41105002537E+02  0.57032902626E+02  0.74857526563E+02  0.10269382892E+03  0.00000000000E+00 0. -1.
         11    1    4    4    0    0  0.43671582589E+02  0.17079323762E+02  0.64311324349E+02  0.79591814061E+02  0.00000000000E+00 0.  1.
</event>
<event>
 8    1  0.4798744E-006  0.2105927E+03  0.7561462E-02  0.1141098E+00
          1   -1    0    0  501    0  0.00000000000E+00  0.00000000000E+00  0.79568954283E+03  0.79568954283E+03  0.00000000000E+00 0. -1.
         -1   -1    0    0    0  501 -0.00000000000E+00 -0.00000000000E+00 -0.69250607420E+02  0.69250607420E+02  0.00000000000E+00 0.  1.
         23    2    1    2    0    0  0.29332181899E+02 -0.19711321992E+03  0.26662497732E+03  0.35560141297E+03  0.12509791372E+03 0.  0.
         23    2    1    2    0    0 -0.29332181899E+02  0.19711321992E+03  0.45981395809E+03  0.50933873728E+03  0.91011399674E+02 0.  0.
          5    1    3    3  502    0  0.11571106977E+02 -0.17234058644E+03  0.13180026285E+03  0.21731072210E+03  0.41800000000E+01 0.  1.
         -5    1    3    3    0  502  0.17761074921E+02 -0.24772633480E+02  0.13482471446E+03  0.13829069087E+03  0.41800000000E+01 0.  1.
        -11    1    4    4    0    0 -0.55198380663E+02  0.17535823417E+03  0.36506017674E+03  0.40873745138E+03  0.00000000000E+00 0. -1.
         11    1    4    4    0    0  0.25866198764E+02  0.21754985755E+02  0.94753781352E+02  0.10060128590E+03  0.00000000000E+00 0.  1.
</event>
<event>
 8    1  0.4798744E-006  0.1096597E+03  0.7561462E-02  0.1261201E+00
         -4   -1    0    0    0  501 -0.00000000000E+00  0.00000000000E+00  0.72839286324E+02  0.72839286324E+02  0.00000000000E+00 0.  1.
          4   -1    0    0  501    0  0.00000000000E+00 -0.00000000000E+00 -0.25212817601E+03  0.25212817601E+03  0.00000000000E+00 0. -1.
         23    2    1    2    0    0  0.20681863621E+01  0.78808977309E+02 -0.11869844442E+03  0.18960702230E+03  0.12508545039E+03 0.  0.
         23    2    1    2    0    0 -0.20681863621E+01 -0.78808977309E+02 -0.60590445274E+02  0.13536044004E+03  0.91848322632E+02 0.  0.
          5    1    3    3  502    0  0.39797817446E+02  0.57554871779E+02 -0.78629971767E+01  0.70538845068E+02  0.41800000000E+01 0.  1.
         -5    1    3    3    0  502 -0.37729631084E+02  0.21254105530E+02 -0.11083544724E+03  0.11906817723E+03  0.41800000000E+01 0.  1.
        -11    1    4    4    0    0  0.33326014397E+02 -0.26605624300E+02 -0.58321495598E+02  0.72248732368E+02  0.00000000000E+00 0. -1.
         11    1    4    4    0    0 -0.35394200759E+02 -0.52203353009E+02 -0.22689496759E+01  0.63111707673E+02  0.00000000000E+00 0.  1.
</event>
<event>
 8    1  0.4798744E-006  0.1090395E+03  0.7561462E-02  0.1262359E+00
          1   -1    0    0  501    0  0.00000000000E+00  0.00000000000E+00  0.28026853435E+02  0.28026853435E+02  0.00000000000E+00 0. -1.
         -1   -1    0    0    0  501 -0.00000000000E+00 -0.00000000000E+00 -0.69122954552E+03  0.69122954552E+03  0.00000000000E+00 0.  1.
         23    2    1    2    0    0  0.31567969621E+02  0.46813403724E+02 -0.53482762561E+03  0.55215600763E+03  0.12509051191E+03 0.  0.
         23    2    1    2    0    0 -0.31567969621E+02 -0.46813403724E+02 -0.12837506648E+03  0.16710039133E+03  0.90853462317E+02 0.  0.
          5    1    3    3  502    0  0.57230710555E+02 -0.22137100395E+02 -0.19669819208E+03  0.20608992361E+03  0.41800000000E+01 0. -1.
         -5    1    3    3    0  502 -0.25662740934E+02  0.68950504120E+02 -0.33812943353E+03  0.34606608402E+03  0.41800000000E+01 0. -1.
        -11    1    4    4    0    0 -0.26875801504E+02  0.78662266836E+01 -0.10281347647E+03  0.10655889063E+03  0.00000000000E+00 0.  1.
         11    1    4    4    0    0 -0.46921681170E+01 -0.54679630408E+02 -0.25561590008E+02  0.60541500699E+02  0.00000000000E+00 0. -1.
</event>
<event>
 8    1  0.4798744E-006  0.7511413E+02  0.7561462E-02  0.1343518E+00
         -1   -1    0    0    0  501 -0.00000000000E+00  0.00000000000E+00  0.61781365286E+02  0.61781365286E+02  0.00000000000E+00 0.  1.
          1   -1    0    0  501    0  0.00000000000E+00 -0.00000000000E+00 -0.20428327889E+03  0.20428327889E+03  0.00000000000E+00 0. -1.
         23    2    1    2    0    0  0.14506015365E+02 -0.24982864438E+02 -0.72856321565E+02  0.14761759456E+03  0.12509333569E+03 0.  0.
         23    2    1    2    0    0 -0.14506015365E+02  0.24982864438E+02 -0.69645592038E+02  0.11844704962E+03  0.91348930349E+02 0.  0.
          5    1    3    3  502    0  0.18256686265E+02 -0.55061433699E+02  0.10251255723E+02  0.59056148861E+02  0.41800000000E+01 0.  1.
         -5    1    3    3    0  502 -0.37506709005E+01  0.30078569262E+02 -0.83107577288E+02  0.88561445695E+02  0.41800000000E+01 0.  1.
        -11    1    4    4    0    0 -0.20155083912E+02  0.40346702742E+02 -0.84859015487E+02  0.96099616748E+02  0.00000000000E+00 0. -1.
         11    1    4    4    0    0  0.56490685472E+01 -0.15363838304E+02  0.15213423449E+02  0.22347432871E+02  0.00000000000E+00 0.  1.
</event>
<event>
 8    1  0.4798744E-006  0.1279490E+03  0.7561462E-02  0.1230531E+00
          1   -1    0    0  501    0  0.00000000000E+00  0.00000000000E+00  0.66564486332E+03  0.66564486332E+03  0.00000000000E+00 0. -1.
         -1   -1    0    0    0  501 -0.00000000000E+00 -0.00000000000E+00 -0.31582733013E+02  0.31582733013E+02  0.00000000000E+00 0.  1.
         23    2    1    2    0    0  0.82560953834E+02  0.76593525686E+01  0.22852715483E+03  0.27340100362E+03  0.12509385080E+03 0.  0.
         23    2    1    2    0    0 -0.82560953834E+02 -0.76593525686E+01  0.40553497548E+03  0.42382659271E+03  0.91079018284E+02 0.  0.
          5    1    3    3  502    0  0.66802132183E+02  0.60589281178E+02  0.17205010618E+03  0.19429950410E+03  0.41800000000E+01 0.  1.
         -5    1    3    3    0  502  0.15758821652E+02 -0.52929928610E+02  0.56477048650E+02  0.79101499522E+02  0.41800000000E+01 0.  1.
        -11    1    4    4    0    0 -0.89915795808E+02 -0.23353210428E+02  0.38876239263E+03  0.39970791923E+03  0.00000000000E+00 0. -1.
         11    1    4    4    0    0  0.73548419740E+01  0.15693857859E+02  0.16772582852E+02  0.24118673481E+02  0.00000000000E+00 0.  1.
</event>
<event>
 8    1  0.4798744E-006  0.1468444E+03  0.7561462E-02  0.1204405E+00
         -1   -1    0    0    0  501 -0.00000000000E+00  0.00000000000E+00  0.76486048559E+03  0.76486048559E+03  0.00000000000E+00 0.  1.
          1   -1    0    0  501    0  0.00000000000E+00 -0.00000000000E+00 -0.37710128467E+02  0.37710128467E+02  0.00000000000E+00 0. -1.
         23    2    1    2    0    0  0.11403159908E+03 -0.66386443975E+01  0.53516201986E+03  0.56133158371E+03  0.12508989642E+03 0.  0.
         23    2    1    2    0    0 -0.11403159908E+03  0.66386443975E+01  0.19198833727E+03  0.24123903035E+03  0.91046531668E+02 0.  0.
          5    1    3    3  502    0 -0.17886147605E+01  0.37311461133E+02  0.21017978121E+03  0.21351430187E+03  0.41800000000E+01 0. -1.
         -5    1    3    3    0  502  0.11582021384E+03 -0.43950105531E+02  0.32498223865E+03  0.34781728184E+03  0.41800000000E+01 0. -1.
        -11    1    4    4    0    0 -0.15631685737E+02  0.27437687559E+02  0.96792925797E+01  0.33028245524E+02  0.00000000000E+00 0. -1.
         11    1    4    4    0    0 -0.98399913340E+02 -0.20799043162E+02  0.18230904469E+03  0.20821078482E+03  0.00000000000E+00 0.  1.
</event>
<event>
 8    1  0.4798744E-006  0.2403059E+03  0.7561462E-02  0.1119589E+00
         -1   -1    0    0    0  501 -0.00000000000E+00  0.00000000000E+00  0.80744610998E+02  0.80744610998E+02  0.00000000000E+00 0.  1.
          1   -1    0    0  501    0  0.00000000000E+00 -0.00000000000E+00 -0.73139719511E+03  0.73139719511E+03  0.00000000000E+00 0. -1.
         23    2    1    2    0    0 -0.17420736523E+03  0.12636320984E+03 -0.28326341398E+03  0.37709520443E+03  0.12508702814E+03 0.  0.
         23    2    1    2    0    0  0.17420736523E+03 -0.12636320984E+03 -0.36738917013E+03  0.43504660167E+03  0.89302163458E+02 0.  0.
          5    1    3    3  502    0 -0.18310703423E+03  0.14092402059E+03 -0.25859056704E+03  0.34680588133E+03  0.41800000000E+01 0. -1.
         -5    1    3    3    0  502  0.88996690002E+01 -0.14560810753E+02 -0.24672846933E+02  0.30289323100E+02  0.41800000000E+01 0. -1.
        -11    1    4    4    0    0  0.11066799053E+03 -0.26850890517E+02 -0.15971089186E+03  0.19615285731E+03  0.00000000000E+00 0.  1.
         11    1    4    4    0    0  0.63539374694E+02 -0.99512319319E+02 -0.20767827827E+03  0.23889374437E+03  0.00000000000E+00 0. -1.
</event>
<event>
 8    1  0.4798744E-006  0.2149267E+03  0.7561462E-02  0.1137723E+00
         -2   -1    0    0    0  501 -0.00000000000E+00  0.00000000000E+00  0.88097357042E+02  0.88097357042E+02  0.00000000000E+00 0.  1.
          2   -1    0    0  501    0  0.00000000000E+00 -0.00000000000E+00 -0.56492093699E+03  0.56492093699E+03  0.00000000000E+00 0. -1.
         23    2    1    2    0    0 -0.55391486089E+02 -0.18609798973E+03 -0.27707240579E+03  0.36072163069E+03  0.12510115222E+03 0.  0.
         23    2    1    2    0    0  0.55391486089E+02  0.18609798973E+03 -0.19975117416E+03  0.29229666334E+03  0.88521914303E+02 0.  0.
          5    1    3    3  502    0 -0.68662414907E+02 -0.37782020855E+02 -0.12681508631E+03  0.14913600114E+03  0.41800000000E+01 0. -1.
         -5    1    3    3    0  502  0.13270928819E+02 -0.14831596887E+03 -0.15025731948E+03  0.21158562955E+03  0.41800000000E+01 0. -1.
        -11    1    4    4    0    0  0.47716416513E+02  0.62820621307E+02 -0.12533622772E+03  0.14809610679E+03  0.00000000000E+00 0. -1.
         11    1    4    4    0    0  0.76750695760E+01  0.12327736842E+03 -0.74414946439E+02  0.14420055656E+03  0.00000000000E+00 0.  1.
</event>
<event>
 8    1  0.4798744E-006  0.1868757E+03  0.7561462E-02  0.1161310E+00
          2   -1    0    0  501    0  0.00000000000E+00  0.00000000000E+00  0.87828816665E+03  0.87828816665E+03  0.00000000000E+00 0.  1.
         -2   -1    0    0    0  501 -0.00000000000E+00 -0.00000000000E+00 -0.41759677371E+02  0.41759677371E+02  0.00000000000E+00 0. -1.
         23    2    1    2    0    0 -0.83692782664E+02  0.12745620714E+03  0.53708688155E+03  0.57215309591E+03  0.12508908910E+03 0.  0.
         23    2    1    2    0    0  0.83692782664E+02 -0.12745620714E+03  0.29944160772E+03  0.34789474811E+03  0.90088360625E+02 0.  0.
          5    1    3    3  502    0 -0.11221391713E+03  0.69308430759E+02  0.34335597802E+03  0.36784021234E+03  0.41800000000E+01 0.  1.
         -5    1    3    3    0  502  0.28521134461E+02  0.58147776376E+02  0.19373090353E+03  0.20431288357E+03  0.41800000000E+01 0.  1.
        -11    1    4    4    0    0  0.95739332068E+02 -0.71073759686E+02  0.19376349343E+03  0.22751217639E+03  0.00000000000E+00 0.  1.
         11    1    4    4    0    0 -0.12046549404E+02 -0.56382447450E+02  0.10567811430E+03  0.12038257172E+03  0.00000000000E+00 0. -1.
</event>
<event>
 8    1  0.4798744E-006  0.1350784E+03  0.7561462E-02  0.1220109E+00
         -2   -1    0    0    0  501 -0.00000000000E+00  0.00000000000E+00  0.47858689957E+02  0.47858689957E+02  0.00000000000E+00 0. -1.
          2   -1    0    0  501    0  0.00000000000E+00 -0.00000000000E+00 -0.49519628218E+03  0.49519628218E+03  0.00000000000E+00 0.  1.
         23    2    1    2    0    0 -0.86777964813E+02 -0.60762291503E+02 -0.19250309996E+03  0.25283768324E+03  0.12508788639E+03 0.  0.
         23    2    1    2    0    0  0.86777964813E+02  0.60762291503E+02 -0.25483449226E+03  0.29021728890E+03  0.89794126127E+02 0.  0.
          5    1    3    3  502    0 -0.70850265551E+02 -0.99063539095E+02 -0.13587947502E+03  0.18252136598E+03  0.41800000000E+01 0.  1.
         -5    1    3    3    0  502 -0.15927699262E+02  0.38301247592E+02 -0.56623624943E+02  0.70316317257E+02  0.41800000000E+01 0.  1.
        -11    1    4    4    0    0  0.59870342825E+02  0.48414117664E+02 -0.24821199990E+03  0.25987993695E+03  0.00000000000E+00 0.  1.
         11    1    4    4    0    0  0.26907621988E+02  0.12348173839E+02 -0.66224923660E+01  0.30337351950E+02  0.00000000000E+00 0. -1.
</event>
<event>
 8    1  0.4798744E-006  0.1317558E+03  0.7561462E-02  0.1224873E+00
         -2   -1    0    0    0  501 -0.00000000000E+00  0.00000000000E+00  0.35834550381E+02  0.35834550381E+02  0.00000000000E+00 0.  1.
          2   -1    0    0  501    0  0.00000000000E+00 -0.00000000000E+00 -0.74231759430E+03  0.74231759430E+03  0.00000000000E+00 0. -1.
         23    2    1    2    0    0 -0.74184010143E+02  0.98880724604E+02 -0.42305025500E+03  0.45814852955E+03  0.12509153377E+03 0.  0.
         23    2    1    2    0    0  0.74184010143E+02 -0.98880724604E+02 -0.28343278892E+03  0.32000361513E+03  0.82386302256E+02 0.  0.
          5    1    3    3  502    0 -0.32834788095E+02  0.56794276614E+00 -0.14955067507E+02  0.36325917915E+02  0.41800000000E+01 0.  1.
         -5    1    3    3    0  502 -0.41349222048E+02  0.98312781838E+02 -0.40809518749E+03  0.42182261164E+03  0.41800000000E+01 0.  1.
        -11    1    4    4    0    0  0.40392601933E+02 -0.56907241566E+02 -0.24247991577E+03  0.25232222650E+03  0.00000000000E+00 0. -1.
         11    1    4    4    0    0  0.33791408209E+02 -0.41973483038E+02 -0.40952873149E+02  0.67681388625E+02  0.00000000000E+00 0.  1.
</event>
<event>
 8    1  0.4798744E-006  0.1084107E+03  0.7561462E-02  0.1263542E+00
          1   -1    0    0  501    0  0.00000000000E+00  0.00000000000E+00  0.54450138191E+03  0.54450138191E+03  0.00000000000E+00 0. -1.
         -1   -1    0    0    0  501 -0.00000000000E+00 -0.00000000000E+00 -0.24880410910E+02  0.24880410910E+02  0.00000000000E+00 0.  1.
         23    2    1    2    0    0 -0.41069205446E+02  0.11739812817E+02  0.26850118303E+03  0.29925870552E+03  0.12505352734E+03 0.  0.
         23    2    1    2    0    0  0.41069205446E+02 -0.11739812817E+02  0.25111978797E+03  0.27012308730E+03  0.89893445488E+02 0.  0.
          5    1    3    3  502    0  0.18386071763E+02  0.45355900752E+02  0.18443290033E+03  0.19086165799E+03  0.41800000000E+01 0. -1.
         -5    1    3    3    0  502 -0.59455277210E+02 -0.33616087936E+02  0.84068282698E+02  0.10839704752E+03  0.41800000000E+01 0. -1.
        -11    1    4    4    0    0  0.69819878620E+02 -0.88493038872E+01  0.16903951938E+03  0.18310511938E+03  0.00000000000E+00 0. -1.
         11    1    4    4    0    0 -0.28750673173E+02 -0.28905089297E+01  0.82080268589E+02  0.87017967923E+02  0.00000000000E+00 0.  1.
</event>
<event>
 8    1  0.4798744E-006  0.1447871E+03  0.7561462E-02  0.1207029E+00
         -3   -1    0    0    0  501 -0.00000000000E+00  0.00000000000E+00  0.25608319613E+03  0.25608319613E+03  0.00000000000E+00 0.  1.
          3   -1    0    0  501    0  0.00000000000E+00 -0.00000000000E+00 -0.90773379127E+02  0.90773379127E+02  0.00000000000E+00 0. -1.
         23    2    1    2    0    0  0.99830403378E+02 -0.34346017345E+02  0.70599394449E+02  0.17826276999E+03  0.12509029668E+03 0.  0.
         23    2    1    2    0    0 -0.99830403378E+02  0.34346017345E+02  0.94710422559E+02  0.16859380527E+03  0.91148497999E+02 0.  0.
          5    1    3    3  502    0  0.12403973085E+03 -0.24930742799E+02  0.80651000517E+02  0.15009814473E+03  0.41800000000E+01 0. -1.
         -5    1    3    3    0  502 -0.24209327477E+02 -0.94152745461E+01 -0.10051606067E+02  0.28164625262E+02  0.41800000000E+01 0. -1.
        -11    1    4    4    0    0  0.16215261906E+02  0.51386887761E+01  0.24583608976E+02  0.29894726480E+02  0.00000000000E+00 0.  1.
         11    1    4    4    0    0 -0.11604566528E+03  0.29207328569E+02  0.70126813583E+02  0.13869907879E+03  0.00000000000E+00 0. -1.
</event>
<event>
 8    1  0.4798744E-006  0.1255266E+03  0.7561462E-02  0.1234249E+00
          2   -1    0    0  501    0  0.00000000000E+00  0.00000000000E+00  0.14800460294E+03  0.14800460294E+03  0.00000000000E+00 0.  1.
         -2   -1    0    0    0  501 -0.00000000000E+00 -0.00000000000E+00 -0.16249526732E+03  0.16249526732E+03  0.00000000000E+00 0. -1.
         23    2    1    2    0    0 -0.18032028946E+02  0.88401657723E+02 -0.69933232985E+02  0.16934517388E+03  0.12508846343E+03 0.  0.
         23    2    1    2    0    0  0.18032028946E+02 -0.88401657723E+02  0.55442568606E+02  0.14115469638E+03  0.93331467048E+02 0.  0.
          5    1    3    3  502    0  0.45400252136E+02  0.45157261316E+02 -0.66457941363E+02  0.92382311693E+02  0.41800000000E+01 0. -1.
         -5    1    3    3    0  502 -0.63432281082E+02  0.43244396407E+02 -0.34752916216E+01  0.76962862185E+02  0.41800000000E+01 0. -1.
        -11    1    4    4    0    0 -0.22019413257E+02 -0.49443422265E+02  0.64877342225E+02  0.84490094684E+02  0.00000000000E+00 0. -1.
         11    1    4    4    0    0  0.40051442203E+02 -0.38958235458E+02 -0.94347736189E+01  0.56664601699E+02  0.00000000000E+00 0.  1.
</event>
<event>
 7    1  0.4798744E-006  0.9568377E+02  0.7561462E-02  0.1289643E+00
         -2   -1    0    0    0  501 -0.00000000000E+00  0.00000000000E+00  0.13195791919E+04  0.13195791919E+04  0.00000000000E+00 0.  1.
          2   -1    0    0  501    0  0.00000000000E+00 -0.00000000000E+00 -0.31761389946E+02  0.31761389946E+02  0.00000000000E+00 0. -1.
         23    2    1    2    0    0 -0.16609683411E+02  0.42599909956E+02  0.62074894628E+02  0.11799552525E+03  0.89325346484E+02 0.  0.
          5    1    1    2  502    0  0.24896868110E+02  0.33995064812E+02  0.18670569507E+03  0.19144714008E+03  0.41800000000E+01 0. -1.
         -5    1    1    2    0  502 -0.82871846987E+01 -0.76594974769E+02  0.10390372122E+04  0.10418979165E+04  0.41800000000E+01 0.  1.
        -11    1    3    3    0    0 -0.31156976529E+02  0.50039660549E+01  0.70115316203E+02  0.76889234806E+02  0.00000000000E+00 0.  1.
         11    1    3    3    0    0  0.14547293118E+02  0.37595943902E+02 -0.80404215755E+01  0.41106290443E+02  0.00000000000E+00 0. -1.
</event>
<event>
 8    1  0.4798744E-006  0.1029114E+03  0.7561462E-02  0.1274290E+00
         -1   -1    0    0    0  501 -0.00000000000E+00  0.00000000000E+00  0.35902552704E+03  0.35902552704E+03  0.00000000000E+00 0.  1.
          1   -1    0    0  501    0  0.00000000000E+00 -0.00000000000E+00 -0.37729913657E+02  0.37729913657E+02  0.00000000000E+00 0. -1.
         23    2    1    2    0    0  0.25903412552E+02  0.32786274539E+02  0.21435148731E+03  0.25165614169E+03  0.12505329646E+03 0.  0.
         23    2    1    2    0    0 -0.25903412552E+02 -0.32786274539E+02  0.10694412607E+03  0.14509929901E+03  0.88717720283E+02 0.  0.
          5    1    3    3  502    0 -0.32346330175E+02 -0.11509950838E+02  0.15057433572E+03  0.15449552428E+03  0.41800000000E+01 0.  1.
         -5    1    3    3    0  502  0.58249742726E+02  0.44296225377E+02  0.63777151588E+02  0.97160617408E+02  0.41800000000E+01 0.  1.
        -11    1    4    4    0    0 -0.20486094819E+02  0.29225156537E+02  0.35452788781E+02  0.50305964735E+02  0.00000000000E+00 0.  1.
         11    1    4    4    0    0 -0.54173177325E+01 -0.62011431076E+02  0.71491337293E+02  0.94793334278E+02  0.00000000000E+00 0. -1.
</event>
<event>
 8    1  0.4798744E-006  0.9557565E+02  0.7561462E-02  0.1289885E+00
          1   -1    0    0  501    0  0.00000000000E+00  0.00000000000E+00  0.40745774068E+03  0.40745774068E+03  0.00000000000E+00 0. -1.
         -1   -1    0    0    0  501 -0.00000000000E+00 -0.00000000000E+00 -0.38750529339E+02  0.38750529339E+02  0.00000000000E+00 0.  1.
         23    2    1    2    0    0 -0.90788841176E+01  0.47762371536E+02  0.14730958214E+03  0.19928123851E+03  0.12509687750E+03 0.  0.
         23    2    1    2    0    0  0.90788841176E+01 -0.47762371536E+02  0.22139762920E+03  0.24692703151E+03  0.97940688188E+02 0.  0.
          5    1    3    3  502    0  0.22937891314E+02 -0.42475074884E+01  0.13471234332E+03  0.13678112450E+03  0.41800000000E+01 0.  1.
         -5    1    3    3    0  502 -0.32016775431E+02  0.52009879025E+02  0.12597238824E+02  0.62500114009E+02  0.41800000000E+01 0.  1.
        -11    1    4    4    0    0  0.21451478773E+02 -0.74096208172E+02  0.18421455940E+03  0.19971333932E+03  0.00000000000E+00 0. -1.
         11    1    4    4    0    0 -0.12372594655E+02  0.26333836635E+02  0.37183069800E+02  0.47213692190E+02  0.00000000000E+00 0.  1.
</event>
<event>
 8    1  0.5045320E-006  0.1644961E+03  0.7561462E-02  0.1183712E+00
          4   -1    0    0  501    0  0.00000000000E+00  0.00000000000E+00  0.39175440593E+02  0.39175440593E+02  0.00000000000E+00 0. -1.
         -4   -1    0    0    0  501 -0.00000000000E+00 -0.00000000000E+00 -0.83156195552E+03  0.83156195552E+03  0.00000000000E+00 0.  1.
         23    2    1    2    0    0  0.14074454088E+03 -0.90748927220E+01 -0.48429047233E+03  0.51968840276E+03  0.12508954753E+03 0.  0.
         23    2    1    2    0    0 -0.14074454088E+03  0.90748927220E+01 -0.30809604259E+03  0.35104899335E+03  0.91765161188E+02 0.  0.
          5    1    3    3  502    0  0.79220326862E+02  0.54303773795E+02 -0.19895309286E+03  0.22096281496E+03  0.41800000000E+01 0.  1.
         -5    1    3    3    0  502  0.61524214020E+02 -0.63378666517E+02 -0.28533737947E+03  0.29872558780E+03  0.41800000000E+01 0.  1.
        -11    1    4    4    0    0 -0.71096863786E+02  0.20167432931E+02 -0.24673969957E+03  0.25756934743E+03  0.00000000000E+00 0.  1.
         11    1    4    4    0    0 -0.69647677096E+02 -0.11092540209E+02 -0.61356343023E+02  0.93479645926E+02  0.00000000000E+00 0. -1.
</event>
<event>
 7    1  0.4798744E-006  0.1212630E+03  0.7561462E-02  0.1241028E+00
         -1   -1    0    0    0  501 -0.00000000000E+00  0.00000000000E+00  0.35394568470E+02  0.35394568470E+02  0.00000000000E+00 0.  1.
          1   -1    0    0  501    0  0.00000000000E+00 -0.00000000000E+00 -0.55684527110E+03  0.55684527110E+03  0.00000000000E+00 0. -1.
         23    2    1    2    0    0  0.34471818314E+02 -0.63575735282E+02 -0.32360923924E+03  0.34372051323E+03  0.90502326586E+02 0.  0.
          5    1    1    2  502    0 -0.70283699289E+02  0.58349441222E+02 -0.19056320896E+03  0.21136760558E+03  0.41800000000E+01 0. -1.
         -5    1    1    2    0  502  0.35811880975E+02  0.52262940595E+01 -0.72782544310E+01  0.37151720769E+02  0.41800000000E+01 0.  1.
        -11    1    3    3    0    0  0.72166081660E+01 -0.81636226759E+02 -0.25220311219E+03  0.26518477097E+03  0.00000000000E+00 0.  1.
         11    1    3    3    0    0  0.27255210148E+02  0.18060491477E+02 -0.71406127047E+02  0.78535742261E+02  0.00000000000E+00 0. -1.
</event>
<event>
 8    1  0.4798744E-006  0.1422001E+03  0.7561462E-02  0.1210399E+00
          2   -1    0    0  501    0  0.00000000000E+00  0.00000000000E+00  0.59274055070E+02  0.59274055070E+02  0.00000000000E+00 0. -1.
         -2   -1    0    0    0  501 -0.00000000000E+00 -0.00000000000E+00 -0.51099521540E+03  0.51099521540E+03  0.00000000000E+00 0.  1.
         23    2    1    2    0    0 -0.94370061972E+02  0.40523142263E+02 -0.38510935018E+03  0.41774030402E+03  0.12509962570E+03 0.  0.
         23    2    1    2    0    0  0.94370061972E+02 -0.40523142263E+02 -0.66611810149E+02  0.15252896645E+03  0.90995157562E+02 0.  0.
          5    1    3    3  502    0 -0.22229784191E+02  0.67055961448E+02 -0.27104204074E+03  0.28012840899E+03  0.41800000000E+01 0. -1.
         -5    1    3    3    0  502 -0.72140277781E+02 -0.26532819185E+02 -0.11406730943E+03  0.13761189503E+03  0.41800000000E+01 0. -1.
        -11    1    4    4    0    0  0.10532677732E+02  0.27015298042E+02 -0.19938068811E+02  0.35189348053E+02  0.00000000000E+00 0.  1.
         11    1    4    4    0    0  0.83837384240E+02 -0.67538440305E+02 -0.46673741338E+02  0.11733961840E+03  0.00000000000E+00 0. -1.
</event>
<event>
 8    1  0.4798744E-006  0.7146538E+02  0.7561462E-02  0.1355180E+00
          1   -1    0    0  501    0  0.00000000000E+00  0.00000000000E+00  0.62572639257E+03  0.62572639257E+03  0.00000000000E+00 0. -1.
         -1   -1    0    0    0  501 -0.00000000000E+00 -0.00000000000E+00 -0.29613523704E+02  0.29613523704E+02  0.00000000000E+00 0.  1.
         23    2    1    2    0    0  0.11610258242E+02  0.19555589996E+02  0.13862374366E+03  0.18809932365E+03  0.12509034356E+03 0.  0.
         23    2    1    2    0    0 -0.11610258242E+02 -0.19555589996E+02  0.45748912520E+03  0.46724059262E+03  0.92196814059E+02 0.  0.
          5    1    3    3  502    0 -0.37831829049E+01  0.29240163477E+02 -0.15002167217E+02  0.33344220702E+02  0.41800000000E+01 0. -1.
         -5    1    3    3    0  502  0.15393441147E+02 -0.96845734809E+01  0.15362591088E+03  0.15475510295E+03  0.41800000000E+01 0. -1.
        -11    1    4    4    0    0 -0.29737585357E+01  0.37081007085E+02  0.15792154679E+03  0.16224382659E+03  0.00000000000E+00 0.  1.
         11    1    4    4    0    0 -0.86364997063E+01 -0.56636597081E+02  0.29956757841E+03  0.30499676603E+03  0.00000000000E+00 0. -1.
</event>
<event>
 8    1  0.4798744E-006  0.1782878E+03  0.7561462E-02  0.1169471E+00
         -2   -1    0    0    0  501 -0.00000000000E+00  0.00000000000E+00  0.53920181898E+02  0.53920181898E+02  0.00000000000E+00 0.  1.
          2   -1    0    0  501    0  0.00000000000E+00 -0.00000000000E+00 -0.68937916893E+03  0.68937916893E+03  0.00000000000E+00 0. -1.
         23    2    1    2    0    0 -0.10023228070E+03  0.11968185184E+03 -0.39039842397E+03  0.43866587669E+03  0.12508623500E+03 0.  0.
         23    2    1    2    0    0  0.10023228070E+03 -0.11968185184E+03 -0.24506056306E+03  0.30463347413E+03  0.91523867055E+02 0.  0.
          5    1    3    3  502    0 -0.12140391415E+03  0.57876815389E+02 -0.25979127554E+03  0.29257070150E+03  0.41800000000E+01 0. -1.
         -5    1    3    3    0  502  0.21171633456E+02  0.61805036448E+02 -0.13060714843E+03  0.14609517519E+03  0.41800000000E+01 0. -1.
        -11    1    4    4    0    0  0.14371503342E+02 -0.11300273602E+02 -0.10943264441E+03  0.11094926748E+03  0.00000000000E+00 0. -1.
         11    1    4    4    0    0  0.85860777357E+02 -0.10838157823E+03 -0.13562791865E+03  0.19368420666E+03  0.00000000000E+00 0.  1.
</event>
<event>
 8    1  0.4798744E-006  0.9158715E+02  0.7561462E-02  0.1299053E+00
          1   -1    0    0  501    0  0.00000000000E+00  0.00000000000E+00  0.16818359398E+03  0.16818359398E+03  0.00000000000E+00 0. -1.
         -1   -1    0    0    0  501 -0.00000000000E+00 -0.00000000000E+00 -0.99464004799E+02  0.99464004799E+02  0.00000000000E+00 0.  1.
         23    2    1    2    0    0  0.41804669035E+02  0.55248191821E+02  0.18478541686E+02  0.14418225266E+03  0.12508825855E+03 0.  0.
         23    2    1    2    0    0 -0.41804669035E+02 -0.55248191821E+02  0.50241047496E+02  0.12346534612E+03  0.88991773694E+02 0.  0.
          5    1    3    3  502    0  0.20670072932E+02 -0.22788840936E+02  0.48710928481E+02  0.57765129098E+02  0.41800000000E+01 0. -1.
         -5    1    3    3    0  502  0.21134596103E+02  0.78037032757E+02 -0.30232386796E+02  0.86417123566E+02  0.41800000000E+01 0. -1.
        -11    1    4    4    0    0 -0.27215998912E+02 -0.22479319886E+02 -0.22848402356E+02  0.42048542300E+02  0.00000000000E+00 0.  1.
         11    1    4    4    0    0 -0.14588670123E+02 -0.32768871935E+02  0.73089449852E+02  0.81416803816E+02  0.00000000000E+00 0. -1.
</event>
<event>
 8    1  0.4798744E-006  0.1521790E+03  0.7561462E-02  0.1197821E+00
          1   -1    0    0  501    0  0.00000000000E+00  0.00000000000E+00  0.31458046633E+03  0.31458046633E+03  0.00000000000E+00 0. -1.
         -1   -1    0    0    0  501 -0.00000000000E+00 -0.00000000000E+00 -0.97259703875E+02  0.97259703875E+02  0.00000000000E+00 0.  1.
         23    2    1    2    0    0 -0.11323044122E+03 -0.45795881475E+02  0.42246154259E+02  0.17986220746E+03  0.12508909043E+03 0.  0.
         23    2    1    2    0    0  0.11323044122E+03  0.45795881475E+02  0.17507460820E+03  0.23197796275E+03  0.90797913994E+02 0.  0.
          5    1    3    3  502    0  0.18523249441E+02  0.18414483624E+02 -0.24748366499E+01  0.26566919156E+02  0.41800000000E+01 0. -1.
         -5    1    3    3    0  502 -0.13175369066E+03 -0.64210365099E+02  0.44720990909E+02  0.15329528830E+03  0.41800000000E+01 0. -1.
        -11    1    4    4    0    0  0.10336832121E+03  0.22227751926E+02  0.77443558931E+02  0.13105948118E+03  0.00000000000E+00 0. -1.
         11    1    4    4    0    0  0.98621200046E+01  0.23568129549E+02  0.97631049269E+02  0.10091848157E+03  0.00000000000E+00 0.  1.
</event>
<event>
 8    1  0.4798744E-006  0.1442266E+03  0.7561462E-02  0.1207752E+00
         -1   -1    0    0    0  501 -0.00000000000E+00  0.00000000000E+00  0.10113923728E+04  0.10113923728E+04  0.00000000000E+00 0.  1.
          1   -1    0    0  501    0  0.00000000000E+00 -0.00000000000E+00 -0.26002007114E+02  0.26002007114E+02  0.00000000000E+00 0. -1.
         23    2    1    2    0    0 -0.11859129214E+03 -0.50425696778E+01  0.63267629506E+03  0.65416889140E+03  0.11648314068E+03 0.  0.
         23    2    1    2    0    0  0.11859129214E+03  0.50425696778E+01  0.35271407064E+03  0.38322548853E+03  0.91461671470E+02 0.  0.
          5    1    3    3  502    0 -0.10672177070E+03 -0.34170087390E+02  0.30501713067E+03  0.32497700475E+03  0.41800000000E+01 0. -1.
         -5    1    3    3    0  502 -0.11869521440E+02  0.29127517713E+02  0.32765916439E+03  0.32919188665E+03  0.41800000000E+01 0.  1.
        -11    1    4    4    0    0  0.64697807629E+02 -0.38513297727E+02  0.13288129476E+03  0.15273021610E+03  0.00000000000E+00 0. -1.
         11    1    4    4    0    0  0.53893484514E+02  0.43555867405E+02  0.21983277588E+03  0.23049527242E+03  0.00000000000E+00 0.  1.
</event>
<event>
 8    1  0.4798744E-006  0.1034666E+03  0.7561462E-02  0.1273171E+00
          1   -1    0    0  501    0  0.00000000000E+00  0.00000000000E+00  0.30376881168E+03  0.30376881168E+03  0.00000000000E+00 0. -1.
         -1   -1    0    0    0  501 -0.00000000000E+00 -0.00000000000E+00 -0.59111941825E+02  0.59111941825E+02  0.00000000000E+00 0.  1.
         23    2    1    2    0    0  0.75051273530E+02  0.62451888255E+01  0.15658972661E+03  0.21410157025E+03  0.12508974322E+03 0.  0.
         23    2    1    2    0    0 -0.75051273530E+02 -0.62451888255E+01  0.88067143243E+02  0.14877918326E+03  0.93315205676E+02 0.  0.
          5    1    3    3  502    0  0.15609628501E+02  0.36030637601E+02 -0.45350678932E+01  0.39748038803E+02  0.41800000000E+01 0.  1.
         -5    1    3    3    0  502  0.59441645029E+02 -0.29785448776E+02  0.16112479451E+03  0.17435353145E+03  0.41800000000E+01 0.  1.
        -11    1    4    4    0    0 -0.87031389309E+02 -0.11418554688E+02  0.35613685683E+02  0.94726874350E+02  0.00000000000E+00 0.  1.
         11    1    4    4    0    0  0.11980115779E+02  0.51733658624E+01  0.52453457560E+02  0.54052308910E+02  0.00000000000E+00 0. -1.
</event>
<event>
 8    1  0.4798744E-006  0.1688380E+03  0.7561462E-02  0.1179065E+00
          3   -1    0    0  501    0  0.00000000000E+00  0.00000000000E+00  0.88423193688E+02  0.88423193688E+02  0.00000000000E+00 0. -1.
         -3   -1    0    0    0  501 -0.00000000000E+00 -0.00000000000E+00 -0.33433269655E+03  0.33433269655E+03  0.00000000000E+00 0.  1.
         23    2    1    2    0    0 -0.29572468063E+02 -0.13345980558E+03 -0.14954176842E+03  0.23810987299E+03  0.12509004973E+03 0.  0.
         23    2    1    2    0    0  0.29572468063E+02  0.13345980558E+03 -0.96367734444E+02  0.18464601725E+03  0.78239126216E+02 0.  0.
          5    1    3    3  502    0 -0.50092563908E+02 -0.35892630755E+01 -0.62876620789E+02  0.80579709668E+02  0.41800000000E+01 0.  1.
         -5    1    3    3    0  502  0.20520095845E+02 -0.12987054250E+03 -0.86665147630E+02  0.15753016332E+03  0.41800000000E+01 0.  1.
        -11    1    4    4    0    0 -0.21220924708E+02  0.76623391915E+02 -0.35376166111E+02  0.87022669246E+02  0.00000000000E+00 0. -1.
         11    1    4    4    0    0  0.50793392771E+02  0.56836413663E+02 -0.60991568332E+02  0.97623348001E+02  0.00000000000E+00 0.  1.
</event>
<event>
 8    1  0.4798744E-006  0.1356771E+03  0.7561462E-02  0.1219267E+00
          1   -1    0    0  501    0  0.00000000000E+00  0.00000000000E+00  0.51566203240E+03  0.51566203240E+03  0.00000000000E+00 0. -1.
         -1   -1    0    0    0  501 -0.00000000000E+00 -0.00000000000E+00 -0.42362351417E+02  0.42362351417E+02  0.00000000000E+00 0.  1.
         23    2    1    2    0    0  0.45548359481E+02  0.78067218167E+02  0.17672569231E+03  0.23462498332E+03  0.12509104235E+03 0.  0.
         23    2    1    2    0    0 -0.45548359481E+02 -0.78067218167E+02  0.29657398868E+03  0.32339940049E+03  0.91988574701E+02 0.  0.
          5    1    3    3  502    0 -0.20490267033E+02 -0.23922374918E+02  0.47996589256E+02  0.57561063620E+02  0.41800000000E+01 0.  1.
         -5    1    3    3    0  502  0.66038626514E+02  0.10198959309E+03  0.12872910305E+03  0.17706391971E+03  0.41800000000E+01 0.  1.
        -11    1    4    4    0    0 -0.66322724652E+02 -0.67752632609E+02  0.16939867471E+03  0.19412633521E+03  0.00000000000E+00 0.  1.
         11    1    4    4    0    0  0.20774365171E+02 -0.10314585558E+02  0.12717531397E+03  0.12927306528E+03  0.00000000000E+00 0. -1.
</event>
<event>
 8    1  0.4798744E-006  0.1256703E+03  0.7561462E-02  0.1234025E+00
         -2   -1    0    0    0  501 -0.00000000000E+00  0.00000000000E+00  0.29158839293E+03  0.29158839293E+03  0.00000000000E+00 0.  1.
          2   -1    0    0  501    0  0.00000000000E+00 -0.00000000000E+00 -0.74172252824E+02  0.74172252824E+02  0.00000000000E+00 0. -1.
         23    2    1    2    0    0 -0.39869161544E+02 -0.90085949062E+02  0.11684786728E+03  0.19749600320E+03  0.12508484694E+03 0.  0.
         23    2    1    2    0    0  0.39869161544E+02  0.90085949062E+02  0.10056827282E+03  0.16826464255E+03  0.92162813393E+02 0.  0.
          5    1    3    3  502    0  0.24742045473E+02  0.48060173945E+01 -0.90130581778E+01  0.27091958864E+02  0.41800000000E+01 0.  1.
         -5    1    3    3    0  502 -0.64611207017E+02 -0.94891966457E+02  0.12586092546E+03  0.17040404434E+03  0.41800000000E+01 0.  1.
        -11    1    4    4    0    0 -0.52336687949E+01  0.50898340794E+02  0.95446999696E+02  0.10829663954E+03  0.00000000000E+00 0.  1.
         11    1    4    4    0    0  0.45102830339E+02  0.39187608268E+02  0.51212731275E+01  0.59968003008E+02  0.00000000000E+00 0. -1.
</event>
<event>
 8    1  0.4798744E-006  0.1601300E+03  0.7561462E-02  0.1188550E+00
         -2   -1    0    0    0  501 -0.00000000000E+00  0.00000000000E+00  0.30684243072E+03  0.30684243072E+03  0.00000000000E+00 0.  1.
          2   -1    0    0  501    0  0.00000000000E+00 -0.00000000000E+00 -0.95164929037E+02  0.95164929037E+02  0.00000000000E+00 0. -1.
         23    2    1    2    0    0  0.84262981662E+02  0.93477555840E+02  0.15548805607E+03  0.23592793314E+03  0.12508857074E+03 0.  0.
         23    2    1    2    0    0 -0.84262981662E+02 -0.93477555840E+02  0.56189445613E+02  0.16607942662E+03  0.92665088484E+02 0.  0.
          5    1    3    3  502    0  0.72190066679E+02 -0.10125376415E+02  0.66380806126E+02  0.98680356691E+02  0.41800000000E+01 0.  1.
         -5    1    3    3    0  502  0.12072914983E+02  0.10360293226E+03  0.89107249943E+02  0.13724757645E+03  0.41800000000E+01 0.  1.
        -11    1    4    4    0    0 -0.21890638462E+01 -0.49866704116E+02 -0.11351203144E+02  0.51189158938E+02  0.00000000000E+00 0. -1.
         11    1    4    4    0    0 -0.82073917815E+02 -0.43610851724E+02  0.67540648756E+02  0.11489026768E+03  0.00000000000E+00 0.  1.
</event>
<event>
 8    1  0.4798744E-006  0.1271628E+03  0.7561462E-02  0.1231727E+00
          2   -1    0    0  501    0  0.00000000000E+00  0.00000000000E+00  0.13433682975E+03  0.13433682975E+03  0.00000000000E+00 0. -1.
         -2   -1    0    0    0  501 -0.00000000000E+00 -0.00000000000E+00 -0.18272009375E+03  0.18272009375E+03  0.00000000000E+00 0.  1.
         23    2    1    2    0    0  0.24088596688E+02  0.72880405875E+02 -0.10923236606E+03  0.18295186135E+03  0.12509140549E+03 0.  0.
         23    2    1    2    0    0 -0.24088596688E+02 -0.72880405875E+02  0.60849102052E+02  0.13410506215E+03  0.91595526210E+02 0.  0.
          5    1    3    3  502    0  0.59584375690E+02 -0.16553306109E+01 -0.24512712444E+02  0.64586247895E+02  0.41800000000E+01 0. -1.
         -5    1    3    3    0  502 -0.35495779002E+02  0.74535736485E+02 -0.84719653615E+02  0.11836561346E+03  0.41800000000E+01 0. -1.
        -11    1    4    4    0    0  0.81462201321E+01 -0.78728544717E+02  0.19804595439E+02  0.81589010633E+02  0.00000000000E+00 0.  1.
         11    1    4    4    0    0 -0.32234816820E+02  0.58481388421E+01  0.41044506613E+02  0.52516051512E+02  0.00000000000E+00 0. -1.
</event>
<event>
 8    1  0.4798744E-006  0.1129554E+03  0.7561462E-02  0.1255193E+00
          2   -1    0    0  501    0  0.00000000000E+00  0.00000000000E+00  0.34795460030E+02  0.34795460030E+02  0.00000000000E+00 0. -1.
         -2   -1    0    0    0  501 -0.00000000000E+00 -0.00000000000E+00 -0.38527843429E+03  0.38527843429E+03  0.00000000000E+00 0.  1.
         23    2    1    2    0    0  0.36703157132E+02  0.96606437404E+01 -0.22329716013E+03  0.25874190582E+03  0.12508118292E+03 0.  0.
         23    2    1    2    0    0 -0.36703157132E+02 -0.96606437404E+01 -0.12718581413E+03  0.16133198851E+03  0.91713300116E+02 0.  0.
          5    1    3    3  502    0  0.70208446670E+02 -0.31508466439E+02 -0.12199163382E+03  0.14429636365E+03  0.41800000000E+01 0. -1.
         -5    1    3    3    0  502 -0.33505289538E+02  0.41169110180E+02 -0.10130552631E+03  0.11444554216E+03  0.41800000000E+01 0. -1.
        -11    1    4    4    0    0 -0.58825249815E+02 -0.29567562943E+02 -0.65643018567E+02  0.92971268039E+02  0.00000000000E+00 0. -1.
         11    1    4    4    0    0  0.22122092684E+02  0.19906919202E+02 -0.61542795565E+02  0.68360720467E+02  0.00000000000E+00 0.  1.
</event>
<event>
 8    1  0.4798744E-006  0.6823276E+02  0.7561462E-02  0.1366208E+00
         -1   -1    0    0    0  501 -0.00000000000E+00  0.00000000000E+00  0.82161896858E+02  0.82161896858E+02  0.00000000000E+00 0.  1.
          1   -1    0    0  501    0  0.00000000000E+00 -0.00000000000E+00 -0.16498634584E+03  0.16498634584E+03  0.00000000000E+00 0. -1.
         23    2    1    2    0    0 -0.13102266518E+02  0.35043814151E+02 -0.33035351719E+02  0.13468934307E+03  0.12510054507E+03 0.  0.
         23    2    1    2    0    0  0.13102266518E+02 -0.35043814151E+02 -0.49789097263E+02  0.11245889963E+03  0.93639263135E+02 0.  0.
          5    1    3    3  502    0 -0.12014030919E+02  0.32016894538E+02  0.44889695441E+02  0.56586002081E+02  0.41800000000E+01 0. -1.
         -5    1    3    3    0  502 -0.10882355988E+01  0.30269196128E+01 -0.77925047160E+02  0.78103340991E+02  0.41800000000E+01 0. -1.
        -11    1    4    4    0    0 -0.19522092905E+02  0.22992518019E+02 -0.14753113164E+01  0.30198419491E+02  0.00000000000E+00 0.  1.
         11    1    4    4    0    0  0.32624359423E+02 -0.58036332170E+02 -0.48313785947E+02  0.82260480135E+02  0.00000000000E+00 0. -1.
</event>
<event>
 8    1  0.4798744E-006  0.2948790E+03  0.7561462E-02  0.1087829E+00
          2   -1    0    0  501    0  0.00000000000E+00  0.00000000000E+00  0.34937254949E+03  0.34937254949E+03  0.00000000000E+00 0. -1.
         -2   -1    0    0    0  501 -0.00000000000E+00 -0.00000000000E+00 -0.28440673292E+03  0.28440673292E+03  0.00000000000E+00 0.  1.
         23    2    1    2    0    0 -0.12349764589E+03 -0.26356258701E+03 -0.13794956779E+02  0.31710238630E+03  0.12508683686E+03 0.  0.
         23    2    1    2    0    0  0.12349764589E+03  0.26356258701E+03  0.78760773350E+02  0.31667689611E+03  0.96768234969E+02 0.  0.
          5    1    3    3  502    0 -0.47865921947E+02 -0.48396639332E+02  0.44789124355E+02  0.81589945722E+02  0.41800000000E+01 0.  1.
         -5    1    3    3    0  502 -0.75631723942E+02 -0.21516594767E+03 -0.58584081134E+02  0.23551244058E+03  0.41800000000E+01 0.  1.
        -11    1    4    4    0    0  0.23039050352E+02  0.90097805439E+02 -0.16976608657E+02  0.94533685147E+02  0.00000000000E+00 0. -1.
         11    1    4    4    0    0  0.10045859554E+03  0.17346478157E+03  0.95737382007E+02  0.22214321096E+03  0.00000000000E+00 0.  1.
</event>
<event>
 8    1  0.4798744E-006  0.6206958E+02  0.7561462E-02  0.1389346E+00
         -2   -1    0    0    0  501 -0.00000000000E+00  0.00000000000E+00  0.89161573959E+02  0.89161573959E+02  0.00000000000E+00 0.  1.
          2   -1    0    0  501    0  0.00000000000E+00 -0.00000000000E+00 -0.16155455335E+03  0.16155455335E+03  0.00000000000E+00 0. -1.
         23    2    1    2    0    0 -0.21582875511E+02 -0.22066231869E+02  0.31839643329E+01  0.12883309863E+03  0.12504035577E+03 0.  0.
         23    2    1    2    0    0  0.21582875511E+02  0.22066231869E+02 -0.75576943723E+02  0.12188302867E+03  0.90503365419E+02 0.  0.
          5    1    3    3  502    0 -0.63168431061E+01 -0.24902693782E+02 -0.59062194683E+02  0.64543488480E+02  0.41800000000E+01 0. -1.
         -5    1    3    3    0  502 -0.15266032405E+02  0.28364619130E+01  0.62246159016E+02  0.64289610154E+02  0.41800000000E+01 0. -1.
        -11    1    4    4    0    0  0.79731689096E-01  0.48192463971E+02 -0.11692522912E+02  0.49590674857E+02  0.00000000000E+00 0. -1.
         11    1    4    4    0    0  0.21503143822E+02 -0.26126232102E+02 -0.63884420811E+02  0.72292353817E+02  0.00000000000E+00 0.  1.
</event>
<event>
 8    1  0.4798744E-006  0.2214934E+03  0.7561462E-02  0.1132775E+00
          1   -1    0    0  501    0  0.00000000000E+00  0.00000000000E+00  0.14558413506E+03  0.14558413506E+03  0.00000000000E+00 0. -1.
         -1   -1    0    0    0  501 -0.00000000000E+00 -0.00000000000E+00 -0.37426465596E+03  0.37426465596E+03  0.00000000000E+00 0.  1.
         23    2    1    2    0    0 -0.15933473761E+03  0.12191797343E+03 -0.17579825570E+03  0.29295785734E+03  0.12111039847E+03 0.  0.
         23    2    1    2    0    0  0.15933473761E+03 -0.12191797343E+03 -0.52882265192E+02  0.22689093368E+03  0.91822714840E+02 0.  0.
          5    1    3    3  502    0  0.87618412805E+00  0.46453338042E+02 -0.77262135283E+02  0.90252923844E+02  0.41800000000E+01 0. -1.
         -5    1    3    3    0  502 -0.16021092174E+03  0.75464635385E+02 -0.98536120420E+02  0.20270493350E+03  0.41800000000E+01 0. -1.
        -11    1    4    4    0    0  0.17038308833E+03 -0.10932366903E+03 -0.55556661483E+02  0.20992523439E+03  0.00000000000E+00 0. -1.
         11    1    4    4    0    0 -0.11048350719E+02 -0.12594304395E+02  0.26743962912E+01  0.16965699288E+02  0.00000000000E+00 0.  1.
</event>
<event>
 8    1  0.4798744E-006  0.9942308E+02  0.7561462E-02  0.1281514E+00
          2   -1    0    0  501    0  0.00000000000E+00  0.00000000000E+00  0.61315873946E+03  0.61315873946E+03  0.00000000000E+00 0. -1.
         -2   -1    0    0    0  501 -0.00000000000E+00 -0.00000000000E+00 -0.53573887139E+02  0.53573887139E+02  0.00000000000E+00 0.  1.
         23    2    1    2    0    0  0.65998174482E+02  0.45040824809E+02  0.70941042118E+02  0.16451508672E+03  0.12509255520E+03 0.  0.
         23    2    1    2    0    0 -0.65998174482E+02 -0.45040824809E+02  0.48864381021E+03  0.50221753988E+03  0.84055036607E+02 0.  0.
          5    1    3    3  502    0  0.45006953586E+01  0.15744848330E+02  0.91649967291E+02  0.93195200585E+02  0.41800000000E+01 0.  1.
         -5    1    3    3    0  502  0.61497479123E+02  0.29295976479E+02 -0.20708925173E+02  0.71319886134E+02  0.41800000000E+01 0.  1.
        -11    1    4    4    0    0 -0.35563996783E+02 -0.67214517944E+02  0.37030504423E+03  0.37803229369E+03  0.00000000000E+00 0.  1.
         11    1    4    4    0    0 -0.30434177699E+02  0.22173693135E+02  0.11833876598E+03  0.12418524619E+03  0.00000000000E+00 0. -1.
</event>
<event>
 8    1  0.4798744E-006  0.8873219E+02  0.7561462E-02  0.1305951E+00
          2   -1    0    0  501    0  0.00000000000E+00  0.00000000000E+00  0.11415374345E+03  0.11415374345E+03  0.00000000000E+00 0. -1.
         -2   -1    0    0    0  501 -0.00000000000E+00 -0.00000000000E+00 -0.10941710237E+03  0.10941710237E+03  0.00000000000E+00 0.  1.
         23    2    1    2    0    0 -0.42478306188E+02 -0.13024822960E+02 -0.23829300875E+02  0.13486805072E+03  0.12508997968E+03 0.  0.
         23    2    1    2    0    0  0.42478306188E+02  0.13024822960E+02  0.28565941959E+02  0.88702795094E+02  0.71260931145E+02 0.  0.
          5    1    3    3  502    0  0.10104224870E+02 -0.37616129262E+02 -0.56021455070E+02  0.68358937740E+02  0.41800000000E+01 0.  1.
         -5    1    3    3    0  502 -0.52582531058E+02  0.24591306302E+02  0.32192154194E+02  0.66509112983E+02  0.41800000000E+01 0.  1.
        -11    1    4    4    0    0  0.41747857235E+02  0.37193279076E+02  0.31775830771E+02  0.64311173316E+02  0.00000000000E+00 0. -1.
         11    1    4    4    0    0  0.73044895328E+00 -0.24168456117E+02 -0.32098888117E+01  0.24391621777E+02  0.00000000000E+00 0.  1.
</event>
<event>
 8    1  0.4798744E-006  0.7884658E+02  0.7561462E-02  0.1332357E+00
          1   -1    0    0  501    0  0.00000000000E+00  0.00000000000E+00  0.26263967047E+03  0.26263967047E+03  0.00000000000E+00 0. -1.
         -1   -1    0    0    0  501 -0.00000000000E+00 -0.00000000000E+00 -0.53902426307E+02  0.53902426307E+02  0.00000000000E+00 0.  1.
         23    2    1    2    0    0 -0.42187873503E+02  0.21341084485E+02  0.10495725755E+03  0.16999743061E+03  0.12509133441E+03 0.  0.
         23    2    1    2    0    0  0.42187873503E+02 -0.21341084485E+02  0.10377998662E+03  0.14654466617E+03  0.92031489190E+02 0.  0.
          5    1    3    3  502    0 -0.13717143453E+02  0.29710960075E+02  0.12800708559E+03  0.13218996760E+03  0.41800000000E+01 0.  1.
         -5    1    3    3    0  502 -0.28470730050E+02 -0.83698755899E+01 -0.23049828038E+02  0.37807463014E+02  0.41800000000E+01 0.  1.
        -11    1    4    4    0    0  0.32598217166E+02 -0.52685909313E+02  0.93551988319E+02  0.11220705558E+03  0.00000000000E+00 0. -1.
         11    1    4    4    0    0  0.95896563372E+01  0.31344824827E+02  0.10227998300E+02  0.34337610595E+02  0.00000000000E+00 0.  1.
</event>
<event>
 8    1  0.4798744E-006  0.1009394E+03  0.7561462E-02  0.1278333E+00
          1   -1    0    0  501    0  0.00000000000E+00  0.00000000000E+00  0.41865035639E+03  0.41865035639E+03  0.00000000000E+00 0. -1.
         -1   -1    0    0    0  501 -0.00000000000E+00 -0.00000000000E+00 -0.36748107863E+02  0.36748107863E+02  0.00000000000E+00 0.  1.
         23    2    1    2    0    0 -0.28508565267E+02 -0.55055552671E+02  0.20873506168E+03  0.25111796016E+03  0.12508417872E+03 0.  0.
         23    2    1    2    0    0  0.28508565267E+02  0.55055552671E+02  0.17316718685E+03  0.20428050409E+03  0.88880805455E+02 0.  0.
          5    1    3    3  502    0 -0.29001530060E+02  0.15724682683E+02  0.16387140575E+03  0.16721143625E+03  0.41800000000E+01 0.  1.
         -5    1    3    3    0  502  0.49296479231E+00 -0.70780235354E+02  0.44863655933E+02  0.83906523910E+02  0.41800000000E+01 0.  1.
        -11    1    4    4    0    0 -0.14180794075E+02 -0.11765597567E+02  0.61998065867E+01  0.19441239889E+02  0.00000000000E+00 0.  1.
         11    1    4    4    0    0  0.42689359343E+02  0.66821150238E+02  0.16696738026E+03  0.18483926420E+03  0.00000000000E+00 0. -1.
</event>
<event>
 8    1  0.4798744E-006  0.1049981E+03  0.7561462E-02  0.1270123E+00
          1   -1    0    0  501    0  0.00000000000E+00  0.00000000000E+00  0.10200165708E+03  0.10200165708E+03  0.00000000000E+00 0. -1.
         -1   -1    0    0    0  501 -0.00000000000E+00 -0.00000000000E+00 -0.14065879617E+03  0.14065879617E+03  0.00000000000E+00 0.  1.
         23    2    1    2    0    0  0.24186326801E+02  0.15374218585E+02 -0.66620699282E+02  0.14459461266E+03  0.12509172409E+03 0.  0.
         23    2    1    2    0    0 -0.24186326801E+02 -0.15374218585E+02  0.27963560196E+02  0.98065840590E+02  0.89518732066E+02 0.  0.
          5    1    3    3  502    0  0.72425230228E+02 -0.84078476459E+01 -0.48579420147E+02  0.87712817407E+02  0.41800000000E+01 0. -1.
         -5    1    3    3    0  502 -0.48238903427E+02  0.23782066231E+02 -0.18041279135E+02  0.56881795250E+02  0.41800000000E+01 0. -1.
        -11    1    4    4    0    0 -0.17208637141E+02 -0.47303906407E+02 -0.62818091401E+01  0.50727289299E+02  0.00000000000E+00 0.  1.
         11    1    4    4    0    0 -0.69776896594E+01  0.31929687822E+02  0.34245369336E+02  0.47338551291E+02  0.00000000000E+00 0. -1.
</event>
<event>
 7    1  0.4798744E-006  0.1136371E+03  0.7561462E-02  0.1253979E+00
          2   -1    0    0  501    0  0.00000000000E+00  0.00000000000E+00  0.10461667499E+03  0.10461667499E+03  0.00000000000E+00 0. -1.
         -2   -1    0    0    0  501 -0.00000000000E+00 -0.00000000000E+00 -0.30881728806E+03  0.30881728806E+03  0.00000000000E+00 0.  1.
         23    2    1    2    0    0  0.36702381331E+02 -0.11651431527E+02 -0.26808317069E+02  0.94191850933E+02  0.81673730576E+02 0.  0.
          5    1    1    2  502    0 -0.40909338511E+02  0.72735505716E+02  0.40513216883E+02  0.92859145546E+02  0.41800000000E+01 0. -1.
         -5    1    1    2    0  502  0.42069571803E+01 -0.61084074189E+02 -0.21790551288E+03  0.22638296657E+03  0.41800000000E+01 0.  1.
        -11    1    3    3    0    0 -0.15605279712E+02  0.16695139011E+02  0.92154103814E+01  0.24640945802E+02  0.00000000000E+00 0. -1.
         11    1    3    3    0    0  0.52307661044E+02 -0.28346570539E+02 -0.36023727450E+02  0.69550905131E+02  0.00000000000E+00 0.  1.
</event>
<event>
 8    1  0.4798744E-006  0.6207070E+02  0.7561462E-02  0.1389342E+00
          4   -1    0    0  501    0  0.00000000000E+00  0.00000000000E+00  0.26244056851E+03  0.26244056851E+03  0.00000000000E+00 0. -1.
         -4   -1    0    0    0  501 -0.00000000000E+00 -0.00000000000E+00 -0.56158139289E+02  0.56158139289E+02  0.00000000000E+00 0.  1.
         23    2    1    2    0    0  0.21779739726E+02 -0.44941469308E+02  0.91436774382E+02  0.16279568451E+03  0.12509060100E+03 0.  0.
         23    2    1    2    0    0 -0.21779739726E+02  0.44941469308E+02  0.11484565484E+03  0.15580302329E+03  0.92687458187E+02 0.  0.
          5    1    3    3  502    0 -0.28238879987E+01 -0.36384672758E+02 -0.24330839355E+02  0.44059969346E+02  0.41800000000E+01 0.  1.
         -5    1    3    3    0  502  0.24603627725E+02 -0.85567965501E+01  0.11576761374E+03  0.11873571516E+03  0.41800000000E+01 0.  1.
        -11    1    4    4    0    0 -0.20775997910E+02  0.53922260392E+01 -0.10834067748E+02  0.24043610685E+02  0.00000000000E+00 0.  1.
         11    1    4    4    0    0 -0.10037418165E+01  0.39549243268E+02  0.12567972259E+03  0.13175941261E+03  0.00000000000E+00 0. -1.
</event>
<event>
 8    1  0.4798744E-006  0.9726902E+02  0.7561462E-02  0.1286146E+00
          2   -1    0    0  501    0  0.00000000000E+00  0.00000000000E+00  0.62302177651E+03  0.62302177651E+03  0.00000000000E+00 0. -1.
         -2   -1    0    0    0  501 -0.00000000000E+00 -0.00000000000E+00 -0.24877534309E+02  0.24877534309E+02  0.00000000000E+00 0.  1.
         23    2    1    2    0    0 -0.26575046960E+02  0.63765859790E+01  0.19283599607E+03  0.23147378706E+03  0.12508996262E+03 0.  0.
         23    2    1    2    0    0  0.26575046960E+02 -0.63765859790E+01  0.40530824613E+03  0.41642552375E+03  0.91589019454E+02 0.  0.
          5    1    3    3  502    0  0.37427786967E+02  0.34923809433E+01  0.14901678789E+03  0.15374170363E+03  0.41800000000E+01 0. -1.
         -5    1    3    3    0  502 -0.64002833927E+02  0.28842050357E+01  0.43819208179E+02  0.77732083433E+02  0.41800000000E+01 0. -1.
        -11    1    4    4    0    0  0.47822461735E+02 -0.33255932726E+02  0.20122663693E+03  0.20948771877E+03  0.00000000000E+00 0. -1.
         11    1    4    4    0    0 -0.21247414775E+02  0.26879346747E+02  0.20408160920E+03  0.20693780498E+03  0.00000000000E+00 0.  1.
</event>
<event>
 8    1  0.4798744E-006  0.9517102E+02  0.7561462E-02  0.1290791E+00
         -1   -1    0    0    0  501 -0.00000000000E+00  0.00000000000E+00  0.15516718481E+03  0.15516718481E+03  0.00000000000E+00 0.  1.
          1   -1    0    0  501    0  0.00000000000E+00 -0.00000000000E+00 -0.11120142917E+03  0.11120142917E+03  0.00000000000E+00 0. -1.
         23    2    1    2    0    0  0.33238604301E+02  0.41544466263E+01  0.90547834727E+02  0.15801519287E+03  0.12509127292E+03 0.  0.
         23    2    1    2    0    0 -0.33238604301E+02 -0.41544466263E+01 -0.46582079087E+02  0.10835342111E+03  0.91915774112E+02 0.  0.
          5    1    3    3  502    0  0.39033587591E+01 -0.59242858336E+02  0.41637140232E+02  0.72636604547E+02  0.41800000000E+01 0.  1.
         -5    1    3    3    0  502  0.29335245542E+02  0.63397304963E+02  0.48910694496E+02  0.85378588320E+02  0.41800000000E+01 0.  1.
        -11    1    4    4    0    0  0.65940222638E+01 -0.17606380830E+02 -0.61059054641E+02  0.63887979536E+02  0.00000000000E+00 0. -1.
         11    1    4    4    0    0 -0.39832626565E+02  0.13451934204E+02  0.14476975554E+02  0.44465441570E+02  0.00000000000E+00 0.  1.
</event>
<event>
 8    1  0.4798744E-006  0.1189945E+03  0.7561462E-02  0.1244765E+00
          2   -1    0    0  501    0  0.00000000000E+00  0.00000000000E+00  0.73467460279E+03  0.73467460279E+03  0.00000000000E+00 0. -1.
         -2   -1    0    0    0  501 -0.00000000000E+00 -0.00000000000E+00 -0.28465286698E+02  0.28465286698E+02  0.00000000000E+00 0.  1.
         23    2    1    2    0    0 -0.20808817197E+02 -0.77020317811E+02  0.24583673654E+03  0.28713965503E+03  0.12509334206E+03 0.  0.
         23    2    1    2    0    0  0.20808817197E+02  0.77020317811E+02  0.46037257955E+03  0.47600023446E+03  0.90929505513E+02 0.  0.
          5    1    3    3  502    0 -0.55632071294E+02 -0.26123509614E+02  0.20246684287E+03  0.21163095230E+03  0.41800000000E+01 0. -1.
         -5    1    3    3    0  502  0.34823254097E+02 -0.50896808197E+02  0.43369893672E+02  0.75508702728E+02  0.41800000000E+01 0. -1.
        -11    1    4    4    0    0  0.50422215513E+02  0.29024286348E+02  0.30973538999E+03  0.31515205985E+03  0.00000000000E+00 0. -1.
         11    1    4    4    0    0 -0.29613398316E+02  0.47996031463E+02  0.15063718956E+03  0.16084817461E+03  0.00000000000E+00 0.  1.
</event>
<event>
 8    1  0.4798744E-006  0.7313208E+02  0.7561462E-02  0.1349755E+00
         -2   -1    0    0    0  501 -0.00000000000E+00  0.00000000000E+00  0.38566301069E+03  0.38566301069E+03  0.00000000000E+00 0.  1.
          2   -1    0    0  501    0  0.00000000000E+00 -0.00000000000E+00 -0.39736080678E+02  0.39736080678E+02  0.00000000000E+00 0. -1.
         23    2    1    2    0    0  0.69103916369E+01 -0.48558916457E+02  0.25000777794E+03  0.28382557216E+03  0.12508934608E+03 0.  0.
         23    2    1    2    0    0 -0.69103916369E+01  0.48558916457E+02  0.95919152070E+02  0.14157351920E+03  0.91852358300E+02 0.  0.
          5    1    3    3  502    0 -0.35362316691E+02 -0.27558026115E+02  0.20494624784E+02  0.49471610951E+02  0.41800000000E+01 0.  1.
         -5    1    3    3    0  502  0.42272708328E+02 -0.21000890342E+02  0.22951315315E+03  0.23435396121E+03  0.41800000000E+01 0.  1.
        -11    1    4    4    0    0 -0.14477755165E+02  0.22843013658E+02 -0.12569040383E+02  0.29822633079E+02  0.00000000000E+00 0. -1.
         11    1    4    4    0    0  0.75673635279E+01  0.25715902799E+02  0.10848819245E+03  0.11175088612E+03  0.00000000000E+00 0.  1.
</event>
<event>
 8    1  0.4798744E-006  0.1905087E+03  0.7561462E-02  0.1158003E+00
          2   -1    0    0  501    0  0.00000000000E+00  0.00000000000E+00  0.14338783694E+04  0.14338783694E+04  0.00000000000E+00 0. -1.
         -2   -1    0    0    0  501 -0.00000000000E+00 -0.00000000000E+00 -0.25799761322E+02  0.25799761322E+02  0.00000000000E+00 0.  1.
         23    2    1    2    0    0 -0.98928463750E+02 -0.12397175280E+03  0.79705021439E+03  0.82224852746E+03  0.12509100770E+03 0.  0.
         23    2    1    2    0    0  0.98928463750E+02  0.12397175280E+03  0.61102839365E+03  0.63742960323E+03  0.88345711809E+02 0.  0.
          5    1    3    3  502    0 -0.60928857289E+02 -0.14545713856E+03  0.64385889164E+03  0.66290410283E+03  0.41800000000E+01 0. -1.
         -5    1    3    3    0  502 -0.37999606460E+02  0.21485385754E+02  0.15319132275E+03  0.15934442462E+03  0.41800000000E+01 0. -1.
        -11    1    4    4    0    0  0.11429016801E+03  0.10798336305E+03  0.49747373757E+03  0.52173055188E+03  0.00000000000E+00 0.  1.
         11    1    4    4    0    0 -0.15361704259E+02  0.15988389753E+02  0.11355465608E+03  0.11569905134E+03  0.00000000000E+00 0. -1.
</event>
<event>
 8    1  0.4798744E-006  0.9820557E+02  0.7561462E-02  0.1284115E+00
         -3   -1    0    0    0  501 -0.00000000000E+00  0.00000000000E+00  0.74749700942E+03  0.74749700942E+03  0.00000000000E+00 0.  1.
          3   -1    0    0  501    0  0.00000000000E+00 -0.00000000000E+00 -0.22151508073E+02  0.22151508073E+02  0.00000000000E+00 0. -1.
         23    2    1    2    0    0  0.43249877682E+02  0.19939119684E+02  0.52141971372E+03  0.53832494588E+03  0.12508840508E+03 0.  0.
         23    2    1    2    0    0 -0.43249877682E+02 -0.19939119684E+02  0.20392578763E+03  0.23132357161E+03  0.98268751450E+02 0.  0.
          5    1    3    3  502    0  0.19851661738E+02  0.51572581046E+02  0.47092170636E+03  0.47417143051E+03  0.41800000000E+01 0. -1.
         -5    1    3    3    0  502  0.23398215945E+02 -0.31633461361E+02  0.50498007365E+02  0.64153515375E+02  0.41800000000E+01 0. -1.
        -11    1    4    4    0    0 -0.64986361139E+02  0.85965602209E+01  0.16895650052E+03  0.18122755599E+03  0.00000000000E+00 0.  1.
         11    1    4    4    0    0  0.21736483456E+02 -0.28535679905E+02  0.34969287105E+02  0.50096015623E+02  0.00000000000E+00 0. -1.
</event>
<event>
 8    1  0.4798744E-006  0.1079884E+03  0.7561462E-02  0.1264341E+00
          2   -1    0    0  501    0  0.00000000000E+00  0.00000000000E+00  0.59743112242E+02  0.59743112242E+02  0.00000000000E+00 0. -1.
         -2   -1    0    0    0  501 -0.00000000000E+00 -0.00000000000E+00 -0.24864410570E+03  0.24864410570E+03  0.00000000000E+00 0.  1.
         23    2    1    2    0    0  0.52964016936E+02  0.11166764402E+01 -0.11401770821E+03  0.17735271383E+03  0.12509002063E+03 0.  0.
         23    2    1    2    0    0 -0.52964016936E+02 -0.11166764402E+01 -0.74883285241E+02  0.13103450410E+03  0.93574039139E+02 0.  0.
          5    1    3    3  502    0  0.74450192842E+02 -0.42836055144E+02 -0.81350952875E+02  0.11837739974E+03  0.41800000000E+01 0. -1.
         -5    1    3    3    0  502 -0.21486175906E+02  0.43952731584E+02 -0.32666755339E+02  0.58975314100E+02  0.41800000000E+01 0. -1.
        -11    1    4    4    0    0  0.40503074497E+01 -0.20318740918E+02 -0.67276461614E+02  0.70394449428E+02  0.00000000000E+00 0.  1.
         11    1    4    4    0    0 -0.57014324386E+02  0.19202064477E+02 -0.76068236263E+01  0.60640054675E+02  0.00000000000E+00 0. -1.
</event>
<event>
 8    1  0.4798744E-006  0.8528992E+02  0.7561462E-02  0.1314676E+00
         -1   -1    0    0    0  501 -0.00000000000E+00  0.00000000000E+00  0.21427653499E+03  0.21427653499E+03  0.00000000000E+00 0.  1.
          1   -1    0    0  501    0  0.00000000000E+00 -0.00000000000E+00 -0.61376827057E+02  0.61376827057E+02  0.00000000000E+00 0. -1.
         23    2    1    2    0    0 -0.10185522013E+02  0.75762503820E+01  0.13734759110E+03  0.18620687100E+03  0.12508994204E+03 0.  0.
         23    2    1    2    0    0  0.10185522013E+02 -0.75762503820E+01  0.15552116837E+02  0.89446491044E+02  0.87164568453E+02 0.  0.
          5    1    3    3  502    0 -0.13944593065E+01  0.50532561597E+02  0.13252188365E+03  0.14189787294E+03  0.41800000000E+01 0.  1.
         -5    1    3    3    0  502 -0.87910627064E+01 -0.42956311215E+02  0.48257074425E+01  0.44308998060E+02  0.41800000000E+01 0.  1.
        -11    1    4    4    0    0 -0.21759355069E+02  0.22949607785E+02  0.29361606412E+02  0.43153886981E+02  0.00000000000E+00 0.  1.
         11    1    4    4    0    0  0.31944877082E+02 -0.30525858168E+02 -0.13809489575E+02  0.46292604063E+02  0.00000000000E+00 0. -1.
</event>
<event>
 8    1  0.4798744E-006  0.9638529E+02  0.7561462E-02  0.1288086E+00
         -1   -1    0    0    0  501 -0.00000000000E+00  0.00000000000E+00  0.28840804430E+02  0.28840804430E+02  0.00000000000E+00 0.  1.
          1   -1    0    0  501    0  0.00000000000E+00 -0.00000000000E+00 -0.72573520013E+03  0.72573520013E+03  0.00000000000E+00 0. -1.
         23    2    1    2    0    0 -0.43282426794E+02  0.60184654735E+02 -0.21557312106E+03  0.26002785608E+03  0.12508858573E+03 0.  0.
         23    2    1    2    0    0  0.43282426794E+02 -0.60184654735E+02 -0.48132127464E+03  0.49454814848E+03  0.86093789601E+02 0.  0.
          5    1    3    3  502    0 -0.92039952181E+01  0.41607132146E+02 -0.19444017098E+01  0.42861638692E+02  0.41800000000E+01 0. -1.
         -5    1    3    3    0  502 -0.34078431576E+02  0.18577522589E+02 -0.21362871935E+03  0.21716621739E+03  0.41800000000E+01 0. -1.
        -11    1    4    4    0    0  0.65662266571E+02 -0.27240260703E+02 -0.25382125236E+03  0.26358830248E+03  0.00000000000E+00 0.  1.
         11    1    4    4    0    0 -0.22379839777E+02 -0.32944394032E+02 -0.22750002228E+03  0.23095984600E+03  0.00000000000E+00 0. -1.
</event>
<event>
 8    1  0.4798744E-006  0.1336873E+03  0.7561462E-02  0.1222085E+00
         -2   -1    0    0    0  501 -0.00000000000E+00  0.00000000000E+00  0.55871518551E+02  0.55871518551E+02  0.00000000000E+00 0.  1.
          2   -1    0    0  501    0  0.00000000000E+00 -0.00000000000E+00 -0.35873058117E+03  0.35873058117E+03  0.00000000000E+00 0. -1.
         23    2    1    2    0    0 -0.53946753060E+02 -0.69618166016E+02 -0.15656178924E+03  0.21889809524E+03  0.12509133081E+03 0.  0.
         23    2    1    2    0    0  0.53946753060E+02  0.69618166016E+02 -0.14629727338E+03  0.19570400449E+03  0.95604518556E+02 0.  0.
          5    1    3    3  502    0  0.22685747450E+02  0.22245978614E+02 -0.45167053693E+02  0.55381060311E+02  0.41800000000E+01 0.  1.
         -5    1    3    3    0  502 -0.76632500510E+02 -0.91864144630E+02 -0.11139473555E+03  0.16351703493E+03  0.41800000000E+01 0.  1.
        -11    1    4    4    0    0  0.51688146569E+02  0.60787326317E+01 -0.11191242415E+03  0.12342206515E+03  0.00000000000E+00 0. -1.
         11    1    4    4    0    0  0.22586064906E+01  0.63539433384E+02 -0.34384849231E+02  0.72281939340E+02  0.00000000000E+00 0.  1.
</event>
<event>
 8    1  0.4798744E-006  0.1015306E+03  0.7561462E-02  0.1277110E+00
         -2   -1    0    0    0  501 -0.00000000000E+00  0.00000000000E+00  0.49103146870E+03  0.49103146870E+03  0.00000000000E+00 0.  1.
          2   -1    0    0  501    0  0.00000000000E+00 -0.00000000000E+00 -0.29931696937E+02  0.29931696937E+02  0.00000000000E+00 0. -1.
         23    2    1    2    0    0  0.36660014197E+02  0.18664111699E+02  0.33583205129E+03  0.36072519879E+03  0.12508875513E+03 0.  0.
         23    2    1    2    0    0 -0.36660014197E+02 -0.18664111699E+02  0.12526772048E+03  0.16023796685E+03  0.91059862296E+02 0.  0.
          5    1    3    3  502    0  0.43582472590E+02 -0.45084603535E+02  0.21330054016E+03  0.22236601859E+03  0.41800000000E+01 0.  1.
         -5    1    3    3    0  502 -0.69224583931E+01  0.63748715234E+02  0.12253151113E+03  0.13835918019E+03  0.41800000000E+01 0.  1.
        -11    1    4    4    0    0  0.10496815685E+02  0.14791247057E+02  0.91500669680E+02  0.93280955618E+02  0.00000000000E+00 0.  1.
         11    1    4    4    0    0 -0.47156829883E+02 -0.33455358756E+02  0.33767050797E+02  0.66957011236E+02  0.00000000000E+00 0. -1.
</event>
<event>
 8    1  0.4798744E-006  0.8396897E+02  0.7561462E-02  0.1318151E+00
         -1   -1    0    0    0  501 -0.00000000000E+00  0.00000000000E+00  0.22176194216E+03  0.22176194216E+03  0.00000000000E+00 0.  1.
          1   -1    0    0  501    0  0.00000000000E+00 -0.00000000000E+00 -0.62295555439E+02  0.62295555439E+02  0.00000000000E+00 0. -1.
         23    2    1    2    0    0 -0.18940656964E+02  0.95163760251E+01  0.13928455336E+03  0.18840809135E+03  0.12509241457E+03 0.  0.
         23    2    1    2    0    0  0.18940656964E+02 -0.95163760251E+01  0.20181833355E+02  0.95649406245E+02  0.91061477138E+02 0.  0.
          5    1    3    3  502    0 -0.60322428151E+02 -0.72068248941E+01  0.25330080518E+02  0.65953157939E+02  0.41800000000E+01 0.  1.
         -5    1    3    3    0  502  0.41381771187E+02  0.16723200919E+02  0.11395447284E+03  0.12245493341E+03  0.41800000000E+01 0.  1.
        -11    1    4    4    0    0  0.46688066934E+01  0.24701872717E+02  0.44641082154E+02  0.51232865307E+02  0.00000000000E+00 0.  1.
         11    1    4    4    0    0  0.14271850271E+02 -0.34218248742E+02 -0.24459248799E+02  0.44416540938E+02  0.00000000000E+00 0. -1.
</event>
<event>
 8    1  0.4798744E-006  0.1064291E+03  0.7561462E-02  0.1267329E+00
         -2   -1    0    0    0  501 -0.00000000000E+00  0.00000000000E+00  0.40621044365E+02  0.40621044365E+02  0.00000000000E+00 0.  1.
          2   -1    0    0  501    0  0.00000000000E+00 -0.00000000000E+00 -0.31001104019E+03  0.31001104019E+03  0.00000000000E+00 0. -1.
         23    2    1    2    0    0 -0.19181826727E+02  0.90502772614E+01 -0.13625914902E+03  0.18616519468E+03  0.12506427956E+03 0.  0.
         23    2    1    2    0    0  0.19181826727E+02 -0.90502772614E+01 -0.13313084681E+03  0.16446688988E+03  0.94210856593E+02 0.  0.
          5    1    3    3  502    0 -0.69694785318E+02  0.25808490016E+01 -0.10545905083E+03  0.12650339001E+03  0.41800000000E+01 0.  1.
         -5    1    3    3    0  502  0.50512958592E+02  0.64694282598E+01 -0.30800098191E+02  0.59661804668E+02  0.41800000000E+01 0.  1.
        -11    1    4    4    0    0  0.35408768095E+02  0.32016576672E+02 -0.94173261051E+02  0.10558146209E+03  0.00000000000E+00 0. -1.
         11    1    4    4    0    0 -0.16226941369E+02 -0.41066853933E+02 -0.38957585755E+02  0.58885427790E+02  0.00000000000E+00 0.  1.
</event>
<event>
 8    1  0.4798744E-006  0.1222870E+03  0.7561462E-02  0.1239371E+00
          1   -1    0    0  501    0  0.00000000000E+00  0.00000000000E+00  0.42638108497E+02  0.42638108497E+02  0.00000000000E+00 0. -1.
         -1   -1    0    0    0  501 -0.00000000000E+00 -0.00000000000E+00 -0.41185017623E+03  0.41185017623E+03  0.00000000000E+00 0.  1.
         23    2    1    2    0    0 -0.45191061847E+02  0.45200253117E+02 -0.27369287866E+03  0.30763815303E+03  0.12509255140E+03 0.  0.
         23    2    1    2    0    0  0.45191061847E+02 -0.45200253117E+02 -0.95519189073E+02  0.14685013170E+03  0.91409795684E+02 0.  0.
          5    1    3    3  502    0  0.33420970000E+02  0.51457443423E+02 -0.12097622727E+03  0.13571127323E+03  0.41800000000E+01 0.  1.
         -5    1    3    3    0  502 -0.78612031847E+02 -0.62571903054E+01 -0.15271665140E+03  0.17192687979E+03  0.41800000000E+01 0.  1.
        -11    1    4    4    0    0 -0.14339373048E+02 -0.42118047397E+02 -0.67837052483E+02  0.81125909706E+02  0.00000000000E+00 0. -1.
         11    1    4    4    0    0  0.59530434895E+02 -0.30822057204E+01 -0.27682136590E+02  0.65724221997E+02  0.00000000000E+00 0.  1.
</event>
<event>
 8    1  0.4798744E-006  0.1008326E+03  0.7561462E-02  0.1278555E+00
          1   -1    0    0  501    0  0.00000000000E+00  0.00000000000E+00  0.21199713231E+03  0.21199713231E+03  0.00000000000E+00 0. -1.
         -1   -1    0    0    0  501 -0.00000000000E+00 -0.00000000000E+00 -0.68580555399E+02  0.68580555399E+02  0.00000000000E+00 0.  1.
         23    2    1    2    0    0 -0.25728584792E+02 -0.45511827756E+02  0.73131601009E+02  0.15404219009E+03  0.12508988256E+03 0.  0.
         23    2    1    2    0    0  0.25728584792E+02  0.45511827756E+02  0.70284975905E+02  0.12653549763E+03  0.91312473301E+02 0.  0.
          5    1    3    3  502    0 -0.66579925070E+02 -0.53743872876E+02  0.72386048533E+02  0.11215392421E+03  0.41800000000E+01 0. -1.
         -5    1    3    3    0  502  0.40851340278E+02  0.82320451206E+01  0.74555247658E+00  0.41888265874E+02  0.41800000000E+01 0. -1.
        -11    1    4    4    0    0  0.41830678398E+02  0.37283084695E+02  0.21862950113E+01  0.56076857486E+02  0.00000000000E+00 0.  1.
         11    1    4    4    0    0 -0.16102093606E+02  0.82287430604E+01  0.68098680893E+02  0.70458640139E+02  0.00000000000E+00 0. -1.
</event>
<event>
 8    1  0.4798744E-006  0.1040123E+03  0.7561462E-02  0.1272078E+00
         -2   -1    0    0    0  501 -0.00000000000E+00  0.00000000000E+00  0.10797326343E+03  0.10797326343E+03  0.00000000000E+00 0.  1.
          2   -1    0    0  501    0  0.00000000000E+00 -0.00000000000E+00 -0.20350335801E+03  0.20350335801E+03  0.00000000000E+00 0. -1.
         23    2    1    2    0    0 -0.31437646359E+02 -0.31885071969E+02  0.41420799917E+02  0.13917079429E+03  0.12509134220E+03 0.  0.
         23    2    1    2    0    0  0.31437646359E+02  0.31885071969E+02 -0.13695089450E+03  0.17230582715E+03  0.94492153867E+02 0.  0.
          5    1    3    3  502    0 -0.39515265713E+02 -0.76892395716E+02  0.21926415591E+02  0.89286823462E+02  0.41800000000E+01 0. -1.
         -5    1    3    3    0  502  0.80776193542E+01  0.45007323747E+02  0.19494384326E+02  0.49883970828E+02  0.41800000000E+01 0. -1.
        -11    1    4    4    0    0  0.49967462217E+02  0.23259961806E+02 -0.28696874269E+02  0.62139228322E+02  0.00000000000E+00 0.  1.
         11    1    4    4    0    0 -0.18529815858E+02  0.86251101631E+01 -0.10825402023E+03  0.11016659883E+03  0.00000000000E+00 0. -1.
</event>
<event>
 8    1  0.4798744E-006  0.1261261E+03  0.7561462E-02  0.1233320E+00
          2   -1    0    0  501    0  0.00000000000E+00  0.00000000000E+00  0.83288380777E+02  0.83288380777E+02  0.00000000000E+00 0. -1.
         -2   -1    0    0    0  501 -0.00000000000E+00 -0.00000000000E+00 -0.31221602686E+03  0.31221602686E+03  0.00000000000E+00 0.  1.
         23    2    1    2    0    0 -0.70840509880E+02 -0.90423839142E+02 -0.16394254945E+03  0.23605049575E+03  0.12509128067E+03 0.  0.
         23    2    1    2    0    0  0.70840509880E+02  0.90423839142E+02 -0.64985096631E+02  0.15945391189E+03  0.89485410578E+02 0.  0.
          5    1    3    3  502    0 -0.47277192987E+02 -0.71056214472E+02 -0.18557109930E+02  0.87441164910E+02  0.41800000000E+01 0. -1.
         -5    1    3    3    0  502 -0.23563316894E+02 -0.19367624669E+02 -0.14538543952E+03  0.14860933084E+03  0.41800000000E+01 0. -1.
        -11    1    4    4    0    0 -0.15354454995E+02  0.12067941918E+02  0.89518965422E+01  0.21483271679E+02  0.00000000000E+00 0. -1.
         11    1    4    4    0    0  0.86194964875E+02  0.78355897224E+02 -0.73936993174E+02  0.13797064021E+03  0.00000000000E+00 0.  1.
</event>
<event>
 8    1  0.4798744E-006  0.1759602E+03  0.7561462E-02  0.1171771E+00
          1   -1    0    0  501    0  0.00000000000E+00  0.00000000000E+00  0.59067898828E+03  0.59067898828E+03  0.00000000000E+00 0. -1.
         -1   -1    0    0    0  501 -0.00000000000E+00 -0.00000000000E+00 -0.62946452895E+02  0.62946452895E+02  0.00000000000E+00 0.  1.
         23    2    1    2    0    0  0.19441194364E+02 -0.13838476234E+03  0.14662224327E+03  0.23806261788E+03  0.12508966914E+03 0.  0.
         23    2    1    2    0    0 -0.19441194364E+02  0.13838476234E+03  0.38111029211E+03  0.41556282330E+03  0.88989341294E+02 0.  0.
          5    1    3    3  502    0  0.52288516774E+02 -0.83899351016E+01  0.35781068766E+02  0.64048710210E+02  0.41800000000E+01 0.  1.
         -5    1    3    3    0  502 -0.32847322410E+02 -0.12999482724E+03  0.11084117451E+03  0.17401390767E+03  0.41800000000E+01 0.  1.
        -11    1    4    4    0    0  0.29639548803E+02  0.18073586162E+02  0.10054399424E+03  0.10636847347E+03  0.00000000000E+00 0. -1.
         11    1    4    4    0    0 -0.49080743167E+02  0.12031117618E+03  0.28056629787E+03  0.30919434983E+03  0.00000000000E+00 0.  1.
</event>
<event>
 7    1  0.4798744E-006  0.8684896E+02  0.7561462E-02  0.1310667E+00
         -2   -1    0    0    0  501 -0.00000000000E+00  0.00000000000E+00  0.92206957461E+02  0.92206957461E+02  0.00000000000E+00 0.  1.
          2   -1    0    0  501    0  0.00000000000E+00 -0.00000000000E+00 -0.41126104242E+03  0.41126104242E+03  0.00000000000E+00 0. -1.
         23    2    1    2    0    0  0.77511565539E+01 -0.23865203192E+02 -0.16297162061E+03  0.18784721071E+03  0.89984426963E+02 0.  0.
          5    1    1    2  502    0  0.14667541739E+02 -0.23336839404E+02 -0.22629017440E+03  0.22800100939E+03  0.41800000000E+01 0. -1.
         -5    1    1    2    0  502 -0.22418698293E+02  0.47202042597E+02  0.70207710050E+02  0.87619779781E+02  0.41800000000E+01 0.  1.
        -11    1    3    3    0    0  0.95671563699E+01  0.34093189938E+02 -0.59886357987E+02  0.69571919293E+02  0.00000000000E+00 0.  1.
         11    1    3    3    0    0 -0.18159998160E+01 -0.57958393131E+02 -0.10308526263E+03  0.11827529142E+03  0.00000000000E+00 0. -1.
</event>
<event>
 8    1  0.4798744E-006  0.1155775E+03  0.7561462E-02  0.1250576E+00
          1   -1    0    0  501    0  0.00000000000E+00  0.00000000000E+00  0.20360707151E+03  0.20360707151E+03  0.00000000000E+00 0. -1.
         -1   -1    0    0    0  501 -0.00000000000E+00 -0.00000000000E+00 -0.91780898471E+02  0.91780898471E+02  0.00000000000E+00 0.  1.
         23    2    1    2    0    0 -0.58887692511E+02  0.45581791445E+02  0.20966560916E+02  0.14709131175E+03  0.12510314655E+03 0.  0.
         23    2    1    2    0    0  0.58887692511E+02 -0.45581791445E+02  0.90859612122E+02  0.14829665823E+03  0.90503976079E+02 0.  0.
          5    1    3    3  502    0 -0.33282376708E+00  0.57458037856E+02  0.53768548624E+02  0.78803972661E+02  0.41800000000E+01 0.  1.
         -5    1    3    3    0  502 -0.58554868744E+02 -0.11876246411E+02 -0.32801987708E+02  0.68287339091E+02  0.41800000000E+01 0.  1.
        -11    1    4    4    0    0  0.39259315694E+02  0.20799362627E+02  0.18405499818E+02  0.48090225390E+02  0.00000000000E+00 0.  1.
         11    1    4    4    0    0  0.19628376817E+02 -0.66381154072E+02  0.72454112304E+02  0.10020643284E+03  0.00000000000E+00 0. -1.
</event>
<event>
 8    1  0.4798744E-006  0.1176159E+03  0.7561462E-02  0.1247083E+00
          2   -1    0    0  501    0  0.00000000000E+00  0.00000000000E+00  0.38431153195E+03  0.38431153195E+03  0.00000000000E+00 0. -1.
         -2   -1    0    0    0  501 -0.00000000000E+00 -0.00000000000E+00 -0.51757305427E+02  0.51757305427E+02  0.00000000000E+00 0.  1.
         23    2    1    2    0    0  0.73904708259E+02 -0.40806284644E+02  0.13517378609E+03  0.20260306998E+03  0.12509593420E+03 0.  0.
         23    2    1    2    0    0 -0.73904708259E+02  0.40806284644E+02  0.19738044043E+03  0.23346576739E+03  0.91761470720E+02 0.  0.
          5    1    3    3  502    0  0.21056719785E+02 -0.59059259860E+02  0.13229596746E+03  0.14646186203E+03  0.41800000000E+01 0. -1.
         -5    1    3    3    0  502  0.52847988475E+02  0.18252975216E+02  0.28778186245E+01  0.56141207950E+02  0.41800000000E+01 0. -1.
        -11    1    4    4    0    0 -0.76642992071E+02  0.12292718671E+01  0.85855030027E+02  0.11509450692E+03  0.00000000000E+00 0.  1.
         11    1    4    4    0    0  0.27382838117E+01  0.39577012777E+02  0.11152541041E+03  0.11837126047E+03  0.00000000000E+00 0. -1.
</event>
<event>
 7    1  0.4798744E-006  0.1753844E+03  0.7561462E-02  0.1172346E+00
         -3   -1    0    0    0  501 -0.00000000000E+00  0.00000000000E+00  0.11121232312E+04  0.11121232312E+04  0.00000000000E+00 0.  1.
          3   -1    0    0  501    0  0.00000000000E+00 -0.00000000000E+00 -0.38926796383E+02  0.38926796383E+02  0.00000000000E+00 0. -1.
         23    2    1    2    0    0 -0.13436815199E+02  0.14904095596E+03  0.37269174572E+03  0.41161771553E+03  0.90201174353E+02 0.  0.
          5    1    1    2  502    0  0.34989983077E+02 -0.14998405563E+03  0.70071856302E+03  0.71745626544E+03  0.41800000000E+01 0. -1.
         -5    1    1    2    0  502 -0.21553167877E+02  0.94309966755E+00 -0.21387392255E+00  0.21976046609E+02  0.41800000000E+01 0.  1.
        -11    1    3    3    0    0  0.26206479982E+02  0.12636804343E+03  0.27428542408E+03  0.30313059208E+03  0.00000000000E+00 0.  1.
         11    1    3    3    0    0 -0.39643295181E+02  0.22672912532E+02  0.98406321635E+02  0.10848712344E+03  0.00000000000E+00 0. -1.
</event>
<event>
 8    1  0.4798744E-006  0.2026976E+03  0.7561462E-02  0.1147483E+00
         -1   -1    0    0    0  501 -0.00000000000E+00  0.00000000000E+00  0.29211376996E+03  0.29211376996E+03  0.00000000000E+00 0. -1.
          1   -1    0    0  501    0  0.00000000000E+00 -0.00000000000E+00 -0.17981766367E+03  0.17981766367E+03  0.00000000000E+00 0.  1.
         23    2    1    2    0    0  0.11935356265E+03 -0.14964043138E+03  0.12434183053E+03  0.26028063832E+03  0.12509032034E+03 0.  0.
         23    2    1    2    0    0 -0.11935356265E+03  0.14964043138E+03 -0.12045724241E+02  0.21165079531E+03  0.89517752771E+02 0.  0.
          5    1    3    3  502    0  0.67071316907E+02 -0.14606980228E+03  0.48391374160E+02  0.16791112585E+03  0.41800000000E+01 0. -1.
         -5    1    3    3    0  502  0.52282245742E+02 -0.35706291036E+01  0.75950456368E+02  0.92369512473E+02  0.41800000000E+01 0. -1.
        -11    1    4    4    0    0 -0.30248458320E+02  0.27735421950E+02 -0.40877853758E+02  0.57924276338E+02  0.00000000000E+00 0.  1.
         11    1    4    4    0    0 -0.89105104329E+02  0.12190500943E+03  0.28832129517E+02  0.15372651897E+03  0.00000000000E+00 0. -1.
</event>
<event>
 8    1  0.4798744E-006  0.6467204E+02  0.7561462E-02  0.1379209E+00
         -3   -1    0    0    0  501 -0.00000000000E+00  0.00000000000E+00  0.41467280168E+03  0.41467280168E+03  0.00000000000E+00 0.  1.
          3   -1    0    0  501    0  0.00000000000E+00 -0.00000000000E+00 -0.84483213772E+02  0.84483213772E+02  0.00000000000E+00 0. -1.
         23    2    1    2    0    0  0.19353979319E+02  0.35614031635E+02  0.36973171227E+03  0.39241978384E+03  0.12509521144E+03 0.  0.
         23    2    1    2    0    0 -0.19353979319E+02 -0.35614031635E+02 -0.39542124366E+02  0.10673623161E+03  0.90477111877E+02 0.  0.
          5    1    3    3  502    0  0.22136057567E+02  0.49313331565E+02  0.37344849607E+03  0.37736330152E+03  0.41800000000E+01 0. -1.
         -5    1    3    3    0  502 -0.27820782486E+01 -0.13699299930E+02 -0.37167838042E+01  0.15056482318E+02  0.41800000000E+01 0. -1.
        -11    1    4    4    0    0 -0.33873569907E+02 -0.20567949072E+02  0.19452401067E+02  0.44145839833E+02  0.00000000000E+00 0.  1.
         11    1    4    4    0    0  0.14519590588E+02 -0.15046082563E+02 -0.58994525433E+02  0.62590391774E+02  0.00000000000E+00 0. -1.
</event>
<event>
 8    1  0.4798744E-006  0.9967297E+02  0.7561462E-02  0.1280985E+00
         -1   -1    0    0    0  501 -0.00000000000E+00  0.00000000000E+00  0.14432683912E+02  0.14432683912E+02  0.00000000000E+00 0.  1.
          1   -1    0    0  501    0  0.00000000000E+00 -0.00000000000E+00 -0.85366588898E+03  0.85366588898E+03  0.00000000000E+00 0. -1.
         23    2    1    2    0    0  0.26228169456E+02  0.74946750997E+01 -0.44004614943E+03  0.45829297342E+03  0.12509096224E+03 0.  0.
         23    2    1    2    0    0 -0.26228169456E+02 -0.74946750997E+01 -0.39918705564E+03  0.40980559947E+03  0.88578987005E+02 0.  0.
          5    1    3    3  502    0  0.19862078925E+02 -0.47266298611E+02 -0.87999089974E+02  0.10193094427E+03  0.41800000000E+01 0.  1.
         -5    1    3    3    0  502  0.63660905303E+01  0.54760973711E+02 -0.35204705946E+03  0.35636202915E+03  0.41800000000E+01 0.  1.
        -11    1    4    4    0    0  0.29300463497E+02  0.14744802119E+02 -0.14885946301E+03  0.15243052869E+03  0.00000000000E+00 0.  1.
         11    1    4    4    0    0 -0.55528632953E+02 -0.22239477218E+02 -0.25032759263E+03  0.25737507078E+03  0.00000000000E+00 0. -1.
</event>
<event>
 8    1  0.4798744E-006  0.1114967E+03  0.7561462E-02  0.1257823E+00
          2   -1    0    0  501    0  0.00000000000E+00  0.00000000000E+00  0.14751302378E+03  0.14751302378E+03  0.00000000000E+00 0.  1.
         -2   -1    0    0    0  501 -0.00000000000E+00 -0.00000000000E+00 -0.12734367596E+03  0.12734367596E+03  0.00000000000E+00 0. -1.
         23    2    1    2    0    0 -0.48510008610E+02 -0.51765525640E+02 -0.36161493535E+02  0.14828401478E+03  0.12509038670E+03 0.  0.
         23    2    1    2    0    0  0.48510008610E+02  0.51765525640E+02  0.56330841352E+02  0.12657268495E+03  0.88400171424E+02 0.  0.
          5    1    3    3  502    0 -0.82848219168E+02 -0.89115531072E+01 -0.41071637561E+02  0.92992445983E+02  0.41800000000E+01 0.  1.
         -5    1    3    3    0  502  0.34338210558E+02 -0.42853972533E+02  0.49101440255E+01  0.55291568801E+02  0.41800000000E+01 0.  1.
        -11    1    4    4    0    0  0.56861729088E+02  0.38007018662E+02  0.42453221895E+00  0.68395686487E+02  0.00000000000E+00 0. -1.
         11    1    4    4    0    0 -0.83517204779E+01  0.13758506978E+02  0.55906309133E+02  0.58176998462E+02  0.00000000000E+00 0.  1.
</event>
<event>
 8    1  0.4798744E-006  0.1194514E+03  0.7561462E-02  0.1244005E+00
         -2   -1    0    0    0  501 -0.00000000000E+00  0.00000000000E+00  0.51782523833E+03  0.51782523833E+03  0.00000000000E+00 0. -1.
          2   -1    0    0  501    0  0.00000000000E+00 -0.00000000000E+00 -0.44105590288E+02  0.44105590288E+02  0.00000000000E+00 0.  1.
         23    2    1    2    0    0  0.10442949269E+03 -0.71337513521E+01  0.26341952387E+03  0.30983264719E+03  0.12510001740E+03 0.  0.
         23    2    1    2    0    0 -0.10442949269E+03  0.71337513521E+01  0.21030012417E+03  0.25209818143E+03  0.91492849466E+02 0.  0.
          5    1    3    3  502    0  0.34362226250E+02 -0.34783232576E+02  0.16699320732E+02  0.51836045125E+02  0.41800000000E+01 0.  1.
         -5    1    3    3    0  502  0.70067266437E+02  0.27649481224E+02  0.24672020314E+03  0.25799660206E+03  0.41800000000E+01 0.  1.
        -11    1    4    4    0    0 -0.18128827270E+02  0.20158339576E+02  0.13228616594E+03  0.13503570910E+03  0.00000000000E+00 0. -1.
         11    1    4    4    0    0 -0.86300665417E+02 -0.13024588224E+02  0.78013958232E+02  0.11706247233E+03  0.00000000000E+00 0.  1.
</event>
<event>
 7    1  0.4798744E-006  0.1290182E+03  0.7561462E-02  0.1228920E+00
          1   -1    0    0  501    0  0.00000000000E+00  0.00000000000E+00  0.20312383329E+03  0.20312383329E+03  0.00000000000E+00 0. -1.
         -1   -1    0    0    0  501 -0.00000000000E+00 -0.00000000000E+00 -0.13882004374E+03  0.13882004374E+03  0.00000000000E+00 0.  1.
         23    2    1    2    0    0  0.36805758415E+02  0.31033440764E+02  0.73955004152E+02  0.12808890536E+03  0.92842268062E+02 0.  0.
          5    1    1    2  502    0 -0.10606627355E+03  0.15717733023E+02  0.42332001753E+02  0.11535411691E+03  0.41800000000E+01 0. -1.
         -5    1    1    2    0  502  0.69260515131E+02 -0.46751173787E+02 -0.51983216352E+02  0.98500854762E+02  0.41800000000E+01 0.  1.
        -11    1    3    3    0    0 -0.52135012957E+01  0.23876383198E+02 -0.15540333175E+02  0.28961426511E+02  0.00000000000E+00 0. -1.
         11    1    3    3    0    0  0.42019259711E+02  0.71570575667E+01  0.89495337327E+02  0.99127478849E+02  0.00000000000E+00 0.  1.
</event>
<event>
 8    1  0.4798744E-006  0.9971017E+02  0.7561462E-02  0.1280907E+00
         -2   -1    0    0    0  501 -0.00000000000E+00  0.00000000000E+00  0.11262790171E+03  0.11262790171E+03  0.00000000000E+00 0.  1.
          2   -1    0    0  501    0  0.00000000000E+00 -0.00000000000E+00 -0.11587614592E+03  0.11587614592E+03  0.00000000000E+00 0. -1.
         23    2    1    2    0    0  0.24047745291E+02 -0.18323084746E+02  0.16152908789E+02  0.12970077625E+03  0.12508934970E+03 0.  0.
         23    2    1    2    0    0 -0.24047745291E+02  0.18323084746E+02 -0.19401153000E+02  0.98803271391E+02  0.92041578711E+02 0.  0.
          5    1    3    3  502    0  0.64251293001E+02 -0.19499547280E+02  0.44193724395E+02  0.80492351639E+02  0.41800000000E+01 0.  1.
         -5    1    3    3    0  502 -0.40203547710E+02  0.11764625341E+01 -0.28040815606E+02  0.49208424608E+02  0.41800000000E+01 0.  1.
        -11    1    4    4    0    0 -0.38939095854E+02  0.46006697152E+02  0.27693001512E+01  0.60336874232E+02  0.00000000000E+00 0. -1.
         11    1    4    4    0    0  0.14891350563E+02 -0.27683612407E+02 -0.22170453151E+02  0.38466397159E+02  0.00000000000E+00 0.  1.
</event>
<event>
 8    1  0.4798744E-006  0.2946673E+03  0.7561462E-02  0.1087937E+00
         -2   -1    0    0    0  501 -0.00000000000E+00  0.00000000000E+00  0.15816365794E+03  0.15816365794E+03  0.00000000000E+00 0.  1.
          2   -1    0    0  501    0  0.00000000000E+00 -0.00000000000E+00 -0.62497151498E+03  0.62497151498E+03  0.00000000000E+00 0. -1.
         23    2    1    2    0    0  0.16178901825E+03 -0.22198539339E+03 -0.10576197469E+03  0.31981512018E+03  0.12507163746E+03 0.  0.
         23    2    1    2    0    0 -0.16178901825E+03  0.22198539339E+03 -0.36104588234E+03  0.46332005274E+03  0.94117696587E+02 0.  0.
          5    1    3    3  502    0  0.38126869267E+02  0.76237517070E+01 -0.26399492881E+02  0.47182468932E+02  0.41800000000E+01 0.  1.
         -5    1    3    3    0  502  0.12366214898E+03 -0.22960914510E+03 -0.79362481811E+02  0.27263265124E+03  0.41800000000E+01 0.  1.
        -11    1    4    4    0    0 -0.16609101054E+03  0.17153151820E+03 -0.28275313415E+03  0.37007920827E+03  0.00000000000E+00 0. -1.
         11    1    4    4    0    0  0.43019922881E+01  0.50453875191E+02 -0.78292748190E+02  0.93240844476E+02  0.00000000000E+00 0.  1.
</event>
<event>
 8    1  0.4798744E-006  0.9883616E+02  0.7561462E-02  0.1282763E+00
          1   -1    0    0  501    0  0.00000000000E+00  0.00000000000E+00  0.23091220057E+02  0.23091220057E+02  0.00000000000E+00 0. -1.
         -1   -1    0    0    0  501 -0.00000000000E+00 -0.00000000000E+00 -0.53223753661E+03  0.53223753661E+03  0.00000000000E+00 0.  1.
         23    2    1    2    0    0  0.29328589945E+02  0.41034257241E+01 -0.32416749056E+03  0.34790944698E+03  0.12279827797E+03 0.  0.
         23    2    1    2    0    0 -0.29328589945E+02 -0.41034257241E+01 -0.18497882599E+03  0.20741930969E+03  0.89042684564E+02 0.  0.
          5    1    3    3  502    0  0.29961538020E+02 -0.52781241843E+02 -0.22912179527E+03  0.23706079962E+03  0.41800000000E+01 0.  1.
         -5    1    3    3    0  502 -0.63294807416E+00  0.56884667567E+02 -0.95045695292E+02  0.11084864736E+03  0.41800000000E+01 0.  1.
        -11    1    4    4    0    0  0.23702131732E+02 -0.11335243040E+02 -0.12187533560E+03  0.12467508256E+03  0.00000000000E+00 0.  1.
         11    1    4    4    0    0 -0.53030721678E+02  0.72318173164E+01 -0.63103490397E+02  0.82744227132E+02  0.00000000000E+00 0. -1.
</event>
<event>
 8    1  0.4798744E-006  0.1932245E+03  0.7561462E-02  0.1155585E+00
          1   -1    0    0  501    0  0.00000000000E+00  0.00000000000E+00  0.31338067953E+03  0.31338067953E+03  0.00000000000E+00 0. -1.
         -1   -1    0    0    0  501 -0.00000000000E+00 -0.00000000000E+00 -0.22266279129E+03  0.22266279129E+03  0.00000000000E+00 0.  1.
         23    2    1    2    0    0  0.16066714399E+03 -0.65308830760E+02 -0.12243932749E+03  0.24640760181E+03  0.12508454253E+03 0.  0.
         23    2    1    2    0    0 -0.16066714399E+03  0.65308830760E+02  0.21315721574E+03  0.28963586901E+03  0.91508269919E+02 0.  0.
          5    1    3    3  502    0  0.12334146427E+02 -0.63134334168E+02 -0.48039521706E+02  0.80394921261E+02  0.41800000000E+01 0.  1.
         -5    1    3    3    0  502  0.14833299757E+03 -0.21744965927E+01 -0.74399805788E+02  0.16601268055E+03  0.41800000000E+01 0.  1.
        -11    1    4    4    0    0 -0.85085270166E+02  0.38393059787E+02  0.18011503220E+03  0.20286684072E+03  0.00000000000E+00 0. -1.
         11    1    4    4    0    0 -0.75581873827E+02  0.26915770974E+02  0.33042183540E+02  0.86769028295E+02  0.00000000000E+00 0.  1.
</event>
<event>
 8    1  0.4798744E-006  0.2198233E+03  0.7561462E-02  0.1134015E+00
          1   -1    0    0  501    0  0.00000000000E+00  0.00000000000E+00  0.17191322208E+03  0.17191322208E+03  0.00000000000E+00 0. -1.
         -1   -1    0    0    0  501 -0.00000000000E+00 -0.00000000000E+00 -0.33830720105E+03  0.33830720105E+03  0.00000000000E+00 0.  1.
         23    2    1    2    0    0  0.15291763678E+03  0.13098432570E+03 -0.16575761075E+03  0.28924896650E+03  0.12509469166E+03 0.  0.
         23    2    1    2    0    0 -0.15291763678E+03 -0.13098432570E+03 -0.63636821657E+00  0.22097145663E+03  0.91034512489E+02 0.  0.
          5    1    3    3  502    0  0.67854880921E+02  0.13563484776E+03 -0.10838177166E+03  0.18645422392E+03  0.41800000000E+01 0. -1.
         -5    1    3    3    0  502  0.85062755860E+02 -0.46505220553E+01 -0.57375839091E+02  0.10279474258E+03  0.41800000000E+01 0. -1.
        -11    1    4    4    0    0 -0.67653133653E+02 -0.43260819657E+02 -0.43523128016E+02  0.91338423913E+02  0.00000000000E+00 0.  1.
         11    1    4    4    0    0 -0.85264503127E+02 -0.87723506043E+02  0.42886759800E+02  0.12963303272E+03  0.00000000000E+00 0. -1.
</event>
<event>
 8    1  0.4798744E-006  0.1193721E+03  0.7561462E-02  0.1244137E+00
          3   -1    0    0  501    0  0.00000000000E+00  0.00000000000E+00  0.13865217181E+03  0.13865217181E+03  0.00000000000E+00 0. -1.
         -3   -1    0    0    0  501 -0.00000000000E+00 -0.00000000000E+00 -0.13120565791E+03  0.13120565791E+03  0.00000000000E+00 0.  1.
         23    2    1    2    0    0 -0.78553020226E+02 -0.20974078654E+02  0.50879361685E+01  0.14928001636E+03  0.12509255465E+03 0.  0.
         23    2    1    2    0    0  0.78553020226E+02  0.20974078654E+02  0.23585777306E+01  0.12057781336E+03  0.89010994966E+02 0.  0.
          5    1    3    3  502    0 -0.11433992369E+02  0.45919988191E+02  0.22949329304E+02  0.52759128239E+02  0.41800000000E+01 0.  1.
         -5    1    3    3    0  502 -0.67119027857E+02 -0.66894066846E+02 -0.17861393135E+02  0.96520888125E+02  0.41800000000E+01 0.  1.
        -11    1    4    4    0    0  0.35710492944E+02 -0.16617339248E+02 -0.34783240182E+02  0.52547588599E+02  0.00000000000E+00 0.  1.
         11    1    4    4    0    0  0.42842527283E+02  0.37591417902E+02  0.37141817913E+02  0.68030224766E+02  0.00000000000E+00 0. -1.
</event>
<event>
 8    1  0.4798744E-006  0.1106678E+03  0.7561462E-02  0.1259338E+00
          1   -1    0    0  501    0  0.00000000000E+00  0.00000000000E+00  0.41458856638E+03  0.41458856638E+03  0.00000000000E+00 0. -1.
         -1   -1    0    0    0  501 -0.00000000000E+00 -0.00000000000E+00 -0.32648557298E+02  0.32648557298E+02  0.00000000000E+00 0.  1.
         23    2    1    2    0    0  0.15844281613E+01 -0.21965788323E+02  0.14880195516E+03  0.19563758855E+03  0.12508812064E+03 0.  0.
         23    2    1    2    0    0 -0.15844281613E+01  0.21965788323E+02  0.23313805392E+03  0.25159953512E+03  0.91999824019E+02 0.  0.
          5    1    3    3  502    0 -0.34978281397E+02  0.41010641812E+02  0.64442721423E+02  0.84117118684E+02  0.41800000000E+01 0. -1.
         -5    1    3    3    0  502  0.36562709559E+02 -0.62976430135E+02  0.84359233737E+02  0.11152046987E+03  0.41800000000E+01 0. -1.
        -11    1    4    4    0    0 -0.31633885064E+02 -0.23796771257E+02  0.88611595959E+02  0.97051553026E+02  0.00000000000E+00 0.  1.
         11    1    4    4    0    0  0.30049456903E+02  0.45762559580E+02  0.14452645796E+03  0.15454798210E+03  0.00000000000E+00 0. -1.
</event>
<event>
 8    1  0.4798744E-006  0.8946330E+02  0.7561462E-02  0.1304157E+00
          1   -1    0    0  501    0  0.00000000000E+00  0.00000000000E+00  0.27691911202E+02  0.27691911202E+02  0.00000000000E+00 0. -1.
         -1   -1    0    0    0  501 -0.00000000000E+00 -0.00000000000E+00 -0.40665340061E+03  0.40665340061E+03  0.00000000000E+00 0.  1.
         23    2    1    2    0    0  0.49014516404E+01 -0.11978288217E+01 -0.23538387624E+03  0.26660497577E+03  0.12508870807E+03 0.  0.
         23    2    1    2    0    0 -0.49014516404E+01  0.11978288217E+01 -0.14357761317E+03  0.16774033604E+03  0.86584238239E+02 0.  0.
          5    1    3    3  502    0  0.62104949824E+02 -0.18586207169E+02 -0.11326124793E+03  0.13056819894E+03  0.41800000000E+01 0. -1.
         -5    1    3    3    0  502 -0.57203498184E+02  0.17388378347E+02 -0.12212262831E+03  0.13603677683E+03  0.41800000000E+01 0. -1.
        -11    1    4    4    0    0 -0.26624024078E+02 -0.11353421502E+02 -0.82354077671E+01  0.30092536932E+02  0.00000000000E+00 0. -1.
         11    1    4    4    0    0  0.21722572438E+02  0.12551250324E+02 -0.13534220540E+03  0.13764779911E+03  0.00000000000E+00 0.  1.
</event>
<event>
 8    1  0.4798744E-006  0.1226708E+03  0.7561462E-02  0.1238755E+00
          3   -1    0    0  501    0  0.00000000000E+00  0.00000000000E+00  0.56455387276E+02  0.56455387276E+02  0.00000000000E+00 0. -1.
         -3   -1    0    0    0  501 -0.00000000000E+00 -0.00000000000E+00 -0.42062285309E+03  0.42062285309E+03  0.00000000000E+00 0.  1.
         23    2    1    2    0    0 -0.10347590643E+01 -0.10580217272E+03 -0.24824071563E+03  0.29743319724E+03  0.12509150030E+03 0.  0.
         23    2    1    2    0    0  0.10347590643E+01  0.10580217272E+03 -0.11592675019E+03  0.17964504313E+03  0.87396565334E+02 0.  0.
          5    1    3    3  502    0  0.41374894212E+02 -0.74852562822E+02 -0.67089219433E+02  0.10878062234E+03  0.41800000000E+01 0. -1.
         -5    1    3    3    0  502 -0.42409653276E+02 -0.30949609899E+02 -0.18115149619E+03  0.18865257490E+03  0.41800000000E+01 0. -1.
        -11    1    4    4    0    0  0.85428298859E+01  0.47618019781E+02  0.14755357101E+01  0.48400753671E+02  0.00000000000E+00 0. -1.
         11    1    4    4    0    0 -0.75080708216E+01  0.58184152940E+02 -0.11740228590E+03  0.13124428945E+03  0.00000000000E+00 0.  1.
</event>
<event>
 8    1  0.4798744E-006  0.1000157E+03  0.7561462E-02  0.1280263E+00
         -2   -1    0    0    0  501 -0.00000000000E+00  0.00000000000E+00  0.10541853027E+03  0.10541853027E+03  0.00000000000E+00 0.  1.
          2   -1    0    0  501    0  0.00000000000E+00 -0.00000000000E+00 -0.15632419269E+03  0.15632419269E+03  0.00000000000E+00 0. -1.
         23    2    1    2    0    0  0.43816165248E+02 -0.20221499294E+02  0.22230307163E+02  0.13590239728E+03  0.12508600904E+03 0.  0.
         23    2    1    2    0    0 -0.43816165248E+02  0.20221499294E+02 -0.73135969586E+02  0.12584032568E+03  0.90322489724E+02 0.  0.
          5    1    3    3  502    0  0.94830531530E+01  0.33830954899E+02  0.53795286407E+02  0.64388407700E+02  0.41800000000E+01 0.  1.
         -5    1    3    3    0  502  0.34333112095E+02 -0.54052454194E+02 -0.31564979243E+02  0.71513989577E+02  0.41800000000E+01 0.  1.
        -11    1    4    4    0    0  0.26847584373E+02 -0.45424502241E+00 -0.93699788640E+01  0.28439332431E+02  0.00000000000E+00 0.  1.
         11    1    4    4    0    0 -0.70663749622E+02  0.20675744317E+02 -0.63765990722E+02  0.97400993252E+02  0.00000000000E+00 0. -1.
</event>
<event>
 8    1  0.4798744E-006  0.9305958E+02  0.7561462E-02  0.1295607E+00
         -1   -1    0    0    0  501 -0.00000000000E+00  0.00000000000E+00  0.15660982648E+02  0.15660982648E+02  0.00000000000E+00 0.  1.
          1   -1    0    0  501    0  0.00000000000E+00 -0.00000000000E+00 -0.94537640632E+03  0.94537640632E+03  0.00000000000E+00 0. -1.
         23    2    1    2    0    0 -0.19106412635E+02 -0.50512869168E+02 -0.48980355142E+03  0.50840098114E+03  0.12508970258E+03 0.  0.
         23    2    1    2    0    0  0.19106412635E+02  0.50512869168E+02 -0.43991187226E+03  0.45263640783E+03  0.91873050360E+02 0.  0.
          5    1    3    3  502    0 -0.37213765352E+02 -0.63131393170E+01 -0.43035015214E+03  0.43202250625E+03  0.41800000000E+01 0. -1.
         -5    1    3    3    0  502  0.18107352717E+02 -0.44199729851E+02 -0.59453399272E+02  0.76378474888E+02  0.41800000000E+01 0. -1.
        -11    1    4    4    0    0 -0.13530484582E+02 -0.19044632869E+02 -0.49500867552E+02  0.54736714759E+02  0.00000000000E+00 0.  1.
         11    1    4    4    0    0  0.32636897217E+02  0.69557502036E+02 -0.39041100471E+03  0.39789969307E+03  0.00000000000E+00 0. -1.
</event>
<event>
 8    1  0.4798744E-006  0.9455190E+02  0.7561462E-02  0.1292189E+00
          4   -1    0    0  501    0  0.00000000000E+00  0.00000000000E+00  0.99927610264E+02  0.99927610264E+02  0.00000000000E+00 0. -1.
         -4   -1    0    0    0  501 -0.00000000000E+00 -0.00000000000E+00 -0.18206129199E+03  0.18206129199E+03  0.00000000000E+00 0.  1.
         23    2    1    2    0    0 -0.51058340861E+02 -0.52852991088E+02 -0.76332653078E+02  0.16393455910E+03  0.12508985931E+03 0.  0.
         23    2    1    2    0    0  0.51058340861E+02  0.52852991088E+02 -0.58010286466E+01  0.11805434316E+03  0.92210537174E+02 0.  0.
          5    1    3    3  502    0 -0.59119034098E+02 -0.10996059513E+01  0.12635815399E+02  0.60608626092E+02  0.41800000000E+01 0.  1.
         -5    1    3    3    0  502  0.80606932368E+01 -0.51753385137E+02 -0.88968468477E+02  0.10332593301E+03  0.41800000000E+01 0.  1.
        -11    1    4    4    0    0  0.98242601391E+00  0.13654236867E+02  0.38295003578E+02  0.40668300239E+02  0.00000000000E+00 0. -1.
         11    1    4    4    0    0  0.50075914847E+02  0.39198754222E+02 -0.44096032224E+02  0.77386042916E+02  0.00000000000E+00 0.  1.
</event>
<event>
 8    1  0.4798744E-006  0.1625342E+03  0.7561462E-02  0.1185865E+00
          1   -1    0    0  501    0  0.00000000000E+00  0.00000000000E+00  0.49090868573E+02  0.49090868573E+02  0.00000000000E+00 0. -1.
         -1   -1    0    0    0  501 -0.00000000000E+00 -0.00000000000E+00 -0.73024471213E+03  0.73024471213E+03  0.00000000000E+00 0.  1.
         23    2    1    2    0    0  0.12598377478E+03 -0.72368871846E+02 -0.46808609896E+03  0.50582867986E+03  0.12509553233E+03 0.  0.
         23    2    1    2    0    0 -0.12598377478E+03  0.72368871846E+02 -0.21306774460E+03  0.27350690085E+03  0.91098824913E+02 0.  0.
          5    1    3    3  502    0  0.62599828043E+02  0.20855211736E+02 -0.92719363549E+02  0.11387726333E+03  0.41800000000E+01 0. -1.
         -5    1    3    3    0  502  0.63383946738E+02 -0.93224083583E+02 -0.37536673541E+03  0.39195141653E+03  0.41800000000E+01 0. -1.
        -11    1    4    4    0    0 -0.13428971378E+02  0.13832917636E+02  0.61407417412E+01  0.20233526429E+02  0.00000000000E+00 0. -1.
         11    1    4    4    0    0 -0.11255480340E+03  0.58535954210E+02 -0.21920848634E+03  0.25327337442E+03  0.00000000000E+00 0.  1.
</event>
<event>
 8    1  0.4798744E-006  0.1588985E+03  0.7561462E-02  0.1189946E+00
          1   -1    0    0  501    0  0.00000000000E+00  0.00000000000E+00  0.94101308284E+03  0.94101308284E+03  0.00000000000E+00 0. -1.
         -1   -1    0    0    0  501 -0.00000000000E+00 -0.00000000000E+00 -0.44556869473E+02  0.44556869473E+02  0.00000000000E+00 0.  1.
         23    2    1    2    0    0 -0.94153263232E+00  0.15609784348E+03  0.28663239047E+03  0.34953276812E+03  0.12509038933E+03 0.  0.
         23    2    1    2    0    0  0.94153263232E+00 -0.15609784348E+03  0.60982382290E+03  0.63603718419E+03  0.91053728491E+02 0.  0.
          5    1    3    3  502    0  0.93239349726E+01  0.13473969689E+03  0.29465998116E+03  0.32416615890E+03  0.41800000000E+01 0.  1.
         -5    1    3    3    0  502 -0.10265467605E+02  0.21358146596E+02 -0.80275906899E+01  0.25366609223E+02  0.41800000000E+01 0.  1.
        -11    1    4    4    0    0  0.13882941465E+02 -0.10418059954E+03  0.52739202441E+03  0.53776266214E+03  0.00000000000E+00 0. -1.
         11    1    4    4    0    0 -0.12941408833E+02 -0.51917243943E+02  0.82431798490E+02  0.98274522047E+02  0.00000000000E+00 0.  1.
</event>
<event>
 8    1  0.4798744E-006  0.1544904E+03  0.7561462E-02  0.1195061E+00
          2   -1    0    0  501    0  0.00000000000E+00  0.00000000000E+00  0.36412268224E+03  0.36412268224E+03  0.00000000000E+00 0. -1.
         -2   -1    0    0    0  501 -0.00000000000E+00 -0.00000000000E+00 -0.85795862809E+02  0.85795862809E+02  0.00000000000E+00 0.  1.
         23    2    1    2    0    0 -0.39177523511E+02 -0.10882483891E+03  0.48824094412E+02  0.17721147413E+03  0.12506954247E+03 0.  0.
         23    2    1    2    0    0  0.39177523511E+02  0.10882483891E+03  0.22950272502E+03  0.27270707092E+03  0.91213605482E+02 0.  0.
          5    1    3    3  502    0 -0.13785562581E+01 -0.12268830130E+03  0.57889372902E+02  0.13573124765E+03  0.41800000000E+01 0. -1.
         -5    1    3    3    0  502 -0.37798967253E+02  0.13863462386E+02 -0.90652784905E+01  0.41480226480E+02  0.41800000000E+01 0. -1.
        -11    1    4    4    0    0  0.17945355845E+02 -0.12946199930E+02  0.22166194933E+02  0.31320601636E+02  0.00000000000E+00 0.  1.
         11    1    4    4    0    0  0.21232167666E+02  0.12177103884E+03  0.20733653008E+03  0.24138646928E+03  0.00000000000E+00 0. -1.
</event>
<event>
 8    1  0.4798744E-006  0.1031481E+03  0.7561462E-02  0.1273812E+00
          1   -1    0    0  501    0  0.00000000000E+00  0.00000000000E+00  0.36839432407E+03  0.36839432407E+03  0.00000000000E+00 0. -1.
         -1   -1    0    0    0  501 -0.00000000000E+00 -0.00000000000E+00 -0.41741731186E+02  0.41741731186E+02  0.00000000000E+00 0.  1.
         23    2    1    2    0    0 -0.43652549709E+02  0.42323898329E+02  0.15870063048E+03  0.21102175806E+03  0.12508970698E+03 0.  0.
         23    2    1    2    0    0  0.43652549709E+02 -0.42323898329E+02  0.16795196240E+03  0.19911429720E+03  0.87987409373E+02 0.  0.
          5    1    3    3  502    0 -0.49947128971E+02 -0.13016456081E+02  0.14434462914E+03  0.15335249650E+03  0.41800000000E+01 0.  1.
         -5    1    3    3    0  502  0.62945792617E+01  0.55340354410E+02  0.14356001345E+02  0.57669261561E+02  0.41800000000E+01 0.  1.
        -11    1    4    4    0    0  0.59097366282E+02 -0.62623957256E+01  0.13635333805E+03  0.14874121520E+03  0.00000000000E+00 0. -1.
         11    1    4    4    0    0 -0.15444816573E+02 -0.36061502604E+02  0.31598624348E+02  0.50373081995E+02  0.00000000000E+00 0.  1.
</event>
<event>
 8    1  0.4798744E-006  0.1174280E+03  0.7561462E-02  0.1247401E+00
         -2   -1    0    0    0  501 -0.00000000000E+00  0.00000000000E+00  0.84212671097E+03  0.84212671097E+03  0.00000000000E+00 0.  1.
          2   -1    0    0  501    0  0.00000000000E+00 -0.00000000000E+00 -0.29751690339E+02  0.29751690339E+02  0.00000000000E+00 0. -1.
         23    2    1    2    0    0 -0.37293318612E+02 -0.69846825960E+02  0.65258416550E+03  0.66916636481E+03  0.12509260581E+03 0.  0.
         23    2    1    2    0    0  0.37293318612E+02  0.69846825960E+02  0.15979085513E+03  0.20271203650E+03  0.96382994591E+02 0.  0.
          5    1    3    3  502    0 -0.39738234471E+02  0.15145194961E+02  0.83996405586E+02  0.94241035439E+02  0.41800000000E+01 0. -1.
         -5    1    3    3    0  502  0.24449158590E+01 -0.84992020921E+02  0.56858775991E+03  0.57492532937E+03  0.41800000000E+01 0. -1.
        -11    1    4    4    0    0  0.15222936043E+02 -0.13762278131E+02  0.87883165203E+02  0.90247375625E+02  0.00000000000E+00 0.  1.
         11    1    4    4    0    0  0.22070382569E+02  0.83609104091E+02  0.71907689929E+02  0.11246466087E+03  0.00000000000E+00 0. -1.
</event>
<event>
 7    1  0.4798744E-006  0.1548638E+03  0.7561462E-02  0.1194621E+00
         -2   -1    0    0    0  501 -0.00000000000E+00  0.00000000000E+00  0.11134331094E+03  0.11134331094E+03  0.00000000000E+00 0.  1.
          2   -1    0    0  501    0  0.00000000000E+00 -0.00000000000E+00 -0.59891992345E+03  0.59891992345E+03  0.00000000000E+00 0. -1.
         23    2    1    2    0    0 -0.96664766547E+02  0.95134906699E+02 -0.30353769280E+03  0.34426570018E+03  0.89381283299E+02 0.  0.
          5    1    1    2  502    0  0.67681287783E+02 -0.11185453391E+03 -0.25546863535E+03  0.28700851820E+03  0.41800000000E+01 0. -1.
         -5    1    1    2    0  502  0.28983478764E+02  0.16719627208E+02  0.71429715641E+02  0.78989016020E+02  0.41800000000E+01 0.  1.
        -11    1    3    3    0    0  0.51708026674E+01  0.14233825509E+02 -0.12610565569E+01  0.15196356553E+02  0.00000000000E+00 0.  1.
         11    1    3    3    0    0 -0.10183556921E+03  0.80901081189E+02 -0.30227663624E+03  0.32906934362E+03  0.00000000000E+00 0. -1.
</event>
<event>
 8    1  0.4798744E-006  0.1254020E+03  0.7561462E-02  0.1234442E+00
          2   -1    0    0  501    0  0.00000000000E+00  0.00000000000E+00  0.71798268550E+02  0.71798268550E+02  0.00000000000E+00 0.  1.
         -2   -1    0    0    0  501 -0.00000000000E+00 -0.00000000000E+00 -0.33497145460E+03  0.33497145460E+03  0.00000000000E+00 0. -1.
         23    2    1    2    0    0  0.25531294076E+02 -0.79140560455E+02 -0.22535382269E+03  0.27082906404E+03  0.12509580825E+03 0.  0.
         23    2    1    2    0    0 -0.25531294076E+02  0.79140560455E+02 -0.37819363359E+02  0.13594065911E+03  0.10067017070E+03 0.  0.
          5    1    3    3  502    0  0.58997990314E+02 -0.30085282471E+01 -0.53259181538E+02  0.79648144494E+02  0.41800000000E+01 0.  1.
         -5    1    3    3    0  502 -0.33466696238E+02 -0.76132032208E+02 -0.17209464116E+03  0.19118091955E+03  0.41800000000E+01 0.  1.
        -11    1    4    4    0    0 -0.14660532298E+02 -0.10489466382E+02  0.21388370870E+02  0.27971816543E+02  0.00000000000E+00 0.  1.
         11    1    4    4    0    0 -0.10870761778E+02  0.89630026837E+02 -0.59207734229E+02  0.10796884257E+03  0.00000000000E+00 0. -1.
</event>
<event>
 8    1  0.4798744E-006  0.1271400E+03  0.7561462E-02  0.1231762E+00
          2   -1    0    0  501    0  0.00000000000E+00  0.00000000000E+00  0.33441900583E+03  0.33441900583E+03  0.00000000000E+00 0.  1.
         -2   -1    0    0    0  501 -0.00000000000E+00 -0.00000000000E+00 -0.64486771489E+02  0.64486771489E+02  0.00000000000E+00 0. -1.
         23    2    1    2    0    0 -0.72177431176E+02  0.37522809900E+02  0.73213521230E+02  0.16621064586E+03  0.12509283062E+03 0.  0.
         23    2    1    2    0    0  0.72177431176E+02 -0.37522809900E+02  0.19671871311E+03  0.23269513146E+03  0.93974620417E+02 0.  0.
          5    1    3    3  502    0 -0.90099434141E+02 -0.15197628960E+02  0.32366601414E+02  0.97025487608E+02  0.41800000000E+01 0.  1.
         -5    1    3    3    0  502  0.17922002965E+02  0.52720438860E+02  0.40846919816E+02  0.69185158252E+02  0.41800000000E+01 0.  1.
        -11    1    4    4    0    0  0.47423022459E+02  0.14307089772E+02  0.33851295501E+02  0.59996217247E+02  0.00000000000E+00 0.  1.
         11    1    4    4    0    0  0.24754408717E+02 -0.51829899672E+02  0.16286741761E+03  0.17269891421E+03  0.00000000000E+00 0. -1.
</event>
<event>
 8    1  0.4798744E-006  0.9332433E+02  0.7561462E-02  0.1294995E+00
          1   -1    0    0  501    0  0.00000000000E+00  0.00000000000E+00  0.15359611733E+03  0.15359611733E+03  0.00000000000E+00 0. -1.
         -1   -1    0    0    0  501 -0.00000000000E+00 -0.00000000000E+00 -0.15786376388E+03  0.15786376388E+03  0.00000000000E+00 0.  1.
         23    2    1    2    0    0 -0.31847182842E+02 -0.55913038926E+01 -0.11299403436E+03  0.16544621288E+03  0.11644437222E+03 0.  0.
         23    2    1    2    0    0  0.31847182842E+02  0.55913038926E+01  0.10872638780E+03  0.14601366833E+03  0.91940514464E+02 0.  0.
          5    1    3    3  502    0 -0.59580583215E+02  0.31707466023E+01 -0.12977586388E+02  0.61202856785E+02  0.41800000000E+01 0. -1.
         -5    1    3    3    0  502  0.27733400372E+02 -0.87620504949E+01 -0.10001644797E+03  0.10424335610E+03  0.41800000000E+01 0.  1.
        -11    1    4    4    0    0 -0.62875546732E+01  0.43341171067E+02  0.49700083012E+02  0.66242650193E+02  0.00000000000E+00 0.  1.
         11    1    4    4    0    0  0.38134737516E+02 -0.37749867175E+02  0.59026304792E+02  0.79771018136E+02  0.00000000000E+00 0. -1.
</event>
<event>
 8    1  0.4798744E-006  0.1486078E+03  0.7561462E-02  0.1202194E+00
          2   -1    0    0  501    0  0.00000000000E+00  0.00000000000E+00  0.77866635476E+03  0.77866635476E+03  0.00000000000E+00 0. -1.
         -2   -1    0    0    0  501 -0.00000000000E+00 -0.00000000000E+00 -0.43365580745E+02  0.43365580745E+02  0.00000000000E+00 0.  1.
         23    2    1    2    0    0  0.11209915604E+03  0.97364849619E+02  0.40326571064E+03  0.44756925591E+03  0.12509544649E+03 0.  0.
         23    2    1    2    0    0 -0.11209915604E+03 -0.97364849619E+02  0.33203506338E+03  0.37446267959E+03  0.89044260754E+02 0.  0.
          5    1    3    3  502    0  0.54221316572E+02  0.47716513050E+02  0.34226493105E+03  0.34982791801E+03  0.41800000000E+01 0.  1.
         -5    1    3    3    0  502  0.57877839465E+02  0.49648336569E+02  0.61000779588E+02  0.97741337905E+02  0.41800000000E+01 0.  1.
        -11    1    4    4    0    0 -0.41888602738E+02 -0.34891224824E+02  0.22728729704E+03  0.23373396845E+03  0.00000000000E+00 0.  1.
         11    1    4    4    0    0 -0.70210553299E+02 -0.62473624795E+02  0.10474776633E+03  0.14072871115E+03  0.00000000000E+00 0. -1.
</event>
<event>
 7    1  0.4798744E-006  0.1343024E+03  0.7561462E-02  0.1221208E+00
          1   -1    0    0  501    0  0.00000000000E+00  0.00000000000E+00  0.59033118576E+02  0.59033118576E+02  0.00000000000E+00 0. -1.
         -1   -1    0    0    0  501 -0.00000000000E+00 -0.00000000000E+00 -0.60031591399E+03  0.60031591399E+03  0.00000000000E+00 0.  1.
         23    2    1    2    0    0  0.14165145688E+02  0.99919014858E+01 -0.12266153978E+02  0.94305697578E+02  0.91883712456E+02 0.  0.
          5    1    1    2  502    0  0.23941670033E+02  0.84665189693E+02 -0.16584191281E+03  0.18778288089E+03  0.41800000000E+01 0. -1.
         -5    1    1    2    0  502 -0.38106815721E+02 -0.94657091179E+02 -0.36317472863E+03  0.37726045410E+03  0.41800000000E+01 0.  1.
        -11    1    3    3    0    0 -0.14235763068E+02  0.36727447316E+02 -0.31854329552E+02  0.50658273241E+02  0.00000000000E+00 0.  1.
         11    1    3    3    0    0  0.28400908756E+02 -0.26735545831E+02  0.19588175574E+02  0.43647424338E+02  0.00000000000E+00 0. -1.
</event>
<event>
 7    1  0.4798744E-006  0.2734979E+03  0.7561462E-02  0.1099294E+00
         -1   -1    0    0    0  501 -0.00000000000E+00  0.00000000000E+00  0.85377199649E+02  0.85377199649E+02  0.00000000000E+00 0.  1.
          1   -1    0    0  501    0  0.00000000000E+00 -0.00000000000E+00 -0.11819380034E+04  0.11819380034E+04  0.00000000000E+00 0. -1.
         23    2    1    2    0    0  0.20201292183E+03 -0.13924262026E+03 -0.83230027467E+03  0.87219867210E+03  0.88368820955E+02 0.  0.
          5    1    1    2  502    0  0.19579118915E+02 -0.13647822771E+02 -0.17429222273E+02  0.29847196735E+02  0.41800000000E+01 0. -1.
         -5    1    1    2    0  502 -0.22159204075E+03  0.15289044303E+03 -0.24683130679E+03  0.36526933419E+03  0.41800000000E+01 0.  1.
        -11    1    3    3    0    0  0.16580877601E+03 -0.14043878338E+03 -0.77061107998E+03  0.80066037661E+03  0.00000000000E+00 0. -1.
         11    1    3    3    0    0  0.36204145819E+02  0.11961631231E+01 -0.61689194682E+02  0.71538295487E+02  0.00000000000E+00 0.  1.
</event>
<event>
 8    1  0.4798744E-006  0.1054161E+03  0.7561462E-02  0.1269302E+00
          1   -1    0    0  501    0  0.00000000000E+00  0.00000000000E+00  0.84205008537E+03  0.84205008537E+03  0.00000000000E+00 0. -1.
         -1   -1    0    0    0  501 -0.00000000000E+00 -0.00000000000E+00 -0.17908868512E+02  0.17908868512E+02  0.00000000000E+00 0.  1.
         23    2    1    2    0    0 -0.32807241052E+00 -0.60324425987E+02  0.34253753726E+03  0.36638519441E+03  0.11518247370E+03 0.  0.
         23    2    1    2    0    0  0.32807241052E+00  0.60324425987E+02  0.48160367960E+03  0.49357375948E+03  0.89631511403E+02 0.  0.
          5    1    3    3  502    0 -0.30149807143E+02  0.76105363558E+01  0.22602869326E+03  0.22819591081E+03  0.41800000000E+01 0. -1.
         -5    1    3    3    0  502  0.29821734732E+02 -0.67934962343E+02  0.11650884400E+03  0.13818928360E+03  0.41800000000E+01 0.  1.
        -11    1    4    4    0    0 -0.35161125688E+02  0.60131748090E+02  0.36874302216E+03  0.37526463766E+03  0.00000000000E+00 0. -1.
         11    1    4    4    0    0  0.35489198099E+02  0.19267789673E+00  0.11286065744E+03  0.11830912181E+03  0.00000000000E+00 0.  1.
</event>
<event>
 7    1  0.4798744E-006  0.1110292E+03  0.7561462E-02  0.1258676E+00
          2   -1    0    0  501    0  0.00000000000E+00  0.00000000000E+00  0.61896697649E+03  0.61896697649E+03  0.00000000000E+00 0. -1.
         -2   -1    0    0    0  501 -0.00000000000E+00 -0.00000000000E+00 -0.32962956248E+02  0.32962956248E+02  0.00000000000E+00 0.  1.
         23    2    1    2    0    0 -0.52169889015E+02 -0.36330256951E+02  0.28185242190E+03  0.30221358736E+03  0.88604061776E+02 0.  0.
          5    1    1    2  502    0  0.18005283357E+02  0.76441870527E+02  0.28138164704E+03  0.29216545567E+03  0.41800000000E+01 0. -1.
         -5    1    1    2    0  502  0.34164605658E+02 -0.40111613576E+02  0.22769951300E+02  0.57550889703E+02  0.41800000000E+01 0.  1.
        -11    1    3    3    0    0 -0.23288643854E+02 -0.52518200635E+02  0.24911144035E+03  0.25565021425E+03  0.00000000000E+00 0.  1.
         11    1    3    3    0    0 -0.28881245161E+02  0.16187943684E+02  0.32740981548E+02  0.46563373111E+02  0.00000000000E+00 0. -1.
</event>
<event>
 8    1  0.4798744E-006  0.1537533E+03  0.7561462E-02  0.1195935E+00
         -2   -1    0    0    0  501 -0.00000000000E+00  0.00000000000E+00  0.18695294621E+03  0.18695294621E+03  0.00000000000E+00 0.  1.
          2   -1    0    0  501    0  0.00000000000E+00 -0.00000000000E+00 -0.17765650466E+03  0.17765650466E+03  0.00000000000E+00 0. -1.
         23    2    1    2    0    0 -0.47189842635E+01 -0.13736540375E+03  0.54528393299E+02  0.19368337042E+03  0.12509348241E+03 0.  0.
         23    2    1    2    0    0  0.47189842635E+01  0.13736540375E+03 -0.45231951752E+02  0.17092608044E+03  0.90985012814E+02 0.  0.
          5    1    3    3  502    0  0.30071300053E+02 -0.12159706779E+03  0.78978419808E+02  0.14813910077E+03  0.41800000000E+01 0. -1.
         -5    1    3    3    0  502 -0.34790284316E+02 -0.15768335961E+02 -0.24450026508E+02  0.45544269651E+02  0.41800000000E+01 0. -1.
        -11    1    4    4    0    0  0.22588853801E+02  0.54770668785E+02  0.21730966628E+02  0.63105605027E+02  0.00000000000E+00 0.  1.
         11    1    4    4    0    0 -0.17869869537E+02  0.82594734964E+02 -0.66962918381E+02  0.10782047542E+03  0.00000000000E+00 0. -1.
</event>
<event>
 8    1  0.4798744E-006  0.1575376E+03  0.7561462E-02  0.1191505E+00
          2   -1    0    0  501    0  0.00000000000E+00  0.00000000000E+00  0.84958362060E+02  0.84958362060E+02  0.00000000000E+00 0. -1.
         -2   -1    0    0    0  501 -0.00000000000E+00 -0.00000000000E+00 -0.42814323485E+03  0.42814323485E+03  0.00000000000E+00 0.  1.
         23    2    1    2    0    0 -0.19501208083E+02 -0.13688116665E+03 -0.27961142252E+03  0.33607572090E+03  0.12509033405E+03 0.  0.
         23    2    1    2    0    0  0.19501208083E+02  0.13688116665E+03 -0.63573450274E+02  0.17702587601E+03  0.90442392148E+02 0.  0.
          5    1    3    3  502    0 -0.28246282888E+02  0.51908382963E+01 -0.91739608730E+01  0.30437333282E+02  0.41800000000E+01 0. -1.
         -5    1    3    3    0  502  0.87450748044E+01 -0.14207200495E+03 -0.27043746164E+03  0.30563838762E+03  0.41800000000E+01 0. -1.
        -11    1    4    4    0    0 -0.83683206717E+01  0.78654051266E+02 -0.77774079380E+02  0.11092923868E+03  0.00000000000E+00 0.  1.
         11    1    4    4    0    0  0.27869528755E+02  0.58227115387E+02  0.14200629106E+02  0.66096637330E+02  0.00000000000E+00 0. -1.
</event>
<event>
 7    1  0.4798744E-006  0.1246501E+03  0.7561462E-02  0.1235617E+00
         -1   -1    0    0    0  501 -0.00000000000E+00  0.00000000000E+00  0.73541399801E+02  0.73541399801E+02  0.00000000000E+00 0.  1.
          1   -1    0    0  501    0  0.00000000000E+00 -0.00000000000E+00 -0.27547538425E+03  0.27547538425E+03  0.00000000000E+00 0. -1.
         23    2    1    2    0    0  0.49840765285E+02 -0.34786301024E+02 -0.14557470413E+03  0.18133085033E+03  0.89413053722E+02 0.  0.
          5    1    1    2  502    0  0.24195809739E+02 -0.39413975751E+02 -0.40449757017E+02  0.61583714862E+02  0.41800000000E+01 0. -1.
         -5    1    1    2    0  502 -0.74036575024E+02  0.74200276776E+02 -0.15909523299E+02  0.10610221886E+03  0.41800000000E+01 0.  1.
        -11    1    3    3    0    0 -0.18025089237E+02 -0.22767486492E+02 -0.12802708109E+02  0.31735967262E+02  0.00000000000E+00 0.  1.
         11    1    3    3    0    0  0.67865854522E+02 -0.12018814533E+02 -0.13277199603E+03  0.14959488307E+03  0.00000000000E+00 0. -1.
</event>
<event>
 8    1  0.4798744E-006  0.7612144E+02  0.7561462E-02  0.1340433E+00
          3   -1    0    0  501    0  0.00000000000E+00  0.00000000000E+00  0.88470705386E+02  0.88470705386E+02  0.00000000000E+00 0. -1.
         -3   -1    0    0    0  501 -0.00000000000E+00 -0.00000000000E+00 -0.15502682659E+03  0.15502682659E+03  0.00000000000E+00 0.  1.
         23    2    1    2    0    0 -0.33989786516E+01  0.79154946791E+00 -0.86889715393E+02  0.15232893334E+03  0.12506838804E+03 0.  0.
         23    2    1    2    0    0  0.33989786516E+01 -0.79154946791E+00  0.20333594183E+02  0.91168598638E+02  0.88803596317E+02 0.  0.
          5    1    3    3  502    0  0.39768348572E+02 -0.10564034603E+02 -0.97802910102E+02  0.10618852103E+03  0.41800000000E+01 0. -1.
         -5    1    3    3    0  502 -0.43167327223E+02  0.11355584071E+02  0.10913194709E+02  0.46140412308E+02  0.41800000000E+01 0. -1.
        -11    1    4    4    0    0  0.34722905184E+02 -0.25791596395E+00  0.40930820522E+02  0.53675681027E+02  0.00000000000E+00 0. -1.
         11    1    4    4    0    0 -0.31323926533E+02 -0.53363350397E+00 -0.20597226339E+02  0.37492917611E+02  0.00000000000E+00 0.  1.
</event>
<event>
 8    1  0.4993516E-006  0.2386702E+03  0.7561462E-02  0.1120682E+00
          1   -1    0    0  501    0  0.00000000000E+00  0.00000000000E+00  0.84338652191E+03  0.84338652191E+03  0.00000000000E+00 0. -1.
         -1   -1    0    0    0  501 -0.00000000000E+00 -0.00000000000E+00 -0.90815360197E+02  0.90815360197E+02  0.00000000000E+00 0.  1.
         23    2    1    2    0    0  0.12323781615E+03 -0.20099423552E+03  0.22388630609E+03  0.34836561082E+03  0.12508908307E+03 0.  0.
         23    2    1    2    0    0 -0.12323781615E+03  0.20099423552E+03  0.52868485562E+03  0.58583627129E+03  0.90056749605E+02 0.  0.
          5    1    3    3  502    0  0.56470457529E+02 -0.82786757761E+02  0.18288048840E+02  0.10195334700E+03  0.41800000000E+01 0.  1.
         -5    1    3    3    0  502  0.66767358622E+02 -0.11820747776E+03  0.20559825725E+03  0.24641226382E+03  0.41800000000E+01 0.  1.
        -11    1    4    4    0    0 -0.67446496477E+02  0.62686419549E+02  0.12329383500E+03  0.15388302970E+03  0.00000000000E+00 0.  1.
         11    1    4    4    0    0 -0.55791319673E+02  0.13830781597E+03  0.40539102063E+03  0.43195324158E+03  0.00000000000E+00 0. -1.
</event>
<event>
 8    1  0.4798744E-006  0.1145280E+03  0.7561462E-02  0.1252407E+00
         -1   -1    0    0    0  501 -0.00000000000E+00  0.00000000000E+00  0.73201538592E+02  0.73201538592E+02  0.00000000000E+00 0.  1.
          1   -1    0    0  501    0  0.00000000000E+00 -0.00000000000E+00 -0.35349798488E+03  0.35349798488E+03  0.00000000000E+00 0. -1.
         23    2    1    2    0    0 -0.61659930258E+02  0.60050373373E+02 -0.42629462668E+02  0.15771125105E+03  0.12509026053E+03 0.  0.
         23    2    1    2    0    0  0.61659930258E+02 -0.60050373373E+02 -0.23766698362E+03  0.26898827242E+03  0.91984244600E+02 0.  0.
          5    1    3    3  502    0 -0.54983482812E+02 -0.22867008298E+02  0.80162689095E+01  0.60231357430E+02  0.41800000000E+01 0.  1.
         -5    1    3    3    0  502 -0.66764474463E+01  0.82917381671E+02 -0.50645731578E+02  0.97479893623E+02  0.41800000000E+01 0.  1.
        -11    1    4    4    0    0  0.37198839678E+02 -0.36197134197E+02 -0.22749390443E+03  0.23333980104E+03  0.00000000000E+00 0. -1.
         11    1    4    4    0    0  0.24461090580E+02 -0.23853239175E+02 -0.10173079193E+02  0.35648471381E+02  0.00000000000E+00 0.  1.
</event>
<event>
 8    1  0.4798744E-006  0.9592615E+02  0.7561462E-02  0.1289104E+00
          2   -1    0    0  501    0  0.00000000000E+00  0.00000000000E+00  0.82279507187E+03  0.82279507187E+03  0.00000000000E+00 0. -1.
         -2   -1    0    0    0  501 -0.00000000000E+00 -0.00000000000E+00 -0.15091846036E+02  0.15091846036E+02  0.00000000000E+00 0.  1.
         23    2    1    2    0    0 -0.30613860991E+02  0.34254308464E+02  0.45933254906E+03  0.47518255750E+03  0.11270095915E+03 0.  0.
         23    2    1    2    0    0  0.30613860991E+02 -0.34254308464E+02  0.34837067678E+03  0.36270436041E+03  0.89898601151E+02 0.  0.
          5    1    3    3  502    0 -0.90553376092E+01  0.59435859612E+02  0.41660895597E+03  0.42094550139E+03  0.41800000000E+01 0. -1.
         -5    1    3    3    0  502 -0.21558523382E+02 -0.25181551148E+02  0.42723593086E+02  0.54237056104E+02  0.41800000000E+01 0.  1.
        -11    1    4    4    0    0  0.60906475850E+02 -0.28885124155E+02  0.27507252919E+03  0.28321166204E+03  0.00000000000E+00 0.  1.
         11    1    4    4    0    0 -0.30292614859E+02 -0.53691843090E+01  0.73298147589E+02  0.79492698376E+02  0.00000000000E+00 0. -1.
</event>
<event>
 8    1  0.4798744E-006  0.1223334E+03  0.7561462E-02  0.1239297E+00
         -4   -1    0    0    0  501 -0.00000000000E+00  0.00000000000E+00  0.75436483096E+03  0.75436483096E+03  0.00000000000E+00 0.  1.
          4   -1    0    0  501    0  0.00000000000E+00 -0.00000000000E+00 -0.31064133568E+02  0.31064133568E+02  0.00000000000E+00 0. -1.
         23    2    1    2    0    0 -0.65426992998E+02 -0.20613523202E+02  0.59748443955E+03  0.61428064391E+03  0.12508974870E+03 0.  0.
         23    2    1    2    0    0  0.65426992998E+02  0.20613523202E+02  0.12581625784E+03  0.17114832062E+03  0.93575681459E+02 0.  0.
          5    1    3    3  502    0 -0.97170956763E+02 -0.21984119280E+02  0.53328070771E+03  0.54252307043E+03  0.41800000000E+01 0. -1.
         -5    1    3    3    0  502  0.31743963765E+02  0.13705960780E+01  0.64203731839E+02  0.71757573476E+02  0.41800000000E+01 0. -1.
        -11    1    4    4    0    0  0.87414028300E+02  0.85633509347E+01  0.79439578817E+02  0.11842799502E+03  0.00000000000E+00 0.  1.
         11    1    4    4    0    0 -0.21987035302E+02  0.12050172267E+02  0.46376679027E+02  0.52720325593E+02  0.00000000000E+00 0. -1.
</event>
<event>
 8    1  0.4798744E-006  0.9932326E+02  0.7561462E-02  0.1281726E+00
         -1   -1    0    0    0  501 -0.00000000000E+00  0.00000000000E+00  0.15020487608E+03  0.15020487608E+03  0.00000000000E+00 0.  1.
          1   -1    0    0  501    0  0.00000000000E+00 -0.00000000000E+00 -0.10561170270E+03  0.10561170270E+03  0.00000000000E+00 0. -1.
         23    2    1    2    0    0  0.41594877548E+02 -0.25719869068E+01  0.80635571179E+02  0.15455052741E+03  0.12508805390E+03 0.  0.
         23    2    1    2    0    0 -0.41594877548E+02  0.25719869068E+01 -0.36042397792E+02  0.10126605137E+03  0.84964756026E+02 0.  0.
          5    1    3    3  502    0 -0.11009139167E+02  0.49989163372E+02  0.10862560887E+02  0.52493668464E+02  0.41800000000E+01 0. -1.
         -5    1    3    3    0  502  0.52604016714E+02 -0.52561150279E+02  0.69773010292E+02  0.10205685895E+03  0.41800000000E+01 0. -1.
        -11    1    4    4    0    0 -0.43289483102E+02 -0.21737156072E+02 -0.52829010115E+02  0.71675571927E+02  0.00000000000E+00 0. -1.
         11    1    4    4    0    0  0.16946055539E+01  0.24309142979E+02  0.16786612323E+02  0.29590479443E+02  0.00000000000E+00 0.  1.
</event>
<event>
 8    1  0.4798744E-006  0.1627749E+03  0.7561462E-02  0.1185599E+00
         -1   -1    0    0    0  501 -0.00000000000E+00  0.00000000000E+00  0.13207641186E+03  0.13207641186E+03  0.00000000000E+00 0.  1.
          1   -1    0    0  501    0  0.00000000000E+00 -0.00000000000E+00 -0.26157104412E+03  0.26157104412E+03  0.00000000000E+00 0. -1.
         23    2    1    2    0    0  0.97940918903E+02 -0.11401024047E+03 -0.60516870347E+02  0.20470124173E+03  0.12509815443E+03 0.  0.
         23    2    1    2    0    0 -0.97940918903E+02  0.11401024047E+03 -0.68977761910E+02  0.18894621425E+03  0.91389177236E+02 0.  0.
          5    1    3    3  502    0  0.47892424182E+02 -0.68642593662E+02 -0.96696800012E+02  0.12795793641E+03  0.41800000000E+01 0.  1.
         -5    1    3    3    0  502  0.50048494720E+02 -0.45367646806E+02  0.36179929665E+02  0.76743305318E+02  0.41800000000E+01 0.  1.
        -11    1    4    4    0    0 -0.10676144016E+03  0.66574214929E+02 -0.37311298523E+02  0.13123362449E+03  0.00000000000E+00 0. -1.
         11    1    4    4    0    0  0.88205212578E+01  0.47436025539E+02 -0.31666463387E+02  0.57712589767E+02  0.00000000000E+00 0.  1.
</event>
<event>
 8    1  0.4798744E-006  0.1143996E+03  0.7561462E-02  0.1252633E+00
         -1   -1    0    0    0  501 -0.00000000000E+00  0.00000000000E+00  0.89865472335E+02  0.89865472335E+02  0.00000000000E+00 0.  1.
          1   -1    0    0  501    0  0.00000000000E+00 -0.00000000000E+00 -0.23663219509E+03  0.23663219509E+03  0.00000000000E+00 0. -1.
         23    2    1    2    0    0 -0.15718911224E+02 -0.83462608228E+02 -0.26313372266E+02  0.15346600944E+03  0.12508529630E+03 0.  0.
         23    2    1    2    0    0  0.15718911224E+02  0.83462608228E+02 -0.12045335049E+03  0.17303165799E+03  0.90652379333E+02 0.  0.
          5    1    3    3  502    0 -0.47548894048E+02  0.36128435421E+01  0.17332491201E+02  0.50910093447E+02  0.41800000000E+01 0. -1.
         -5    1    3    3    0  502  0.31829982824E+02 -0.87075451770E+02 -0.43645863467E+02  0.10255591599E+03  0.41800000000E+01 0. -1.
        -11    1    4    4    0    0  0.20850241059E+01  0.65703195044E+02 -0.13227802475E+03  0.14771165491E+03  0.00000000000E+00 0. -1.
         11    1    4    4    0    0  0.13633887118E+02  0.17759413184E+02  0.11824674257E+02  0.25320003078E+02  0.00000000000E+00 0.  1.
</event>
<event>
 7    1  0.4798744E-006  0.6923761E+02  0.7561462E-02  0.1362705E+00
         -2   -1    0    0    0  501 -0.00000000000E+00  0.00000000000E+00  0.25336801421E+02  0.25336801421E+02  0.00000000000E+00 0.  1.
          2   -1    0    0  501    0  0.00000000000E+00 -0.00000000000E+00 -0.27127798228E+03  0.27127798228E+03  0.00000000000E+00 0. -1.
         23    2    1    2    0    0  0.22017852658E+02 -0.23354338801E+02 -0.18312722021E+03  0.22408475007E+03  0.12509270745E+03 0.  0.
          5    1    3    3  502    0  0.51523840687E+02  0.14922890483E+02 -0.16284877018E+03  0.17150683126E+03  0.41800000000E+01 0.  1.
         -5    1    3    3    0  502 -0.29505988029E+02 -0.38277229284E+02 -0.20278450031E+02  0.52577918815E+02  0.41800000000E+01 0.  1.
        -11    1    1    2    0    0 -0.73793297794E+01  0.19752701139E+02 -0.33919098994E+02  0.39939065923E+02  0.00000000000E+00 0. -1.
         11    1    1    2    0    0 -0.14638522879E+02  0.36016376621E+01 -0.28894861657E+02  0.32590967708E+02  0.00000000000E+00 0.  1.
</event>
<event>
 8    1  0.4798744E-006  0.9537240E+02  0.7561462E-02  0.1290340E+00
          1   -1    0    0  501    0  0.00000000000E+00  0.00000000000E+00  0.27399972193E+03  0.27399972193E+03  0.00000000000E+00 0. -1.
         -1   -1    0    0    0  501 -0.00000000000E+00 -0.00000000000E+00 -0.52993973176E+02  0.52993973176E+02  0.00000000000E+00 0.  1.
         23    2    1    2    0    0  0.44930480455E+01 -0.22365271009E+02  0.12015687763E+03  0.17494112297E+03  0.12508528465E+03 0.  0.
         23    2    1    2    0    0 -0.44930480455E+01  0.22365271009E+02  0.10084887112E+03  0.15205257213E+03  0.11148586035E+03 0.  0.
          5    1    3    3  502    0  0.14800205635E+02 -0.48561993174E+02 -0.53218287188E+00  0.50941818641E+02  0.41800000000E+01 0. -1.
         -5    1    3    3    0  502 -0.10307157589E+02  0.26196722165E+02  0.12068906050E+03  0.12399930433E+03  0.41800000000E+01 0. -1.
        -11    1    4    4    0    0 -0.46713525842E+02  0.43764647322E+02  0.42133389633E+02  0.76633676499E+02  0.00000000000E+00 0.  1.
         11    1    4    4    0    0  0.42220477797E+02 -0.21399376313E+02  0.58715481486E+02  0.75418895630E+02  0.00000000000E+00 0. -1.
</event>
<event>
 8    1  0.4798744E-006  0.9625218E+02  0.7561462E-02  0.1288381E+00
         -1   -1    0    0    0  501 -0.00000000000E+00  0.00000000000E+00  0.52425371988E+02  0.52425371988E+02  0.00000000000E+00 0.  1.
          1   -1    0    0  501    0  0.00000000000E+00 -0.00000000000E+00 -0.27370645224E+03  0.27370645224E+03  0.00000000000E+00 0. -1.
         23    2    1    2    0    0 -0.42081659506E+02 -0.11408389002E+02 -0.12667934400E+03  0.18329170923E+03  0.12508867682E+03 0.  0.
         23    2    1    2    0    0  0.42081659506E+02  0.11408389002E+02 -0.94601736253E+02  0.14284011500E+03  0.97738388289E+02 0.  0.
          5    1    3    3  502    0 -0.42203078952E+02  0.41240613372E+02 -0.11481869388E+03  0.12916149941E+03  0.41800000000E+01 0.  1.
         -5    1    3    3    0  502  0.12141944655E+00 -0.52649002375E+02 -0.11860650116E+02  0.54130209818E+02  0.41800000000E+01 0.  1.
        -11    1    4    4    0    0  0.41097754168E+02  0.36774610552E+02 -0.12018405023E+02  0.56443240855E+02  0.00000000000E+00 0.  1.
         11    1    4    4    0    0  0.98390533821E+00 -0.25366221550E+02 -0.82583331230E+02  0.86396874147E+02  0.00000000000E+00 0. -1.
</event>
<event>
 8    1  0.4798744E-006  0.1095353E+03  0.7561462E-02  0.1261433E+00
         -1   -1    0    0    0  501 -0.00000000000E+00  0.00000000000E+00  0.15063188871E+03  0.15063188871E+03  0.00000000000E+00 0.  1.
          1   -1    0    0  501    0  0.00000000000E+00 -0.00000000000E+00 -0.10591990726E+03  0.10591990726E+03  0.00000000000E+00 0. -1.
         23    2    1    2    0    0 -0.35139855887E+02 -0.52587989137E+02  0.30098049468E+02  0.14336316027E+03  0.12508715788E+03 0.  0.
         23    2    1    2    0    0  0.35139855887E+02  0.52587989137E+02  0.14613931982E+02  0.11318863569E+03  0.92724291148E+02 0.  0.
          5    1    3    3  502    0  0.42095199302E+02 -0.24120109383E+02 -0.12935665736E+02  0.50384415537E+02  0.41800000000E+01 0. -1.
         -5    1    3    3    0  502 -0.77235055189E+02 -0.28467879754E+02  0.43033715204E+02  0.92978744732E+02  0.41800000000E+01 0. -1.
        -11    1    4    4    0    0  0.52026274269E+02  0.31055507811E+02 -0.24580965510E+02  0.65386555538E+02  0.00000000000E+00 0. -1.
         11    1    4    4    0    0 -0.16886418382E+02  0.21532481326E+02  0.39194897491E+02  0.47802080156E+02  0.00000000000E+00 0.  1.
</event>
<event>
 8    1  0.4798744E-006  0.9537270E+02  0.7561462E-02  0.1290339E+00
         -1   -1    0    0    0  501 -0.00000000000E+00  0.00000000000E+00  0.26228382495E+02  0.26228382495E+02  0.00000000000E+00 0.  1.
          1   -1    0    0  501    0  0.00000000000E+00 -0.00000000000E+00 -0.55611236899E+03  0.55611236899E+03  0.00000000000E+00 0. -1.
         23    2    1    2    0    0  0.34150911540E+02 -0.44782862702E+02 -0.27370586762E+03  0.30616001739E+03  0.12508902720E+03 0.  0.
         23    2    1    2    0    0 -0.34150911540E+02  0.44782862702E+02 -0.25617811887E+03  0.27618073409E+03  0.86468374256E+02 0.  0.
          5    1    3    3  502    0  0.21067266244E+02 -0.66211079248E+02 -0.62880688307E+02  0.93803998232E+02  0.41800000000E+01 0. -1.
         -5    1    3    3    0  502  0.13083645296E+02  0.21428216546E+02 -0.21082517932E+03  0.21235601916E+03  0.41800000000E+01 0. -1.
        -11    1    4    4    0    0  0.24875572889E+02  0.18863148072E+02 -0.13876848915E+03  0.14223679574E+03  0.00000000000E+00 0. -1.
         11    1    4    4    0    0 -0.59026484429E+02  0.25919714629E+02 -0.11740962971E+03  0.13394393835E+03  0.00000000000E+00 0.  1.
</event>
<event>
 8    1  0.4798744E-006  0.9770152E+02  0.7561462E-02  0.1285205E+00
         -1   -1    0    0    0  501 -0.00000000000E+00  0.00000000000E+00  0.23505545211E+03  0.23505545211E+03  0.00000000000E+00 0.  1.
          1   -1    0    0  501    0  0.00000000000E+00 -0.00000000000E+00 -0.58312334535E+02  0.58312334535E+02  0.00000000000E+00 0. -1.
         23    2    1    2    0    0 -0.38016568928E+02  0.50439764732E+01  0.13265714699E+03  0.18632951792E+03  0.12510023736E+03 0.  0.
         23    2    1    2    0    0  0.38016568928E+02 -0.50439764732E+01  0.44085970580E+02  0.10703826873E+03  0.89682311289E+02 0.  0.
          5    1    3    3  502    0 -0.47716042881E+02  0.47335436942E+02  0.12512138906E+03  0.14209257102E+03  0.41800000000E+01 0. -1.
         -5    1    3    3    0  502  0.96994739526E+01 -0.42291460469E+02  0.75357579378E+01  0.44236946903E+02  0.41800000000E+01 0. -1.
        -11    1    4    4    0    0  0.24895263654E+02 -0.40010482220E+02 -0.26679757736E+01  0.47198844632E+02  0.00000000000E+00 0. -1.
         11    1    4    4    0    0  0.13121305274E+02  0.34966505747E+02  0.46753946354E+02  0.59839424094E+02  0.00000000000E+00 0.  1.
</event>
<event>
 8    1  0.4798744E-006  0.3419999E+03  0.7561462E-02  0.1065947E+00
         -2   -1    0    0    0  501 -0.00000000000E+00  0.00000000000E+00  0.10318768892E+03  0.10318768892E+03  0.00000000000E+00 0.  1.
          2   -1    0    0  501    0  0.00000000000E+00 -0.00000000000E+00 -0.17597277251E+04  0.17597277251E+04  0.00000000000E+00 0. -1.
         23    2    1    2    0    0 -0.26452289501E+03 -0.21366117958E+03 -0.32884805389E+03  0.48929692526E+03  0.12508787664E+03 0.  0.
         23    2    1    2    0    0  0.26452289501E+03  0.21366117958E+03 -0.13276919822E+04  0.13736184887E+04  0.91860171781E+02 0.  0.
          5    1    3    3  502    0 -0.61118628968E+02 -0.57525348006E+02 -0.17344613550E+02  0.85807694815E+02  0.41800000000E+01 0.  1.
         -5    1    3    3    0  502 -0.20340426604E+03 -0.15613583157E+03 -0.31150344034E+03  0.40348923045E+03  0.41800000000E+01 0.  1.
        -11    1    4    4    0    0  0.22090339104E+03  0.15267793329E+03 -0.89275467372E+03  0.93226593145E+03  0.00000000000E+00 0.  1.
         11    1    4    4    0    0  0.43619503969E+02  0.60983246288E+02 -0.43493730852E+03  0.44135255726E+03  0.00000000000E+00 0. -1.
</event>
<event>
 8    1  0.4798744E-006  0.1145222E+03  0.7561462E-02  0.1252417E+00
          1   -1    0    0  501    0  0.00000000000E+00  0.00000000000E+00  0.34409079296E+02  0.34409079296E+02  0.00000000000E+00 0. -1.
         -1   -1    0    0    0  501 -0.00000000000E+00 -0.00000000000E+00 -0.74948146439E+03  0.74948146439E+03  0.00000000000E+00 0.  1.
         23    2    1    2    0    0 -0.89806663040E+02  0.48551792352E+02 -0.52586779150E+03  0.55009756899E+03  0.12509151850E+03 0.  0.
         23    2    1    2    0    0  0.89806663040E+02 -0.48551792352E+02 -0.18920459360E+03  0.23379297470E+03  0.91860021313E+02 0.  0.
          5    1    3    3  502    0 -0.39068262723E+02 -0.97842142889E+00 -0.30729248645E+02  0.49890335567E+02  0.41800000000E+01 0. -1.
         -5    1    3    3    0  502 -0.50738400317E+02  0.49530213781E+02 -0.49513854286E+03  0.50020723342E+03  0.41800000000E+01 0. -1.
        -11    1    4    4    0    0  0.91599109819E+02 -0.24805765797E+02 -0.86639070103E+02  0.12849922725E+03  0.00000000000E+00 0. -1.
         11    1    4    4    0    0 -0.17924467788E+01 -0.23746026555E+02 -0.10256552349E+03  0.10529374745E+03  0.00000000000E+00 0.  1.
</event>
<event>
 7    1  0.4798744E-006  0.1077617E+03  0.7561462E-02  0.1264772E+00
         -2   -1    0    0    0  501 -0.00000000000E+00  0.00000000000E+00  0.10991934795E+03  0.10991934795E+03  0.00000000000E+00 0.  1.
          2   -1    0    0  501    0  0.00000000000E+00 -0.00000000000E+00 -0.29481322310E+03  0.29481322310E+03  0.00000000000E+00 0. -1.
         23    2    1    2    0    0  0.58710685338E+01 -0.32743731067E+02 -0.13634693351E+03  0.16795262959E+03  0.92254962685E+02 0.  0.
          5    1    1    2  502    0  0.29155346864E+02 -0.41604013078E+02 -0.11835636523E+03  0.12886671310E+03  0.41800000000E+01 0. -1.
         -5    1    1    2    0  502 -0.35026415398E+02  0.74347744146E+02  0.69809423579E+02  0.10791322836E+03  0.41800000000E+01 0.  1.
        -11    1    3    3    0    0  0.17611918518E+02 -0.54641976230E+02 -0.13029028540E+03  0.14237796076E+03  0.00000000000E+00 0. -1.
         11    1    3    3    0    0 -0.11740849984E+02  0.21898245162E+02 -0.60566481038E+01  0.25574668830E+02  0.00000000000E+00 0.  1.
</event>
<event>
 7    1  0.4798744E-006  0.1289123E+03  0.7561462E-02  0.1229079E+00
         -1   -1    0    0    0  501 -0.00000000000E+00  0.00000000000E+00  0.35629697036E+02  0.35629697036E+02  0.00000000000E+00 0.  1.
          1   -1    0    0  501    0  0.00000000000E+00 -0.00000000000E+00 -0.73549879922E+03  0.73549879922E+03  0.00000000000E+00 0. -1.
         23    2    1    2    0    0 -0.61888885157E+01 -0.68570931312E+02 -0.44835433080E+03  0.46271081619E+03  0.91320416693E+02 0.  0.
          5    1    1    2  502    0 -0.35261585767E+02 -0.24407927469E+02 -0.17705771167E+03  0.18222522333E+03  0.41800000000E+01 0. -1.
         -5    1    1    2    0  502  0.41450474283E+02  0.92978858780E+02 -0.74457059713E+02  0.12619245675E+03  0.41800000000E+01 0.  1.
        -11    1    3    3    0    0  0.24187017660E+02  0.11813884925E+02 -0.77873375455E+02  0.82394431274E+02  0.00000000000E+00 0.  1.
         11    1    3    3    0    0 -0.30375906176E+02 -0.80384816237E+02 -0.37048095535E+03  0.38031638491E+03  0.00000000000E+00 0. -1.
</event>
<event>
 8    1  0.4798744E-006  0.8343788E+02  0.7561462E-02  0.1319569E+00
         -2   -1    0    0    0  501 -0.00000000000E+00  0.00000000000E+00  0.24561653894E+02  0.24561653894E+02  0.00000000000E+00 0.  1.
          2   -1    0    0  501    0  0.00000000000E+00 -0.00000000000E+00 -0.74231510698E+03  0.74231510698E+03  0.00000000000E+00 0. -1.
         23    2    1    2    0    0 -0.28394112923E+02 -0.50461532004E+02 -0.24260083524E+03  0.27903195842E+03  0.12510426332E+03 0.  0.
         23    2    1    2    0    0  0.28394112923E+02  0.50461532004E+02 -0.47515261785E+03  0.48784480245E+03  0.94180407578E+02 0.  0.
          5    1    3    3  502    0 -0.22419644474E+01 -0.99181570938E+01  0.14056849690E+02  0.17845550368E+02  0.41800000000E+01 0.  1.
         -5    1    3    3    0  502 -0.26152148475E+02 -0.40543374910E+02 -0.25665768493E+03  0.26118640805E+03  0.41800000000E+01 0.  1.
        -11    1    4    4    0    0 -0.17871273589E+02  0.57899909468E+02 -0.20934465114E+03  0.21793798407E+03  0.00000000000E+00 0. -1.
         11    1    4    4    0    0  0.46265386512E+02 -0.74383774642E+01 -0.26580796670E+03  0.26990681838E+03  0.00000000000E+00 0.  1.
</event>
<event>
 8    1  0.4798744E-006  0.2058895E+03  0.7561462E-02  0.1144863E+00
         -2   -1    0    0    0  501 -0.00000000000E+00  0.00000000000E+00  0.95434645468E+02  0.95434645468E+02  0.00000000000E+00 0.  1.
          2   -1    0    0  501    0  0.00000000000E+00 -0.00000000000E+00 -0.53126524143E+03  0.53126524143E+03  0.00000000000E+00 0. -1.
         23    2    1    2    0    0  0.68625798976E+02 -0.17064216623E+03 -0.12829750914E+03  0.25678020135E+03  0.12509025450E+03 0.  0.
         23    2    1    2    0    0 -0.68625798976E+02  0.17064216623E+03 -0.30753308682E+03  0.36991968555E+03  0.91846203451E+02 0.  0.
          5    1    3    3  502    0  0.84058324978E+02 -0.64479570818E+02 -0.10002588779E+03  0.14576030900E+03  0.41800000000E+01 0.  1.
         -5    1    3    3    0  502 -0.15432526003E+02 -0.10616259541E+03 -0.28271621350E+02  0.11101989235E+03  0.41800000000E+01 0.  1.
        -11    1    4    4    0    0  0.11790306937E+02  0.62662073493E+02 -0.14811227258E+03  0.16125381261E+03  0.00000000000E+00 0. -1.
         11    1    4    4    0    0 -0.80416105913E+02  0.10798009274E+03 -0.15942081424E+03  0.20866587294E+03  0.00000000000E+00 0.  1.
</event>
<event>
 8    1  0.5140691E-006  0.1196869E+03  0.7561462E-02  0.1243614E+00
         -2   -1    0    0    0  501 -0.00000000000E+00  0.00000000000E+00  0.33115878637E+02  0.33115878637E+02  0.00000000000E+00 0.  1.
          2   -1    0    0  501    0  0.00000000000E+00 -0.00000000000E+00 -0.46018099277E+03  0.46018099277E+03  0.00000000000E+00 0. -1.
         23    2    1    2    0    0 -0.24038237377E+02 -0.54964403565E+02 -0.24611613001E+03  0.28252318102E+03  0.12508907167E+03 0.  0.
         23    2    1    2    0    0  0.24038237377E+02  0.54964403565E+02 -0.18094898412E+03  0.21077369038E+03  0.89911574261E+02 0.  0.
          5    1    3    3  502    0 -0.17968036976E+02  0.39465923456E+02 -0.67281070287E+02  0.80153754036E+02  0.41800000000E+01 0.  1.
         -5    1    3    3    0  502 -0.60702004014E+01 -0.94430327021E+02 -0.17883505972E+03  0.20236942699E+03  0.41800000000E+01 0.  1.
        -11    1    4    4    0    0 -0.17540599206E+02  0.56825593266E+02 -0.14123659725E+03  0.15324685012E+03  0.00000000000E+00 0.  1.
         11    1    4    4    0    0  0.41578836583E+02 -0.18611897011E+01 -0.39712386876E+02  0.57526840258E+02  0.00000000000E+00 0. -1.
</event>
<event>
 8    1  0.4798744E-006  0.1224534E+03  0.7561462E-02  0.1239104E+00
          1   -1    0    0  501    0  0.00000000000E+00  0.00000000000E+00  0.11213593904E+03  0.11213593904E+03  0.00000000000E+00 0.  1.
         -1   -1    0    0    0  501 -0.00000000000E+00 -0.00000000000E+00 -0.15577229955E+03  0.15577229955E+03  0.00000000000E+00 0. -1.
         23    2    1    2    0    0  0.51508233117E+02 -0.42302376949E+02 -0.57548507037E+02  0.15297807331E+03  0.12509145086E+03 0.  0.
         23    2    1    2    0    0 -0.51508233117E+02  0.42302376949E+02  0.13912146524E+02  0.11493016528E+03  0.92589448084E+02 0.  0.
          5    1    3    3  502    0  0.76893079824E+02  0.99887094495E+01 -0.11071059727E+02  0.78436986204E+02  0.41800000000E+01 0.  1.
         -5    1    3    3    0  502 -0.25384846707E+02 -0.52291086398E+02 -0.46477447311E+02  0.74541087110E+02  0.41800000000E+01 0.  1.
        -11    1    4    4    0    0  0.13353812301E+02  0.42045759832E+02  0.22465210828E+02  0.49506120030E+02  0.00000000000E+00 0.  1.
         11    1    4    4    0    0 -0.64862045418E+02  0.25661711632E+00 -0.85530643041E+01  0.65424045252E+02  0.00000000000E+00 0. -1.
</event>
<event>
 8    1  0.4798744E-006  0.1355584E+03  0.7561462E-02  0.1219434E+00
          1   -1    0    0  501    0  0.00000000000E+00  0.00000000000E+00  0.20576271497E+03  0.20576271497E+03  0.00000000000E+00 0. -1.
         -1   -1    0    0    0  501 -0.00000000000E+00 -0.00000000000E+00 -0.96689601678E+02  0.96689601678E+02  0.00000000000E+00 0.  1.
         23    2    1    2    0    0  0.36948018003E+02  0.75427300167E+02  0.91243034451E+02  0.17614391804E+03  0.12508778870E+03 0.  0.
         23    2    1    2    0    0 -0.36948018003E+02 -0.75427300167E+02  0.17830078842E+02  0.12630839861E+03  0.92636203520E+02 0.  0.
          5    1    3    3  502    0 -0.38875792101E+02  0.59656538927E+02  0.30261797396E+02  0.77482118130E+02  0.41800000000E+01 0.  1.
         -5    1    3    3    0  502  0.75823810104E+02  0.15770761240E+02  0.60981237055E+02  0.98661799910E+02  0.41800000000E+01 0.  1.
        -11    1    4    4    0    0 -0.66520873864E+02 -0.54590094194E+02  0.24608205817E+02  0.89502339843E+02  0.00000000000E+00 0. -1.
         11    1    4    4    0    0  0.29572855861E+02 -0.20837205973E+02 -0.67781269746E+01  0.36806058766E+02  0.00000000000E+00 0.  1.
</event>
<event>
 8    1  0.4798744E-006  0.1029125E+03  0.7561462E-02  0.1274288E+00
          1   -1    0    0  501    0  0.00000000000E+00  0.00000000000E+00  0.39961376525E+02  0.39961376525E+02  0.00000000000E+00 0. -1.
         -1   -1    0    0    0  501 -0.00000000000E+00 -0.00000000000E+00 -0.45559403615E+03  0.45559403615E+03  0.00000000000E+00 0.  1.
         23    2    1    2    0    0 -0.61980720405E+02 -0.40142542130E+02 -0.28952511835E+03  0.32391948270E+03  0.12508398670E+03 0.  0.
         23    2    1    2    0    0  0.61980720405E+02  0.40142542130E+02 -0.12610754128E+03  0.17163592998E+03  0.90015260376E+02 0.  0.
          5    1    3    3  502    0  0.62761018543E+01 -0.37125097581E+02 -0.23032486217E+03  0.23341952973E+03  0.41800000000E+01 0.  1.
         -5    1    3    3    0  502 -0.68256822259E+02 -0.30174445487E+01 -0.59200256176E+02  0.90499952972E+02  0.41800000000E+01 0.  1.
        -11    1    4    4    0    0  0.75883370350E+01  0.44294673098E+02 -0.10303019941E+03  0.11240472816E+03  0.00000000000E+00 0.  1.
         11    1    4    4    0    0  0.54392383370E+02 -0.41521309681E+01 -0.23077341874E+02  0.59231201813E+02  0.00000000000E+00 0. -1.
</event>
<event>
 8    1  0.4798744E-006  0.8978760E+02  0.7561462E-02  0.1303367E+00
         -2   -1    0    0    0  501 -0.00000000000E+00  0.00000000000E+00  0.32392121242E+02  0.32392121242E+02  0.00000000000E+00 0.  1.
          2   -1    0    0  501    0  0.00000000000E+00 -0.00000000000E+00 -0.51770734234E+03  0.51770734234E+03  0.00000000000E+00 0. -1.
         23    2    1    2    0    0 -0.67932929241E+02  0.11673883753E+02 -0.22397041070E+03  0.26563370651E+03  0.12508940295E+03 0.  0.
         23    2    1    2    0    0  0.67932929241E+02 -0.11673883753E+02 -0.26134481040E+03  0.28446575707E+03  0.88704535311E+02 0.  0.
          5    1    3    3  502    0 -0.10778186767E+02  0.10990803013E+02 -0.20447635818E+03  0.20509758779E+03  0.41800000000E+01 0.  1.
         -5    1    3    3    0  502 -0.57154742474E+02  0.68308073945E+00 -0.19494052513E+02  0.60536118722E+02  0.41800000000E+01 0.  1.
        -11    1    4    4    0    0  0.11592242803E+01  0.28408664635E+02 -0.34976429294E+02  0.45074900259E+02  0.00000000000E+00 0.  1.
         11    1    4    4    0    0  0.66773704961E+02 -0.40082548388E+02 -0.22636838111E+03  0.23939085681E+03  0.00000000000E+00 0. -1.
</event>
<event>
 8    1  0.4798744E-006  0.1128514E+03  0.7561462E-02  0.1255379E+00
         -2   -1    0    0    0  501 -0.00000000000E+00  0.00000000000E+00  0.19444060989E+03  0.19444060989E+03  0.00000000000E+00 0.  1.
          2   -1    0    0  501    0  0.00000000000E+00 -0.00000000000E+00 -0.96476212866E+02  0.96476212866E+02  0.00000000000E+00 0. -1.
         23    2    1    2    0    0 -0.24285738051E+02  0.24056438258E+02  0.13037625558E+03  0.18577234367E+03  0.12784712103E+03 0.  0.
         23    2    1    2    0    0  0.24285738051E+02 -0.24056438258E+02 -0.32411858561E+02  0.10514447909E+03  0.94001721332E+02 0.  0.
          5    1    3    3  502    0  0.58599713996E+01 -0.47637731253E+02  0.78786261830E+02  0.92349554178E+02  0.41800000000E+01 0. -1.
         -5    1    3    3    0  502 -0.30145709451E+02  0.71694169511E+02  0.51589993755E+02  0.93422789488E+02  0.41800000000E+01 0.  1.
        -11    1    4    4    0    0 -0.33387932117E+02  0.70296674041E+01 -0.15521110929E+02  0.37484331651E+02  0.00000000000E+00 0.  1.
         11    1    4    4    0    0  0.57673670168E+02 -0.31086105662E+02 -0.16890747632E+02  0.67660147439E+02  0.00000000000E+00 0. -1.
</event>
<event>
 8    1  0.4798744E-006  0.9885366E+02  0.7561462E-02  0.1282725E+00
          1   -1    0    0  501    0  0.00000000000E+00  0.00000000000E+00  0.50920230623E+02  0.50920230623E+02  0.00000000000E+00 0. -1.
         -1   -1    0    0    0  501 -0.00000000000E+00 -0.00000000000E+00 -0.27549842105E+03  0.27549842105E+03  0.00000000000E+00 0.  1.
         23    2    1    2    0    0 -0.23171597291E+02  0.12830620372E+02 -0.18721791091E+03  0.22671893622E+03  0.12509749051E+03 0.  0.
         23    2    1    2    0    0  0.23171597291E+02 -0.12830620372E+02 -0.37360279516E+02  0.99699715460E+02  0.88558991848E+02 0.  0.
          5    1    3    3  502    0 -0.22394695675E+02 -0.54403137219E+02 -0.10494368010E+03  0.12038219190E+03  0.41800000000E+01 0.  1.
         -5    1    3    3    0  502 -0.77690161552E+00  0.67233757592E+02 -0.82274230818E+02  0.10633674432E+03  0.41800000000E+01 0.  1.
        -11    1    4    4    0    0 -0.15707939881E+02 -0.25942852140E+02  0.14462950539E+02  0.33599819802E+02  0.00000000000E+00 0. -1.
         11    1    4    4    0    0  0.38879537172E+02  0.13112231767E+02 -0.51823230056E+02  0.66099895658E+02  0.00000000000E+00 0.  1.
</event>
<event>
 8    1  0.4798744E-006  0.1018408E+03  0.7561462E-02  0.1276472E+00
         -2   -1    0    0    0  501 -0.00000000000E+00  0.00000000000E+00  0.26383445844E+04  0.26383445844E+04  0.00000000000E+00 0.  1.
          2   -1    0    0  501    0  0.00000000000E+00 -0.00000000000E+00 -0.11479156663E+02  0.11479156663E+02  0.00000000000E+00 0. -1.
         23    2    1    2    0    0 -0.34394294257E+01  0.74314662873E+02  0.22537424347E+04  0.22584370603E+04  0.12509394248E+03 0.  0.
         23    2    1    2    0    0  0.34394294257E+01 -0.74314662873E+02  0.37312299301E+03  0.39138668076E+03  0.91805594466E+02 0.  0.
          5    1    3    3  502    0 -0.21604241036E+02  0.76835418395E+02  0.22008325415E+04  0.22022833089E+04  0.41800000000E+01 0.  1.
         -5    1    3    3    0  502  0.18164811610E+02 -0.25207555224E+01  0.52909893223E+02  0.56153751345E+02  0.41800000000E+01 0.  1.
        -11    1    4    4    0    0 -0.34594724948E+02 -0.25060347944E+02  0.24789607239E+03  0.25154975400E+03  0.00000000000E+00 0. -1.
         11    1    4    4    0    0  0.38034154374E+02 -0.49254314928E+02  0.12522692062E+03  0.13983692676E+03  0.00000000000E+00 0.  1.
</event>
<event>
 8    1  0.4798744E-006  0.1135022E+03  0.7561462E-02  0.1254218E+00
          2   -1    0    0  501    0  0.00000000000E+00  0.00000000000E+00  0.35719605898E+02  0.35719605898E+02  0.00000000000E+00 0. -1.
         -2   -1    0    0    0  501 -0.00000000000E+00 -0.00000000000E+00 -0.60622875694E+03  0.60622875694E+03  0.00000000000E+00 0.  1.
         23    2    1    2    0    0 -0.75048365169E+02  0.29721095001E+02 -0.44074014225E+03  0.46520342741E+03  0.12508699086E+03 0.  0.
         23    2    1    2    0    0  0.75048365169E+02 -0.29721095001E+02 -0.12976900879E+03  0.17674493542E+03  0.88787251069E+02 0.  0.
          5    1    3    3  502    0  0.17912494275E+02 -0.27493928655E+02 -0.17124561507E+03  0.17441131456E+03  0.41800000000E+01 0.  1.
         -5    1    3    3    0  502 -0.92960859444E+02  0.57215023656E+02 -0.26949452718E+03  0.29079211286E+03  0.41800000000E+01 0.  1.
        -11    1    4    4    0    0  0.90435887514E+01 -0.14277023731E+02 -0.10216353575E+03  0.10355195769E+03  0.00000000000E+00 0.  1.
         11    1    4    4    0    0  0.66004776418E+02 -0.15444071269E+02 -0.27605473034E+02  0.73192977729E+02  0.00000000000E+00 0. -1.
</event>
<event>
 8    1  0.4798744E-006  0.1292764E+03  0.7561462E-02  0.1228533E+00
         -1   -1    0    0    0  501 -0.00000000000E+00  0.00000000000E+00  0.37154908389E+02  0.37154908389E+02  0.00000000000E+00 0. -1.
          1   -1    0    0  501    0  0.00000000000E+00 -0.00000000000E+00 -0.50064740661E+03  0.50064740661E+03  0.00000000000E+00 0.  1.
         23    2    1    2    0    0 -0.80291139150E+02  0.24994560335E+02 -0.24763681125E+03  0.28990397254E+03  0.12509567511E+03 0.  0.
         23    2    1    2    0    0  0.80291139150E+02 -0.24994560335E+02 -0.21585568696E+03  0.24789834246E+03  0.88252566686E+02 0.  0.
          5    1    3    3  502    0 -0.77467102728E+02  0.62405580232E+02 -0.22460313230E+03  0.24568200562E+03  0.41800000000E+01 0.  1.
         -5    1    3    3    0  502 -0.28240364223E+01 -0.37411019897E+02 -0.23033678957E+02  0.44221966914E+02  0.41800000000E+01 0.  1.
        -11    1    4    4    0    0  0.75599385213E+02  0.18225182453E+02 -0.15050641557E+03  0.16940957898E+03  0.00000000000E+00 0.  1.
         11    1    4    4    0    0  0.46917539368E+01 -0.43219742789E+02 -0.65349271390E+02  0.78488763482E+02  0.00000000000E+00 0. -1.
</event>
<event>
 8    1  0.4798744E-006  0.5293634E+02  0.7561462E-02  0.1430118E+00
          1   -1    0    0  501    0  0.00000000000E+00  0.00000000000E+00  0.84271639675E+02  0.84271639675E+02  0.00000000000E+00 0. -1.
         -1   -1    0    0    0  501 -0.00000000000E+00 -0.00000000000E+00 -0.14722776782E+03  0.14722776782E+03  0.00000000000E+00 0.  1.
         23    2    1    2    0    0 -0.80448415234E+01 -0.24167885410E+02 -0.36418096200E+02  0.13275551836E+03  0.12509573840E+03 0.  0.
         23    2    1    2    0    0  0.80448415234E+01  0.24167885410E+02 -0.26538031942E+02  0.98743889130E+02  0.91636686653E+02 0.  0.
          5    1    3    3  502    0 -0.14100194815E+02 -0.21548143296E+02  0.44434240612E+02  0.51526809644E+02  0.41800000000E+01 0. -1.
         -5    1    3    3    0  502  0.60553532917E+01 -0.26197421139E+01 -0.80852336812E+02  0.81228708719E+02  0.41800000000E+01 0. -1.
        -11    1    4    4    0    0  0.28957133352E+02 -0.11067347821E+02 -0.44313644612E+02  0.54080503498E+02  0.00000000000E+00 0.  1.
         11    1    4    4    0    0 -0.20912291829E+02  0.35235233230E+02  0.17775612670E+02  0.44663385632E+02  0.00000000000E+00 0. -1.
</event>
<event>
 8    1  0.4798744E-006  0.1135239E+03  0.7561462E-02  0.1254180E+00
         -1   -1    0    0    0  501 -0.00000000000E+00  0.00000000000E+00  0.18049161275E+03  0.18049161275E+03  0.00000000000E+00 0.  1.
          1   -1    0    0  501    0  0.00000000000E+00 -0.00000000000E+00 -0.86575352329E+02  0.86575352329E+02  0.00000000000E+00 0. -1.
         23    2    1    2    0    0 -0.35638561480E+01  0.56741569662E+02  0.80959332198E+02  0.15948088038E+03  0.12508969157E+03 0.  0.
         23    2    1    2    0    0  0.35638561480E+01 -0.56741569662E+02  0.12956928227E+02  0.10758608471E+03  0.90413366463E+02 0.  0.
          5    1    3    3  502    0  0.58752147108E+02  0.16720316980E+02  0.23234105704E+02  0.65488013083E+02  0.41800000000E+01 0. -1.
         -5    1    3    3    0  502 -0.62316003256E+02  0.40021252683E+02  0.57725226494E+02  0.93992867292E+02  0.41800000000E+01 0. -1.
        -11    1    4    4    0    0 -0.28402013338E+01  0.17194938047E+02  0.26921600665E+02  0.32070316812E+02  0.00000000000E+00 0.  1.
         11    1    4    4    0    0  0.64040574817E+01 -0.73936507710E+02 -0.13964672438E+02  0.75515767895E+02  0.00000000000E+00 0. -1.
</event>
<event>
 8    1  0.4798744E-006  0.1247393E+03  0.7561462E-02  0.1235477E+00
         -2   -1    0    0    0  501 -0.00000000000E+00  0.00000000000E+00  0.44554405643E+02  0.44554405643E+02  0.00000000000E+00 0.  1.
          2   -1    0    0  501    0  0.00000000000E+00 -0.00000000000E+00 -0.61603089982E+03  0.61603089982E+03  0.00000000000E+00 0. -1.
         23    2    1    2    0    0  0.77004605494E+02  0.48637896067E+02 -0.13548564709E+03  0.20566832961E+03  0.12509095505E+03 0.  0.
         23    2    1    2    0    0 -0.77004605494E+02 -0.48637896067E+02 -0.43599084708E+03  0.45491697585E+03  0.92553130567E+02 0.  0.
          5    1    3    3  502    0  0.58861682838E+02 -0.93454742601E+01 -0.13173945504E+03  0.14465404250E+03  0.41800000000E+01 0. -1.
         -5    1    3    3    0  502  0.18142922656E+02  0.57983370327E+02 -0.37461920509E+01  0.61014287113E+02  0.41800000000E+01 0. -1.
        -11    1    4    4    0    0 -0.91410023560E+02 -0.15519162069E+02 -0.28669725697E+03  0.30131703229E+03  0.00000000000E+00 0.  1.
         11    1    4    4    0    0  0.14405418066E+02 -0.33118733998E+02 -0.14929359012E+03  0.15359994356E+03  0.00000000000E+00 0. -1.
</event>
<event>
 8    1  0.4798744E-006  0.2379430E+03  0.7561462E-02  0.1121171E+00
         -3   -1    0    0    0  501 -0.00000000000E+00  0.00000000000E+00  0.29082977488E+03  0.29082977488E+03  0.00000000000E+00 0.  1.
          3   -1    0    0  501    0  0.00000000000E+00 -0.00000000000E+00 -0.21154915124E+03  0.21154915124E+03  0.00000000000E+00 0. -1.
         23    2    1    2    0    0 -0.27619094458E+02  0.21524508960E+03  0.94911041888E+02  0.26786318636E+03  0.12509723322E+03 0.  0.
         23    2    1    2    0    0  0.27619094458E+02 -0.21524508960E+03 -0.15630418249E+02  0.23451573975E+03  0.87521764376E+02 0.  0.
          5    1    3    3  502    0 -0.66339958209E+02  0.59439976148E+02  0.24274928145E+02  0.92416694142E+02  0.41800000000E+01 0. -1.
         -5    1    3    3    0  502  0.38720863751E+02  0.15580511345E+03  0.70636113743E+02  0.17544649222E+03  0.41800000000E+01 0. -1.
        -11    1    4    4    0    0  0.48372433947E+02 -0.14385152241E+03 -0.38786033673E+02  0.15664453157E+03  0.00000000000E+00 0.  1.
         11    1    4    4    0    0 -0.20753339489E+02 -0.71393567197E+02  0.23155615424E+02  0.77871208175E+02  0.00000000000E+00 0. -1.
</event>
<event>
 8    1  0.4798744E-006  0.1012365E+03  0.7561462E-02  0.1277717E+00
         -4   -1    0    0    0  501 -0.00000000000E+00  0.00000000000E+00  0.41281129099E+02  0.41281129099E+02  0.00000000000E+00 0.  1.
          4   -1    0    0  501    0  0.00000000000E+00 -0.00000000000E+00 -0.33218092296E+03  0.33218092296E+03  0.00000000000E+00 0. -1.
         23    2    1    2    0    0 -0.27954615085E+01 -0.36542260091E+02 -0.12991856861E+03  0.18404074815E+03  0.12509600766E+03 0.  0.
         23    2    1    2    0    0  0.27954615085E+01  0.36542260091E+02 -0.16098122525E+03  0.18942130391E+03  0.92856470493E+02 0.  0.
          5    1    3    3  502    0 -0.56097534583E+01  0.32684637922E+02 -0.10516474411E+03  0.11034876843E+03  0.41800000000E+01 0.  1.
         -5    1    3    3    0  502  0.28142919498E+01 -0.69226898013E+02 -0.24753824493E+02  0.73691979718E+02  0.41800000000E+01 0.  1.
        -11    1    4    4    0    0  0.38563096284E+02  0.48465325464E+02 -0.94338321310E+02  0.11285264301E+03  0.00000000000E+00 0.  1.
         11    1    4    4    0    0 -0.35767634775E+02 -0.11923065372E+02 -0.66642903942E+02  0.76568660894E+02  0.00000000000E+00 0. -1.
</event>
<event>
 7    1  0.4798744E-006  0.2363573E+03  0.7561462E-02  0.1122244E+00
          2   -1    0    0  501    0  0.00000000000E+00  0.00000000000E+00  0.54116567234E+03  0.54116567234E+03  0.00000000000E+00 0. -1.
         -2   -1    0    0    0  501 -0.00000000000E+00 -0.00000000000E+00 -0.16810483351E+03  0.16810483351E+03  0.00000000000E+00 0.  1.
         23    2    1    2    0    0  0.16262133019E+03  0.31234517369E+02  0.38099630022E+03  0.42637672480E+03  0.96008533770E+02 0.  0.
          5    1    1    2  502    0  0.36998042570E+02  0.52960596021E+02  0.98146779794E+01  0.65478852989E+02  0.41800000000E+01 0. -1.
         -5    1    1    2    0  502 -0.19961937276E+03 -0.84195113389E+02 -0.17750139377E+02  0.21741492807E+03  0.41800000000E+01 0.  1.
        -11    1    3    3    0    0  0.24484269738E+02 -0.31229158255E+02  0.85478118178E+02  0.94240376045E+02  0.00000000000E+00 0.  1.
         11    1    3    3    0    0  0.13813706045E+03  0.62463675623E+02  0.29551818204E+03  0.33213634875E+03  0.00000000000E+00 0. -1.
</event>
<event>
 8    1  0.5351892E-006  0.2503088E+03  0.7561462E-02  0.1113110E+00
         -1   -1    0    0    0  501 -0.00000000000E+00  0.00000000000E+00  0.64817121898E+02  0.64817121898E+02  0.00000000000E+00 0. -1.
          1   -1    0    0  501    0  0.00000000000E+00 -0.00000000000E+00 -0.13330165160E+04  0.13330165160E+04  0.00000000000E+00 0.  1.
         23    2    1    2    0    0  0.65781446148E+02  0.23162909604E+03 -0.34847260140E+03  0.44165577293E+03  0.12508969201E+03 0.  0.
         23    2    1    2    0    0 -0.65781446148E+02 -0.23162909604E+03 -0.91972679272E+03  0.95617786498E+03  0.10197793608E+03 0.  0.
          5    1    3    3  502    0  0.14875602089E+02  0.11043434121E+03 -0.26067620598E+03  0.28352527933E+03  0.41800000000E+01 0.  1.
         -5    1    3    3    0  502  0.50905844059E+02  0.12119475483E+03 -0.87796395424E+02  0.15813049360E+03  0.41800000000E+01 0.  1.
        -11    1    4    4    0    0  0.13152965736E+02 -0.12085603069E+03 -0.51701045882E+03  0.53111109496E+03  0.00000000000E+00 0. -1.
         11    1    4    4    0    0 -0.78934411884E+02 -0.11077306535E+03 -0.40271633390E+03  0.42506677002E+03  0.00000000000E+00 0.  1.
</event>
<event>
 7    1  0.4798744E-006  0.9956074E+02  0.7561462E-02  0.1281222E+00
          2   -1    0    0  501    0  0.00000000000E+00  0.00000000000E+00  0.78414225685E+02  0.78414225685E+02  0.00000000000E+00 0. -1.
         -2   -1    0    0    0  501 -0.00000000000E+00 -0.00000000000E+00 -0.23834772393E+03  0.23834772393E+03  0.00000000000E+00 0.  1.
         23    2    1    2    0    0 -0.29306652913E+01 -0.36504714477E+02 -0.11051024094E+02  0.97740616676E+02  0.89943982770E+02 0.  0.
          5    1    1    2  502    0  0.42901550981E+01 -0.41709932903E+02  0.87131113895E+01  0.43029230107E+02  0.41800000000E+01 0. -1.
         -5    1    1    2    0  502 -0.13594898068E+01  0.78214647380E+02 -0.15759558554E+03  0.17599210283E+03  0.41800000000E+01 0.  1.
        -11    1    3    3    0    0  0.38015855871E+01  0.20699951878E+02  0.22720854247E+02  0.30970587312E+02  0.00000000000E+00 0.  1.
         11    1    3    3    0    0 -0.67322508783E+01 -0.57204666355E+02 -0.33771878340E+02  0.66770029364E+02  0.00000000000E+00 0. -1.
</event>
<event>
 8    1  0.4798744E-006  0.1398433E+03  0.7561462E-02  0.1213540E+00
          1   -1    0    0  501    0  0.00000000000E+00  0.00000000000E+00  0.96772085494E+02  0.96772085494E+02  0.00000000000E+00 0. -1.
         -1   -1    0    0    0  501 -0.00000000000E+00 -0.00000000000E+00 -0.34484605597E+03  0.34484605597E+03  0.00000000000E+00 0.  1.
         23    2    1    2    0    0  0.12464771526E+03 -0.45449840665E+02 -0.20687847532E+03  0.27577257742E+03  0.12509624283E+03 0.  0.
         23    2    1    2    0    0 -0.12464771526E+03  0.45449840665E+02 -0.41195495156E+02  0.16584556404E+03  0.90581131344E+02 0.  0.
          5    1    3    3  502    0  0.10502811879E+03 -0.35699126291E+02 -0.58027303269E+02  0.12525962510E+03  0.41800000000E+01 0. -1.
         -5    1    3    3    0  502  0.19619596467E+02 -0.97507143741E+01 -0.14885117205E+03  0.15051295232E+03  0.41800000000E+01 0. -1.
        -11    1    4    4    0    0 -0.26818686910E+02  0.40302231914E+02 -0.47312567763E+02  0.67690405030E+02  0.00000000000E+00 0.  1.
         11    1    4    4    0    0 -0.97829028349E+02  0.51476087510E+01  0.61170726061E+01  0.98155159012E+02  0.00000000000E+00 0. -1.
</event>
<event>
 8    1  0.4798744E-006  0.2467153E+03  0.7561462E-02  0.1115398E+00
         -2   -1    0    0    0  501 -0.00000000000E+00  0.00000000000E+00  0.16048362972E+03  0.16048362972E+03  0.00000000000E+00 0.  1.
          2   -1    0    0  501    0  0.00000000000E+00 -0.00000000000E+00 -0.44974842820E+03  0.44974842820E+03  0.00000000000E+00 0. -1.
         23    2    1    2    0    0 -0.19661296400E+03 -0.13046790103E+03 -0.59570315121E+02  0.27363209980E+03  0.12508945912E+03 0.  0.
         23    2    1    2    0    0  0.19661296400E+03  0.13046790103E+03 -0.22969448336E+03  0.33659995813E+03  0.69724065521E+02 0.  0.
          5    1    3    3  502    0 -0.20562976215E+03 -0.11857400665E+03 -0.77684795070E+02  0.24979150090E+03  0.41800000000E+01 0.  1.
         -5    1    3    3    0  502  0.90167981432E+01 -0.11893894373E+02  0.18114479949E+02  0.23840598900E+02  0.41800000000E+01 0.  1.
        -11    1    4    4    0    0  0.15509382520E+03  0.12386426215E+03 -0.15886463145E+03  0.25423300568E+03  0.00000000000E+00 0.  1.
         11    1    4    4    0    0  0.41519138808E+02  0.66036388775E+01 -0.70829851911E+02  0.82366952447E+02  0.00000000000E+00 0. -1.
</event>
<event>
 8    1  0.4798744E-006  0.1036325E+03  0.7561462E-02  0.1272837E+00
         -1   -1    0    0    0  501 -0.00000000000E+00  0.00000000000E+00  0.16438634146E+02  0.16438634146E+02  0.00000000000E+00 0.  1.
          1   -1    0    0  501    0  0.00000000000E+00 -0.00000000000E+00 -0.73567252321E+03  0.73567252321E+03  0.00000000000E+00 0. -1.
         23    2    1    2    0    0  0.14224404816E+02 -0.21699181473E+02 -0.41033680492E+03  0.43017446946E+03  0.12649344858E+03 0.  0.
         23    2    1    2    0    0 -0.14224404816E+02  0.21699181473E+02 -0.30889708414E+03  0.32193668789E+03  0.86905893087E+02 0.  0.
          5    1    3    3  502    0 -0.50496356177E+02 -0.30603837940E+02 -0.25157996424E+03  0.25845004874E+03  0.41800000000E+01 0.  1.
         -5    1    3    3    0  502  0.64720760993E+02  0.89046564668E+01 -0.15875684068E+03  0.17172442072E+03  0.41800000000E+01 0.  1.
        -11    1    4    4    0    0  0.32412235246E+02  0.14136958198E+02 -0.70135154322E+02  0.78545187329E+02  0.00000000000E+00 0.  1.
         11    1    4    4    0    0 -0.46636640062E+02  0.75622232752E+01 -0.23876192982E+03  0.24339150056E+03  0.00000000000E+00 0. -1.
</event>
<event>
 8    1  0.4798744E-006  0.1016964E+03  0.7561462E-02  0.1276769E+00
          2   -1    0    0  501    0  0.00000000000E+00  0.00000000000E+00  0.80282054825E+02  0.80282054825E+02  0.00000000000E+00 0. -1.
         -2   -1    0    0    0  501 -0.00000000000E+00 -0.00000000000E+00 -0.27232681834E+03  0.27232681834E+03  0.00000000000E+00 0.  1.
         23    2    1    2    0    0  0.41239582185E+02  0.60555263953E+02 -0.18527640035E+03  0.23531854997E+03  0.12521913712E+03 0.  0.
         23    2    1    2    0    0 -0.41239582185E+02 -0.60555263953E+02 -0.67683631710E+01  0.11729032320E+03  0.91343122598E+02 0.  0.
          5    1    3    3  502    0  0.61004033847E+02  0.46435446627E+02 -0.19441859038E+03  0.20903062823E+03  0.41800000000E+01 0. -1.
         -5    1    3    3    0  502 -0.19764451662E+02  0.14119817326E+02  0.91421900361E+01  0.26287921741E+02  0.41800000000E+01 0. -1.
        -11    1    4    4    0    0 -0.52235904757E+02 -0.70088035674E+02  0.17353623686E+02  0.89118296356E+02  0.00000000000E+00 0. -1.
         11    1    4    4    0    0  0.10996322572E+02  0.95327717204E+01 -0.24121986857E+02  0.28172026847E+02  0.00000000000E+00 0.  1.
</event>
<event>
 8    1  0.4798744E-006  0.8369701E+02  0.7561462E-02  0.1318876E+00
          2   -1    0    0  501    0  0.00000000000E+00  0.00000000000E+00  0.12716635340E+03  0.12716635340E+03  0.00000000000E+00 0. -1.
         -2   -1    0    0    0  501 -0.00000000000E+00 -0.00000000000E+00 -0.10117372052E+03  0.10117372052E+03  0.00000000000E+00 0.  1.
         23    2    1    2    0    0  0.25831276581E+02  0.17965196296E+02  0.26410659905E+01  0.12901259813E+03  0.12508905675E+03 0.  0.
         23    2    1    2    0    0 -0.25831276581E+02 -0.17965196296E+02  0.23351566887E+02  0.99327475791E+02  0.91272387079E+02 0.  0.
          5    1    3    3  502    0  0.65031328107E+02  0.24587677193E+01 -0.33513539890E+02  0.73319498975E+02  0.41800000000E+01 0. -1.
         -5    1    3    3    0  502 -0.39200051526E+02  0.15506428577E+02  0.36154605880E+02  0.55693099152E+02  0.41800000000E+01 0. -1.
        -11    1    4    4    0    0 -0.33307306408E+02  0.67623301304E+01 -0.26555290466E+02  0.43131070247E+02  0.00000000000E+00 0.  1.
         11    1    4    4    0    0  0.74760298268E+01 -0.24727526426E+02  0.49906857353E+02  0.56196405543E+02  0.00000000000E+00 0. -1.
</event>
<event>
 8    1  0.6841728E-006  0.1712255E+03  0.7561462E-02  0.1176576E+00
         -1   -1    0    0    0  501 -0.00000000000E+00  0.00000000000E+00  0.32891261925E+02  0.32891261925E+02  0.00000000000E+00 0.  1.
          1   -1    0    0  501    0  0.00000000000E+00 -0.00000000000E+00 -0.99151790025E+03  0.99151790025E+03  0.00000000000E+00 0. -1.
         23    2    1    2    0    0 -0.97063170785E+01 -0.13917653518E+03 -0.40800697150E+03  0.44897815076E+03  0.12508945010E+03 0.  0.
         23    2    1    2    0    0  0.97063170785E+01  0.13917653518E+03 -0.55061966682E+03  0.57543101142E+03  0.92057106606E+02 0.  0.
          5    1    3    3  502    0  0.18011376429E+02 -0.14613840432E+03 -0.38446008009E+03  0.41171333289E+03  0.41800000000E+01 0. -1.
         -5    1    3    3    0  502 -0.27717693508E+02  0.69618691386E+01 -0.23546891409E+02  0.37264817862E+02  0.41800000000E+01 0. -1.
        -11    1    4    4    0    0 -0.38941695073E+02  0.40142846518E+02 -0.21411229801E+03  0.22129613621E+03  0.00000000000E+00 0.  1.
         11    1    4    4    0    0  0.48648012151E+02  0.99033688659E+02 -0.33650736881E+03  0.35413487521E+03  0.00000000000E+00 0. -1.
</event>
<event>
 8    1  0.4798744E-006  0.9847366E+02  0.7561462E-02  0.1283539E+00
         -1   -1    0    0    0  501 -0.00000000000E+00  0.00000000000E+00  0.10644981749E+04  0.10644981749E+04  0.00000000000E+00 0.  1.
          1   -1    0    0  501    0  0.00000000000E+00 -0.00000000000E+00 -0.97769431036E+01  0.97769431036E+01  0.00000000000E+00 0. -1.
         23    2    1    2    0    0  0.42052523469E+01  0.18776411203E+02  0.63369123997E+03  0.64379655691E+03  0.11197848591E+03 0.  0.
         23    2    1    2    0    0 -0.42052523469E+01 -0.18776411203E+02  0.42102999178E+03  0.43047856105E+03  0.87608788255E+02 0.  0.
          5    1    3    3  502    0 -0.37087177593E+02  0.45357514213E+02  0.44133181108E+03  0.44522354240E+03  0.41800000000E+01 0. -1.
         -5    1    3    3    0  502  0.41292429939E+02 -0.26581103010E+02  0.19235942890E+03  0.19857301451E+03  0.41800000000E+01 0.  1.
        -11    1    4    4    0    0  0.41272664682E+02 -0.11688558300E+02  0.17502995791E+03  0.18020971508E+03  0.00000000000E+00 0.  1.
         11    1    4    4    0    0 -0.45477917028E+02 -0.70878529035E+01  0.24600003387E+03  0.25026884597E+03  0.00000000000E+00 0. -1.
</event>
<event>
 8    1  0.4798744E-006  0.7826846E+02  0.7561462E-02  0.1334038E+00
         -1   -1    0    0    0  501 -0.00000000000E+00  0.00000000000E+00  0.23105583734E+03  0.23105583734E+03  0.00000000000E+00 0.  1.
          1   -1    0    0  501    0  0.00000000000E+00 -0.00000000000E+00 -0.63495220522E+02  0.63495220522E+02  0.00000000000E+00 0. -1.
         23    2    1    2    0    0  0.16624277348E+02 -0.49470789199E+02  0.10600378249E+03  0.17206953120E+03  0.12508955226E+03 0.  0.
         23    2    1    2    0    0 -0.16624277348E+02  0.49470789199E+02  0.61556834333E+02  0.12248152667E+03  0.92134439489E+02 0.  0.
          5    1    3    3  502    0  0.22826956648E+02 -0.38812062460E+02  0.13387522304E+03  0.14130638304E+03  0.41800000000E+01 0. -1.
         -5    1    3    3    0  502 -0.62026793006E+01 -0.10658726739E+02 -0.27871440555E+02  0.30763148162E+02  0.41800000000E+01 0. -1.
        -11    1    4    4    0    0  0.23250828311E+02  0.53384585105E+02  0.13242169737E+02  0.59714906040E+02  0.00000000000E+00 0. -1.
         11    1    4    4    0    0 -0.39875105659E+02 -0.39137959064E+01  0.48314664597E+02  0.62766620626E+02  0.00000000000E+00 0.  1.
</event>
<event>
 8    1  0.4798744E-006  0.9596992E+02  0.7561462E-02  0.1289006E+00
         -2   -1    0    0    0  501 -0.00000000000E+00  0.00000000000E+00  0.17453825470E+03  0.17453825470E+03  0.00000000000E+00 0.  1.
          2   -1    0    0  501    0  0.00000000000E+00 -0.00000000000E+00 -0.93917384875E+02  0.93917384875E+02  0.00000000000E+00 0. -1.
         23    2    1    2    0    0 -0.21035435135E+02 -0.56357644481E+02  0.78453104883E+02  0.15944217411E+03  0.12509293983E+03 0.  0.
         23    2    1    2    0    0  0.21035435135E+02  0.56357644481E+02  0.21677649384E+01  0.10901346547E+03  0.90887638464E+02 0.  0.
          5    1    3    3  502    0 -0.76427082795E+01  0.33774683854E+02 -0.56917116933E+01  0.35341310690E+02  0.41800000000E+01 0.  1.
         -5    1    3    3    0  502 -0.13392726855E+02 -0.90132328335E+02  0.84144816576E+02  0.12410086342E+03  0.41800000000E+01 0.  1.
        -11    1    4    4    0    0  0.11801295521E+02  0.36807166406E+01 -0.39390324981E+02  0.41284572822E+02  0.00000000000E+00 0. -1.
         11    1    4    4    0    0  0.92341396138E+01  0.52676927841E+02  0.41558089920E+02  0.67728892645E+02  0.00000000000E+00 0.  1.
</event>
<event>
 8    1  0.4798744E-006  0.1157292E+03  0.7561462E-02  0.1250314E+00
          2   -1    0    0  501    0  0.00000000000E+00  0.00000000000E+00  0.21431712549E+03  0.21431712549E+03  0.00000000000E+00 0. -1.
         -2   -1    0    0    0  501 -0.00000000000E+00 -0.00000000000E+00 -0.88639888090E+02  0.88639888090E+02  0.00000000000E+00 0.  1.
         23    2    1    2    0    0 -0.18741781470E+02 -0.77689233596E+02  0.42387588313E+02  0.15437503128E+03  0.12509225096E+03 0.  0.
         23    2    1    2    0    0  0.18741781470E+02  0.77689233596E+02  0.83289649088E+02  0.14858198230E+03  0.93555162500E+02 0.  0.
          5    1    3    3  502    0  0.22672399270E+02 -0.64470674055E+02  0.73730539978E+02  0.10061893672E+03  0.41800000000E+01 0. -1.
         -5    1    3    3    0  502 -0.41414180740E+02 -0.13218559541E+02 -0.31342951666E+02  0.53756094555E+02  0.41800000000E+01 0. -1.
        -11    1    4    4    0    0  0.50493925372E+02  0.21718661957E+02  0.56656040430E+02  0.78938227076E+02  0.00000000000E+00 0.  1.
         11    1    4    4    0    0 -0.31752143902E+02  0.55970571639E+02  0.26633608657E+02  0.69643755227E+02  0.00000000000E+00 0. -1.
</event>
<event>
 8    1  0.5286778E-006  0.2134378E+03  0.7561462E-02  0.1138872E+00
          2   -1    0    0  501    0  0.00000000000E+00  0.00000000000E+00  0.28698122866E+03  0.28698122866E+03  0.00000000000E+00 0. -1.
         -2   -1    0    0    0  501 -0.00000000000E+00 -0.00000000000E+00 -0.23111221846E+03  0.23111221846E+03  0.00000000000E+00 0.  1.
         23    2    1    2    0    0 -0.14150306548E+03  0.15255485801E+03 -0.74853539372E+02  0.25406037787E+03  0.12509005156E+03 0.  0.
         23    2    1    2    0    0  0.14150306548E+03 -0.15255485801E+03  0.13072254957E+03  0.26403306925E+03  0.96586616275E+02 0.  0.
          5    1    3    3  502    0 -0.13656847689E+03  0.10944062163E+03 -0.92646565848E+01  0.17530403533E+03  0.41800000000E+01 0.  1.
         -5    1    3    3    0  502 -0.49345885945E+01  0.43114236384E+02 -0.65588882788E+02  0.78756342531E+02  0.41800000000E+01 0.  1.
        -11    1    4    4    0    0  0.33995265317E+02 -0.41611122621E+02 -0.10471660101E+02  0.54743211954E+02  0.00000000000E+00 0.  1.
         11    1    4    4    0    0  0.10750780017E+03 -0.11094373539E+03  0.14119420968E+03  0.20928985729E+03  0.00000000000E+00 0. -1.
</event>
<event>
 8    1  0.4798744E-006  0.1146006E+03  0.7561462E-02  0.1252280E+00
         -2   -1    0    0    0  501 -0.00000000000E+00  0.00000000000E+00  0.24313000884E+02  0.24313000884E+02  0.00000000000E+00 0.  1.
          2   -1    0    0  501    0  0.00000000000E+00 -0.00000000000E+00 -0.88697641013E+03  0.88697641013E+03  0.00000000000E+00 0. -1.
         23    2    1    2    0    0  0.51829658943E+02 -0.69091795163E+02 -0.61774699178E+03  0.63617428019E+03  0.12508548761E+03 0.  0.
         23    2    1    2    0    0 -0.51829658943E+02  0.69091795163E+02 -0.24491641746E+03  0.27511513082E+03  0.90798094480E+02 0.  0.
          5    1    3    3  502    0  0.69864864649E+02 -0.87222682729E+01 -0.17081568949E+03  0.18480435453E+03  0.41800000000E+01 0.  1.
         -5    1    3    3    0  502 -0.18035205705E+02 -0.60369526890E+02 -0.44693130229E+03  0.45136992566E+03  0.41800000000E+01 0.  1.
        -11    1    4    4    0    0 -0.13108791687E+02  0.51235375328E+02 -0.41353488971E+02  0.67134306838E+02  0.00000000000E+00 0.  1.
         11    1    4    4    0    0 -0.38720867256E+02  0.17856419834E+02 -0.20356292849E+03  0.20798082399E+03  0.00000000000E+00 0. -1.
</event>
<event>
 7    1  0.4798744E-006  0.9037089E+02  0.7561462E-02  0.1301956E+00
          1   -1    0    0  501    0  0.00000000000E+00  0.00000000000E+00  0.30927240522E+03  0.30927240522E+03  0.00000000000E+00 0. -1.
         -1   -1    0    0    0  501 -0.00000000000E+00 -0.00000000000E+00 -0.44451752894E+02  0.44451752894E+02  0.00000000000E+00 0.  1.
         23    2    1    2    0    0  0.13595642820E+02 -0.13507915233E+02  0.13483096359E+03  0.16360039439E+03  0.90655363999E+02 0.  0.
          5    1    1    2  502    0 -0.33928477278E+02  0.49968687995E+02  0.13491804519E+03  0.14787955460E+03  0.41800000000E+01 0.  1.
         -5    1    1    2    0  502  0.20332834458E+02 -0.36460772762E+02 -0.49283564593E+01  0.42244209128E+02  0.41800000000E+01 0. -1.
        -11    1    3    3    0    0 -0.31340720226E+02 -0.72101036561E-01  0.14658186115E+02  0.34599253793E+02  0.00000000000E+00 0.  1.
         11    1    3    3    0    0  0.44936363047E+02 -0.13435814196E+02  0.12017277748E+03  0.12900114059E+03  0.00000000000E+00 0. -1.
</event>
<event>
 8    1  0.4798744E-006  0.1417057E+03  0.7561462E-02  0.1211052E+00
          2   -1    0    0  501    0  0.00000000000E+00  0.00000000000E+00  0.74485816834E+02  0.74485816834E+02  0.00000000000E+00 0. -1.
         -2   -1    0    0    0  501 -0.00000000000E+00 -0.00000000000E+00 -0.37472681912E+03  0.37472681912E+03  0.00000000000E+00 0.  1.
         23    2    1    2    0    0  0.78928300631E+02 -0.87379639140E+02 -0.22308981055E+03  0.28157031596E+03  0.12509157158E+03 0.  0.
         23    2    1    2    0    0 -0.78928300631E+02  0.87379639140E+02 -0.77151191742E+02  0.16764232000E+03  0.91031659829E+02 0.  0.
          5    1    3    3  502    0  0.14694244303E+02 -0.97389644041E+02 -0.90412047180E+02  0.13376275363E+03  0.41800000000E+01 0. -1.
         -5    1    3    3    0  502  0.64234056328E+02  0.10010004901E+02 -0.13267776337E+03  0.14780756233E+03  0.41800000000E+01 0. -1.
        -11    1    4    4    0    0 -0.58882812744E+02  0.77521914870E+02 -0.97243271535E+02  0.13759755369E+03  0.00000000000E+00 0.  1.
         11    1    4    4    0    0 -0.20045487887E+02  0.98577242704E+01  0.20092079793E+02  0.30044766314E+02  0.00000000000E+00 0. -1.
</event>
<event>
 8    1  0.4798744E-006  0.8439310E+02  0.7561462E-02  0.1317027E+00
          1   -1    0    0  501    0  0.00000000000E+00  0.00000000000E+00  0.54923729972E+03  0.54923729972E+03  0.00000000000E+00 0. -1.
         -1   -1    0    0    0  501 -0.00000000000E+00 -0.00000000000E+00 -0.25545980307E+02  0.25545980307E+02  0.00000000000E+00 0.  1.
         23    2    1    2    0    0 -0.16865998681E+02  0.36396748883E+02  0.23055340768E+03  0.26534196594E+03  0.12506918029E+03 0.  0.
         23    2    1    2    0    0  0.16865998681E+02 -0.36396748883E+02  0.29313791173E+03  0.30944131408E+03  0.90636120419E+02 0.  0.
          5    1    3    3  502    0 -0.32416198611E+02 -0.11627961759E+02  0.60743434700E+01  0.35219163472E+02  0.41800000000E+01 0. -1.
         -5    1    3    3    0  502  0.15550199930E+02  0.48024710642E+02  0.22447906421E+03  0.23012280247E+03  0.41800000000E+01 0. -1.
        -11    1    4    4    0    0  0.35299633384E+02  0.72734668816E+01  0.49475419762E+02  0.61210984294E+02  0.00000000000E+00 0.  1.
         11    1    4    4    0    0 -0.18433634703E+02 -0.43670215765E+02  0.24366249197E+03  0.24823032979E+03  0.00000000000E+00 0. -1.
</event>
<event>
 8    1  0.4798744E-006  0.1396036E+03  0.7561462E-02  0.1213863E+00
         -2   -1    0    0    0  501 -0.00000000000E+00  0.00000000000E+00  0.10234385968E+03  0.10234385968E+03  0.00000000000E+00 0.  1.
          2   -1    0    0  501    0  0.00000000000E+00 -0.00000000000E+00 -0.28961149874E+03  0.28961149874E+03  0.00000000000E+00 0. -1.
         23    2    1    2    0    0 -0.23412780343E+01 -0.91061574340E+02  0.12793318293E+02  0.15526929113E+03  0.12508873599E+03 0.  0.
         23    2    1    2    0    0  0.23412780343E+01  0.91061574340E+02 -0.20006095735E+03  0.23668606729E+03  0.87739477377E+02 0.  0.
          5    1    3    3  502    0  0.76598766600E+01 -0.12180879407E+03  0.11074275856E+02  0.12262205352E+03  0.41800000000E+01 0.  1.
         -5    1    3    3    0  502 -0.10001154694E+02  0.30747219733E+02  0.17190424377E+01  0.32647237608E+02  0.41800000000E+01 0.  1.
        -11    1    4    4    0    0 -0.27349511603E+02 -0.13873201382E+01 -0.63209629502E+02  0.68886701938E+02  0.00000000000E+00 0. -1.
         11    1    4    4    0    0  0.29690789638E+02  0.92448894478E+02 -0.13685132784E+03  0.16779936535E+03  0.00000000000E+00 0.  1.
</event>
<event>
 8    1  0.4798744E-006  0.9989487E+02  0.7561462E-02  0.1280517E+00
          1   -1    0    0  501    0  0.00000000000E+00  0.00000000000E+00  0.35491593400E+03  0.35491593400E+03  0.00000000000E+00 0. -1.
         -1   -1    0    0    0  501 -0.00000000000E+00 -0.00000000000E+00 -0.36784015731E+02  0.36784015731E+02  0.00000000000E+00 0.  1.
         23    2    1    2    0    0 -0.31002480391E+02  0.10345671996E+01  0.17788808121E+03  0.21966764553E+03  0.12508989144E+03 0.  0.
         23    2    1    2    0    0  0.31002480391E+02 -0.10345671996E+01  0.14024383706E+03  0.17203230420E+03  0.94681337831E+02 0.  0.
          5    1    3    3  502    0 -0.61136784292E+02  0.30396794215E+02  0.49332694365E+02  0.84337765120E+02  0.41800000000E+01 0.  1.
         -5    1    3    3    0  502  0.30134303902E+02 -0.29362227016E+02  0.12855538684E+03  0.13532988041E+03  0.41800000000E+01 0.  1.
        -11    1    4    4    0    0  0.58119154145E+02 -0.12854262374E+02  0.52262579312E+02  0.79211396503E+02  0.00000000000E+00 0. -1.
         11    1    4    4    0    0 -0.27116673755E+02  0.11819695174E+02  0.87981257752E+02  0.92820907694E+02  0.00000000000E+00 0.  1.
</event>
<event>
 8    1  0.4798744E-006  0.1420599E+03  0.7561462E-02  0.1210584E+00
         -3   -1    0    0    0  501 -0.00000000000E+00  0.00000000000E+00  0.26209569651E+03  0.26209569651E+03  0.00000000000E+00 0.  1.
          3   -1    0    0  501    0  0.00000000000E+00 -0.00000000000E+00 -0.91635387786E+02  0.91635387786E+02  0.00000000000E+00 0. -1.
         23    2    1    2    0    0 -0.10993162682E+03  0.89841367572E+01  0.93278348076E+02  0.19108636200E+03  0.12508984864E+03 0.  0.
         23    2    1    2    0    0  0.10993162682E+03 -0.89841367572E+01  0.77181960649E+02  0.16264472230E+03  0.91271974634E+02 0.  0.
          5    1    3    3  502    0 -0.64937445526E+02 -0.46762050272E+02  0.88172175791E+02  0.11914430813E+03  0.41800000000E+01 0. -1.
         -5    1    3    3    0  502 -0.44994181294E+02  0.55746187029E+02  0.51061722848E+01  0.71942053863E+02  0.41800000000E+01 0. -1.
        -11    1    4    4    0    0  0.53401329826E+02 -0.40941637185E+02  0.80059725691E+01  0.67764410123E+02  0.00000000000E+00 0. -1.
         11    1    4    4    0    0  0.56530296994E+02  0.31957500428E+02  0.69175988080E+02  0.94880312176E+02  0.00000000000E+00 0.  1.
</event>
<event>
 7    1  0.4798744E-006  0.1189247E+03  0.7561462E-02  0.1244882E+00
         -1   -1    0    0    0  501 -0.00000000000E+00  0.00000000000E+00  0.57172774750E+02  0.57172774750E+02  0.00000000000E+00 0.  1.
          1   -1    0    0  501    0  0.00000000000E+00 -0.00000000000E+00 -0.29387997111E+03  0.29387997111E+03  0.00000000000E+00 0. -1.
         23    2    1    2    0    0  0.55761791851E+02 -0.27170826424E+02 -0.12147002682E+03  0.16453094312E+03  0.92020826933E+02 0.  0.
          5    1    1    2  502    0  0.19921094307E+02 -0.29719771901E+02 -0.75697758421E+02  0.83831604244E+02  0.41800000000E+01 0. -1.
         -5    1    1    2    0  502 -0.75682886158E+02  0.56890598325E+02 -0.39539411115E+02  0.10269019849E+03  0.41800000000E+01 0.  1.
        -11    1    3    3    0    0  0.78911657216E+02 -0.13179018572E+02 -0.10773956219E+03  0.13419593674E+03  0.00000000000E+00 0. -1.
         11    1    3    3    0    0 -0.23149865365E+02 -0.13991807852E+02 -0.13730464627E+02  0.30335006383E+02  0.00000000000E+00 0.  1.
</event>
<event>
 8    1  0.4798744E-006  0.9223205E+02  0.7561462E-02  0.1297535E+00
          1   -1    0    0  501    0  0.00000000000E+00  0.00000000000E+00  0.83282551369E+02  0.83282551369E+02  0.00000000000E+00 0. -1.
         -1   -1    0    0    0  501 -0.00000000000E+00 -0.00000000000E+00 -0.21061858144E+03  0.21061858144E+03  0.00000000000E+00 0.  1.
         23    2    1    2    0    0 -0.47548510276E+02 -0.34894312525E+02 -0.12428802621E+03  0.18594023350E+03  0.12509109919E+03 0.  0.
         23    2    1    2    0    0  0.47548510276E+02  0.34894312525E+02 -0.30480038633E+01  0.10796089932E+03  0.90375835141E+02 0.  0.
          5    1    3    3  502    0 -0.28181789738E+02 -0.59000500077E+02 -0.85557924483E+01  0.66075307540E+02  0.41800000000E+01 0.  1.
         -5    1    3    3    0  502 -0.19366720538E+02  0.24106187552E+02 -0.11573223376E+03  0.11986492596E+03  0.41800000000E+01 0.  1.
        -11    1    4    4    0    0  0.39375887754E+02 -0.11192605425E+02 -0.32837817089E+02  0.52479111881E+02  0.00000000000E+00 0.  1.
         11    1    4    4    0    0  0.81726225222E+01  0.46086917949E+02  0.29789813226E+02  0.55481787435E+02  0.00000000000E+00 0. -1.
</event>
<event>
 8    1  0.4798744E-006  0.1911311E+03  0.7561462E-02  0.1157445E+00
         -2   -1    0    0    0  501 -0.00000000000E+00  0.00000000000E+00  0.56911653889E+02  0.56911653889E+02  0.00000000000E+00 0.  1.
          2   -1    0    0  501    0  0.00000000000E+00 -0.00000000000E+00 -0.77016708517E+03  0.77016708517E+03  0.00000000000E+00 0. -1.
         23    2    1    2    0    0 -0.15446751208E+03  0.88644995228E+02 -0.40072280210E+03  0.45600937242E+03  0.12509051182E+03 0.  0.
         23    2    1    2    0    0  0.15446751208E+03 -0.88644995228E+02 -0.31253262918E+03  0.37106936664E+03  0.91091619200E+02 0.  0.
          5    1    3    3  502    0 -0.13692329911E+03  0.37845104126E+02 -0.18295306804E+03  0.23166687128E+03  0.41800000000E+01 0.  1.
         -5    1    3    3    0  502 -0.17544212969E+02  0.50799891103E+02 -0.21776973406E+03  0.22434250114E+03  0.41800000000E+01 0.  1.
        -11    1    4    4    0    0  0.14771296324E+03 -0.64528332661E+02 -0.20566630472E+03  0.26130758527E+03  0.00000000000E+00 0.  1.
         11    1    4    4    0    0  0.67545488311E+01 -0.24116662567E+02 -0.10686632447E+03  0.10976178137E+03  0.00000000000E+00 0. -1.
</event>
<event>
 8    1  0.4798744E-006  0.1359557E+03  0.7561462E-02  0.1218877E+00
          4   -1    0    0  501    0  0.00000000000E+00  0.00000000000E+00  0.12717496930E+03  0.12717496930E+03  0.00000000000E+00 0.  1.
         -4   -1    0    0    0  501 -0.00000000000E+00 -0.00000000000E+00 -0.16444186655E+03  0.16444186655E+03  0.00000000000E+00 0. -1.
         23    2    1    2    0    0  0.58491405070E+02 -0.56716735616E+02 -0.66110028147E+02  0.16326498683E+03  0.12508751951E+03 0.  0.
         23    2    1    2    0    0 -0.58491405070E+02  0.56716735616E+02  0.28843130898E+02  0.12835184902E+03  0.94890665405E+02 0.  0.
          5    1    3    3  502    0  0.61249554841E+02  0.25235796850E+02 -0.37981385145E+02  0.76474907182E+02  0.41800000000E+01 0.  1.
         -5    1    3    3    0  502 -0.27581497715E+01 -0.81952532466E+02 -0.28128643002E+02  0.86790079645E+02  0.41800000000E+01 0.  1.
        -11    1    4    4    0    0 -0.81347079391E+02  0.58955789547E+02  0.15111995744E+02  0.10159480726E+03  0.00000000000E+00 0. -1.
         11    1    4    4    0    0  0.22855674321E+02 -0.22390539316E+01  0.13731135154E+02  0.26757041761E+02  0.00000000000E+00 0.  1.
</event>
<event>
 8    1  0.4798744E-006  0.8768339E+02  0.7561462E-02  0.1308561E+00
         -1   -1    0    0    0  501 -0.00000000000E+00  0.00000000000E+00  0.75267460416E+03  0.75267460416E+03  0.00000000000E+00 0.  1.
          1   -1    0    0  501    0  0.00000000000E+00 -0.00000000000E+00 -0.22099249406E+02  0.22099249406E+02  0.00000000000E+00 0. -1.
         23    2    1    2    0    0 -0.31774827661E+02 -0.69437455176E+01  0.67652104202E+03  0.68875676568E+03  0.12508919497E+03 0.  0.
         23    2    1    2    0    0  0.31774827661E+02  0.69437455176E+01  0.54054312732E+02  0.86017087885E+02  0.58474057569E+02 0.  0.
          5    1    3    3  502    0  0.35038764272E+02  0.19532716925E+02  0.43144667043E+03  0.43332775570E+03  0.41800000000E+01 0. -1.
         -5    1    3    3    0  502 -0.66813591933E+02 -0.26476462443E+02  0.24507437159E+03  0.25542900998E+03  0.41800000000E+01 0. -1.
        -11    1    4    4    0    0 -0.35595195615E+01 -0.18922425843E+02  0.31093811085E+02  0.36572578075E+02  0.00000000000E+00 0.  1.
         11    1    4    4    0    0  0.35334347223E+02  0.25866171360E+02  0.22960501648E+02  0.49444509811E+02  0.00000000000E+00 0. -1.
</event>
<event>
 7    1  0.4798744E-006  0.1532056E+03  0.7561462E-02  0.1196588E+00
         -1   -1    0    0    0  501 -0.00000000000E+00  0.00000000000E+00  0.50595629269E+02  0.50595629269E+02  0.00000000000E+00 0.  1.
          1   -1    0    0  501    0  0.00000000000E+00 -0.00000000000E+00 -0.53663393757E+03  0.53663393757E+03  0.00000000000E+00 0. -1.
         23    2    1    2    0    0  0.42043819574E+01 -0.82152998138E+02 -0.27565990338E+03  0.30520228911E+03  0.10194735414E+03 0.  0.
          5    1    1    2  502    0 -0.63831050192E+02  0.10058777746E+03 -0.10197481694E+03  0.15687141114E+03  0.41800000000E+01 0. -1.
         -5    1    1    2    0  502  0.59626668235E+02 -0.18434779325E+02 -0.10840358798E+03  0.12515586659E+03  0.41800000000E+01 0.  1.
        -11    1    3    3    0    0  0.23411252105E+02  0.13546099671E+02 -0.27665248201E+02  0.38690431626E+02  0.00000000000E+00 0.  1.
         11    1    3    3    0    0 -0.19206870147E+02 -0.95699097809E+02 -0.24799465518E+03  0.26651185748E+03  0.00000000000E+00 0. -1.
</event>
<event>
 8    1  0.4798744E-006  0.1299098E+03  0.7561462E-02  0.1227590E+00
          2   -1    0    0  501    0  0.00000000000E+00  0.00000000000E+00  0.98001177813E+02  0.98001177813E+02  0.00000000000E+00 0. -1.
         -2   -1    0    0    0  501 -0.00000000000E+00 -0.00000000000E+00 -0.21241723174E+03  0.21241723174E+03  0.00000000000E+00 0.  1.
         23    2    1    2    0    0  0.28502101536E+02  0.83373696752E+02 -0.10165333167E+03  0.18369428638E+03  0.12508656165E+03 0.  0.
         23    2    1    2    0    0 -0.28502101536E+02 -0.83373696752E+02 -0.12762722254E+02  0.12672412317E+03  0.90180780730E+02 0.  0.
          5    1    3    3  502    0  0.74659854201E+02  0.25887002031E+02 -0.50754494611E+02  0.94009158206E+02  0.41800000000E+01 0.  1.
         -5    1    3    3    0  502 -0.46157752665E+02  0.57486694721E+02 -0.50898837062E+02  0.89685128172E+02  0.41800000000E+01 0.  1.
        -11    1    4    4    0    0  0.16535058546E+02 -0.44072271599E+02  0.27629818734E+02  0.54581866662E+02  0.00000000000E+00 0. -1.
         11    1    4    4    0    0 -0.45037160082E+02 -0.39301425152E+02 -0.40392540989E+02  0.72142256513E+02  0.00000000000E+00 0.  1.
</event>
<event>
 8    1  0.4798744E-006  0.1995650E+03  0.7561462E-02  0.1150107E+00
         -1   -1    0    0    0  501 -0.00000000000E+00  0.00000000000E+00  0.22448254137E+03  0.22448254137E+03  0.00000000000E+00 0.  1.
          1   -1    0    0  501    0  0.00000000000E+00 -0.00000000000E+00 -0.21642049806E+03  0.21642049806E+03  0.00000000000E+00 0. -1.
         23    2    1    2    0    0  0.72904393940E+02  0.17157765847E+03  0.47058795537E+02  0.22939909320E+03  0.12512182137E+03 0.  0.
         23    2    1    2    0    0 -0.72904393940E+02 -0.17157765847E+03 -0.38996752235E+02  0.21150394623E+03  0.91974067233E+02 0.  0.
          5    1    3    3  502    0  0.82343402138E+02  0.83068478046E+02 -0.18871405436E+02  0.11855129803E+03  0.41800000000E+01 0. -1.
         -5    1    3    3    0  502 -0.94390081985E+01  0.88509180423E+02  0.65930200973E+02  0.11084779518E+03  0.41800000000E+01 0. -1.
        -11    1    4    4    0    0 -0.65211112228E+02 -0.90541564403E+02  0.16768617697E+02  0.11283372981E+03  0.00000000000E+00 0.  1.
         11    1    4    4    0    0 -0.76932817117E+01 -0.81036094066E+02 -0.55765369932E+02  0.98670216421E+02  0.00000000000E+00 0. -1.
</event>
<event>
 8    1  0.4798744E-006  0.6725720E+02  0.7561462E-02  0.1369676E+00
         -1   -1    0    0    0  501 -0.00000000000E+00  0.00000000000E+00  0.11109109899E+03  0.11109109899E+03  0.00000000000E+00 0.  1.
          1   -1    0    0  501    0  0.00000000000E+00 -0.00000000000E+00 -0.13160709502E+03  0.13160709502E+03  0.00000000000E+00 0. -1.
         23    2    1    2    0    0 -0.19293617744E+02 -0.39971056699E+02  0.14140711294E+02  0.13348340412E+03  0.12509168797E+03 0.  0.
         23    2    1    2    0    0  0.19293617744E+02  0.39971056699E+02 -0.34656707319E+02  0.10921478989E+03  0.93578063186E+02 0.  0.
          5    1    3    3  502    0 -0.21082571513E+02  0.64373689211E+01 -0.49639805712E+02  0.54474739571E+02  0.41800000000E+01 0.  1.
         -5    1    3    3    0  502  0.17889537697E+01 -0.46408425620E+02  0.63780517006E+02  0.79008664548E+02  0.41800000000E+01 0.  1.
        -11    1    4    4    0    0 -0.14135870563E+02  0.10998753995E+01  0.26108866644E+02  0.29710359807E+02  0.00000000000E+00 0.  1.
         11    1    4    4    0    0  0.33429488306E+02  0.38871181299E+02 -0.60765573962E+02  0.79504430084E+02  0.00000000000E+00 0. -1.
</event>
<event>
 6    1  0.4798744E-006  0.1431398E+03  0.7561462E-02  0.1209166E+00
         -2   -1    0    0    0  501 -0.00000000000E+00  0.00000000000E+00  0.53625057196E+03  0.53625057196E+03  0.00000000000E+00 0.  1.
          2   -1    0    0  501    0  0.00000000000E+00 -0.00000000000E+00 -0.48823228183E+02  0.48823228183E+02  0.00000000000E+00 0. -1.
          5    1    1    2  502    0  0.93063993938E+02  0.37676890425E+02  0.29087767886E+03  0.30774624530E+03  0.41800000000E+01 0. -1.
         -5    1    1    2    0  502 -0.10046968239E+03  0.38470714380E+02  0.15308706914E+03  0.18715575354E+03  0.41800000000E+01 0.  1.
        -11    1    1    2    0    0  0.97776651363E+01 -0.23865294408E+02  0.81928973058E+01  0.27060646314E+02  0.00000000000E+00 0.  1.
         11    1    1    2    0    0 -0.23719766887E+01 -0.52282310397E+02  0.35269698472E+02  0.63111154990E+02  0.00000000000E+00 0. -1.
</event>
<event>
 8    1  0.4798744E-006  0.8373785E+02  0.7561462E-02  0.1318767E+00
          3   -1    0    0  501    0  0.00000000000E+00  0.00000000000E+00  0.19810139975E+03  0.19810139975E+03  0.00000000000E+00 0. -1.
         -3   -1    0    0    0  501 -0.00000000000E+00 -0.00000000000E+00 -0.99786755611E+02  0.99786755611E+02  0.00000000000E+00 0.  1.
         23    2    1    2    0    0 -0.25471505329E+02 -0.76696800006E+02  0.15664557829E+02  0.14974808155E+03  0.12509161779E+03 0.  0.
         23    2    1    2    0    0  0.25471505329E+02  0.76696800006E+02  0.82650086312E+02  0.14814007381E+03  0.92645820121E+02 0.  0.
          5    1    3    3  502    0 -0.83637098425E+01 -0.36771246070E+02 -0.54927429397E+02  0.66757554479E+02  0.41800000000E+01 0. -1.
         -5    1    3    3    0  502 -0.17107795487E+02 -0.39925553937E+02  0.70591987226E+02  0.82990527075E+02  0.41800000000E+01 0. -1.
        -11    1    4    4    0    0  0.26712556678E+00  0.46770203441E+02  0.96009612490E+02  0.10679592210E+03  0.00000000000E+00 0. -1.
         11    1    4    4    0    0  0.25204379762E+02  0.29926596565E+02 -0.13359526177E+02  0.41344151713E+02  0.00000000000E+00 0.  1.
</event>
<event>
 8    1  0.4798744E-006  0.1311576E+03  0.7561462E-02  0.1225748E+00
          1   -1    0    0  501    0  0.00000000000E+00  0.00000000000E+00  0.45823997898E+02  0.45823997898E+02  0.00000000000E+00 0. -1.
         -1   -1    0    0    0  501 -0.00000000000E+00 -0.00000000000E+00 -0.82161646993E+03  0.82161646993E+03  0.00000000000E+00 0.  1.
         23    2    1    2    0    0 -0.99308306613E+02  0.76303697953E+00 -0.68796894402E+03  0.70626630274E+03  0.12509236774E+03 0.  0.
         23    2    1    2    0    0  0.99308306613E+02 -0.76303697953E+00 -0.87823528012E+02  0.16117416508E+03  0.91659246290E+02 0.  0.
          5    1    3    3  502    0  0.15844881006E+02 -0.33663938205E+02 -0.21572279246E+03  0.21894774851E+03  0.41800000000E+01 0.  1.
         -5    1    3    3    0  502 -0.11515318762E+03  0.34426975185E+02 -0.47224615156E+03  0.48731855424E+03  0.41800000000E+01 0.  1.
        -11    1    4    4    0    0  0.77372537628E+02  0.13368517696E+02 -0.10073747461E+02  0.79162536798E+02  0.00000000000E+00 0. -1.
         11    1    4    4    0    0  0.21935768985E+02 -0.14131554676E+02 -0.77749780551E+02  0.82011628287E+02  0.00000000000E+00 0.  1.
</event>
<event>
 8    1  0.4798744E-006  0.8821482E+02  0.7561462E-02  0.1307233E+00
          1   -1    0    0  501    0  0.00000000000E+00  0.00000000000E+00  0.74560606073E+03  0.74560606073E+03  0.00000000000E+00 0. -1.
         -1   -1    0    0    0  501 -0.00000000000E+00 -0.00000000000E+00 -0.18829895345E+02  0.18829895345E+02  0.00000000000E+00 0.  1.
         23    2    1    2    0    0  0.55848896354E+02  0.77666547993E+01  0.41778376083E+03  0.43680695149E+03  0.11435743046E+03 0.  0.
         23    2    1    2    0    0 -0.55848896354E+02 -0.77666547993E+01  0.30899240455E+03  0.32762900458E+03  0.93193553558E+02 0.  0.
          5    1    3    3  502    0  0.17997933357E+02  0.23934185878E+02  0.37866360724E+03  0.37986888621E+03  0.41800000000E+01 0. -1.
         -5    1    3    3    0  502  0.37850962998E+02 -0.16167531079E+02  0.39120153593E+02  0.56938065283E+02  0.41800000000E+01 0.  1.
        -11    1    4    4    0    0  0.21459768173E+02  0.12587425754E+02  0.11775752435E+03  0.12035696689E+03  0.00000000000E+00 0. -1.
         11    1    4    4    0    0 -0.77308664527E+02 -0.20354080554E+02  0.19123488020E+03  0.20727203769E+03  0.00000000000E+00 0.  1.
</event>
<event>
 8    1  0.4798744E-006  0.7221073E+02  0.7561462E-02  0.1352733E+00
         -2   -1    0    0    0  501 -0.00000000000E+00  0.00000000000E+00  0.59599936183E+02  0.59599936183E+02  0.00000000000E+00 0.  1.
          2   -1    0    0  501    0  0.00000000000E+00 -0.00000000000E+00 -0.27932307966E+03  0.27932307966E+03  0.00000000000E+00 0. -1.
         23    2    1    2    0    0 -0.36908849907E+02 -0.57185120577E+02 -0.11164369107E+03  0.18095289414E+03  0.12508890809E+03 0.  0.
         23    2    1    2    0    0  0.36908849907E+02  0.57185120577E+02 -0.10807945241E+03  0.15797012170E+03  0.92956926043E+02 0.  0.
          5    1    3    3  502    0 -0.33620845911E+02 -0.24070089618E+02  0.19271008149E+02  0.45810202456E+02  0.41800000000E+01 0.  1.
         -5    1    3    3    0  502 -0.32880039964E+01 -0.33115030959E+02 -0.13091469921E+03  0.13514269169E+03  0.41800000000E+01 0.  1.
        -11    1    4    4    0    0  0.16610013890E+02  0.14467638277E+02 -0.10845929527E+03  0.11067350112E+03  0.00000000000E+00 0. -1.
         11    1    4    4    0    0  0.20298836017E+02  0.42717482301E+02  0.37984286281E+00  0.47296620581E+02  0.00000000000E+00 0.  1.
</event>
<event>
 8    1  0.4798744E-006  0.1542486E+03  0.7561462E-02  0.1195347E+00
          2   -1    0    0  501    0  0.00000000000E+00  0.00000000000E+00  0.93308812312E+03  0.93308812312E+03  0.00000000000E+00 0. -1.
         -2   -1    0    0    0  501 -0.00000000000E+00 -0.00000000000E+00 -0.30847399882E+02  0.30847399882E+02  0.00000000000E+00 0.  1.
         23    2    1    2    0    0  0.12310273950E+03 -0.78039435103E+00  0.36245652135E+03  0.40271269030E+03  0.12509151678E+03 0.  0.
         23    2    1    2    0    0 -0.12310273950E+03  0.78039435103E+00  0.53978420189E+03  0.56122283270E+03  0.91919474823E+02 0.  0.
          5    1    3    3  502    0  0.12122055140E+03  0.34148809162E+02  0.19927880020E+03  0.23577547764E+03  0.41800000000E+01 0.  1.
         -5    1    3    3    0  502  0.18821881035E+01 -0.34929203513E+02  0.16317772115E+03  0.16693721266E+03  0.41800000000E+01 0.  1.
        -11    1    4    4    0    0 -0.10199760089E+03 -0.33195202041E+02  0.45507864574E+03  0.46754893416E+03  0.00000000000E+00 0. -1.
         11    1    4    4    0    0 -0.21105138604E+02  0.33975596392E+02  0.84705556152E+02  0.93673898546E+02  0.00000000000E+00 0.  1.
</event>
<event>
 8    1  0.4798744E-006  0.1599710E+03  0.7561462E-02  0.1188730E+00
          1   -1    0    0  501    0  0.00000000000E+00  0.00000000000E+00  0.92377828366E+03  0.92377828366E+03  0.00000000000E+00 0. -1.
         -1   -1    0    0    0  501 -0.00000000000E+00 -0.00000000000E+00 -0.31364306039E+02  0.31364306039E+02  0.00000000000E+00 0.  1.
         23    2    1    2    0    0  0.92511399412E+02 -0.86448546724E+02  0.38914978740E+03  0.42792178760E+03  0.12509112287E+03 0.  0.
         23    2    1    2    0    0 -0.92511399412E+02  0.86448546724E+02  0.50326419022E+03  0.52722080209E+03  0.93033428126E+02 0.  0.
          5    1    3    3  502    0 -0.28282890613E+02  0.12319519418E+01  0.66395452044E+02  0.72299848265E+02  0.41800000000E+01 0. -1.
         -5    1    3    3    0  502  0.12079429003E+03 -0.87680498666E+02  0.32275433536E+03  0.35562193934E+03  0.41800000000E+01 0. -1.
        -11    1    4    4    0    0 -0.11403637603E+02  0.53096762196E+02  0.31354213517E+03  0.31821059007E+03  0.00000000000E+00 0. -1.
         11    1    4    4    0    0 -0.81107761809E+02  0.33351784528E+02  0.18972205505E+03  0.20901021202E+03  0.00000000000E+00 0.  1.
</event>
<event>
 7    1  0.4798744E-006  0.1616844E+03  0.7561462E-02  0.1186808E+00
         -2   -1    0    0    0  501 -0.00000000000E+00  0.00000000000E+00  0.59532015497E+02  0.59532015497E+02  0.00000000000E+00 0.  1.
          2   -1    0    0  501    0  0.00000000000E+00 -0.00000000000E+00 -0.56523921631E+03  0.56523921631E+03  0.00000000000E+00 0. -1.
         23    2    1    2    0    0  0.55535845411E+02 -0.39563321511E+02 -0.24516445603E+03  0.26977056967E+03  0.89560388692E+02 0.  0.
          5    1    1    2  502    0 -0.12811415289E+03  0.49606006870E+02 -0.24357023084E+03  0.27967467143E+03  0.41800000000E+01 0. -1.
         -5    1    1    2    0  502  0.72578307482E+02 -0.10042685359E+02 -0.16972513936E+02  0.75325990704E+02  0.41800000000E+01 0.  1.
        -11    1    3    3    0    0  0.72597627723E+02 -0.35515721749E+01 -0.16130859692E+03  0.17692793069E+03  0.00000000000E+00 0.  1.
         11    1    3    3    0    0 -0.17061782312E+02 -0.36011749336E+02 -0.83855859110E+02  0.92842638981E+02  0.00000000000E+00 0. -1.
</event>
<event>
 8    1  0.4798744E-006  0.8634766E+02  0.7561462E-02  0.1311945E+00
         -2   -1    0    0    0  501 -0.00000000000E+00  0.00000000000E+00  0.16265854977E+03  0.16265854977E+03  0.00000000000E+00 0.  1.
          2   -1    0    0  501    0  0.00000000000E+00 -0.00000000000E+00 -0.81137861377E+02  0.81137861377E+02  0.00000000000E+00 0. -1.
         23    2    1    2    0    0 -0.26420534883E+02  0.36884400942E+01  0.67778931191E+02  0.14475138620E+03  0.12508929227E+03 0.  0.
         23    2    1    2    0    0  0.26420534883E+02 -0.36884400942E+01  0.13741757205E+02  0.99045024949E+02  0.94389786641E+02 0.  0.
          5    1    3    3  502    0 -0.42070014402E+02 -0.40721522945E+02 -0.39659904584E+01  0.58833069128E+02  0.41800000000E+01 0. -1.
         -5    1    3    3    0  502  0.15649479518E+02  0.44409963039E+02  0.71744921649E+02  0.85918317073E+02  0.41800000000E+01 0. -1.
        -11    1    4    4    0    0 -0.19376738759E+02  0.52223805517E+01  0.40543725412E+02  0.45238533728E+02  0.00000000000E+00 0.  1.
         11    1    4    4    0    0  0.45797273642E+02 -0.89108206459E+01 -0.26801968208E+02  0.53806491221E+02  0.00000000000E+00 0. -1.
</event>
<event>
 8    1  0.4798744E-006  0.1418138E+03  0.7561462E-02  0.1210909E+00
         -4   -1    0    0    0  501 -0.00000000000E+00  0.00000000000E+00  0.93895099916E+03  0.93895099916E+03  0.00000000000E+00 0.  1.
          4   -1    0    0  501    0  0.00000000000E+00 -0.00000000000E+00 -0.30631105136E+02  0.30631105136E+02  0.00000000000E+00 0. -1.
         23    2    1    2    0    0 -0.19466367889E+02 -0.10102146579E+03  0.71819594013E+03  0.73623157062E+03  0.12508893287E+03 0.  0.
         23    2    1    2    0    0  0.19466367889E+02  0.10102146579E+03  0.19012395389E+03  0.23335053368E+03  0.87869663111E+02 0.  0.
          5    1    3    3  502    0 -0.60298244559E+02 -0.27376552085E+02  0.45630114476E+03  0.46110038063E+03  0.41800000000E+01 0.  1.
         -5    1    3    3    0  502  0.40831876670E+02 -0.73644913700E+02  0.26189479537E+03  0.27513119000E+03  0.41800000000E+01 0.  1.
        -11    1    4    4    0    0  0.52580871659E+02  0.53237067057E+02  0.12800001947E+03  0.14826644380E+03  0.00000000000E+00 0.  1.
         11    1    4    4    0    0 -0.33114503771E+02  0.47784398729E+02  0.62123934428E+02  0.85084089880E+02  0.00000000000E+00 0. -1.
</event>
<event>
 7    1  0.4798744E-006  0.1238189E+03  0.7561462E-02  0.1236927E+00
          2   -1    0    0  501    0  0.00000000000E+00  0.00000000000E+00  0.36221555119E+03  0.36221555119E+03  0.00000000000E+00 0. -1.
         -2   -1    0    0    0  501 -0.00000000000E+00 -0.00000000000E+00 -0.68555939569E+02  0.68555939569E+02  0.00000000000E+00 0.  1.
         23    2    1    2    0    0  0.62041544029E+02 -0.25865839641E+02  0.20855983687E+03  0.23705207114E+03  0.90433865524E+02 0.  0.
          5    1    1    2  502    0 -0.76347101229E+02 -0.41541996783E+02  0.89132430804E+02  0.12456596639E+03  0.41800000000E+01 0. -1.
         -5    1    1    2    0  502  0.14305557199E+02  0.67407836425E+02 -0.40326560449E+01  0.69153453225E+02  0.41800000000E+01 0.  1.
        -11    1    3    3    0    0  0.44169804691E+02  0.15269237265E+02  0.36659536572E+02  0.59397330536E+02  0.00000000000E+00 0.  1.
         11    1    3    3    0    0  0.17871739339E+02 -0.41135076907E+02  0.17190030029E+03  0.17765474061E+03  0.00000000000E+00 0. -1.
</event>
<event>
 8    1  0.4798744E-006  0.1235297E+03  0.7561462E-02  0.1237385E+00
         -2   -1    0    0    0  501 -0.00000000000E+00  0.00000000000E+00  0.24579775843E+02  0.24579775843E+02  0.00000000000E+00 0.  1.
          2   -1    0    0  501    0  0.00000000000E+00 -0.00000000000E+00 -0.86462453823E+03  0.86462453823E+03  0.00000000000E+00 0. -1.
         23    2    1    2    0    0  0.65572591359E+02 -0.71690364301E+02 -0.47934016943E+03  0.50482868636E+03  0.12508289842E+03 0.  0.
         23    2    1    2    0    0 -0.65572591359E+02  0.71690364301E+02 -0.36070459296E+03  0.38437562771E+03  0.90540304415E+02 0.  0.
          5    1    3    3  502    0  0.57753259840E+02 -0.18532171544E+02 -0.73322314836E+02  0.95249748856E+02  0.41800000000E+01 0. -1.
         -5    1    3    3    0  502  0.78193315196E+01 -0.53158192757E+02 -0.40601785459E+03  0.40957893751E+03  0.41800000000E+01 0. -1.
        -11    1    4    4    0    0 -0.66838410519E+02  0.64858063063E+01 -0.16744030865E+03  0.18040425650E+03  0.00000000000E+00 0.  1.
         11    1    4    4    0    0  0.12658191590E+01  0.65204557995E+02 -0.19326428431E+03  0.20397137121E+03  0.00000000000E+00 0. -1.
</event>
<event>
 8    1  0.4798744E-006  0.1710139E+03  0.7561462E-02  0.1176795E+00
         -1   -1    0    0    0  501 -0.00000000000E+00  0.00000000000E+00  0.72106400260E+03  0.72106400260E+03  0.00000000000E+00 0.  1.
          1   -1    0    0  501    0  0.00000000000E+00 -0.00000000000E+00 -0.83059200702E+02  0.83059200702E+02  0.00000000000E+00 0. -1.
         23    2    1    2    0    0 -0.46326948143E+02 -0.14110430897E+03  0.59097576658E+03  0.62205787462E+03  0.12508809120E+03 0.  0.
         23    2    1    2    0    0  0.46326948143E+02  0.14110430897E+03  0.47029035317E+02  0.18206532868E+03  0.94230789083E+02 0.  0.
          5    1    3    3  502    0 -0.88086267251E+02 -0.95713583043E+02  0.35448253184E+03  0.37761834997E+03  0.41800000000E+01 0.  1.
         -5    1    3    3    0  502  0.41759319108E+02 -0.45390725923E+02  0.23649323474E+03  0.24443952465E+03  0.41800000000E+01 0.  1.
        -11    1    4    4    0    0 -0.15631214870E+01  0.16483090285E+02  0.45641567779E+02  0.48551913695E+02  0.00000000000E+00 0.  1.
         11    1    4    4    0    0  0.47890069630E+02  0.12462121868E+03  0.13874675386E+01  0.13351341499E+03  0.00000000000E+00 0. -1.
</event>
<event>
 8    1  0.4798744E-006  0.8263064E+02  0.7561462E-02  0.1321748E+00
          2   -1    0    0  501    0  0.00000000000E+00  0.00000000000E+00  0.18211880335E+03  0.18211880335E+03  0.00000000000E+00 0. -1.
         -2   -1    0    0    0  501 -0.00000000000E+00 -0.00000000000E+00 -0.67972816191E+02  0.67972816191E+02  0.00000000000E+00 0.  1.
         23    2    1    2    0    0 -0.63980800646E+01  0.22452053876E+02  0.46640168536E+02  0.13561556165E+03  0.12518484369E+03 0.  0.
         23    2    1    2    0    0  0.63980800646E+01 -0.22452053876E+02  0.67505818618E+02  0.11447605788E+03  0.89457823185E+02 0.  0.
          5    1    3    3  502    0 -0.36861432302E+02  0.52616095733E+02 -0.92635337692E+01  0.65042326061E+02  0.41800000000E+01 0.  1.
         -5    1    3    3    0  502  0.30463352237E+02 -0.30164041857E+02  0.55903702305E+02  0.70573235594E+02  0.41800000000E+01 0.  1.
        -11    1    4    4    0    0 -0.20016313179E+01 -0.39105271023E+02  0.81990406293E+02  0.90860637648E+02  0.00000000000E+00 0. -1.
         11    1    4    4    0    0  0.83997113825E+01  0.16653217147E+02 -0.14484587675E+02  0.23615420233E+02  0.00000000000E+00 0.  1.
</event>
<event>
 8    1  0.4798744E-006  0.1544005E+03  0.7561462E-02  0.1195168E+00
         -2   -1    0    0    0  501 -0.00000000000E+00  0.00000000000E+00  0.11393132323E+03  0.11393132323E+03  0.00000000000E+00 0.  1.
          2   -1    0    0  501    0  0.00000000000E+00 -0.00000000000E+00 -0.21816809212E+03  0.21816809212E+03  0.00000000000E+00 0. -1.
         23    2    1    2    0    0 -0.83820500581E+02 -0.78883147428E+02 -0.36442752208E+02  0.17385065794E+03  0.12509016673E+03 0.  0.
         23    2    1    2    0    0  0.83820500581E+02  0.78883147428E+02 -0.67794016676E+02  0.15824875741E+03  0.84842284608E+02 0.  0.
          5    1    3    3  502    0 -0.68287204781E+02  0.15448482438E+02  0.33406407555E+01  0.70217022345E+02  0.41800000000E+01 0.  1.
         -5    1    3    3    0  502 -0.15533295800E+02 -0.94331629865E+02 -0.39783392963E+02  0.10363363560E+03  0.41800000000E+01 0.  1.
        -11    1    4    4    0    0  0.43216683012E+02 -0.10780717933E+02 -0.22399528347E+02  0.49856237723E+02  0.00000000000E+00 0. -1.
         11    1    4    4    0    0  0.40603817569E+02  0.89663865360E+02 -0.45394488329E+02  0.10839251968E+03  0.00000000000E+00 0.  1.
</event>
<event>
 8    1  0.4798744E-006  0.1147524E+03  0.7561462E-02  0.1252014E+00
          3   -1    0    0  501    0  0.00000000000E+00  0.00000000000E+00  0.54971936378E+02  0.54971936378E+02  0.00000000000E+00 0. -1.
         -3   -1    0    0    0  501 -0.00000000000E+00 -0.00000000000E+00 -0.83813135068E+03  0.83813135068E+03  0.00000000000E+00 0.  1.
         23    2    1    2    0    0 -0.15057568067E+02  0.87562106188E+02 -0.74565762266E+03  0.76127964651E+03  0.12509019611E+03 0.  0.
         23    2    1    2    0    0  0.15057568067E+02 -0.87562106188E+02 -0.37501791645E+02  0.13182364055E+03  0.89873438987E+02 0.  0.
          5    1    3    3  502    0 -0.26185688042E+02  0.16416385505E+02 -0.57702981855E+03  0.57787202032E+03  0.41800000000E+01 0. -1.
         -5    1    3    3    0  502  0.11128119975E+02  0.71145720683E+02 -0.16862780410E+03  0.18340762618E+03  0.41800000000E+01 0. -1.
        -11    1    4    4    0    0 -0.36087067397E+02 -0.19406911119E+02 -0.15594035932E+02  0.43841516730E+02  0.00000000000E+00 0.  1.
         11    1    4    4    0    0  0.51144635464E+02 -0.68155195069E+02 -0.21907755713E+02  0.87982123821E+02  0.00000000000E+00 0. -1.
</event>
<event>
 8    1  0.4798744E-006  0.1228274E+03  0.7561462E-02  0.1238504E+00
         -2   -1    0    0    0  501 -0.00000000000E+00  0.00000000000E+00  0.10509908835E+03  0.10509908835E+03  0.00000000000E+00 0.  1.
          2   -1    0    0  501    0  0.00000000000E+00 -0.00000000000E+00 -0.27982289260E+03  0.27982289260E+03  0.00000000000E+00 0. -1.
         23    2    1    2    0    0  0.69639917509E+02 -0.20310204783E+02  0.31868700690E+02  0.14807175125E+03  0.12508959552E+03 0.  0.
         23    2    1    2    0    0 -0.69639917509E+02  0.20310204783E+02 -0.20659250494E+03  0.23685022970E+03  0.90306952555E+02 0.  0.
          5    1    3    3  502    0  0.78413939824E+02 -0.53892909093E+02 -0.73614076206E+01  0.95524103405E+02  0.41800000000E+01 0.  1.
         -5    1    3    3    0  502 -0.87740223151E+01  0.33582704310E+02  0.39230108311E+02  0.52547647849E+02  0.41800000000E+01 0.  1.
        -11    1    4    4    0    0 -0.10526725025E+02  0.48737020533E+02 -0.79814154044E+02  0.94108492157E+02  0.00000000000E+00 0. -1.
         11    1    4    4    0    0 -0.59113192483E+02 -0.28426815750E+02 -0.12677835090E+03  0.14274173754E+03  0.00000000000E+00 0.  1.
</event>
<event>
 8    1  0.4798744E-006  0.1032870E+03  0.7561462E-02  0.1273532E+00
         -2   -1    0    0    0  501 -0.00000000000E+00  0.00000000000E+00  0.10469705379E+03  0.10469705379E+03  0.00000000000E+00 0.  1.
          2   -1    0    0  501    0  0.00000000000E+00 -0.00000000000E+00 -0.18611202424E+03  0.18611202424E+03  0.00000000000E+00 0. -1.
         23    2    1    2    0    0  0.44099105987E+01 -0.43929823924E+02  0.25076284514E+02  0.13500314484E+03  0.12509097621E+03 0.  0.
         23    2    1    2    0    0 -0.44099105987E+01  0.43929823924E+02 -0.10649125496E+03  0.15580593319E+03  0.10481328491E+03 0.  0.
          5    1    3    3  502    0 -0.36191050657E+02 -0.40590003905E+02 -0.33143940138E+02  0.63822674125E+02  0.41800000000E+01 0. -1.
         -5    1    3    3    0  502  0.40600961255E+02 -0.33398200197E+01  0.58220224652E+02  0.71180470714E+02  0.41800000000E+01 0. -1.
        -11    1    4    4    0    0  0.47444197074E+02  0.33782155597E+02 -0.72424317026E+02  0.92937977003E+02  0.00000000000E+00 0. -1.
         11    1    4    4    0    0 -0.51854107672E+02  0.10147668327E+02 -0.34066937931E+02  0.62867956186E+02  0.00000000000E+00 0.  1.
</event>
<event>
 8    1  0.4798744E-006  0.1457962E+03  0.7561462E-02  0.1205736E+00
          2   -1    0    0  501    0  0.00000000000E+00  0.00000000000E+00  0.17731812672E+03  0.17731812672E+03  0.00000000000E+00 0. -1.
         -2   -1    0    0    0  501 -0.00000000000E+00 -0.00000000000E+00 -0.12423682875E+03  0.12423682875E+03  0.00000000000E+00 0.  1.
         23    2    1    2    0    0 -0.30062189219E+02 -0.96630167709E+02  0.36667140806E+02  0.16502532619E+03  0.12509098504E+03 0.  0.
         23    2    1    2    0    0  0.30062189219E+02  0.96630167709E+02  0.16414157167E+02  0.13652962928E+03  0.90165351351E+02 0.  0.
          5    1    3    3  502    0 -0.11148042854E+01  0.28096092246E+02 -0.76983331739E+01  0.29451144659E+02  0.41800000000E+01 0. -1.
         -5    1    3    3    0  502 -0.28947384934E+02 -0.12472625995E+03  0.44365473980E+02  0.13557418153E+03  0.41800000000E+01 0. -1.
        -11    1    4    4    0    0 -0.12296869341E+02 -0.12777863550E+02 -0.17104514204E+01  0.17816072422E+02  0.00000000000E+00 0. -1.
         11    1    4    4    0    0  0.42359058560E+02  0.10940803126E+03  0.18124608588E+02  0.11871355686E+03  0.00000000000E+00 0.  1.
</event>
<event>
 8    1  0.4798744E-006  0.2049640E+03  0.7561462E-02  0.1145617E+00
         -4   -1    0    0    0  501 -0.00000000000E+00  0.00000000000E+00  0.17318785912E+03  0.17318785912E+03  0.00000000000E+00 0. -1.
          4   -1    0    0  501    0  0.00000000000E+00 -0.00000000000E+00 -0.26503488635E+03  0.26503488635E+03  0.00000000000E+00 0.  1.
         23    2    1    2    0    0 -0.16020829967E+03 -0.84684105069E+02 -0.12999322649E+02  0.22057822643E+03  0.12509066573E+03 0.  0.
         23    2    1    2    0    0  0.16020829967E+03  0.84684105069E+02 -0.78847704577E+02  0.21764451904E+03  0.91181572795E+02 0.  0.
          5    1    3    3  502    0 -0.80083180208E+02  0.17597154718E+02  0.23788483414E+02  0.85477131150E+02  0.41800000000E+01 0.  1.
         -5    1    3    3    0  502 -0.80125119460E+02 -0.10228125979E+03 -0.36787806062E+02  0.13510109528E+03  0.41800000000E+01 0.  1.
        -11    1    4    4    0    0  0.90438893324E+02  0.90344451975E+02 -0.73464242792E+02  0.14743916846E+03  0.00000000000E+00 0.  1.
         11    1    4    4    0    0  0.69769406345E+02 -0.56603469067E+01 -0.53834617854E+01  0.70205350576E+02  0.00000000000E+00 0. -1.
</event>
<event>
 8    1  0.4798744E-006  0.1071075E+03  0.7561462E-02  0.1266022E+00
         -1   -1    0    0    0  501 -0.00000000000E+00  0.00000000000E+00  0.14826203260E+03  0.14826203260E+03  0.00000000000E+00 0.  1.
          1   -1    0    0  501    0  0.00000000000E+00 -0.00000000000E+00 -0.86900962389E+02  0.86900962389E+02  0.00000000000E+00 0. -1.
         23    2    1    2    0    0  0.22796571701E+02 -0.15529251844E+02  0.55655290842E+02  0.13966424687E+03  0.12509096335E+03 0.  0.
         23    2    1    2    0    0 -0.22796571701E+02  0.15529251844E+02  0.57057793724E+01  0.95498748119E+02  0.91250280163E+02 0.  0.
          5    1    3    3  502    0  0.10660207017E+02  0.54412307195E+02  0.34651522167E+02  0.65517475351E+02  0.41800000000E+01 0. -1.
         -5    1    3    3    0  502  0.12136364684E+02 -0.69941559039E+02  0.21003768675E+02  0.74146771521E+02  0.41800000000E+01 0. -1.
        -11    1    4    4    0    0 -0.46241027064E+02 -0.15357479558E+02  0.21970705439E+02  0.53449009905E+02  0.00000000000E+00 0.  1.
         11    1    4    4    0    0  0.23444455363E+02  0.30886731402E+02 -0.16264926067E+02  0.42049738214E+02  0.00000000000E+00 0. -1.
</event>
<event>
 8    1  0.4798744E-006  0.6522451E+02  0.7561462E-02  0.1377129E+00
         -1   -1    0    0    0  501 -0.00000000000E+00  0.00000000000E+00  0.16137389583E+03  0.16137389583E+03  0.00000000000E+00 0.  1.
          1   -1    0    0  501    0  0.00000000000E+00 -0.00000000000E+00 -0.88006504909E+02  0.88006504909E+02  0.00000000000E+00 0. -1.
         23    2    1    2    0    0  0.25975618855E+02  0.27538845131E+02  0.74186303123E+02  0.15027927850E+03  0.12508850150E+03 0.  0.
         23    2    1    2    0    0 -0.25975618855E+02 -0.27538845131E+02 -0.81891220179E+00  0.99101122244E+02  0.91581881651E+02 0.  0.
          5    1    3    3  502    0  0.29059981256E+02  0.21237370779E+02 -0.29221358380E+02  0.46549636022E+02  0.41800000000E+01 0. -1.
         -5    1    3    3    0  502 -0.30843624007E+01  0.63014743523E+01  0.10340766150E+03  0.10372964247E+03  0.41800000000E+01 0. -1.
        -11    1    4    4    0    0 -0.10667839135E+02  0.27195327462E+02  0.23293973525E+02  0.37363054348E+02  0.00000000000E+00 0.  1.
         11    1    4    4    0    0 -0.15307779720E+02 -0.54734172593E+02 -0.24112885727E+02  0.61738067896E+02  0.00000000000E+00 0. -1.
</event>
<event>
 8    1  0.4798744E-006  0.1290467E+03  0.7561462E-02  0.1228877E+00
          1   -1    0    0  501    0  0.00000000000E+00  0.00000000000E+00  0.14207391795E+03  0.14207391795E+03  0.00000000000E+00 0. -1.
         -1   -1    0    0    0  501 -0.00000000000E+00 -0.00000000000E+00 -0.14578486576E+03  0.14578486576E+03  0.00000000000E+00 0.  1.
         23    2    1    2    0    0  0.59369520814E+02 -0.40298357258E+02 -0.63197401165E+02  0.15744070171E+03  0.12507983627E+03 0.  0.
         23    2    1    2    0    0 -0.59369520814E+02  0.40298357258E+02  0.59486453353E+02  0.13041808200E+03  0.91222477394E+02 0.  0.
          5    1    3    3  502    0 -0.39354577087E+02 -0.10111817967E+02 -0.19410063197E+02  0.45224490639E+02  0.41800000000E+01 0. -1.
         -5    1    3    3    0  502  0.98724097901E+02 -0.30186539291E+02 -0.43787337968E+02  0.11221621107E+03  0.41800000000E+01 0. -1.
        -11    1    4    4    0    0  0.21893933427E+02 -0.25767759479E+01  0.22298336123E+01  0.22157532650E+02  0.00000000000E+00 0. -1.
         11    1    4    4    0    0 -0.81263454240E+02  0.42875133206E+02  0.57256619741E+02  0.10826054935E+03  0.00000000000E+00 0.  1.
</event>
<event>
 8    1  0.4798744E-006  0.1043355E+03  0.7561462E-02  0.1271434E+00
         -1   -1    0    0    0  501 -0.00000000000E+00  0.00000000000E+00  0.38746747050E+02  0.38746747050E+02  0.00000000000E+00 0.  1.
          1   -1    0    0  501    0  0.00000000000E+00 -0.00000000000E+00 -0.34284270876E+03  0.34284270876E+03  0.00000000000E+00 0. -1.
         23    2    1    2    0    0  0.20297651161E+02  0.43376945005E+02 -0.17336945738E+03  0.21909002484E+03  0.12509962523E+03 0.  0.
         23    2    1    2    0    0 -0.20297651161E+02 -0.43376945005E+02 -0.13072650433E+03  0.16249943096E+03  0.83803890899E+02 0.  0.
          5    1    3    3  502    0  0.55777886244E+02 -0.18354401796E+02 -0.10451431492E+03  0.11995320372E+03  0.41800000000E+01 0. -1.
         -5    1    3    3    0  502 -0.35480235083E+02  0.61731346801E+02 -0.68855142462E+02  0.99136821126E+02  0.41800000000E+01 0. -1.
        -11    1    4    4    0    0 -0.14736568842E+02  0.14299885398E+02 -0.88370807221E+02  0.90725149503E+02  0.00000000000E+00 0. -1.
         11    1    4    4    0    0 -0.55610823195E+01 -0.57676830403E+02 -0.42355697105E+02  0.71774281460E+02  0.00000000000E+00 0.  1.
</event>
<event>
 8    1  0.4798744E-006  0.1038940E+03  0.7561462E-02  0.1272314E+00
         -2   -1    0    0    0  501 -0.00000000000E+00  0.00000000000E+00  0.20043700459E+03  0.20043700459E+03  0.00000000000E+00 0.  1.
          2   -1    0    0  501    0  0.00000000000E+00 -0.00000000000E+00 -0.76792778781E+02  0.76792778781E+02  0.00000000000E+00 0. -1.
         23    2    1    2    0    0 -0.37864873864E+02  0.42530109609E+02  0.75211268455E+02  0.15665503573E+03  0.12506600826E+03 0.  0.
         23    2    1    2    0    0  0.37864873864E+02 -0.42530109609E+02  0.48432957357E+02  0.12057474764E+03  0.94604225672E+02 0.  0.
          5    1    3    3  502    0 -0.63840517002E+02  0.13004223470E+02  0.92725657550E+02  0.11340300440E+03  0.41800000000E+01 0.  1.
         -5    1    3    3    0  502  0.25975643138E+02  0.29525886139E+02 -0.17514389095E+02  0.43252031329E+02  0.41800000000E+01 0.  1.
        -11    1    4    4    0    0  0.51432845034E+02 -0.61157792145E+02  0.17166482603E+02  0.81733109652E+02  0.00000000000E+00 0. -1.
         11    1    4    4    0    0 -0.13567971170E+02  0.18627682537E+02  0.31266474754E+02  0.38841637992E+02  0.00000000000E+00 0.  1.
</event>
<event>
 8    1  0.4798744E-006  0.2342449E+03  0.7561462E-02  0.1123687E+00
          2   -1    0    0  501    0  0.00000000000E+00  0.00000000000E+00  0.15827147967E+04  0.15827147967E+04  0.00000000000E+00 0. -1.
         -2   -1    0    0    0  501 -0.00000000000E+00 -0.00000000000E+00 -0.56655758631E+02  0.56655758631E+02  0.00000000000E+00 0.  1.
         23    2    1    2    0    0 -0.86712363091E+02  0.20198625524E+03  0.30960706663E+03  0.39978064692E+03  0.12510215316E+03 0.  0.
         23    2    1    2    0    0  0.86712363091E+02 -0.20198625524E+03  0.12164519714E+04  0.12395899084E+04  0.92251075835E+02 0.  0.
          5    1    3    3  502    0 -0.23797502761E+02  0.14194168427E+03  0.10740948675E+03  0.17963305129E+03  0.41800000000E+01 0.  1.
         -5    1    3    3    0  502 -0.62914860329E+02  0.60044570974E+02  0.20219757989E+03  0.22014759564E+03  0.41800000000E+01 0.  1.
        -11    1    4    4    0    0  0.28190798861E+02 -0.16677072182E+03  0.81441811222E+03  0.83179568182E+03  0.00000000000E+00 0.  1.
         11    1    4    4    0    0  0.58521564229E+02 -0.35215533422E+02  0.40203385917E+03  0.40779422653E+03  0.00000000000E+00 0. -1.
</event>
<event>
 8    1  0.4798744E-006  0.1578925E+03  0.7561462E-02  0.1191097E+00
         -2   -1    0    0    0  501 -0.00000000000E+00  0.00000000000E+00  0.62668234888E+02  0.62668234888E+02  0.00000000000E+00 0.  1.
          2   -1    0    0  501    0  0.00000000000E+00 -0.00000000000E+00 -0.60458390429E+03  0.60458390429E+03  0.00000000000E+00 0. -1.
         23    2    1    2    0    0 -0.41418002669E+02  0.10854248932E+03 -0.91623233932E+02  0.19375250300E+03  0.12509313526E+03 0.  0.
         23    2    1    2    0    0  0.41418002669E+02 -0.10854248932E+03 -0.45029243546E+03  0.47349963617E+03  0.89116244796E+02 0.  0.
          5    1    3    3  502    0  0.43756165189E+02  0.21874106385E+02 -0.28135120349E+02  0.56587418382E+02  0.41800000000E+01 0.  1.
         -5    1    3    3    0  502 -0.85174167858E+02  0.86668382940E+02 -0.63488113583E+02  0.13716508462E+03  0.41800000000E+01 0.  1.
        -11    1    4    4    0    0  0.69223863885E+01 -0.11034078768E+03 -0.36808090386E+03  0.38432611237E+03  0.00000000000E+00 0.  1.
         11    1    4    4    0    0  0.34495616281E+02  0.17982983592E+01 -0.82211531601E+02  0.89173523805E+02  0.00000000000E+00 0. -1.
</event>
<event>
 8    1  0.4798744E-006  0.2595898E+03  0.7561462E-02  0.1107390E+00
         -2   -1    0    0    0  501 -0.00000000000E+00  0.00000000000E+00  0.92399711626E+02  0.92399711626E+02  0.00000000000E+00 0. -1.
          2   -1    0    0  501    0  0.00000000000E+00 -0.00000000000E+00 -0.89169685215E+03  0.89169685215E+03  0.00000000000E+00 0.  1.
         23    2    1    2    0    0 -0.24772815730E+03 -0.40021905189E+02 -0.26073918840E+03  0.38289087451E+03  0.12509798001E+03 0.  0.
         23    2    1    2    0    0  0.24772815730E+03  0.40021905189E+02 -0.53855795213E+03  0.60120568927E+03  0.91829299245E+02 0.  0.
          5    1    3    3  502    0 -0.95379512248E+02 -0.39892029130E+01 -0.23130125558E+02  0.98313987840E+02  0.41800000000E+01 0.  1.
         -5    1    3    3    0  502 -0.15234864505E+03 -0.36032702276E+02 -0.23760906284E+03  0.28457688667E+03  0.41800000000E+01 0.  1.
        -11    1    4    4    0    0  0.47445525603E+02  0.46769052981E+02 -0.14455554590E+03  0.15916886652E+03  0.00000000000E+00 0.  1.
         11    1    4    4    0    0  0.20028263169E+03 -0.67471477920E+01 -0.39400240622E+03  0.44203682275E+03  0.00000000000E+00 0. -1.
</event>
<event>
 8    1  0.4798744E-006  0.1790552E+03  0.7561462E-02  0.1168721E+00
         -2   -1    0    0    0  501 -0.00000000000E+00  0.00000000000E+00  0.46642388146E+03  0.46642388146E+03  0.00000000000E+00 0.  1.
          2   -1    0    0  501    0  0.00000000000E+00 -0.00000000000E+00 -0.83926686255E+02  0.83926686255E+02  0.00000000000E+00 0. -1.
         23    2    1    2    0    0 -0.98152426056E+02  0.99026900586E+02  0.30660983755E+03  0.35930041246E+03  0.12508784167E+03 0.  0.
         23    2    1    2    0    0  0.98152426056E+02 -0.99026900586E+02  0.75887357662E+02  0.19105015526E+03  0.10630637324E+03 0.  0.
          5    1    3    3  502    0  0.20304995590E+02 -0.10385248503E+02  0.20985714313E+02  0.31273292721E+02  0.41800000000E+01 0.  1.
         -5    1    3    3    0  502 -0.11845742165E+03  0.10941214909E+03  0.28562412323E+03  0.32802711974E+03  0.41800000000E+01 0.  1.
        -11    1    4    4    0    0  0.84522900933E+02 -0.11815549112E+02  0.50651540996E+02  0.99243672787E+02  0.00000000000E+00 0.  1.
         11    1    4    4    0    0  0.13629525123E+02 -0.87211351475E+02  0.25235816665E+02  0.91806482472E+02  0.00000000000E+00 0. -1.
</event>
<event>
 7    1  0.4798744E-006  0.1068141E+03  0.7561462E-02  0.1266586E+00
          1   -1    0    0  501    0  0.00000000000E+00  0.00000000000E+00  0.18797003056E+03  0.18797003056E+03  0.00000000000E+00 0. -1.
         -1   -1    0    0    0  501 -0.00000000000E+00 -0.00000000000E+00 -0.33371562961E+03  0.33371562961E+03  0.00000000000E+00 0.  1.
         23    2    1    2    0    0  0.43376153660E+01  0.49241220935E+01  0.15712458149E+03  0.18240358765E+03  0.92411432158E+02 0.  0.
          5    1    1    2  502    0 -0.46180070437E+02 -0.53211868633E+02 -0.76744495998E+02  0.10426548775E+03  0.41800000000E+01 0. -1.
         -5    1    1    2    0  502  0.41842455071E+02  0.48287746540E+02 -0.22612568453E+03  0.23501658477E+03  0.41800000000E+01 0.  1.
        -11    1    3    3    0    0 -0.15612354441E+02 -0.32809193193E+02  0.12147172355E+03  0.12678946483E+03  0.00000000000E+00 0. -1.
         11    1    3    3    0    0  0.19949969807E+02  0.37733315287E+02  0.35652857938E+02  0.55614122819E+02  0.00000000000E+00 0.  1.
</event>
<event>
 8    1  0.4798744E-006  0.1581830E+03  0.7561462E-02  0.1190764E+00
         -1   -1    0    0    0  501 -0.00000000000E+00  0.00000000000E+00  0.28396828914E+03  0.28396828914E+03  0.00000000000E+00 0.  1.
          1   -1    0    0  501    0  0.00000000000E+00 -0.00000000000E+00 -0.11660002810E+03  0.11660002810E+03  0.00000000000E+00 0. -1.
         23    2    1    2    0    0 -0.39970114495E+02  0.13691665863E+03  0.70144485926E+02  0.20226611991E+03  0.12509017905E+03 0.  0.
         23    2    1    2    0    0  0.39970114495E+02 -0.13691665863E+03  0.97223775119E+02  0.19830219732E+03  0.97609003434E+02 0.  0.
          5    1    3    3  502    0 -0.22486773682E+02  0.14195877460E+03  0.15621913434E+02  0.14463562928E+03  0.41800000000E+01 0.  1.
         -5    1    3    3    0  502 -0.17483340813E+02 -0.50421159726E+01  0.54522572492E+02  0.57630490633E+02  0.41800000000E+01 0.  1.
        -11    1    4    4    0    0 -0.42432204032E+01 -0.87481207593E+02  0.98708020750E+02  0.13196302498E+03  0.00000000000E+00 0.  1.
         11    1    4    4    0    0  0.44213334899E+02 -0.49435451039E+02 -0.14842456309E+01  0.66339172345E+02  0.00000000000E+00 0. -1.
</event>
<event>
 8    1  0.4798744E-006  0.1204600E+03  0.7561462E-02  0.1242340E+00
         -2   -1    0    0    0  501 -0.00000000000E+00  0.00000000000E+00  0.37894981849E+02  0.37894981849E+02  0.00000000000E+00 0. -1.
          2   -1    0    0  501    0  0.00000000000E+00 -0.00000000000E+00 -0.49110925556E+03  0.49110925556E+03  0.00000000000E+00 0.  1.
         23    2    1    2    0    0  0.51439192299E+01 -0.84451031367E+02 -0.26183896362E+03  0.30226292870E+03  0.12507916928E+03 0.  0.
         23    2    1    2    0    0 -0.51439192299E+01  0.84451031367E+02 -0.19137531009E+03  0.22674130872E+03  0.87342287362E+02 0.  0.
          5    1    3    3  502    0  0.54704624713E+02 -0.66560433406E+02 -0.10026328397E+03  0.13226142965E+03  0.41800000000E+01 0. -1.
         -5    1    3    3    0  502 -0.49560705483E+02 -0.17890597961E+02 -0.16157567965E+03  0.17000149904E+03  0.41800000000E+01 0. -1.
        -11    1    4    4    0    0  0.25404928154E+02  0.47455633419E+02 -0.16147098194E+03  0.17020671410E+03  0.00000000000E+00 0.  1.
         11    1    4    4    0    0 -0.30548847384E+02  0.36995397948E+02 -0.29904328154E+02  0.56534594614E+02  0.00000000000E+00 0. -1.
</event>
<event>
 8    1  0.5981765E-006  0.2577460E+03  0.7561462E-02  0.1108505E+00
         -2   -1    0    0    0  501 -0.00000000000E+00  0.00000000000E+00  0.14125145557E+03  0.14125145557E+03  0.00000000000E+00 0.  1.
          2   -1    0    0  501    0  0.00000000000E+00 -0.00000000000E+00 -0.51009596443E+03  0.51009596443E+03  0.00000000000E+00 0. -1.
         23    2    1    2    0    0  0.23019071429E+03  0.78185686343E+02 -0.15026773707E+03  0.31197464052E+03  0.12508803711E+03 0.  0.
         23    2    1    2    0    0 -0.23019071429E+03 -0.78185686343E+02 -0.21857677179E+03  0.33937277948E+03  0.91089581111E+02 0.  0.
          5    1    3    3  502    0  0.20081908926E+03  0.10527442156E+03 -0.14981871107E+03  0.27179795628E+03  0.41800000000E+01 0. -1.
         -5    1    3    3    0  502  0.29371625028E+02 -0.27088735219E+02 -0.44902599782E+00  0.40176684245E+02  0.41800000000E+01 0. -1.
        -11    1    4    4    0    0 -0.14299844947E+03 -0.21665116994E+02 -0.77279628398E+02  0.16398193440E+03  0.00000000000E+00 0.  1.
         11    1    4    4    0    0 -0.87192264823E+02 -0.56520569349E+02 -0.14129714339E+03  0.17539084507E+03  0.00000000000E+00 0. -1.
</event>
<event>
 8    1  0.4798744E-006  0.9898399E+02  0.7561462E-02  0.1282447E+00
          2   -1    0    0  501    0  0.00000000000E+00  0.00000000000E+00  0.98372425159E+02  0.98372425159E+02  0.00000000000E+00 0. -1.
         -2   -1    0    0    0  501 -0.00000000000E+00 -0.00000000000E+00 -0.16676895844E+03  0.16676895844E+03  0.00000000000E+00 0.  1.
         23    2    1    2    0    0 -0.38593463483E+02 -0.16656354724E+02 -0.93403634571E+02  0.16167333271E+03  0.12508852058E+03 0.  0.
         23    2    1    2    0    0  0.38593463483E+02  0.16656354724E+02  0.25007101289E+02  0.10346805089E+03  0.91177809058E+02 0.  0.
          5    1    3    3  502    0 -0.84350203397E+02 -0.15495405841E+02 -0.64316137278E+02  0.10728048438E+03  0.41800000000E+01 0.  1.
         -5    1    3    3    0  502  0.45756739913E+02 -0.11609488832E+01 -0.29087497292E+02  0.54392848322E+02  0.41800000000E+01 0.  1.
        -11    1    4    4    0    0  0.34055059641E+02  0.34055391979E+02  0.52100625101E+02  0.70950630342E+02  0.00000000000E+00 0. -1.
         11    1    4    4    0    0  0.45384038426E+01 -0.17399037255E+02 -0.27093523812E+02  0.32517420552E+02  0.00000000000E+00 0.  1.
</event>
<event>
 8    1  0.4798744E-006  0.9849303E+02  0.7561462E-02  0.1283497E+00
         -2   -1    0    0    0  501 -0.00000000000E+00  0.00000000000E+00  0.20301445037E+02  0.20301445037E+02  0.00000000000E+00 0.  1.
          2   -1    0    0  501    0  0.00000000000E+00 -0.00000000000E+00 -0.84570661923E+03  0.84570661923E+03  0.00000000000E+00 0. -1.
         23    2    1    2    0    0  0.62336827880E+02  0.33127812858E+02 -0.52484284363E+03  0.54414252963E+03  0.12509096668E+03 0.  0.
         23    2    1    2    0    0 -0.62336827880E+02 -0.33127812858E+02 -0.30056233056E+03  0.32186553464E+03  0.90974588432E+02 0.  0.
          5    1    3    3  502    0  0.24688123336E+02 -0.77045621618E+01 -0.45044342738E+03  0.45120462916E+03  0.41800000000E+01 0. -1.
         -5    1    3    3    0  502  0.37648704544E+02  0.40832375020E+02 -0.74399416251E+02  0.92937900461E+02  0.41800000000E+01 0. -1.
        -11    1    4    4    0    0  0.21085181716E+02 -0.22761935849E+02 -0.85710613983E+02  0.91153716112E+02  0.00000000000E+00 0. -1.
         11    1    4    4    0    0 -0.83422009596E+02 -0.10365877009E+02 -0.21485171658E+03  0.23071181853E+03  0.00000000000E+00 0.  1.
</event>
<event>
 8    1  0.4798744E-006  0.9848559E+02  0.7561462E-02  0.1283513E+00
         -2   -1    0    0    0  501 -0.00000000000E+00  0.00000000000E+00  0.11338094038E+03  0.11338094038E+03  0.00000000000E+00 0.  1.
          2   -1    0    0  501    0  0.00000000000E+00 -0.00000000000E+00 -0.12472463949E+03  0.12472463949E+03  0.00000000000E+00 0. -1.
         23    2    1    2    0    0  0.24859168530E+02 -0.73811863950E+01  0.34275304716E+02  0.13226971094E+03  0.12509204510E+03 0.  0.
         23    2    1    2    0    0 -0.24859168530E+02  0.73811863950E+01 -0.45619003831E+02  0.10583586892E+03  0.91911247774E+02 0.  0.
          5    1    3    3  502    0 -0.20194005299E+02  0.44871239737E+02 -0.97270362067E+01  0.50332033924E+02  0.41800000000E+01 0. -1.
         -5    1    3    3    0  502  0.45053173829E+02 -0.52252426132E+02  0.44002340923E+02  0.81937677020E+02  0.41800000000E+01 0. -1.
        -11    1    4    4    0    0 -0.17221733511E+02  0.40748207111E+02 -0.54769603996E+02  0.70403934619E+02  0.00000000000E+00 0. -1.
         11    1    4    4    0    0 -0.76374350189E+01 -0.33367020716E+02  0.91506001653E+01  0.35431934303E+02  0.00000000000E+00 0.  1.
</event>
<event>
 8    1  0.4798744E-006  0.1463890E+03  0.7561462E-02  0.1204982E+00
         -1   -1    0    0    0  501 -0.00000000000E+00  0.00000000000E+00  0.33494559545E+02  0.33494559545E+02  0.00000000000E+00 0.  1.
          1   -1    0    0  501    0  0.00000000000E+00 -0.00000000000E+00 -0.77195878488E+03  0.77195878488E+03  0.00000000000E+00 0. -1.
         23    2    1    2    0    0 -0.79442705810E+02 -0.76556008290E+02 -0.29564448216E+03  0.33944823070E+03  0.12508987002E+03 0.  0.
         23    2    1    2    0    0  0.79442705810E+02  0.76556008290E+02 -0.44281974317E+03  0.46600511372E+03  0.94337029647E+02 0.  0.
          5    1    3    3  502    0  0.32623231695E+02 -0.87110779593E+01 -0.82337702398E+02  0.89090559329E+02  0.41800000000E+01 0. -1.
         -5    1    3    3    0  502 -0.11206593751E+03 -0.67844930331E+02 -0.21330677977E+03  0.25035767137E+03  0.41800000000E+01 0. -1.
        -11    1    4    4    0    0  0.64971577874E+02  0.18073692303E+02 -0.12035900169E+03  0.13796468234E+03  0.00000000000E+00 0.  1.
         11    1    4    4    0    0  0.14471127936E+02  0.58482315987E+02 -0.32246074148E+03  0.32804043138E+03  0.00000000000E+00 0. -1.
</event>
<event>
 8    1  0.4798744E-006  0.1321399E+03  0.7561462E-02  0.1224315E+00
         -3   -1    0    0    0  501 -0.00000000000E+00  0.00000000000E+00  0.12555116568E+03  0.12555116568E+03  0.00000000000E+00 0.  1.
          3   -1    0    0  501    0  0.00000000000E+00 -0.00000000000E+00 -0.17657038431E+03  0.17657038431E+03  0.00000000000E+00 0. -1.
         23    2    1    2    0    0  0.54943553571E+02  0.73670591862E+02  0.20197449882E+02  0.15653028457E+03  0.12509053850E+03 0.  0.
         23    2    1    2    0    0 -0.54943553571E+02 -0.73670591862E+02 -0.71216668512E+02  0.14559126541E+03  0.87629061999E+02 0.  0.
          5    1    3    3  502    0  0.63608258928E+02 -0.64129845315E+01 -0.19035763015E+02  0.66835392181E+02  0.41800000000E+01 0.  1.
         -5    1    3    3    0  502 -0.86647053570E+01  0.80083576393E+02  0.39233212897E+02  0.89694892391E+02  0.41800000000E+01 0.  1.
        -11    1    4    4    0    0 -0.54400150365E+02 -0.93107988090E+01 -0.57660017355E+02  0.79816946418E+02  0.00000000000E+00 0.  1.
         11    1    4    4    0    0 -0.54340320585E+00 -0.64359793053E+02 -0.13556651157E+02  0.65774318996E+02  0.00000000000E+00 0. -1.
</event>
<event>
 8    1  0.4798744E-006  0.2012173E+03  0.7561462E-02  0.1148716E+00
          2   -1    0    0  501    0  0.00000000000E+00  0.00000000000E+00  0.57718475113E+03  0.57718475113E+03  0.00000000000E+00 0. -1.
         -2   -1    0    0    0  501 -0.00000000000E+00 -0.00000000000E+00 -0.80262722609E+02  0.80262722609E+02  0.00000000000E+00 0.  1.
         23    2    1    2    0    0 -0.42712744771E+02 -0.17311308456E+03  0.18381848377E+03  0.28501545172E+03  0.12510816972E+03 0.  0.
         23    2    1    2    0    0  0.42712744771E+02  0.17311308456E+03  0.31310354474E+03  0.37243202201E+03  0.94229839636E+02 0.  0.
          5    1    3    3  502    0 -0.22224074564E+02  0.13523853648E+02  0.74570556432E+01  0.27384013340E+02  0.41800000000E+01 0.  1.
         -5    1    3    3    0  502 -0.20488670206E+02 -0.18663693821E+03  0.17636142813E+03  0.25763143838E+03  0.41800000000E+01 0.  1.
        -11    1    4    4    0    0  0.53187302137E+02  0.90237340006E+02  0.23827938636E+03  0.26028586708E+03  0.00000000000E+00 0. -1.
         11    1    4    4    0    0 -0.10474557366E+02  0.82875744554E+02  0.74824158385E+02  0.11214615493E+03  0.00000000000E+00 0.  1.
</event>
<event>
 8    1  0.4798744E-006  0.9819438E+02  0.7561462E-02  0.1284139E+00
          1   -1    0    0  501    0  0.00000000000E+00  0.00000000000E+00  0.16132267791E+03  0.16132267791E+03  0.00000000000E+00 0. -1.
         -1   -1    0    0    0  501 -0.00000000000E+00 -0.00000000000E+00 -0.11576594736E+03  0.11576594736E+03  0.00000000000E+00 0.  1.
         23    2    1    2    0    0  0.61197497343E+02  0.60977405367E+01 -0.32105491036E+02  0.14303915025E+03  0.12508844803E+03 0.  0.
         23    2    1    2    0    0 -0.61197497343E+02 -0.60977405367E+01  0.77662221591E+02  0.13404947501E+03  0.90307945212E+02 0.  0.
          5    1    3    3  502    0  0.11073452231E+02  0.59533041156E+02 -0.34113430976E+02  0.69627601614E+02  0.41800000000E+01 0. -1.
         -5    1    3    3    0  502  0.50124045112E+02 -0.53435300619E+02  0.20079399397E+01  0.73411548638E+02  0.41800000000E+01 0. -1.
        -11    1    4    4    0    0 -0.31454510921E+02 -0.81484973644E+01 -0.15667939897E+02  0.36073100881E+02  0.00000000000E+00 0.  1.
         11    1    4    4    0    0 -0.29742986422E+02  0.20507568277E+01  0.93330161488E+02  0.97976374133E+02  0.00000000000E+00 0. -1.
</event>
<event>
 8    1  0.4798744E-006  0.1205558E+03  0.7561462E-02  0.1242183E+00
          2   -1    0    0  501    0  0.00000000000E+00  0.00000000000E+00  0.23289769768E+03  0.23289769768E+03  0.00000000000E+00 0. -1.
         -2   -1    0    0    0  501 -0.00000000000E+00 -0.00000000000E+00 -0.75394198882E+02  0.75394198882E+02  0.00000000000E+00 0.  1.
         23    2    1    2    0    0  0.21060311002E+02 -0.52244518748E+02  0.14741420680E+03  0.20137050528E+03  0.12508439388E+03 0.  0.
         23    2    1    2    0    0 -0.21060311002E+02  0.52244518748E+02  0.10089292004E+02  0.10692139128E+03  0.90318124770E+02 0.  0.
          5    1    3    3  502    0 -0.31752073336E+02  0.25258778824E+02  0.28008569023E+02  0.49478807661E+02  0.41800000000E+01 0. -1.
         -5    1    3    3    0  502  0.52812384338E+02 -0.77503297573E+02  0.11940563777E+03  0.15189169762E+03  0.41800000000E+01 0. -1.
        -11    1    4    4    0    0 -0.47976627542E+02  0.61482583170E+02  0.72494530513E+01  0.78322534389E+02  0.00000000000E+00 0. -1.
         11    1    4    4    0    0  0.26916316540E+02 -0.92380644219E+01  0.28398389528E+01  0.28598856894E+02  0.00000000000E+00 0.  1.
</event>
<event>
 8    1  0.4798744E-006  0.1023440E+03  0.7561462E-02  0.1275443E+00
          1   -1    0    0  501    0  0.00000000000E+00  0.00000000000E+00  0.40929064571E+02  0.40929064571E+02  0.00000000000E+00 0. -1.
         -1   -1    0    0    0  501 -0.00000000000E+00 -0.00000000000E+00 -0.35139986414E+03  0.35139986414E+03  0.00000000000E+00 0.  1.
         23    2    1    2    0    0  0.25360400232E+02  0.91816393747E+01 -0.24521994379E+03  0.27660208917E+03  0.12509373486E+03 0.  0.
         23    2    1    2    0    0 -0.25360400232E+02 -0.91816393747E+01 -0.65250855779E+02  0.11572683954E+03  0.91692828550E+02 0.  0.
          5    1    3    3  502    0 -0.41492115425E+00 -0.56010676680E+02 -0.87817522864E+02  0.10424374218E+03  0.41800000000E+01 0. -1.
         -5    1    3    3    0  502  0.25775321387E+02  0.65192316055E+02 -0.15740242093E+03  0.17235834699E+03  0.41800000000E+01 0. -1.
        -11    1    4    4    0    0  0.26194078162E+02 -0.27235902245E+01 -0.57435013345E+02  0.63184875029E+02  0.00000000000E+00 0.  1.
         11    1    4    4    0    0 -0.51554478394E+02 -0.64580491502E+01 -0.78158424335E+01  0.52541964507E+02  0.00000000000E+00 0. -1.
</event>
<event>
 8    1  0.4798744E-006  0.1194655E+03  0.7561462E-02  0.1243981E+00
         -2   -1    0    0    0  501 -0.00000000000E+00  0.00000000000E+00  0.36576373882E+02  0.36576373882E+02  0.00000000000E+00 0.  1.
          2   -1    0    0  501    0  0.00000000000E+00 -0.00000000000E+00 -0.46764360948E+03  0.46764360948E+03  0.00000000000E+00 0. -1.
         23    2    1    2    0    0  0.58996429745E+02  0.17689919528E+02 -0.18970036422E+03  0.23542930939E+03  0.12508884667E+03 0.  0.
         23    2    1    2    0    0 -0.58996429745E+02 -0.17689919528E+02 -0.24136687139E+03  0.26879067397E+03  0.10097993779E+03 0.  0.
          5    1    3    3  502    0 -0.32458779172E+02  0.17633529993E+02 -0.10235041354E+03  0.10889257678E+03  0.41800000000E+01 0. -1.
         -5    1    3    3    0  502  0.91455208917E+02  0.56389535597E-01 -0.87349950673E+02  0.12653673261E+03  0.41800000000E+01 0. -1.
        -11    1    4    4    0    0 -0.44709174625E+02 -0.54633285511E+02 -0.19724399500E+03  0.20949677741E+03  0.00000000000E+00 0. -1.
         11    1    4    4    0    0 -0.14287255120E+02  0.36943365983E+02 -0.44122876386E+02  0.59293896563E+02  0.00000000000E+00 0.  1.
</event>
<event>
 7    1  0.4798744E-006  0.1380950E+03  0.7561462E-02  0.1215916E+00
         -2   -1    0    0    0  501 -0.00000000000E+00  0.00000000000E+00  0.88197880031E+02  0.88197880031E+02  0.00000000000E+00 0.  1.
          2   -1    0    0  501    0  0.00000000000E+00 -0.00000000000E+00 -0.24409887557E+03  0.24409887557E+03  0.00000000000E+00 0. -1.
         23    2    1    2    0    0  0.17234771314E+02 -0.38414203623E+02 -0.68667340099E+02  0.12159894388E+03  0.91095615562E+02 0.  0.
          5    1    1    2  502    0  0.17554208004E+02  0.10482760166E+03 -0.84001288657E+02  0.13553842697E+03  0.41800000000E+01 0. -1.
         -5    1    1    2    0  502 -0.34788979318E+02 -0.66413398041E+02 -0.32323667860E+01  0.75159384753E+02  0.41800000000E+01 0.  1.
        -11    1    3    3    0    0  0.51640548078E+02 -0.28210931075E+02 -0.61283428612E+02  0.84960352284E+02  0.00000000000E+00 0.  1.
         11    1    3    3    0    0 -0.34405776763E+02 -0.10203272548E+02 -0.73839114874E+01  0.36638591597E+02  0.00000000000E+00 0. -1.
</event>
<event>
 8    1  0.4798744E-006  0.9228434E+02  0.7561462E-02  0.1297412E+00
         -2   -1    0    0    0  501 -0.00000000000E+00  0.00000000000E+00  0.44312172695E+02  0.44312172695E+02  0.00000000000E+00 0.  1.
          2   -1    0    0  501    0  0.00000000000E+00 -0.00000000000E+00 -0.27284003972E+03  0.27284003972E+03  0.00000000000E+00 0. -1.
         23    2    1    2    0    0 -0.93726158440E+00 -0.21859054016E+02 -0.11221637441E+03  0.16946612028E+03  0.12509018561E+03 0.  0.
         23    2    1    2    0    0  0.93726158440E+00  0.21859054016E+02 -0.11631149261E+03  0.14768609213E+03  0.88340940646E+02 0.  0.
          5    1    3    3  502    0 -0.49753162567E+02  0.26485317982E+02 -0.37227432155E+02  0.67677199698E+02  0.41800000000E+01 0. -1.
         -5    1    3    3    0  502  0.48815900983E+02 -0.48344371998E+02 -0.74988942257E+02  0.10178892058E+03  0.41800000000E+01 0. -1.
        -11    1    4    4    0    0 -0.19694386817E+02 -0.93551191591E+01  0.35767213487E+01  0.22094797175E+02  0.00000000000E+00 0.  1.
         11    1    4    4    0    0  0.20631648401E+02  0.31214173175E+02 -0.11988821396E+03  0.12559129496E+03  0.00000000000E+00 0. -1.
</event>
<event>
 8    1  0.4798744E-006  0.1560299E+03  0.7561462E-02  0.1193253E+00
          2   -1    0    0  501    0  0.00000000000E+00  0.00000000000E+00  0.45106356251E+03  0.45106356251E+03  0.00000000000E+00 0. -1.
         -2   -1    0    0    0  501 -0.00000000000E+00 -0.00000000000E+00 -0.62826277169E+02  0.62826277169E+02  0.00000000000E+00 0.  1.
         23    2    1    2    0    0 -0.10754094248E+03  0.67368917322E+02  0.18253934284E+03  0.25509747264E+03  0.12510189261E+03 0.  0.
         23    2    1    2    0    0  0.10754094248E+03 -0.67368917322E+02  0.20569794250E+03  0.25879236703E+03  0.92510649951E+02 0.  0.
          5    1    3    3  502    0  0.33836738416E+01  0.52846136167E+02  0.10871395232E+03  0.12099735197E+03  0.41800000000E+01 0.  1.
         -5    1    3    3    0  502 -0.11092461632E+03  0.14522781155E+02  0.73825390522E+02  0.13410012067E+03  0.41800000000E+01 0.  1.
        -11    1    4    4    0    0  0.35214696922E+02  0.14204544343E+02  0.99913138136E+02  0.10688535508E+03  0.00000000000E+00 0. -1.
         11    1    4    4    0    0  0.72326245557E+02 -0.81573461665E+02  0.10578480437E+03  0.15190701195E+03  0.00000000000E+00 0.  1.
</event>
<event>
 8    1  0.4798744E-006  0.1721010E+03  0.7561462E-02  0.1175674E+00
         -2   -1    0    0    0  501 -0.00000000000E+00  0.00000000000E+00  0.13858611290E+03  0.13858611290E+03  0.00000000000E+00 0. -1.
          2   -1    0    0  501    0  0.00000000000E+00 -0.00000000000E+00 -0.24219942973E+03  0.24219942973E+03  0.00000000000E+00 0.  1.
         23    2    1    2    0    0  0.12174923536E+03 -0.71329085052E+02 -0.98356519609E+02  0.21267963096E+03  0.12509158960E+03 0.  0.
         23    2    1    2    0    0 -0.12174923536E+03  0.71329085052E+02 -0.52567972277E+01  0.16810591167E+03  0.91220879940E+02 0.  0.
          5    1    3    3  502    0  0.14713665928E+03 -0.51020960795E+02 -0.80733840959E+02  0.17546441354E+03  0.41800000000E+01 0. -1.
         -5    1    3    3    0  502 -0.25387423922E+02 -0.20308124256E+02 -0.17622678650E+02  0.37215217412E+02  0.41800000000E+01 0. -1.
        -11    1    4    4    0    0 -0.52329155515E+02  0.68443487433E+02 -0.34389040072E+02  0.92765605511E+02  0.00000000000E+00 0.  1.
         11    1    4    4    0    0 -0.69420079843E+02  0.28855976191E+01  0.29132242844E+02  0.75340306159E+02  0.00000000000E+00 0. -1.
</event>
<event>
 8    1  0.4798744E-006  0.9430804E+02  0.7561462E-02  0.1292742E+00
          2   -1    0    0  501    0  0.00000000000E+00  0.00000000000E+00  0.77258018426E+03  0.77258018426E+03  0.00000000000E+00 0.  1.
         -2   -1    0    0    0  501 -0.00000000000E+00 -0.00000000000E+00 -0.17349768391E+02  0.17349768391E+02  0.00000000000E+00 0. -1.
         23    2    1    2    0    0  0.36806034781E+02  0.16520615580E+02  0.40198447667E+03  0.42292507174E+03  0.12508589803E+03 0.  0.
         23    2    1    2    0    0 -0.36806034781E+02 -0.16520615580E+02  0.35324593920E+03  0.36700488092E+03  0.91007000382E+02 0.  0.
          5    1    3    3  502    0 -0.16244715549E+01  0.42618547767E+02  0.35184656698E+03  0.35444669362E+03  0.41800000000E+01 0. -1.
         -5    1    3    3    0  502  0.38430506336E+02 -0.26097932187E+02  0.50137909687E+02  0.68478378117E+02  0.41800000000E+01 0. -1.
        -11    1    4    4    0    0  0.24507385424E+02  0.16438157446E+02  0.90218899573E+02  0.94922467313E+02  0.00000000000E+00 0. -1.
         11    1    4    4    0    0 -0.61313420205E+02 -0.32958773026E+02  0.26302703963E+03  0.27208241360E+03  0.00000000000E+00 0.  1.
</event>
<event>
 8    1  0.4798744E-006  0.9546047E+02  0.7561462E-02  0.1290142E+00
          4   -1    0    0  501    0  0.00000000000E+00  0.00000000000E+00  0.46424663587E+03  0.46424663587E+03  0.00000000000E+00 0. -1.
         -4   -1    0    0    0  501 -0.00000000000E+00 -0.00000000000E+00 -0.30990512827E+02  0.30990512827E+02  0.00000000000E+00 0.  1.
         23    2    1    2    0    0  0.31560764346E+02  0.42112695357E+02  0.27416829091E+03  0.30589923198E+03  0.12504610121E+03 0.  0.
         23    2    1    2    0    0 -0.31560764346E+02 -0.42112695357E+02  0.15908783214E+03  0.18933791672E+03  0.88149574123E+02 0.  0.
          5    1    3    3  502    0 -0.76432582161E+01 -0.20293744828E+02  0.12160632182E+00  0.22084896726E+02  0.41800000000E+01 0.  1.
         -5    1    3    3    0  502  0.39204022562E+02  0.62406440185E+02  0.27404668459E+03  0.28381433525E+03  0.41800000000E+01 0.  1.
        -11    1    4    4    0    0  0.91591170904E+01  0.19282752868E+02  0.11179698435E+02  0.24097710288E+02  0.00000000000E+00 0.  1.
         11    1    4    4    0    0 -0.40719881436E+02 -0.61395448225E+02  0.14790813370E+03  0.16524020643E+03  0.00000000000E+00 0. -1.
</event>
<event>
 7    1  0.4798744E-006  0.1593827E+03  0.7561462E-02  0.1189395E+00
         -2   -1    0    0    0  501 -0.00000000000E+00  0.00000000000E+00  0.28172326949E+03  0.28172326949E+03  0.00000000000E+00 0.  1.
          2   -1    0    0  501    0  0.00000000000E+00 -0.00000000000E+00 -0.18875762287E+03  0.18875762287E+03  0.00000000000E+00 0. -1.
         23    2    1    2    0    0 -0.84896508690E+02 -0.62867435184E+01 -0.10011213384E+03  0.15987942274E+03  0.91060694828E+02 0.  0.
          5    1    1    2  502    0  0.48935413001E+01  0.83581356788E+02 -0.43609550161E+01  0.83942124572E+02  0.41800000000E+01 0. -1.
         -5    1    1    2    0  502  0.80002967390E+02 -0.77294613269E+02  0.19743873547E+03  0.22665934504E+03  0.41800000000E+01 0.  1.
        -11    1    3    3    0    0 -0.67569715668E+02  0.36966602542E+02 -0.72164772734E+02  0.10554596441E+03  0.00000000000E+00 0.  1.
         11    1    3    3    0    0 -0.17326793022E+02 -0.43253346060E+02 -0.27947361108E+02  0.54333458336E+02  0.00000000000E+00 0. -1.
</event>
<event>
 8    1  0.4798744E-006  0.1381804E+03  0.7561462E-02  0.1215799E+00
         -1   -1    0    0    0  501 -0.00000000000E+00  0.00000000000E+00  0.45335307539E+03  0.45335307539E+03  0.00000000000E+00 0.  1.
          1   -1    0    0  501    0  0.00000000000E+00 -0.00000000000E+00 -0.78725862258E+02  0.78725862258E+02  0.00000000000E+00 0. -1.
         23    2    1    2    0    0  0.12494325117E+03  0.57937720095E+02  0.29203137737E+03  0.34626220674E+03  0.12509034744E+03 0.  0.
         23    2    1    2    0    0 -0.12494325117E+03 -0.57937720095E+02  0.82595835765E+02  0.18581673091E+03  0.93478286142E+02 0.  0.
          5    1    3    3  502    0  0.25965834625E+02  0.13735756122E+02 -0.49568199051E+01  0.30082187879E+02  0.41800000000E+01 0.  1.
         -5    1    3    3    0  502  0.98977416541E+02  0.44201963973E+02  0.29698819727E+03  0.31618001886E+03  0.41800000000E+01 0.  1.
        -11    1    4    4    0    0 -0.10983176467E+03 -0.46554282204E+02  0.10327783891E+03  0.15778665891E+03  0.00000000000E+00 0.  1.
         11    1    4    4    0    0 -0.15111486497E+02 -0.11383437891E+02 -0.20682003142E+02  0.28030072001E+02  0.00000000000E+00 0. -1.
</event>
<event>
 8    1  0.4798744E-006  0.4862012E+03  0.7561462E-02  0.1017445E+00
          2   -1    0    0  501    0  0.00000000000E+00  0.00000000000E+00  0.88856894627E+03  0.88856894627E+03  0.00000000000E+00 0.  1.
         -2   -1    0    0    0  501 -0.00000000000E+00 -0.00000000000E+00 -0.34463807909E+03  0.34463807909E+03  0.00000000000E+00 0. -1.
         23    2    1    2    0    0 -0.33060900416E+02 -0.47574364310E+03 -0.14487108391E+02  0.49323509972E+03  0.12508377270E+03 0.  0.
         23    2    1    2    0    0  0.33060900416E+02  0.47574364310E+03  0.55841797557E+03  0.73997192564E+03  0.91119581881E+02 0.  0.
          5    1    3    3  502    0 -0.80361367470E+02 -0.30884164788E+03 -0.18180785818E+02  0.31967033991E+03  0.41800000000E+01 0.  1.
         -5    1    3    3    0  502  0.47300467054E+02 -0.16690199523E+03  0.36936774270E+01  0.17356475981E+03  0.41800000000E+01 0.  1.
        -11    1    4    4    0    0 -0.14008462834E+02  0.83598025108E+02  0.14679274312E+03  0.16950804189E+03  0.00000000000E+00 0.  1.
         11    1    4    4    0    0  0.47069363250E+02  0.39214561800E+03  0.41162523245E+03  0.57046388375E+03  0.00000000000E+00 0. -1.
</event>
<event>
 8    1  0.4798744E-006  0.1897461E+03  0.7561462E-02  0.1158691E+00
         -1   -1    0    0    0  501 -0.00000000000E+00  0.00000000000E+00  0.41244793369E+03  0.41244793369E+03  0.00000000000E+00 0. -1.
          1   -1    0    0  501    0  0.00000000000E+00 -0.00000000000E+00 -0.94350240960E+02  0.94350240960E+02  0.00000000000E+00 0.  1.
         23    2    1    2    0    0  0.15324339968E+03 -0.59683100064E+02  0.16960807462E+03  0.26732219418E+03  0.12509454244E+03 0.  0.
         23    2    1    2    0    0 -0.15324339968E+03  0.59683100064E+02  0.14848961811E+03  0.23947598046E+03  0.90851343172E+02 0.  0.
          5    1    3    3  502    0  0.99256911779E+02  0.27567087491E+02  0.72931012465E+02  0.12628651483E+03  0.41800000000E+01 0. -1.
         -5    1    3    3    0  502  0.53986487897E+02 -0.87250187555E+02  0.96677062154E+02  0.14103567935E+03  0.41800000000E+01 0. -1.
        -11    1    4    4    0    0 -0.10302676144E+03  0.10741481714E+02  0.41573575981E+02  0.11161655443E+03  0.00000000000E+00 0.  1.
         11    1    4    4    0    0 -0.50216638234E+02  0.48941618350E+02  0.10691604213E+03  0.12785942603E+03  0.00000000000E+00 0. -1.
</event>
<event>
 8    1  0.4798744E-006  0.7739411E+02  0.7561462E-02  0.1336614E+00
         -3   -1    0    0    0  501 -0.00000000000E+00  0.00000000000E+00  0.38031010195E+03  0.38031010195E+03  0.00000000000E+00 0.  1.
          3   -1    0    0  501    0  0.00000000000E+00 -0.00000000000E+00 -0.36426113770E+02  0.36426113770E+02  0.00000000000E+00 0. -1.
         23    2    1    2    0    0 -0.48830586502E+01 -0.11304741255E+02  0.27579789319E+03  0.30308739620E+03  0.12508337384E+03 0.  0.
         23    2    1    2    0    0  0.48830586502E+01  0.11304741255E+02  0.68086094994E+02  0.11364881952E+03  0.90159283554E+02 0.  0.
          5    1    3    3  502    0  0.71266186023E+01 -0.51070809998E+02  0.45072174352E+02  0.68614791608E+02  0.41800000000E+01 0. -1.
         -5    1    3    3    0  502 -0.12009677253E+02  0.39766068744E+02  0.23072571883E+03  0.23447260459E+03  0.41800000000E+01 0. -1.
        -11    1    4    4    0    0 -0.19177074632E+02 -0.15953678615E+02  0.72828927454E+02  0.76982678097E+02  0.00000000000E+00 0.  1.
         11    1    4    4    0    0  0.24060133282E+02  0.27258419870E+02 -0.47428324607E+01  0.36666141427E+02  0.00000000000E+00 0. -1.
</event>
<event>
 8    1  0.4798744E-006  0.3031402E+03  0.7561462E-02  0.1083681E+00
         -2   -1    0    0    0  501 -0.00000000000E+00  0.00000000000E+00  0.54373913367E+03  0.54373913367E+03  0.00000000000E+00 0.  1.
          2   -1    0    0  501    0  0.00000000000E+00 -0.00000000000E+00 -0.17390370970E+03  0.17390370970E+03  0.00000000000E+00 0. -1.
         23    2    1    2    0    0 -0.11947885576E+03 -0.25895207359E+03  0.23204837623E+03  0.38836842156E+03  0.12510878690E+03 0.  0.
         23    2    1    2    0    0  0.11947885576E+03  0.25895207359E+03  0.13778704773E+03  0.32927442182E+03  0.90027778773E+02 0.  0.
          5    1    3    3  502    0 -0.36194944046E+02 -0.20564900029E+03  0.18403958020E+03  0.27836958307E+03  0.41800000000E+01 0. -1.
         -5    1    3    3    0  502 -0.83283911712E+02 -0.53303073296E+02  0.48008796036E+02  0.10999883849E+03  0.41800000000E+01 0. -1.
        -11    1    4    4    0    0  0.12051814617E+03  0.16409688687E+03  0.84185810795E+02  0.22031718629E+03  0.00000000000E+00 0.  1.
         11    1    4    4    0    0 -0.10392904093E+01  0.94855186726E+02  0.53601236939E+02  0.10895723553E+03  0.00000000000E+00 0. -1.
</event>
<event>
 8    1  0.4798744E-006  0.1482182E+03  0.7561462E-02  0.1202680E+00
         -2   -1    0    0    0  501 -0.00000000000E+00  0.00000000000E+00  0.11105675215E+03  0.11105675215E+03  0.00000000000E+00 0.  1.
          2   -1    0    0  501    0  0.00000000000E+00 -0.00000000000E+00 -0.27186952143E+03  0.27186952143E+03  0.00000000000E+00 0. -1.
         23    2    1    2    0    0  0.91779881998E+02  0.96990294816E+02 -0.60574161267E+02  0.19272810643E+03  0.12507689622E+03 0.  0.
         23    2    1    2    0    0 -0.91779881998E+02 -0.96990294816E+02 -0.10023860801E+03  0.19019816714E+03  0.91087321953E+02 0.  0.
          5    1    3    3  502    0  0.81690756246E+02  0.10292969885E+03 -0.59601319148E+00  0.13147520752E+03  0.41800000000E+01 0. -1.
         -5    1    3    3    0  502  0.10089125752E+02 -0.59394040312E+01 -0.59978148075E+02  0.61252898913E+02  0.41800000000E+01 0. -1.
        -11    1    4    4    0    0 -0.98516544044E+02 -0.60905922361E+02 -0.10071394647E+03  0.15348726280E+03  0.00000000000E+00 0.  1.
         11    1    4    4    0    0  0.67366620461E+01 -0.36084372455E+02  0.47533845657E+00  0.36710904343E+02  0.00000000000E+00 0. -1.
</event>
<event>
 8    1  0.4798744E-006  0.9683494E+02  0.7561462E-02  0.1287096E+00
          1   -1    0    0  501    0  0.00000000000E+00  0.00000000000E+00  0.55517699450E+02  0.55517699450E+02  0.00000000000E+00 0. -1.
         -1   -1    0    0    0  501 -0.00000000000E+00 -0.00000000000E+00 -0.30691764799E+03  0.30691764799E+03  0.00000000000E+00 0.  1.
         23    2    1    2    0    0 -0.94059528874E+01 -0.69851015594E+02 -0.16763500364E+03  0.22071727425E+03  0.12508790660E+03 0.  0.
         23    2    1    2    0    0  0.94059528874E+01  0.69851015594E+02 -0.83764944895E+02  0.14171807318E+03  0.89998944130E+02 0.  0.
          5    1    3    3  502    0  0.80282612635E+01 -0.85223913982E+02 -0.46905162851E+02  0.97699207752E+02  0.41800000000E+01 0.  1.
         -5    1    3    3    0  502 -0.17434214151E+02  0.15372898388E+02 -0.12072984079E+03  0.12301806650E+03  0.41800000000E+01 0.  1.
        -11    1    4    4    0    0  0.14208493124E+02 -0.12526478765E+00 -0.68470176158E+02  0.69928978194E+02  0.00000000000E+00 0.  1.
         11    1    4    4    0    0 -0.48025402366E+01  0.69976280382E+02 -0.15294768737E+02  0.71789094990E+02  0.00000000000E+00 0. -1.
</event>
<event>
 8    1  0.4798744E-006  0.2386997E+03  0.7561462E-02  0.1120662E+00
         -2   -1    0    0    0  501 -0.00000000000E+00  0.00000000000E+00  0.76872054017E+02  0.76872054017E+02  0.00000000000E+00 0.  1.
          2   -1    0    0  501    0  0.00000000000E+00 -0.00000000000E+00 -0.12806175080E+04  0.12806175080E+04  0.00000000000E+00 0. -1.
         23    2    1    2    0    0  0.34565896481E+02  0.23107464895E+03 -0.23164524926E+03  0.35199112536E+03  0.12509171132E+03 0.  0.
         23    2    1    2    0    0 -0.34565896481E+02 -0.23107464895E+03 -0.97210020473E+03  0.10054984367E+04  0.10704206420E+03 0.  0.
          5    1    3    3  502    0 -0.16632851401E+02  0.11864508617E+03 -0.18381472523E+03  0.21945075490E+03  0.41800000000E+01 0.  1.
         -5    1    3    3    0  502  0.51198747882E+02  0.11242956278E+03 -0.47830524032E+02  0.13254037046E+03  0.41800000000E+01 0.  1.
        -11    1    4    4    0    0 -0.83171923074E-01 -0.22962387693E+02 -0.20451277093E+02  0.30749518710E+02  0.00000000000E+00 0.  1.
         11    1    4    4    0    0 -0.34482724558E+02 -0.20811226125E+03 -0.95164892763E+03  0.97474891795E+03  0.00000000000E+00 0. -1.
</event>
<event>
 8    1  0.4798744E-006  0.1027670E+03  0.7561462E-02  0.1274583E+00
         -3   -1    0    0    0  501 -0.00000000000E+00  0.00000000000E+00  0.16380660230E+03  0.16380660230E+03  0.00000000000E+00 0.  1.
          3   -1    0    0  501    0  0.00000000000E+00 -0.00000000000E+00 -0.10277005066E+03  0.10277005066E+03  0.00000000000E+00 0. -1.
         23    2    1    2    0    0  0.57535314781E+02  0.89428037555E+01  0.70819726569E+02  0.15508783015E+03  0.12508603121E+03 0.  0.
         23    2    1    2    0    0 -0.57535314781E+02 -0.89428037555E+01 -0.97831749211E+01  0.11148882281E+03  0.94571459301E+02 0.  0.
          5    1    3    3  502    0  0.41599454781E+01 -0.49253718829E+02  0.10268846845E+01  0.49616135048E+02  0.41800000000E+01 0.  1.
         -5    1    3    3    0  502  0.53375369302E+02  0.58196522585E+02  0.69792841884E+02  0.10547169510E+03  0.41800000000E+01 0.  1.
        -11    1    4    4    0    0 -0.15964973830E+01 -0.19803492983E+02  0.34168303245E+02  0.39524676910E+02  0.00000000000E+00 0.  1.
         11    1    4    4    0    0 -0.55938817398E+02  0.10860689227E+02 -0.43951478166E+02  0.71964145901E+02  0.00000000000E+00 0. -1.
</event>
<event>
 8    1  0.4798744E-006  0.8043743E+02  0.7561462E-02  0.1327815E+00
          2   -1    0    0  501    0  0.00000000000E+00  0.00000000000E+00  0.61511779358E+03  0.61511779358E+03  0.00000000000E+00 0. -1.
         -2   -1    0    0    0  501 -0.00000000000E+00 -0.00000000000E+00 -0.23076111490E+02  0.23076111490E+02  0.00000000000E+00 0.  1.
         23    2    1    2    0    0  0.11151449069E+02  0.43306330364E+02  0.28435543535E+03  0.31385501746E+03  0.12508862980E+03 0.  0.
         23    2    1    2    0    0 -0.11151449069E+02 -0.43306330364E+02  0.30768624673E+03  0.32433888761E+03  0.92331438414E+02 0.  0.
          5    1    3    3  502    0  0.21604428401E+02  0.42639114201E+02  0.29468256825E+03  0.29856345024E+03  0.41800000000E+01 0.  1.
         -5    1    3    3    0  502 -0.10452979332E+02  0.66721616239E+00 -0.10327132896E+02  0.15291567224E+02  0.41800000000E+01 0.  1.
        -11    1    4    4    0    0 -0.50429566898E+02 -0.13207468573E+02  0.13546428525E+03  0.14514872036E+03  0.00000000000E+00 0. -1.
         11    1    4    4    0    0  0.39278117829E+02 -0.30098861791E+02  0.17222196148E+03  0.17919016724E+03  0.00000000000E+00 0.  1.
</event>
<event>
 8    1  0.4798744E-006  0.8063871E+02  0.7561462E-02  0.1327249E+00
          2   -1    0    0  501    0  0.00000000000E+00  0.00000000000E+00  0.57702891154E+03  0.57702891154E+03  0.00000000000E+00 0. -1.
         -2   -1    0    0    0  501 -0.00000000000E+00 -0.00000000000E+00 -0.24255247978E+02  0.24255247978E+02  0.00000000000E+00 0.  1.
         23    2    1    2    0    0 -0.16824139765E+02  0.41532235057E+02  0.26626718890E+03  0.29757647397E+03  0.12508222796E+03 0.  0.
         23    2    1    2    0    0  0.16824139765E+02 -0.41532235057E+02  0.28650647466E+03  0.30370768554E+03  0.90246440417E+02 0.  0.
          5    1    3    3  502    0  0.13991988350E+02  0.55424353868E+02  0.25550747900E+03  0.26185717283E+03  0.41800000000E+01 0.  1.
         -5    1    3    3    0  502 -0.30816128114E+02 -0.13892118810E+02  0.10759709904E+02  0.35719301144E+02  0.41800000000E+01 0.  1.
        -11    1    4    4    0    0  0.14696008067E+02  0.10350411803E+02  0.67939936796E+01  0.19216191811E+02  0.00000000000E+00 0.  1.
         11    1    4    4    0    0  0.21281316979E+01 -0.51882646860E+02  0.27971248098E+03  0.28449149373E+03  0.00000000000E+00 0. -1.
</event>
<event>
 8    1  0.4798744E-006  0.1054835E+03  0.7561462E-02  0.1269170E+00
         -2   -1    0    0    0  501 -0.00000000000E+00  0.00000000000E+00  0.75618443412E+02  0.75618443412E+02  0.00000000000E+00 0.  1.
          2   -1    0    0  501    0  0.00000000000E+00 -0.00000000000E+00 -0.18213055708E+03  0.18213055708E+03  0.00000000000E+00 0. -1.
         23    2    1    2    0    0 -0.37497670713E+02  0.26610722829E+02 -0.50946400571E+02  0.14268039382E+03  0.12509177899E+03 0.  0.
         23    2    1    2    0    0  0.37497670713E+02 -0.26610722829E+02 -0.55565713100E+02  0.11506860668E+03  0.89660637362E+02 0.  0.
          5    1    3    3  502    0  0.28471139222E+02 -0.20237892744E+02  0.14970781600E+02  0.38233163262E+02  0.41800000000E+01 0.  1.
         -5    1    3    3    0  502 -0.65968809934E+02  0.46848615573E+02 -0.65917182171E+02  0.10444723055E+03  0.41800000000E+01 0.  1.
        -11    1    4    4    0    0 -0.19121625807E+02 -0.32639180610E+02 -0.36310993955E+01  0.38001810052E+02  0.00000000000E+00 0. -1.
         11    1    4    4    0    0  0.56619296520E+02  0.60284577812E+01 -0.51934613704E+02  0.77066796626E+02  0.00000000000E+00 0.  1.
</event>
<event>
 7    1  0.4798744E-006  0.6029674E+02  0.7561462E-02  0.1396591E+00
          1   -1    0    0  501    0  0.00000000000E+00  0.00000000000E+00  0.62360881359E+02  0.62360881359E+02  0.00000000000E+00 0. -1.
         -1   -1    0    0    0  501 -0.00000000000E+00 -0.00000000000E+00 -0.31569502749E+03  0.31569502749E+03  0.00000000000E+00 0.  1.
         23    2    1    2    0    0  0.89174393270E+01  0.46323263480E+02 -0.13488158150E+03  0.18991054920E+03  0.12509040813E+03 0.  0.
          5    1    3    3  502    0  0.14438038869E+02  0.50013504865E+02 -0.15751978889E+03  0.16595108896E+03  0.41800000000E+01 0.  1.
         -5    1    3    3    0  502 -0.55205995417E+01 -0.36902413859E+01  0.22638207394E+02  0.23959460236E+02  0.41800000000E+01 0.  1.
        -11    1    1    2    0    0  0.13699714637E+02 -0.28868881617E+02  0.25813109625E+02  0.41078110174E+02  0.00000000000E+00 0. -1.
         11    1    1    2    0    0 -0.22617153964E+02 -0.17454381863E+02 -0.14426567426E+03  0.14706724948E+03  0.00000000000E+00 0.  1.
</event>
<event>
 8    1  0.4798744E-006  0.2021304E+03  0.7561462E-02  0.1147954E+00
         -1   -1    0    0    0  501 -0.00000000000E+00  0.00000000000E+00  0.69063171898E+02  0.69063171898E+02  0.00000000000E+00 0.  1.
          1   -1    0    0  501    0  0.00000000000E+00 -0.00000000000E+00 -0.11019922651E+04  0.11019922651E+04  0.00000000000E+00 0. -1.
         23    2    1    2    0    0  0.76702389213E+02 -0.17711904334E+03 -0.18047287755E+03  0.29235816285E+03  0.12509366022E+03 0.  0.
         23    2    1    2    0    0 -0.76702389213E+02  0.17711904334E+03 -0.85245621571E+03  0.87869727420E+03  0.90404026280E+02 0.  0.
          5    1    3    3  502    0 -0.46285319577E+01 -0.21292936095E+02  0.17001944648E+02  0.27952655642E+02  0.41800000000E+01 0. -1.
         -5    1    3    3    0  502  0.81330921171E+02 -0.15582610725E+03 -0.19747482219E+03  0.26440550720E+03  0.41800000000E+01 0. -1.
        -11    1    4    4    0    0 -0.52589807902E+02  0.37566287252E+02 -0.17393276811E+03  0.18555193789E+03  0.00000000000E+00 0. -1.
         11    1    4    4    0    0 -0.24112581311E+02  0.13955275609E+03 -0.67852344760E+03  0.69314533631E+03  0.00000000000E+00 0.  1.
</event>
<event>
 8    1  0.4798744E-006  0.1097895E+03  0.7561462E-02  0.1260960E+00
          1   -1    0    0  501    0  0.00000000000E+00  0.00000000000E+00  0.51391613555E+02  0.51391613555E+02  0.00000000000E+00 0. -1.
         -1   -1    0    0    0  501 -0.00000000000E+00 -0.00000000000E+00 -0.31995715692E+03  0.31995715692E+03  0.00000000000E+00 0.  1.
         23    2    1    2    0    0  0.13140026778E+02  0.40794594907E+02 -0.24460363672E+03  0.27806047587E+03  0.12509928005E+03 0.  0.
         23    2    1    2    0    0 -0.13140026778E+02 -0.40794594907E+02 -0.23961906644E+02  0.93288294598E+02  0.79320070988E+02 0.  0.
          5    1    3    3  502    0  0.29634969529E+02  0.82022557956E+02 -0.17090567684E+03  0.19191705033E+03  0.41800000000E+01 0. -1.
         -5    1    3    3    0  502 -0.16494942751E+02 -0.41227963049E+02 -0.73697959879E+02  0.86143425541E+02  0.41800000000E+01 0. -1.
        -11    1    4    4    0    0  0.20582983909E+02 -0.48836383941E+02 -0.36835204497E+01  0.53124570078E+02  0.00000000000E+00 0.  1.
         11    1    4    4    0    0 -0.33723010687E+02  0.80417890338E+01 -0.20278386194E+02  0.40163724520E+02  0.00000000000E+00 0. -1.
</event>
<event>
 8    1  0.4798744E-006  0.8908676E+02  0.7561462E-02  0.1305078E+00
          2   -1    0    0  501    0  0.00000000000E+00  0.00000000000E+00  0.36933223455E+03  0.36933223455E+03  0.00000000000E+00 0. -1.
         -2   -1    0    0    0  501 -0.00000000000E+00 -0.00000000000E+00 -0.37108825039E+02  0.37108825039E+02  0.00000000000E+00 0.  1.
         23    2    1    2    0    0  0.30471003291E+02 -0.35785933556E+02  0.19761591154E+03  0.23855279934E+03  0.12508506905E+03 0.  0.
         23    2    1    2    0    0 -0.30471003291E+02  0.35785933556E+02  0.13460749797E+03  0.16788826024E+03  0.88646344178E+02 0.  0.
          5    1    3    3  502    0  0.29719493022E+02  0.18410304816E+02  0.17166978683E+01  0.35250631774E+02  0.41800000000E+01 0.  1.
         -5    1    3    3    0  502  0.75151026831E+00 -0.54196238372E+02  0.19589921367E+03  0.20330216757E+03  0.41800000000E+01 0.  1.
        -11    1    4    4    0    0  0.59225760632E+01 -0.20631639857E+02  0.51756800486E+01  0.22080061920E+02  0.00000000000E+00 0.  1.
         11    1    4    4    0    0 -0.36393579354E+02  0.56417573413E+02  0.12943181792E+03  0.14580819832E+03  0.00000000000E+00 0. -1.
</event>
<event>
 8    1  0.4798744E-006  0.1940444E+03  0.7561462E-02  0.1154863E+00
         -1   -1    0    0    0  501 -0.00000000000E+00  0.00000000000E+00  0.47108074808E+02  0.47108074808E+02  0.00000000000E+00 0.  1.
          1   -1    0    0  501    0  0.00000000000E+00 -0.00000000000E+00 -0.99485459536E+03  0.99485459536E+03  0.00000000000E+00 0. -1.
         23    2    1    2    0    0  0.17190206921E+03 -0.35681718744E+02 -0.33999727478E+03  0.40257646357E+03  0.12508459422E+03 0.  0.
         23    2    1    2    0    0 -0.17190206921E+03  0.35681718744E+02 -0.60774924578E+03  0.63938620660E+03  0.92908928529E+02 0.  0.
          5    1    3    3  502    0 -0.44240311729E+01  0.71066137975E+01 -0.10615863823E+03  0.10657018758E+03  0.41800000000E+01 0.  1.
         -5    1    3    3    0  502  0.17632610038E+03 -0.42788332541E+02 -0.23383863655E+03  0.29600627598E+03  0.41800000000E+01 0.  1.
        -11    1    4    4    0    0 -0.10374895197E+03 -0.24181318984E+02 -0.29021857356E+03  0.30915271576E+03  0.00000000000E+00 0.  1.
         11    1    4    4    0    0 -0.68153117237E+02  0.59863037728E+02 -0.31753067221E+03  0.33023349084E+03  0.00000000000E+00 0. -1.
</event>
<event>
 8    1  0.4798744E-006  0.1130572E+03  0.7561462E-02  0.1255011E+00
          1   -1    0    0  501    0  0.00000000000E+00  0.00000000000E+00  0.61804278001E+03  0.61804278001E+03  0.00000000000E+00 0. -1.
         -1   -1    0    0    0  501 -0.00000000000E+00 -0.00000000000E+00 -0.33502997884E+02  0.33502997884E+02  0.00000000000E+00 0.  1.
         23    2    1    2    0    0  0.34315500082E+02  0.56483222700E+02  0.18762712382E+03  0.23498899648E+03  0.12509189773E+03 0.  0.
         23    2    1    2    0    0 -0.34315500082E+02 -0.56483222700E+02  0.39691265830E+03  0.41655678142E+03  0.10775892460E+03 0.  0.
          5    1    3    3  502    0  0.48287663872E+02  0.73118373915E+01  0.17559483894E+03  0.18230792992E+03  0.41800000000E+01 0. -1.
         -5    1    3    3    0  502 -0.13972163790E+02  0.49171385308E+02  0.12032284880E+02  0.52681066556E+02  0.41800000000E+01 0. -1.
        -11    1    4    4    0    0  0.21926384657E+02  0.20803297957E+02  0.11372051164E+03  0.11766859529E+03  0.00000000000E+00 0.  1.
         11    1    4    4    0    0 -0.56241884739E+02 -0.77286520657E+02  0.28319214667E+03  0.29888818613E+03  0.00000000000E+00 0. -1.
</event>
<event>
 8    1  0.4798744E-006  0.1097844E+03  0.7561462E-02  0.1260970E+00
         -4   -1    0    0    0  501 -0.00000000000E+00  0.00000000000E+00  0.50670031285E+03  0.50670031285E+03  0.00000000000E+00 0.  1.
          4   -1    0    0  501    0  0.00000000000E+00 -0.00000000000E+00 -0.30117073070E+02  0.30117073070E+02  0.00000000000E+00 0. -1.
         23    2    1    2    0    0 -0.22386624278E+02  0.47404924200E+02  0.33391403413E+03  0.36040905724E+03  0.12509084126E+03 0.  0.
         23    2    1    2    0    0  0.22386624278E+02 -0.47404924200E+02  0.14266920565E+03  0.17640832868E+03  0.89537748472E+02 0.  0.
          5    1    3    3  502    0 -0.61284788166E+02  0.67262098917E+02  0.24154631744E+03  0.25815133368E+03  0.41800000000E+01 0. -1.
         -5    1    3    3    0  502  0.38898163889E+02 -0.19857174717E+02  0.92367716686E+02  0.10225772356E+03  0.41800000000E+01 0. -1.
        -11    1    4    4    0    0 -0.23497387638E+02 -0.10571465564E+02  0.10118844902E+03  0.10441736122E+03  0.00000000000E+00 0.  1.
         11    1    4    4    0    0  0.45884011916E+02 -0.36833458636E+02  0.41480756635E+02  0.71990967459E+02  0.00000000000E+00 0. -1.
</event>
<event>
 8    1  0.4798744E-006  0.4046905E+03  0.7561462E-02  0.1042168E+00
          1   -1    0    0  501    0  0.00000000000E+00  0.00000000000E+00  0.27603999312E+03  0.27603999312E+03  0.00000000000E+00 0. -1.
         -1   -1    0    0    0  501 -0.00000000000E+00 -0.00000000000E+00 -0.73321122345E+03  0.73321122345E+03  0.00000000000E+00 0.  1.
         23    2    1    2    0    0 -0.13846027820E+03 -0.37483434361E+03 -0.42754558664E+03  0.59842647514E+03  0.12508790394E+03 0.  0.
         23    2    1    2    0    0  0.13846027820E+03  0.37483434361E+03 -0.29625643691E+02  0.41082474142E+03  0.90704220482E+02 0.  0.
          5    1    3    3  502    0 -0.62364030629E+02 -0.19267473262E+03 -0.30465700539E+03  0.36584995318E+03  0.41800000000E+01 0. -1.
         -5    1    3    3    0  502 -0.76096247566E+02 -0.18215961099E+03 -0.12288858125E+03  0.23257652197E+03  0.41800000000E+01 0. -1.
        -11    1    4    4    0    0  0.66653022455E+02  0.71934866336E+02  0.56770647597E+00  0.98069223958E+02  0.00000000000E+00 0.  1.
         11    1    4    4    0    0  0.71807255740E+02  0.30289947728E+03 -0.30193350167E+02  0.31275551747E+03  0.00000000000E+00 0. -1.
</event>
<event>
 8    1  0.4798744E-006  0.1175559E+03  0.7561462E-02  0.1247184E+00
         -1   -1    0    0    0  501 -0.00000000000E+00  0.00000000000E+00  0.20143410883E+03  0.20143410883E+03  0.00000000000E+00 0.  1.
          1   -1    0    0  501    0  0.00000000000E+00 -0.00000000000E+00 -0.82657808179E+02  0.82657808179E+02  0.00000000000E+00 0. -1.
         23    2    1    2    0    0 -0.44384206832E+02 -0.52485644581E+02  0.70802530537E+02  0.15933074562E+03  0.12509431428E+03 0.  0.
         23    2    1    2    0    0  0.44384206832E+02  0.52485644581E+02  0.47973770118E+02  0.12476117140E+03  0.92407610975E+02 0.  0.
          5    1    3    3  502    0 -0.10573505042E+02  0.37336756157E+02 -0.15590160942E+01  0.39060661802E+02  0.41800000000E+01 0. -1.
         -5    1    3    3    0  502 -0.33810701790E+02 -0.89822400738E+02  0.72361546632E+02  0.12027008381E+03  0.41800000000E+01 0. -1.
        -11    1    4    4    0    0  0.29762244919E+02 -0.13319032390E+02  0.47174879910E+02  0.57346814566E+02  0.00000000000E+00 0. -1.
         11    1    4    4    0    0  0.14621961913E+02  0.65804676971E+02  0.79889020817E+00  0.67414356831E+02  0.00000000000E+00 0.  1.
</event>
<event>
 8    1  0.4798744E-006  0.1095964E+03  0.7561462E-02  0.1261319E+00
         -2   -1    0    0    0  501 -0.00000000000E+00  0.00000000000E+00  0.10872639394E+03  0.10872639394E+03  0.00000000000E+00 0.  1.
          2   -1    0    0  501    0  0.00000000000E+00 -0.00000000000E+00 -0.11905755335E+03  0.11905755335E+03  0.00000000000E+00 0. -1.
         23    2    1    2    0    0 -0.38368707887E+02 -0.14412658962E+02  0.89737453989E+01  0.13194106440E+03  0.12509210161E+03 0.  0.
         23    2    1    2    0    0  0.38368707887E+02  0.14412658962E+02 -0.19304904806E+02  0.95842882895E+02  0.84458844230E+02 0.  0.
          5    1    3    3  502    0 -0.73395152567E+02 -0.40043884778E+02 -0.10154084367E+02  0.84326383521E+02  0.41800000000E+01 0. -1.
         -5    1    3    3    0  502  0.35026444680E+02  0.25631225816E+02  0.19127829766E+02  0.47614680879E+02  0.41800000000E+01 0. -1.
        -11    1    4    4    0    0  0.63900643323E+02  0.31714914275E+01 -0.22371478478E+02  0.67777825461E+02  0.00000000000E+00 0. -1.
         11    1    4    4    0    0 -0.25531935436E+02  0.11241167535E+02  0.30665736717E+01  0.28065057433E+02  0.00000000000E+00 0.  1.
</event>
<event>
 8    1  0.4798744E-006  0.1185019E+03  0.7561462E-02  0.1245589E+00
         -4   -1    0    0    0  501 -0.00000000000E+00  0.00000000000E+00  0.16396387099E+03  0.16396387099E+03  0.00000000000E+00 0.  1.
          4   -1    0    0  501    0  0.00000000000E+00 -0.00000000000E+00 -0.11644052020E+03  0.11644052020E+03  0.00000000000E+00 0. -1.
         23    2    1    2    0    0 -0.22838987633E+02 -0.65963494595E+02  0.74491108223E+02  0.16155594328E+03  0.12521419899E+03 0.  0.
         23    2    1    2    0    0  0.22838987633E+02  0.65963494595E+02 -0.26967757428E+02  0.11884844791E+03  0.92330339834E+02 0.  0.
          5    1    3    3  502    0 -0.27105587603E+02  0.23511643126E+02  0.60969550458E+02  0.70867966845E+02  0.41800000000E+01 0. -1.
         -5    1    3    3    0  502  0.42665999698E+01 -0.89475137720E+02  0.13521557765E+02  0.90687976434E+02  0.41800000000E+01 0. -1.
        -11    1    4    4    0    0  0.11348962894E+02  0.86731253754E+02 -0.68559753217E+01  0.87738895218E+02  0.00000000000E+00 0.  1.
         11    1    4    4    0    0  0.11490024739E+02 -0.20767759159E+02 -0.20111782107E+02  0.31109552689E+02  0.00000000000E+00 0. -1.
</event>
<event>
 8    1  0.4798744E-006  0.1233092E+03  0.7561462E-02  0.1237736E+00
         -2   -1    0    0    0  501 -0.00000000000E+00  0.00000000000E+00  0.68175552487E+02  0.68175552487E+02  0.00000000000E+00 0.  1.
          2   -1    0    0  501    0  0.00000000000E+00 -0.00000000000E+00 -0.38431841784E+03  0.38431841784E+03  0.00000000000E+00 0. -1.
         23    2    1    2    0    0  0.84891109039E+02 -0.71876629601E+02 -0.10605923556E+03  0.19816182004E+03  0.12508715041E+03 0.  0.
         23    2    1    2    0    0 -0.84891109039E+02  0.71876629601E+02 -0.21008362979E+03  0.25433215029E+03  0.90426549681E+02 0.  0.
          5    1    3    3  502    0  0.85445919080E+02 -0.79497478174E+02 -0.12876947700E+03  0.17383873196E+03  0.41800000000E+01 0. -1.
         -5    1    3    3    0  502 -0.55481004108E+00  0.76208485727E+01  0.22710241441E+02  0.24323088074E+02  0.41800000000E+01 0. -1.
        -11    1    4    4    0    0 -0.26705514742E+02  0.54021628404E+02 -0.36656685801E+02  0.70535334883E+02  0.00000000000E+00 0.  1.
         11    1    4    4    0    0 -0.58185594296E+02  0.17855001197E+02 -0.17342694399E+03  0.18379681540E+03  0.00000000000E+00 0. -1.
</event>
<event>
 8    1  0.4798744E-006  0.8913802E+02  0.7561462E-02  0.1304953E+00
          1   -1    0    0  501    0  0.00000000000E+00  0.00000000000E+00  0.14963671839E+03  0.14963671839E+03  0.00000000000E+00 0. -1.
         -1   -1    0    0    0  501 -0.00000000000E+00 -0.00000000000E+00 -0.10363941364E+03  0.10363941364E+03  0.00000000000E+00 0.  1.
         23    2    1    2    0    0 -0.11089199629E+02 -0.33459214852E+02 -0.25092809223E+02  0.13228014253E+03  0.12500359046E+03 0.  0.
         23    2    1    2    0    0  0.11089199629E+02  0.33459214852E+02  0.71090113977E+02  0.12099598950E+03  0.91344051599E+02 0.  0.
          5    1    3    3  502    0  0.18361580816E+02  0.43282513922E+02 -0.13979268648E+02  0.49228203435E+02  0.41800000000E+01 0.  1.
         -5    1    3    3    0  502 -0.29450780445E+02 -0.76741728774E+02 -0.11113540574E+02  0.83051939100E+02  0.41800000000E+01 0.  1.
        -11    1    4    4    0    0 -0.90334398616E+01  0.25633391136E+02 -0.15817716275E+02  0.31446365847E+02  0.00000000000E+00 0.  1.
         11    1    4    4    0    0  0.20122639491E+02  0.78258237168E+01  0.86907830252E+02  0.89549623651E+02  0.00000000000E+00 0. -1.
</event>
<event>
 8    1  0.4798744E-006  0.1135694E+03  0.7561462E-02  0.1254099E+00
          2   -1    0    0  501    0  0.00000000000E+00  0.00000000000E+00  0.65535556871E+02  0.65535556871E+02  0.00000000000E+00 0. -1.
         -2   -1    0    0    0  501 -0.00000000000E+00 -0.00000000000E+00 -0.23381958083E+03  0.23381958083E+03  0.00000000000E+00 0.  1.
         23    2    1    2    0    0 -0.20990742453E+02  0.48362183325E+02 -0.12469662690E+03  0.18432621147E+03  0.12508953365E+03 0.  0.
         23    2    1    2    0    0  0.20990742453E+02 -0.48362183325E+02 -0.43587397055E+02  0.11502892623E+03  0.92478541524E+02 0.  0.
          5    1    3    3  502    0 -0.69905517444E+02  0.50672098208E+02 -0.83733125781E+02  0.12034596653E+03  0.41800000000E+01 0.  1.
         -5    1    3    3    0  502  0.48914774991E+02 -0.23099148829E+01 -0.40963501117E+02  0.63980244943E+02  0.41800000000E+01 0.  1.
        -11    1    4    4    0    0 -0.22380750197E+02 -0.42168424611E+02 -0.51811549026E+02  0.70452186808E+02  0.00000000000E+00 0.  1.
         11    1    4    4    0    0  0.43371492650E+02 -0.61937587135E+01  0.82241519705E+01  0.44576739420E+02  0.00000000000E+00 0. -1.
</event>
<event>
 8    1  0.4798744E-006  0.4324911E+03  0.7561462E-02  0.1033076E+00
          2   -1    0    0  501    0  0.00000000000E+00  0.00000000000E+00  0.75370047897E+03  0.75370047897E+03  0.00000000000E+00 0.  1.
         -2   -1    0    0    0  501 -0.00000000000E+00 -0.00000000000E+00 -0.25122620319E+03  0.25122620319E+03  0.00000000000E+00 0. -1.
         23    2    1    2    0    0  0.13226195007E+03 -0.39979991317E+03  0.26220016665E+03  0.51159415218E+03  0.12508579114E+03 0.  0.
         23    2    1    2    0    0 -0.13226195007E+03  0.39979991317E+03  0.24027410913E+03  0.49333252998E+03  0.91170958177E+02 0.  0.
          5    1    3    3  502    0 -0.10444769712E+02 -0.13077324482E+03  0.50277839213E+02  0.14055628158E+03  0.41800000000E+01 0. -1.
         -5    1    3    3    0  502  0.14270671978E+03 -0.26902666835E+03  0.21192232744E+03  0.37103787060E+03  0.41800000000E+01 0. -1.
        -11    1    4    4    0    0 -0.11685615093E+03  0.22362029587E+03  0.11953110176E+03  0.27919362640E+03  0.00000000000E+00 0.  1.
         11    1    4    4    0    0 -0.15405799143E+02  0.17617961730E+03  0.12074300737E+03  0.21413890358E+03  0.00000000000E+00 0. -1.
</event>
<event>
 8    1  0.4798744E-006  0.1252899E+03  0.7561462E-02  0.1234617E+00
          1   -1    0    0  501    0  0.00000000000E+00  0.00000000000E+00  0.23729292392E+03  0.23729292392E+03  0.00000000000E+00 0. -1.
         -1   -1    0    0    0  501 -0.00000000000E+00 -0.00000000000E+00 -0.90113709295E+02  0.90113709295E+02  0.00000000000E+00 0.  1.
         23    2    1    2    0    0 -0.49081308081E+02  0.71061109304E+02  0.45850848015E+02  0.15877116100E+03  0.12508926910E+03 0.  0.
         23    2    1    2    0    0  0.49081308081E+02 -0.71061109304E+02  0.10132836661E+03  0.16863547222E+03  0.10349796399E+03 0.  0.
          5    1    3    3  502    0  0.23544854294E+01  0.66363634630E+02 -0.24926133093E+02  0.71052516591E+02  0.41800000000E+01 0.  1.
         -5    1    3    3    0  502 -0.51435793510E+02  0.46974746741E+01  0.70776981108E+02  0.87718644410E+02  0.41800000000E+01 0.  1.
        -11    1    4    4    0    0 -0.43338524017E+01  0.23350688736E+02  0.32182064632E+02  0.39996527662E+02  0.00000000000E+00 0. -1.
         11    1    4    4    0    0  0.53415160482E+02 -0.94411798040E+02  0.69146301979E+02  0.12863894455E+03  0.00000000000E+00 0.  1.
</event>
<event>
 8    1  0.4798744E-006  0.1152419E+03  0.7561462E-02  0.1251159E+00
          2   -1    0    0  501    0  0.00000000000E+00  0.00000000000E+00  0.41616553771E+03  0.41616553771E+03  0.00000000000E+00 0. -1.
         -2   -1    0    0    0  501 -0.00000000000E+00 -0.00000000000E+00 -0.58202041394E+02  0.58202041394E+02  0.00000000000E+00 0.  1.
         23    2    1    2    0    0  0.28021851145E+02  0.99323354499E+02  0.25698937039E+03  0.30387758118E+03  0.12509074690E+03 0.  0.
         23    2    1    2    0    0 -0.28021851145E+02 -0.99323354499E+02  0.10097412592E+03  0.17048999792E+03  0.90668144322E+02 0.  0.
          5    1    3    3  502    0  0.50875249923E+02  0.44760765475E+02  0.39713348098E+02  0.78653922965E+02  0.41800000000E+01 0. -1.
         -5    1    3    3    0  502 -0.22853398778E+02  0.54562589024E+02  0.21727602230E+03  0.22522365822E+03  0.41800000000E+01 0. -1.
        -11    1    4    4    0    0 -0.98329353264E+01 -0.27740169400E+02  0.91390841377E+02  0.96012965286E+02  0.00000000000E+00 0. -1.
         11    1    4    4    0    0 -0.18188915819E+02 -0.71583185098E+02  0.95832845471E+01  0.74477032635E+02  0.00000000000E+00 0.  1.
</event>
<event>
 8    1  0.4798744E-006  0.7156942E+02  0.7561462E-02  0.1354836E+00
         -1   -1    0    0    0  501 -0.00000000000E+00  0.00000000000E+00  0.41375163806E+02  0.41375163806E+02  0.00000000000E+00 0.  1.
          1   -1    0    0  501    0  0.00000000000E+00 -0.00000000000E+00 -0.48665588597E+03  0.48665588597E+03  0.00000000000E+00 0. -1.
         23    2    1    2    0    0 -0.17682681381E+02  0.28132895142E+02 -0.58982095608E+02  0.12985354177E+03  0.11081027794E+03 0.  0.
         23    2    1    2    0    0  0.17682681381E+02 -0.28132895142E+02 -0.38629862656E+03  0.39817750801E+03  0.90634220872E+02 0.  0.
          5    1    3    3  502    0 -0.24370986238E+01  0.30271563119E+02 -0.89943462959E+02  0.95024238552E+02  0.41800000000E+01 0. -1.
         -5    1    3    3    0  502 -0.15245582757E+02 -0.21386679761E+01  0.30961367352E+02  0.34829303217E+02  0.41800000000E+01 0.  1.
        -11    1    4    4    0    0 -0.30623848399E+02 -0.36349897642E+02 -0.19168048296E+03  0.19748555061E+03  0.00000000000E+00 0.  1.
         11    1    4    4    0    0  0.48306529779E+02  0.82170024998E+01 -0.19461814359E+03  0.20069195740E+03  0.00000000000E+00 0. -1.
</event>
<event>
 8    1  0.4798744E-006  0.8234225E+02  0.7561462E-02  0.1322533E+00
          1   -1    0    0  501    0  0.00000000000E+00  0.00000000000E+00  0.10237447475E+04  0.10237447475E+04  0.00000000000E+00 0. -1.
         -1   -1    0    0    0  501 -0.00000000000E+00 -0.00000000000E+00 -0.14898148930E+02  0.14898148930E+02  0.00000000000E+00 0.  1.
         23    2    1    2    0    0 -0.56718404950E+00 -0.56140281485E+02  0.58588742454E+03  0.60171676805E+03  0.12508773647E+03 0.  0.
         23    2    1    2    0    0  0.56718404950E+00  0.56140281485E+02  0.42295917406E+03  0.43692612841E+03  0.94116554668E+02 0.  0.
          5    1    3    3  502    0  0.64033248081E+01 -0.40336424823E+02  0.58210037076E+03  0.58354635101E+03  0.41800000000E+01 0. -1.
         -5    1    3    3    0  502 -0.69705088576E+01 -0.15803856662E+02  0.37870537790E+01  0.18170417041E+02  0.41800000000E+01 0. -1.
        -11    1    4    4    0    0  0.42380603231E+02  0.46562807510E+02  0.30445155050E+03  0.31089380370E+03  0.00000000000E+00 0. -1.
         11    1    4    4    0    0 -0.41813419182E+02  0.95774739748E+01  0.11850762356E+03  0.12603232472E+03  0.00000000000E+00 0.  1.
</event>
<event>
 8    1  0.4798744E-006  0.1094565E+03  0.7561462E-02  0.1261580E+00
         -2   -1    0    0    0  501 -0.00000000000E+00  0.00000000000E+00  0.50736986776E+02  0.50736986776E+02  0.00000000000E+00 0. -1.
          2   -1    0    0  501    0  0.00000000000E+00 -0.00000000000E+00 -0.27796413155E+03  0.27796413155E+03  0.00000000000E+00 0.  1.
         23    2    1    2    0    0  0.22072148516E+02 -0.30153965992E+02 -0.88306256082E+02  0.15761243784E+03  0.12508894553E+03 0.  0.
         23    2    1    2    0    0 -0.22072148516E+02  0.30153965992E+02 -0.13892088869E+03  0.17108868049E+03  0.92606057420E+02 0.  0.
          5    1    3    3  502    0  0.67087687267E+02  0.11944484861E+02 -0.53262410324E+02  0.86589752598E+02  0.41800000000E+01 0. -1.
         -5    1    3    3    0  502 -0.45015538751E+02 -0.42098450853E+02 -0.35043845758E+02  0.71022685240E+02  0.41800000000E+01 0. -1.
        -11    1    4    4    0    0 -0.13540153577E+02  0.58095315465E+02 -0.12546481157E+03  0.13892379343E+03  0.00000000000E+00 0.  1.
         11    1    4    4    0    0 -0.85319949388E+01 -0.27941349474E+02 -0.13456077121E+02  0.32164887060E+02  0.00000000000E+00 0. -1.
</event>
<event>
 8    1  0.4798744E-006  0.1358562E+03  0.7561462E-02  0.1219016E+00
         -2   -1    0    0    0  501 -0.00000000000E+00  0.00000000000E+00  0.48376184385E+03  0.48376184385E+03  0.00000000000E+00 0. -1.
          2   -1    0    0  501    0  0.00000000000E+00 -0.00000000000E+00 -0.46436356789E+02  0.46436356789E+02  0.00000000000E+00 0.  1.
         23    2    1    2    0    0 -0.51861962917E+01 -0.10295699434E+03  0.24411369988E+03  0.29302889516E+03  0.12508955039E+03 0.  0.
         23    2    1    2    0    0  0.51861962917E+01  0.10295699434E+03  0.19321178718E+03  0.23716930547E+03  0.91057374431E+02 0.  0.
          5    1    3    3  502    0 -0.28405035241E+02 -0.11860357504E+03  0.23220472634E+03  0.26231691020E+03  0.41800000000E+01 0.  1.
         -5    1    3    3    0  502  0.23218838949E+02  0.15646580701E+02  0.11908973534E+02  0.30711984964E+02  0.41800000000E+01 0.  1.
        -11    1    4    4    0    0 -0.10385018347E+02  0.10513921171E+03  0.19455308993E+03  0.22138881464E+03  0.00000000000E+00 0. -1.
         11    1    4    4    0    0  0.15571214639E+02 -0.21822173701E+01 -0.13413027509E+01  0.15780490837E+02  0.00000000000E+00 0.  1.
</event>
<event>
 7    1  0.4798744E-006  0.1169703E+03  0.7561462E-02  0.1248180E+00
          2   -1    0    0  501    0  0.00000000000E+00  0.00000000000E+00  0.18550557611E+03  0.18550557611E+03  0.00000000000E+00 0. -1.
         -2   -1    0    0    0  501 -0.00000000000E+00 -0.00000000000E+00 -0.74442826565E+02  0.74442826565E+02  0.00000000000E+00 0.  1.
         23    2    1    2    0    0 -0.34651179889E+02 -0.22045999052E+01  0.48037702436E+02  0.10909988078E+03  0.91594752048E+02 0.  0.
          5    1    1    2  502    0  0.85228202355E+02 -0.52959292490E+01  0.43821947340E+02  0.96071477619E+02  0.41800000000E+01 0. -1.
         -5    1    1    2    0  502 -0.50577022466E+02  0.75005291541E+01  0.19203099774E+02  0.54777044279E+02  0.41800000000E+01 0.  1.
        -11    1    3    3    0    0  0.17778900863E+02 -0.32170061152E+02  0.25065001399E+02  0.44488835066E+02  0.00000000000E+00 0.  1.
         11    1    3    3    0    0 -0.52430080753E+02  0.29965461246E+02  0.22972701036E+02  0.64611045715E+02  0.00000000000E+00 0. -1.
</event>
<event>
 8    1  0.4798744E-006  0.1388344E+03  0.7561462E-02  0.1214906E+00
         -3   -1    0    0    0  501 -0.00000000000E+00  0.00000000000E+00  0.23360961848E+03  0.23360961848E+03  0.00000000000E+00 0.  1.
          3   -1    0    0  501    0  0.00000000000E+00 -0.00000000000E+00 -0.10724940817E+03  0.10724940817E+03  0.00000000000E+00 0. -1.
         23    2    1    2    0    0  0.10463369033E+03 -0.46307683172E+02  0.90480935192E+02  0.19215903500E+03  0.12508271034E+03 0.  0.
         23    2    1    2    0    0 -0.10463369033E+03  0.46307683172E+02  0.35879275119E+02  0.14869999165E+03  0.87930395538E+02 0.  0.
          5    1    3    3  502    0 -0.80250407584E+01  0.55710216045E+01  0.64498676038E+02  0.65368105155E+02  0.41800000000E+01 0.  1.
         -5    1    3    3    0  502  0.11265873109E+03 -0.51878704777E+02  0.25982259155E+02  0.12679092985E+03  0.41800000000E+01 0.  1.
        -11    1    4    4    0    0 -0.17886921530E+02 -0.24937460543E+02  0.16308203198E+02  0.34753077442E+02  0.00000000000E+00 0.  1.
         11    1    4    4    0    0 -0.86746768803E+02  0.71245143715E+02  0.19571071921E+02  0.11394691421E+03  0.00000000000E+00 0. -1.
</event>
<event>
 8    1  0.4798744E-006  0.1487816E+03  0.7561462E-02  0.1201978E+00
          3   -1    0    0  501    0  0.00000000000E+00  0.00000000000E+00  0.77262691938E+03  0.77262691938E+03  0.00000000000E+00 0. -1.
         -3   -1    0    0    0  501 -0.00000000000E+00 -0.00000000000E+00 -0.36066016923E+02  0.36066016923E+02  0.00000000000E+00 0.  1.
         23    2    1    2    0    0 -0.34013980772E+01  0.12079035341E+03  0.39042149841E+03  0.42741839627E+03  0.12512258016E+03 0.  0.
         23    2    1    2    0    0  0.34013980772E+01 -0.12079035341E+03  0.34613940405E+03  0.38127454003E+03  0.10467047749E+03 0.  0.
          5    1    3    3  502    0 -0.56573955626E+02  0.20538694144E+02  0.14076122011E+03  0.15314582560E+03  0.41800000000E+01 0.  1.
         -5    1    3    3    0  502  0.53172557549E+02  0.10025165926E+03  0.24966027829E+03  0.27427257067E+03  0.41800000000E+01 0.  1.
        -11    1    4    4    0    0  0.11525163965E+02 -0.10737075527E+03  0.34900347254E+03  0.36532825286E+03  0.00000000000E+00 0. -1.
         11    1    4    4    0    0 -0.81237658878E+01 -0.13419598132E+02 -0.28640684931E+01  0.15946287171E+02  0.00000000000E+00 0.  1.
</event>
<event>
 8    1  0.4798744E-006  0.9650591E+02  0.7561462E-02  0.1287820E+00
         -2   -1    0    0    0  501 -0.00000000000E+00  0.00000000000E+00  0.52887171523E+02  0.52887171523E+02  0.00000000000E+00 0.  1.
          2   -1    0    0  501    0  0.00000000000E+00 -0.00000000000E+00 -0.33558566984E+03  0.33558566984E+03  0.00000000000E+00 0. -1.
         23    2    1    2    0    0 -0.33216589702E+02  0.22081794449E+01 -0.49857831177E+02  0.13871726538E+03  0.12509379880E+03 0.  0.
         23    2    1    2    0    0  0.33216589702E+02 -0.22081794449E+01 -0.23284066714E+03  0.24975557598E+03  0.83993175739E+02 0.  0.
          5    1    3    3  502    0 -0.33264331045E+02 -0.45292051805E+02  0.14910037120E+02  0.58289512637E+02  0.41800000000E+01 0.  1.
         -5    1    3    3    0  502  0.47741343057E-01  0.47500231250E+02 -0.64767868297E+02  0.80427752746E+02  0.41800000000E+01 0.  1.
        -11    1    4    4    0    0 -0.11590909390E+02  0.31071648572E+02 -0.10866398307E+03  0.11361187325E+03  0.00000000000E+00 0. -1.
         11    1    4    4    0    0  0.44807499092E+02 -0.33279828017E+02 -0.12417668406E+03  0.13614370273E+03  0.00000000000E+00 0.  1.
</event>
<event>
 8    1  0.4798744E-006  0.5030530E+02  0.7561462E-02  0.1443702E+00
         -1   -1    0    0    0  501 -0.00000000000E+00  0.00000000000E+00  0.20600820886E+03  0.20600820886E+03  0.00000000000E+00 0.  1.
          1   -1    0    0  501    0  0.00000000000E+00 -0.00000000000E+00 -0.59859609509E+02  0.59859609509E+02  0.00000000000E+00 0. -1.
         23    2    1    2    0    0 -0.67761678217E+01  0.18379738871E+02  0.94880280338E+02  0.15819176355E+03  0.12505452893E+03 0.  0.
         23    2    1    2    0    0  0.67761678217E+01 -0.18379738871E+02  0.51268319013E+02  0.10767605482E+03  0.92638874110E+02 0.  0.
          5    1    3    3  502    0 -0.12267645248E+02  0.25046282437E+02 -0.25145329199E+02  0.37783215379E+02  0.41800000000E+01 0.  1.
         -5    1    3    3    0  502  0.54914774267E+01 -0.66665435660E+01  0.12002560954E+03  0.12040854817E+03  0.41800000000E+01 0.  1.
        -11    1    4    4    0    0  0.31356309848E+02 -0.21525596006E+02 -0.11874758695E+02  0.39844439321E+02  0.00000000000E+00 0. -1.
         11    1    4    4    0    0 -0.24580142026E+02  0.31458571348E+01  0.63143077708E+02  0.67831615502E+02  0.00000000000E+00 0.  1.
</event>
<event>
 8    1  0.4798744E-006  0.1177022E+03  0.7561462E-02  0.1246937E+00
         -1   -1    0    0    0  501 -0.00000000000E+00  0.00000000000E+00  0.19682268404E+02  0.19682268404E+02  0.00000000000E+00 0.  1.
          1   -1    0    0  501    0  0.00000000000E+00 -0.00000000000E+00 -0.76332503540E+03  0.76332503540E+03  0.00000000000E+00 0. -1.
         23    2    1    2    0    0  0.32783192208E+02 -0.47960907662E+02 -0.32539662760E+03  0.35341443544E+03  0.12507522364E+03 0.  0.
         23    2    1    2    0    0 -0.32783192208E+02  0.47960907662E+02 -0.41824613940E+03  0.42959286837E+03  0.79026660529E+02 0.  0.
          5    1    3    3  502    0 -0.39995333907E+02 -0.50465879911E+02 -0.13874478703E+03  0.15301640467E+03  0.41800000000E+01 0.  1.
         -5    1    3    3    0  502  0.72778526114E+02  0.25049722492E+01 -0.18665184057E+03  0.20039803077E+03  0.41800000000E+01 0.  1.
        -11    1    4    4    0    0 -0.55151183943E+02  0.13381617175E+02 -0.23061868607E+03  0.23749884028E+03  0.00000000000E+00 0.  1.
         11    1    4    4    0    0  0.22367991735E+02  0.34579290487E+02 -0.18762745333E+03  0.19209402809E+03  0.00000000000E+00 0. -1.
</event>
<event>
 8    1  0.4798744E-006  0.9363649E+02  0.7561462E-02  0.1294277E+00
         -2   -1    0    0    0  501 -0.00000000000E+00  0.00000000000E+00  0.49037283121E+02  0.49037283121E+02  0.00000000000E+00 0. -1.
          2   -1    0    0  501    0  0.00000000000E+00 -0.00000000000E+00 -0.46516765368E+03  0.46516765368E+03  0.00000000000E+00 0.  1.
         23    2    1    2    0    0  0.39769338634E+02 -0.43197326575E+02 -0.76622182828E+02  0.15800976163E+03  0.12509403083E+03 0.  0.
         23    2    1    2    0    0 -0.39769338634E+02  0.43197326575E+02 -0.33950818773E+03  0.35619517517E+03  0.90341485268E+02 0.  0.
          5    1    3    3  502    0 -0.50763961162E+01 -0.50475944357E+02  0.17161050811E+02  0.53717453600E+02  0.41800000000E+01 0.  1.
         -5    1    3    3    0  502  0.44845734751E+02  0.72786177821E+01 -0.93783233639E+02  0.10429230803E+03  0.41800000000E+01 0.  1.
        -11    1    4    4    0    0 -0.23511026239E+01 -0.18467451027E+02 -0.15408116853E+02  0.24165771163E+02  0.00000000000E+00 0. -1.
         11    1    4    4    0    0 -0.37418236010E+02  0.61664777602E+02 -0.32410007087E+03  0.33202940400E+03  0.00000000000E+00 0.  1.
</event>
<event>
 8    1  0.4798744E-006  0.1159589E+03  0.7561462E-02  0.1249916E+00
         -1   -1    0    0    0  501 -0.00000000000E+00  0.00000000000E+00  0.22908926814E+03  0.22908926814E+03  0.00000000000E+00 0.  1.
          1   -1    0    0  501    0  0.00000000000E+00 -0.00000000000E+00 -0.63165669356E+02  0.63165669356E+02  0.00000000000E+00 0. -1.
         23    2    1    2    0    0 -0.51167787802E+02  0.71404117096E+01  0.96226620634E+02  0.16606470218E+03  0.12509514301E+03 0.  0.
         23    2    1    2    0    0  0.51167787802E+02 -0.71404117096E+01  0.69696978150E+02  0.12619023532E+03  0.91636121359E+02 0.  0.
          5    1    3    3  502    0  0.18127965378E+02  0.46082408389E+02  0.14017869980E+02  0.51635109862E+02  0.41800000000E+01 0. -1.
         -5    1    3    3    0  502 -0.69295753180E+02 -0.38941996680E+02  0.82208750654E+02  0.11442959232E+03  0.41800000000E+01 0. -1.
        -11    1    4    4    0    0 -0.23485483032E+02 -0.14512346752E+02  0.31907575670E+02  0.42193240058E+02  0.00000000000E+00 0.  1.
         11    1    4    4    0    0  0.74653270834E+02  0.73719350424E+01  0.37789402480E+02  0.83996995257E+02  0.00000000000E+00 0. -1.
</event>
<event>
 8    1  0.4798744E-006  0.8796205E+02  0.7561462E-02  0.1307863E+00
          2   -1    0    0  501    0  0.00000000000E+00  0.00000000000E+00  0.18072009992E+03  0.18072009992E+03  0.00000000000E+00 0. -1.
         -2   -1    0    0    0  501 -0.00000000000E+00 -0.00000000000E+00 -0.12253286177E+03  0.12253286177E+03  0.00000000000E+00 0.  1.
         23    2    1    2    0    0 -0.41453505264E+01 -0.36405995404E+02 -0.69241500524E+02  0.14759409420E+03  0.12508817217E+03 0.  0.
         23    2    1    2    0    0  0.41453505264E+01  0.36405995404E+02  0.12742873867E+03  0.15565886748E+03  0.81541517976E+02 0.  0.
          5    1    3    3  502    0  0.20226759101E+02 -0.53054414518E+02  0.14461716200E+02  0.58741010538E+02  0.41800000000E+01 0.  1.
         -5    1    3    3    0  502 -0.24372109627E+02  0.16648419114E+02 -0.83703216725E+02  0.88853083665E+02  0.41800000000E+01 0.  1.
        -11    1    4    4    0    0  0.34066700278E+02 -0.86008182173E+01  0.55538684081E+02  0.65719552428E+02  0.00000000000E+00 0. -1.
         11    1    4    4    0    0 -0.29921349752E+02  0.45006813621E+02  0.71890054592E+02  0.89939315055E+02  0.00000000000E+00 0.  1.
</event>
<event>
 8    1  0.4798744E-006  0.8712833E+02  0.7561462E-02  0.1309959E+00
         -2   -1    0    0    0  501 -0.00000000000E+00  0.00000000000E+00  0.32678280219E+02  0.32678280219E+02  0.00000000000E+00 0.  1.
          2   -1    0    0  501    0  0.00000000000E+00 -0.00000000000E+00 -0.45489962474E+03  0.45489962474E+03  0.00000000000E+00 0. -1.
         23    2    1    2    0    0  0.26700113470E+02 -0.43686512687E+02 -0.19543251624E+03  0.23762205315E+03  0.12509582044E+03 0.  0.
         23    2    1    2    0    0 -0.26700113470E+02  0.43686512687E+02 -0.22678882828E+03  0.24995585181E+03  0.91778798039E+02 0.  0.
          5    1    3    3  502    0 -0.16780813286E+01 -0.47052068665E+02 -0.79536801760E+01  0.47931686294E+02  0.41800000000E+01 0.  1.
         -5    1    3    3    0  502  0.28378194799E+02  0.33655559782E+01 -0.18747883607E+03  0.18969036686E+03  0.41800000000E+01 0.  1.
        -11    1    4    4    0    0 -0.79292223310E+01 -0.25352226158E+02 -0.10857942304E+03  0.11178147899E+03  0.00000000000E+00 0. -1.
         11    1    4    4    0    0 -0.18770891139E+02  0.69038738845E+02 -0.11820940524E+03  0.13817437282E+03  0.00000000000E+00 0.  1.
</event>
<event>
 8    1  0.4798744E-006  0.8379057E+02  0.7561462E-02  0.1318626E+00
         -1   -1    0    0    0  501 -0.00000000000E+00  0.00000000000E+00  0.35849207066E+03  0.35849207066E+03  0.00000000000E+00 0.  1.
          1   -1    0    0  501    0  0.00000000000E+00 -0.00000000000E+00 -0.75355513455E+02  0.75355513455E+02  0.00000000000E+00 0. -1.
         23    2    1    2    0    0  0.17194764090E+02  0.20146448664E+02  0.31168617199E+03  0.33472628287E+03  0.11912965762E+03 0.  0.
         23    2    1    2    0    0 -0.17194764090E+02 -0.20146448664E+02 -0.28549614789E+02  0.99121301246E+02  0.91150493966E+02 0.  0.
          5    1    3    3  502    0 -0.51427321413E+02  0.79208047051E+01  0.13538828856E+03  0.14510330670E+03  0.41800000000E+01 0. -1.
         -5    1    3    3    0  502  0.68622085503E+02  0.12225643959E+02  0.17629788343E+03  0.18962297617E+03  0.41800000000E+01 0.  1.
        -11    1    4    4    0    0 -0.15209268091E+02 -0.30993757573E+02 -0.58098183649E+02  0.67582052260E+02  0.00000000000E+00 0. -1.
         11    1    4    4    0    0 -0.19854959994E+01  0.10847308909E+02  0.29548568860E+02  0.31539248986E+02  0.00000000000E+00 0.  1.
</event>
<event>
 8    1  0.4798744E-006  0.2223532E+03  0.7561462E-02  0.1132141E+00
          1   -1    0    0  501    0  0.00000000000E+00  0.00000000000E+00  0.70101985440E+03  0.70101985440E+03  0.00000000000E+00 0. -1.
         -1   -1    0    0    0  501 -0.00000000000E+00 -0.00000000000E+00 -0.10463542469E+03  0.10463542469E+03  0.00000000000E+00 0.  1.
         23    2    1    2    0    0  0.20280910923E+03  0.78563177219E+02  0.14751668331E+03  0.29105499379E+03  0.12509248560E+03 0.  0.
         23    2    1    2    0    0 -0.20280910923E+03 -0.78563177219E+02  0.44886774639E+03  0.51460028530E+03  0.12659973254E+03 0.  0.
          5    1    3    3  502    0  0.71883240017E+02  0.31128990307E+02  0.12835312166E+03  0.15042676116E+03  0.41800000000E+01 0. -1.
         -5    1    3    3    0  502  0.13092586921E+03  0.47434186912E+02  0.19163561648E+02  0.14062823263E+03  0.41800000000E+01 0. -1.
        -11    1    4    4    0    0 -0.10432675900E+03 -0.74835666891E+02  0.35883964845E+03  0.38111722997E+03  0.00000000000E+00 0. -1.
         11    1    4    4    0    0 -0.98482350233E+02 -0.37275103282E+01  0.90028097939E+02  0.13348305533E+03  0.00000000000E+00 0.  1.
</event>
<event>
 8    1  0.4798744E-006  0.9374399E+02  0.7561462E-02  0.1294030E+00
         -3   -1    0    0    0  501 -0.00000000000E+00  0.00000000000E+00  0.36275242085E+02  0.36275242085E+02  0.00000000000E+00 0.  1.
          3   -1    0    0  501    0  0.00000000000E+00 -0.00000000000E+00 -0.39985200105E+03  0.39985200105E+03  0.00000000000E+00 0. -1.
         23    2    1    2    0    0 -0.10582464256E+02  0.40659674100E+02 -0.14701236581E+03  0.19755002108E+03  0.12509267556E+03 0.  0.
         23    2    1    2    0    0  0.10582464256E+02 -0.40659674100E+02 -0.21656439315E+03  0.23857722205E+03  0.90850189065E+02 0.  0.
          5    1    3    3  502    0  0.31796486015E+02  0.29227205231E+02 -0.14719502055E+03  0.15345713579E+03  0.41800000000E+01 0. -1.
         -5    1    3    3    0  502 -0.42378950272E+02  0.11432468869E+02  0.18265474340E+00  0.44092885291E+02  0.41800000000E+01 0. -1.
        -11    1    4    4    0    0 -0.17005994638E+02 -0.62528928928E+02 -0.14508907432E+03  0.15890220355E+03  0.00000000000E+00 0. -1.
         11    1    4    4    0    0  0.27588458895E+02  0.21869254828E+02 -0.71475318838E+02  0.79675018506E+02  0.00000000000E+00 0.  1.
</event>
<event>
 8    1  0.4798744E-006  0.7246776E+02  0.7561462E-02  0.1351897E+00
          1   -1    0    0  501    0  0.00000000000E+00  0.00000000000E+00  0.34480974066E+03  0.34480974066E+03  0.00000000000E+00 0. -1.
         -1   -1    0    0    0  501 -0.00000000000E+00 -0.00000000000E+00 -0.68972481837E+02  0.68972481837E+02  0.00000000000E+00 0.  1.
         23    2    1    2    0    0  0.24034282332E+02 -0.20550483876E+02  0.77080078725E+01  0.12925640311E+03  0.12509130763E+03 0.  0.
         23    2    1    2    0    0 -0.24034282332E+02  0.20550483876E+02  0.26812925095E+03  0.28452581939E+03  0.89786845174E+02 0.  0.
          5    1    3    3  502    0 -0.22113987127E+02  0.33002017610E+01  0.54601166356E+02  0.59149636734E+02  0.41800000000E+01 0. -1.
         -5    1    3    3    0  502  0.46148269459E+02 -0.23850685637E+02 -0.46893158484E+02  0.70106766378E+02  0.41800000000E+01 0. -1.
        -11    1    4    4    0    0  0.20957302058E+01 -0.20938082458E+02  0.13014691304E+02  0.24742222451E+02  0.00000000000E+00 0.  1.
         11    1    4    4    0    0 -0.26130012538E+02  0.41488566333E+02  0.25511455965E+03  0.25978359694E+03  0.00000000000E+00 0. -1.
</event>
<event>
 8    1  0.4798744E-006  0.7510717E+02  0.7561462E-02  0.1343539E+00
         -2   -1    0    0    0  501 -0.00000000000E+00  0.00000000000E+00  0.25746661864E+02  0.25746661864E+02  0.00000000000E+00 0.  1.
          2   -1    0    0  501    0  0.00000000000E+00 -0.00000000000E+00 -0.61498134385E+03  0.61498134385E+03  0.00000000000E+00 0. -1.
         23    2    1    2    0    0 -0.30473369479E+02 -0.55921357359E+02 -0.30426039287E+03  0.33508006300E+03  0.12509371485E+03 0.  0.
         23    2    1    2    0    0  0.30473369479E+02  0.55921357359E+02 -0.28497428912E+03  0.30564794272E+03  0.90302242335E+02 0.  0.
          5    1    3    3  502    0 -0.72474847239E+01 -0.38504594225E+02 -0.30318022381E+03  0.30573002849E+03  0.41800000000E+01 0. -1.
         -5    1    3    3    0  502 -0.23225884755E+02 -0.17416763134E+02 -0.10801690615E+01  0.29350034513E+02  0.41800000000E+01 0. -1.
        -11    1    4    4    0    0 -0.13687271048E+02  0.63385988153E+01 -0.22730262363E+01  0.15254044446E+02  0.00000000000E+00 0.  1.
         11    1    4    4    0    0  0.44160640527E+02  0.49582758544E+02 -0.28270126289E+03  0.29039389827E+03  0.00000000000E+00 0. -1.
</event>
<event>
 8    1  0.4798744E-006  0.9052669E+02  0.7561462E-02  0.1301581E+00
         -4   -1    0    0    0  501 -0.00000000000E+00  0.00000000000E+00  0.97374628038E+02  0.97374628038E+02  0.00000000000E+00 0.  1.
          4   -1    0    0  501    0  0.00000000000E+00 -0.00000000000E+00 -0.19902297795E+03  0.19902297795E+03  0.00000000000E+00 0. -1.
         23    2    1    2    0    0 -0.70468765815E+01  0.18681058116E+02  0.33453408945E+02  0.13101556809E+03  0.12508920061E+03 0.  0.
         23    2    1    2    0    0  0.70468765815E+01 -0.18681058116E+02 -0.13510175886E+03  0.16538203790E+03  0.93274288057E+02 0.  0.
          5    1    3    3  502    0  0.41522527384E+01 -0.32866019687E+02  0.62347663978E+02  0.70725667593E+02  0.41800000000E+01 0.  1.
         -5    1    3    3    0  502 -0.11199129320E+02  0.51547077804E+02 -0.28894255033E+02  0.60289900494E+02  0.41800000000E+01 0.  1.
        -11    1    4    4    0    0  0.47968450621E+02 -0.23729017024E+02 -0.85667025619E+02  0.10100929552E+03  0.00000000000E+00 0.  1.
         11    1    4    4    0    0 -0.40921574039E+02  0.50479589075E+01 -0.49434733238E+02  0.64372742378E+02  0.00000000000E+00 0. -1.
</event>
<event>
 8    1  0.4798744E-006  0.1005755E+03  0.7561462E-02  0.1279090E+00
         -2   -1    0    0    0  501 -0.00000000000E+00  0.00000000000E+00  0.58896528457E+03  0.58896528457E+03  0.00000000000E+00 0.  1.
          2   -1    0    0  501    0  0.00000000000E+00 -0.00000000000E+00 -0.30637807532E+02  0.30637807532E+02  0.00000000000E+00 0. -1.
         23    2    1    2    0    0 -0.32939169681E+02 -0.39214409530E+02  0.44236652772E+03  0.46255577052E+03  0.12508771792E+03 0.  0.
         23    2    1    2    0    0  0.32939169681E+02  0.39214409530E+02  0.11596094931E+03  0.15704732158E+03  0.92704695872E+02 0.  0.
          5    1    3    3  502    0 -0.72498394293E+02 -0.75191234553E+01  0.16308586134E+03  0.17868135035E+03  0.41800000000E+01 0.  1.
         -5    1    3    3    0  502  0.39559224612E+02 -0.31695286075E+02  0.27928066638E+03  0.28387442017E+03  0.41800000000E+01 0.  1.
        -11    1    4    4    0    0 -0.12278771683E+02  0.28176531120E+02  0.10475611106E+03  0.10917201081E+03  0.00000000000E+00 0.  1.
         11    1    4    4    0    0  0.45217941364E+02  0.11037878410E+02  0.11204838248E+02  0.47875310768E+02  0.00000000000E+00 0. -1.
</event>
<event>
 8    1  0.4798744E-006  0.9221650E+02  0.7561462E-02  0.1297571E+00
         -1   -1    0    0    0  501 -0.00000000000E+00  0.00000000000E+00  0.24845076861E+02  0.24845076861E+02  0.00000000000E+00 0.  1.
          1   -1    0    0  501    0  0.00000000000E+00 -0.00000000000E+00 -0.59953184431E+03  0.59953184431E+03  0.00000000000E+00 0. -1.
         23    2    1    2    0    0 -0.18241005659E+02  0.40810493852E+02 -0.23081658033E+03  0.26632346207E+03  0.12511459547E+03 0.  0.
         23    2    1    2    0    0  0.18241005659E+02 -0.40810493852E+02 -0.34387018712E+03  0.35805345910E+03  0.89203942104E+02 0.  0.
          5    1    3    3  502    0 -0.42219427241E+02  0.53591214528E+01 -0.21697364512E+03  0.22114754192E+03  0.41800000000E+01 0. -1.
         -5    1    3    3    0  502  0.23978421582E+02  0.35451372399E+02 -0.13842935208E+02  0.45175920154E+02  0.41800000000E+01 0. -1.
        -11    1    4    4    0    0 -0.56057616091E+01 -0.64682512916E+02 -0.19977058210E+03  0.21005603422E+03  0.00000000000E+00 0.  1.
         11    1    4    4    0    0  0.23846767268E+02  0.23872019064E+02 -0.14409960503E+03  0.14799742489E+03  0.00000000000E+00 0. -1.
</event>
<event>
 8    1  0.4798744E-006  0.9687796E+02  0.7561462E-02  0.1287002E+00
         -2   -1    0    0    0  501 -0.00000000000E+00  0.00000000000E+00  0.62561852940E+02  0.62561852940E+02  0.00000000000E+00 0.  1.
          2   -1    0    0  501    0  0.00000000000E+00 -0.00000000000E+00 -0.23035322286E+03  0.23035322286E+03  0.00000000000E+00 0. -1.
         23    2    1    2    0    0 -0.43025895659E+02 -0.34901633344E+02 -0.81050909340E+02  0.15898442677E+03  0.12504977547E+03 0.  0.
         23    2    1    2    0    0  0.43025895659E+02  0.34901633344E+02 -0.86740460578E+02  0.13393064903E+03  0.85698071971E+02 0.  0.
          5    1    3    3  502    0 -0.50278220712E+02  0.57046188454E+01  0.16175198343E+02  0.53287443132E+02  0.41800000000E+01 0.  1.
         -5    1    3    3    0  502  0.72523250525E+01 -0.40606252190E+02 -0.97226107683E+02  0.10569698364E+03  0.41800000000E+01 0.  1.
        -11    1    4    4    0    0  0.57987560578E+02 -0.56855882997E+01 -0.43012843480E+02  0.72422288008E+02  0.00000000000E+00 0.  1.
         11    1    4    4    0    0 -0.14961664919E+02  0.40587221644E+02 -0.43727617098E+02  0.61508361017E+02  0.00000000000E+00 0. -1.
</event>
<event>
 8    1  0.6043130E-006  0.2238030E+03  0.7561462E-02  0.1131079E+00
         -1   -1    0    0    0  501 -0.00000000000E+00  0.00000000000E+00  0.53332859728E+03  0.53332859728E+03  0.00000000000E+00 0.  1.
          1   -1    0    0  501    0  0.00000000000E+00 -0.00000000000E+00 -0.12182669089E+03  0.12182669089E+03  0.00000000000E+00 0. -1.
         23    2    1    2    0    0 -0.21135766923E+03 -0.41990375787E+01  0.32914626799E+03  0.41070050884E+03  0.12509175022E+03 0.  0.
         23    2    1    2    0    0  0.21135766923E+03  0.41990375787E+01  0.82355638395E+02  0.24445477933E+03  0.91027422821E+02 0.  0.
          5    1    3    3  502    0 -0.97686738216E+02 -0.41045070603E+02  0.23734523264E+03  0.25995697433E+03  0.41800000000E+01 0. -1.
         -5    1    3    3    0  502 -0.11367093101E+03  0.36846033024E+02  0.91801035355E+02  0.15074353452E+03  0.41800000000E+01 0. -1.
        -11    1    4    4    0    0  0.86605121404E+02 -0.31632511692E+02  0.28533590985E+01  0.92245349517E+02  0.00000000000E+00 0.  1.
         11    1    4    4    0    0  0.12475254782E+03  0.35831549271E+02  0.79502279296E+02  0.15220942982E+03  0.00000000000E+00 0. -1.
</event>
<event>
 7    1  0.4798744E-006  0.1148978E+03  0.7561462E-02  0.1251760E+00
         -2   -1    0    0    0  501 -0.00000000000E+00  0.00000000000E+00  0.32683918720E+02  0.32683918720E+02  0.00000000000E+00 0.  1.
          2   -1    0    0  501    0  0.00000000000E+00 -0.00000000000E+00 -0.63872690010E+03  0.63872690010E+03  0.00000000000E+00 0. -1.
         23    2    1    2    0    0 -0.21161850473E+02 -0.40157390331E+02 -0.38233621721E+03  0.38977492227E+03  0.60688278281E+02 0.  0.
          5    1    1    2  502    0 -0.47491191158E+02  0.67392110141E+02 -0.17377400819E+03  0.19238499959E+03  0.41800000000E+01 0. -1.
         -5    1    1    2    0  502  0.68653041632E+02 -0.27234719810E+02 -0.49932755977E+02  0.89250896958E+02  0.41800000000E+01 0.  1.
        -11    1    3    3    0    0 -0.40079889951E+02 -0.36056575577E+02 -0.31976481450E+03  0.32427767548E+03  0.00000000000E+00 0. -1.
         11    1    3    3    0    0  0.18918039478E+02 -0.41008147549E+01 -0.62571402710E+02  0.65497246785E+02  0.00000000000E+00 0.  1.
</event>
<event>
 8    1  0.4798744E-006  0.6387393E+02  0.7561462E-02  0.1382258E+00
          2   -1    0    0  501    0  0.00000000000E+00  0.00000000000E+00  0.86725861988E+02  0.86725861988E+02  0.00000000000E+00 0. -1.
         -2   -1    0    0    0  501 -0.00000000000E+00 -0.00000000000E+00 -0.14083048617E+03  0.14083048617E+03  0.00000000000E+00 0.  1.
         23    2    1    2    0    0 -0.10507252181E+02 -0.78164180493E+01 -0.48088770982E+02  0.13465285992E+03  0.12508942421E+03 0.  0.
         23    2    1    2    0    0  0.10507252181E+02  0.78164180493E+01 -0.60158531998E+01  0.92903488241E+02  0.91778913145E+02 0.  0.
          5    1    3    3  502    0  0.14160910134E+02  0.36108786017E+02  0.24596181889E+02  0.46117462712E+02  0.41800000000E+01 0. -1.
         -5    1    3    3    0  502 -0.24668162315E+02 -0.43925204067E+02 -0.72684952871E+02  0.88535397204E+02  0.41800000000E+01 0. -1.
        -11    1    4    4    0    0  0.21814517321E+02  0.13372758413E+02 -0.45092382019E+02  0.51846183559E+02  0.00000000000E+00 0.  1.
         11    1    4    4    0    0 -0.11307265140E+02 -0.55563403638E+01  0.39076528819E+02  0.41057304682E+02  0.00000000000E+00 0. -1.
</event>
<event>
 8    1  0.4798744E-006  0.1111429E+03  0.7561462E-02  0.1258468E+00
          3   -1    0    0  501    0  0.00000000000E+00  0.00000000000E+00  0.16059962284E+03  0.16059962284E+03  0.00000000000E+00 0. -1.
         -3   -1    0    0    0  501 -0.00000000000E+00 -0.00000000000E+00 -0.14996256747E+03  0.14996256747E+03  0.00000000000E+00 0.  1.
         23    2    1    2    0    0  0.40056828489E+02  0.41566195366E+02 -0.89019649777E+02  0.16402768534E+03  0.12509310694E+03 0.  0.
         23    2    1    2    0    0 -0.40056828489E+02 -0.41566195366E+02  0.99656705143E+02  0.14653450498E+03  0.90601347468E+02 0.  0.
          5    1    3    3  502    0 -0.27355037409E+02 -0.13125265071E+02 -0.68051486374E+02  0.74626053443E+02  0.41800000000E+01 0. -1.
         -5    1    3    3    0  502  0.67411865898E+02  0.54691460438E+02 -0.20968163403E+02  0.89401631893E+02  0.41800000000E+01 0. -1.
        -11    1    4    4    0    0 -0.57573385886E+02 -0.57283375818E+02  0.62200608044E+02  0.10229856083E+03  0.00000000000E+00 0.  1.
         11    1    4    4    0    0  0.17516557397E+02  0.15717180452E+02  0.37456097100E+02  0.44235944144E+02  0.00000000000E+00 0. -1.
</event>
<event>
 8    1  0.4798744E-006  0.1212239E+03  0.7561462E-02  0.1241092E+00
          2   -1    0    0  501    0  0.00000000000E+00  0.00000000000E+00  0.13284700922E+03  0.13284700922E+03  0.00000000000E+00 0. -1.
         -2   -1    0    0    0  501 -0.00000000000E+00 -0.00000000000E+00 -0.13484795570E+03  0.13484795570E+03  0.00000000000E+00 0.  1.
         23    2    1    2    0    0  0.13007229475E+02  0.75612206759E+02 -0.13008260429E+02  0.14731852067E+03  0.12508852011E+03 0.  0.
         23    2    1    2    0    0 -0.13007229475E+02 -0.75612206759E+02  0.11007313950E+02  0.12037644425E+03  0.92102842197E+02 0.  0.
          5    1    3    3  502    0 -0.51780416784E+02  0.57633066667E+02 -0.18384043596E+02  0.79738493807E+02  0.41800000000E+01 0. -1.
         -5    1    3    3    0  502  0.64787646258E+02  0.17979140092E+02  0.53757831672E+01  0.67580026863E+02  0.41800000000E+01 0. -1.
        -11    1    4    4    0    0 -0.37004668568E+02 -0.39429615327E+02 -0.28980169982E+02  0.61350552670E+02  0.00000000000E+00 0.  1.
         11    1    4    4    0    0  0.23997439094E+02 -0.36182591432E+02  0.39987483933E+02  0.59025891582E+02  0.00000000000E+00 0. -1.
</event>
<event>
 8    1  0.4798744E-006  0.7908073E+02  0.7561462E-02  0.1331681E+00
          2   -1    0    0  501    0  0.00000000000E+00  0.00000000000E+00  0.49670961023E+03  0.49670961023E+03  0.00000000000E+00 0. -1.
         -2   -1    0    0    0  501 -0.00000000000E+00 -0.00000000000E+00 -0.24147863468E+02  0.24147863468E+02  0.00000000000E+00 0.  1.
         23    2    1    2    0    0 -0.78577168612E+01  0.10015427775E+02  0.24568649047E+03  0.27599193435E+03  0.12509054208E+03 0.  0.
         23    2    1    2    0    0  0.78577168612E+01 -0.10015427775E+02  0.22687525629E+03  0.24486553935E+03  0.91239782632E+02 0.  0.
          5    1    3    3  502    0 -0.46479035177E+02  0.14473846104E+02  0.31202781865E+02  0.57973087964E+02  0.41800000000E+01 0.  1.
         -5    1    3    3    0  502  0.38621318315E+02 -0.44584183288E+01  0.21448370860E+03  0.21801884638E+03  0.41800000000E+01 0.  1.
        -11    1    4    4    0    0  0.24136990311E+02  0.23030615993E+02  0.30950148671E+02  0.45507310150E+02  0.00000000000E+00 0.  1.
         11    1    4    4    0    0 -0.16279273450E+02 -0.33046043768E+02  0.19592510762E+03  0.19935822920E+03  0.00000000000E+00 0. -1.
</event>
<event>
 7    1  0.4798744E-006  0.7115211E+02  0.7561462E-02  0.1356218E+00
         -2   -1    0    0    0  501 -0.00000000000E+00  0.00000000000E+00  0.43817940505E+03  0.43817940505E+03  0.00000000000E+00 0.  1.
          2   -1    0    0  501    0  0.00000000000E+00 -0.00000000000E+00 -0.24301725176E+03  0.24301725176E+03  0.00000000000E+00 0. -1.
         23    2    1    2    0    0 -0.45950339340E+02 -0.49463940743E+02 -0.21920672155E+03  0.23645697474E+03  0.57464763210E+02 0.  0.
          5    1    1    2  502    0 -0.59165676068E+00  0.84574813054E+01 -0.11198772908E+02  0.14654827273E+02  0.41800000000E+01 0. -1.
         -5    1    1    2    0  502  0.46541996101E+02  0.41006459438E+02  0.42556764775E+03  0.43008485480E+03  0.41800000000E+01 0.  1.
        -11    1    3    3    0    0 -0.29798739246E+02 -0.16716636451E+02 -0.17863729318E+03  0.18187548848E+03  0.00000000000E+00 0. -1.
         11    1    3    3    0    0 -0.16151600094E+02 -0.32747304292E+02 -0.40569428367E+02  0.54581486257E+02  0.00000000000E+00 0.  1.
</event>
<event>
 8    1  0.4798744E-006  0.1115324E+03  0.7561462E-02  0.1257758E+00
          2   -1    0    0  501    0  0.00000000000E+00  0.00000000000E+00  0.87486825126E+03  0.87486825126E+03  0.00000000000E+00 0. -1.
         -2   -1    0    0    0  501 -0.00000000000E+00 -0.00000000000E+00 -0.21675546699E+02  0.21675546699E+02  0.00000000000E+00 0.  1.
         23    2    1    2    0    0  0.51923819962E+02  0.54024327449E+02  0.39800095319E+03  0.42387450062E+03  0.12510044965E+03 0.  0.
         23    2    1    2    0    0 -0.51923819962E+02 -0.54024327449E+02  0.45519175137E+03  0.47266929733E+03  0.10296612595E+03 0.  0.
          5    1    3    3  502    0  0.11721861998E+02  0.57044072653E+02  0.37007909647E+03  0.37465642703E+03  0.41800000000E+01 0.  1.
         -5    1    3    3    0  502  0.40201957964E+02 -0.30197452042E+01  0.27921856725E+02  0.49218073593E+02  0.41800000000E+01 0.  1.
        -11    1    4    4    0    0 -0.18957486899E+02 -0.79975981556E+02  0.24777289320E+03  0.26104970895E+03  0.00000000000E+00 0.  1.
         11    1    4    4    0    0 -0.32966333062E+02  0.25951654108E+02  0.20741885816E+03  0.21161958838E+03  0.00000000000E+00 0. -1.
</event>
<event>
 8    1  0.4798744E-006  0.1391294E+03  0.7561462E-02  0.1214505E+00
         -2   -1    0    0    0  501 -0.00000000000E+00  0.00000000000E+00  0.15197700837E+03  0.15197700837E+03  0.00000000000E+00 0.  1.
          2   -1    0    0  501    0  0.00000000000E+00 -0.00000000000E+00 -0.17087834173E+03  0.17087834173E+03  0.00000000000E+00 0. -1.
         23    2    1    2    0    0  0.98244469278E+02 -0.59345021532E+02  0.20084982810E+02  0.17095251362E+03  0.12509015970E+03 0.  0.
         23    2    1    2    0    0 -0.98244469278E+02  0.59345021532E+02 -0.38986316170E+02  0.15190283649E+03  0.91546335586E+02 0.  0.
          5    1    3    3  502    0 -0.93031740549E+01 -0.12000810883E+02  0.47648065377E+02  0.50183453882E+02  0.41800000000E+01 0.  1.
         -5    1    3    3    0  502  0.10754764333E+03 -0.47344210649E+02 -0.27563082567E+02  0.12076905973E+03  0.41800000000E+01 0.  1.
        -11    1    4    4    0    0  0.16376965616E+02  0.14407159695E+02 -0.15000482480E+02  0.26472357807E+02  0.00000000000E+00 0.  1.
         11    1    4    4    0    0 -0.11462143489E+03  0.44937861838E+02 -0.23985833691E+02  0.12543047868E+03  0.00000000000E+00 0. -1.
</event>
<event>
 8    1  0.4798744E-006  0.1181508E+03  0.7561462E-02  0.1246179E+00
          2   -1    0    0  501    0  0.00000000000E+00  0.00000000000E+00  0.54949905319E+02  0.54949905319E+02  0.00000000000E+00 0. -1.
         -2   -1    0    0    0  501 -0.00000000000E+00 -0.00000000000E+00 -0.34659792036E+03  0.34659792036E+03  0.00000000000E+00 0.  1.
         23    2    1    2    0    0  0.44649391332E+02  0.64436886392E+02 -0.20779415576E+03  0.25489572929E+03  0.12509093161E+03 0.  0.
         23    2    1    2    0    0 -0.44649391332E+02 -0.64436886392E+02 -0.83853859285E+02  0.14665209639E+03  0.91267119949E+02 0.  0.
          5    1    3    3  502    0 -0.27382305989E+02  0.21605033167E+02 -0.50702454660E+01  0.35492927866E+02  0.41800000000E+01 0. -1.
         -5    1    3    3    0  502  0.72031697321E+02  0.42831853225E+02 -0.20272391029E+03  0.21940280142E+03  0.41800000000E+01 0. -1.
        -11    1    4    4    0    0 -0.67709413880E+02 -0.65464323694E+02 -0.79308624114E+02  0.12312595284E+03  0.00000000000E+00 0.  1.
         11    1    4    4    0    0  0.23060022548E+02  0.10274373024E+01 -0.45452351709E+01  0.23526143545E+02  0.00000000000E+00 0. -1.
</event>
<event>
 8    1  0.4798744E-006  0.1340021E+03  0.7561462E-02  0.1221635E+00
         -2   -1    0    0    0  501 -0.00000000000E+00  0.00000000000E+00  0.16341584071E+03  0.16341584071E+03  0.00000000000E+00 0.  1.
          2   -1    0    0  501    0  0.00000000000E+00 -0.00000000000E+00 -0.12667682565E+03  0.12667682565E+03  0.00000000000E+00 0. -1.
         23    2    1    2    0    0 -0.97360167791E+02  0.22898124979E+02  0.37774078482E+02  0.15439395949E+03  0.11138800349E+03 0.  0.
         23    2    1    2    0    0  0.97360167791E+02 -0.22898124979E+02 -0.10350634191E+01  0.13569870688E+03  0.91704641607E+02 0.  0.
          5    1    3    3  502    0 -0.14919899836E+02 -0.41923195173E+02  0.94367854161E+01  0.45680225740E+02  0.41800000000E+01 0. -1.
         -5    1    3    3    0  502 -0.82440267955E+02  0.64821320152E+02  0.28337293066E+02  0.10871373375E+03  0.41800000000E+01 0.  1.
        -11    1    4    4    0    0  0.65407063379E+02  0.16666940768E+02 -0.33510117068E+02  0.75357805172E+02  0.00000000000E+00 0. -1.
         11    1    4    4    0    0  0.31953104412E+02 -0.39565065747E+02  0.32475053649E+02  0.60340901706E+02  0.00000000000E+00 0.  1.
</event>
<event>
 8    1  0.4798744E-006  0.1232613E+03  0.7561462E-02  0.1237812E+00
          2   -1    0    0  501    0  0.00000000000E+00  0.00000000000E+00  0.56260388202E+03  0.56260388202E+03  0.00000000000E+00 0. -1.
         -2   -1    0    0    0  501 -0.00000000000E+00 -0.00000000000E+00 -0.32328020567E+02  0.32328020567E+02  0.00000000000E+00 0.  1.
         23    2    1    2    0    0 -0.28317514560E+02  0.54756996163E+02  0.18419198987E+03  0.23102920300E+03  0.12509034034E+03 0.  0.
         23    2    1    2    0    0  0.28317514560E+02 -0.54756996163E+02  0.34608387159E+03  0.36390269959E+03  0.94079319390E+02 0.  0.
          5    1    3    3  502    0  0.44178597088E+02 -0.56835208996E+01  0.52997011248E+02  0.69355651909E+02  0.41800000000E+01 0. -1.
         -5    1    3    3    0  502 -0.72496111648E+02  0.60440517062E+02  0.13119497862E+03  0.16167355109E+03  0.41800000000E+01 0. -1.
        -11    1    4    4    0    0  0.20247741293E+02  0.22130588463E+02  0.54118808264E+02  0.61875515199E+02  0.00000000000E+00 0. -1.
         11    1    4    4    0    0  0.80697732662E+01 -0.76887584626E+02  0.29196506333E+03  0.30202718439E+03  0.00000000000E+00 0.  1.
</event>
<event>
 8    1  0.4798744E-006  0.1236083E+03  0.7561462E-02  0.1237260E+00
         -2   -1    0    0    0  501 -0.00000000000E+00  0.00000000000E+00  0.27031017804E+03  0.27031017804E+03  0.00000000000E+00 0. -1.
          2   -1    0    0  501    0  0.00000000000E+00 -0.00000000000E+00 -0.79268845817E+02  0.79268845817E+02  0.00000000000E+00 0.  1.
         23    2    1    2    0    0 -0.89791550751E+02 -0.84105136761E+01  0.11836958682E+03  0.19440285634E+03  0.12509137516E+03 0.  0.
         23    2    1    2    0    0  0.89791550751E+02  0.84105136761E+01  0.72671745394E+02  0.15517616752E+03  0.10327246032E+03 0.  0.
          5    1    3    3  502    0 -0.84012740632E+02 -0.32525910274E+02  0.13635762182E+03  0.16348378775E+03  0.41800000000E+01 0. -1.
         -5    1    3    3    0  502 -0.57788101191E+01  0.24115396598E+02 -0.17988034996E+02  0.30919068590E+02  0.41800000000E+01 0. -1.
        -11    1    4    4    0    0  0.45169960065E+02 -0.43994278074E+02  0.13667707136E+02  0.64518431583E+02  0.00000000000E+00 0.  1.
         11    1    4    4    0    0  0.44621590686E+02  0.52404791750E+02  0.59004038258E+02  0.90657735933E+02  0.00000000000E+00 0. -1.
</event>
<event>
 8    1  0.4798744E-006  0.1023397E+03  0.7561462E-02  0.1275451E+00
          2   -1    0    0  501    0  0.00000000000E+00  0.00000000000E+00  0.48001841314E+03  0.48001841314E+03  0.00000000000E+00 0. -1.
         -2   -1    0    0    0  501 -0.00000000000E+00 -0.00000000000E+00 -0.27024473155E+02  0.27024473155E+02  0.00000000000E+00 0.  1.
         23    2    1    2    0    0 -0.94561851019E+01 -0.46843097708E+02  0.28219044741E+03  0.31234926028E+03  0.12508763546E+03 0.  0.
         23    2    1    2    0    0  0.94561851019E+01  0.46843097708E+02  0.17080349257E+03  0.19469362602E+03  0.80299935849E+02 0.  0.
          5    1    3    3  502    0  0.54793865309E+02 -0.13560985424E+02  0.16621801320E+03  0.17559091182E+03  0.41800000000E+01 0. -1.
         -5    1    3    3    0  502 -0.64250050411E+02 -0.33282112284E+02  0.11597243422E+03  0.13675834846E+03  0.41800000000E+01 0. -1.
        -11    1    4    4    0    0  0.31109270580E+02  0.43813560561E+02  0.16275374818E+03  0.17139485800E+03  0.00000000000E+00 0. -1.
         11    1    4    4    0    0 -0.21653085478E+02  0.30295371477E+01  0.80497443939E+01  0.23298768011E+02  0.00000000000E+00 0.  1.
</event>
<event>
 8    1  0.4798744E-006  0.1179488E+03  0.7561462E-02  0.1246520E+00
         -2   -1    0    0    0  501 -0.00000000000E+00  0.00000000000E+00  0.29831564264E+02  0.29831564264E+02  0.00000000000E+00 0.  1.
          2   -1    0    0  501    0  0.00000000000E+00 -0.00000000000E+00 -0.60470233761E+03  0.60470233761E+03  0.00000000000E+00 0. -1.
         23    2    1    2    0    0 -0.13430220777E+02  0.59194802374E+02 -0.19726394903E+03  0.24135439384E+03  0.12511787394E+03 0.  0.
         23    2    1    2    0    0  0.13430220777E+02 -0.59194802374E+02 -0.37760682432E+03  0.39317950804E+03  0.91207545254E+02 0.  0.
          5    1    3    3  502    0  0.26324577587E+02 -0.22848054947E+02 -0.16355805697E+02  0.38729856442E+02  0.41800000000E+01 0.  1.
         -5    1    3    3    0  502 -0.39754798364E+02  0.82042857321E+02 -0.18090814333E+03  0.20262453740E+03  0.41800000000E+01 0.  1.
        -11    1    4    4    0    0  0.72636975696E-01 -0.82588739470E+02 -0.28061339508E+03  0.29251458538E+03  0.00000000000E+00 0.  1.
         11    1    4    4    0    0  0.13357583801E+02  0.23393937096E+02 -0.96993429241E+02  0.10066492266E+03  0.00000000000E+00 0. -1.
</event>
<event>
 8    1  0.4798744E-006  0.6868003E+02  0.7561462E-02  0.1364640E+00
          2   -1    0    0  501    0  0.00000000000E+00  0.00000000000E+00  0.40755170523E+02  0.40755170523E+02  0.00000000000E+00 0.  1.
         -2   -1    0    0    0  501 -0.00000000000E+00 -0.00000000000E+00 -0.37381570072E+03  0.37381570072E+03  0.00000000000E+00 0. -1.
         23    2    1    2    0    0  0.45319842541E+02  0.10752177516E+02 -0.23324130174E+03  0.26873262707E+03  0.12508486145E+03 0.  0.
         23    2    1    2    0    0 -0.45319842541E+02 -0.10752177516E+02 -0.99819228454E+02  0.14583824417E+03  0.95579378763E+02 0.  0.
          5    1    3    3  502    0  0.34293224203E+02  0.26651726472E+02 -0.24284289674E+03  0.24673160447E+03  0.41800000000E+01 0.  1.
         -5    1    3    3    0  502  0.11026618337E+02 -0.15899548956E+02  0.96015949932E+01  0.22001022598E+02  0.41800000000E+01 0.  1.
        -11    1    4    4    0    0 -0.52021625655E+02 -0.25349929022E+02 -0.11173961570E+03  0.12583564739E+03  0.00000000000E+00 0. -1.
         11    1    4    4    0    0  0.67017831142E+01  0.14597751506E+02  0.11920387246E+02  0.20002596782E+02  0.00000000000E+00 0.  1.
</event>
<event>
 7    1  0.4798744E-006  0.1629439E+03  0.7561462E-02  0.1185413E+00
          1   -1    0    0  501    0  0.00000000000E+00  0.00000000000E+00  0.12381742825E+03  0.12381742825E+03  0.00000000000E+00 0. -1.
         -1   -1    0    0    0  501 -0.00000000000E+00 -0.00000000000E+00 -0.26872281970E+03  0.26872281970E+03  0.00000000000E+00 0.  1.
         23    2    1    2    0    0 -0.48169768977E+02  0.21140846785E+02 -0.16953658006E+02  0.11421744641E+03  0.99954672222E+02 0.  0.
          5    1    1    2  502    0 -0.18168737244E+02 -0.10877408459E+03 -0.10186911205E+01  0.11036491572E+03  0.41800000000E+01 0. -1.
         -5    1    1    2    0  502  0.66338506221E+02  0.87633237801E+02 -0.12693304232E+03  0.16795788582E+03  0.41800000000E+01 0.  1.
        -11    1    3    3    0    0 -0.66044075548E+02  0.41845253280E+02  0.61320749002E+01  0.78424788681E+02  0.00000000000E+00 0.  1.
         11    1    3    3    0    0  0.17874306570E+02 -0.20704406495E+02 -0.23085732906E+02  0.35792657731E+02  0.00000000000E+00 0. -1.
</event>
<event>
 8    1  0.4798744E-006  0.1145220E+03  0.7561462E-02  0.1252418E+00
         -3   -1    0    0    0  501 -0.00000000000E+00  0.00000000000E+00  0.21230325883E+03  0.21230325883E+03  0.00000000000E+00 0.  1.
          3   -1    0    0  501    0  0.00000000000E+00 -0.00000000000E+00 -0.83574149995E+02  0.83574149995E+02  0.00000000000E+00 0. -1.
         23    2    1    2    0    0  0.76054976363E+01  0.76594325885E+02  0.78324392174E+02  0.16644656740E+03  0.12508083402E+03 0.  0.
         23    2    1    2    0    0 -0.76054976363E+01 -0.76594325885E+02  0.50404716659E+02  0.12943084142E+03  0.91033910698E+02 0.  0.
          5    1    3    3  502    0  0.60788651813E+02  0.12500645969E+02  0.22733401350E+02  0.66225420163E+02  0.41800000000E+01 0. -1.
         -5    1    3    3    0  502 -0.53183154177E+02  0.64093679917E+02  0.55590990824E+02  0.10022114724E+03  0.41800000000E+01 0. -1.
        -11    1    4    4    0    0  0.12752562804E+02 -0.28108565303E+02 -0.23452711294E+02  0.38765306248E+02  0.00000000000E+00 0. -1.
         11    1    4    4    0    0 -0.20358060441E+02 -0.48485760582E+02  0.73857427953E+02  0.90665535172E+02  0.00000000000E+00 0.  1.
</event>
<event>
 8    1  0.4798744E-006  0.1256776E+03  0.7561462E-02  0.1234014E+00
         -1   -1    0    0    0  501 -0.00000000000E+00  0.00000000000E+00  0.35648793754E+03  0.35648793754E+03  0.00000000000E+00 0.  1.
          1   -1    0    0  501    0  0.00000000000E+00 -0.00000000000E+00 -0.92011800449E+02  0.92011800449E+02  0.00000000000E+00 0. -1.
         23    2    1    2    0    0 -0.26357991164E+02 -0.84618333313E+02  0.28251883028E+03  0.32143310294E+03  0.12508934477E+03 0.  0.
         23    2    1    2    0    0  0.26357991164E+02  0.84618333313E+02 -0.18042693189E+02  0.12706663505E+03  0.89249005224E+02 0.  0.
          5    1    3    3  502    0  0.97112718694E+01 -0.96254002818E+02  0.25929933018E+03  0.27679009537E+03  0.41800000000E+01 0.  1.
         -5    1    3    3    0  502 -0.36069263034E+02  0.11635669504E+02  0.23219500094E+02  0.44643007574E+02  0.41800000000E+01 0.  1.
        -11    1    4    4    0    0  0.40201286613E+02  0.92218659406E+02 -0.32435003037E+02  0.10569982975E+03  0.00000000000E+00 0.  1.
         11    1    4    4    0    0 -0.13843295449E+02 -0.76003260932E+01  0.14392309848E+02  0.21366805292E+02  0.00000000000E+00 0. -1.
</event>
<event>
 8    1  0.4798744E-006  0.9606908E+02  0.7561462E-02  0.1288786E+00
         -3   -1    0    0    0  501 -0.00000000000E+00  0.00000000000E+00  0.25754158767E+03  0.25754158767E+03  0.00000000000E+00 0.  1.
          3   -1    0    0  501    0  0.00000000000E+00 -0.00000000000E+00 -0.51348618781E+02  0.51348618781E+02  0.00000000000E+00 0. -1.
         23    2    1    2    0    0  0.24739278969E+01  0.15838759080E+02  0.17040234904E+03  0.21199611678E+03  0.12509359041E+03 0.  0.
         23    2    1    2    0    0 -0.24739278969E+01 -0.15838759080E+02  0.35790619848E+02  0.96894089673E+02  0.88603101165E+02 0.  0.
          5    1    3    3  502    0  0.35591026000E+02  0.52530068249E+02  0.14013523364E+03  0.15388789851E+03  0.41800000000E+01 0.  1.
         -5    1    3    3    0  502 -0.33117098103E+02 -0.36691309169E+02  0.30267115405E+02  0.58108218268E+02  0.41800000000E+01 0.  1.
        -11    1    4    4    0    0  0.37009437576E+02 -0.18433415590E+01 -0.62123358802E+01  0.37572456599E+02  0.00000000000E+00 0. -1.
         11    1    4    4    0    0 -0.39483365473E+02 -0.13995417521E+02  0.42002955728E+02  0.59321633074E+02  0.00000000000E+00 0.  1.
</event>
<event>
 8    1  0.4798744E-006  0.1114842E+03  0.7561462E-02  0.1257846E+00
          1   -1    0    0  501    0  0.00000000000E+00  0.00000000000E+00  0.66164019497E+03  0.66164019497E+03  0.00000000000E+00 0. -1.
         -1   -1    0    0    0  501 -0.00000000000E+00 -0.00000000000E+00 -0.24108979771E+02  0.24108979771E+02  0.00000000000E+00 0.  1.
         23    2    1    2    0    0 -0.39745808247E+01  0.33049467016E+02  0.20995297046E+03  0.24664951181E+03  0.12509063637E+03 0.  0.
         23    2    1    2    0    0  0.39745808247E+01 -0.33049467016E+02  0.42757824474E+03  0.43909966293E+03  0.94219393183E+02 0.  0.
          5    1    3    3  502    0 -0.52885123360E+02 -0.15877902275E+02  0.12703850803E+03  0.13858282352E+03  0.41800000000E+01 0. -1.
         -5    1    3    3    0  502  0.48910542535E+02  0.48927369290E+02  0.82914462438E+02  0.10806668829E+03  0.41800000000E+01 0. -1.
        -11    1    4    4    0    0  0.42460621473E+02 -0.40957401377E+02  0.29410922625E+03  0.29996774838E+03  0.00000000000E+00 0. -1.
         11    1    4    4    0    0 -0.38486040649E+02  0.79079343617E+01  0.13346901849E+03  0.13913191455E+03  0.00000000000E+00 0.  1.
</event>
<event>
 8    1  0.4798744E-006  0.1050294E+03  0.7561462E-02  0.1270062E+00
         -2   -1    0    0    0  501 -0.00000000000E+00  0.00000000000E+00  0.10206997558E+03  0.10206997558E+03  0.00000000000E+00 0.  1.
          2   -1    0    0  501    0  0.00000000000E+00 -0.00000000000E+00 -0.15207307672E+03  0.15207307672E+03  0.00000000000E+00 0. -1.
         23    2    1    2    0    0 -0.46396851956E+02  0.82012029260E+01  0.31793319894E+01  0.13370030677E+03  0.12508291761E+03 0.  0.
         23    2    1    2    0    0  0.46396851956E+02 -0.82012029260E+01 -0.53182433135E+02  0.12044274553E+03  0.97253052167E+02 0.  0.
          5    1    3    3  502    0 -0.70051896329E+02  0.29392035398E+02 -0.35097626943E+02  0.83788279259E+02  0.41800000000E+01 0.  1.
         -5    1    3    3    0  502  0.23655044373E+02 -0.21190832472E+02  0.38276958933E+02  0.49912027511E+02  0.41800000000E+01 0.  1.
        -11    1    4    4    0    0 -0.24486785374E+01  0.35990477773E+02 -0.46776033241E+00  0.36076714327E+02  0.00000000000E+00 0.  1.
         11    1    4    4    0    0  0.48845530493E+02 -0.44191680699E+02 -0.52714672803E+02  0.84366031202E+02  0.00000000000E+00 0. -1.
</event>
<event>
 7    1  0.4798744E-006  0.1452424E+03  0.7561462E-02  0.1206444E+00
         -1   -1    0    0    0  501 -0.00000000000E+00  0.00000000000E+00  0.11164724521E+03  0.11164724521E+03  0.00000000000E+00 0.  1.
          1   -1    0    0  501    0  0.00000000000E+00 -0.00000000000E+00 -0.21629331281E+03  0.21629331281E+03  0.00000000000E+00 0. -1.
         23    2    1    2    0    0  0.55014546129E+02  0.79326893218E+02 -0.42566130793E+02  0.13876541630E+03  0.90136612970E+02 0.  0.
          5    1    1    2  502    0 -0.20612018185E+02  0.42297341544E+02 -0.37570581005E+02  0.60356783814E+02  0.41800000000E+01 0. -1.
         -5    1    1    2    0  502 -0.34402527944E+02 -0.12162423476E+03 -0.24509355804E+02  0.12881835790E+03  0.41800000000E+01 0.  1.
        -11    1    3    3    0    0  0.60137730896E+02  0.30028455609E+02  0.83193180840E+01  0.67730834019E+02  0.00000000000E+00 0.  1.
         11    1    3    3    0    0 -0.51231847665E+01  0.49298437609E+02 -0.50885448877E+02  0.71034582284E+02  0.00000000000E+00 0. -1.
</event>
<event>
 8    1  0.4798744E-006  0.1357559E+03  0.7561462E-02  0.1219156E+00
          2   -1    0    0  501    0  0.00000000000E+00  0.00000000000E+00  0.83897460104E+02  0.83897460104E+02  0.00000000000E+00 0.  1.
         -2   -1    0    0    0  501 -0.00000000000E+00 -0.00000000000E+00 -0.26444018449E+03  0.26444018449E+03  0.00000000000E+00 0. -1.
         23    2    1    2    0    0 -0.21230338680E+02  0.73831760131E+02 -0.15891769319E+03  0.21634282858E+03  0.12509008828E+03 0.  0.
         23    2    1    2    0    0  0.21230338680E+02 -0.73831760131E+02 -0.21625031193E+02  0.13199481601E+03  0.10513388319E+03 0.  0.
          5    1    3    3  502    0 -0.32168010512E+00  0.10612762433E+03 -0.13088315787E+03  0.16855577575E+03  0.41800000000E+01 0.  1.
         -5    1    3    3    0  502 -0.20908658575E+02 -0.32295864201E+02 -0.28034535314E+02  0.47787052830E+02  0.41800000000E+01 0.  1.
        -11    1    4    4    0    0 -0.30254526511E+02 -0.68447899951E+02  0.25124130616E+01  0.74878325312E+02  0.00000000000E+00 0.  1.
         11    1    4    4    0    0  0.51484865192E+02 -0.53838601799E+01 -0.24137444254E+02  0.57116490695E+02  0.00000000000E+00 0. -1.
</event>
<event>
 8    1  0.4798744E-006  0.1245306E+03  0.7561462E-02  0.1235805E+00
          1   -1    0    0  501    0  0.00000000000E+00  0.00000000000E+00  0.50030952199E+03  0.50030952199E+03  0.00000000000E+00 0. -1.
         -1   -1    0    0    0  501 -0.00000000000E+00 -0.00000000000E+00 -0.40167900995E+02  0.40167900995E+02  0.00000000000E+00 0.  1.
         23    2    1    2    0    0 -0.27317684896E+02  0.86316005425E+02  0.24981993636E+03  0.29369053131E+03  0.12508964335E+03 0.  0.
         23    2    1    2    0    0  0.27317684896E+02 -0.86316005425E+02  0.21032168464E+03  0.24678689168E+03  0.92042654121E+02 0.  0.
          5    1    3    3  502    0 -0.13641603617E+02 -0.31239329341E+02  0.75582251068E+02  0.83018902206E+02  0.41800000000E+01 0.  1.
         -5    1    3    3    0  502 -0.13676081280E+02  0.11755533477E+03  0.17423768529E+03  0.21067162910E+03  0.41800000000E+01 0.  1.
        -11    1    4    4    0    0 -0.67969753444E+01 -0.27260272811E+02  0.26693568432E+01  0.28221389291E+02  0.00000000000E+00 0.  1.
         11    1    4    4    0    0  0.34114660241E+02 -0.59055732615E+02  0.20765232779E+03  0.21856550239E+03  0.00000000000E+00 0. -1.
</event>
<event>
 7    1  0.4798744E-006  0.1629103E+03  0.7561462E-02  0.1185450E+00
          1   -1    0    0  501    0  0.00000000000E+00  0.00000000000E+00  0.57414640287E+03  0.57414640287E+03  0.00000000000E+00 0. -1.
         -1   -1    0    0    0  501 -0.00000000000E+00 -0.00000000000E+00 -0.62780532203E+02  0.62780532203E+02  0.00000000000E+00 0.  1.
         23    2    1    2    0    0 -0.16865537099E+02 -0.11831912515E+03  0.19451649124E+03  0.26032399796E+03  0.12509219332E+03 0.  0.
          5    1    3    3  502    0  0.91171607601E+01 -0.68442757501E+02  0.19176906063E+03  0.20386362767E+03  0.41800000000E+01 0.  1.
         -5    1    3    3    0  502 -0.25982697859E+02 -0.49876367651E+02  0.27474306183E+01  0.56460370288E+02  0.41800000000E+01 0.  1.
        -11    1    1    2    0    0 -0.66789446181E+02  0.89708318133E+02  0.14278998082E+03  0.18137637962E+03  0.00000000000E+00 0.  1.
         11    1    1    2    0    0  0.83654983280E+02  0.28610807019E+02  0.17405939861E+03  0.19522655749E+03  0.00000000000E+00 0. -1.
</event>
<event>
 8    1  0.4798744E-006  0.1252381E+03  0.7561462E-02  0.1234698E+00
         -1   -1    0    0    0  501 -0.00000000000E+00  0.00000000000E+00  0.40148029679E+02  0.40148029679E+02  0.00000000000E+00 0.  1.
          1   -1    0    0  501    0  0.00000000000E+00 -0.00000000000E+00 -0.52872004563E+03  0.52872004563E+03  0.00000000000E+00 0. -1.
         23    2    1    2    0    0 -0.15534908709E+02  0.83791210560E+02 -0.17787447040E+03  0.23355608513E+03  0.12508723887E+03 0.  0.
         23    2    1    2    0    0  0.15534908709E+02 -0.83791210560E+02 -0.31069754556E+03  0.33531199018E+03  0.92945497930E+02 0.  0.
          5    1    3    3  502    0  0.48965101040E+02  0.78712664771E+01 -0.77282467111E+02  0.91921651849E+02  0.41800000000E+01 0. -1.
         -5    1    3    3    0  502 -0.64500009749E+02  0.75919944083E+02 -0.10059200328E+03  0.14163443329E+03  0.41800000000E+01 0. -1.
        -11    1    4    4    0    0 -0.20402286760E+02 -0.28297593376E+02 -0.27280531082E+02  0.44285826988E+02  0.00000000000E+00 0.  1.
         11    1    4    4    0    0  0.35937195469E+02 -0.55493617184E+02 -0.28341701447E+03  0.29102616319E+03  0.00000000000E+00 0. -1.
</event>
<event>
 8    1  0.4798744E-006  0.1301236E+03  0.7561462E-02  0.1227272E+00
         -2   -1    0    0    0  501 -0.00000000000E+00  0.00000000000E+00  0.14533566872E+04  0.14533566872E+04  0.00000000000E+00 0.  1.
          2   -1    0    0  501    0  0.00000000000E+00 -0.00000000000E+00 -0.16122929596E+02  0.16122929596E+02  0.00000000000E+00 0. -1.
         23    2    1    2    0    0  0.10655379999E+03  0.24232046176E+02  0.70217324772E+03  0.72155103258E+03  0.12509084079E+03 0.  0.
         23    2    1    2    0    0 -0.10655379999E+03 -0.24232046176E+02  0.73506050985E+03  0.74792858418E+03  0.84512185769E+02 0.  0.
          5    1    3    3  502    0  0.24949406041E+01  0.18039756838E+02  0.42473548955E+03  0.42514628781E+03  0.41800000000E+01 0. -1.
         -5    1    3    3    0  502  0.10405885938E+03  0.61922893377E+01  0.27743775818E+03  0.29640474477E+03  0.41800000000E+01 0. -1.
        -11    1    4    4    0    0 -0.84746796740E+02  0.20746539024E+02  0.50720571244E+03  0.51465529548E+03  0.00000000000E+00 0.  1.
         11    1    4    4    0    0 -0.21807003247E+02 -0.44978585200E+02  0.22785479741E+03  0.23327328870E+03  0.00000000000E+00 0. -1.
</event>
<event>
 8    1  0.4798744E-006  0.2004565E+03  0.7561462E-02  0.1149354E+00
          1   -1    0    0  501    0  0.00000000000E+00  0.00000000000E+00  0.31039504609E+03  0.31039504609E+03  0.00000000000E+00 0. -1.
         -1   -1    0    0    0  501 -0.00000000000E+00 -0.00000000000E+00 -0.13255908209E+03  0.13255908209E+03  0.00000000000E+00 0.  1.
         23    2    1    2    0    0 -0.61130271563E+02  0.15928676470E+03  0.71551550062E+02  0.22332973799E+03  0.12508942419E+03 0.  0.
         23    2    1    2    0    0  0.61130271563E+02 -0.15928676470E+03  0.10628441394E+03  0.21962439020E+03  0.88483403031E+02 0.  0.
          5    1    3    3  502    0 -0.49802169000E+01 -0.21287655482E+02  0.10155133130E+02  0.24465607803E+02  0.41800000000E+01 0. -1.
         -5    1    3    3    0  502 -0.56150054663E+02  0.18057442018E+03  0.61396416932E+02  0.19886413019E+03  0.41800000000E+01 0. -1.
        -11    1    4    4    0    0  0.28579127771E+02 -0.15387615291E+03  0.72791834686E+02  0.17260732364E+03  0.00000000000E+00 0. -1.
         11    1    4    4    0    0  0.32551143792E+02 -0.54106117919E+01  0.33492579254E+02  0.47017066552E+02  0.00000000000E+00 0.  1.
</event>
<event>
 8    1  0.4894746E-006  0.1287285E+03  0.7561462E-02  0.1229355E+00
         -4   -1    0    0    0  501 -0.00000000000E+00  0.00000000000E+00  0.39988258961E+02  0.39988258961E+02  0.00000000000E+00 0. -1.
          4   -1    0    0  501    0  0.00000000000E+00 -0.00000000000E+00 -0.61001304256E+03  0.61001304256E+03  0.00000000000E+00 0.  1.
         23    2    1    2    0    0  0.10799171094E+03 -0.21068282105E+02 -0.26218803651E+03  0.31063856268E+03  0.12509063911E+03 0.  0.
         23    2    1    2    0    0 -0.10799171094E+03  0.21068282105E+02 -0.30783674709E+03  0.33936273884E+03  0.91090743290E+02 0.  0.
          5    1    3    3  502    0  0.11379048050E+03 -0.20817587372E+02 -0.11463391363E+03  0.16291117810E+03  0.41800000000E+01 0.  1.
         -5    1    3    3    0  502 -0.57987695572E+01 -0.25069473383E+00 -0.14755412288E+03  0.14772738458E+03  0.41800000000E+01 0.  1.
        -11    1    4    4    0    0 -0.82547123628E+02 -0.21189082027E+02 -0.24549440871E+03  0.25986633011E+03  0.00000000000E+00 0.  1.
         11    1    4    4    0    0 -0.25444587310E+02  0.42257364133E+02 -0.62342338382E+02  0.79496408735E+02  0.00000000000E+00 0. -1.
</event>
<event>
 7    1  0.4798744E-006  0.2322361E+03  0.7561462E-02  0.1125076E+00
          2   -1    0    0  501    0  0.00000000000E+00  0.00000000000E+00  0.51724101289E+03  0.51724101289E+03  0.00000000000E+00 0. -1.
         -2   -1    0    0    0  501 -0.00000000000E+00 -0.00000000000E+00 -0.13541385371E+03  0.13541385371E+03  0.00000000000E+00 0.  1.
         23    2    1    2    0    0 -0.19826850314E+02 -0.19858232003E+03  0.33865649351E+03  0.40389393009E+03  0.92811876129E+02 0.  0.
          5    1    1    2  502    0 -0.12693401903E+02 -0.19612902470E+02  0.94901299704E+01  0.25560190962E+02  0.41800000000E+01 0. -1.
         -5    1    1    2    0  502  0.32520252217E+02  0.21819522250E+03  0.33680535699E+02  0.22320074554E+03  0.41800000000E+01 0.  1.
        -11    1    3    3    0    0 -0.56185759857E+02 -0.95678815697E+02  0.17146003226E+03  0.20422981674E+03  0.00000000000E+00 0. -1.
         11    1    3    3    0    0  0.36358909543E+02 -0.10290350433E+03  0.16719646125E+03  0.19966411335E+03  0.00000000000E+00 0.  1.
</event>
<event>
 8    1  0.4798744E-006  0.8148153E+02  0.7561462E-02  0.1324899E+00
          1   -1    0    0  501    0  0.00000000000E+00  0.00000000000E+00  0.11507859825E+03  0.11507859825E+03  0.00000000000E+00 0. -1.
         -1   -1    0    0    0  501 -0.00000000000E+00 -0.00000000000E+00 -0.10665523383E+03  0.10665523383E+03  0.00000000000E+00 0.  1.
         23    2    1    2    0    0  0.10161094862E+02 -0.42097971199E+02 -0.37669885982E+01  0.11830373636E+03  0.11002770926E+03 0.  0.
         23    2    1    2    0    0 -0.10161094862E+02  0.42097971199E+02  0.12190353015E+02  0.10343009572E+03  0.93132663258E+02 0.  0.
          5    1    3    3  502    0  0.10855726026E+02  0.37122654413E+02 -0.62177986839E+00  0.38907547705E+02  0.41800000000E+01 0. -1.
         -5    1    3    3    0  502 -0.69463116390E+00 -0.79220625612E+02 -0.31452087298E+01  0.79396188654E+02  0.41800000000E+01 0.  1.
        -11    1    4    4    0    0 -0.74598755643E+01  0.98017686693E+01 -0.40078748447E+02  0.41928874175E+02  0.00000000000E+00 0.  1.
         11    1    4    4    0    0 -0.27012192981E+01  0.32296202530E+02  0.52269101462E+02  0.61501221542E+02  0.00000000000E+00 0. -1.
</event>
<event>
 8    1  0.4798744E-006  0.6871085E+02  0.7561462E-02  0.1364533E+00
          1   -1    0    0  501    0  0.00000000000E+00  0.00000000000E+00  0.56077617337E+03  0.56077617337E+03  0.00000000000E+00 0. -1.
         -1   -1    0    0    0  501 -0.00000000000E+00 -0.00000000000E+00 -0.21956950572E+02  0.21956950572E+02  0.00000000000E+00 0.  1.
         23    2    1    2    0    0  0.12934571525E+02  0.16804482483E+02  0.28257238010E+03  0.30973100725E+03  0.12504580395E+03 0.  0.
         23    2    1    2    0    0 -0.12934571525E+02 -0.16804482483E+02  0.25624684269E+03  0.27300211669E+03  0.91749755052E+02 0.  0.
          5    1    3    3  502    0 -0.18898217282E+02  0.97047035739E+01  0.27517756162E+03  0.27602805420E+03  0.41800000000E+01 0. -1.
         -5    1    3    3    0  502  0.31832788807E+02  0.70997789093E+01  0.73948184788E+01  0.33702953048E+02  0.41800000000E+01 0. -1.
        -11    1    4    4    0    0 -0.46413500394E+02 -0.24979289037E+01  0.75777868412E+02  0.88897345341E+02  0.00000000000E+00 0.  1.
         11    1    4    4    0    0  0.33478928868E+02 -0.14306553579E+02  0.18046897428E+03  0.18410477135E+03  0.00000000000E+00 0. -1.
</event>
<event>
 8    1  0.4798744E-006  0.8452396E+02  0.7561462E-02  0.1316682E+00
          2   -1    0    0  501    0  0.00000000000E+00  0.00000000000E+00  0.45796059627E+02  0.45796059627E+02  0.00000000000E+00 0. -1.
         -2   -1    0    0    0  501 -0.00000000000E+00 -0.00000000000E+00 -0.39007618501E+03  0.39007618501E+03  0.00000000000E+00 0.  1.
         23    2    1    2    0    0  0.71586675565E+02  0.31966033361E+02 -0.22296366112E+03  0.26740818457E+03  0.12509142092E+03 0.  0.
         23    2    1    2    0    0 -0.71586675565E+02 -0.31966033361E+02 -0.12131646426E+03  0.16846406006E+03  0.86694726630E+02 0.  0.
          5    1    3    3  502    0  0.64952053933E+02  0.40750836417E+02 -0.23697456294E+03  0.24910603336E+03  0.41800000000E+01 0.  1.
         -5    1    3    3    0  502  0.66346216313E+01 -0.87848030553E+01  0.14010901820E+02  0.18302151204E+02  0.41800000000E+01 0.  1.
        -11    1    4    4    0    0 -0.46983294936E+02 -0.11234129591E+02 -0.12692330736E+03  0.13580560233E+03  0.00000000000E+00 0.  1.
         11    1    4    4    0    0 -0.24603380629E+02 -0.20731903770E+02  0.56068431039E+01  0.32658457739E+02  0.00000000000E+00 0. -1.
</event>
<event>
 8    1  0.4798744E-006  0.1552821E+03  0.7561462E-02  0.1194129E+00
         -2   -1    0    0    0  501 -0.00000000000E+00  0.00000000000E+00  0.24931545707E+02  0.24931545707E+02  0.00000000000E+00 0.  1.
          2   -1    0    0  501    0  0.00000000000E+00 -0.00000000000E+00 -0.11306307139E+04  0.11306307139E+04  0.00000000000E+00 0. -1.
         23    2    1    2    0    0  0.11934791107E+03  0.11247921493E+02 -0.40751425617E+03  0.44171362012E+03  0.12113056428E+03 0.  0.
         23    2    1    2    0    0 -0.11934791107E+03 -0.11247921493E+02 -0.69818491206E+03  0.71384863953E+03  0.88018572545E+02 0.  0.
          5    1    3    3  502    0  0.75087505835E+02 -0.51846180612E+02 -0.18778481146E+03  0.20882233547E+03  0.41800000000E+01 0. -1.
         -5    1    3    3    0  502  0.44260405231E+02  0.63094102105E+02 -0.21972944471E+03  0.23289128465E+03  0.41800000000E+01 0.  1.
        -11    1    4    4    0    0 -0.93403328349E+02 -0.41479074256E+02 -0.58494076709E+03  0.59380164731E+03  0.00000000000E+00 0. -1.
         11    1    4    4    0    0 -0.25944582717E+02  0.30231152763E+02 -0.11324414498E+03  0.12004699222E+03  0.00000000000E+00 0.  1.
</event>
<event>
 8    1  0.4798744E-006  0.1586705E+03  0.7561462E-02  0.1190206E+00
         -2   -1    0    0    0  501 -0.00000000000E+00  0.00000000000E+00  0.59800818603E+03  0.59800818603E+03  0.00000000000E+00 0.  1.
          2   -1    0    0  501    0  0.00000000000E+00 -0.00000000000E+00 -0.88899542041E+02  0.88899542041E+02  0.00000000000E+00 0. -1.
         23    2    1    2    0    0 -0.45033979488E+02 -0.12749910522E+03  0.48965447679E+03  0.52315674239E+03  0.12508952523E+03 0.  0.
         23    2    1    2    0    0  0.45033979488E+02  0.12749910522E+03  0.19454167195E+02  0.16375098568E+03  0.90287538174E+02 0.  0.
          5    1    3    3  502    0  0.27963096480E+02 -0.52331566453E+02  0.76505420867E+02  0.96907581923E+02  0.41800000000E+01 0. -1.
         -5    1    3    3    0  502 -0.72997075968E+02 -0.75167538768E+02  0.41314905593E+03  0.42624916046E+03  0.41800000000E+01 0. -1.
        -11    1    4    4    0    0  0.55847047768E+02  0.13035403978E+03  0.58282142566E+00  0.14181469639E+03  0.00000000000E+00 0. -1.
         11    1    4    4    0    0 -0.10813068279E+02 -0.28549345544E+01  0.18871345769E+02  0.21936289295E+02  0.00000000000E+00 0.  1.
</event>
<event>
 8    1  0.4798744E-006  0.1499082E+03  0.7561462E-02  0.1200586E+00
         -2   -1    0    0    0  501 -0.00000000000E+00  0.00000000000E+00  0.20964572651E+02  0.20964572651E+02  0.00000000000E+00 0.  1.
          2   -1    0    0  501    0  0.00000000000E+00 -0.00000000000E+00 -0.13762007244E+04  0.13762007244E+04  0.00000000000E+00 0. -1.
         23    2    1    2    0    0  0.11136890950E+03 -0.57912046190E+02 -0.87034342138E+03  0.88820189621E+03  0.12509235862E+03 0.  0.
         23    2    1    2    0    0 -0.11136890950E+03  0.57912046190E+02 -0.48489273040E+03  0.50896340088E+03  0.90365614809E+02 0.  0.
          5    1    3    3  502    0  0.87532806388E+02  0.79836813723E+01 -0.67333051018E+03  0.67905609466E+03  0.41800000000E+01 0. -1.
         -5    1    3    3    0  502  0.23836103116E+02 -0.65895727562E+02 -0.19701291121E+03  0.20914580155E+03  0.41800000000E+01 0. -1.
        -11    1    4    4    0    0 -0.47623658025E+02 -0.98041797919E+01 -0.80752851687E+02  0.94261114998E+02  0.00000000000E+00 0.  1.
         11    1    4    4    0    0 -0.63745251480E+02  0.67716225982E+02 -0.40413987872E+03  0.41470228588E+03  0.00000000000E+00 0. -1.
</event>
<event>
 8    1  0.4798744E-006  0.8459603E+02  0.7561462E-02  0.1316492E+00
          1   -1    0    0  501    0  0.00000000000E+00  0.00000000000E+00  0.39163654871E+02  0.39163654871E+02  0.00000000000E+00 0. -1.
         -1   -1    0    0    0  501 -0.00000000000E+00 -0.00000000000E+00 -0.33612552853E+03  0.33612552853E+03  0.00000000000E+00 0.  1.
         23    2    1    2    0    0  0.21623551324E+01 -0.28117184997E+02 -0.22755818303E+03  0.25844462362E+03  0.11922937952E+03 0.  0.
         23    2    1    2    0    0 -0.21623551324E+01  0.28117184997E+02 -0.69403690629E+02  0.11684455978E+03  0.89668985752E+02 0.  0.
          5    1    3    3  502    0  0.34486697521E+02 -0.34062193125E+02 -0.21884361404E+03  0.22418645167E+03  0.41800000000E+01 0. -1.
         -5    1    3    3    0  502 -0.32324342389E+02  0.59450081281E+01 -0.87145689884E+01  0.34258171947E+02  0.41800000000E+01 0.  1.
        -11    1    4    4    0    0  0.25006010251E+01  0.57552226184E+02 -0.23718654508E+02  0.62298365274E+02  0.00000000000E+00 0.  1.
         11    1    4    4    0    0 -0.46629561575E+01 -0.29435041187E+02 -0.45685036122E+02  0.54546194507E+02  0.00000000000E+00 0. -1.
</event>
<event>
 8    1  0.4798744E-006  0.1547221E+03  0.7561462E-02  0.1194788E+00
          2   -1    0    0  501    0  0.00000000000E+00  0.00000000000E+00  0.98022410404E+03  0.98022410404E+03  0.00000000000E+00 0. -1.
         -2   -1    0    0    0  501 -0.00000000000E+00 -0.00000000000E+00 -0.31587220974E+02  0.31587220974E+02  0.00000000000E+00 0.  1.
         23    2    1    2    0    0  0.18968493025E+02 -0.12201585343E+03  0.33007177762E+03  0.37395957934E+03  0.12510282323E+03 0.  0.
         23    2    1    2    0    0 -0.18968493025E+02  0.12201585343E+03  0.61856510544E+03  0.63785174568E+03  0.94786009366E+02 0.  0.
          5    1    3    3  502    0 -0.49918348693E+02 -0.81547680763E+02  0.18508452173E+03  0.20836414845E+03  0.41800000000E+01 0. -1.
         -5    1    3    3    0  502  0.68886841718E+02 -0.40468172670E+02  0.14498725589E+03  0.16559543089E+03  0.41800000000E+01 0. -1.
        -11    1    4    4    0    0 -0.18884764586E+02  0.93540037835E+01  0.20971619170E+02  0.29731137396E+02  0.00000000000E+00 0.  1.
         11    1    4    4    0    0 -0.83728438778E-01  0.11266184965E+03  0.59759348628E+03  0.60812060828E+03  0.00000000000E+00 0. -1.
</event>
<event>
 8    1  0.4798744E-006  0.1080805E+03  0.7561462E-02  0.1264166E+00
          2   -1    0    0  501    0  0.00000000000E+00  0.00000000000E+00  0.27294095030E+03  0.27294095030E+03  0.00000000000E+00 0. -1.
         -2   -1    0    0    0  501 -0.00000000000E+00 -0.00000000000E+00 -0.49294548352E+02  0.49294548352E+02  0.00000000000E+00 0.  1.
         23    2    1    2    0    0  0.26255052459E+02 -0.26326660652E+02  0.10097325312E+03  0.16496427489E+03  0.12504076656E+03 0.  0.
         23    2    1    2    0    0 -0.26255052459E+02  0.26326660652E+02  0.12267314882E+03  0.15727122376E+03  0.91121432940E+02 0.  0.
          5    1    3    3  502    0  0.23888753486E+02 -0.72860745942E+02  0.35765561371E+02  0.84711325232E+02  0.41800000000E+01 0. -1.
         -5    1    3    3    0  502  0.23662989737E+01  0.46534085291E+02  0.65207691753E+02  0.80252949656E+02  0.41800000000E+01 0. -1.
        -11    1    4    4    0    0  0.30849400603E+02  0.33334105228E+01  0.18095108904E+02  0.35919773239E+02  0.00000000000E+00 0.  1.
         11    1    4    4    0    0 -0.57104453063E+02  0.22993250129E+02  0.10457803992E+03  0.12135145052E+03  0.00000000000E+00 0. -1.
</event>
<event>
 6    1  0.4798744E-006  0.9024835E+02  0.7561462E-02  0.1302251E+00
          1   -1    0    0  501    0  0.00000000000E+00  0.00000000000E+00  0.12358138612E+03  0.12358138612E+03  0.00000000000E+00 0. -1.
         -1   -1    0    0    0  501 -0.00000000000E+00 -0.00000000000E+00 -0.11318180995E+03  0.11318180995E+03  0.00000000000E+00 0.  1.
          5    1    1    2  502    0 -0.14392783736E+02  0.33082838532E+02  0.46429759755E+02  0.58947615896E+02  0.41800000000E+01 0. -1.
         -5    1    1    2    0  502 -0.44810580057E+02 -0.46365552161E+02 -0.66359511113E+02  0.92621863657E+02  0.41800000000E+01 0.  1.
        -11    1    1    2    0    0  0.28888558175E+02  0.32644143674E+02  0.15099769417E+02  0.46132330812E+02  0.00000000000E+00 0. -1.
         11    1    1    2    0    0  0.30314805618E+02 -0.19361430045E+02  0.15229558111E+02  0.39061385706E+02  0.00000000000E+00 0.  1.
</event>
<event>
 8    1  0.4798744E-006  0.1094684E+03  0.7561462E-02  0.1261557E+00
         -1   -1    0    0    0  501 -0.00000000000E+00  0.00000000000E+00  0.25138557747E+03  0.25138557747E+03  0.00000000000E+00 0.  1.
          1   -1    0    0  501    0  0.00000000000E+00 -0.00000000000E+00 -0.95846701998E+02  0.95846701998E+02  0.00000000000E+00 0. -1.
         23    2    1    2    0    0 -0.66992421121E+02  0.29729939526E+02  0.17747136218E+03  0.22916071086E+03  0.12508674277E+03 0.  0.
         23    2    1    2    0    0  0.66992421121E+02 -0.29729939526E+02 -0.21932486699E+02  0.11807156861E+03  0.89933350598E+02 0.  0.
          5    1    3    3  502    0  0.28413158057E+02 -0.20918658190E+02  0.31224398412E+02  0.47300457370E+02  0.41800000000E+01 0. -1.
         -5    1    3    3    0  502 -0.95405579178E+02  0.50648597716E+02  0.14624696376E+03  0.18186025349E+03  0.41800000000E+01 0. -1.
        -11    1    4    4    0    0  0.34714994396E+02 -0.24787624177E+02  0.33159989424E+02  0.54029085194E+02  0.00000000000E+00 0.  1.
         11    1    4    4    0    0  0.32277426725E+02 -0.49423153490E+01 -0.55092476123E+02  0.64042483419E+02  0.00000000000E+00 0. -1.
</event>
<event>
 8    1  0.4798744E-006  0.1321952E+03  0.7561462E-02  0.1224234E+00
          1   -1    0    0  501    0  0.00000000000E+00  0.00000000000E+00  0.31507353315E+03  0.31507353315E+03  0.00000000000E+00 0. -1.
         -1   -1    0    0    0  501 -0.00000000000E+00 -0.00000000000E+00 -0.61221733064E+02  0.61221733064E+02  0.00000000000E+00 0.  1.
         23    2    1    2    0    0 -0.63535162161E+02 -0.58504679042E+02  0.13315766328E+03  0.20208071610E+03  0.12508452433E+03 0.  0.
         23    2    1    2    0    0  0.63535162161E+02  0.58504679042E+02  0.12069413680E+03  0.17421455011E+03  0.91236618260E+02 0.  0.
          5    1    3    3  502    0 -0.21012683292E+02 -0.88815990615E+02  0.50977493717E+02  0.10462308691E+03  0.41800000000E+01 0. -1.
         -5    1    3    3    0  502 -0.42522478868E+02  0.30311311572E+02  0.82180169567E+02  0.97457629196E+02  0.41800000000E+01 0. -1.
        -11    1    4    4    0    0  0.14633951909E+02  0.69075928965E+02  0.93823832286E+02  0.11742464825E+03  0.00000000000E+00 0. -1.
         11    1    4    4    0    0  0.48901210252E+02 -0.10571249922E+02  0.26870304511E+02  0.56789901862E+02  0.00000000000E+00 0.  1.
</event>
<event>
 8    1  0.4798744E-006  0.9100988E+02  0.7561462E-02  0.1300424E+00
          2   -1    0    0  501    0  0.00000000000E+00  0.00000000000E+00  0.24406058845E+03  0.24406058845E+03  0.00000000000E+00 0. -1.
         -2   -1    0    0    0  501 -0.00000000000E+00 -0.00000000000E+00 -0.55177581030E+02  0.55177581030E+02  0.00000000000E+00 0.  1.
         23    2    1    2    0    0  0.17144713996E+02 -0.36781101835E+02  0.10351790481E+03  0.16801374247E+03  0.12595979665E+03 0.  0.
         23    2    1    2    0    0 -0.17144713996E+02  0.36781101835E+02  0.85365102614E+02  0.13122442701E+03  0.91026692952E+02 0.  0.
          5    1    3    3  502    0 -0.17716863909E+02  0.30090214920E+02 -0.52873662781E+01  0.35563140227E+02  0.41800000000E+01 0. -1.
         -5    1    3    3    0  502  0.34861577905E+02 -0.66871316755E+02  0.10880527108E+03  0.13245060224E+03  0.41800000000E+01 0.  1.
        -11    1    4    4    0    0 -0.20069928759E+02  0.52045457296E+02  0.96941715358E+02  0.11184465943E+03  0.00000000000E+00 0. -1.
         11    1    4    4    0    0  0.29252147630E+01 -0.15264355460E+02 -0.11576612744E+02  0.19379767585E+02  0.00000000000E+00 0.  1.
</event>
<event>
 8    1  0.4798744E-006  0.9042230E+02  0.7561462E-02  0.1301832E+00
         -2   -1    0    0    0  501 -0.00000000000E+00  0.00000000000E+00  0.28273427409E+02  0.28273427409E+02  0.00000000000E+00 0.  1.
          2   -1    0    0  501    0  0.00000000000E+00 -0.00000000000E+00 -0.57796285705E+03  0.57796285705E+03  0.00000000000E+00 0. -1.
         23    2    1    2    0    0  0.47230627235E+02  0.45295975729E+02 -0.26958000897E+03  0.30430623578E+03  0.12508575591E+03 0.  0.
         23    2    1    2    0    0 -0.47230627235E+02 -0.45295975729E+02 -0.28010942068E+03  0.30193004869E+03  0.91749709441E+02 0.  0.
          5    1    3    3  502    0  0.47889163844E+02  0.26650300971E+02 -0.27802384358E+03  0.28340490566E+03  0.41800000000E+01 0.  1.
         -5    1    3    3    0  502 -0.65853660958E+00  0.18645674758E+02  0.84438346095E+01  0.20901330114E+02  0.41800000000E+01 0.  1.
        -11    1    4    4    0    0  0.21955388486E+02 -0.27748402714E+02 -0.14349684768E+03  0.14779498717E+03  0.00000000000E+00 0. -1.
         11    1    4    4    0    0 -0.69186015721E+02 -0.17547573015E+02 -0.13661257300E+03  0.15413506152E+03  0.00000000000E+00 0.  1.
</event>
<event>
 8    1  0.4798744E-006  0.1372053E+03  0.7561462E-02  0.1217140E+00
         -3   -1    0    0    0  501 -0.00000000000E+00  0.00000000000E+00  0.36593975628E+02  0.36593975628E+02  0.00000000000E+00 0.  1.
          3   -1    0    0  501    0  0.00000000000E+00 -0.00000000000E+00 -0.74935015947E+03  0.74935015947E+03  0.00000000000E+00 0. -1.
         23    2    1    2    0    0 -0.58447199190E+02 -0.84583725026E+02 -0.21220847129E+03  0.26692685774E+03  0.12508809080E+03 0.  0.
         23    2    1    2    0    0  0.58447199190E+02  0.84583725026E+02 -0.50054771255E+03  0.51901727736E+03  0.90886962933E+02 0.  0.
          5    1    3    3  502    0 -0.93872311897E+02 -0.41473561467E+02 -0.16161175052E+03  0.19148863556E+03  0.41800000000E+01 0. -1.
         -5    1    3    3    0  502  0.35425112708E+02 -0.43110163559E+02 -0.50596720777E+02  0.75438222181E+02  0.41800000000E+01 0. -1.
        -11    1    4    4    0    0  0.58827794385E+02  0.39951533423E+02 -0.42778906021E+03  0.43365921465E+03  0.00000000000E+00 0. -1.
         11    1    4    4    0    0 -0.38059519515E+00  0.44632191603E+02 -0.72758652334E+02  0.85358062709E+02  0.00000000000E+00 0.  1.
</event>
<event>
 8    1  0.4798744E-006  0.1854232E+03  0.7561462E-02  0.1162655E+00
          1   -1    0    0  501    0  0.00000000000E+00  0.00000000000E+00  0.67196959802E+03  0.67196959802E+03  0.00000000000E+00 0. -1.
         -1   -1    0    0    0  501 -0.00000000000E+00 -0.00000000000E+00 -0.63258460092E+02  0.63258460092E+02  0.00000000000E+00 0.  1.
         23    2    1    2    0    0  0.15747663012E+03 -0.28409789323E+02  0.18604706808E+03  0.27543910097E+03  0.12508869508E+03 0.  0.
         23    2    1    2    0    0 -0.15747663012E+03  0.28409789323E+02  0.42266406985E+03  0.45978895715E+03  0.84587020355E+02 0.  0.
          5    1    3    3  502    0  0.10086232718E+03  0.39737338731E+02  0.13469213841E+03  0.17295002076E+03  0.41800000000E+01 0.  1.
         -5    1    3    3    0  502  0.56614302938E+02 -0.68147128053E+02  0.51354929673E+02  0.10248908020E+03  0.41800000000E+01 0.  1.
        -11    1    4    4    0    0 -0.11561412784E+02  0.25185966780E+02  0.12792914650E+03  0.13089639304E+03  0.00000000000E+00 0. -1.
         11    1    4    4    0    0 -0.14591521733E+03  0.32238225429E+01  0.29473492336E+03  0.32889256411E+03  0.00000000000E+00 0.  1.
</event>
<event>
 8    1  0.4798744E-006  0.2099448E+03  0.7561462E-02  0.1141610E+00
          2   -1    0    0  501    0  0.00000000000E+00  0.00000000000E+00  0.70343998883E+03  0.70343998883E+03  0.00000000000E+00 0. -1.
         -2   -1    0    0    0  501 -0.00000000000E+00 -0.00000000000E+00 -0.76750823821E+02  0.76750823821E+02  0.00000000000E+00 0.  1.
         23    2    1    2    0    0 -0.17573505905E+03 -0.64845250950E+02  0.18375175401E+03  0.29070709256E+03  0.12513268562E+03 0.  0.
         23    2    1    2    0    0  0.17573505905E+03  0.64845250950E+02  0.44293741100E+03  0.48948372010E+03  0.91175899365E+02 0.  0.
          5    1    3    3  502    0 -0.13581577009E+03  0.51614438051E+01  0.15211118430E+03  0.20402903886E+03  0.41800000000E+01 0. -1.
         -5    1    3    3    0  502 -0.39919288959E+02 -0.70006694755E+02  0.31640569709E+02  0.86678053699E+02  0.41800000000E+01 0. -1.
        -11    1    4    4    0    0  0.42269031003E+02  0.55027682589E+02  0.10339683161E+03  0.12452157091E+03  0.00000000000E+00 0.  1.
         11    1    4    4    0    0  0.13346602805E+03  0.98175683610E+01  0.33954057939E+03  0.36496214919E+03  0.00000000000E+00 0. -1.
</event>
<event>
 8    1  0.4798744E-006  0.8498515E+02  0.7561462E-02  0.1315471E+00
         -1   -1    0    0    0  501 -0.00000000000E+00  0.00000000000E+00  0.35285283694E+03  0.35285283694E+03  0.00000000000E+00 0.  1.
          1   -1    0    0  501    0  0.00000000000E+00 -0.00000000000E+00 -0.69069110705E+02  0.69069110705E+02  0.00000000000E+00 0. -1.
         23    2    1    2    0    0 -0.49862161221E+02 -0.60832366191E+02  0.26132272116E+03  0.30020780617E+03  0.12509336671E+03 0.  0.
         23    2    1    2    0    0  0.49862161221E+02  0.60832366191E+02  0.22461005075E+02  0.12171414147E+03  0.90127818055E+02 0.  0.
          5    1    3    3  502    0 -0.20690661748E+02 -0.20348580823E+02 -0.45413818414E+01  0.29669256379E+02  0.41800000000E+01 0. -1.
         -5    1    3    3    0  502 -0.29171499473E+02 -0.40483785368E+02  0.26586410300E+03  0.27053854979E+03  0.41800000000E+01 0. -1.
        -11    1    4    4    0    0  0.38124383414E+02  0.67171644125E+02  0.49378775174E+02  0.91672034028E+02  0.00000000000E+00 0.  1.
         11    1    4    4    0    0  0.11737777807E+02 -0.63392779345E+01 -0.26917770099E+02  0.30042107444E+02  0.00000000000E+00 0. -1.
</event>
<event>
 8    1  0.4798744E-006  0.1423571E+03  0.7561462E-02  0.1210192E+00
         -4   -1    0    0    0  501 -0.00000000000E+00  0.00000000000E+00  0.81555053167E+02  0.81555053167E+02  0.00000000000E+00 0.  1.
          4   -1    0    0  501    0  0.00000000000E+00 -0.00000000000E+00 -0.34872690246E+03  0.34872690246E+03  0.00000000000E+00 0. -1.
         23    2    1    2    0    0 -0.11531850567E+03  0.48538685622E+02 -0.10349676847E+03  0.20497473940E+03  0.12509476790E+03 0.  0.
         23    2    1    2    0    0  0.11531850567E+03 -0.48538685622E+02 -0.16367508081E+03  0.22530721622E+03  0.91211007288E+02 0.  0.
          5    1    3    3  502    0 -0.10085777999E+02  0.19406345675E+02  0.26852512485E+02  0.34883506089E+02  0.41800000000E+01 0.  1.
         -5    1    3    3    0  502 -0.10523272767E+03  0.29132339947E+02 -0.13034928096E+03  0.17009123331E+03  0.41800000000E+01 0.  1.
        -11    1    4    4    0    0  0.66176895015E+02  0.19734919999E+02 -0.90324502724E+02  0.11369856768E+03  0.00000000000E+00 0.  1.
         11    1    4    4    0    0  0.49141610652E+02 -0.68273605621E+02 -0.73350578090E+02  0.11160864854E+03  0.00000000000E+00 0. -1.
</event>
<event>
 8    1  0.4798744E-006  0.1990440E+03  0.7561462E-02  0.1150548E+00
          1   -1    0    0  501    0  0.00000000000E+00  0.00000000000E+00  0.19256652961E+04  0.19256652961E+04  0.00000000000E+00 0. -1.
         -1   -1    0    0    0  501 -0.00000000000E+00 -0.00000000000E+00 -0.36141531627E+02  0.36141531627E+02  0.00000000000E+00 0.  1.
         23    2    1    2    0    0  0.63498041494E+02 -0.18031701891E+03  0.15143190602E+04  0.15314557370E+04  0.12509288416E+03 0.  0.
         23    2    1    2    0    0 -0.63498041494E+02  0.18031701891E+03  0.37520470433E+03  0.43035109080E+03  0.88753944253E+02 0.  0.
          5    1    3    3  502    0  0.22743074097E+02 -0.10596431693E+03  0.12289674017E+04  0.12337439081E+04  0.41800000000E+01 0.  1.
         -5    1    3    3    0  502  0.40754967397E+02 -0.74352701982E+02  0.28535165847E+03  0.29771182888E+03  0.41800000000E+01 0.  1.
        -11    1    4    4    0    0 -0.77354118201E+02  0.11942381599E+03  0.20933117344E+03  0.25311113686E+03  0.00000000000E+00 0. -1.
         11    1    4    4    0    0  0.13856076707E+02  0.60893202917E+02  0.16587353089E+03  0.17723995394E+03  0.00000000000E+00 0.  1.
</event>
<event>
 8    1  0.4798744E-006  0.9505158E+02  0.7561462E-02  0.1291060E+00
          3   -1    0    0  501    0  0.00000000000E+00  0.00000000000E+00  0.18065257591E+03  0.18065257591E+03  0.00000000000E+00 0. -1.
         -3   -1    0    0    0  501 -0.00000000000E+00 -0.00000000000E+00 -0.93743204854E+02  0.93743204854E+02  0.00000000000E+00 0.  1.
         23    2    1    2    0    0  0.50646328144E+01  0.65910805113E+02  0.17885845982E+02  0.14261139565E+03  0.12509285330E+03 0.  0.
         23    2    1    2    0    0 -0.50646328144E+01 -0.65910805113E+02  0.69023525075E+02  0.13178438511E+03  0.90735838619E+02 0.  0.
          5    1    3    3  502    0 -0.30634822478E+02  0.21951374168E+02  0.60648669747E+02  0.71526839146E+02  0.41800000000E+01 0. -1.
         -5    1    3    3    0  502  0.35699455293E+02  0.43959430945E+02 -0.42762823765E+02  0.71084556505E+02  0.41800000000E+01 0. -1.
        -11    1    4    4    0    0 -0.16557762601E+02  0.95201424668E+01  0.49452865391E+02  0.53013003220E+02  0.00000000000E+00 0. -1.
         11    1    4    4    0    0  0.11493129787E+02 -0.75430947580E+02  0.19570659683E+02  0.78771381894E+02  0.00000000000E+00 0.  1.
</event>
<event>
 8    1  0.4798744E-006  0.7754963E+02  0.7561462E-02  0.1336153E+00
         -2   -1    0    0    0  501 -0.00000000000E+00  0.00000000000E+00  0.78672219056E+02  0.78672219056E+02  0.00000000000E+00 0. -1.
          2   -1    0    0  501    0  0.00000000000E+00 -0.00000000000E+00 -0.25771739274E+03  0.25771739274E+03  0.00000000000E+00 0.  1.
         23    2    1    2    0    0 -0.29217076889E+02 -0.40393064703E+02 -0.68417145918E+01  0.13482729752E+03  0.12508538620E+03 0.  0.
         23    2    1    2    0    0  0.29217076889E+02  0.40393064703E+02 -0.17220345910E+03  0.20156231428E+03  0.92130874056E+02 0.  0.
          5    1    3    3  502    0  0.10632342629E+02 -0.48052123340E+01 -0.58854986758E+02  0.60145811505E+02  0.41800000000E+01 0.  1.
         -5    1    3    3    0  502 -0.39849419518E+02 -0.35587852369E+02  0.52013272166E+02  0.74681486016E+02  0.41800000000E+01 0.  1.
        -11    1    4    4    0    0  0.21131589236E+01 -0.21470525458E+02 -0.63585627770E+01  0.22491781270E+02  0.00000000000E+00 0. -1.
         11    1    4    4    0    0  0.27103917965E+02  0.61863590162E+02 -0.16584489632E+03  0.17907053301E+03  0.00000000000E+00 0.  1.
</event>
<event>
 8    1  0.4798744E-006  0.2028273E+03  0.7561462E-02  0.1147375E+00
         -2   -1    0    0    0  501 -0.00000000000E+00  0.00000000000E+00  0.10552968319E+03  0.10552968319E+03  0.00000000000E+00 0.  1.
          2   -1    0    0  501    0  0.00000000000E+00 -0.00000000000E+00 -0.48936468990E+03  0.48936468990E+03  0.00000000000E+00 0. -1.
         23    2    1    2    0    0  0.85456880638E+02 -0.17590877185E+03 -0.15185324933E+03  0.27740278572E+03  0.12508445839E+03 0.  0.
         23    2    1    2    0    0 -0.85456880638E+02  0.17590877185E+03 -0.23198175738E+03  0.31749158737E+03  0.93480467649E+02 0.  0.
          5    1    3    3  502    0  0.70963244467E+02 -0.13471206555E+03 -0.40338236698E+02  0.15756829760E+03  0.41800000000E+01 0.  1.
         -5    1    3    3    0  502  0.14493636171E+02 -0.41196706299E+02 -0.11151501263E+03  0.11983448811E+03  0.41800000000E+01 0.  1.
        -11    1    4    4    0    0 -0.45450372054E+02  0.22099086356E+02 -0.24576791322E+02  0.56197193963E+02  0.00000000000E+00 0.  1.
         11    1    4    4    0    0 -0.40006508584E+02  0.15380968549E+03 -0.20740496606E+03  0.26129439341E+03  0.00000000000E+00 0. -1.
</event>
<event>
 8    1  0.4798744E-006  0.1282397E+03  0.7561462E-02  0.1230091E+00
          1   -1    0    0  501    0  0.00000000000E+00  0.00000000000E+00  0.37851579258E+02  0.37851579258E+02  0.00000000000E+00 0. -1.
         -1   -1    0    0    0  501 -0.00000000000E+00 -0.00000000000E+00 -0.68135127323E+03  0.68135127323E+03  0.00000000000E+00 0.  1.
         23    2    1    2    0    0  0.77683566096E+02 -0.20982229979E+02 -0.54231818339E+03  0.56234440842E+03  0.12508889329E+03 0.  0.
         23    2    1    2    0    0 -0.77683566096E+02  0.20982229979E+02 -0.10118151058E+03  0.15685844407E+03  0.88836270615E+02 0.  0.
          5    1    3    3  502    0 -0.16517889780E+02  0.34139538740E+02 -0.10949256425E+03  0.11595017385E+03  0.41800000000E+01 0.  1.
         -5    1    3    3    0  502  0.94201455876E+02 -0.55121768719E+02 -0.43282561914E+03  0.44639423457E+03  0.41800000000E+01 0.  1.
        -11    1    4    4    0    0 -0.39157524507E+02  0.48073425796E+02 -0.88544614561E+02  0.10809493402E+03  0.00000000000E+00 0.  1.
         11    1    4    4    0    0 -0.38526041589E+02 -0.27091195817E+02 -0.12636896018E+02  0.48763510049E+02  0.00000000000E+00 0. -1.
</event>
<event>
 8    1  0.4798744E-006  0.1045699E+03  0.7561462E-02  0.1270969E+00
          2   -1    0    0  501    0  0.00000000000E+00  0.00000000000E+00  0.10151960155E+03  0.10151960155E+03  0.00000000000E+00 0. -1.
         -2   -1    0    0    0  501 -0.00000000000E+00 -0.00000000000E+00 -0.16192622262E+03  0.16192622262E+03  0.00000000000E+00 0.  1.
         23    2    1    2    0    0  0.38221693877E+01 -0.61299172266E+02 -0.62529109289E+02  0.15274310681E+03  0.12509344375E+03 0.  0.
         23    2    1    2    0    0 -0.38221693877E+01  0.61299172266E+02  0.21224882231E+01  0.11070271736E+03  0.92078168833E+02 0.  0.
          5    1    3    3  502    0 -0.43203802561E+01 -0.80763433875E+02  0.57164220173E+01  0.81188347794E+02  0.41800000000E+01 0. -1.
         -5    1    3    3    0  502  0.81425496438E+01  0.19464261609E+02 -0.68245531306E+02  0.71554759017E+02  0.41800000000E+01 0. -1.
        -11    1    4    4    0    0 -0.45493145199E+02  0.29415357259E+02 -0.13736288907E+02  0.55888953611E+02  0.00000000000E+00 0. -1.
         11    1    4    4    0    0  0.41670975811E+02  0.31883815007E+02  0.15858777130E+02  0.54813763751E+02  0.00000000000E+00 0.  1.
</event>
<event>
 8    1  0.4798744E-006  0.1045591E+03  0.7561462E-02  0.1270991E+00
          1   -1    0    0  501    0  0.00000000000E+00  0.00000000000E+00  0.22295535645E+03  0.22295535645E+03  0.00000000000E+00 0. -1.
         -1   -1    0    0    0  501 -0.00000000000E+00 -0.00000000000E+00 -0.76776826959E+02  0.76776826959E+02  0.00000000000E+00 0.  1.
         23    2    1    2    0    0 -0.66413625301E+01  0.69226471636E+02  0.54310675616E+02  0.15307846254E+03  0.12508778572E+03 0.  0.
         23    2    1    2    0    0  0.66413625301E+01 -0.69226471636E+02  0.91867853874E+02  0.14665372086E+03  0.90725956576E+02 0.  0.
          5    1    3    3  502    0  0.29890053468E+02  0.71562581999E+01  0.72345599663E+02  0.78714582628E+02  0.41800000000E+01 0. -1.
         -5    1    3    3    0  502 -0.36531415998E+02  0.62070213436E+02 -0.18034924047E+02  0.74363879916E+02  0.41800000000E+01 0. -1.
        -11    1    4    4    0    0  0.20554539868E+02  0.11829279939E+02  0.49529894709E+00  0.23720587980E+02  0.00000000000E+00 0.  1.
         11    1    4    4    0    0 -0.13913177338E+02 -0.81055751575E+02  0.91372554927E+02  0.12293313288E+03  0.00000000000E+00 0. -1.
</event>
<event>
 8    1  0.4798744E-006  0.1365488E+03  0.7561462E-02  0.1218050E+00
          2   -1    0    0  501    0  0.00000000000E+00  0.00000000000E+00  0.18220255035E+03  0.18220255035E+03  0.00000000000E+00 0. -1.
         -2   -1    0    0    0  501 -0.00000000000E+00 -0.00000000000E+00 -0.11132178804E+03  0.11132178804E+03  0.00000000000E+00 0.  1.
         23    2    1    2    0    0 -0.58129668160E+02 -0.55050058711E+02 -0.13640515399E+01  0.14852741808E+03  0.12509582727E+03 0.  0.
         23    2    1    2    0    0  0.58129668160E+02  0.55050058711E+02  0.72244813851E+02  0.14499692031E+03  0.96928976505E+02 0.  0.
          5    1    3    3  502    0 -0.94455137863E+02 -0.17712486658E+02  0.12748261396E+01  0.96200846327E+02  0.41800000000E+01 0. -1.
         -5    1    3    3    0  502  0.36325469704E+02 -0.37337572053E+02 -0.26388776795E+01  0.52326571753E+02  0.41800000000E+01 0. -1.
        -11    1    4    4    0    0  0.51925847973E+02 -0.15213182757E+02  0.22075969050E+02  0.58438711715E+02  0.00000000000E+00 0.  1.
         11    1    4    4    0    0  0.62038201865E+01  0.70263241468E+02  0.50168844800E+02  0.86558208594E+02  0.00000000000E+00 0. -1.
</event>
<event>
 8    1  0.4798744E-006  0.5979642E+02  0.7561462E-02  0.1398688E+00
         -2   -1    0    0    0  501 -0.00000000000E+00  0.00000000000E+00  0.14255560667E+03  0.14255560667E+03  0.00000000000E+00 0.  1.
          2   -1    0    0  501    0  0.00000000000E+00 -0.00000000000E+00 -0.11723319006E+03  0.11723319006E+03  0.00000000000E+00 0. -1.
         23    2    1    2    0    0 -0.26563353695E+02  0.36740824133E+02  0.71364496155E+02  0.15098375770E+03  0.12509078247E+03 0.  0.
         23    2    1    2    0    0  0.26563353695E+02 -0.36740824133E+02 -0.46042079539E+02  0.10880503903E+03  0.87539496875E+02 0.  0.
          5    1    3    3  502    0 -0.25726427381E+01  0.27852188177E+02  0.10487220473E+03  0.10861866599E+03  0.41800000000E+01 0. -1.
         -5    1    3    3    0  502 -0.23990710957E+02  0.88886359560E+01 -0.33507708575E+02  0.42365091707E+02  0.41800000000E+01 0. -1.
        -11    1    4    4    0    0  0.37247632141E+02 -0.13167987035E+02  0.15191286484E+02  0.42326790189E+02  0.00000000000E+00 0.  1.
         11    1    4    4    0    0 -0.10684278446E+02 -0.23572837098E+02 -0.61233366023E+02  0.66478248844E+02  0.00000000000E+00 0. -1.
</event>
<event>
 8    1  0.4798744E-006  0.1218507E+03  0.7561462E-02  0.1240075E+00
         -3   -1    0    0    0  501 -0.00000000000E+00  0.00000000000E+00  0.24062644746E+04  0.24062644746E+04  0.00000000000E+00 0.  1.
          3   -1    0    0  501    0  0.00000000000E+00 -0.00000000000E+00 -0.10203795517E+02  0.10203795517E+02  0.00000000000E+00 0. -1.
         23    2    1    2    0    0  0.25195012588E+02 -0.63811744996E+02  0.19784590638E+04  0.19835964295E+04  0.12509117019E+03 0.  0.
         23    2    1    2    0    0 -0.25195012588E+02  0.63811744996E+02  0.41760161536E+03  0.43287184061E+03  0.90995570132E+02 0.  0.
          5    1    3    3  502    0  0.62981270125E+02 -0.68371029183E+02  0.16964274355E+04  0.16989775615E+04  0.41800000000E+01 0.  1.
         -5    1    3    3    0  502 -0.37786257537E+02  0.45592841870E+01  0.28203162823E+03  0.28461886806E+03  0.41800000000E+01 0.  1.
        -11    1    4    4    0    0 -0.52975789715E+02  0.13153380010E+02  0.16690774831E+03  0.17560649802E+03  0.00000000000E+00 0.  1.
         11    1    4    4    0    0  0.27780777127E+02  0.50658364986E+02  0.25069386705E+03  0.25726534258E+03  0.00000000000E+00 0. -1.
</event>
<event>
 8    1  0.4798744E-006  0.1693725E+03  0.7561462E-02  0.1178504E+00
          1   -1    0    0  501    0  0.00000000000E+00  0.00000000000E+00  0.51029121367E+03  0.51029121367E+03  0.00000000000E+00 0. -1.
         -1   -1    0    0    0  501 -0.00000000000E+00 -0.00000000000E+00 -0.60042118863E+02  0.60042118863E+02  0.00000000000E+00 0.  1.
         23    2    1    2    0    0 -0.47420381763E+02 -0.12550514592E+03  0.19472809771E+03  0.26751876697E+03  0.12508806650E+03 0.  0.
         23    2    1    2    0    0  0.47420381763E+02  0.12550514592E+03  0.25552099709E+03  0.30281456556E+03  0.91681224376E+02 0.  0.
          5    1    3    3  502    0 -0.75215626540E+02 -0.28111597597E+02  0.10416132753E+03  0.13158535993E+03  0.41800000000E+01 0.  1.
         -5    1    3    3    0  502  0.27795244776E+02 -0.97393548325E+02  0.90566770181E+02  0.13593340704E+03  0.41800000000E+01 0.  1.
        -11    1    4    4    0    0  0.47895763374E+02  0.20721830970E+02  0.50766359150E+02  0.72805368272E+02  0.00000000000E+00 0. -1.
         11    1    4    4    0    0 -0.47538161021E+00  0.10478331495E+03  0.20475463794E+03  0.23000919729E+03  0.00000000000E+00 0.  1.
</event>
<event>
 8    1  0.4798744E-006  0.2463925E+03  0.7561462E-02  0.1115606E+00
          2   -1    0    0  501    0  0.00000000000E+00  0.00000000000E+00  0.71120525165E+03  0.71120525165E+03  0.00000000000E+00 0. -1.
         -2   -1    0    0    0  501 -0.00000000000E+00 -0.00000000000E+00 -0.10012782226E+03  0.10012782226E+03  0.00000000000E+00 0.  1.
         23    2    1    2    0    0  0.15727069403E+03  0.17432018418E+03  0.21705232041E+03  0.34333770101E+03  0.12508984503E+03 0.  0.
         23    2    1    2    0    0 -0.15727069403E+03 -0.17432018418E+03  0.39402510898E+03  0.46799537290E+03  0.92963889449E+02 0.  0.
          5    1    3    3  502    0  0.17252364125E+03  0.16480320267E+03  0.17055403328E+03  0.29330982436E+03  0.41800000000E+01 0.  1.
         -5    1    3    3    0  502 -0.15252947220E+02  0.95169815033E+01  0.46498287132E+02  0.50027876649E+02  0.41800000000E+01 0.  1.
        -11    1    4    4    0    0 -0.22148775534E+02 -0.14767415612E+02  0.12217390794E+03  0.12504042787E+03  0.00000000000E+00 0. -1.
         11    1    4    4    0    0 -0.13512191849E+03 -0.15955276857E+03  0.27185120104E+03  0.34295494503E+03  0.00000000000E+00 0.  1.
</event>
<event>
 8    1  0.4798744E-006  0.1462216E+03  0.7561462E-02  0.1205194E+00
          1   -1    0    0  501    0  0.00000000000E+00  0.00000000000E+00  0.32445171328E+02  0.32445171328E+02  0.00000000000E+00 0. -1.
         -1   -1    0    0    0  501 -0.00000000000E+00 -0.00000000000E+00 -0.72619144177E+03  0.72619144177E+03  0.00000000000E+00 0.  1.
         23    2    1    2    0    0 -0.50254757590E+02 -0.84194526598E+02 -0.48253307892E+03  0.50804030780E+03  0.12511004405E+03 0.  0.
         23    2    1    2    0    0  0.50254757590E+02  0.84194526598E+02 -0.21121319152E+03  0.25059630530E+03  0.92591776032E+02 0.  0.
          5    1    3    3  502    0  0.40553299142E+02 -0.42347963915E+02 -0.16996950483E+03  0.17984722709E+03  0.41800000000E+01 0. -1.
         -5    1    3    3    0  502 -0.90808056732E+02 -0.41846562683E+02 -0.31256357409E+03  0.32819308071E+03  0.41800000000E+01 0. -1.
        -11    1    4    4    0    0  0.25889955845E+02 -0.16025187003E+02 -0.34750252055E+02  0.46202558912E+02  0.00000000000E+00 0. -1.
         11    1    4    4    0    0  0.24364801745E+02  0.10021971360E+03 -0.17646293946E+03  0.20439374639E+03  0.00000000000E+00 0.  1.
</event>
<event>
 8    1  0.4798744E-006  0.2166657E+03  0.7561462E-02  0.1136394E+00
         -1   -1    0    0    0  501 -0.00000000000E+00  0.00000000000E+00  0.55266646669E+02  0.55266646669E+02  0.00000000000E+00 0.  1.
          1   -1    0    0  501    0  0.00000000000E+00 -0.00000000000E+00 -0.12600207930E+04  0.12600207930E+04  0.00000000000E+00 0. -1.
         23    2    1    2    0    0 -0.12803653333E+03  0.15768947193E+03 -0.29855084827E+03  0.38215118674E+03  0.12509035572E+03 0.  0.
         23    2    1    2    0    0  0.12803653333E+03 -0.15768947193E+03 -0.90620329811E+03  0.93313625298E+03  0.90991899095E+02 0.  0.
          5    1    3    3  502    0 -0.84352534833E+02  0.15022287336E+03 -0.15475251072E+03  0.23162053835E+03  0.41800000000E+01 0.  1.
         -5    1    3    3    0  502 -0.43683998501E+02  0.74665985689E+01 -0.14379833756E+03  0.15053064838E+03  0.41800000000E+01 0.  1.
        -11    1    4    4    0    0  0.68105784954E+02 -0.13714868136E+03 -0.53165305730E+03  0.55326587829E+03  0.00000000000E+00 0.  1.
         11    1    4    4    0    0  0.59930748379E+02 -0.20540790565E+02 -0.37455024081E+03  0.37987037469E+03  0.00000000000E+00 0. -1.
</event>
<event>
 8    1  0.4798744E-006  0.9954390E+02  0.7561462E-02  0.1281258E+00
         -2   -1    0    0    0  501 -0.00000000000E+00  0.00000000000E+00  0.47514115429E+02  0.47514115429E+02  0.00000000000E+00 0.  1.
          2   -1    0    0  501    0  0.00000000000E+00 -0.00000000000E+00 -0.29622025798E+03  0.29622025798E+03  0.00000000000E+00 0. -1.
         23    2    1    2    0    0  0.35069930646E+02  0.16039585552E+02 -0.10016103398E+03  0.16482202491E+03  0.12508756464E+03 0.  0.
         23    2    1    2    0    0 -0.35069930646E+02 -0.16039585552E+02 -0.14854510857E+03  0.17891234850E+03  0.91960920098E+02 0.  0.
          5    1    3    3  502    0  0.35969636085E+02 -0.35020470084E+02  0.21242718246E+01  0.50420561042E+02  0.41800000000E+01 0.  1.
         -5    1    3    3    0  502 -0.89970543964E+00  0.51060055636E+02 -0.10228530581E+03  0.11440146387E+03  0.41800000000E+01 0.  1.
        -11    1    4    4    0    0  0.60095993349E+01  0.32976324074E+02 -0.70094610057E+02  0.77696895644E+02  0.00000000000E+00 0.  1.
         11    1    4    4    0    0 -0.41079529980E+02 -0.49015909625E+02 -0.78450498512E+02  0.10121545285E+03  0.00000000000E+00 0. -1.
</event>
<event>
 8    1  0.4798744E-006  0.8044563E+02  0.7561462E-02  0.1327792E+00
         -1   -1    0    0    0  501 -0.00000000000E+00  0.00000000000E+00  0.70882049689E+03  0.70882049689E+03  0.00000000000E+00 0.  1.
          1   -1    0    0  501    0  0.00000000000E+00 -0.00000000000E+00 -0.30479086938E+02  0.30479086938E+02  0.00000000000E+00 0. -1.
         23    2    1    2    0    0 -0.17866846493E+01  0.46810629871E+02  0.57263135532E+03  0.58800402661E+03  0.12509052283E+03 0.  0.
         23    2    1    2    0    0  0.17866846493E+01 -0.46810629871E+02  0.10571005463E+03  0.15129555722E+03  0.97577162659E+02 0.  0.
          5    1    3    3  502    0  0.15921524825E+02  0.63477903358E+02  0.13922789200E+03  0.15389872475E+03  0.41800000000E+01 0.  1.
         -5    1    3    3    0  502 -0.17708209475E+02 -0.16667273487E+02  0.43340346332E+03  0.43410530186E+03  0.41800000000E+01 0.  1.
        -11    1    4    4    0    0 -0.16645769519E+02 -0.49304345899E+02  0.89974837045E+01  0.52810556524E+02  0.00000000000E+00 0. -1.
         11    1    4    4    0    0  0.18432454168E+02  0.24937160281E+01  0.96712570926E+02  0.98485000692E+02  0.00000000000E+00 0.  1.
</event>
<event>
 8    1  0.4798744E-006  0.1360721E+03  0.7561462E-02  0.1218714E+00
         -4   -1    0    0    0  501 -0.00000000000E+00  0.00000000000E+00  0.18462323810E+03  0.18462323810E+03  0.00000000000E+00 0. -1.
          4   -1    0    0  501    0  0.00000000000E+00 -0.00000000000E+00 -0.10651191094E+03  0.10651191094E+03  0.00000000000E+00 0.  1.
         23    2    1    2    0    0 -0.75881992374E+02  0.48041135587E+02  0.61275640198E+02  0.16573642425E+03  0.12509128973E+03 0.  0.
         23    2    1    2    0    0  0.75881992374E+02 -0.48041135587E+02  0.16835686962E+02  0.12539872479E+03  0.85879988058E+02 0.  0.
          5    1    3    3  502    0 -0.76462532513E+02  0.85578369920E+02  0.55422330753E+02  0.12751189522E+03  0.41800000000E+01 0.  1.
         -5    1    3    3    0  502  0.58054013885E+00 -0.37537234333E+02  0.58533094451E+01  0.38224529032E+02  0.41800000000E+01 0.  1.
        -11    1    4    4    0    0  0.78071015367E+02 -0.69458858015E+01 -0.55046100595E+01  0.78572447473E+02  0.00000000000E+00 0.  1.
         11    1    4    4    0    0 -0.21890229927E+01 -0.41095249785E+02  0.22340297021E+02  0.46826277319E+02  0.00000000000E+00 0. -1.
</event>
<event>
 8    1  0.4798744E-006  0.1220978E+03  0.7561462E-02  0.1239676E+00
          3   -1    0    0  501    0  0.00000000000E+00  0.00000000000E+00  0.23503693230E+03  0.23503693230E+03  0.00000000000E+00 0. -1.
         -3   -1    0    0    0  501 -0.00000000000E+00 -0.00000000000E+00 -0.14727451970E+03  0.14727451970E+03  0.00000000000E+00 0.  1.
         23    2    1    2    0    0  0.65718243781E+02  0.53048914887E+01 -0.94772146704E+02  0.17022724525E+03  0.12509406778E+03 0.  0.
         23    2    1    2    0    0 -0.65718243781E+02 -0.53048914887E+01  0.18253455930E+03  0.21208420675E+03  0.85520851122E+02 0.  0.
          5    1    3    3  502    0 -0.30274365682E+02 -0.25566141789E+02 -0.34303184356E+02  0.52577045185E+02  0.41800000000E+01 0.  1.
         -5    1    3    3    0  502  0.95992609463E+02  0.30871033277E+02 -0.60468962348E+02  0.11765020006E+03  0.41800000000E+01 0.  1.
        -11    1    4    4    0    0 -0.49944523962E+02  0.34440750670E+02  0.13581837931E+03  0.14875232079E+03  0.00000000000E+00 0. -1.
         11    1    4    4    0    0 -0.15773719819E+02 -0.39745642159E+02  0.46716179986E+02  0.63331885966E+02  0.00000000000E+00 0.  1.
</event>
<event>
 8    1  0.4798744E-006  0.1357151E+03  0.7561462E-02  0.1219214E+00
          1   -1    0    0  501    0  0.00000000000E+00  0.00000000000E+00  0.63067552256E+03  0.63067552256E+03  0.00000000000E+00 0. -1.
         -1   -1    0    0    0  501 -0.00000000000E+00 -0.00000000000E+00 -0.38078935317E+02  0.38078935317E+02  0.00000000000E+00 0.  1.
         23    2    1    2    0    0  0.82350374425E+02  0.60083903923E+02  0.22794588320E+03  0.27928044244E+03  0.12508629094E+03 0.  0.
         23    2    1    2    0    0 -0.82350374425E+02 -0.60083903923E+02  0.36465070404E+03  0.38947401544E+03  0.91259043743E+02 0.  0.
          5    1    3    3  502    0  0.48512289823E+02  0.81107471569E+02  0.73707222255E+02  0.11992535687E+03  0.41800000000E+01 0.  1.
         -5    1    3    3    0  502  0.33838084602E+02 -0.21023567646E+02  0.15423866095E+03  0.15935508557E+03  0.41800000000E+01 0.  1.
        -11    1    4    4    0    0 -0.55640558235E+02  0.14543695316E+02  0.15839801054E+03  0.16851504543E+03  0.00000000000E+00 0. -1.
         11    1    4    4    0    0 -0.26709816189E+02 -0.74627599239E+02  0.20625269350E+03  0.22095897001E+03  0.00000000000E+00 0.  1.
</event>
<event>
 8    1  0.4798744E-006  0.1195918E+03  0.7561462E-02  0.1243772E+00
          1   -1    0    0  501    0  0.00000000000E+00  0.00000000000E+00  0.65222975432E+03  0.65222975432E+03  0.00000000000E+00 0. -1.
         -1   -1    0    0    0  501 -0.00000000000E+00 -0.00000000000E+00 -0.24342153158E+02  0.24342153158E+02  0.00000000000E+00 0.  1.
         23    2    1    2    0    0  0.50950084499E+02 -0.37373903209E+02  0.43986821636E+03  0.45851030569E+03  0.11293773905E+03 0.  0.
         23    2    1    2    0    0 -0.50950084499E+02  0.37373903209E+02  0.18801938480E+03  0.21806160179E+03  0.90591684853E+02 0.  0.
          5    1    3    3  502    0  0.58868961638E+02  0.26625254710E+02  0.22619114260E+03  0.23527508203E+03  0.41800000000E+01 0. -1.
         -5    1    3    3    0  502 -0.79188771395E+01 -0.63999157919E+02  0.21367707376E+03  0.22323522366E+03  0.41800000000E+01 0.  1.
        -11    1    4    4    0    0  0.21417179069E+02 -0.96727817926E+01  0.50460905750E+02  0.55664722006E+02  0.00000000000E+00 0.  1.
         11    1    4    4    0    0 -0.72367263568E+02  0.47046685001E+02  0.13755847905E+03  0.16239687979E+03  0.00000000000E+00 0. -1.
</event>
<event>
 7    1  0.4798744E-006  0.9612284E+02  0.7561462E-02  0.1288667E+00
          2   -1    0    0  501    0  0.00000000000E+00  0.00000000000E+00  0.12972922899E+03  0.12972922899E+03  0.00000000000E+00 0. -1.
         -2   -1    0    0    0  501 -0.00000000000E+00 -0.00000000000E+00 -0.17129056534E+03  0.17129056534E+03  0.00000000000E+00 0.  1.
         23    2    1    2    0    0  0.32942345250E+02 -0.45398598924E+02  0.57726007156E+02  0.12301203819E+03  0.93023861145E+02 0.  0.
          5    1    1    2  502    0  0.65930010309E+01  0.72773202262E+02 -0.65782909499E+01  0.73485732914E+02  0.41800000000E+01 0. -1.
         -5    1    1    2    0  502 -0.39535346281E+02 -0.27374603338E+02 -0.92709052555E+02  0.10452202323E+03  0.41800000000E+01 0.  1.
        -11    1    3    3    0    0  0.43384215544E+02 -0.40095029815E+02 -0.49215359709E+01  0.59279196103E+02  0.00000000000E+00 0. -1.
         11    1    3    3    0    0 -0.10441870294E+02 -0.53035691089E+01  0.62647543126E+02  0.63732842086E+02  0.00000000000E+00 0.  1.
</event>
<event>
 7    1  0.4798744E-006  0.2519424E+03  0.7561462E-02  0.1112083E+00
         -2   -1    0    0    0  501 -0.00000000000E+00  0.00000000000E+00  0.56668062499E+03  0.56668062499E+03  0.00000000000E+00 0.  1.
          2   -1    0    0  501    0  0.00000000000E+00 -0.00000000000E+00 -0.14699688054E+03  0.14699688054E+03  0.00000000000E+00 0. -1.
         23    2    1    2    0    0  0.54966451942E+02  0.32806222358E+02  0.10522959855E+03  0.15235108230E+03  0.89666185385E+02 0.  0.
          5    1    1    2  502    0 -0.39606552844E+01  0.18102800422E+03  0.43353513711E+01  0.18117144580E+03  0.41800000000E+01 0. -1.
         -5    1    1    2    0  502 -0.51005796658E+02 -0.21383422658E+03  0.31011879452E+03  0.38015497743E+03  0.41800000000E+01 0.  1.
        -11    1    3    3    0    0  0.12043344519E+02 -0.26833546418E+02  0.57915094484E+02  0.64955673576E+02  0.00000000000E+00 0. -1.
         11    1    3    3    0    0  0.42923107423E+02  0.59639768777E+02  0.47314504069E+02  0.87395408723E+02  0.00000000000E+00 0.  1.
</event>
<event>
 8    1  0.4798744E-006  0.8323371E+02  0.7561462E-02  0.1320117E+00
          2   -1    0    0  501    0  0.00000000000E+00  0.00000000000E+00  0.45209229107E+02  0.45209229107E+02  0.00000000000E+00 0. -1.
         -2   -1    0    0    0  501 -0.00000000000E+00 -0.00000000000E+00 -0.32562264450E+03  0.32562264450E+03  0.00000000000E+00 0.  1.
         23    2    1    2    0    0 -0.21773969813E+02 -0.44063361942E+02 -0.19379094110E+03  0.23583319220E+03  0.12508669020E+03 0.  0.
         23    2    1    2    0    0  0.21773969813E+02  0.44063361942E+02 -0.86622474291E+02  0.13499868140E+03  0.91134545046E+02 0.  0.
          5    1    3    3  502    0 -0.13048437787E+02  0.12449376425E+02 -0.17429324156E+03  0.17527365791E+03  0.41800000000E+01 0.  1.
         -5    1    3    3    0  502 -0.87255320264E+01 -0.56512738367E+02 -0.19497699537E+02  0.60559534296E+02  0.41800000000E+01 0.  1.
        -11    1    4    4    0    0  0.15371463002E+02 -0.20565057707E+02  0.12801918989E+01  0.25706854428E+02  0.00000000000E+00 0. -1.
         11    1    4    4    0    0  0.64025068118E+01  0.64628419649E+02 -0.87902666190E+02  0.10929182697E+03  0.00000000000E+00 0.  1.
</event>
<event>
 7    1  0.4798744E-006  0.1123614E+03  0.7561462E-02  0.1256258E+00
         -1   -1    0    0    0  501 -0.00000000000E+00  0.00000000000E+00  0.30164817747E+03  0.30164817747E+03  0.00000000000E+00 0.  1.
          1   -1    0    0  501    0  0.00000000000E+00 -0.00000000000E+00 -0.15737327835E+03  0.15737327835E+03  0.00000000000E+00 0. -1.
         23    2    1    2    0    0  0.19476561477E+02 -0.16101937045E+02 -0.12338690106E+03  0.15226644530E+03  0.85569469942E+02 0.  0.
          5    1    1    2  502    0  0.62719066509E+02 -0.96480494943E+01  0.11622333776E+03  0.13248434928E+03  0.41800000000E+01 0. -1.
         -5    1    1    2    0  502 -0.82195627986E+02  0.25749986539E+02  0.15143846243E+03  0.17427066124E+03  0.41800000000E+01 0.  1.
        -11    1    3    3    0    0  0.20549264738E+02  0.25796200911E+02 -0.97683203783E+02  0.10310055559E+03  0.00000000000E+00 0. -1.
         11    1    3    3    0    0 -0.10727032606E+01 -0.41898137956E+02 -0.25703697281E+02  0.49165889704E+02  0.00000000000E+00 0.  1.
</event>
<event>
 8    1  0.4798744E-006  0.1238956E+03  0.7561462E-02  0.1236805E+00
          1   -1    0    0  501    0  0.00000000000E+00  0.00000000000E+00  0.19987056144E+03  0.19987056144E+03  0.00000000000E+00 0. -1.
         -1   -1    0    0    0  501 -0.00000000000E+00 -0.00000000000E+00 -0.83681337855E+02  0.83681337855E+02  0.00000000000E+00 0.  1.
         23    2    1    2    0    0  0.64612945387E+02  0.11588889518E+02  0.63905778032E+02  0.15504874595E+03  0.12508808929E+03 0.  0.
         23    2    1    2    0    0 -0.64612945387E+02 -0.11588889518E+02  0.52283445558E+02  0.12850315335E+03  0.97315808940E+02 0.  0.
          5    1    3    3  502    0  0.68539457512E+02  0.59765489888E+02  0.52942146977E+02  0.10530866225E+03  0.41800000000E+01 0.  1.
         -5    1    3    3    0  502 -0.39265121250E+01 -0.48176600371E+02  0.10963631055E+02  0.49740083702E+02  0.41800000000E+01 0.  1.
        -11    1    4    4    0    0 -0.64055626416E+02  0.27097153489E+02  0.84908799702E+01  0.70067639074E+02  0.00000000000E+00 0.  1.
         11    1    4    4    0    0 -0.55731897092E+00 -0.38686043007E+02  0.43792565588E+02  0.58435514276E+02  0.00000000000E+00 0. -1.
</event>
<event>
 8    1  0.4798744E-006  0.1180603E+03  0.7561462E-02  0.1246332E+00
          2   -1    0    0  501    0  0.00000000000E+00  0.00000000000E+00  0.49343705810E+02  0.49343705810E+02  0.00000000000E+00 0. -1.
         -2   -1    0    0    0  501 -0.00000000000E+00 -0.00000000000E+00 -0.30727534399E+03  0.30727534399E+03  0.00000000000E+00 0.  1.
         23    2    1    2    0    0  0.46620878621E+02  0.17600213652E+02 -0.17240589152E+03  0.21876150267E+03  0.12509808063E+03 0.  0.
         23    2    1    2    0    0 -0.46620878621E+02 -0.17600213652E+02 -0.85525746662E+02  0.13785754713E+03  0.95951946900E+02 0.  0.
          5    1    3    3  502    0  0.78998130230E+02  0.43914887589E+02 -0.13532242281E+03  0.16278468124E+03  0.41800000000E+01 0. -1.
         -5    1    3    3    0  502 -0.32377251609E+02 -0.26314673938E+02 -0.37083468714E+02  0.55976821436E+02  0.41800000000E+01 0. -1.
        -11    1    4    4    0    0 -0.63854425610E+02 -0.40074510333E+02 -0.78163551026E+02  0.10859509546E+03  0.00000000000E+00 0.  1.
         11    1    4    4    0    0  0.17233546989E+02  0.22474296681E+02 -0.73621956369E+01  0.29262451670E+02  0.00000000000E+00 0. -1.
</event>
<event>
 8    1  0.4798744E-006  0.1549247E+03  0.7561462E-02  0.1194549E+00
         -2   -1    0    0    0  501 -0.00000000000E+00  0.00000000000E+00  0.88243218593E+02  0.88243218593E+02  0.00000000000E+00 0.  1.
          2   -1    0    0  501    0  0.00000000000E+00 -0.00000000000E+00 -0.33077125033E+03  0.33077125033E+03  0.00000000000E+00 0. -1.
         23    2    1    2    0    0  0.69126145146E+02  0.10079586597E+03 -0.70012395475E+02  0.18840551276E+03  0.12512662058E+03 0.  0.
         23    2    1    2    0    0 -0.69126145146E+02 -0.10079586597E+03 -0.17251563626E+03  0.23060895616E+03  0.92090256647E+02 0.  0.
          5    1    3    3  502    0  0.69419411080E+02  0.12867033141E+03 -0.63634724740E+02  0.15950535857E+03  0.41800000000E+01 0. -1.
         -5    1    3    3    0  502 -0.29326593405E+00 -0.27874465435E+02 -0.63776707347E+01  0.28900154190E+02  0.41800000000E+01 0. -1.
        -11    1    4    4    0    0 -0.34891394972E+02 -0.94308164834E+02 -0.16755621366E+03  0.19541372555E+03  0.00000000000E+00 0. -1.
         11    1    4    4    0    0 -0.34234750174E+02 -0.64877011371E+01 -0.49594226019E+01  0.35195230615E+02  0.00000000000E+00 0.  1.
</event>
<event>
 8    1  0.4798744E-006  0.1042159E+03  0.7561462E-02  0.1271672E+00
         -4   -1    0    0    0  501 -0.00000000000E+00  0.00000000000E+00  0.50295022639E+03  0.50295022639E+03  0.00000000000E+00 0.  1.
          4   -1    0    0  501    0  0.00000000000E+00 -0.00000000000E+00 -0.66755703787E+02  0.66755703787E+02  0.00000000000E+00 0. -1.
         23    2    1    2    0    0  0.81700033118E+02 -0.55048759967E+01  0.40345079630E+03  0.43026194860E+03  0.12509036858E+03 0.  0.
         23    2    1    2    0    0 -0.81700033118E+02  0.55048759967E+01  0.32743726308E+02  0.13944398158E+03  0.10801515317E+03 0.  0.
          5    1    3    3  502    0 -0.16200716430E+02  0.96320999867E+01  0.22733473378E+03  0.22815300600E+03  0.41800000000E+01 0. -1.
         -5    1    3    3    0  502  0.97900749548E+02 -0.15136975983E+02  0.17611606252E+03  0.20210894260E+03  0.41800000000E+01 0. -1.
        -11    1    4    4    0    0 -0.60720687025E+01  0.12627141156E+02  0.57785736147E+02  0.59460121209E+02  0.00000000000E+00 0.  1.
         11    1    4    4    0    0 -0.75627964416E+02 -0.71222651593E+01 -0.25042009839E+02  0.79983860368E+02  0.00000000000E+00 0. -1.
</event>
<event>
 8    1  0.4798744E-006  0.1169715E+03  0.7561462E-02  0.1248178E+00
         -1   -1    0    0    0  501 -0.00000000000E+00  0.00000000000E+00  0.58157791365E+02  0.58157791365E+02  0.00000000000E+00 0.  1.
          1   -1    0    0  501    0  0.00000000000E+00 -0.00000000000E+00 -0.59162825857E+03  0.59162825857E+03  0.00000000000E+00 0. -1.
         23    2    1    2    0    0  0.13562152076E+02 -0.15325738756E+02 -0.27231875849E+02  0.13154916845E+03  0.12706218329E+03 0.  0.
         23    2    1    2    0    0 -0.13562152076E+02  0.15325738756E+02 -0.50623859136E+03  0.51823688148E+03  0.10896395602E+03 0.  0.
          5    1    3    3  502    0 -0.51453168042E+02  0.14616912613E+02 -0.26510749818E+02  0.59844589495E+02  0.41800000000E+01 0. -1.
         -5    1    3    3    0  502  0.65015320118E+02 -0.29942651369E+02 -0.72112603122E+00  0.71704578959E+02  0.41800000000E+01 0.  1.
        -11    1    4    4    0    0 -0.38696916863E+02 -0.35101771023E+02 -0.19171826043E+03  0.19870952943E+03  0.00000000000E+00 0. -1.
         11    1    4    4    0    0  0.25134764787E+02  0.50427509778E+02 -0.31452033093E+03  0.31952735206E+03  0.00000000000E+00 0.  1.
</event>
<event>
 8    1  0.4798744E-006  0.1269887E+03  0.7561462E-02  0.1231994E+00
          2   -1    0    0  501    0  0.00000000000E+00  0.00000000000E+00  0.13420317324E+03  0.13420317324E+03  0.00000000000E+00 0. -1.
         -2   -1    0    0    0  501 -0.00000000000E+00 -0.00000000000E+00 -0.15214430756E+03  0.15214430756E+03  0.00000000000E+00 0.  1.
         23    2    1    2    0    0 -0.63224092617E+02 -0.44518377051E+02 -0.61469359749E+02  0.15938336488E+03  0.12508158549E+03 0.  0.
         23    2    1    2    0    0  0.63224092617E+02  0.44518377051E+02  0.43528225426E+02  0.12696411592E+03  0.90807535705E+02 0.  0.
          5    1    3    3  502    0 -0.62185238497E+02  0.23498365939E+02 -0.62332464702E+02  0.91224917893E+02  0.41800000000E+01 0. -1.
         -5    1    3    3    0  502 -0.10388541202E+01 -0.68016742991E+02  0.86310495310E+00  0.68158446983E+02  0.41800000000E+01 0. -1.
        -11    1    4    4    0    0  0.17135780155E+02  0.66128813896E+02  0.23064644510E+02  0.72101545165E+02  0.00000000000E+00 0. -1.
         11    1    4    4    0    0  0.46088312462E+02 -0.21610436845E+02  0.20463580916E+02  0.54862570757E+02  0.00000000000E+00 0.  1.
</event>
<event>
 8    1  0.4798744E-006  0.5434629E+02  0.7561462E-02  0.1423216E+00
         -3   -1    0    0    0  501 -0.00000000000E+00  0.00000000000E+00  0.27138246163E+03  0.27138246163E+03  0.00000000000E+00 0.  1.
          3   -1    0    0  501    0  0.00000000000E+00 -0.00000000000E+00 -0.67628704697E+02  0.67628704697E+02  0.00000000000E+00 0. -1.
         23    2    1    2    0    0 -0.32380384034E+02  0.13832053099E+02  0.20558810376E+03  0.24322631922E+03  0.12511098670E+03 0.  0.
         23    2    1    2    0    0  0.32380384034E+02 -0.13832053099E+02 -0.18343468172E+01  0.95784847109E+02  0.89059290051E+02 0.  0.
          5    1    3    3  502    0 -0.31009191142E+02  0.21208720455E+02  0.22173678919E+03  0.22493567045E+03  0.41800000000E+01 0.  1.
         -5    1    3    3    0  502 -0.13711928916E+01 -0.73766673556E+01 -0.16148685437E+02  0.18290648774E+02  0.41800000000E+01 0.  1.
        -11    1    4    4    0    0  0.92432473768E+01 -0.31731880097E+02  0.35402158172E+02  0.48432041458E+02  0.00000000000E+00 0.  1.
         11    1    4    4    0    0  0.23137136657E+02  0.17899826997E+02 -0.37236504990E+02  0.47352805651E+02  0.00000000000E+00 0. -1.
</event>
<event>
 8    1  0.4798744E-006  0.1073500E+03  0.7561462E-02  0.1265557E+00
         -1   -1    0    0    0  501 -0.00000000000E+00  0.00000000000E+00  0.34699751176E+02  0.34699751176E+02  0.00000000000E+00 0.  1.
          1   -1    0    0  501    0  0.00000000000E+00 -0.00000000000E+00 -0.34804209276E+03  0.34804209276E+03  0.00000000000E+00 0. -1.
         23    2    1    2    0    0 -0.92965878157E+01 -0.22136669271E+02 -0.15666435299E+03  0.20190920943E+03  0.12508857135E+03 0.  0.
         23    2    1    2    0    0  0.92965878157E+01  0.22136669271E+02 -0.15667798860E+03  0.18083263451E+03  0.87040168444E+02 0.  0.
          5    1    3    3  502    0 -0.61462168382E+02  0.14494727295E+02 -0.83709103760E+02  0.10493989572E+03  0.41800000000E+01 0.  1.
         -5    1    3    3    0  502  0.52165580566E+02 -0.36631396567E+02 -0.72955249233E+02  0.96969313708E+02  0.41800000000E+01 0.  1.
        -11    1    4    4    0    0 -0.33148841355E+02 -0.96283431293E+01 -0.84482050860E+02  0.91262081897E+02  0.00000000000E+00 0. -1.
         11    1    4    4    0    0  0.42445429171E+02  0.31765012401E+02 -0.72195937736E+02  0.89570552616E+02  0.00000000000E+00 0.  1.
</event>
<event>
 8    1  0.4798744E-006  0.1315173E+03  0.7561462E-02  0.1225222E+00
         -4   -1    0    0    0  501 -0.00000000000E+00  0.00000000000E+00  0.58073307364E+03  0.58073307364E+03  0.00000000000E+00 0.  1.
          4   -1    0    0  501    0  0.00000000000E+00 -0.00000000000E+00 -0.38618765261E+02  0.38618765261E+02  0.00000000000E+00 0. -1.
         23    2    1    2    0    0  0.88586660851E+02 -0.24712003728E+02  0.38804258541E+03  0.41795025102E+03  0.12508830732E+03 0.  0.
         23    2    1    2    0    0 -0.88586660851E+02  0.24712003728E+02  0.15407172298E+03  0.20140158789E+03  0.91467066060E+02 0.  0.
          5    1    3    3  502    0  0.34870679939E+02  0.37698498026E+02  0.26416723596E+03  0.26914483467E+03  0.41800000000E+01 0.  1.
         -5    1    3    3    0  502  0.53715980912E+02 -0.62410501754E+02  0.12387534944E+03  0.14880541635E+03  0.41800000000E+01 0.  1.
        -11    1    4    4    0    0 -0.87725312691E+02 -0.15292469528E+02  0.96710381627E+02  0.13146287699E+03  0.00000000000E+00 0. -1.
         11    1    4    4    0    0 -0.86134815982E+00  0.40004473256E+02  0.57361341350E+02  0.69938710901E+02  0.00000000000E+00 0.  1.
</event>
<event>
 8    1  0.4798744E-006  0.7838121E+02  0.7561462E-02  0.1333709E+00
          2   -1    0    0  501    0  0.00000000000E+00  0.00000000000E+00  0.29106915311E+03  0.29106915311E+03  0.00000000000E+00 0. -1.
         -2   -1    0    0    0  501 -0.00000000000E+00 -0.00000000000E+00 -0.65794232480E+02  0.65794232480E+02  0.00000000000E+00 0.  1.
         23    2    1    2    0    0 -0.47390765523E+02 -0.59222590286E+02  0.74377311865E+02  0.16411019478E+03  0.12508785574E+03 0.  0.
         23    2    1    2    0    0  0.47390765523E+02  0.59222590286E+02  0.15089760876E+03  0.19275319081E+03  0.92900507964E+02 0.  0.
          5    1    3    3  502    0 -0.26681366081E+02 -0.35820392446E+02 -0.30729783401E+02  0.54376353306E+02  0.41800000000E+01 0. -1.
         -5    1    3    3    0  502 -0.20709399442E+02 -0.23402197840E+02  0.10510709527E+03  0.10973384147E+03  0.41800000000E+01 0. -1.
        -11    1    4    4    0    0  0.20803459626E+02  0.73126610771E+01 -0.80254278799E+01  0.23466282984E+02  0.00000000000E+00 0.  1.
         11    1    4    4    0    0  0.26587305897E+02  0.51909929209E+02  0.15892303664E+03  0.16928690782E+03  0.00000000000E+00 0. -1.
</event>
<event>
 8    1  0.4798744E-006  0.8920874E+02  0.7561462E-02  0.1304779E+00
          1   -1    0    0  501    0  0.00000000000E+00  0.00000000000E+00  0.53370516193E+02  0.53370516193E+02  0.00000000000E+00 0. -1.
         -1   -1    0    0    0  501 -0.00000000000E+00 -0.00000000000E+00 -0.35008994902E+03  0.35008994902E+03  0.00000000000E+00 0.  1.
         23    2    1    2    0    0  0.36122778397E+02  0.49978596608E+02 -0.25446327237E+03  0.29017271136E+03  0.12508369277E+03 0.  0.
         23    2    1    2    0    0 -0.36122778397E+02 -0.49978596608E+02 -0.42256160453E+02  0.11328775385E+03  0.85122363909E+02 0.  0.
          5    1    3    3  502    0  0.51226407925E+02  0.69849360401E+02 -0.94662370530E+02  0.12838035213E+03  0.41800000000E+01 0.  1.
         -5    1    3    3    0  502 -0.15103629528E+02 -0.19870763794E+02 -0.15980090184E+03  0.16179235924E+03  0.41800000000E+01 0.  1.
        -11    1    4    4    0    0 -0.25031352031E+02 -0.13873024973E+02 -0.63714740753E+02  0.69846958385E+02  0.00000000000E+00 0.  1.
         11    1    4    4    0    0 -0.11091426366E+02 -0.36105571634E+02  0.21458580300E+02  0.43440795462E+02  0.00000000000E+00 0. -1.
</event>
<event>
 8    1  0.4798744E-006  0.1217964E+03  0.7561462E-02  0.1240163E+00
         -2   -1    0    0    0  501 -0.00000000000E+00  0.00000000000E+00  0.31579359462E+02  0.31579359462E+02  0.00000000000E+00 0.  1.
          2   -1    0    0  501    0  0.00000000000E+00 -0.00000000000E+00 -0.88841964316E+03  0.88841964316E+03  0.00000000000E+00 0. -1.
         23    2    1    2    0    0 -0.67267386154E+02  0.86979840160E+02 -0.27945968221E+03  0.32532498435E+03  0.12509291599E+03 0.  0.
         23    2    1    2    0    0  0.67267386154E+02 -0.86979840160E+02 -0.57738060149E+03  0.59467401827E+03  0.90434701254E+02 0.  0.
          5    1    3    3  502    0 -0.12069931952E+01  0.27683137429E+02 -0.21176355835E+03  0.21360966733E+03  0.41800000000E+01 0.  1.
         -5    1    3    3    0  502 -0.66060392959E+02  0.59296702731E+02 -0.67696123853E+02  0.11171531702E+03  0.41800000000E+01 0.  1.
        -11    1    4    4    0    0 -0.11991457403E+02 -0.18004602840E+02 -0.28246241971E+02  0.35578237162E+02  0.00000000000E+00 0.  1.
         11    1    4    4    0    0  0.79258843557E+02 -0.68975237320E+02 -0.54913435952E+03  0.55909578111E+03  0.00000000000E+00 0. -1.
</event>
<event>
 8    1  0.4798744E-006  0.1652984E+03  0.7561462E-02  0.1182842E+00
         -2   -1    0    0    0  501 -0.00000000000E+00  0.00000000000E+00  0.19922685170E+02  0.19922685170E+02  0.00000000000E+00 0. -1.
          2   -1    0    0  501    0  0.00000000000E+00 -0.00000000000E+00 -0.16172515471E+04  0.16172515471E+04  0.00000000000E+00 0.  1.
         23    2    1    2    0    0 -0.13572004249E+03 -0.43876045736E+02 -0.79097999836E+03  0.81341326454E+03  0.12508694498E+03 0.  0.
         23    2    1    2    0    0  0.13572004249E+03  0.43876045736E+02 -0.80634886359E+03  0.82376096775E+03  0.89658267021E+02 0.  0.
          5    1    3    3  502    0 -0.14652640668E+03 -0.35628860833E+02 -0.78238552748E+03  0.79679607779E+03  0.41800000000E+01 0.  1.
         -5    1    3    3    0  502  0.10806364185E+02 -0.82471849027E+01 -0.85944708799E+01  0.16617186748E+02  0.41800000000E+01 0.  1.
        -11    1    4    4    0    0  0.63459960640E+02 -0.22570628574E+02 -0.40622130314E+03  0.41176734572E+03  0.00000000000E+00 0.  1.
         11    1    4    4    0    0  0.72260081854E+02  0.66446674310E+02 -0.40012756045E+03  0.41199362202E+03  0.00000000000E+00 0. -1.
</event>
<event>
 8    1  0.4798744E-006  0.9166724E+02  0.7561462E-02  0.1298864E+00
          2   -1    0    0  501    0  0.00000000000E+00  0.00000000000E+00  0.68055202626E+02  0.68055202626E+02  0.00000000000E+00 0.  1.
         -2   -1    0    0    0  501 -0.00000000000E+00 -0.00000000000E+00 -0.26639558403E+03  0.26639558403E+03  0.00000000000E+00 0. -1.
         23    2    1    2    0    0 -0.70999443653E+01 -0.99801758699E+01 -0.20495445091E+03  0.24042557839E+03  0.12509244052E+03 0.  0.
         23    2    1    2    0    0  0.70999443653E+01  0.99801758699E+01  0.66140695032E+01  0.94025208269E+02  0.92989143207E+02 0.  0.
          5    1    3    3  502    0 -0.51708691376E+02  0.28023519895E+02 -0.14478214871E+03  0.15632801865E+03  0.41800000000E+01 0. -1.
         -5    1    3    3    0  502  0.44608747011E+02 -0.38003695765E+02 -0.60172302201E+02  0.84097559737E+02  0.41800000000E+01 0. -1.
        -11    1    4    4    0    0  0.35976621467E+02  0.59060464509E+01  0.36975529818E+02  0.51926760752E+02  0.00000000000E+00 0.  1.
         11    1    4    4    0    0 -0.28876677101E+02  0.40741294190E+01 -0.30361460315E+02  0.42098447518E+02  0.00000000000E+00 0. -1.
</event>
<event>
 8    1  0.4798744E-006  0.1134095E+03  0.7561462E-02  0.1254383E+00
          3   -1    0    0  501    0  0.00000000000E+00  0.00000000000E+00  0.30827901983E+03  0.30827901983E+03  0.00000000000E+00 0. -1.
         -3   -1    0    0    0  501 -0.00000000000E+00 -0.00000000000E+00 -0.54310602386E+02  0.54310602386E+02  0.00000000000E+00 0.  1.
         23    2    1    2    0    0  0.46633329197E+02  0.51448916809E+02  0.15090888617E+03  0.20795134337E+03  0.12509440777E+03 0.  0.
         23    2    1    2    0    0 -0.46633329197E+02 -0.51448916809E+02  0.10305953128E+03  0.15463827884E+03  0.92032993340E+02 0.  0.
          5    1    3    3  502    0 -0.34892670074E+02  0.43532685780E+02  0.35114889760E+02  0.66053925235E+02  0.41800000000E+01 0. -1.
         -5    1    3    3    0  502  0.81525999271E+02  0.79162310291E+01  0.11579399641E+03  0.14189741814E+03  0.41800000000E+01 0. -1.
        -11    1    4    4    0    0 -0.50914359707E+02 -0.16318178581E+02  0.90996178153E+01  0.54234288241E+02  0.00000000000E+00 0.  1.
         11    1    4    4    0    0  0.42810305103E+01 -0.35130738228E+02  0.93959913463E+02  0.10040399060E+03  0.00000000000E+00 0. -1.
</event>
<event>
 8    1  0.4798744E-006  0.9090511E+02  0.7561462E-02  0.1300675E+00
          2   -1    0    0  501    0  0.00000000000E+00  0.00000000000E+00  0.38155117874E+02  0.38155117874E+02  0.00000000000E+00 0.  1.
         -2   -1    0    0    0  501 -0.00000000000E+00 -0.00000000000E+00 -0.37196619442E+03  0.37196619442E+03  0.00000000000E+00 0. -1.
         23    2    1    2    0    0 -0.86234179769E+01 -0.10126427080E+02 -0.27372713311E+03  0.30124912674E+03  0.12509030778E+03 0.  0.
         23    2    1    2    0    0  0.86234179769E+01  0.10126427080E+02 -0.60083943441E+02  0.10887218555E+03  0.89811829204E+02 0.  0.
          5    1    3    3  502    0  0.40689527811E+02  0.31577094360E+02 -0.18056552464E+03  0.18781408799E+03  0.41800000000E+01 0.  1.
         -5    1    3    3    0  502 -0.49312945788E+02 -0.41703521440E+02 -0.93161608472E+02  0.11343503875E+03  0.41800000000E+01 0.  1.
        -11    1    4    4    0    0  0.34500890758E+02  0.17256951831E+02  0.45910477357E+01  0.38848314878E+02  0.00000000000E+00 0.  1.
         11    1    4    4    0    0 -0.25877472781E+02 -0.71305247509E+01 -0.64674991177E+02  0.70023870676E+02  0.00000000000E+00 0. -1.
</event>
<event>
 8    1  0.4798744E-006  0.1033140E+03  0.7561462E-02  0.1273478E+00
          1   -1    0    0  501    0  0.00000000000E+00  0.00000000000E+00  0.25818661285E+03  0.25818661285E+03  0.00000000000E+00 0. -1.
         -1   -1    0    0    0  501 -0.00000000000E+00 -0.00000000000E+00 -0.89252104414E+02  0.89252104414E+02  0.00000000000E+00 0.  1.
         23    2    1    2    0    0  0.62791111345E+01  0.78561598061E+02  0.96866985361E+01  0.14816461992E+03  0.12509024958E+03 0.  0.
         23    2    1    2    0    0 -0.62791111345E+01 -0.78561598061E+02  0.15924780990E+03  0.19927409735E+03  0.90216123769E+02 0.  0.
          5    1    3    3  502    0 -0.34436602768E+02  0.77142193246E+02  0.43447089846E+02  0.95089008855E+02  0.41800000000E+01 0.  1.
         -5    1    3    3    0  502  0.40715713902E+02  0.14194048147E+01 -0.33760391309E+02  0.53075611066E+02  0.41800000000E+01 0.  1.
        -11    1    4    4    0    0 -0.13183595654E+02 -0.50612571252E+02  0.18291365322E+02  0.55407703512E+02  0.00000000000E+00 0.  1.
         11    1    4    4    0    0  0.69044845198E+01 -0.27949026809E+02  0.14095644458E+03  0.14386639384E+03  0.00000000000E+00 0. -1.
</event>
<event>
 8    1  0.4798744E-006  0.1161061E+03  0.7561462E-02  0.1249663E+00
         -1   -1    0    0    0  501 -0.00000000000E+00  0.00000000000E+00  0.14860850006E+03  0.14860850006E+03  0.00000000000E+00 0.  1.
          1   -1    0    0  501    0  0.00000000000E+00 -0.00000000000E+00 -0.15157115220E+03  0.15157115220E+03  0.00000000000E+00 0. -1.
         23    2    1    2    0    0  0.95304044943E+02 -0.39449443121E+02 -0.13249833597E+02  0.16267094545E+03  0.12508860404E+03 0.  0.
         23    2    1    2    0    0 -0.95304044943E+02  0.39449443121E+02  0.10287181460E+02  0.13750870680E+03  0.90353189206E+02 0.  0.
          5    1    3    3  502    0  0.14617337347E+02  0.67918137027E+01  0.48287789431E+02  0.51078158665E+02  0.41800000000E+01 0. -1.
         -5    1    3    3    0  502  0.80686707596E+02 -0.46241256824E+02 -0.61537623028E+02  0.11159278679E+03  0.41800000000E+01 0. -1.
        -11    1    4    4    0    0 -0.89287217465E+01  0.34845370112E+02 -0.25298677432E+02  0.43976641187E+02  0.00000000000E+00 0.  1.
         11    1    4    4    0    0 -0.86375323196E+02  0.46040730089E+01  0.35585858893E+02  0.93532065617E+02  0.00000000000E+00 0. -1.
</event>
<event>
 8    1  0.4798744E-006  0.1836529E+03  0.7561462E-02  0.1164314E+00
          2   -1    0    0  501    0  0.00000000000E+00  0.00000000000E+00  0.53661162680E+03  0.53661162680E+03  0.00000000000E+00 0.  1.
         -2   -1    0    0    0  501 -0.00000000000E+00 -0.00000000000E+00 -0.75371671665E+02  0.75371671665E+02  0.00000000000E+00 0. -1.
         23    2    1    2    0    0 -0.84163133639E+02  0.14678646312E+03  0.25158320886E+03  0.32798130151E+03  0.12509166374E+03 0.  0.
         23    2    1    2    0    0  0.84163133639E+02 -0.14678646312E+03  0.20965674628E+03  0.28400199696E+03  0.89841439198E+02 0.  0.
          5    1    3    3  502    0 -0.88962756311E+02  0.70928432510E+02  0.21552355627E+03  0.24374800565E+03  0.41800000000E+01 0. -1.
         -5    1    3    3    0  502  0.47996226723E+01  0.75858030614E+02  0.36059652586E+02  0.84233295858E+02  0.41800000000E+01 0. -1.
        -11    1    4    4    0    0  0.66854510831E+01 -0.62441979919E+02  0.13037005021E+03  0.14470675901E+03  0.00000000000E+00 0.  1.
         11    1    4    4    0    0  0.77477682556E+02 -0.84344483205E+02  0.79286696068E+02  0.13929523795E+03  0.00000000000E+00 0. -1.
</event>
<event>
 8    1  0.4798744E-006  0.8208745E+02  0.7561462E-02  0.1323230E+00
         -2   -1    0    0    0  501 -0.00000000000E+00  0.00000000000E+00  0.55237752993E+02  0.55237752993E+02  0.00000000000E+00 0. -1.
          2   -1    0    0  501    0  0.00000000000E+00 -0.00000000000E+00 -0.28016434202E+03  0.28016434202E+03  0.00000000000E+00 0.  1.
         23    2    1    2    0    0 -0.87410889478E+01  0.28901289588E+02 -0.55022121968E+02  0.13995078764E+03  0.12508836029E+03 0.  0.
         23    2    1    2    0    0  0.87410889478E+01 -0.28901289588E+02 -0.16990446706E+03  0.19545130738E+03  0.91771425027E+02 0.  0.
          5    1    3    3  502    0 -0.34661846309E+02  0.28085045264E+02 -0.87424556887E+02  0.98238174372E+02  0.41800000000E+01 0. -1.
         -5    1    3    3    0  502  0.25920757362E+02  0.81624432392E+00  0.32402434918E+02  0.41712613268E+02  0.41800000000E+01 0. -1.
        -11    1    4    4    0    0  0.33445203184E+02  0.19531056692E+02 -0.97464885343E+02  0.10487825164E+03  0.00000000000E+00 0.  1.
         11    1    4    4    0    0 -0.24704114236E+02 -0.48432346280E+02 -0.72439581721E+02  0.90573055741E+02  0.00000000000E+00 0. -1.
</event>
<event>
 8    1  0.4798744E-006  0.1259098E+03  0.7561462E-02  0.1233654E+00
          2   -1    0    0  501    0  0.00000000000E+00  0.00000000000E+00  0.42720890426E+03  0.42720890426E+03  0.00000000000E+00 0. -1.
         -2   -1    0    0    0  501 -0.00000000000E+00 -0.00000000000E+00 -0.38299489249E+02  0.38299489249E+02  0.00000000000E+00 0.  1.
         23    2    1    2    0    0 -0.29450552503E+02 -0.57140981279E+02  0.17694025243E+03  0.22602650973E+03  0.12509078058E+03 0.  0.
         23    2    1    2    0    0  0.29450552503E+02  0.57140981279E+02  0.21196916258E+03  0.23948188378E+03  0.91039661635E+02 0.  0.
          5    1    3    3  502    0  0.44859444102E+02 -0.47271352604E+02  0.75475754941E+02  0.99804872055E+02  0.41800000000E+01 0. -1.
         -5    1    3    3    0  502 -0.74309996605E+02 -0.98696286755E+01  0.10146449749E+03  0.12622163767E+03  0.41800000000E+01 0. -1.
        -11    1    4    4    0    0  0.59789033245E+01 -0.25157321660E+02  0.50547047805E+02  0.56777127084E+02  0.00000000000E+00 0.  1.
         11    1    4    4    0    0  0.23471649179E+02  0.82298302939E+02  0.16142211477E+03  0.18270475670E+03  0.00000000000E+00 0. -1.
</event>
<event>
 8    1  0.4798744E-006  0.1090086E+03  0.7561462E-02  0.1262417E+00
          2   -1    0    0  501    0  0.00000000000E+00  0.00000000000E+00  0.89159234780E+03  0.89159234780E+03  0.00000000000E+00 0. -1.
         -2   -1    0    0    0  501 -0.00000000000E+00 -0.00000000000E+00 -0.22989171147E+02  0.22989171147E+02  0.00000000000E+00 0.  1.
         23    2    1    2    0    0  0.91543435738E+02  0.13961850501E+02  0.53915526084E+03  0.56116952246E+03  0.12509078204E+03 0.  0.
         23    2    1    2    0    0 -0.91543435738E+02 -0.13961850501E+02  0.32944791581E+03  0.35341199649E+03  0.88255176219E+02 0.  0.
          5    1    3    3  502    0  0.35121650817E+02  0.27601372241E+02  0.46376341448E+03  0.46592847425E+03  0.41800000000E+01 0. -1.
         -5    1    3    3    0  502  0.56421784921E+02 -0.13639521740E+02  0.75391846355E+02  0.95241048208E+02  0.41800000000E+01 0. -1.
        -11    1    4    4    0    0 -0.49704536566E+01 -0.26957801517E+02  0.26720158063E+02  0.38280482222E+02  0.00000000000E+00 0.  1.
         11    1    4    4    0    0 -0.86572982081E+02  0.12995951016E+02  0.30272775775E+03  0.31513151426E+03  0.00000000000E+00 0. -1.
</event>
<event>
 8    1  0.1097911E-005  0.3281625E+03  0.7561462E-02  0.1071953E+00
         -2   -1    0    0    0  501 -0.00000000000E+00  0.00000000000E+00  0.21984543961E+03  0.21984543961E+03  0.00000000000E+00 0.  1.
          2   -1    0    0  501    0  0.00000000000E+00 -0.00000000000E+00 -0.51217521476E+03  0.51217521476E+03  0.00000000000E+00 0. -1.
         23    2    1    2    0    0  0.29957087475E+03 -0.10117932363E+03 -0.11852043846E+03  0.36010408199E+03  0.12509153050E+03 0.  0.
         23    2    1    2    0    0 -0.29957087475E+03  0.10117932363E+03 -0.17380933669E+03  0.37191657238E+03  0.90179192491E+02 0.  0.
          5    1    3    3  502    0  0.12065966985E+03 -0.88043190371E+02 -0.99801002958E+02  0.17968881960E+03  0.41800000000E+01 0.  1.
         -5    1    3    3    0  502  0.17891120490E+03 -0.13136133258E+02 -0.18719435504E+02  0.18041526239E+03  0.41800000000E+01 0.  1.
        -11    1    4    4    0    0 -0.18670031199E+03  0.18640652851E+02 -0.11611564744E+03  0.22065204286E+03  0.00000000000E+00 0. -1.
         11    1    4    4    0    0 -0.11287056276E+03  0.82538670777E+02 -0.57693689246E+02  0.15126452952E+03  0.00000000000E+00 0.  1.
</event>
<event>
 8    1  0.4798744E-006  0.1006710E+03  0.7561462E-02  0.1278891E+00
          1   -1    0    0  501    0  0.00000000000E+00  0.00000000000E+00  0.39783925892E+03  0.39783925892E+03  0.00000000000E+00 0. -1.
         -1   -1    0    0    0  501 -0.00000000000E+00 -0.00000000000E+00 -0.45400194660E+02  0.45400194660E+02  0.00000000000E+00 0.  1.
         23    2    1    2    0    0  0.17666744736E+02 -0.41983866563E+02  0.83586694600E+02  0.15719085580E+03  0.12508985055E+03 0.  0.
         23    2    1    2    0    0 -0.17666744736E+02  0.41983866563E+02  0.26885236966E+03  0.28604859778E+03  0.86414377857E+02 0.  0.
          5    1    3    3  502    0  0.42425209029E+02  0.26669634474E+02  0.60836938387E+01  0.50652260511E+02  0.41800000000E+01 0.  1.
         -5    1    3    3    0  502 -0.24758464293E+02 -0.68653501036E+02  0.77503000761E+02  0.10653859529E+03  0.41800000000E+01 0.  1.
        -11    1    4    4    0    0  0.23811225797E+02  0.19490070944E+02  0.31437760697E+02  0.43990568728E+02  0.00000000000E+00 0.  1.
         11    1    4    4    0    0 -0.41477970533E+02  0.22493795619E+02  0.23741460896E+03  0.24205802905E+03  0.00000000000E+00 0. -1.
</event>
<event>
 8    1  0.4798744E-006  0.7274624E+02  0.7561462E-02  0.1350996E+00
          2   -1    0    0  501    0  0.00000000000E+00  0.00000000000E+00  0.25433740076E+03  0.25433740076E+03  0.00000000000E+00 0. -1.
         -2   -1    0    0    0  501 -0.00000000000E+00 -0.00000000000E+00 -0.52730616283E+02  0.52730616283E+02  0.00000000000E+00 0.  1.
         23    2    1    2    0    0  0.26511117834E+02 -0.12916613796E+02  0.74281251180E+02  0.14844562238E+03  0.12509484500E+03 0.  0.
         23    2    1    2    0    0 -0.26511117834E+02  0.12916613796E+02  0.12732553330E+03  0.15862239467E+03  0.89886563955E+02 0.  0.
          5    1    3    3  502    0  0.43222941445E+02 -0.44280298444E+02 -0.42306245978E+01  0.62163800414E+02  0.41800000000E+01 0.  1.
         -5    1    3    3    0  502 -0.16711823611E+02  0.31363684649E+02  0.78511875778E+02  0.86281821964E+02  0.41800000000E+01 0.  1.
        -11    1    4    4    0    0 -0.20963353209E+02  0.26047101297E+02  0.13724321630E+03  0.14125726206E+03  0.00000000000E+00 0. -1.
         11    1    4    4    0    0 -0.55477646249E+01 -0.13130487502E+02 -0.99176830025E+01  0.17365132608E+02  0.00000000000E+00 0.  1.
</event>
<event>
 8    1  0.4798744E-006  0.1042872E+03  0.7561462E-02  0.1271530E+00
          1   -1    0    0  501    0  0.00000000000E+00  0.00000000000E+00  0.48181494852E+03  0.48181494852E+03  0.00000000000E+00 0. -1.
         -1   -1    0    0    0  501 -0.00000000000E+00 -0.00000000000E+00 -0.57206395544E+02  0.57206395544E+02  0.00000000000E+00 0.  1.
         23    2    1    2    0    0 -0.21086154234E+02 -0.76159691198E+02  0.48764784421E+02  0.14428921986E+03  0.11043754029E+03 0.  0.
         23    2    1    2    0    0  0.21086154234E+02  0.76159691198E+02  0.37584376856E+03  0.39473212421E+03  0.91159130389E+02 0.  0.
          5    1    3    3  502    0  0.28334225147E+01 -0.68393868028E+02  0.79082844889E+02  0.10467720966E+03  0.41800000000E+01 0. -1.
         -5    1    3    3    0  502 -0.23919576749E+02 -0.77658231709E+01 -0.30318060468E+02  0.39612010198E+02  0.41800000000E+01 0.  1.
        -11    1    4    4    0    0  0.49683201404E+02  0.68991318868E+02  0.32522155099E+03  0.33615068021E+03  0.00000000000E+00 0. -1.
         11    1    4    4    0    0 -0.28597047169E+02  0.71683723307E+01  0.50622217569E+02  0.58581443993E+02  0.00000000000E+00 0.  1.
</event>
<event>
 8    1  0.4798744E-006  0.3470697E+03  0.7561462E-02  0.1063824E+00
          2   -1    0    0  501    0  0.00000000000E+00  0.00000000000E+00  0.19699646430E+04  0.19699646430E+04  0.00000000000E+00 0.  1.
         -2   -1    0    0    0  501 -0.00000000000E+00 -0.00000000000E+00 -0.15052275527E+03  0.15052275527E+03  0.00000000000E+00 0. -1.
         23    2    1    2    0    0 -0.80369730837E+01  0.32943984117E+03  0.98665268297E+02  0.36603020991E+03  0.12509227600E+03 0.  0.
         23    2    1    2    0    0  0.80369730837E+01 -0.32943984117E+03  0.17207766194E+04  0.17544571883E+04  0.91938293796E+02 0.  0.
          5    1    3    3  502    0 -0.10868447096E+02 -0.84582990692E+01  0.62124183069E+01  0.15675857445E+02  0.41800000000E+01 0.  1.
         -5    1    3    3    0  502  0.28314740124E+01  0.33789814024E+03  0.92452849990E+02  0.35035435247E+03  0.41800000000E+01 0.  1.
        -11    1    4    4    0    0 -0.27871359240E+02 -0.27614617740E+03  0.14255383707E+04  0.14523061559E+04  0.00000000000E+00 0. -1.
         11    1    4    4    0    0  0.35908332323E+02 -0.53293663768E+02  0.29523824867E+03  0.30215103244E+03  0.00000000000E+00 0.  1.
</event>
<event>
 8    1  0.4798744E-006  0.1308134E+03  0.7561462E-02  0.1226254E+00
         -1   -1    0    0    0  501 -0.00000000000E+00  0.00000000000E+00  0.70845991368E+03  0.70845991368E+03  0.00000000000E+00 0.  1.
          1   -1    0    0  501    0  0.00000000000E+00 -0.00000000000E+00 -0.45458040391E+02  0.45458040391E+02  0.00000000000E+00 0. -1.
         23    2    1    2    0    0  0.11930691791E+03 -0.18196413460E+02  0.51185231201E+03  0.54058227410E+03  0.12518448640E+03 0.  0.
         23    2    1    2    0    0 -0.11930691791E+03  0.18196413460E+02  0.15114956128E+03  0.21333567997E+03  0.90003735201E+02 0.  0.
          5    1    3    3  502    0  0.83880591079E+02 -0.33443013778E+02  0.13959368539E+03  0.16630772120E+03  0.41800000000E+01 0. -1.
         -5    1    3    3    0  502  0.35426326833E+02  0.15246600318E+02  0.37225862662E+03  0.37427455290E+03  0.41800000000E+01 0. -1.
        -11    1    4    4    0    0 -0.63541743630E+02  0.37067133502E+02  0.13255163409E+03  0.15159637618E+03  0.00000000000E+00 0.  1.
         11    1    4    4    0    0 -0.55765174282E+02 -0.18870720042E+02  0.18597927189E+02  0.61739303797E+02  0.00000000000E+00 0. -1.
</event>
<event>
 8    1  0.4798744E-006  0.1511032E+03  0.7561462E-02  0.1199124E+00
          2   -1    0    0  501    0  0.00000000000E+00  0.00000000000E+00  0.63818046507E+03  0.63818046507E+03  0.00000000000E+00 0. -1.
         -2   -1    0    0    0  501 -0.00000000000E+00 -0.00000000000E+00 -0.47670821967E+02  0.47670821967E+02  0.00000000000E+00 0.  1.
         23    2    1    2    0    0 -0.17396623386E+02 -0.12269731502E+03  0.20256995978E+03  0.26840052919E+03  0.12508789648E+03 0.  0.
         23    2    1    2    0    0  0.17396623386E+02  0.12269731502E+03  0.38793968332E+03  0.41745075784E+03  0.91709670750E+02 0.  0.
          5    1    3    3  502    0 -0.30011275360E+02 -0.13003584469E+03  0.10555164230E+03  0.17020170136E+03  0.41800000000E+01 0.  1.
         -5    1    3    3    0  502  0.12614651974E+02  0.73385296633E+01  0.97018317482E+02  0.98198827840E+02  0.41800000000E+01 0.  1.
        -11    1    4    4    0    0 -0.35473555870E+02  0.71962745577E+02  0.22199168015E+03  0.23604515664E+03  0.00000000000E+00 0.  1.
         11    1    4    4    0    0  0.52870179257E+02  0.50734569445E+02  0.16594800317E+03  0.18140560120E+03  0.00000000000E+00 0. -1.
</event>
<event>
 8    1  0.4798744E-006  0.2090767E+03  0.7561462E-02  0.1142299E+00
         -2   -1    0    0    0  501 -0.00000000000E+00  0.00000000000E+00  0.10548350713E+04  0.10548350713E+04  0.00000000000E+00 0.  1.
          2   -1    0    0  501    0  0.00000000000E+00 -0.00000000000E+00 -0.45850132733E+02  0.45850132733E+02  0.00000000000E+00 0. -1.
         23    2    1    2    0    0  0.70670367742E+02  0.16922421490E+03  0.64636617149E+03  0.68342368923E+03  0.12509026969E+03 0.  0.
         23    2    1    2    0    0 -0.70670367742E+02 -0.16922421490E+03  0.36261876712E+03  0.41726151484E+03  0.94782201470E+02 0.  0.
          5    1    3    3  502    0 -0.13198780330E+02  0.12513164215E+03  0.40395199427E+03  0.42311561274E+03  0.41800000000E+01 0.  1.
         -5    1    3    3    0  502  0.83869148072E+02  0.44092572747E+02  0.24241417722E+03  0.26030807649E+03  0.41800000000E+01 0.  1.
        -11    1    4    4    0    0 -0.61153643965E+02 -0.53367222538E+02  0.21195656123E+03  0.22696566362E+03  0.00000000000E+00 0.  1.
         11    1    4    4    0    0 -0.95167237764E+01 -0.11585699236E+03  0.15066220589E+03  0.19029585123E+03  0.00000000000E+00 0. -1.
</event>
<event>
 8    1  0.4798744E-006  0.1995739E+03  0.7561462E-02  0.1150099E+00
         -2   -1    0    0    0  501 -0.00000000000E+00  0.00000000000E+00  0.87506955576E+02  0.87506955576E+02  0.00000000000E+00 0.  1.
          2   -1    0    0  501    0  0.00000000000E+00 -0.00000000000E+00 -0.73768674197E+03  0.73768674197E+03  0.00000000000E+00 0. -1.
         23    2    1    2    0    0 -0.12977863946E+03 -0.12613448928E+03 -0.10368015937E+03  0.24320767617E+03  0.12509194080E+03 0.  0.
         23    2    1    2    0    0  0.12977863946E+03  0.12613448928E+03 -0.54649962703E+03  0.58198602138E+03  0.85401885793E+02 0.  0.
          5    1    3    3  502    0 -0.11621564037E+03 -0.14984772966E+03 -0.10237155383E+03  0.21554077244E+03  0.41800000000E+01 0. -1.
         -5    1    3    3    0  502 -0.13562999088E+02  0.23713240376E+02 -0.13086055415E+01  0.27666903727E+02  0.41800000000E+01 0. -1.
        -11    1    4    4    0    0  0.79046374000E+02  0.88529544662E+02 -0.22541557156E+03  0.25475083792E+03  0.00000000000E+00 0. -1.
         11    1    4    4    0    0  0.50732265461E+02  0.37604944618E+02 -0.32108405547E+03  0.32723518346E+03  0.00000000000E+00 0.  1.
</event>
<event>
 8    1  0.4798744E-006  0.1113198E+03  0.7561462E-02  0.1258145E+00
         -2   -1    0    0    0  501 -0.00000000000E+00  0.00000000000E+00  0.43858434831E+03  0.43858434831E+03  0.00000000000E+00 0.  1.
          2   -1    0    0  501    0  0.00000000000E+00 -0.00000000000E+00 -0.30817874080E+02  0.30817874080E+02  0.00000000000E+00 0. -1.
         23    2    1    2    0    0  0.40267738248E+02 -0.11185413693E+02  0.24760445734E+03  0.28054102807E+03  0.12509475174E+03 0.  0.
         23    2    1    2    0    0 -0.40267738248E+02  0.11185413693E+02  0.16016201689E+03  0.18886119432E+03  0.90939951848E+02 0.  0.
          5    1    3    3  502    0  0.23169944773E+02  0.52645261311E+02  0.16430226025E+03  0.17412947770E+03  0.41800000000E+01 0.  1.
         -5    1    3    3    0  502  0.17097793475E+02 -0.63830675004E+02  0.83302197088E+02  0.10641155037E+03  0.41800000000E+01 0.  1.
        -11    1    4    4    0    0 -0.14198647583E+02  0.50012882126E+02  0.68899499527E+02  0.86313562125E+02  0.00000000000E+00 0. -1.
         11    1    4    4    0    0 -0.26069090665E+02 -0.38827468433E+02  0.91262517363E+02  0.10254763219E+03  0.00000000000E+00 0.  1.
</event>
<event>
 8    1  0.4798744E-006  0.1871882E+03  0.7561462E-02  0.1161022E+00
         -1   -1    0    0    0  501 -0.00000000000E+00  0.00000000000E+00  0.31003617669E+02  0.31003617669E+02  0.00000000000E+00 0. -1.
          1   -1    0    0  501    0  0.00000000000E+00 -0.00000000000E+00 -0.13617790122E+04  0.13617790122E+04  0.00000000000E+00 0.  1.
         23    2    1    2    0    0  0.16921498275E+03  0.41889234440E+02 -0.65257794716E+03  0.68694598476E+03  0.12509352707E+03 0.  0.
         23    2    1    2    0    0 -0.16921498275E+03 -0.41889234440E+02 -0.67819744740E+03  0.70583664513E+03  0.88685814005E+02 0.  0.
          5    1    3    3  502    0  0.71328905858E+02 -0.36829675431E+01 -0.46499132448E+03  0.47046336871E+03  0.41800000000E+01 0.  1.
         -5    1    3    3    0  502  0.97886076891E+02  0.45572201983E+02 -0.18758662268E+03  0.21648261605E+03  0.41800000000E+01 0.  1.
        -11    1    4    4    0    0 -0.74054258432E+02 -0.63085249277E+02 -0.37083137996E+03  0.38337930856E+03  0.00000000000E+00 0.  1.
         11    1    4    4    0    0 -0.95160724317E+02  0.21196014837E+02 -0.30736606744E+03  0.32245733658E+03  0.00000000000E+00 0. -1.
</event>
<event>
 8    1  0.4798744E-006  0.1323616E+03  0.7561462E-02  0.1223993E+00
         -2   -1    0    0    0  501 -0.00000000000E+00  0.00000000000E+00  0.36321882246E+02  0.36321882246E+02  0.00000000000E+00 0.  1.
          2   -1    0    0  501    0  0.00000000000E+00 -0.00000000000E+00 -0.58841662962E+03  0.58841662962E+03  0.00000000000E+00 0. -1.
         23    2    1    2    0    0 -0.20756097816E+02  0.95707313070E+02 -0.27786532673E+03  0.32007410897E+03  0.12509032761E+03 0.  0.
         23    2    1    2    0    0  0.20756097816E+02 -0.95707313070E+02 -0.27422942065E+03  0.30466440290E+03  0.89598648837E+02 0.  0.
          5    1    3    3  502    0 -0.53881939383E+02  0.81449145150E+02 -0.10507630052E+03  0.14351211785E+03  0.41800000000E+01 0. -1.
         -5    1    3    3    0  502  0.33125841567E+02  0.14258167921E+02 -0.17278902620E+03  0.17656199112E+03  0.41800000000E+01 0. -1.
        -11    1    4    4    0    0 -0.30719495543E+02 -0.61846487575E+02 -0.11795533784E+03  0.13668261469E+03  0.00000000000E+00 0.  1.
         11    1    4    4    0    0  0.51475593359E+02 -0.33860825495E+02 -0.15627408280E+03  0.16798178821E+03  0.00000000000E+00 0. -1.
</event>
<event>
 8    1  0.4798744E-006  0.2334726E+03  0.7561462E-02  0.1124219E+00
          4   -1    0    0  501    0  0.00000000000E+00  0.00000000000E+00  0.12556204579E+03  0.12556204579E+03  0.00000000000E+00 0.  1.
         -4   -1    0    0    0  501 -0.00000000000E+00 -0.00000000000E+00 -0.55685873815E+03  0.55685873815E+03  0.00000000000E+00 0. -1.
         23    2    1    2    0    0 -0.14411466439E+03 -0.15376625096E+03 -0.37195519410E+03  0.44543400158E+03  0.12509071475E+03 0.  0.
         23    2    1    2    0    0  0.14411466439E+03  0.15376625096E+03 -0.59341498253E+02  0.23698678236E+03  0.90709564968E+02 0.  0.
          5    1    3    3  502    0 -0.16615852823E+03 -0.14579504999E+03 -0.34049112698E+03  0.40597602522E+03  0.41800000000E+01 0. -1.
         -5    1    3    3    0  502  0.22043863843E+02 -0.79712009702E+01 -0.31464067123E+02  0.39457976354E+02  0.41800000000E+01 0. -1.
        -11    1    4    4    0    0  0.79002941177E+02  0.34601764326E+02  0.56688690645E+01  0.86434269162E+02  0.00000000000E+00 0.  1.
         11    1    4    4    0    0  0.65111723209E+02  0.11916448663E+03 -0.65010367318E+02  0.15055251320E+03  0.00000000000E+00 0. -1.
</event>
<event>
 8    1  0.4798744E-006  0.1309075E+03  0.7561462E-02  0.1226115E+00
          3   -1    0    0  501    0  0.00000000000E+00  0.00000000000E+00  0.23461920102E+03  0.23461920102E+03  0.00000000000E+00 0. -1.
         -3   -1    0    0    0  501 -0.00000000000E+00 -0.00000000000E+00 -0.95903749398E+02  0.95903749398E+02  0.00000000000E+00 0.  1.
         23    2    1    2    0    0  0.37596978952E+02 -0.96069191504E+02  0.86568335734E+02  0.18377201693E+03  0.12504101356E+03 0.  0.
         23    2    1    2    0    0 -0.37596978952E+02  0.96069191504E+02  0.52147115886E+02  0.14675093349E+03  0.90408475274E+02 0.  0.
          5    1    3    3  502    0 -0.20232173494E+02 -0.97998083534E+02  0.73708006369E+02  0.12435154934E+03  0.41800000000E+01 0.  1.
         -5    1    3    3    0  502  0.57829152445E+02  0.19288920301E+01  0.12860329365E+02  0.59420467588E+02  0.41800000000E+01 0.  1.
        -11    1    4    4    0    0 -0.16415962885E+02  0.29088003307E+02  0.67075942527E+02  0.74931821276E+02  0.00000000000E+00 0. -1.
         11    1    4    4    0    0 -0.21181016067E+02  0.66981188197E+02 -0.14928826640E+02  0.71819112211E+02  0.00000000000E+00 0.  1.
</event>
<event>
 8    1  0.4798744E-006  0.8568128E+02  0.7561462E-02  0.1313660E+00
          2   -1    0    0  501    0  0.00000000000E+00  0.00000000000E+00  0.12647337011E+03  0.12647337011E+03  0.00000000000E+00 0. -1.
         -2   -1    0    0    0  501 -0.00000000000E+00 -0.00000000000E+00 -0.12105083668E+03  0.12105083668E+03  0.00000000000E+00 0.  1.
         23    2    1    2    0    0  0.19412043822E+02 -0.43577306897E+02 -0.27166040903E+02  0.13660604183E+03  0.12508959895E+03 0.  0.
         23    2    1    2    0    0 -0.19412043822E+02  0.43577306897E+02  0.32588574338E+02  0.11091816496E+03  0.94683763223E+02 0.  0.
          5    1    3    3  502    0  0.40695625745E+02 -0.42131444587E+02 -0.68303637860E+02  0.90078032409E+02  0.41800000000E+01 0. -1.
         -5    1    3    3    0  502 -0.21283581923E+02 -0.14458623102E+01  0.41137596957E+02  0.46528009421E+02  0.41800000000E+01 0. -1.
        -11    1    4    4    0    0  0.15501112045E+02 -0.15726145997E+02 -0.15487058757E+02  0.26971190769E+02  0.00000000000E+00 0.  1.
         11    1    4    4    0    0 -0.34913155866E+02  0.59303452894E+02  0.48075633095E+02  0.83946974187E+02  0.00000000000E+00 0. -1.
</event>
<event>
 8    1  0.4798744E-006  0.8331091E+02  0.7561462E-02  0.1319910E+00
         -2   -1    0    0    0  501 -0.00000000000E+00  0.00000000000E+00  0.29550650768E+03  0.29550650768E+03  0.00000000000E+00 0.  1.
          2   -1    0    0  501    0  0.00000000000E+00 -0.00000000000E+00 -0.45751575871E+02  0.45751575871E+02  0.00000000000E+00 0. -1.
         23    2    1    2    0    0  0.17323303698E+02  0.30144923960E+02  0.15924859721E+03  0.20546022946E+03  0.12507988202E+03 0.  0.
         23    2    1    2    0    0 -0.17323303698E+02 -0.30144923960E+02  0.90506334597E+02  0.13579785409E+03  0.95083370157E+02 0.  0.
          5    1    3    3  502    0  0.75828929334E+01  0.74387520027E+02  0.13379733731E+03  0.15333037296E+03  0.41800000000E+01 0.  1.
         -5    1    3    3    0  502  0.97404107642E+01 -0.44242596067E+02  0.25451259900E+02  0.52129856504E+02  0.41800000000E+01 0.  1.
        -11    1    4    4    0    0 -0.24134259665E+02 -0.12198126959E+02  0.10707718506E+03  0.11043903454E+03  0.00000000000E+00 0.  1.
         11    1    4    4    0    0  0.68109559669E+01 -0.17946797001E+02 -0.16570850459E+02  0.25358819545E+02  0.00000000000E+00 0. -1.
</event>
<event>
 8    1  0.4798744E-006  0.1458330E+03  0.7561462E-02  0.1205689E+00
          1   -1    0    0  501    0  0.00000000000E+00  0.00000000000E+00  0.93986776816E+03  0.93986776816E+03  0.00000000000E+00 0. -1.
         -1   -1    0    0    0  501 -0.00000000000E+00 -0.00000000000E+00 -0.30559413574E+02  0.30559413574E+02  0.00000000000E+00 0.  1.
         23    2    1    2    0    0  0.12110308647E+03 -0.97769090562E+01  0.35393753533E+03  0.39454836159E+03  0.12504033435E+03 0.  0.
         23    2    1    2    0    0 -0.12110308647E+03  0.97769090562E+01  0.55537081925E+03  0.57587882014E+03  0.91859257034E+02 0.  0.
          5    1    3    3  502    0  0.61692223675E+02  0.29445864080E+02  0.56808346523E+02  0.88981177830E+02  0.41800000000E+01 0. -1.
         -5    1    3    3    0  502  0.59410862798E+02 -0.39222773137E+02  0.29712918881E+03  0.30556718376E+03  0.41800000000E+01 0. -1.
        -11    1    4    4    0    0 -0.26756838685E+02  0.44006385303E+02  0.16795830772E+03  0.17567721393E+03  0.00000000000E+00 0. -1.
         11    1    4    4    0    0 -0.94346247788E+02 -0.34229476246E+02  0.38741251154E+03  0.40020160621E+03  0.00000000000E+00 0.  1.
</event>
<event>
 8    1  0.4798744E-006  0.1452357E+03  0.7561462E-02  0.1206453E+00
         -1   -1    0    0    0  501 -0.00000000000E+00  0.00000000000E+00  0.20280425248E+03  0.20280425248E+03  0.00000000000E+00 0.  1.
          1   -1    0    0  501    0  0.00000000000E+00 -0.00000000000E+00 -0.12402761853E+03  0.12402761853E+03  0.00000000000E+00 0. -1.
         23    2    1    2    0    0 -0.51080762817E+02 -0.90982536182E+02  0.92783536923E+02  0.18748440685E+03  0.12511815163E+03 0.  0.
         23    2    1    2    0    0  0.51080762817E+02  0.90982536182E+02 -0.14006902969E+02  0.13934746416E+03  0.91293242997E+02 0.  0.
          5    1    3    3  502    0 -0.56368148515E+02  0.93616974268E+01  0.12117441644E+02  0.58560347828E+02  0.41800000000E+01 0. -1.
         -5    1    3    3    0  502  0.52873856984E+01 -0.10034423361E+03  0.80666095279E+02  0.12892405902E+03  0.41800000000E+01 0. -1.
        -11    1    4    4    0    0  0.70443357282E+02  0.47366079362E+02  0.10787099168E+02  0.85569700057E+02  0.00000000000E+00 0.  1.
         11    1    4    4    0    0 -0.19362594466E+02  0.43616456820E+02 -0.24794002137E+02  0.53777764103E+02  0.00000000000E+00 0. -1.
</event>
<event>
 8    1  0.4798744E-006  0.1096087E+03  0.7561462E-02  0.1261296E+00
         -1   -1    0    0    0  501 -0.00000000000E+00  0.00000000000E+00  0.26880831564E+02  0.26880831564E+02  0.00000000000E+00 0.  1.
          1   -1    0    0  501    0  0.00000000000E+00 -0.00000000000E+00 -0.64681193013E+03  0.64681193013E+03  0.00000000000E+00 0. -1.
         23    2    1    2    0    0 -0.27418045095E+02 -0.68993850794E+02 -0.31819775602E+03  0.34986582754E+03  0.12507751475E+03 0.  0.
         23    2    1    2    0    0  0.27418045095E+02  0.68993850794E+02 -0.30173334254E+03  0.32382693415E+03  0.91153566243E+02 0.  0.
          5    1    3    3  502    0 -0.34444254363E+02 -0.80523976193E+02 -0.10763072844E+03  0.13882493834E+03  0.41800000000E+01 0. -1.
         -5    1    3    3    0  502  0.70262092672E+01  0.11530125399E+02 -0.21056702758E+03  0.21104088920E+03  0.41800000000E+01 0. -1.
        -11    1    4    4    0    0 -0.52977605215E+01 -0.20993569123E+02 -0.62473457309E+02  0.66119052316E+02  0.00000000000E+00 0. -1.
         11    1    4    4    0    0  0.32715805617E+02  0.89987419917E+02 -0.23925988523E+03  0.25770788184E+03  0.00000000000E+00 0.  1.
</event>
<event>
 8    1  0.4798744E-006  0.1177739E+03  0.7561462E-02  0.1246815E+00
          2   -1    0    0  501    0  0.00000000000E+00  0.00000000000E+00  0.43179918906E+03  0.43179918906E+03  0.00000000000E+00 0.  1.
         -2   -1    0    0    0  501 -0.00000000000E+00 -0.00000000000E+00 -0.44589673466E+02  0.44589673466E+02  0.00000000000E+00 0. -1.
         23    2    1    2    0    0  0.69515916893E+02  0.38175061771E+02  0.15231935686E+03  0.21245889201E+03  0.12509115188E+03 0.  0.
         23    2    1    2    0    0 -0.69515916893E+02 -0.38175061771E+02  0.23489015874E+03  0.26392997052E+03  0.90530904232E+02 0.  0.
          5    1    3    3  502    0  0.85922208456E+02  0.12840731699E+02  0.15902725979E+03  0.18125852271E+03  0.41800000000E+01 0. -1.
         -5    1    3    3    0  502 -0.16406291563E+02  0.25334330072E+02 -0.67079029348E+01  0.31200369306E+02  0.41800000000E+01 0. -1.
        -11    1    4    4    0    0  0.11232014468E+02  0.16947286810E+02  0.23828329419E+02  0.31323441097E+02  0.00000000000E+00 0. -1.
         11    1    4    4    0    0 -0.80747931361E+02 -0.55122348581E+02  0.21106182932E+03  0.23260652942E+03  0.00000000000E+00 0.  1.
</event>
<event>
 8    1  0.4798744E-006  0.9508643E+02  0.7561462E-02  0.1290982E+00
         -3   -1    0    0    0  501 -0.00000000000E+00  0.00000000000E+00  0.70357907578E+03  0.70357907578E+03  0.00000000000E+00 0.  1.
          3   -1    0    0  501    0  0.00000000000E+00 -0.00000000000E+00 -0.25672319572E+02  0.25672319572E+02  0.00000000000E+00 0. -1.
         23    2    1    2    0    0 -0.45081985688E+02 -0.30254982734E+01  0.55337793256E+03  0.56913693645E+03  0.12509267413E+03 0.  0.
         23    2    1    2    0    0  0.45081985688E+02  0.30254982734E+01  0.12452882365E+03  0.16011445890E+03  0.89931490343E+02 0.  0.
          5    1    3    3  502    0 -0.82226794353E+02 -0.90459650407E+01  0.47411566333E+03  0.48129638457E+03  0.41800000000E+01 0. -1.
         -5    1    3    3    0  502  0.37144808666E+02  0.60204667673E+01  0.79262269232E+02  0.87840551880E+02  0.41800000000E+01 0. -1.
        -11    1    4    4    0    0  0.81609394526E+01  0.25149994901E+02  0.11229676130E+03  0.11536761146E+03  0.00000000000E+00 0.  1.
         11    1    4    4    0    0  0.36921046235E+02 -0.22124496627E+02  0.12232062352E+02  0.44746847436E+02  0.00000000000E+00 0. -1.
</event>
<event>
 7    1  0.4798744E-006  0.1392839E+03  0.7561462E-02  0.1214296E+00
         -4   -1    0    0    0  501 -0.00000000000E+00  0.00000000000E+00  0.35918411160E+03  0.35918411160E+03  0.00000000000E+00 0.  1.
          4   -1    0    0  501    0  0.00000000000E+00 -0.00000000000E+00 -0.11778233533E+03  0.11778233533E+03  0.00000000000E+00 0. -1.
         23    2    1    2    0    0 -0.11142162278E+03 -0.20990657168E+01 -0.23960703166E+02  0.14576960486E+03  0.90859662696E+02 0.  0.
          5    1    1    2  502    0  0.11213744262E+03  0.22168391277E+02  0.68620629516E+02  0.13338855575E+03  0.41800000000E+01 0. -1.
         -5    1    1    2    0  502 -0.71581984064E+00 -0.20069325560E+02  0.19674184992E+03  0.19780828632E+03  0.41800000000E+01 0.  1.
        -11    1    3    3    0    0 -0.12450471848E+03 -0.14868516984E+02 -0.18947708557E+02  0.12681290700E+03  0.00000000000E+00 0. -1.
         11    1    3    3    0    0  0.13083095704E+02  0.12769451267E+02 -0.50129946087E+01  0.18956697861E+02  0.00000000000E+00 0.  1.
</event>
<event>
 8    1  0.4798744E-006  0.8836128E+02  0.7561462E-02  0.1306869E+00
          2   -1    0    0  501    0  0.00000000000E+00  0.00000000000E+00  0.13003348478E+03  0.13003348478E+03  0.00000000000E+00 0. -1.
         -2   -1    0    0    0  501 -0.00000000000E+00 -0.00000000000E+00 -0.27412985529E+03  0.27412985529E+03  0.00000000000E+00 0.  1.
         23    2    1    2    0    0  0.37326923666E+02  0.78936102367E+01 -0.24005456021E+03  0.27336716007E+03  0.12509118280E+03 0.  0.
         23    2    1    2    0    0 -0.37326923666E+02 -0.78936102367E+01  0.95958189701E+02  0.13079618000E+03  0.80274891592E+02 0.  0.
          5    1    3    3  502    0  0.41590396217E+02 -0.39255568416E+02 -0.20868973614E+03  0.21642467299E+03  0.41800000000E+01 0. -1.
         -5    1    3    3    0  502 -0.42634725517E+01  0.47149178652E+02 -0.31364824070E+02  0.56942487079E+02  0.41800000000E+01 0. -1.
        -11    1    4    4    0    0 -0.12873198612E+02  0.26611719696E+02  0.43280710728E+01  0.29876998961E+02  0.00000000000E+00 0.  1.
         11    1    4    4    0    0 -0.24453725054E+02 -0.34505329933E+02  0.91630118628E+02  0.10091918104E+03  0.00000000000E+00 0. -1.
</event>
<event>
 8    1  0.4798744E-006  0.9504809E+02  0.7561462E-02  0.1291068E+00
          1   -1    0    0  501    0  0.00000000000E+00  0.00000000000E+00  0.63491720001E+02  0.63491720001E+02  0.00000000000E+00 0. -1.
         -1   -1    0    0    0  501 -0.00000000000E+00 -0.00000000000E+00 -0.34655473742E+03  0.34655473742E+03  0.00000000000E+00 0.  1.
         23    2    1    2    0    0 -0.56794664842E+01 -0.51142036224E+01 -0.29806452841E+03  0.31851976629E+03  0.11204448670E+03 0.  0.
         23    2    1    2    0    0  0.56794664842E+01  0.51142036224E+01  0.15001510993E+02  0.91526691133E+02  0.89964873364E+02 0.  0.
          5    1    3    3  502    0  0.46769662333E+02 -0.50735264589E+01 -0.69851450881E+02  0.84319864656E+02  0.41800000000E+01 0. -1.
         -5    1    3    3    0  502 -0.52449128817E+02 -0.40677163464E-01 -0.22821307753E+03  0.23419990163E+03  0.41800000000E+01 0.  1.
        -11    1    4    4    0    0 -0.42108643068E+02 -0.67362518581E+00  0.83176050435E+01  0.42927545301E+02  0.00000000000E+00 0.  1.
         11    1    4    4    0    0  0.47788109552E+02  0.57878288082E+01  0.66839059493E+01  0.48599145832E+02  0.00000000000E+00 0. -1.
</event>
<event>
 7    1  0.4798744E-006  0.1081818E+03  0.7561462E-02  0.1263974E+00
         -1   -1    0    0    0  501 -0.00000000000E+00  0.00000000000E+00  0.55854415553E+02  0.55854415553E+02  0.00000000000E+00 0. -1.
          1   -1    0    0  501    0  0.00000000000E+00 -0.00000000000E+00 -0.26628444501E+03  0.26628444501E+03  0.00000000000E+00 0.  1.
         23    2    1    2    0    0 -0.66086977973E+02  0.33929948714E+02 -0.71586771119E+02  0.16216104948E+03  0.12511119091E+03 0.  0.
          5    1    3    3  502    0 -0.83142379649E+02 -0.17302972721E+02 -0.19960038064E+02  0.87337985311E+02  0.41800000000E+01 0. -1.
         -5    1    3    3    0  502  0.17055401676E+02  0.51232921435E+02 -0.51626733054E+02  0.74823064164E+02  0.41800000000E+01 0. -1.
        -11    1    1    2    0    0  0.24774791992E+02 -0.24417540928E+02 -0.81949419602E+02  0.89026479187E+02  0.00000000000E+00 0.  1.
         11    1    1    2    0    0  0.41312185982E+02 -0.95124077861E+01 -0.56893838733E+02  0.70951331899E+02  0.00000000000E+00 0. -1.
</event>
<event>
 8    1  0.4798744E-006  0.1265399E+03  0.7561462E-02  0.1232682E+00
         -2   -1    0    0    0  501 -0.00000000000E+00  0.00000000000E+00  0.12261646167E+03  0.12261646167E+03  0.00000000000E+00 0.  1.
          2   -1    0    0  501    0  0.00000000000E+00 -0.00000000000E+00 -0.15018818763E+03  0.15018818763E+03  0.00000000000E+00 0. -1.
         23    2    1    2    0    0 -0.78806768531E+02  0.43840466632E+01  0.10227085237E+02  0.14826288664E+03  0.12509022205E+03 0.  0.
         23    2    1    2    0    0  0.78806768531E+02 -0.43840466632E+01 -0.37798811198E+02  0.12454176266E+03  0.88612492845E+02 0.  0.
          5    1    3    3  502    0  0.89740144431E+01  0.40235656638E+02 -0.23380033119E+02  0.47576668116E+02  0.41800000000E+01 0.  1.
         -5    1    3    3    0  502 -0.87780782974E+02 -0.35851609975E+02  0.33607118356E+02  0.10068621853E+03  0.41800000000E+01 0.  1.
        -11    1    4    4    0    0  0.55898190546E+02 -0.43886383757E+02 -0.11939280021E+02  0.72063644045E+02  0.00000000000E+00 0.  1.
         11    1    4    4    0    0  0.22908577985E+02  0.39502337094E+02 -0.25859531177E+02  0.52478118620E+02  0.00000000000E+00 0. -1.
</event>
<event>
 8    1  0.4798744E-006  0.2171041E+03  0.7561462E-02  0.1136061E+00
          1   -1    0    0  501    0  0.00000000000E+00  0.00000000000E+00  0.84781732768E+03  0.84781732768E+03  0.00000000000E+00 0. -1.
         -1   -1    0    0    0  501 -0.00000000000E+00 -0.00000000000E+00 -0.58967333743E+02  0.58967333743E+02  0.00000000000E+00 0.  1.
         23    2    1    2    0    0  0.13909983219E+03 -0.13202753681E+03  0.48091381038E+03  0.53264050134E+03  0.12509107425E+03 0.  0.
         23    2    1    2    0    0 -0.13909983219E+03  0.13202753681E+03  0.30793618356E+03  0.37414416009E+03  0.91537563847E+02 0.  0.
          5    1    3    3  502    0  0.35472682388E+02 -0.11267708364E+03  0.31019590893E+03  0.33195392856E+03  0.41800000000E+01 0.  1.
         -5    1    3    3    0  502  0.10362714980E+03 -0.19350453165E+02  0.17071790146E+03  0.20068657277E+03  0.41800000000E+01 0.  1.
        -11    1    4    4    0    0 -0.54945443887E+01  0.57019270979E+02  0.10797583108E+03  0.12222997741E+03  0.00000000000E+00 0.  1.
         11    1    4    4    0    0 -0.13360528780E+03  0.75008265828E+02  0.19996035248E+03  0.25191418268E+03  0.00000000000E+00 0. -1.
</event>
<event>
 8    1  0.4798744E-006  0.1577233E+03  0.7561462E-02  0.1191291E+00
         -2   -1    0    0    0  501 -0.00000000000E+00  0.00000000000E+00  0.10241570563E+03  0.10241570563E+03  0.00000000000E+00 0.  1.
          2   -1    0    0  501    0  0.00000000000E+00 -0.00000000000E+00 -0.35851837942E+03  0.35851837942E+03  0.00000000000E+00 0. -1.
         23    2    1    2    0    0 -0.25874501049E+02 -0.13706082681E+03 -0.46337926672E+02  0.19300100657E+03  0.12508806913E+03 0.  0.
         23    2    1    2    0    0  0.25874501049E+02  0.13706082681E+03 -0.20976474712E+03  0.26793307849E+03  0.91278285268E+02 0.  0.
          5    1    3    3  502    0  0.71169607345E+01 -0.12595525285E+03 -0.75773249617E+02  0.14722239846E+03  0.41800000000E+01 0. -1.
         -5    1    3    3    0  502 -0.32991461783E+02 -0.11105573960E+02  0.29435322945E+02  0.45778608110E+02  0.41800000000E+01 0. -1.
        -11    1    4    4    0    0  0.46812813233E+02  0.72595883848E+02 -0.65059929861E+02  0.10814063209E+03  0.00000000000E+00 0.  1.
         11    1    4    4    0    0 -0.20938312184E+02  0.64464942966E+02 -0.14470481726E+03  0.15979244640E+03  0.00000000000E+00 0. -1.
</event>
<event>
 8    1  0.4798744E-006  0.1214888E+03  0.7561462E-02  0.1240661E+00
         -1   -1    0    0    0  501 -0.00000000000E+00  0.00000000000E+00  0.13337758963E+03  0.13337758963E+03  0.00000000000E+00 0.  1.
          1   -1    0    0  501    0  0.00000000000E+00 -0.00000000000E+00 -0.15433973659E+03  0.15433973659E+03  0.00000000000E+00 0. -1.
         23    2    1    2    0    0 -0.60714643684E+02 -0.13667434852E+02  0.55727322135E+02  0.15042784656E+03  0.12509970366E+03 0.  0.
         23    2    1    2    0    0  0.60714643684E+02  0.13667434852E+02 -0.76689469101E+02  0.13728947966E+03  0.95362780065E+02 0.  0.
          5    1    3    3  502    0  0.28371764167E+02 -0.37653366320E+02  0.20598762489E+02  0.51618934639E+02  0.41800000000E+01 0.  1.
         -5    1    3    3    0  502 -0.89086407851E+02  0.23985931467E+02  0.35128559646E+02  0.98808911921E+02  0.41800000000E+01 0.  1.
        -11    1    4    4    0    0  0.14679846570E+02 -0.33995107571E+02 -0.57341782432E+02  0.68258664260E+02  0.00000000000E+00 0.  1.
         11    1    4    4    0    0  0.46034797113E+02  0.47662542424E+02 -0.19347686669E+02  0.69030815402E+02  0.00000000000E+00 0. -1.
</event>
<event>
 8    1  0.4798744E-006  0.1177669E+03  0.7561462E-02  0.1246827E+00
          2   -1    0    0  501    0  0.00000000000E+00  0.00000000000E+00  0.61524612776E+02  0.61524612776E+02  0.00000000000E+00 0. -1.
         -2   -1    0    0    0  501 -0.00000000000E+00 -0.00000000000E+00 -0.40015725126E+03  0.40015725126E+03  0.00000000000E+00 0.  1.
         23    2    1    2    0    0 -0.49342760227E+02 -0.59839447817E+02 -0.30202216120E+03  0.33596551612E+03  0.12505988431E+03 0.  0.
         23    2    1    2    0    0  0.49342760227E+02  0.59839447817E+02 -0.36610477279E+02  0.12571634791E+03  0.91917384560E+02 0.  0.
          5    1    3    3  502    0 -0.66838017145E+02 -0.87470381818E+02 -0.26127842618E+03  0.28355295205E+03  0.41800000000E+01 0. -1.
         -5    1    3    3    0  502  0.17495256918E+02  0.27630934002E+02 -0.40743735022E+02  0.52412564066E+02  0.41800000000E+01 0. -1.
        -11    1    4    4    0    0  0.11591806853E+02 -0.84682196747E+01 -0.44987813021E+02  0.47222706943E+02  0.00000000000E+00 0.  1.
         11    1    4    4    0    0  0.37750953374E+02  0.68307667491E+02  0.83773357420E+01  0.78493640971E+02  0.00000000000E+00 0. -1.
</event>
<event>
 8    1  0.4798744E-006  0.1174224E+03  0.7561462E-02  0.1247411E+00
          2   -1    0    0  501    0  0.00000000000E+00  0.00000000000E+00  0.23630361889E+03  0.23630361889E+03  0.00000000000E+00 0.  1.
         -2   -1    0    0    0  501 -0.00000000000E+00 -0.00000000000E+00 -0.77225526359E+02  0.77225526359E+02  0.00000000000E+00 0. -1.
         23    2    1    2    0    0 -0.71907703202E+02 -0.70686270996E+00  0.46386492549E+02  0.15156004788E+03  0.12509006350E+03 0.  0.
         23    2    1    2    0    0  0.71907703202E+02  0.70686270996E+00  0.11269159999E+03  0.16196909737E+03  0.91451486384E+02 0.  0.
          5    1    3    3  502    0 -0.17980215288E+02 -0.56520772343E+02 -0.28964093999E+01  0.59529382959E+02  0.41800000000E+01 0.  1.
         -5    1    3    3    0  502 -0.53927487914E+02  0.55813909633E+02  0.49282901948E+02  0.92030664921E+02  0.41800000000E+01 0.  1.
        -11    1    4    4    0    0  0.80217635386E+02 -0.13362387716E+02  0.11926845713E+03  0.14435507369E+03  0.00000000000E+00 0.  1.
         11    1    4    4    0    0 -0.83099321840E+01  0.14069250426E+02 -0.65768571476E+01  0.17614023685E+02  0.00000000000E+00 0. -1.
</event>
<event>
 8    1  0.4798744E-006  0.1226198E+03  0.7561462E-02  0.1238837E+00
          2   -1    0    0  501    0  0.00000000000E+00  0.00000000000E+00  0.62524719936E+03  0.62524719936E+03  0.00000000000E+00 0. -1.
         -2   -1    0    0    0  501 -0.00000000000E+00 -0.00000000000E+00 -0.35441731537E+02  0.35441731537E+02  0.00000000000E+00 0.  1.
         23    2    1    2    0    0  0.38239116909E+02  0.65605819412E+02  0.17092335966E+03  0.22501124208E+03  0.12509560578E+03 0.  0.
         23    2    1    2    0    0 -0.38239116909E+02 -0.65605819412E+02  0.41888210817E+03  0.43567768881E+03  0.92663231029E+02 0.  0.
          5    1    3    3  502    0  0.60834528583E+02  0.84427901006E+02  0.86069380377E+02  0.13510855256E+03  0.41800000000E+01 0. -1.
         -5    1    3    3    0  502 -0.22595411674E+02 -0.18822081594E+02  0.84853979280E+02  0.89902689525E+02  0.41800000000E+01 0. -1.
        -11    1    4    4    0    0 -0.63484459857E+02 -0.38030829369E+02  0.34531664602E+03  0.35315748136E+03  0.00000000000E+00 0. -1.
         11    1    4    4    0    0  0.25245342948E+02 -0.27574990043E+02  0.73565462149E+02  0.82520207450E+02  0.00000000000E+00 0.  1.
</event>
<event>
 8    1  0.4798744E-006  0.1894465E+03  0.7561462E-02  0.1158961E+00
         -1   -1    0    0    0  501 -0.00000000000E+00  0.00000000000E+00  0.11149929699E+03  0.11149929699E+03  0.00000000000E+00 0.  1.
          1   -1    0    0  501    0  0.00000000000E+00 -0.00000000000E+00 -0.65600617595E+03  0.65600617595E+03  0.00000000000E+00 0. -1.
         23    2    1    2    0    0 -0.12944053670E+03 -0.12629188315E+03 -0.39269883395E+02  0.22336915824E+03  0.12508862787E+03 0.  0.
         23    2    1    2    0    0  0.12944053670E+03  0.12629188315E+03 -0.50523699556E+03  0.54413631469E+03  0.90085598141E+02 0.  0.
          5    1    3    3  502    0 -0.39672392079E+02 -0.85464851233E+02 -0.72778585318E+02  0.11913158427E+03  0.41800000000E+01 0.  1.
         -5    1    3    3    0  502 -0.89768144617E+02 -0.40827031919E+02  0.33508701923E+02  0.10423757397E+03  0.41800000000E+01 0.  1.
        -11    1    4    4    0    0  0.11600542700E+03  0.88938516126E+02 -0.28447019447E+03  0.31982903290E+03  0.00000000000E+00 0.  1.
         11    1    4    4    0    0  0.13435109695E+02  0.37353367027E+02 -0.22076680109E+03  0.22430728179E+03  0.00000000000E+00 0. -1.
</event>
<event>
 8    1  0.4798744E-006  0.1159364E+03  0.7561462E-02  0.1249955E+00
         -2   -1    0    0    0  501 -0.00000000000E+00  0.00000000000E+00  0.78578745274E+02  0.78578745274E+02  0.00000000000E+00 0.  1.
          2   -1    0    0  501    0  0.00000000000E+00 -0.00000000000E+00 -0.30312943949E+03  0.30312943949E+03  0.00000000000E+00 0. -1.
         23    2    1    2    0    0 -0.77851079548E+02  0.11806400959E+01 -0.26884108067E+02  0.14977499653E+03  0.12509040659E+03 0.  0.
         23    2    1    2    0    0  0.77851079548E+02 -0.11806400959E+01 -0.19766658615E+03  0.23193318824E+03  0.93052351008E+02 0.  0.
          5    1    3    3  502    0 -0.39871949423E+02 -0.51082279019E+02  0.22098070049E+02  0.68592774258E+02  0.41800000000E+01 0.  1.
         -5    1    3    3    0  502 -0.37979130124E+02  0.52262919115E+02 -0.48982178116E+02  0.81182222268E+02  0.41800000000E+01 0.  1.
        -11    1    4    4    0    0  0.37647804031E+02 -0.33669277882E+02 -0.35518987437E+02  0.61746059713E+02  0.00000000000E+00 0.  1.
         11    1    4    4    0    0  0.40203275517E+02  0.32488637786E+02 -0.16214759871E+03  0.17018712852E+03  0.00000000000E+00 0. -1.
</event>
<event>
 8    1  0.4798744E-006  0.1173157E+03  0.7561462E-02  0.1247592E+00
         -1   -1    0    0    0  501 -0.00000000000E+00  0.00000000000E+00  0.93480147384E+02  0.93480147384E+02  0.00000000000E+00 0.  1.
          1   -1    0    0  501    0  0.00000000000E+00 -0.00000000000E+00 -0.19191524690E+03  0.19191524690E+03  0.00000000000E+00 0. -1.
         23    2    1    2    0    0 -0.71059094012E+02  0.10984483821E+02 -0.18745770213E+02  0.14549574971E+03  0.12509018969E+03 0.  0.
         23    2    1    2    0    0  0.71059094012E+02 -0.10984483821E+02 -0.79689329298E+02  0.13989964457E+03  0.89729970582E+02 0.  0.
          5    1    3    3  502    0 -0.69321121700E+02  0.51089153965E+02  0.21123139834E+02  0.88764739638E+02  0.41800000000E+01 0. -1.
         -5    1    3    3    0  502 -0.17379723119E+01 -0.40104670145E+02 -0.39868910047E+02  0.56731010070E+02  0.41800000000E+01 0. -1.
        -11    1    4    4    0    0  0.84714871424E+02 -0.25162059664E+02 -0.43035293376E+02  0.98294329251E+02  0.00000000000E+00 0.  1.
         11    1    4    4    0    0 -0.13655777412E+02  0.14177575843E+02 -0.36654035923E+02  0.41605315321E+02  0.00000000000E+00 0. -1.
</event>
<event>
 8    1  0.4798744E-006  0.1491703E+03  0.7561462E-02  0.1201496E+00
         -1   -1    0    0    0  501 -0.00000000000E+00  0.00000000000E+00  0.29169477396E+03  0.29169477396E+03  0.00000000000E+00 0.  1.
          1   -1    0    0  501    0  0.00000000000E+00 -0.00000000000E+00 -0.89595614930E+02  0.89595614930E+02  0.00000000000E+00 0. -1.
         23    2    1    2    0    0  0.36175681499E+02  0.10570775361E+03  0.15825432193E+03  0.23060054818E+03  0.12509745523E+03 0.  0.
         23    2    1    2    0    0 -0.36175681499E+02 -0.10570775361E+03  0.43844837099E+02  0.15068984071E+03  0.91116679304E+02 0.  0.
          5    1    3    3  502    0 -0.39435872258E+02  0.88908484735E+01  0.63544609875E+02  0.75429603283E+02  0.41800000000E+01 0. -1.
         -5    1    3    3    0  502  0.75611553758E+02  0.96816905138E+02  0.94709712056E+02  0.15517094490E+03  0.41800000000E+01 0. -1.
        -11    1    4    4    0    0 -0.58113231780E+02 -0.57174437737E+02 -0.28214693596E+00  0.81523883895E+02  0.00000000000E+00 0. -1.
         11    1    4    4    0    0  0.21937550280E+02 -0.48533315874E+02  0.44126984035E+02  0.69165956815E+02  0.00000000000E+00 0.  1.
</event>
<event>
 8    1  0.4798744E-006  0.9814277E+02  0.7561462E-02  0.1284251E+00
         -4   -1    0    0    0  501 -0.00000000000E+00  0.00000000000E+00  0.56270030755E+03  0.56270030755E+03  0.00000000000E+00 0.  1.
          4   -1    0    0  501    0  0.00000000000E+00 -0.00000000000E+00 -0.21654245359E+02  0.21654245359E+02  0.00000000000E+00 0. -1.
         23    2    1    2    0    0 -0.21357721368E+02 -0.73699144616E+01  0.33910641814E+03  0.36215003451E+03  0.12509603018E+03 0.  0.
         23    2    1    2    0    0  0.21357721368E+02  0.73699144616E+01  0.20193964404E+03  0.22220451840E+03  0.89915294914E+02 0.  0.
          5    1    3    3  502    0  0.45793092283E+02  0.13289706661E+01  0.22283762819E+03  0.22753649027E+03  0.41800000000E+01 0. -1.
         -5    1    3    3    0  502 -0.67150813651E+02 -0.86988851277E+01  0.11626878995E+03  0.13461354424E+03  0.41800000000E+01 0. -1.
        -11    1    4    4    0    0 -0.18638370688E+02  0.30864668854E+02  0.14147074750E+03  0.14599311300E+03  0.00000000000E+00 0.  1.
         11    1    4    4    0    0  0.39996092055E+02 -0.23494754393E+02  0.60468896543E+02  0.76211405399E+02  0.00000000000E+00 0. -1.
</event>
<event>
 8    1  0.4798744E-006  0.8347219E+02  0.7561462E-02  0.1319477E+00
          1   -1    0    0  501    0  0.00000000000E+00  0.00000000000E+00  0.74678756912E+03  0.74678756912E+03  0.00000000000E+00 0. -1.
         -1   -1    0    0    0  501 -0.00000000000E+00 -0.00000000000E+00 -0.16308746971E+02  0.16308746971E+02  0.00000000000E+00 0.  1.
         23    2    1    2    0    0 -0.49569168314E+01  0.19572192222E+02  0.42107928586E+03  0.43973166112E+03  0.12509407291E+03 0.  0.
         23    2    1    2    0    0  0.49569168314E+01 -0.19572192222E+02  0.30939953629E+03  0.32336465497E+03  0.91809505477E+02 0.  0.
          5    1    3    3  502    0 -0.25528119268E+01  0.52322778561E+02  0.72278710615E+02  0.89363719781E+02  0.41800000000E+01 0. -1.
         -5    1    3    3    0  502 -0.24041049045E+01 -0.32750586339E+02  0.34880057524E+03  0.35036794134E+03  0.41800000000E+01 0. -1.
        -11    1    4    4    0    0 -0.49611102567E+01 -0.49506576363E+02  0.26028658700E+03  0.26499928508E+03  0.00000000000E+00 0. -1.
         11    1    4    4    0    0  0.99180270881E+01  0.29934384142E+02  0.49112949288E+02  0.58365369896E+02  0.00000000000E+00 0.  1.
</event>
<event>
 7    1  0.4798744E-006  0.8632871E+02  0.7561462E-02  0.1311994E+00
         -1   -1    0    0    0  501 -0.00000000000E+00  0.00000000000E+00  0.19643223769E+03  0.19643223769E+03  0.00000000000E+00 0.  1.
          1   -1    0    0  501    0  0.00000000000E+00 -0.00000000000E+00 -0.99905475332E+02  0.99905475332E+02  0.00000000000E+00 0. -1.
         23    2    1    2    0    0  0.45959753505E+02  0.96869651273E+01 -0.10603921097E+02  0.79523914208E+02  0.63288810643E+02 0.  0.
          5    1    1    2  502    0 -0.19399702583E+02 -0.46072498835E+02 -0.39190236319E+02  0.63658233026E+02  0.41800000000E+01 0. -1.
         -5    1    1    2    0  502 -0.26560050922E+02  0.36385533708E+02  0.14632091978E+03  0.15315556579E+03  0.41800000000E+01 0.  1.
        -11    1    3    3    0    0 -0.11637094567E+02  0.15476970533E+02  0.41117794474E+01  0.19795588323E+02  0.00000000000E+00 0. -1.
         11    1    3    3    0    0  0.57596848072E+02 -0.57900054052E+01 -0.14715700545E+02  0.59728325885E+02  0.00000000000E+00 0.  1.
</event>
<event>
 8    1  0.4798744E-006  0.1571444E+03  0.7561462E-02  0.1191959E+00
         -2   -1    0    0    0  501 -0.00000000000E+00  0.00000000000E+00  0.60990328215E+02  0.60990328215E+02  0.00000000000E+00 0.  1.
          2   -1    0    0  501    0  0.00000000000E+00 -0.00000000000E+00 -0.53491993290E+03  0.53491993290E+03  0.00000000000E+00 0. -1.
         23    2    1    2    0    0  0.46662874151E+02 -0.13497025237E+03 -0.21310219884E+03  0.28539982480E+03  0.12508445146E+03 0.  0.
         23    2    1    2    0    0 -0.46662874151E+02  0.13497025237E+03 -0.26082740584E+03  0.31051043631E+03  0.89394645102E+02 0.  0.
          5    1    3    3  502    0  0.60374593549E+02 -0.13716995711E+03 -0.22236826953E+03  0.26818987374E+03  0.41800000000E+01 0.  1.
         -5    1    3    3    0  502 -0.13711719397E+02  0.21997047422E+01  0.92660706878E+01  0.17209951068E+02  0.41800000000E+01 0.  1.
        -11    1    4    4    0    0 -0.48719385926E+02  0.72464344371E+02 -0.77296078735E+02  0.11661622339E+03  0.00000000000E+00 0.  1.
         11    1    4    4    0    0  0.20565117750E+01  0.62505907995E+02 -0.18353132710E+03  0.19389421292E+03  0.00000000000E+00 0. -1.
</event>
<event>
 8    1  0.4798744E-006  0.9807702E+02  0.7561462E-02  0.1284392E+00
         -1   -1    0    0    0  501 -0.00000000000E+00  0.00000000000E+00  0.31239701151E+03  0.31239701151E+03  0.00000000000E+00 0.  1.
          1   -1    0    0  501    0  0.00000000000E+00 -0.00000000000E+00 -0.38821923320E+02  0.38821923320E+02  0.00000000000E+00 0. -1.
         23    2    1    2    0    0  0.12045329816E+02  0.11495119022E+02  0.17677161940E+03  0.21719344720E+03  0.12509020885E+03 0.  0.
         23    2    1    2    0    0 -0.12045329816E+02 -0.11495119022E+02  0.96803468791E+02  0.13402548763E+03  0.91184933143E+02 0.  0.
          5    1    3    3  502    0  0.58699884152E+02 -0.25520202835E+02  0.11227890932E+03  0.12930964013E+03  0.41800000000E+01 0. -1.
         -5    1    3    3    0  502 -0.46654554336E+02  0.37015321857E+02  0.64492710082E+02  0.87883807076E+02  0.41800000000E+01 0. -1.
        -11    1    4    4    0    0  0.12445871695E+02  0.25249470959E+02  0.83178223709E+02  0.87812598215E+02  0.00000000000E+00 0.  1.
         11    1    4    4    0    0 -0.24491201512E+02 -0.36744589981E+02  0.13625245082E+02  0.46212889413E+02  0.00000000000E+00 0. -1.
</event>
<event>
 8    1  0.4798744E-006  0.2886071E+03  0.7561462E-02  0.1091079E+00
         -1   -1    0    0    0  501 -0.00000000000E+00  0.00000000000E+00  0.18259016987E+03  0.18259016987E+03  0.00000000000E+00 0.  1.
          1   -1    0    0  501    0  0.00000000000E+00 -0.00000000000E+00 -0.50497397952E+03  0.50497397952E+03  0.00000000000E+00 0. -1.
         23    2    1    2    0    0  0.21470278305E+02 -0.28150512944E+03 -0.13848990902E+03  0.33842676007E+03  0.12508839387E+03 0.  0.
         23    2    1    2    0    0 -0.21470278305E+02  0.28150512944E+03 -0.18389390063E+03  0.34913738932E+03  0.91508683658E+02 0.  0.
          5    1    3    3  502    0 -0.22545557487E+02 -0.13380496020E+03 -0.12349631650E+03  0.18352351927E+03  0.41800000000E+01 0. -1.
         -5    1    3    3    0  502  0.44015835792E+02 -0.14770016924E+03 -0.14993592520E+02  0.15490324080E+03  0.41800000000E+01 0. -1.
        -11    1    4    4    0    0  0.17339521228E+02  0.62265343589E+02 -0.81647041562E+02  0.10413391092E+03  0.00000000000E+00 0. -1.
         11    1    4    4    0    0 -0.38809799533E+02  0.21923978585E+03 -0.10224685907E+03  0.24500347840E+03  0.00000000000E+00 0.  1.
</event>
<event>
 8    1  0.4798744E-006  0.1164317E+03  0.7561462E-02  0.1249102E+00
         -2   -1    0    0    0  501 -0.00000000000E+00  0.00000000000E+00  0.17478603238E+03  0.17478603238E+03  0.00000000000E+00 0. -1.
          2   -1    0    0  501    0  0.00000000000E+00 -0.00000000000E+00 -0.25250125798E+03  0.25250125798E+03  0.00000000000E+00 0.  1.
         23    2    1    2    0    0  0.31250187533E+02 -0.96282276714E+02  0.11028966215E+03  0.19508397924E+03  0.12508836217E+03 0.  0.
         23    2    1    2    0    0 -0.31250187533E+02  0.96282276714E+02 -0.18800488776E+03  0.23220331111E+03  0.91245212701E+02 0.  0.
          5    1    3    3  502    0  0.43632068910E+02 -0.29233272691E+02 -0.12881938944E+02  0.54237979503E+02  0.41800000000E+01 0.  1.
         -5    1    3    3    0  502 -0.12381881377E+02 -0.67049004023E+02  0.12317160110E+03  0.14084599974E+03  0.41800000000E+01 0.  1.
        -11    1    4    4    0    0 -0.87949002412E+01  0.87203020286E+02 -0.18860461187E+03  0.20797455766E+03  0.00000000000E+00 0.  1.
         11    1    4    4    0    0 -0.22455287292E+02  0.90792564275E+01  0.59972411219E+00  0.24228753448E+02  0.00000000000E+00 0. -1.
</event>
<event>
 8    1  0.4798744E-006  0.1181084E+03  0.7561462E-02  0.1246251E+00
          3   -1    0    0  501    0  0.00000000000E+00  0.00000000000E+00  0.35001009377E+03  0.35001009377E+03  0.00000000000E+00 0. -1.
         -3   -1    0    0    0  501 -0.00000000000E+00 -0.00000000000E+00 -0.46300184873E+02  0.46300184873E+02  0.00000000000E+00 0.  1.
         23    2    1    2    0    0  0.64531402420E+02 -0.29581672165E+02  0.16724220447E+03  0.22058532727E+03  0.12509418221E+03 0.  0.
         23    2    1    2    0    0 -0.64531402420E+02  0.29581672165E+02  0.13646770443E+03  0.17572495138E+03  0.84949673094E+02 0.  0.
          5    1    3    3  502    0 -0.44289926048E+01 -0.63143032764E+02  0.10042183978E+03  0.11877995145E+03  0.41800000000E+01 0.  1.
         -5    1    3    3    0  502  0.68960395025E+02  0.33561360599E+02  0.66820364690E+02  0.10180537581E+03  0.41800000000E+01 0.  1.
        -11    1    4    4    0    0 -0.59097076051E+02 -0.65285223800E+01  0.12333531610E+03  0.13691853855E+03  0.00000000000E+00 0. -1.
         11    1    4    4    0    0 -0.54343263690E+01  0.36110194545E+02  0.13132388329E+02  0.38806412825E+02  0.00000000000E+00 0.  1.
</event>
<event>
 8    1  0.4798744E-006  0.1081808E+03  0.7561462E-02  0.1263976E+00
          2   -1    0    0  501    0  0.00000000000E+00  0.00000000000E+00  0.79031794188E+02  0.79031794188E+02  0.00000000000E+00 0.  1.
         -2   -1    0    0    0  501 -0.00000000000E+00 -0.00000000000E+00 -0.18123738207E+03  0.18123738207E+03  0.00000000000E+00 0. -1.
         23    2    1    2    0    0 -0.37327222782E+02  0.38871704373E+01 -0.95436800083E+02  0.16174988014E+03  0.12508560773E+03 0.  0.
         23    2    1    2    0    0  0.37327222782E+02 -0.38871704373E+01 -0.67687877955E+01  0.98519296113E+02  0.90839438372E+02 0.  0.
          5    1    3    3  502    0 -0.58649167623E+02  0.48813317922E+02 -0.77175047845E+02  0.10860904787E+03  0.41800000000E+01 0. -1.
         -5    1    3    3    0  502  0.21321944841E+02 -0.44926147485E+02 -0.18261752238E+02  0.53140832271E+02  0.41800000000E+01 0. -1.
        -11    1    4    4    0    0  0.49751106177E+01  0.37318752488E+02 -0.22449588694E+02  0.43834062617E+02  0.00000000000E+00 0.  1.
         11    1    4    4    0    0  0.32352112165E+02 -0.41205922926E+02  0.15680800899E+02  0.54685233496E+02  0.00000000000E+00 0. -1.
</event>
<event>
 7    1  0.4798744E-006  0.5505018E+02  0.7561462E-02  0.1419862E+00
          1   -1    0    0  501    0  0.00000000000E+00  0.00000000000E+00  0.33028780028E+03  0.33028780028E+03  0.00000000000E+00 0. -1.
         -1   -1    0    0    0  501 -0.00000000000E+00 -0.00000000000E+00 -0.45262636157E+02  0.45262636157E+02  0.00000000000E+00 0.  1.
         23    2    1    2    0    0 -0.99117499664E+01  0.64861312699E+01  0.93019096210E+02  0.13072484516E+03  0.91083040117E+02 0.  0.
          5    1    1    2  502    0 -0.11155272287E+02  0.10761433888E+02  0.21084406025E+03  0.21145434188E+03  0.41800000000E+01 0. -1.
         -5    1    1    2    0  502  0.21067022253E+02 -0.17247565158E+02 -0.18837992338E+02  0.33371249389E+02  0.41800000000E+01 0.  1.
        -11    1    3    3    0    0  0.25899741758E+02  0.14670465013E+02  0.88910668677E+02  0.93761005602E+02  0.00000000000E+00 0. -1.
         11    1    3    3    0    0 -0.35811491724E+02 -0.81843337434E+01  0.41084275329E+01  0.36963839561E+02  0.00000000000E+00 0.  1.
</event>
<event>
 8    1  0.4798744E-006  0.1089793E+03  0.7561462E-02  0.1262472E+00
         -1   -1    0    0    0  501 -0.00000000000E+00  0.00000000000E+00  0.44660533970E+03  0.44660533970E+03  0.00000000000E+00 0.  1.
          1   -1    0    0  501    0  0.00000000000E+00 -0.00000000000E+00 -0.39982418285E+02  0.39982418285E+02  0.00000000000E+00 0. -1.
         23    2    1    2    0    0  0.43336783551E+02  0.24574372629E+02  0.33852568705E+03  0.36432040987E+03  0.12509094154E+03 0.  0.
         23    2    1    2    0    0 -0.43336783551E+02 -0.24574372629E+02  0.68097234366E+02  0.12226734812E+03  0.88487821133E+02 0.  0.
          5    1    3    3  502    0 -0.41131024992E+02  0.49953784589E+01  0.63645003593E+02  0.76058358550E+02  0.41800000000E+01 0.  1.
         -5    1    3    3    0  502  0.84467808544E+02  0.19578994170E+02  0.27488068345E+03  0.28826205132E+03  0.41800000000E+01 0.  1.
        -11    1    4    4    0    0 -0.93392629612E+01 -0.47560060349E+02  0.65042136902E+02  0.81115108000E+02  0.00000000000E+00 0.  1.
         11    1    4    4    0    0 -0.33997520590E+02  0.22985687721E+02  0.30550974647E+01  0.41152240119E+02  0.00000000000E+00 0. -1.
</event>
<event>
 8    1  0.4798744E-006  0.1031503E+03  0.7561462E-02  0.1273807E+00
          1   -1    0    0  501    0  0.00000000000E+00  0.00000000000E+00  0.40257746006E+02  0.40257746006E+02  0.00000000000E+00 0. -1.
         -1   -1    0    0    0  501 -0.00000000000E+00 -0.00000000000E+00 -0.51765415722E+03  0.51765415722E+03  0.00000000000E+00 0.  1.
         23    2    1    2    0    0  0.52740369799E+02 -0.10143062423E+02 -0.41314832054E+03  0.43499957040E+03  0.12509461682E+03 0.  0.
         23    2    1    2    0    0 -0.52740369799E+02  0.10143062423E+02 -0.64248090669E+02  0.12291233283E+03  0.89973307620E+02 0.  0.
          5    1    3    3  502    0  0.35418439835E+02  0.46475561392E+02 -0.96923673619E+02  0.11325243748E+03  0.41800000000E+01 0.  1.
         -5    1    3    3    0  502  0.17321929964E+02 -0.56618623814E+02 -0.31622464693E+03  0.32174713292E+03  0.41800000000E+01 0.  1.
        -11    1    4    4    0    0 -0.47407105566E+01  0.34299860068E+02  0.52939050137E+01  0.35028276686E+02  0.00000000000E+00 0. -1.
         11    1    4    4    0    0 -0.47999659242E+02 -0.24156797646E+02 -0.69541995683E+02  0.87884056139E+02  0.00000000000E+00 0.  1.
</event>
<event>
 8    1  0.4798744E-006  0.1059687E+03  0.7561462E-02  0.1268223E+00
         -2   -1    0    0    0  501 -0.00000000000E+00  0.00000000000E+00  0.10664958582E+03  0.10664958582E+03  0.00000000000E+00 0.  1.
          2   -1    0    0  501    0  0.00000000000E+00 -0.00000000000E+00 -0.16968151796E+03  0.16968151796E+03  0.00000000000E+00 0. -1.
         23    2    1    2    0    0 -0.62857240358E+02  0.48214399750E+02 -0.65835066771E+01  0.14821081636E+03  0.12508973786E+03 0.  0.
         23    2    1    2    0    0  0.62857240358E+02 -0.48214399750E+02 -0.56448425457E+02  0.12812028742E+03  0.83382985697E+02 0.  0.
          5    1    3    3  502    0 -0.45027536568E+00  0.67159575556E+02 -0.36256267822E+02  0.76436906616E+02  0.41800000000E+01 0.  1.
         -5    1    3    3    0  502 -0.62406964992E+02 -0.18945175805E+02  0.29672761145E+02  0.71773909743E+02  0.41800000000E+01 0.  1.
        -11    1    4    4    0    0  0.17519496736E+02 -0.15406767921E+02 -0.67199322945E+02  0.71134030309E+02  0.00000000000E+00 0. -1.
         11    1    4    4    0    0  0.45337743621E+02 -0.32807631829E+02  0.10750897488E+02  0.56986257113E+02  0.00000000000E+00 0.  1.
</event>
<event>
 8    1  0.4798744E-006  0.1122236E+03  0.7561462E-02  0.1256507E+00
          1   -1    0    0  501    0  0.00000000000E+00  0.00000000000E+00  0.20606089964E+02  0.20606089964E+02  0.00000000000E+00 0. -1.
         -1   -1    0    0    0  501 -0.00000000000E+00 -0.00000000000E+00 -0.72941095340E+03  0.72941095340E+03  0.00000000000E+00 0.  1.
         23    2    1    2    0    0  0.54490275569E+02  0.17419531456E+02 -0.40281120683E+03  0.42564709628E+03  0.12508377996E+03 0.  0.
         23    2    1    2    0    0 -0.54490275569E+02 -0.17419531456E+02 -0.30599365660E+03  0.32436994709E+03  0.91165314047E+02 0.  0.
          5    1    3    3  502    0  0.84781184108E+02  0.37755363651E+01 -0.36664015590E+03  0.37635698502E+03  0.41800000000E+01 0.  1.
         -5    1    3    3    0  502 -0.30290908540E+02  0.13643995091E+02 -0.36171050932E+02  0.49290111257E+02  0.41800000000E+01 0.  1.
        -11    1    4    4    0    0 -0.30813196463E+02 -0.54145112535E+02 -0.15132171013E+03  0.16364414516E+03  0.00000000000E+00 0.  1.
         11    1    4    4    0    0 -0.23677079106E+02  0.36725581080E+02 -0.15467194647E+03  0.16072580193E+03  0.00000000000E+00 0. -1.
</event>
<event>
 8    1  0.4798744E-006  0.8407321E+02  0.7561462E-02  0.1317874E+00
         -2   -1    0    0    0  501 -0.00000000000E+00  0.00000000000E+00  0.43289474522E+02  0.43289474522E+02  0.00000000000E+00 0.  1.
          2   -1    0    0  501    0  0.00000000000E+00 -0.00000000000E+00 -0.26044701895E+03  0.26044701895E+03  0.00000000000E+00 0. -1.
         23    2    1    2    0    0  0.21540077687E+02  0.20343222178E+02 -0.11332112207E+03  0.17137149516E+03  0.12509472814E+03 0.  0.
         23    2    1    2    0    0 -0.21540077687E+02 -0.20343222178E+02 -0.10383642236E+03  0.13236499832E+03  0.76555003340E+02 0.  0.
          5    1    3    3  502    0 -0.40130865200E+02  0.17713035735E+02 -0.98272025812E+02  0.10769912457E+03  0.41800000000E+01 0.  1.
         -5    1    3    3    0  502  0.61670942887E+02  0.26301864428E+01 -0.15049096259E+02  0.63672370582E+02  0.41800000000E+01 0.  1.
        -11    1    4    4    0    0 -0.12611916603E+02 -0.39291971610E+02 -0.10349139586E+03  0.11141538714E+03  0.00000000000E+00 0. -1.
         11    1    4    4    0    0 -0.89281610843E+01  0.18948749433E+02 -0.34502649778E+00  0.20949611183E+02  0.00000000000E+00 0.  1.
</event>
<event>
 8    1  0.4798744E-006  0.1643046E+03  0.7561462E-02  0.1183921E+00
         -2   -1    0    0    0  501 -0.00000000000E+00  0.00000000000E+00  0.14640687345E+03  0.14640687345E+03  0.00000000000E+00 0.  1.
          2   -1    0    0  501    0  0.00000000000E+00 -0.00000000000E+00 -0.23366571344E+03  0.23366571344E+03  0.00000000000E+00 0. -1.
         23    2    1    2    0    0  0.85630409938E+02 -0.11373058852E+03  0.83590495762E+00  0.18952425932E+03  0.12510608404E+03 0.  0.
         23    2    1    2    0    0 -0.85630409938E+02  0.11373058852E+03 -0.88094744955E+02  0.19054832757E+03  0.90998720755E+02 0.  0.
          5    1    3    3  502    0 -0.29617678053E+02 -0.11608925464E+02  0.13826017073E+02  0.34937160041E+02  0.41800000000E+01 0. -1.
         -5    1    3    3    0  502  0.11524808799E+03 -0.10212166306E+03 -0.12990112115E+02  0.15458709928E+03  0.41800000000E+01 0. -1.
        -11    1    4    4    0    0 -0.23991558569E+02  0.27604981136E+02  0.17891161994E+02  0.40715151278E+02  0.00000000000E+00 0.  1.
         11    1    4    4    0    0 -0.61638851369E+02  0.86125607384E+02 -0.10598590695E+03  0.14983317629E+03  0.00000000000E+00 0. -1.
</event>
<event>
 8    1  0.4798744E-006  0.1461771E+03  0.7561462E-02  0.1205251E+00
          2   -1    0    0  501    0  0.00000000000E+00  0.00000000000E+00  0.44424800147E+03  0.44424800147E+03  0.00000000000E+00 0. -1.
         -2   -1    0    0    0  501 -0.00000000000E+00 -0.00000000000E+00 -0.53701038068E+02  0.53701038068E+02  0.00000000000E+00 0.  1.
         23    2    1    2    0    0 -0.10957568917E+03 -0.63018399555E+00  0.19690448980E+03  0.25773294867E+03  0.12509063089E+03 0.  0.
         23    2    1    2    0    0  0.10957568917E+03  0.63018399555E+00  0.19364247360E+03  0.24021609087E+03  0.90549069249E+02 0.  0.
          5    1    3    3  502    0 -0.67862994558E+02 -0.54347986407E+02  0.15491616404E+03  0.17769518828E+03  0.41800000000E+01 0.  1.
         -5    1    3    3    0  502 -0.41712694608E+02  0.53717802412E+02  0.41988325755E+02  0.80037760383E+02  0.41800000000E+01 0.  1.
        -11    1    4    4    0    0  0.35767039148E+02 -0.39394062526E+02  0.45846840800E+02  0.70236073802E+02  0.00000000000E+00 0.  1.
         11    1    4    4    0    0  0.73808650018E+02  0.40024246522E+02  0.14779563280E+03  0.16998001707E+03  0.00000000000E+00 0. -1.
</event>
<event>
 8    1  0.4798744E-006  0.8937971E+02  0.7561462E-02  0.1304361E+00
          2   -1    0    0  501    0  0.00000000000E+00  0.00000000000E+00  0.75692412026E+03  0.75692412026E+03  0.00000000000E+00 0. -1.
         -2   -1    0    0    0  501 -0.00000000000E+00 -0.00000000000E+00 -0.21779897107E+02  0.21779897107E+02  0.00000000000E+00 0.  1.
         23    2    1    2    0    0 -0.30763977604E+01  0.64510740093E+02  0.34982563283E+03  0.37709164981E+03  0.12509611969E+03 0.  0.
         23    2    1    2    0    0  0.30763977604E+01 -0.64510740093E+02  0.38531859032E+03  0.40161236756E+03  0.93010633340E+02 0.  0.
          5    1    3    3  502    0  0.13522140547E+01  0.41137085030E+02  0.19242208222E+02  0.45627001050E+02  0.41800000000E+01 0.  1.
         -5    1    3    3    0  502 -0.44286118151E+01  0.23373655063E+02  0.33058342460E+03  0.33146464876E+03  0.41800000000E+01 0.  1.
        -11    1    4    4    0    0  0.10029242803E+02  0.23186207026E+02  0.85704154195E+02  0.89349806680E+02  0.00000000000E+00 0.  1.
         11    1    4    4    0    0 -0.69528450422E+01 -0.87696947119E+02  0.29961443613E+03  0.31226256088E+03  0.00000000000E+00 0. -1.
</event>
<event>
 8    1  0.4798744E-006  0.1246757E+03  0.7561462E-02  0.1235577E+00
         -2   -1    0    0    0  501 -0.00000000000E+00  0.00000000000E+00  0.23523443441E+03  0.23523443441E+03  0.00000000000E+00 0.  1.
          2   -1    0    0  501    0  0.00000000000E+00 -0.00000000000E+00 -0.88980644849E+02  0.88980644849E+02  0.00000000000E+00 0. -1.
         23    2    1    2    0    0 -0.34524051837E+02  0.91829724201E+02  0.85756631474E+02  0.18062888160E+03  0.12509190471E+03 0.  0.
         23    2    1    2    0    0  0.34524051837E+02 -0.91829724201E+02  0.60497158088E+02  0.14358619766E+03  0.85629910776E+02 0.  0.
          5    1    3    3  502    0  0.18961854757E+02  0.42467393282E+02  0.96245431803E+02  0.10697516988E+03  0.41800000000E+01 0. -1.
         -5    1    3    3    0  502 -0.53485906594E+02  0.49362330918E+02 -0.10488800329E+02  0.73653711721E+02  0.41800000000E+01 0. -1.
        -11    1    4    4    0    0  0.61250871091E+02 -0.45630872027E+02  0.41552626624E+02  0.86950942898E+02  0.00000000000E+00 0. -1.
         11    1    4    4    0    0 -0.26726819254E+02 -0.46198852173E+02  0.18944531464E+02  0.56635254762E+02  0.00000000000E+00 0.  1.
</event>
<event>
 8    1  0.4798744E-006  0.1428465E+03  0.7561462E-02  0.1209549E+00
         -4   -1    0    0    0  501 -0.00000000000E+00  0.00000000000E+00  0.78115587905E+02  0.78115587905E+02  0.00000000000E+00 0.  1.
          4   -1    0    0  501    0  0.00000000000E+00 -0.00000000000E+00 -0.41610820684E+03  0.41610820684E+03  0.00000000000E+00 0. -1.
         23    2    1    2    0    0 -0.88021439784E+02  0.55131826017E+02 -0.49474258881E+02  0.16994793910E+03  0.12508919861E+03 0.  0.
         23    2    1    2    0    0  0.88021439784E+02 -0.55131826017E+02 -0.28851836005E+03  0.32427585564E+03  0.10547366669E+03 0.  0.
          5    1    3    3  502    0 -0.84357272381E+02  0.10923632069E+01  0.14839143622E+02  0.85761385508E+02  0.41800000000E+01 0.  1.
         -5    1    3    3    0  502 -0.36641674033E+01  0.54039462810E+02 -0.64313402504E+02  0.84186553589E+02  0.41800000000E+01 0.  1.
        -11    1    4    4    0    0  0.52356184402E+02  0.25866902337E+02 -0.13468947233E+03  0.14680436178E+03  0.00000000000E+00 0. -1.
         11    1    4    4    0    0  0.35665255382E+02 -0.80998728354E+02 -0.15382888772E+03  0.17747149386E+03  0.00000000000E+00 0.  1.
</event>
<event>
 8    1  0.4798744E-006  0.1027778E+03  0.7561462E-02  0.1274561E+00
         -2   -1    0    0    0  501 -0.00000000000E+00  0.00000000000E+00  0.41832340660E+02  0.41832340660E+02  0.00000000000E+00 0.  1.
          2   -1    0    0  501    0  0.00000000000E+00 -0.00000000000E+00 -0.39047107329E+03  0.39047107329E+03  0.00000000000E+00 0. -1.
         23    2    1    2    0    0 -0.31116607619E+02  0.58209311540E+01 -0.95776002898E+02  0.16069897259E+03  0.12509592540E+03 0.  0.
         23    2    1    2    0    0  0.31116607619E+02 -0.58209311540E+01 -0.25286272973E+03  0.27160444136E+03  0.93953637338E+02 0.  0.
          5    1    3    3  502    0 -0.59942725434E+02  0.37901004586E+02 -0.20668041233E+02  0.73988220748E+02  0.41800000000E+01 0. -1.
         -5    1    3    3    0  502  0.28826117814E+02 -0.32080073432E+02 -0.75107961665E+02  0.86710751843E+02  0.41800000000E+01 0. -1.
        -11    1    4    4    0    0 -0.18719137380E+02  0.26011871721E+02 -0.14595275412E+03  0.14942968249E+03  0.00000000000E+00 0. -1.
         11    1    4    4    0    0  0.49835745000E+02 -0.31832802875E+02 -0.10690997561E+03  0.12217475886E+03  0.00000000000E+00 0.  1.
</event>
<event>
 8    1  0.4798744E-006  0.1435846E+03  0.7561462E-02  0.1208585E+00
         -1   -1    0    0    0  501 -0.00000000000E+00  0.00000000000E+00  0.15358829295E+03  0.15358829295E+03  0.00000000000E+00 0.  1.
          1   -1    0    0  501    0  0.00000000000E+00 -0.00000000000E+00 -0.14981453086E+03  0.14981453086E+03  0.00000000000E+00 0. -1.
         23    2    1    2    0    0 -0.78469559852E+02 -0.69012989382E+02 -0.71231622189E+01  0.16315364984E+03  0.12509240380E+03 0.  0.
         23    2    1    2    0    0  0.78469559852E+02  0.69012989382E+02  0.10896924306E+02  0.14024917398E+03  0.92902224489E+02 0.  0.
          5    1    3    3  502    0 -0.10388533530E+03 -0.65712583242E+02 -0.32109166851E+02  0.12711718012E+03  0.41800000000E+01 0. -1.
         -5    1    3    3    0  502  0.25415775444E+02 -0.33004061396E+01  0.24986004632E+02  0.36036469716E+02  0.41800000000E+01 0. -1.
        -11    1    4    4    0    0  0.51193417259E+02 -0.12122122356E+02 -0.61616649334E+01  0.52968650500E+02  0.00000000000E+00 0.  1.
         11    1    4    4    0    0  0.27276142593E+02  0.81135111738E+02  0.17058589240E+02  0.87280523476E+02  0.00000000000E+00 0. -1.
</event>
<event>
 8    1  0.4798744E-006  0.2229305E+03  0.7561462E-02  0.1131717E+00
         -2   -1    0    0    0  501 -0.00000000000E+00  0.00000000000E+00  0.76948651243E+02  0.76948651243E+02  0.00000000000E+00 0.  1.
          2   -1    0    0  501    0  0.00000000000E+00 -0.00000000000E+00 -0.70362767808E+03  0.70362767808E+03  0.00000000000E+00 0. -1.
         23    2    1    2    0    0  0.54997208226E+01 -0.20478202944E+03 -0.30712268393E+03  0.38979135555E+03  0.12508809444E+03 0.  0.
         23    2    1    2    0    0 -0.54997208226E+01  0.20478202944E+03 -0.31955634290E+03  0.39078497376E+03  0.92901630339E+02 0.  0.
          5    1    3    3  502    0  0.88076814148E+01 -0.21967246511E+03 -0.30115331076E+03  0.37288651915E+03  0.41800000000E+01 0.  1.
         -5    1    3    3    0  502 -0.33079605922E+01  0.14890435674E+02 -0.59693731702E+01  0.16904836405E+02  0.41800000000E+01 0.  1.
        -11    1    4    4    0    0  0.20703980965E+02  0.10259412642E+03 -0.89566718105E+02  0.13775487867E+03  0.00000000000E+00 0.  1.
         11    1    4    4    0    0 -0.26203701788E+02  0.10218790302E+03 -0.22998962480E+03  0.25303009510E+03  0.00000000000E+00 0. -1.
</event>
<event>
 8    1  0.4798744E-006  0.1191997E+03  0.7561462E-02  0.1244423E+00
          1   -1    0    0  501    0  0.00000000000E+00  0.00000000000E+00  0.46705240417E+02  0.46705240417E+02  0.00000000000E+00 0. -1.
         -1   -1    0    0    0  501 -0.00000000000E+00 -0.00000000000E+00 -0.68410755660E+03  0.68410755660E+03  0.00000000000E+00 0.  1.
         23    2    1    2    0    0 -0.73612526638E+02  0.14525544476E+02 -0.58068244235E+03  0.59872243012E+03  0.12508658582E+03 0.  0.
         23    2    1    2    0    0  0.73612526638E+02 -0.14525544476E+02 -0.56719873831E+02  0.13209036690E+03  0.92741174347E+02 0.  0.
          5    1    3    3  502    0 -0.10566262815E+03  0.97034624795E+01 -0.35053040041E+03  0.36626190381E+03  0.41800000000E+01 0. -1.
         -5    1    3    3    0  502  0.32050101512E+02  0.48220819969E+01 -0.23015204194E+03  0.23246052631E+03  0.41800000000E+01 0. -1.
        -11    1    4    4    0    0  0.22444201916E+02 -0.37292710968E+02 -0.62092374121E+02  0.75828434080E+02  0.00000000000E+00 0.  1.
         11    1    4    4    0    0  0.51168324722E+02  0.22767166491E+02  0.53725002909E+01  0.56261932817E+02  0.00000000000E+00 0. -1.
</event>
<event>
 8    1  0.4798744E-006  0.1113182E+03  0.7561462E-02  0.1258148E+00
          1   -1    0    0  501    0  0.00000000000E+00  0.00000000000E+00  0.12364630995E+04  0.12364630995E+04  0.00000000000E+00 0. -1.
         -1   -1    0    0    0  501 -0.00000000000E+00 -0.00000000000E+00 -0.15152436010E+02  0.15152436010E+02  0.00000000000E+00 0.  1.
         23    2    1    2    0    0  0.50672486172E+01  0.82490290654E+02  0.63999717759E+03  0.65732257918E+03  0.12508501396E+03 0.  0.
         23    2    1    2    0    0 -0.50672486172E+01 -0.82490290654E+02  0.58131348595E+03  0.59429295638E+03  0.91806448542E+02 0.  0.
          5    1    3    3  502    0  0.30190996368E+02  0.28829629222E+02  0.53536386823E+03  0.53700520257E+03  0.41800000000E+01 0. -1.
         -5    1    3    3    0  502 -0.25123747751E+02  0.53660661432E+02  0.10463330936E+03  0.12031737661E+03  0.41800000000E+01 0. -1.
        -11    1    4    4    0    0 -0.32270831705E+02 -0.87821974437E+02  0.49045260317E+03  0.49929736803E+03  0.00000000000E+00 0. -1.
         11    1    4    4    0    0  0.27203583088E+02  0.53316837839E+01  0.90860882780E+02  0.94995588341E+02  0.00000000000E+00 0.  1.
</event>
<event>
 8    1  0.4798744E-006  0.1754988E+03  0.7561462E-02  0.1172232E+00
         -2   -1    0    0    0  501 -0.00000000000E+00  0.00000000000E+00  0.25196583199E+03  0.25196583199E+03  0.00000000000E+00 0. -1.
          2   -1    0    0  501    0  0.00000000000E+00 -0.00000000000E+00 -0.14950067874E+03  0.14950067874E+03  0.00000000000E+00 0.  1.
         23    2    1    2    0    0  0.63546661226E+02 -0.14539694360E+03  0.87047377656E+02  0.22000791383E+03  0.12509111410E+03 0.  0.
         23    2    1    2    0    0 -0.63546661226E+02  0.14539694360E+03  0.15417775593E+02  0.18145859691E+03  0.86666401938E+02 0.  0.
          5    1    3    3  502    0 -0.15008533005E+02  0.67641954490E+00  0.46739833344E+02  0.49272690483E+02  0.41800000000E+01 0. -1.
         -5    1    3    3    0  502  0.78555194231E+02 -0.14607336315E+03  0.40307544312E+02  0.17073522334E+03  0.41800000000E+01 0. -1.
        -11    1    4    4    0    0 -0.67103471736E+02  0.81819479725E+02  0.40106794132E+02  0.11316297149E+03  0.00000000000E+00 0. -1.
         11    1    4    4    0    0  0.35568105104E+01  0.63577463879E+02 -0.24689018539E+02  0.68295625414E+02  0.00000000000E+00 0.  1.
</event>
<event>
 8    1  0.4798744E-006  0.8278670E+02  0.7561462E-02  0.1321324E+00
         -4   -1    0    0    0  501 -0.00000000000E+00  0.00000000000E+00  0.44635360632E+03  0.44635360632E+03  0.00000000000E+00 0.  1.
          4   -1    0    0  501    0  0.00000000000E+00 -0.00000000000E+00 -0.36940321261E+02  0.36940321261E+02  0.00000000000E+00 0. -1.
         23    2    1    2    0    0 -0.56987563084E+02  0.27134633320E+01  0.29507435781E+03  0.32553278873E+03  0.12509106551E+03 0.  0.
         23    2    1    2    0    0  0.56987563084E+02 -0.27134633320E+01  0.11433892725E+03  0.15776113885E+03  0.92521572718E+02 0.  0.
          5    1    3    3  502    0 -0.48680190026E+00 -0.18487233458E+02 -0.48485925746E+01  0.19570284285E+02  0.41800000000E+01 0.  1.
         -5    1    3    3    0  502 -0.56500761184E+02  0.21200696790E+02  0.29992295039E+03  0.30596250445E+03  0.41800000000E+01 0.  1.
        -11    1    4    4    0    0  0.43061218977E+02  0.28706992613E+02  0.11192166042E+03  0.12330781839E+03  0.00000000000E+00 0.  1.
         11    1    4    4    0    0  0.13926344107E+02 -0.31420455945E+02  0.24172668273E+01  0.34453320462E+02  0.00000000000E+00 0. -1.
</event>
<event>
 8    1  0.4798744E-006  0.1318719E+03  0.7561462E-02  0.1224704E+00
         -2   -1    0    0    0  501 -0.00000000000E+00  0.00000000000E+00  0.50553533115E+02  0.50553533115E+02  0.00000000000E+00 0.  1.
          2   -1    0    0  501    0  0.00000000000E+00 -0.00000000000E+00 -0.52077513452E+03  0.52077513452E+03  0.00000000000E+00 0. -1.
         23    2    1    2    0    0 -0.99443159142E+02 -0.63159676971E+02 -0.27110031491E+03  0.32096790732E+03  0.12508768960E+03 0.  0.
         23    2    1    2    0    0  0.99443159142E+02  0.63159676971E+02 -0.19912128650E+03  0.25036076031E+03  0.95672027648E+02 0.  0.
          5    1    3    3  502    0 -0.84264274494E+02 -0.27869032802E+02 -0.62044119890E+02  0.10837018113E+03  0.41800000000E+01 0. -1.
         -5    1    3    3    0  502 -0.15178884647E+02 -0.35290644169E+02 -0.20905619502E+03  0.21259772619E+03  0.41800000000E+01 0. -1.
        -11    1    4    4    0    0  0.71403808770E+02  0.76972514930E+02 -0.19117720408E+03  0.21811005324E+03  0.00000000000E+00 0. -1.
         11    1    4    4    0    0  0.28039350371E+02 -0.13812837959E+02 -0.79440824136E+01  0.32250707079E+02  0.00000000000E+00 0.  1.
</event>
<event>
 8    1  0.4798744E-006  0.1201418E+03  0.7561462E-02  0.1242863E+00
         -1   -1    0    0    0  501 -0.00000000000E+00  0.00000000000E+00  0.12472664522E+03  0.12472664522E+03  0.00000000000E+00 0.  1.
          1   -1    0    0  501    0  0.00000000000E+00 -0.00000000000E+00 -0.16114701593E+03  0.16114701593E+03  0.00000000000E+00 0. -1.
         23    2    1    2    0    0 -0.87915515793E+02 -0.19088452287E+02 -0.71914496777E+01  0.15425087382E+03  0.12509239864E+03 0.  0.
         23    2    1    2    0    0  0.87915515793E+02  0.19088452287E+02 -0.29228921027E+02  0.13162278733E+03  0.91524430581E+02 0.  0.
          5    1    3    3  502    0 -0.80783642961E+02  0.40281976657E+02 -0.20918386364E+02  0.92756055875E+02  0.41800000000E+01 0.  1.
         -5    1    3    3    0  502 -0.71318728319E+01 -0.59370428943E+02  0.13726936686E+02  0.61494817943E+02  0.41800000000E+01 0.  1.
        -11    1    4    4    0    0  0.77725767588E+02  0.16433416647E+02 -0.59705378928E+02  0.99378490644E+02  0.00000000000E+00 0. -1.
         11    1    4    4    0    0  0.10189748205E+02  0.26550356400E+01  0.30476457901E+02  0.32244296689E+02  0.00000000000E+00 0.  1.
</event>
<event>
 7    1  0.4798744E-006  0.1036470E+03  0.7561462E-02  0.1272809E+00
          4   -1    0    0  501    0  0.00000000000E+00  0.00000000000E+00  0.12217398442E+03  0.12217398442E+03  0.00000000000E+00 0. -1.
         -4   -1    0    0    0  501 -0.00000000000E+00 -0.00000000000E+00 -0.14719175084E+03  0.14719175084E+03  0.00000000000E+00 0.  1.
         23    2    1    2    0    0  0.35217189031E+01 -0.20564198556E+02  0.18480329945E+02  0.96960304652E+02  0.92868128639E+02 0.  0.
          5    1    1    2  502    0 -0.60896022178E+02 -0.28470521616E+02  0.23564218788E+02  0.71355735055E+02  0.41800000000E+01 0. -1.
         -5    1    1    2    0  502  0.57374303275E+02  0.49034720172E+02 -0.67062315155E+02  0.10104969556E+03  0.41800000000E+01 0.  1.
        -11    1    3    3    0    0  0.28024398919E+02  0.55218832041E+01  0.44383812035E+02  0.52780497342E+02  0.00000000000E+00 0.  1.
         11    1    3    3    0    0 -0.24502680016E+02 -0.26086081760E+02 -0.25903482090E+02  0.44179807310E+02  0.00000000000E+00 0. -1.
</event>
<event>
 8    1  0.4798744E-006  0.1084572E+03  0.7561462E-02  0.1263454E+00
          2   -1    0    0  501    0  0.00000000000E+00  0.00000000000E+00  0.36423399938E+03  0.36423399938E+03  0.00000000000E+00 0. -1.
         -2   -1    0    0    0  501 -0.00000000000E+00 -0.00000000000E+00 -0.37265407925E+02  0.37265407925E+02  0.00000000000E+00 0.  1.
         23    2    1    2    0    0 -0.10974350479E+02  0.15730119081E+02  0.11797247424E+03  0.17301275816E+03  0.12509211324E+03 0.  0.
         23    2    1    2    0    0  0.10974350479E+02 -0.15730119081E+02  0.20899611722E+03  0.22848664914E+03  0.90326622928E+02 0.  0.
          5    1    3    3  502    0 -0.55267118429E+02 -0.29636959226E+02  0.54296394312E+02  0.83056454095E+02  0.41800000000E+01 0. -1.
         -5    1    3    3    0  502  0.44292767950E+02  0.45367078307E+02  0.63676079927E+02  0.89956304069E+02  0.41800000000E+01 0. -1.
        -11    1    4    4    0    0 -0.10829354897E+02 -0.49309552988E+02  0.13850473175E+03  0.14741868152E+03  0.00000000000E+00 0. -1.
         11    1    4    4    0    0  0.21803705376E+02  0.33579433907E+02  0.70491385467E+02  0.81067967624E+02  0.00000000000E+00 0.  1.
</event>
<event>
 8    1  0.4798744E-006  0.1457632E+03  0.7561462E-02  0.1205778E+00
          1   -1    0    0  501    0  0.00000000000E+00  0.00000000000E+00  0.59837333812E+03  0.59837333812E+03  0.00000000000E+00 0. -1.
         -1   -1    0    0    0  501 -0.00000000000E+00 -0.00000000000E+00 -0.88821243478E+02  0.88821243478E+02  0.00000000000E+00 0.  1.
         23    2    1    2    0    0  0.13370282246E+03 -0.14431491569E+02  0.36786569874E+02  0.18731279125E+03  0.12509243526E+03 0.  0.
         23    2    1    2    0    0 -0.13370282246E+03  0.14431491569E+02  0.47276552476E+03  0.49988179035E+03  0.91048614658E+02 0.  0.
          5    1    3    3  502    0  0.29884661495E+02  0.19304087494E+02 -0.40066944932E+02  0.53745448764E+02  0.41800000000E+01 0. -1.
         -5    1    3    3    0  502  0.10381816096E+03 -0.33735579063E+02  0.76853514806E+02  0.13356734248E+03  0.41800000000E+01 0. -1.
        -11    1    4    4    0    0 -0.79357658309E+02  0.37072130027E+02  0.16779352139E+03  0.18927928196E+03  0.00000000000E+00 0.  1.
         11    1    4    4    0    0 -0.54345164149E+02 -0.22640638458E+02  0.30497200337E+03  0.31060250839E+03  0.00000000000E+00 0. -1.
</event>
<event>
 8    1  0.4798744E-006  0.6999172E+02  0.7561462E-02  0.1360121E+00
         -2   -1    0    0    0  501 -0.00000000000E+00  0.00000000000E+00  0.12279568037E+03  0.12279568037E+03  0.00000000000E+00 0.  1.
          2   -1    0    0  501    0  0.00000000000E+00 -0.00000000000E+00 -0.10312844189E+03  0.10312844189E+03  0.00000000000E+00 0. -1.
         23    2    1    2    0    0  0.25659082996E+02  0.39486275078E+01  0.33041088757E+02  0.13196094603E+03  0.12509195630E+03 0.  0.
         23    2    1    2    0    0 -0.25659082996E+02 -0.39486275078E+01 -0.13373850279E+02  0.93963176230E+02  0.89309789030E+02 0.  0.
          5    1    3    3  502    0 -0.20318576185E+02  0.44660776988E+02  0.47837321446E+02  0.68653559722E+02  0.41800000000E+01 0. -1.
         -5    1    3    3    0  502  0.45977659181E+02 -0.40712149481E+02 -0.14796232689E+02  0.63307386306E+02  0.41800000000E+01 0. -1.
        -11    1    4    4    0    0 -0.99021361374E+01 -0.82101476000E+01  0.37968653693E+02  0.40088370969E+02  0.00000000000E+00 0.  1.
         11    1    4    4    0    0 -0.15756946859E+02  0.42615200922E+01 -0.51342503972E+02  0.53874805261E+02  0.00000000000E+00 0. -1.
</event>
<event>
 8    1  0.4798744E-006  0.1041156E+03  0.7561462E-02  0.1271872E+00
          2   -1    0    0  501    0  0.00000000000E+00  0.00000000000E+00  0.39000881743E+03  0.39000881743E+03  0.00000000000E+00 0. -1.
         -2   -1    0    0    0  501 -0.00000000000E+00 -0.00000000000E+00 -0.34125444011E+02  0.34125444011E+02  0.00000000000E+00 0.  1.
         23    2    1    2    0    0  0.28322876979E+02 -0.14990451608E+02  0.17599540802E+03  0.21828765238E+03  0.12509283168E+03 0.  0.
         23    2    1    2    0    0 -0.28322876979E+02  0.14990451608E+02  0.17988796540E+03  0.20584660906E+03  0.94795819360E+02 0.  0.
          5    1    3    3  502    0 -0.42725739151E+02 -0.71350064002E+01  0.22676147681E+02  0.49072162944E+02  0.41800000000E+01 0. -1.
         -5    1    3    3    0  502  0.71048616130E+02 -0.78554452078E+01  0.15331926034E+03  0.16921548943E+03  0.41800000000E+01 0. -1.
        -11    1    4    4    0    0 -0.47152545711E+02 -0.21671420370E+02  0.61385523589E+02  0.80381562153E+02  0.00000000000E+00 0.  1.
         11    1    4    4    0    0  0.18829668732E+02  0.36661871978E+02  0.11850244181E+03  0.12546504691E+03  0.00000000000E+00 0. -1.
</event>
<event>
 8    1  0.4798744E-006  0.1189748E+03  0.7561462E-02  0.1244798E+00
         -1   -1    0    0    0  501 -0.00000000000E+00  0.00000000000E+00  0.72238775420E+02  0.72238775420E+02  0.00000000000E+00 0.  1.
          1   -1    0    0  501    0  0.00000000000E+00 -0.00000000000E+00 -0.27602003475E+03  0.27602003475E+03  0.00000000000E+00 0. -1.
         23    2    1    2    0    0  0.83114390496E+02 -0.34785364008E+02 -0.11856272674E+03  0.19447537377E+03  0.12508208256E+03 0.  0.
         23    2    1    2    0    0 -0.83114390496E+02  0.34785364008E+02 -0.85218532590E+02  0.15378343639E+03  0.90934721398E+02 0.  0.
          5    1    3    3  502    0  0.23558605562E+02 -0.72967213843E+02 -0.89373832933E+02  0.11783198464E+03  0.41800000000E+01 0.  1.
         -5    1    3    3    0  502  0.59555784934E+02  0.38181849835E+02 -0.29188893806E+02  0.76643389131E+02  0.41800000000E+01 0.  1.
        -11    1    4    4    0    0 -0.51744771175E+02  0.24727004409E+02  0.51670992784E+01  0.57581637750E+02  0.00000000000E+00 0.  1.
         11    1    4    4    0    0 -0.31369619321E+02  0.10058359599E+02 -0.90385631869E+02  0.96201798644E+02  0.00000000000E+00 0. -1.
</event>
<event>
 7    1  0.4798744E-006  0.1673785E+03  0.7561462E-02  0.1180610E+00
          2   -1    0    0  501    0  0.00000000000E+00  0.00000000000E+00  0.58155540945E+03  0.58155540945E+03  0.00000000000E+00 0. -1.
         -2   -1    0    0    0  501 -0.00000000000E+00 -0.00000000000E+00 -0.72701635241E+02  0.72701635241E+02  0.00000000000E+00 0.  1.
         23    2    1    2    0    0  0.82750517370E+02 -0.99107290271E+02  0.38762686380E+03  0.41984388189E+03  0.96666418774E+02 0.  0.
          5    1    1    2  502    0 -0.11177606198E+03  0.56942327840E+02  0.13177129263E+03  0.18198203947E+03  0.41800000000E+01 0. -1.
         -5    1    1    2    0  502  0.29025544606E+02  0.42164962431E+02 -0.10544382213E+02  0.52431123322E+02  0.41800000000E+01 0.  1.
        -11    1    3    3    0    0 -0.19404379453E+02 -0.25155625880E+02  0.48032166873E+02  0.57588406037E+02  0.00000000000E+00 0.  1.
         11    1    3    3    0    0  0.10215489682E+03 -0.73951664391E+02  0.33959469692E+03  0.36225547586E+03  0.00000000000E+00 0. -1.
</event>
<event>
 7    1  0.4798744E-006  0.9418798E+02  0.7561462E-02  0.1293015E+00
          1   -1    0    0  501    0  0.00000000000E+00  0.00000000000E+00  0.18577013155E+03  0.18577013155E+03  0.00000000000E+00 0. -1.
         -1   -1    0    0    0  501 -0.00000000000E+00 -0.00000000000E+00 -0.72874681928E+02  0.72874681928E+02  0.00000000000E+00 0.  1.
         23    2    1    2    0    0  0.57972922488E+01  0.75098084479E+01  0.57129589164E+02  0.11010518792E+03  0.93644843041E+02 0.  0.
          5    1    1    2  502    0 -0.40930879828E+01  0.64275909222E+02  0.16608975535E+02  0.66644402194E+02  0.41800000000E+01 0. -1.
         -5    1    1    2    0  502 -0.17042042661E+01 -0.71785717670E+02  0.39156884928E+02  0.81895223370E+02  0.41800000000E+01 0.  1.
        -11    1    3    3    0    0  0.19338886209E+02  0.23836733200E+02 -0.15538933912E+02  0.34404081685E+02  0.00000000000E+00 0. -1.
         11    1    3    3    0    0 -0.13541593960E+02 -0.16326924752E+02  0.72668523076E+02  0.75701106233E+02  0.00000000000E+00 0.  1.
</event>
<event>
 8    1  0.4798744E-006  0.8678680E+02  0.7561462E-02  0.1310825E+00
         -1   -1    0    0    0  501 -0.00000000000E+00  0.00000000000E+00  0.93316894640E+02  0.93316894640E+02  0.00000000000E+00 0.  1.
          1   -1    0    0  501    0  0.00000000000E+00 -0.00000000000E+00 -0.18433345468E+03  0.18433345468E+03  0.00000000000E+00 0. -1.
         23    2    1    2    0    0  0.68315877957E+02 -0.18407407882E+02 -0.54268966823E+02  0.15361692786E+03  0.12508856031E+03 0.  0.
         23    2    1    2    0    0 -0.68315877957E+02  0.18407407882E+02 -0.36747593213E+02  0.12403342145E+03  0.95015852281E+02 0.  0.
          5    1    3    3  502    0  0.28473394319E+02 -0.60399254025E+01 -0.92386303777E+02  0.96953166057E+02  0.41800000000E+01 0. -1.
         -5    1    3    3    0  502  0.39842483638E+02 -0.12367482479E+02  0.38117336954E+02  0.56663761804E+02  0.41800000000E+01 0. -1.
        -11    1    4    4    0    0 -0.70584547276E+02 -0.12130431996E+02 -0.53251520028E+02  0.89247129253E+02  0.00000000000E+00 0. -1.
         11    1    4    4    0    0  0.22686693182E+01  0.30537839877E+02  0.16503926815E+02  0.34786292202E+02  0.00000000000E+00 0.  1.
</event>
<event>
 8    1  0.8028511E-006  0.2111988E+03  0.7561462E-02  0.1140620E+00
         -1   -1    0    0    0  501 -0.00000000000E+00  0.00000000000E+00  0.37691714623E+02  0.37691714623E+02  0.00000000000E+00 0.  1.
          1   -1    0    0  501    0  0.00000000000E+00 -0.00000000000E+00 -0.13317593156E+04  0.13317593156E+04  0.00000000000E+00 0. -1.
         23    2    1    2    0    0 -0.12295588240E+03 -0.14914098841E+03 -0.57659405914E+03  0.62086227443E+03  0.12509225127E+03 0.  0.
         23    2    1    2    0    0  0.12295588240E+03  0.14914098841E+03 -0.71747354182E+03  0.74858875578E+03  0.90860655038E+02 0.  0.
          5    1    3    3  502    0 -0.17049243767E+02 -0.91374167651E+02 -0.37064576254E+03  0.38214613555E+03  0.41800000000E+01 0. -1.
         -5    1    3    3    0  502 -0.10590663863E+03 -0.57766820757E+02 -0.20594829660E+03  0.23871613888E+03  0.41800000000E+01 0. -1.
        -11    1    4    4    0    0  0.82171358710E+02  0.38536665369E+02 -0.39359932294E+03  0.40392775813E+03  0.00000000000E+00 0. -1.
         11    1    4    4    0    0  0.40784523687E+02  0.11060432304E+03 -0.32387421888E+03  0.34466099765E+03  0.00000000000E+00 0.  1.
</event>
<event>
 8    1  0.4798744E-006  0.1074035E+03  0.7561462E-02  0.1265455E+00
         -2   -1    0    0    0  501 -0.00000000000E+00  0.00000000000E+00  0.65669194648E+03  0.65669194648E+03  0.00000000000E+00 0.  1.
          2   -1    0    0  501    0  0.00000000000E+00 -0.00000000000E+00 -0.22243210712E+02  0.22243210712E+02  0.00000000000E+00 0. -1.
         23    2    1    2    0    0 -0.47732386074E+02 -0.11821511848E+02  0.30268874404E+03  0.33118905284E+03  0.12509030389E+03 0.  0.
         23    2    1    2    0    0  0.47732386074E+02  0.11821511848E+02  0.33175999172E+03  0.34774610435E+03  0.91894135609E+02 0.  0.
          5    1    3    3  502    0  0.24751242303E+02  0.33599543755E+02  0.55363921092E+02  0.69456385558E+02  0.41800000000E+01 0.  1.
         -5    1    3    3    0  502 -0.72483628377E+02 -0.45421055603E+02  0.24732482295E+03  0.26173266728E+03  0.41800000000E+01 0.  1.
        -11    1    4    4    0    0  0.48414393394E+02  0.37685141784E+02  0.30262501395E+03  0.30878151251E+03  0.00000000000E+00 0.  1.
         11    1    4    4    0    0 -0.68200732019E+00 -0.25863629936E+02  0.29134977774E+02  0.38964591841E+02  0.00000000000E+00 0. -1.
</event>
<event>
 8    1  0.4798744E-006  0.1805139E+03  0.7561462E-02  0.1167307E+00
         -2   -1    0    0    0  501 -0.00000000000E+00  0.00000000000E+00  0.75078344780E+02  0.75078344780E+02  0.00000000000E+00 0.  1.
          2   -1    0    0  501    0  0.00000000000E+00 -0.00000000000E+00 -0.47516623450E+03  0.47516623450E+03  0.00000000000E+00 0. -1.
         23    2    1    2    0    0 -0.13246063231E+03  0.78921264363E+02 -0.21302504656E+03  0.29121484618E+03  0.12510807764E+03 0.  0.
         23    2    1    2    0    0  0.13246063231E+03 -0.78921264363E+02 -0.18706284316E+03  0.25902973311E+03  0.91266150677E+02 0.  0.
          5    1    3    3  502    0 -0.14921916491E+03  0.37907603838E+02 -0.16271555927E+03  0.22404725223E+03  0.41800000000E+01 0. -1.
         -5    1    3    3    0  502  0.16758532597E+02  0.41013660526E+02 -0.50309487292E+02  0.67167593943E+02  0.41800000000E+01 0. -1.
        -11    1    4    4    0    0  0.12043100116E+03 -0.86514029127E+02 -0.19319256850E+03  0.24353987723E+03  0.00000000000E+00 0. -1.
         11    1    4    4    0    0  0.12029631152E+02  0.75927647641E+01  0.61297253373E+01  0.15489855878E+02  0.00000000000E+00 0.  1.
</event>
<event>
 8    1  0.4798744E-006  0.1232958E+03  0.7561462E-02  0.1237757E+00
          2   -1    0    0  501    0  0.00000000000E+00  0.00000000000E+00  0.25609988592E+03  0.25609988592E+03  0.00000000000E+00 0.  1.
         -2   -1    0    0    0  501 -0.00000000000E+00 -0.00000000000E+00 -0.69662221037E+02  0.69662221037E+02  0.00000000000E+00 0. -1.
         23    2    1    2    0    0  0.38181823026E+02  0.67455335340E+02  0.10827573343E+03  0.18269871500E+03  0.12508841727E+03 0.  0.
         23    2    1    2    0    0 -0.38181823026E+02 -0.67455335340E+02  0.78161931449E+02  0.14306339196E+03  0.91377090759E+02 0.  0.
          5    1    3    3  502    0  0.69895609883E+02  0.32446409770E+01  0.29207987051E+02  0.75937493266E+02  0.41800000000E+01 0.  1.
         -5    1    3    3    0  502 -0.31713786857E+02  0.64210694363E+02  0.79067746381E+02  0.10676122173E+03  0.41800000000E+01 0.  1.
        -11    1    4    4    0    0  0.41774699235E+01 -0.61895150958E+02  0.10317619477E+02  0.62888108882E+02  0.00000000000E+00 0. -1.
         11    1    4    4    0    0 -0.42359292949E+02 -0.55601843816E+01  0.67844311972E+02  0.80175283077E+02  0.00000000000E+00 0.  1.
</event>
<event>
 8    1  0.4798744E-006  0.7820877E+02  0.7561462E-02  0.1334213E+00
         -1   -1    0    0    0  501 -0.00000000000E+00  0.00000000000E+00  0.69224972512E+02  0.69224972512E+02  0.00000000000E+00 0.  1.
          1   -1    0    0  501    0  0.00000000000E+00 -0.00000000000E+00 -0.22591054221E+03  0.22591054221E+03  0.00000000000E+00 0. -1.
         23    2    1    2    0    0  0.36421468087E+02 -0.39897022523E+02 -0.62428957884E+02  0.14987836070E+03  0.12509137652E+03 0.  0.
         23    2    1    2    0    0 -0.36421468087E+02  0.39897022523E+02 -0.94256611811E+02  0.14525715402E+03  0.96421139695E+02 0.  0.
          5    1    3    3  502    0  0.14593201529E+02  0.13873635892E+02 -0.85013975484E+02  0.87465923258E+02  0.41800000000E+01 0. -1.
         -5    1    3    3    0  502  0.21828266558E+02 -0.53770658415E+02  0.22585017600E+02  0.62412437441E+02  0.41800000000E+01 0. -1.
        -11    1    4    4    0    0 -0.12363576772E+02  0.50052220561E+02 -0.44697563481E+01  0.51749990681E+02  0.00000000000E+00 0.  1.
         11    1    4    4    0    0 -0.24057891315E+02 -0.10155198038E+02 -0.89786855463E+02  0.93507163339E+02  0.00000000000E+00 0. -1.
</event>
<event>
 8    1  0.4798744E-006  0.1911425E+03  0.7561462E-02  0.1157435E+00
          1   -1    0    0  501    0  0.00000000000E+00  0.00000000000E+00  0.26439866622E+03  0.26439866622E+03  0.00000000000E+00 0. -1.
         -1   -1    0    0    0  501 -0.00000000000E+00 -0.00000000000E+00 -0.15316708598E+03  0.15316708598E+03  0.00000000000E+00 0.  1.
         23    2    1    2    0    0 -0.95134204413E+02 -0.14050256287E+03  0.50713113983E+02  0.21681988997E+03  0.12509019839E+03 0.  0.
         23    2    1    2    0    0  0.95134204413E+02  0.14050256287E+03  0.60518466251E+02  0.20074586222E+03  0.88571606167E+02 0.  0.
          5    1    3    3  502    0 -0.47561537608E+02 -0.15022644344E+03  0.19230626340E+02  0.15879979080E+03  0.41800000000E+01 0. -1.
         -5    1    3    3    0  502 -0.47572666805E+02  0.97238805642E+01  0.31482487643E+02  0.58020099176E+02  0.41800000000E+01 0. -1.
        -11    1    4    4    0    0 -0.53045948237E+01  0.89919507695E+01 -0.15463075607E+02  0.18657454599E+02  0.00000000000E+00 0.  1.
         11    1    4    4    0    0  0.10043879924E+03  0.13151061210E+03  0.75981541858E+02  0.18208840762E+03  0.00000000000E+00 0. -1.
</event>
<event>
 8    1  0.4798744E-006  0.8738417E+02  0.7561462E-02  0.1309313E+00
          1   -1    0    0  501    0  0.00000000000E+00  0.00000000000E+00  0.13552126468E+03  0.13552126468E+03  0.00000000000E+00 0. -1.
         -1   -1    0    0    0  501 -0.00000000000E+00 -0.00000000000E+00 -0.12016638313E+03  0.12016638313E+03  0.00000000000E+00 0.  1.
         23    2    1    2    0    0  0.22620516716E+02 -0.36499127831E+02 -0.40589413848E+02  0.13834420710E+03  0.12509094696E+03 0.  0.
         23    2    1    2    0    0 -0.22620516716E+02  0.36499127831E+02  0.55944295393E+02  0.11734344071E+03  0.93786165194E+02 0.  0.
          5    1    3    3  502    0  0.61416304659E+02 -0.39801910548E+02  0.10414439211E+02  0.74041120368E+02  0.41800000000E+01 0. -1.
         -5    1    3    3    0  502 -0.38795787943E+02  0.33027827171E+01 -0.51003853059E+02  0.64303086727E+02  0.41800000000E+01 0. -1.
        -11    1    4    4    0    0  0.43461777256E+01  0.35028066252E+02 -0.17278548781E+02  0.39298892277E+02  0.00000000000E+00 0.  1.
         11    1    4    4    0    0 -0.26966694441E+02  0.14710615789E+01  0.73222844175E+02  0.78044548434E+02  0.00000000000E+00 0. -1.
</event>
<event>
 8    1  0.4798744E-006  0.1229423E+03  0.7561462E-02  0.1238321E+00
         -1   -1    0    0    0  501 -0.00000000000E+00  0.00000000000E+00  0.42812626004E+02  0.42812626004E+02  0.00000000000E+00 0.  1.
          1   -1    0    0  501    0  0.00000000000E+00 -0.00000000000E+00 -0.51754720203E+03  0.51754720203E+03  0.00000000000E+00 0. -1.
         23    2    1    2    0    0 -0.91422573172E+02  0.13424259987E+02 -0.17872299016E+03  0.23691286094E+03  0.12508996293E+03 0.  0.
         23    2    1    2    0    0  0.91422573172E+02 -0.13424259987E+02 -0.29601158587E+03  0.32344696710E+03  0.91960773782E+02 0.  0.
          5    1    3    3  502    0  0.99501559333E+01  0.41673939860E+02 -0.87762353368E+02  0.97751858986E+02  0.41800000000E+01 0.  1.
         -5    1    3    3    0  502 -0.10137272910E+03 -0.28249679873E+02 -0.90960636792E+02  0.13916100195E+03  0.41800000000E+01 0.  1.
        -11    1    4    4    0    0  0.83417426889E+02 -0.18417232288E+01 -0.29778727456E+03  0.30925575168E+03  0.00000000000E+00 0. -1.
         11    1    4    4    0    0  0.80051462826E+01 -0.11582536759E+02  0.17756886951E+01  0.14191215421E+02  0.00000000000E+00 0.  1.
</event>
<event>
 8    1  0.4798744E-006  0.1812906E+03  0.7561462E-02  0.1166560E+00
          1   -1    0    0  501    0  0.00000000000E+00  0.00000000000E+00  0.17848523264E+03  0.17848523264E+03  0.00000000000E+00 0. -1.
         -1   -1    0    0    0  501 -0.00000000000E+00 -0.00000000000E+00 -0.21549264869E+03  0.21549264869E+03  0.00000000000E+00 0.  1.
         23    2    1    2    0    0 -0.12573107680E+03  0.94202678043E+02 -0.63120017926E+02  0.21051056977E+03  0.12509242622E+03 0.  0.
         23    2    1    2    0    0  0.12573107680E+03 -0.94202678043E+02  0.26112601870E+02  0.18346731156E+03  0.91082041088E+02 0.  0.
          5    1    3    3  502    0 -0.10502072232E+02 -0.29369539449E+02 -0.55049677005E+01  0.31947463717E+02  0.41800000000E+01 0.  1.
         -5    1    3    3    0  502 -0.11522900457E+03  0.12357221749E+03 -0.57615050225E+02  0.17856310605E+03  0.41800000000E+01 0.  1.
        -11    1    4    4    0    0  0.57470880524E+02 -0.67874237210E+02 -0.27129889125E+02  0.92983036458E+02  0.00000000000E+00 0.  1.
         11    1    4    4    0    0  0.68260196280E+02 -0.26328440833E+02  0.53242490995E+02  0.90484275099E+02  0.00000000000E+00 0. -1.
</event>
<event>
 8    1  0.4798744E-006  0.2136228E+03  0.7561462E-02  0.1138729E+00
         -4   -1    0    0    0  501 -0.00000000000E+00  0.00000000000E+00  0.19268564081E+04  0.19268564081E+04  0.00000000000E+00 0. -1.
          4   -1    0    0  501    0  0.00000000000E+00 -0.00000000000E+00 -0.33543095168E+02  0.33543095168E+02  0.00000000000E+00 0.  1.
         23    2    1    2    0    0  0.18403468239E+03 -0.79267921784E+02  0.14188963815E+04  0.14384253403E+04  0.12509336683E+03 0.  0.
         23    2    1    2    0    0 -0.18403468239E+03  0.79267921784E+02  0.47441693148E+03  0.52197416302E+03  0.85049598705E+02 0.  0.
          5    1    3    3  502    0  0.16500956436E+02 -0.35654752723E+02  0.89956979671E+02  0.98251074022E+02  0.41800000000E+01 0.  1.
         -5    1    3    3    0  502  0.16753372595E+03 -0.43613169061E+02  0.13289394018E+04  0.13401742663E+04  0.41800000000E+01 0.  1.
        -11    1    4    4    0    0 -0.86721993191E+02 -0.35355966618E+01  0.14998869721E+03  0.17329112452E+03  0.00000000000E+00 0.  1.
         11    1    4    4    0    0 -0.97312689197E+02  0.82803518445E+02  0.32442823427E+03  0.34868303850E+03  0.00000000000E+00 0. -1.
</event>
<event>
 8    1  0.4798744E-006  0.1019359E+03  0.7561462E-02  0.1276277E+00
          2   -1    0    0  501    0  0.00000000000E+00  0.00000000000E+00  0.56089906694E+03  0.56089906694E+03  0.00000000000E+00 0. -1.
         -2   -1    0    0    0  501 -0.00000000000E+00 -0.00000000000E+00 -0.20594002559E+02  0.20594002559E+02  0.00000000000E+00 0.  1.
         23    2    1    2    0    0  0.84042444372E+01  0.26121071703E+01  0.29922405719E+03  0.32443975075E+03  0.12509460836E+03 0.  0.
         23    2    1    2    0    0 -0.84042444372E+01 -0.26121071703E+01  0.24108100719E+03  0.25705331875E+03  0.88763180551E+02 0.  0.
          5    1    3    3  502    0  0.64246227383E+02 -0.38858489476E+01  0.20207482569E+03  0.21211879957E+03  0.41800000000E+01 0.  1.
         -5    1    3    3    0  502 -0.55841982945E+02  0.64979561179E+01  0.97149231500E+02  0.11232095118E+03  0.41800000000E+01 0.  1.
        -11    1    4    4    0    0 -0.33055456212E+02 -0.31058343508E+02  0.83339315010E+02  0.94882692380E+02  0.00000000000E+00 0.  1.
         11    1    4    4    0    0  0.24651211775E+02  0.28446236338E+02  0.15774169218E+03  0.16217062637E+03  0.00000000000E+00 0. -1.
</event>
<event>
 8    1  0.4798744E-006  0.1726228E+03  0.7561462E-02  0.1175140E+00
          3   -1    0    0  501    0  0.00000000000E+00  0.00000000000E+00  0.55527051126E+03  0.55527051126E+03  0.00000000000E+00 0. -1.
         -3   -1    0    0    0  501 -0.00000000000E+00 -0.00000000000E+00 -0.71516367521E+02  0.71516367521E+02  0.00000000000E+00 0.  1.
         23    2    1    2    0    0  0.37330940990E+02 -0.15622369348E+03  0.18112994964E+03  0.27249327318E+03  0.12508030906E+03 0.  0.
         23    2    1    2    0    0 -0.37330940990E+02  0.15622369348E+03  0.30262419410E+03  0.35429360560E+03  0.90239207413E+02 0.  0.
          5    1    3    3  502    0 -0.27502574604E+02 -0.27254606748E+02 -0.23326589272E+01  0.39014342190E+02  0.41800000000E+01 0.  1.
         -5    1    3    3    0  502  0.64833515594E+02 -0.12896908673E+03  0.18346260856E+03  0.23347893099E+03  0.41800000000E+01 0.  1.
        -11    1    4    4    0    0 -0.23878433569E+01  0.50241742034E+02  0.27335829209E+02  0.57246676734E+02  0.00000000000E+00 0.  1.
         11    1    4    4    0    0 -0.34943097633E+02  0.10598195144E+03  0.27528836489E+03  0.29704692886E+03  0.00000000000E+00 0. -1.
</event>
<event>
 8    1  0.4798744E-006  0.1369277E+03  0.7561462E-02  0.1217524E+00
         -2   -1    0    0    0  501 -0.00000000000E+00  0.00000000000E+00  0.83609126186E+02  0.83609126186E+02  0.00000000000E+00 0.  1.
          2   -1    0    0  501    0  0.00000000000E+00 -0.00000000000E+00 -0.36146149710E+03  0.36146149710E+03  0.00000000000E+00 0. -1.
         23    2    1    2    0    0  0.12209161517E+03 -0.23717449848E+02 -0.78498762953E+02  0.19230990770E+03  0.12390385343E+03 0.  0.
         23    2    1    2    0    0 -0.12209161517E+03  0.23717449848E+02 -0.19935360796E+03  0.25276071558E+03  0.93151695704E+02 0.  0.
          5    1    3    3  502    0  0.63796206240E+02 -0.11105880835E+02 -0.10772447189E+03  0.12575901862E+03  0.41800000000E+01 0. -1.
         -5    1    3    3    0  502  0.58295408929E+02 -0.12611569013E+02  0.29225708938E+02  0.66550889086E+02  0.41800000000E+01 0.  1.
        -11    1    4    4    0    0 -0.70991526729E+02 -0.28145050132E+02 -0.13724581045E+03  0.15706162230E+03  0.00000000000E+00 0. -1.
         11    1    4    4    0    0 -0.51100088440E+02  0.51862499980E+02 -0.62107797510E+02  0.95699093278E+02  0.00000000000E+00 0.  1.
</event>
<event>
 8    1  0.4798744E-006  0.7726390E+02  0.7561462E-02  0.1337000E+00
          1   -1    0    0  501    0  0.00000000000E+00  0.00000000000E+00  0.36877849748E+02  0.36877849748E+02  0.00000000000E+00 0. -1.
         -1   -1    0    0    0  501 -0.00000000000E+00 -0.00000000000E+00 -0.41965599122E+03  0.41965599122E+03  0.00000000000E+00 0.  1.
         23    2    1    2    0    0 -0.30657151518E+02  0.89393458724E+01 -0.30854044084E+03  0.33446057197E+03  0.12508756023E+03 0.  0.
         23    2    1    2    0    0  0.30657151518E+02 -0.89393458724E+01 -0.74237700633E+02  0.12207326900E+03  0.91492480376E+02 0.  0.
          5    1    3    3  502    0 -0.16113521911E+02  0.31911525873E+02 -0.13970183476E+02  0.38608671284E+02  0.41800000000E+01 0. -1.
         -5    1    3    3    0  502 -0.14543629606E+02 -0.22972180000E+02 -0.29457025736E+03  0.29585190068E+03  0.41800000000E+01 0. -1.
        -11    1    4    4    0    0  0.42420898979E+02  0.28946997349E+02 -0.20541020918E+02  0.55311796807E+02  0.00000000000E+00 0.  1.
         11    1    4    4    0    0 -0.11763747461E+02 -0.37886343221E+02 -0.53696679715E+02  0.66761472193E+02  0.00000000000E+00 0. -1.
</event>
<event>
 8    1  0.4798744E-006  0.2056202E+03  0.7561462E-02  0.1145082E+00
         -1   -1    0    0    0  501 -0.00000000000E+00  0.00000000000E+00  0.83529712971E+03  0.83529712971E+03  0.00000000000E+00 0.  1.
          1   -1    0    0  501    0  0.00000000000E+00 -0.00000000000E+00 -0.69037157812E+02  0.69037157812E+02  0.00000000000E+00 0. -1.
         23    2    1    2    0    0  0.62193014029E+02 -0.18145970419E+03  0.21748963981E+03  0.31582412852E+03  0.12509013348E+03 0.  0.
         23    2    1    2    0    0 -0.62193014029E+02  0.18145970419E+03  0.54877033209E+03  0.58851015900E+03  0.91650066157E+02 0.  0.
          5    1    3    3  502    0  0.17635048229E+02 -0.13905908869E+03  0.21165737112E+03  0.25389907487E+03  0.41800000000E+01 0.  1.
         -5    1    3    3    0  502  0.44557965800E+02 -0.42400615504E+02  0.58322686894E+01  0.61925053649E+02  0.41800000000E+01 0.  1.
        -11    1    4    4    0    0 -0.37975117468E+02  0.18119949228E+03  0.44548637947E+03  0.48242458462E+03  0.00000000000E+00 0.  1.
         11    1    4    4    0    0 -0.24217896561E+02  0.26021191476E+00  0.10328395262E+03  0.10608557438E+03  0.00000000000E+00 0. -1.
</event>
<event>
 8    1  0.4798744E-006  0.1262423E+03  0.7561462E-02  0.1233140E+00
         -4   -1    0    0    0  501 -0.00000000000E+00  0.00000000000E+00  0.88332433085E+02  0.88332433085E+02  0.00000000000E+00 0.  1.
          4   -1    0    0  501    0  0.00000000000E+00 -0.00000000000E+00 -0.24767870293E+03  0.24767870293E+03  0.00000000000E+00 0. -1.
         23    2    1    2    0    0  0.63102213629E+02  0.50252995221E+02 -0.17171982164E+02  0.14983358564E+03  0.12509186033E+03 0.  0.
         23    2    1    2    0    0 -0.63102213629E+02 -0.50252995221E+02 -0.14217428769E+03  0.18617755038E+03  0.89113968002E+02 0.  0.
          5    1    3    3  502    0 -0.28063864374E+02 -0.19109353915E+02 -0.46249488512E+01  0.34519710928E+02  0.41800000000E+01 0.  1.
         -5    1    3    3    0  502  0.91166078003E+02  0.69362349136E+02 -0.12547033313E+02  0.11531387471E+03  0.41800000000E+01 0.  1.
        -11    1    4    4    0    0 -0.23926816413E+02 -0.58859791288E+02 -0.36793412855E+02  0.73421541823E+02  0.00000000000E+00 0.  1.
         11    1    4    4    0    0 -0.39175397217E+02  0.86067960676E+01 -0.10538087483E+03  0.11275600856E+03  0.00000000000E+00 0. -1.
</event>
<event>
 8    1  0.4798744E-006  0.7208772E+02  0.7561462E-02  0.1353134E+00
          1   -1    0    0  501    0  0.00000000000E+00  0.00000000000E+00  0.30989470826E+03  0.30989470826E+03  0.00000000000E+00 0. -1.
         -1   -1    0    0    0  501 -0.00000000000E+00 -0.00000000000E+00 -0.41454200769E+02  0.41454200769E+02  0.00000000000E+00 0.  1.
         23    2    1    2    0    0  0.35068358988E+00  0.27626123217E+02  0.88091691374E+02  0.14654954849E+03  0.11381255823E+03 0.  0.
         23    2    1    2    0    0 -0.35068358988E+00 -0.27626123217E+02  0.18034881612E+03  0.20479936054E+03  0.93025571417E+02 0.  0.
          5    1    3    3  502    0  0.36201320437E+01  0.49336923300E+02  0.10655939054E+03  0.11755685207E+03  0.41800000000E+01 0. -1.
         -5    1    3    3    0  502 -0.32694484539E+01 -0.21710800084E+02 -0.18467699165E+02  0.28992696424E+02  0.41800000000E+01 0.  1.
        -11    1    4    4    0    0  0.82098196193E+01 -0.48724191489E+02  0.42774611410E+02  0.65353770784E+02  0.00000000000E+00 0.  1.
         11    1    4    4    0    0 -0.85605032092E+01  0.21098068272E+02  0.13757420471E+03  0.13944558975E+03  0.00000000000E+00 0. -1.
</event>
<event>
 8    1  0.4798744E-006  0.1584738E+03  0.7561462E-02  0.1190431E+00
         -1   -1    0    0    0  501 -0.00000000000E+00  0.00000000000E+00  0.26885659779E+02  0.26885659779E+02  0.00000000000E+00 0.  1.
          1   -1    0    0  501    0  0.00000000000E+00 -0.00000000000E+00 -0.11151237859E+04  0.11151237859E+04  0.00000000000E+00 0. -1.
         23    2    1    2    0    0 -0.73346588198E+02  0.10689623396E+03 -0.45634222856E+03  0.49061399906E+03  0.12508932676E+03 0.  0.
         23    2    1    2    0    0  0.73346588198E+02 -0.10689623396E+03 -0.63189589761E+03  0.65139544667E+03  0.90648087089E+02 0.  0.
          5    1    3    3  502    0 -0.94938514573E+02  0.81492895142E+02 -0.43019076443E+03  0.44803569022E+03  0.41800000000E+01 0. -1.
         -5    1    3    3    0  502  0.21591926375E+02  0.25403338814E+02 -0.26151464131E+02  0.42578308840E+02  0.41800000000E+01 0. -1.
        -11    1    4    4    0    0  0.73100711218E+02 -0.26489478150E+02 -0.31689876573E+03  0.32629776915E+03  0.00000000000E+00 0.  1.
         11    1    4    4    0    0  0.24587698048E+00 -0.80406755806E+02 -0.31499713188E+03  0.32509767752E+03  0.00000000000E+00 0. -1.
</event>
<event>
 8    1  0.4798744E-006  0.1451607E+03  0.7561462E-02  0.1206549E+00
          1   -1    0    0  501    0  0.00000000000E+00  0.00000000000E+00  0.60901351761E+03  0.60901351761E+03  0.00000000000E+00 0. -1.
         -1   -1    0    0    0  501 -0.00000000000E+00 -0.00000000000E+00 -0.53681943567E+02  0.53681943567E+02  0.00000000000E+00 0.  1.
         23    2    1    2    0    0  0.12372962085E+03  0.61571459199E+02  0.22016785481E+03  0.28847996298E+03  0.12508693412E+03 0.  0.
         23    2    1    2    0    0 -0.12372962085E+03 -0.61571459199E+02  0.33516371924E+03  0.37421549820E+03  0.92749429829E+02 0.  0.
          5    1    3    3  502    0  0.11009463215E+03  0.73979319229E+02  0.98284954091E+02  0.16513985680E+03  0.41800000000E+01 0. -1.
         -5    1    3    3    0  502  0.13634988700E+02 -0.12407860030E+02  0.12188290072E+03  0.12334010619E+03  0.41800000000E+01 0. -1.
        -11    1    4    4    0    0 -0.25106787645E+02 -0.73264158472E+01  0.66953270350E+01  0.26997306516E+02  0.00000000000E+00 0.  1.
         11    1    4    4    0    0 -0.98622833206E+02 -0.54245043352E+02  0.32846839220E+03  0.34721819168E+03  0.00000000000E+00 0. -1.
</event>
<event>
 8    1  0.4798744E-006  0.4685129E+02  0.7561462E-02  0.1463105E+00
         -1   -1    0    0    0  501 -0.00000000000E+00  0.00000000000E+00  0.12570904411E+03  0.12570904411E+03  0.00000000000E+00 0.  1.
          1   -1    0    0  501    0  0.00000000000E+00 -0.00000000000E+00 -0.95776656849E+02  0.95776656849E+02  0.00000000000E+00 0. -1.
         23    2    1    2    0    0  0.18529438669E+02  0.18885804231E+02  0.68592503576E+02  0.14510987758E+03  0.12510767892E+03 0.  0.
         23    2    1    2    0    0 -0.18529438669E+02 -0.18885804231E+02 -0.38660116318E+02  0.76375823380E+02  0.60321207750E+02 0.  0.
          5    1    3    3  502    0 -0.97312436008E+00 -0.33376166100E+01  0.10094007158E+03  0.10108638437E+03  0.41800000000E+01 0.  1.
         -5    1    3    3    0  502  0.19502563029E+02  0.22223420841E+02 -0.32347567999E+02  0.44023493206E+02  0.41800000000E+01 0.  1.
        -11    1    4    4    0    0 -0.23502703349E+02  0.12504760247E+02 -0.35590555218E+02  0.44445851485E+02  0.00000000000E+00 0. -1.
         11    1    4    4    0    0  0.49732646797E+01 -0.31390564478E+02 -0.30695610996E+01  0.31929971894E+02  0.00000000000E+00 0.  1.
</event>
<event>
 8    1  0.4798744E-006  0.1000678E+03  0.7561462E-02  0.1280153E+00
         -2   -1    0    0    0  501 -0.00000000000E+00  0.00000000000E+00  0.19316191111E+03  0.19316191111E+03  0.00000000000E+00 0.  1.
          2   -1    0    0  501    0  0.00000000000E+00 -0.00000000000E+00 -0.10032382794E+03  0.10032382794E+03  0.00000000000E+00 0. -1.
         23    2    1    2    0    0  0.14718390864E+02 -0.40346615488E+02  0.11918967814E+03  0.17804565026E+03  0.12509833647E+03 0.  0.
         23    2    1    2    0    0 -0.14718390864E+02  0.40346615488E+02 -0.26351594967E+02  0.11544008879E+03  0.10386302101E+03 0.  0.
          5    1    3    3  502    0  0.49811393075E+01  0.23012709552E+02 -0.15723051432E+02  0.28619631305E+02  0.41800000000E+01 0. -1.
         -5    1    3    3    0  502  0.97372515569E+01 -0.63359325040E+02  0.13491272958E+03  0.14942601895E+03  0.41800000000E+01 0. -1.
        -11    1    4    4    0    0  0.32574027532E+02  0.53729973065E+02 -0.19660936276E+02  0.65837145218E+02  0.00000000000E+00 0.  1.
         11    1    4    4    0    0 -0.47292418396E+02 -0.13383357576E+02 -0.66906586914E+01  0.49602943577E+02  0.00000000000E+00 0. -1.
</event>
<event>
 8    1  0.4798744E-006  0.1170924E+03  0.7561462E-02  0.1247972E+00
         -2   -1    0    0    0  501 -0.00000000000E+00  0.00000000000E+00  0.31563957133E+02  0.31563957133E+02  0.00000000000E+00 0.  1.
          2   -1    0    0  501    0  0.00000000000E+00 -0.00000000000E+00 -0.68055780742E+03  0.68055780742E+03  0.00000000000E+00 0. -1.
         23    2    1    2    0    0 -0.94786597524E+02 -0.44375798433E+01 -0.28758922863E+03  0.32763187864E+03  0.12502356694E+03 0.  0.
         23    2    1    2    0    0  0.94786597524E+02  0.44375798433E+01 -0.36140462166E+03  0.38448988591E+03  0.90636530327E+02 0.  0.
          5    1    3    3  502    0 -0.87791946635E+02 -0.18252599557E+02 -0.29614675475E+03  0.30945267172E+03  0.41800000000E+01 0.  1.
         -5    1    3    3    0  502 -0.69946508892E+01  0.13815019714E+02  0.85575261241E+01  0.18179206916E+02  0.41800000000E+01 0.  1.
        -11    1    4    4    0    0  0.55443846931E+01  0.33937593608E+02 -0.64944911661E+02  0.73487019345E+02  0.00000000000E+00 0.  1.
         11    1    4    4    0    0  0.89242212831E+02 -0.29500013765E+02 -0.29645970999E+03  0.31100286657E+03  0.00000000000E+00 0. -1.
</event>
<event>
 8    1  0.4798744E-006  0.1332547E+03  0.7561462E-02  0.1222705E+00
          1   -1    0    0  501    0  0.00000000000E+00  0.00000000000E+00  0.49516776238E+03  0.49516776238E+03  0.00000000000E+00 0. -1.
         -1   -1    0    0    0  501 -0.00000000000E+00 -0.00000000000E+00 -0.57800390379E+02  0.57800390379E+02  0.00000000000E+00 0.  1.
         23    2    1    2    0    0  0.50832957433E+02  0.11729074355E+03  0.20225290558E+03  0.26999052094E+03  0.12509010952E+03 0.  0.
         23    2    1    2    0    0 -0.50832957433E+02 -0.11729074355E+03  0.23511446643E+03  0.28297763182E+03  0.91958793501E+02 0.  0.
          5    1    3    3  502    0  0.63851779041E+01  0.61114008194E+02  0.70185947230E+01  0.61987301654E+02  0.41800000000E+01 0.  1.
         -5    1    3    3    0  502  0.44447779529E+02  0.56176735357E+02  0.19523431085E+03  0.20800321929E+03  0.41800000000E+01 0.  1.
        -11    1    4    4    0    0 -0.42893470970E+01 -0.56201803840E+02  0.29775435566E+02  0.63746512191E+02  0.00000000000E+00 0.  1.
         11    1    4    4    0    0 -0.46543610336E+02 -0.61088939711E+02  0.20533903086E+03  0.21923111963E+03  0.00000000000E+00 0. -1.
</event>
<event>
 8    1  0.4798744E-006  0.1019824E+03  0.7561462E-02  0.1276182E+00
          1   -1    0    0  501    0  0.00000000000E+00  0.00000000000E+00  0.42364585109E+03  0.42364585109E+03  0.00000000000E+00 0. -1.
         -1   -1    0    0    0  501 -0.00000000000E+00 -0.00000000000E+00 -0.49302136661E+02  0.49302136661E+02  0.00000000000E+00 0.  1.
         23    2    1    2    0    0 -0.92722779375E+02  0.21698728388E+02  0.22150989539E+03  0.27162962379E+03  0.12509064766E+03 0.  0.
         23    2    1    2    0    0  0.92722779375E+02 -0.21698728388E+02  0.15283381903E+03  0.20131836396E+03  0.90014214427E+02 0.  0.
          5    1    3    3  502    0 -0.60340369684E+02  0.38727024285E+02  0.32090533223E+02  0.78663952011E+02  0.41800000000E+01 0.  1.
         -5    1    3    3    0  502 -0.32382409692E+02 -0.17028295897E+02  0.18941936217E+03  0.19296567177E+03  0.41800000000E+01 0.  1.
        -11    1    4    4    0    0  0.62850930465E+02 -0.12695325352E+02  0.23526016319E+02  0.68299957467E+02  0.00000000000E+00 0.  1.
         11    1    4    4    0    0  0.29871848910E+02 -0.90034030359E+01  0.12930780271E+03  0.13301840649E+03  0.00000000000E+00 0. -1.
</event>
<event>
 8    1  0.4798744E-006  0.9492631E+02  0.7561462E-02  0.1291342E+00
         -2   -1    0    0    0  501 -0.00000000000E+00  0.00000000000E+00  0.54755645018E+02  0.54755645018E+02  0.00000000000E+00 0.  1.
          2   -1    0    0  501    0  0.00000000000E+00 -0.00000000000E+00 -0.25677036164E+03  0.25677036164E+03  0.00000000000E+00 0. -1.
         23    2    1    2    0    0 -0.44168971045E+02  0.17268781830E+02 -0.13050339432E+03  0.18689207795E+03  0.12509358115E+03 0.  0.
         23    2    1    2    0    0  0.44168971045E+02 -0.17268781830E+02 -0.71511322304E+02  0.12463392870E+03  0.90391582226E+02 0.  0.
          5    1    3    3  502    0 -0.34191826468E+02  0.66516328254E+02 -0.10857815302E+03  0.13190978218E+03  0.41800000000E+01 0.  1.
         -5    1    3    3    0  502 -0.99771445771E+01 -0.49247546425E+02 -0.21925241298E+02  0.54982295775E+02  0.41800000000E+01 0.  1.
        -11    1    4    4    0    0  0.46720068978E+02  0.35068724821E+00  0.41508783757E+01  0.46905411395E+02  0.00000000000E+00 0.  1.
         11    1    4    4    0    0 -0.25510979323E+01 -0.17619469078E+02 -0.75662200680E+02  0.77728517309E+02  0.00000000000E+00 0. -1.
</event>
<event>
 8    1  0.4798744E-006  0.8675231E+02  0.7561462E-02  0.1310913E+00
          1   -1    0    0  501    0  0.00000000000E+00  0.00000000000E+00  0.22015323067E+02  0.22015323067E+02  0.00000000000E+00 0. -1.
         -1   -1    0    0    0  501 -0.00000000000E+00 -0.00000000000E+00 -0.54859830382E+03  0.54859830382E+03  0.00000000000E+00 0.  1.
         23    2    1    2    0    0 -0.16765158495E+02  0.31858453863E+01 -0.35058219068E+03  0.37082352020E+03  0.11962855244E+03 0.  0.
         23    2    1    2    0    0  0.16765158495E+02 -0.31858453863E+01 -0.17600079007E+03  0.19979010669E+03  0.92997787476E+02 0.  0.
          5    1    3    3  502    0  0.12221425526E+02 -0.37135961154E+02 -0.39350163821E+02  0.55626887792E+02  0.41800000000E+01 0. -1.
         -5    1    3    3    0  502 -0.28986584021E+02  0.40321806540E+02 -0.31123202686E+03  0.31519663241E+03  0.41800000000E+01 0.  1.
        -11    1    4    4    0    0 -0.18473592209E+02  0.30463448565E+02 -0.12182113542E+03  0.12692393132E+03  0.00000000000E+00 0.  1.
         11    1    4    4    0    0  0.35238750704E+02 -0.33649293951E+02 -0.54179654655E+02  0.72866175371E+02  0.00000000000E+00 0. -1.
</event>
<event>
 8    1  0.4798744E-006  0.1565145E+03  0.7561462E-02  0.1192689E+00
         -2   -1    0    0    0  501 -0.00000000000E+00  0.00000000000E+00  0.11158990701E+03  0.11158990701E+03  0.00000000000E+00 0. -1.
          2   -1    0    0  501    0  0.00000000000E+00 -0.00000000000E+00 -0.31824248546E+03  0.31824248546E+03  0.00000000000E+00 0.  1.
         23    2    1    2    0    0 -0.11365791025E+03  0.10406704030E+03 -0.10445272380E+03  0.22428992634E+03  0.12509008797E+03 0.  0.
         23    2    1    2    0    0  0.11365791025E+03 -0.10406704030E+03 -0.10219985465E+03  0.20554246614E+03  0.89748680524E+02 0.  0.
          5    1    3    3  502    0 -0.42508822037E+02  0.64316787891E+02  0.15948418782E+02  0.78838275078E+02  0.41800000000E+01 0. -1.
         -5    1    3    3    0  502 -0.71149088213E+02  0.39750252411E+02 -0.12040114258E+03  0.14545165126E+03  0.41800000000E+01 0. -1.
        -11    1    4    4    0    0  0.24996136659E+02 -0.26222044356E+02 -0.76710122997E+02  0.84834223214E+02  0.00000000000E+00 0.  1.
         11    1    4    4    0    0  0.88661773592E+02 -0.77844995946E+02 -0.25489731657E+02  0.12070824293E+03  0.00000000000E+00 0. -1.
</event>
<event>
 7    1  0.4798744E-006  0.8476006E+02  0.7561462E-02  0.1316061E+00
          2   -1    0    0  501    0  0.00000000000E+00  0.00000000000E+00  0.14695748412E+03  0.14695748412E+03  0.00000000000E+00 0. -1.
         -2   -1    0    0    0  501 -0.00000000000E+00 -0.00000000000E+00 -0.13934366224E+03  0.13934366224E+03  0.00000000000E+00 0.  1.
         23    2    1    2    0    0 -0.11182381517E+02  0.25478362851E+02 -0.22719401090E+02  0.13014326735E+03  0.12508759419E+03 0.  0.
          5    1    3    3  502    0 -0.74527207748E+01 -0.34239905989E+01  0.50444887249E+02  0.51277927104E+02  0.41800000000E+01 0. -1.
         -5    1    3    3    0  502 -0.37296607426E+01  0.28902353450E+02 -0.73164288338E+02  0.78865340247E+02  0.41800000000E+01 0. -1.
        -11    1    1    2    0    0 -0.24607464467E+02  0.45305525286E+02  0.52722132243E+02  0.73741041199E+02  0.00000000000E+00 0. -1.
         11    1    1    2    0    0  0.35789845984E+02 -0.70783888137E+02 -0.22388909273E+02  0.82416837805E+02  0.00000000000E+00 0.  1.
</event>
<event>
 8    1  0.4798744E-006  0.1047877E+03  0.7561462E-02  0.1270538E+00
          1   -1    0    0  501    0  0.00000000000E+00  0.00000000000E+00  0.66509568711E+03  0.66509568711E+03  0.00000000000E+00 0. -1.
         -1   -1    0    0    0  501 -0.00000000000E+00 -0.00000000000E+00 -0.26417783356E+02  0.26417783356E+02  0.00000000000E+00 0.  1.
         23    2    1    2    0    0  0.36391461483E+02  0.57178584584E+02  0.30053374030E+03  0.33250312118E+03  0.12507624685E+03 0.  0.
         23    2    1    2    0    0 -0.36391461483E+02 -0.57178584584E+02  0.33814416345E+03  0.35901034929E+03  0.99765858978E+02 0.  0.
          5    1    3    3  502    0  0.40273323869E+02  0.79926622292E+02  0.11644016752E+03  0.14692171582E+03  0.41800000000E+01 0.  1.
         -5    1    3    3    0  502 -0.38818623856E+01 -0.22748037708E+02  0.18409357278E+03  0.18558140536E+03  0.41800000000E+01 0.  1.
        -11    1    4    4    0    0 -0.15710189798E+02 -0.70299447808E+02  0.32132255992E+03  0.32929775271E+03  0.00000000000E+00 0. -1.
         11    1    4    4    0    0 -0.20681271686E+02  0.13120863223E+02  0.16821603531E+02  0.29712596581E+02  0.00000000000E+00 0.  1.
</event>
<event>
 8    1  0.4798744E-006  0.1252056E+03  0.7561462E-02  0.1234748E+00
          3   -1    0    0  501    0  0.00000000000E+00  0.00000000000E+00  0.74424078123E+02  0.74424078123E+02  0.00000000000E+00 0. -1.
         -3   -1    0    0    0  501 -0.00000000000E+00 -0.00000000000E+00 -0.27549972594E+03  0.27549972594E+03  0.00000000000E+00 0.  1.
         23    2    1    2    0    0 -0.24121319167E+01  0.90332660296E+02 -0.15157212943E+03  0.21630440341E+03  0.12509067359E+03 0.  0.
         23    2    1    2    0    0  0.24121319167E+01 -0.90332660296E+02 -0.49503518391E+02  0.13361940065E+03  0.85074896425E+02 0.  0.
          5    1    3    3  502    0 -0.51694340622E+02  0.90701438576E+02 -0.95716793393E+02  0.14169768082E+03  0.41800000000E+01 0. -1.
         -5    1    3    3    0  502  0.49282208706E+02 -0.36877828021E+00 -0.55855336036E+02  0.74606722593E+02  0.41800000000E+01 0. -1.
        -11    1    4    4    0    0 -0.14825816674E+02 -0.26674528796E+02 -0.59543659634E+02  0.66908764218E+02  0.00000000000E+00 0.  1.
         11    1    4    4    0    0  0.17237948591E+02 -0.63658131499E+02  0.10040141243E+02  0.66710636437E+02  0.00000000000E+00 0. -1.
</event>
<event>
 8    1  0.4798744E-006  0.9487199E+02  0.7561462E-02  0.1291465E+00
         -2   -1    0    0    0  501 -0.00000000000E+00  0.00000000000E+00  0.27008323527E+02  0.27008323527E+02  0.00000000000E+00 0. -1.
          2   -1    0    0  501    0  0.00000000000E+00 -0.00000000000E+00 -0.44317191760E+03  0.44317191760E+03  0.00000000000E+00 0.  1.
         23    2    1    2    0    0  0.12654535203E+02 -0.22138051457E+01 -0.24150473635E+03  0.27228199693E+03  0.12509160634E+03 0.  0.
         23    2    1    2    0    0 -0.12654535203E+02  0.22138051457E+01 -0.17465885772E+03  0.19789824420E+03  0.92157258434E+02 0.  0.
          5    1    3    3  502    0  0.23309497279E+02  0.44065568338E+02 -0.36810754138E+02  0.62109669107E+02  0.41800000000E+01 0.  1.
         -5    1    3    3    0  502 -0.10654962076E+02 -0.46279373484E+02 -0.20469398221E+03  0.21017232782E+03  0.41800000000E+01 0.  1.
        -11    1    4    4    0    0 -0.17800830961E+02 -0.42999920477E+02 -0.10278338196E+03  0.11282857063E+03  0.00000000000E+00 0. -1.
         11    1    4    4    0    0  0.51462957583E+01  0.45213725623E+02 -0.71875475764E+02  0.85069673568E+02  0.00000000000E+00 0.  1.
</event>
<event>
 8    1  0.4798744E-006  0.8291524E+02  0.7561462E-02  0.1320976E+00
         -2   -1    0    0    0  501 -0.00000000000E+00  0.00000000000E+00  0.19380236284E+02  0.19380236284E+02  0.00000000000E+00 0.  1.
          2   -1    0    0  501    0  0.00000000000E+00 -0.00000000000E+00 -0.69621402480E+03  0.69621402480E+03  0.00000000000E+00 0. -1.
         23    2    1    2    0    0 -0.36947502928E+02 -0.94345681465E+01 -0.42330127998E+03  0.44304076130E+03  0.12508802297E+03 0.  0.
         23    2    1    2    0    0  0.36947502928E+02  0.94345681465E+01 -0.25353250854E+03  0.27255349979E+03  0.92479988709E+02 0.  0.
          5    1    3    3  502    0 -0.22221646215E+02  0.35104787050E+02 -0.36817646347E+03  0.37053681098E+03  0.41800000000E+01 0. -1.
         -5    1    3    3    0  502 -0.14725856713E+02 -0.44539355196E+02 -0.55124816509E+02  0.72503950323E+02  0.41800000000E+01 0. -1.
        -11    1    4    4    0    0  0.41921544817E+01  0.35109343592E+02 -0.20752133939E+03  0.21051210528E+03  0.00000000000E+00 0.  1.
         11    1    4    4    0    0  0.32755348446E+02 -0.25674775446E+02 -0.46011169145E+02  0.62041394505E+02  0.00000000000E+00 0. -1.
</event>
<event>
 8    1  0.4798744E-006  0.1098517E+03  0.7561462E-02  0.1260845E+00
          2   -1    0    0  501    0  0.00000000000E+00  0.00000000000E+00  0.42720519085E+03  0.42720519085E+03  0.00000000000E+00 0. -1.
         -2   -1    0    0    0  501 -0.00000000000E+00 -0.00000000000E+00 -0.42857579820E+02  0.42857579820E+02  0.00000000000E+00 0.  1.
         23    2    1    2    0    0  0.76758324617E+02  0.20965284159E+00  0.17930665192E+03  0.23171253946E+03  0.12509173102E+03 0.  0.
         23    2    1    2    0    0 -0.76758324617E+02 -0.20965284159E+00  0.20504095910E+03  0.23835023120E+03  0.94218647051E+02 0.  0.
          5    1    3    3  502    0  0.80751294585E+02  0.32197108687E+02  0.54379380902E+02  0.10262560525E+03  0.41800000000E+01 0.  1.
         -5    1    3    3    0  502 -0.39929699688E+01 -0.31987455846E+02  0.12492727102E+03  0.12908693422E+03  0.41800000000E+01 0.  1.
        -11    1    4    4    0    0 -0.24667462265E+02 -0.31028536575E+02  0.21514906608E+02  0.45101496460E+02  0.00000000000E+00 0.  1.
         11    1    4    4    0    0 -0.52090862352E+02  0.30818883734E+02  0.18352605249E+03  0.19324873474E+03  0.00000000000E+00 0. -1.
</event>
<event>
 8    1  0.4798744E-006  0.1232151E+03  0.7561462E-02  0.1237886E+00
         -2   -1    0    0    0  501 -0.00000000000E+00  0.00000000000E+00  0.14855765794E+03  0.14855765794E+03  0.00000000000E+00 0.  1.
          2   -1    0    0  501    0  0.00000000000E+00 -0.00000000000E+00 -0.16948824401E+03  0.16948824401E+03  0.00000000000E+00 0. -1.
         23    2    1    2    0    0  0.49615111554E+02  0.52311397470E+02  0.81273602058E+02  0.16568213059E+03  0.12508808258E+03 0.  0.
         23    2    1    2    0    0 -0.49615111554E+02 -0.52311397470E+02 -0.10220418813E+03  0.15236377137E+03  0.87010810555E+02 0.  0.
          5    1    3    3  502    0 -0.25427730287E+02 -0.22902962995E+02  0.36798340465E+02  0.50425246082E+02  0.41800000000E+01 0.  1.
         -5    1    3    3    0  502  0.75042841841E+02  0.75214360465E+02  0.44475261593E+02  0.11525688450E+03  0.41800000000E+01 0.  1.
        -11    1    4    4    0    0  0.19848330848E+02 -0.22585113049E+02 -0.56655473521E+02  0.64139584101E+02  0.00000000000E+00 0. -1.
         11    1    4    4    0    0 -0.69463442401E+02 -0.29726284422E+02 -0.45548714612E+02  0.88224187265E+02  0.00000000000E+00 0.  1.
</event>
<event>
 8    1  0.4798744E-006  0.1605900E+03  0.7561462E-02  0.1188032E+00
         -2   -1    0    0    0  501 -0.00000000000E+00  0.00000000000E+00  0.40766243442E+02  0.40766243442E+02  0.00000000000E+00 0.  1.
          2   -1    0    0  501    0  0.00000000000E+00 -0.00000000000E+00 -0.81625002542E+03  0.81625002542E+03  0.00000000000E+00 0. -1.
         23    2    1    2    0    0  0.16524761268E+02  0.12839461053E+03 -0.24949938324E+03  0.30766178953E+03  0.12509033036E+03 0.  0.
         23    2    1    2    0    0 -0.16524761268E+02 -0.12839461053E+03 -0.52598439874E+03  0.54935447934E+03  0.91501434449E+02 0.  0.
          5    1    3    3  502    0 -0.72284478754E+01  0.14675405644E+03 -0.22465289942E+03  0.26846862230E+03  0.41800000000E+01 0. -1.
         -5    1    3    3    0  502  0.23753209144E+02 -0.18359445917E+02 -0.24846483820E+02  0.39193167226E+02  0.41800000000E+01 0. -1.
        -11    1    4    4    0    0  0.21475146511E+02 -0.21324163239E+02 -0.39397061824E+02  0.49679274712E+02  0.00000000000E+00 0. -1.
         11    1    4    4    0    0 -0.37999907780E+02 -0.10707044729E+03 -0.48658733691E+03  0.49967520462E+03  0.00000000000E+00 0.  1.
</event>
<event>
 8    1  0.4798744E-006  0.1127450E+03  0.7561462E-02  0.1255569E+00
         -2   -1    0    0    0  501 -0.00000000000E+00  0.00000000000E+00  0.32331476367E+02  0.32331476367E+02  0.00000000000E+00 0. -1.
          2   -1    0    0  501    0  0.00000000000E+00 -0.00000000000E+00 -0.62053712301E+03  0.62053712301E+03  0.00000000000E+00 0.  1.
         23    2    1    2    0    0  0.69069783880E+02 -0.53245711482E+02 -0.38184365939E+03  0.41116674377E+03  0.12509104738E+03 0.  0.
         23    2    1    2    0    0 -0.69069783880E+02  0.53245711482E+02 -0.20636198726E+03  0.24170185561E+03  0.90712603213E+02 0.  0.
          5    1    3    3  502    0  0.54825926660E+02  0.39573040702E+01 -0.51045035873E+02  0.75130623429E+02  0.41800000000E+01 0.  1.
         -5    1    3    3    0  502  0.14243857221E+02 -0.57203015552E+02 -0.33079862351E+03  0.33603612034E+03  0.41800000000E+01 0.  1.
        -11    1    4    4    0    0 -0.54769926535E+02 -0.13914163463E+01 -0.15839851134E+03  0.16760599419E+03  0.00000000000E+00 0.  1.
         11    1    4    4    0    0 -0.14299857346E+02  0.54637127829E+02 -0.47963475916E+02  0.74095861419E+02  0.00000000000E+00 0. -1.
</event>
<event>
 8    1  0.4798744E-006  0.1194114E+03  0.7561462E-02  0.1244071E+00
         -2   -1    0    0    0  501 -0.00000000000E+00  0.00000000000E+00  0.31749430165E+03  0.31749430165E+03  0.00000000000E+00 0.  1.
          2   -1    0    0  501    0  0.00000000000E+00 -0.00000000000E+00 -0.49889840244E+02  0.49889840244E+02  0.00000000000E+00 0. -1.
         23    2    1    2    0    0 -0.12222764677E+02 -0.50254077720E+02  0.20308803384E+03  0.24406339832E+03  0.12508926656E+03 0.  0.
         23    2    1    2    0    0  0.12222764677E+02  0.50254077720E+02  0.64516427569E+02  0.12332074357E+03  0.91491901636E+02 0.  0.
          5    1    3    3  502    0  0.52224408266E+02 -0.44994770616E+02  0.86585685719E+02  0.11075410409E+03  0.41800000000E+01 0. -1.
         -5    1    3    3    0  502 -0.64447172943E+02 -0.52593071043E+01  0.11650234812E+03  0.13330929423E+03  0.41800000000E+01 0. -1.
        -11    1    4    4    0    0  0.49703107731E+02  0.11427052384E+02  0.28253866856E+02  0.58303151172E+02  0.00000000000E+00 0. -1.
         11    1    4    4    0    0 -0.37480343054E+02  0.38827025336E+02  0.36262560714E+02  0.65017592400E+02  0.00000000000E+00 0.  1.
</event>
<event>
 8    1  0.4798744E-006  0.1531307E+03  0.7561462E-02  0.1196678E+00
          1   -1    0    0  501    0  0.00000000000E+00  0.00000000000E+00  0.85113329604E+03  0.85113329604E+03  0.00000000000E+00 0. -1.
         -1   -1    0    0    0  501 -0.00000000000E+00 -0.00000000000E+00 -0.46184914654E+02  0.46184914654E+02  0.00000000000E+00 0.  1.
         23    2    1    2    0    0  0.13227196439E+03  0.68980764145E+02  0.26043361572E+03  0.32515746041E+03  0.12508991758E+03 0.  0.
         23    2    1    2    0    0 -0.13227196439E+03 -0.68980764145E+02  0.54451476567E+03  0.57216075028E+03  0.92829821421E+02 0.  0.
          5    1    3    3  502    0  0.89148334485E+02  0.70435798907E+02  0.25776543924E+03  0.28172525867E+03  0.41800000000E+01 0.  1.
         -5    1    3    3    0  502  0.43123629907E+02 -0.14550347622E+01  0.26681764835E+01  0.43432201743E+02  0.41800000000E+01 0.  1.
        -11    1    4    4    0    0 -0.86186726924E+02 -0.43091547265E+02  0.47584096104E+03  0.48549938573E+03  0.00000000000E+00 0. -1.
         11    1    4    4    0    0 -0.46085237468E+02 -0.25889216879E+02  0.68673804625E+02  0.86661364545E+02  0.00000000000E+00 0.  1.
</event>
<event>
 8    1  0.4798744E-006  0.1171919E+03  0.7561462E-02  0.1247803E+00
          2   -1    0    0  501    0  0.00000000000E+00  0.00000000000E+00  0.99398951688E+02  0.99398951688E+02  0.00000000000E+00 0. -1.
         -2   -1    0    0    0  501 -0.00000000000E+00 -0.00000000000E+00 -0.17995326172E+03  0.17995326172E+03  0.00000000000E+00 0.  1.
         23    2    1    2    0    0 -0.26487705107E+02  0.52470316137E+02 -0.98416495896E+02  0.16966754360E+03  0.12508611469E+03 0.  0.
         23    2    1    2    0    0  0.26487705107E+02 -0.52470316137E+02  0.17862185866E+02  0.10968466981E+03  0.90867686828E+02 0.  0.
          5    1    3    3  502    0 -0.75206196583E+02  0.16096815574E+02 -0.49942536935E+02  0.91797651777E+02  0.41800000000E+01 0.  1.
         -5    1    3    3    0  502  0.48718491476E+02  0.36373500563E+02 -0.48473958961E+02  0.77869891821E+02  0.41800000000E+01 0.  1.
        -11    1    4    4    0    0 -0.19963149983E+02 -0.45186330347E+02 -0.15792590337E+02  0.51862681352E+02  0.00000000000E+00 0.  1.
         11    1    4    4    0    0  0.46450855091E+02 -0.72839857902E+01  0.33654776203E+02  0.57821988455E+02  0.00000000000E+00 0. -1.
</event>
<event>
 8    1  0.4798744E-006  0.3454129E+02  0.7561462E-02  0.1552712E+00
         -1   -1    0    0    0  501 -0.00000000000E+00  0.00000000000E+00  0.16501947833E+03  0.16501947833E+03  0.00000000000E+00 0.  1.
          1   -1    0    0  501    0  0.00000000000E+00 -0.00000000000E+00 -0.87401164358E+02  0.87401164358E+02  0.00000000000E+00 0. -1.
         23    2    1    2    0    0  0.79727829008E+01 -0.20725217441E+02  0.92546195399E+02  0.15717915243E+03  0.12508951903E+03 0.  0.
         23    2    1    2    0    0 -0.79727829008E+01  0.20725217441E+02 -0.14927881430E+02  0.95241490257E+02  0.91405688648E+02 0.  0.
          5    1    3    3  502    0  0.37054361642E+01 -0.15702756360E+02  0.12382489520E+03  0.12494152186E+03  0.41800000000E+01 0. -1.
         -5    1    3    3    0  502  0.42673467367E+01 -0.50224610808E+01 -0.31278699799E+02  0.32237630567E+02  0.41800000000E+01 0. -1.
        -11    1    4    4    0    0 -0.11287827298E+02 -0.91637790209E+01  0.34469474279E+02  0.37410353488E+02  0.00000000000E+00 0.  1.
         11    1    4    4    0    0  0.33150443969E+01  0.29888996462E+02 -0.49397355709E+02  0.57831136768E+02  0.00000000000E+00 0. -1.
</event>
<event>
 8    1  0.4798744E-006  0.1016749E+03  0.7561462E-02  0.1276813E+00
          2   -1    0    0  501    0  0.00000000000E+00  0.00000000000E+00  0.23551814495E+03  0.23551814495E+03  0.00000000000E+00 0.  1.
         -2   -1    0    0    0  501 -0.00000000000E+00 -0.00000000000E+00 -0.60352076379E+02  0.60352076379E+02  0.00000000000E+00 0. -1.
         23    2    1    2    0    0  0.48363851062E+01 -0.15108114894E+02  0.41350940180E+02  0.13270094841E+03  0.12509194897E+03 0.  0.
         23    2    1    2    0    0 -0.48363851062E+01  0.15108114894E+02  0.13381512839E+03  0.16316927292E+03  0.92011288890E+02 0.  0.
          5    1    3    3  502    0 -0.56218420304E+02 -0.86106370525E+01 -0.25837179448E+01  0.57085916392E+02  0.41800000000E+01 0. -1.
         -5    1    3    3    0  502  0.61054805410E+02 -0.64974778412E+01  0.43934658125E+02  0.75615032015E+02  0.41800000000E+01 0. -1.
        -11    1    4    4    0    0 -0.33701314525E+02 -0.20109818143E+02  0.28714249454E+02  0.48628093816E+02  0.00000000000E+00 0. -1.
         11    1    4    4    0    0  0.28864929419E+02  0.35217933037E+02  0.10510087894E+03  0.11454117911E+03  0.00000000000E+00 0.  1.
</event>
<event>
 8    1  0.4798744E-006  0.1344979E+03  0.7561462E-02  0.1220930E+00
         -2   -1    0    0    0  501 -0.00000000000E+00  0.00000000000E+00  0.15903991567E+03  0.15903991567E+03  0.00000000000E+00 0.  1.
          2   -1    0    0  501    0  0.00000000000E+00 -0.00000000000E+00 -0.21923535067E+03  0.21923535067E+03  0.00000000000E+00 0. -1.
         23    2    1    2    0    0  0.81356781833E+02  0.32216816340E+02  0.92096374895E+02  0.17828348522E+03  0.12508560920E+03 0.  0.
         23    2    1    2    0    0 -0.81356781833E+02 -0.32216816340E+02 -0.15229180989E+03  0.19999178112E+03  0.95640305054E+02 0.  0.
          5    1    3    3  502    0  0.33461042235E+02 -0.40539536050E+02  0.71214260141E+02  0.88611729348E+02  0.41800000000E+01 0. -1.
         -5    1    3    3    0  502  0.47895739597E+02  0.72756352390E+02  0.20882114754E+02  0.89671755872E+02  0.41800000000E+01 0. -1.
        -11    1    4    4    0    0 -0.19590860739E+02 -0.58678581763E+02 -0.82400182877E+02  0.10303770145E+03  0.00000000000E+00 0.  1.
         11    1    4    4    0    0 -0.61765921094E+02  0.26461765424E+02 -0.69891627015E+02  0.96954079670E+02  0.00000000000E+00 0. -1.
</event>
<event>
 8    1  0.4798744E-006  0.1364232E+03  0.7561462E-02  0.1218224E+00
          3   -1    0    0  501    0  0.00000000000E+00  0.00000000000E+00  0.26069916094E+02  0.26069916094E+02  0.00000000000E+00 0. -1.
         -3   -1    0    0    0  501 -0.00000000000E+00 -0.00000000000E+00 -0.77034721370E+03  0.77034721370E+03  0.00000000000E+00 0.  1.
         23    2    1    2    0    0  0.27540848307E+02  0.71427887085E+02 -0.47826531465E+03  0.50024726567E+03  0.12509665956E+03 0.  0.
         23    2    1    2    0    0 -0.27540848307E+02 -0.71427887085E+02 -0.26601198296E+03  0.29616986413E+03  0.10532697641E+03 0.  0.
          5    1    3    3  502    0  0.77394282641E+02  0.49103797989E+02 -0.30938236129E+03  0.32270106266E+03  0.41800000000E+01 0.  1.
         -5    1    3    3    0  502 -0.49853434334E+02  0.22324089096E+02 -0.16888295336E+03  0.17754620301E+03  0.41800000000E+01 0.  1.
        -11    1    4    4    0    0  0.26428715025E+02  0.10305106769E+02 -0.33664498092E+02  0.44022387886E+02  0.00000000000E+00 0. -1.
         11    1    4    4    0    0 -0.53969563332E+02 -0.81732993853E+02 -0.23234748487E+03  0.25214747624E+03  0.00000000000E+00 0.  1.
</event>
<event>
 8    1  0.4798744E-006  0.1455660E+03  0.7561462E-02  0.1206030E+00
         -2   -1    0    0    0  501 -0.00000000000E+00  0.00000000000E+00  0.15586751677E+03  0.15586751677E+03  0.00000000000E+00 0.  1.
          2   -1    0    0  501    0  0.00000000000E+00 -0.00000000000E+00 -0.19649741603E+03  0.19649741603E+03  0.00000000000E+00 0. -1.
         23    2    1    2    0    0  0.70322243752E+02 -0.11484048675E+03 -0.61029494803E-01  0.18376658528E+03  0.12504638651E+03 0.  0.
         23    2    1    2    0    0 -0.70322243752E+02  0.11484048675E+03 -0.40568869758E+02  0.16859834752E+03  0.92983946089E+02 0.  0.
          5    1    3    3  502    0  0.39665945361E+02 -0.11824705986E+03 -0.41881990443E+02  0.13163330852E+03  0.41800000000E+01 0.  1.
         -5    1    3    3    0  502  0.30656298391E+02  0.34065731158E+01  0.41820960949E+02  0.52133276764E+02  0.41800000000E+01 0.  1.
        -11    1    4    4    0    0 -0.61078931989E+02  0.90565729542E+02 -0.69691378686E+02  0.12957498047E+03  0.00000000000E+00 0.  1.
         11    1    4    4    0    0 -0.92433117628E+01  0.24274757205E+02  0.29122508928E+02  0.39023367051E+02  0.00000000000E+00 0. -1.
</event>
<event>
 8    1  0.4798744E-006  0.1070325E+03  0.7561462E-02  0.1266166E+00
         -2   -1    0    0    0  501 -0.00000000000E+00  0.00000000000E+00  0.51993646793E+02  0.51993646793E+02  0.00000000000E+00 0.  1.
          2   -1    0    0  501    0  0.00000000000E+00 -0.00000000000E+00 -0.36288391699E+03  0.36288391699E+03  0.00000000000E+00 0. -1.
         23    2    1    2    0    0 -0.82919930776E+02  0.58161405580E+01 -0.13636489490E+03  0.20286031879E+03  0.12508949584E+03 0.  0.
         23    2    1    2    0    0  0.82919930776E+02 -0.58161405580E+01 -0.17452537529E+03  0.21201724499E+03  0.87078488384E+02 0.  0.
          5    1    3    3  502    0 -0.60842729571E+02  0.42274269504E+02 -0.14145075381E+03  0.15973333953E+03  0.41800000000E+01 0.  1.
         -5    1    3    3    0  502 -0.22077201205E+02 -0.36458128946E+02  0.50858589128E+01  0.43126979261E+02  0.41800000000E+01 0.  1.
        -11    1    4    4    0    0  0.41054373936E+02 -0.27961333402E+02 -0.15134368068E+03  0.15928655771E+03  0.00000000000E+00 0. -1.
         11    1    4    4    0    0  0.41865556840E+02  0.22145192844E+02 -0.23181694614E+02  0.52730687278E+02  0.00000000000E+00 0.  1.
</event>
<event>
 8    1  0.4798744E-006  0.1002133E+03  0.7561462E-02  0.1279848E+00
          4   -1    0    0  501    0  0.00000000000E+00  0.00000000000E+00  0.20554364756E+03  0.20554364756E+03  0.00000000000E+00 0. -1.
         -4   -1    0    0    0  501 -0.00000000000E+00 -0.00000000000E+00 -0.82014249218E+02  0.82014249218E+02  0.00000000000E+00 0.  1.
         23    2    1    2    0    0  0.54314962511E+02 -0.18013039530E+02  0.20971024553E+02  0.13915092396E+03  0.12509440844E+03 0.  0.
         23    2    1    2    0    0 -0.54314962511E+02  0.18013039530E+02  0.10255837379E+03  0.14840697282E+03  0.90729404285E+02 0.  0.
          5    1    3    3  502    0 -0.24308481137E+01  0.22995009188E+02 -0.39885258390E+02  0.46292393618E+02  0.41800000000E+01 0. -1.
         -5    1    3    3    0  502  0.56745810624E+02 -0.41008048718E+02  0.60856282943E+02  0.92858530339E+02  0.41800000000E+01 0. -1.
        -11    1    4    4    0    0 -0.52674289460E+02  0.51262735110E+02  0.63940209697E+02  0.97420732892E+02  0.00000000000E+00 0. -1.
         11    1    4    4    0    0 -0.16406730504E+01 -0.33249695580E+02  0.38618164092E+02  0.50986239928E+02  0.00000000000E+00 0.  1.
</event>
<event>
 8    1  0.4798744E-006  0.1516115E+03  0.7561462E-02  0.1198507E+00
          1   -1    0    0  501    0  0.00000000000E+00  0.00000000000E+00  0.31900264971E+03  0.31900264971E+03  0.00000000000E+00 0. -1.
         -1   -1    0    0    0  501 -0.00000000000E+00 -0.00000000000E+00 -0.19255578887E+03  0.19255578887E+03  0.00000000000E+00 0.  1.
         23    2    1    2    0    0  0.81873327351E+02 -0.10095227442E+03 -0.12593116494E+03  0.21313764381E+03  0.11258060874E+03 0.  0.
         23    2    1    2    0    0 -0.81873327351E+02  0.10095227442E+03  0.25237802577E+03  0.29842079478E+03  0.92009235519E+02 0.  0.
          5    1    3    3  502    0 -0.76291358544E+01 -0.33188374819E+02  0.10992003333E+02  0.36027329547E+02  0.41800000000E+01 0. -1.
         -5    1    3    3    0  502  0.89502463205E+02 -0.67763899597E+02 -0.13692316827E+03  0.17711031426E+03  0.41800000000E+01 0.  1.
        -11    1    4    4    0    0  0.18899972871E+02  0.15201346022E+02  0.61999876506E+02  0.66575330132E+02  0.00000000000E+00 0.  1.
         11    1    4    4    0    0 -0.10077330022E+03  0.85750928394E+02  0.19037814927E+03  0.23184546464E+03  0.00000000000E+00 0. -1.
</event>
<event>
 8    1  0.4798744E-006  0.1120723E+03  0.7561462E-02  0.1256780E+00
         -2   -1    0    0    0  501 -0.00000000000E+00  0.00000000000E+00  0.19026129103E+03  0.19026129103E+03  0.00000000000E+00 0.  1.
          2   -1    0    0  501    0  0.00000000000E+00 -0.00000000000E+00 -0.11271826105E+03  0.11271826105E+03  0.00000000000E+00 0. -1.
         23    2    1    2    0    0  0.22446973566E+02  0.44347014042E+02  0.12998523333E+03  0.18712114926E+03  0.12509052458E+03 0.  0.
         23    2    1    2    0    0 -0.22446973566E+02 -0.44347014042E+02 -0.52442203349E+02  0.11585840282E+03  0.90567436391E+02 0.  0.
          5    1    3    3  502    0  0.28196972263E+02 -0.33452260777E+02  0.11900178532E+02  0.45532511956E+02  0.41800000000E+01 0. -1.
         -5    1    3    3    0  502 -0.57499986967E+01  0.77799274820E+02  0.11808505480E+03  0.14158863730E+03  0.41800000000E+01 0. -1.
        -11    1    4    4    0    0 -0.62828518287E+01 -0.70795926642E+02 -0.44514762083E+02  0.83863588639E+02  0.00000000000E+00 0.  1.
         11    1    4    4    0    0 -0.16164121738E+02  0.26448912599E+02 -0.79274412655E+01  0.31994814177E+02  0.00000000000E+00 0. -1.
</event>
<event>
 6    1  0.4798744E-006  0.8299174E+02  0.7561462E-02  0.1320769E+00
         -2   -1    0    0    0  501 -0.00000000000E+00  0.00000000000E+00  0.36410811205E+02  0.36410811205E+02  0.00000000000E+00 0.  1.
          2   -1    0    0  501    0  0.00000000000E+00 -0.00000000000E+00 -0.30993706150E+03  0.30993706150E+03  0.00000000000E+00 0. -1.
          5    1    1    2  502    0  0.48170276673E+02 -0.44494842281E+02 -0.97421974302E+02  0.11751034006E+03  0.41800000000E+01 0. -1.
         -5    1    1    2    0  502 -0.51201011256E+02  0.17361717404E+02 -0.95345741977E+01  0.55057726887E+02  0.41800000000E+01 0.  1.
        -11    1    1    2    0    0  0.10831440095E+02  0.33983079693E+02 -0.15034624245E+03  0.15451913285E+03  0.00000000000E+00 0. -1.
         11    1    1    2    0    0 -0.78007055115E+01 -0.68499548157E+01 -0.16223459346E+02  0.19260672901E+02  0.00000000000E+00 0.  1.
</event>
<event>
 8    1  0.4798744E-006  0.1430727E+03  0.7561462E-02  0.1209253E+00
          2   -1    0    0  501    0  0.00000000000E+00  0.00000000000E+00  0.36008842792E+03  0.36008842792E+03  0.00000000000E+00 0. -1.
         -2   -1    0    0    0  501 -0.00000000000E+00 -0.00000000000E+00 -0.62907464910E+02  0.62907464910E+02  0.00000000000E+00 0.  1.
         23    2    1    2    0    0  0.52196865301E+02  0.89061822972E+02  0.17916961790E+03  0.24167328511E+03  0.12509078184E+03 0.  0.
         23    2    1    2    0    0 -0.52196865301E+02 -0.89061822972E+02  0.11801134511E+03  0.18132260772E+03  0.91075185624E+02 0.  0.
          5    1    3    3  502    0  0.29903601656E+02  0.12000257874E+03  0.13351792062E+03  0.18204217045E+03  0.41800000000E+01 0. -1.
         -5    1    3    3    0  502  0.22293263645E+02 -0.30940755766E+02  0.45651697277E+02  0.59631114660E+02  0.41800000000E+01 0. -1.
        -11    1    4    4    0    0 -0.13630528317E+02 -0.84049876165E+02  0.11390907082E+03  0.14221620654E+03  0.00000000000E+00 0.  1.
         11    1    4    4    0    0 -0.38566336984E+02 -0.50119468067E+01  0.41022742881E+01  0.39106401183E+02  0.00000000000E+00 0. -1.
</event>
<event>
 8    1  0.4798744E-006  0.1163554E+03  0.7561462E-02  0.1249234E+00
         -1   -1    0    0    0  501 -0.00000000000E+00  0.00000000000E+00  0.49681261265E+02  0.49681261265E+02  0.00000000000E+00 0.  1.
          1   -1    0    0  501    0  0.00000000000E+00 -0.00000000000E+00 -0.29019167654E+03  0.29019167654E+03  0.00000000000E+00 0. -1.
         23    2    1    2    0    0 -0.38721835047E+02 -0.30687668797E+02 -0.11354425531E+03  0.17600814602E+03  0.12508179735E+03 0.  0.
         23    2    1    2    0    0  0.38721835047E+02  0.30687668797E+02 -0.12696615997E+03  0.16386479178E+03  0.91050264594E+02 0.  0.
          5    1    3    3  502    0 -0.70600647729E+02  0.15924949068E+02 -0.38765793658E+02  0.82208969222E+02  0.41800000000E+01 0. -1.
         -5    1    3    3    0  502  0.31878812683E+02 -0.46612617865E+02 -0.74778461649E+02  0.93799176803E+02  0.41800000000E+01 0. -1.
        -11    1    4    4    0    0  0.17839336992E+02 -0.32481928149E+02 -0.44965798176E+02  0.58268693191E+02  0.00000000000E+00 0.  1.
         11    1    4    4    0    0  0.20882498055E+02  0.63169596945E+02 -0.82000361795E+02  0.10559609859E+03  0.00000000000E+00 0. -1.
</event>
<event>
 8    1  0.4798744E-006  0.1322064E+03  0.7561462E-02  0.1224218E+00
          2   -1    0    0  501    0  0.00000000000E+00  0.00000000000E+00  0.46026621499E+03  0.46026621499E+03  0.00000000000E+00 0. -1.
         -2   -1    0    0    0  501 -0.00000000000E+00 -0.00000000000E+00 -0.10528825127E+03  0.10528825127E+03  0.00000000000E+00 0.  1.
         23    2    1    2    0    0 -0.17934497348E+02  0.83119804347E+02 -0.41492101164E+02  0.15002207467E+03  0.11642371046E+03 0.  0.
         23    2    1    2    0    0  0.17934497348E+02 -0.83119804347E+02  0.39647006489E+03  0.41553239159E+03  0.90819095117E+02 0.  0.
          5    1    3    3  502    0 -0.47254246222E+02 -0.55887474952E+01 -0.28444220626E+02  0.55594459900E+02  0.41800000000E+01 0. -1.
         -5    1    3    3    0  502  0.29319748873E+02  0.88708551842E+02 -0.13047880538E+02  0.94427614766E+02  0.41800000000E+01 0.  1.
        -11    1    4    4    0    0  0.70834410552E+01 -0.10151782937E+03  0.30225842095E+03  0.31892976946E+03  0.00000000000E+00 0. -1.
         11    1    4    4    0    0  0.10851056293E+02  0.18398025023E+02  0.94211643940E+02  0.96602622125E+02  0.00000000000E+00 0.  1.
</event>
<event>
 8    1  0.4798744E-006  0.1208707E+03  0.7561462E-02  0.1241667E+00
          1   -1    0    0  501    0  0.00000000000E+00  0.00000000000E+00  0.19314964586E+02  0.19314964586E+02  0.00000000000E+00 0.  1.
         -1   -1    0    0    0  501 -0.00000000000E+00 -0.00000000000E+00 -0.93531028594E+03  0.93531028594E+03  0.00000000000E+00 0. -1.
         23    2    1    2    0    0  0.75533859152E+02  0.25241963466E+02 -0.54065748972E+03  0.56062442743E+03  0.12508679725E+03 0.  0.
         23    2    1    2    0    0 -0.75533859152E+02 -0.25241963466E+02 -0.37533783164E+03  0.39400082310E+03  0.89530107473E+02 0.  0.
          5    1    3    3  502    0  0.97478713150E+02  0.24964649592E+02 -0.25609407986E+03  0.27518536187E+03  0.41800000000E+01 0.  1.
         -5    1    3    3    0  502 -0.21944853999E+02  0.27731387422E+00 -0.28456340986E+03  0.28543906556E+03  0.41800000000E+01 0.  1.
        -11    1    4    4    0    0 -0.71852225878E+02 -0.53883374309E+02 -0.25888992830E+03  0.27402582974E+03  0.00000000000E+00 0.  1.
         11    1    4    4    0    0 -0.36816332733E+01  0.28641410843E+02 -0.11644790334E+03  0.11997499336E+03  0.00000000000E+00 0. -1.
</event>
<event>
 8    1  0.4798744E-006  0.1772934E+03  0.7561462E-02  0.1170448E+00
          1   -1    0    0  501    0  0.00000000000E+00  0.00000000000E+00  0.70713393177E+02  0.70713393177E+02  0.00000000000E+00 0. -1.
         -1   -1    0    0    0  501 -0.00000000000E+00 -0.00000000000E+00 -0.50621765959E+03  0.50621765959E+03  0.00000000000E+00 0.  1.
         23    2    1    2    0    0  0.14204632798E+03 -0.48782305920E+02 -0.28513109762E+03  0.34571528512E+03  0.12514968187E+03 0.  0.
         23    2    1    2    0    0 -0.14204632798E+03  0.48782305920E+02 -0.15037316880E+03  0.23121576765E+03  0.91059149213E+02 0.  0.
          5    1    3    3  502    0  0.25997005541E+02  0.40003845533E+02 -0.89443372213E+02  0.10145807601E+03  0.41800000000E+01 0.  1.
         -5    1    3    3    0  502  0.11604932243E+03 -0.88786151453E+02 -0.19568772541E+03  0.24425720911E+03  0.41800000000E+01 0.  1.
        -11    1    4    4    0    0 -0.89917328816E+02  0.58797677936E+02 -0.14107395212E+03  0.17732499237E+03  0.00000000000E+00 0.  1.
         11    1    4    4    0    0 -0.52128999159E+02 -0.10015372015E+02 -0.92992166777E+01  0.53890775285E+02  0.00000000000E+00 0. -1.
</event>
<event>
 8    1  0.4798744E-006  0.9228752E+02  0.7561462E-02  0.1297405E+00
          2   -1    0    0  501    0  0.00000000000E+00  0.00000000000E+00  0.16822237337E+03  0.16822237337E+03  0.00000000000E+00 0. -1.
         -2   -1    0    0    0  501 -0.00000000000E+00 -0.00000000000E+00 -0.84483863649E+02  0.84483863649E+02  0.00000000000E+00 0.  1.
         23    2    1    2    0    0  0.37286200076E+02 -0.15061393303E+02  0.19847991926E+02  0.13288794714E+03  0.12509259541E+03 0.  0.
         23    2    1    2    0    0 -0.37286200076E+02  0.15061393303E+02  0.63890517798E+02  0.11981828988E+03  0.93044709909E+02 0.  0.
          5    1    3    3  502    0 -0.46196424689E+01 -0.55252723127E+02 -0.23441434293E+02  0.60342172245E+02  0.41800000000E+01 0. -1.
         -5    1    3    3    0  502  0.41905842545E+02  0.40191329824E+02  0.43289426219E+02  0.72545774893E+02  0.41800000000E+01 0. -1.
        -11    1    4    4    0    0 -0.31269905072E+02 -0.18719838089E+02 -0.10473190676E+02  0.37920008230E+02  0.00000000000E+00 0.  1.
         11    1    4    4    0    0 -0.60162950048E+01  0.33781231392E+02  0.74363708474E+02  0.81898281655E+02  0.00000000000E+00 0. -1.
</event>
<event>
 7    1  0.4798744E-006  0.8547126E+02  0.7561462E-02  0.1314205E+00
          2   -1    0    0  501    0  0.00000000000E+00  0.00000000000E+00  0.24152323170E+03  0.24152323170E+03  0.00000000000E+00 0. -1.
         -2   -1    0    0    0  501 -0.00000000000E+00 -0.00000000000E+00 -0.17155963881E+03  0.17155963881E+03  0.00000000000E+00 0.  1.
         23    2    1    2    0    0 -0.16735522652E+02 -0.25702088879E+00 -0.11997959229E+03  0.17393631148E+03  0.12481423840E+03 0.  0.
          5    1    3    3  502    0  0.18049844146E+02 -0.92211275492E+01  0.20348331008E+02  0.29023318931E+02  0.41800000000E+01 0.  1.
         -5    1    3    3    0  502 -0.34785366798E+02  0.89641066604E+01 -0.14032792330E+03  0.14491299255E+03  0.41800000000E+01 0.  1.
        -11    1    1    2    0    0 -0.40429712168E+02  0.29331349061E+02  0.13992399304E+02  0.51871735097E+02  0.00000000000E+00 0.  1.
         11    1    1    2    0    0  0.57165234820E+02 -0.29074328172E+02  0.17595078588E+03  0.18727482394E+03  0.00000000000E+00 0. -1.
</event>
<event>
 8    1  0.4798744E-006  0.1006382E+03  0.7561462E-02  0.1278960E+00
          2   -1    0    0  501    0  0.00000000000E+00  0.00000000000E+00  0.51903002905E+03  0.51903002905E+03  0.00000000000E+00 0. -1.
         -2   -1    0    0    0  501 -0.00000000000E+00 -0.00000000000E+00 -0.39926896803E+02  0.39926896803E+02  0.00000000000E+00 0.  1.
         23    2    1    2    0    0  0.80237408924E+02 -0.58415291395E+01  0.16661179780E+03  0.22333940747E+03  0.12509530171E+03 0.  0.
         23    2    1    2    0    0 -0.80237408924E+02  0.58415291395E+01  0.31249133444E+03  0.33561751838E+03  0.92282822264E+02 0.  0.
          5    1    3    3  502    0  0.82782964421E+02  0.16925423403E+01  0.32691994116E+02  0.89118588281E+02  0.41800000000E+01 0. -1.
         -5    1    3    3    0  502 -0.25455554971E+01 -0.75340714798E+01  0.13391980368E+03  0.13422081919E+03  0.41800000000E+01 0. -1.
        -11    1    4    4    0    0 -0.88844303531E+02 -0.11928944824E+02  0.29782037907E+03  0.31101862996E+03  0.00000000000E+00 0. -1.
         11    1    4    4    0    0  0.86068946068E+01  0.17770473964E+02  0.14670955378E+02  0.24598888418E+02  0.00000000000E+00 0.  1.
</event>
<event>
 8    1  0.4798744E-006  0.1263097E+03  0.7561462E-02  0.1233037E+00
          1   -1    0    0  501    0  0.00000000000E+00  0.00000000000E+00  0.51095035397E+02  0.51095035397E+02  0.00000000000E+00 0. -1.
         -1   -1    0    0    0  501 -0.00000000000E+00 -0.00000000000E+00 -0.47709324110E+03  0.47709324110E+03  0.00000000000E+00 0.  1.
         23    2    1    2    0    0  0.11118404973E+03 -0.35025237376E+02 -0.23354343426E+03  0.28521062358E+03  0.11495174618E+03 0.  0.
         23    2    1    2    0    0 -0.11118404973E+03  0.35025237376E+02 -0.19245477144E+03  0.24297765291E+03  0.91709544744E+02 0.  0.
          5    1    3    3  502    0  0.37408447593E+02  0.18019141346E+02 -0.86510323632E+01  0.42619176050E+02  0.41800000000E+01 0. -1.
         -5    1    3    3    0  502  0.73775602136E+02 -0.53044378722E+02 -0.22489240190E+03  0.24259144753E+03  0.41800000000E+01 0.  1.
        -11    1    4    4    0    0 -0.80049221666E+02  0.11431854473E+02 -0.18674264680E+03  0.20349786564E+03  0.00000000000E+00 0.  1.
         11    1    4    4    0    0 -0.31134828063E+02  0.23593382903E+02 -0.57121246429E+01  0.39479787275E+02  0.00000000000E+00 0. -1.
</event>
<event>
 8    1  0.4798744E-006  0.1014117E+03  0.7561462E-02  0.1277355E+00
          1   -1    0    0  501    0  0.00000000000E+00  0.00000000000E+00  0.98132522185E+02  0.98132522185E+02  0.00000000000E+00 0. -1.
         -1   -1    0    0    0  501 -0.00000000000E+00 -0.00000000000E+00 -0.12417170968E+03  0.12417170968E+03  0.00000000000E+00 0.  1.
         23    2    1    2    0    0  0.18876102996E+02 -0.26627034626E+01 -0.25607434928E+02  0.12909249492E+03  0.12508290957E+03 0.  0.
         23    2    1    2    0    0 -0.18876102996E+02  0.26627034626E+01 -0.43175256819E+00  0.93211736948E+02  0.91240584394E+02 0.  0.
          5    1    3    3  502    0  0.48212078665E+01  0.60378694074E+02 -0.20843670164E+02  0.64193159521E+02  0.41800000000E+01 0.  1.
         -5    1    3    3    0  502  0.14054895129E+02 -0.63041397536E+02 -0.47637647643E+01  0.64899335399E+02  0.41800000000E+01 0.  1.
        -11    1    4    4    0    0  0.28240523194E+02 -0.74239649672E+01  0.25256722393E+02  0.38607569622E+02  0.00000000000E+00 0. -1.
         11    1    4    4    0    0 -0.47116626189E+02  0.10086668430E+02 -0.25688474961E+02  0.54604167326E+02  0.00000000000E+00 0.  1.
</event>
<event>
 7    1  0.4798744E-006  0.1699484E+03  0.7561462E-02  0.1177902E+00
         -2   -1    0    0    0  501 -0.00000000000E+00  0.00000000000E+00  0.10191394564E+04  0.10191394564E+04  0.00000000000E+00 0.  1.
          2   -1    0    0  501    0  0.00000000000E+00 -0.00000000000E+00 -0.35586523028E+02  0.35586523028E+02  0.00000000000E+00 0. -1.
         23    2    1    2    0    0  0.11970870171E+03 -0.21612254922E+02  0.22745074851E+03  0.27350162389E+03  0.90950714371E+02 0.  0.
          5    1    1    2  502    0 -0.15468287958E+03  0.17914256986E+02  0.53185275265E+03  0.55419539581E+03  0.41800000000E+01 0. -1.
         -5    1    1    2    0  502  0.34974177865E+02  0.36979979351E+01  0.22424943221E+03  0.22702895972E+03  0.41800000000E+01 0.  1.
        -11    1    3    3    0    0  0.10709450957E+03  0.16684652225E+02  0.18850254956E+03  0.21744153879E+03  0.00000000000E+00 0.  1.
         11    1    3    3    0    0  0.12614192148E+02 -0.38296907146E+02  0.38948198950E+02  0.56060085105E+02  0.00000000000E+00 0. -1.
</event>
<event>
 8    1  0.4798744E-006  0.2198273E+03  0.7561462E-02  0.1134012E+00
          1   -1    0    0  501    0  0.00000000000E+00  0.00000000000E+00  0.74417341304E+02  0.74417341304E+02  0.00000000000E+00 0. -1.
         -1   -1    0    0    0  501 -0.00000000000E+00 -0.00000000000E+00 -0.75058066531E+03  0.75058066531E+03  0.00000000000E+00 0.  1.
         23    2    1    2    0    0  0.19396741249E+03 -0.43777812433E+02 -0.46858310385E+03  0.52417267513E+03  0.12508802566E+03 0.  0.
         23    2    1    2    0    0 -0.19396741249E+03  0.43777812433E+02 -0.20758022015E+03  0.30082533148E+03  0.88693169379E+02 0.  0.
          5    1    3    3  502    0 -0.14070112094E+02 -0.20809405076E+02 -0.55990828398E+02  0.61509711905E+02  0.41800000000E+01 0. -1.
         -5    1    3    3    0  502  0.20803752459E+03 -0.22968407357E+02 -0.41259227546E+03  0.46266296322E+03  0.41800000000E+01 0. -1.
        -11    1    4    4    0    0 -0.66769883519E+02  0.39495842164E+02 -0.13113113589E+03  0.15235981653E+03  0.00000000000E+00 0.  1.
         11    1    4    4    0    0 -0.12719752897E+03  0.42819702686E+01 -0.76449084261E+02  0.14846551495E+03  0.00000000000E+00 0. -1.
</event>
<event>
 8    1  0.4798744E-006  0.8393999E+02  0.7561462E-02  0.1318228E+00
         -3   -1    0    0    0  501 -0.00000000000E+00  0.00000000000E+00  0.12202078520E+03  0.12202078520E+03  0.00000000000E+00 0.  1.
          3   -1    0    0  501    0  0.00000000000E+00 -0.00000000000E+00 -0.11963476839E+03  0.11963476839E+03  0.00000000000E+00 0. -1.
         23    2    1    2    0    0  0.49162731733E+02 -0.19196902870E+02  0.73952682686E+01  0.13597535713E+03  0.12509641275E+03 0.  0.
         23    2    1    2    0    0 -0.49162731733E+02  0.19196902870E+02 -0.50092514520E+01  0.10568019646E+03  0.91420545023E+02 0.  0.
          5    1    3    3  502    0  0.43789188260E+02  0.26526475056E+02 -0.43433793957E+02  0.67268965689E+02  0.41800000000E+01 0. -1.
         -5    1    3    3    0  502  0.53735434728E+01 -0.45723377926E+02  0.50829062225E+02  0.68706391443E+02  0.41800000000E+01 0. -1.
        -11    1    4    4    0    0 -0.19940715226E+02  0.32537601625E+02  0.36759993853E+02  0.52987024745E+02  0.00000000000E+00 0.  1.
         11    1    4    4    0    0 -0.29222016507E+02 -0.13340698755E+02 -0.41769245305E+02  0.52693171714E+02  0.00000000000E+00 0. -1.
</event>
<event>
 8    1  0.4798744E-006  0.5526497E+02  0.7561462E-02  0.1418850E+00
          1   -1    0    0  501    0  0.00000000000E+00  0.00000000000E+00  0.41864692117E+02  0.41864692117E+02  0.00000000000E+00 0. -1.
         -1   -1    0    0    0  501 -0.00000000000E+00 -0.00000000000E+00 -0.28686633767E+03  0.28686633767E+03  0.00000000000E+00 0.  1.
         23    2    1    2    0    0  0.11382372970E+02  0.94837510203E+01 -0.15820619662E+03  0.20224341485E+03  0.12511474036E+03 0.  0.
         23    2    1    2    0    0 -0.11382372970E+02 -0.94837510203E+01 -0.86795448935E+02  0.12648761493E+03  0.90808407255E+02 0.  0.
          5    1    3    3  502    0 -0.17983467458E+02  0.14254181057E+02 -0.16878744670E+03  0.17039149434E+03  0.41800000000E+01 0. -1.
         -5    1    3    3    0  502  0.29365840428E+02 -0.47704300362E+01  0.10581250087E+02  0.31851920510E+02  0.41800000000E+01 0. -1.
        -11    1    4    4    0    0 -0.33743509784E+02 -0.84059132810E+01 -0.96134430402E+02  0.10223068296E+03  0.00000000000E+00 0.  1.
         11    1    4    4    0    0  0.22361136814E+02 -0.10778377393E+01  0.93389814666E+01  0.24256931971E+02  0.00000000000E+00 0. -1.
</event>
<event>
 8    1  0.4798744E-006  0.1108018E+03  0.7561462E-02  0.1259092E+00
          3   -1    0    0  501    0  0.00000000000E+00  0.00000000000E+00  0.42383302867E+02  0.42383302867E+02  0.00000000000E+00 0. -1.
         -3   -1    0    0    0  501 -0.00000000000E+00 -0.00000000000E+00 -0.37342367025E+03  0.37342367025E+03  0.00000000000E+00 0.  1.
         23    2    1    2    0    0 -0.31290463904E+02 -0.11812883126E+02 -0.27049565532E+03  0.29989036972E+03  0.12509075493E+03 0.  0.
         23    2    1    2    0    0  0.31290463904E+02  0.11812883126E+02 -0.60544712072E+02  0.11591660340E+03  0.93018059774E+02 0.  0.
          5    1    3    3  502    0  0.25828393805E+02 -0.51473959724E+02 -0.96346983146E+02  0.11232492162E+03  0.41800000000E+01 0.  1.
         -5    1    3    3    0  502 -0.57118857709E+02  0.39661076598E+02 -0.17414867217E+03  0.18756544810E+03  0.41800000000E+01 0.  1.
        -11    1    4    4    0    0  0.18535822090E+01 -0.37080499637E+02 -0.72447539883E+01  0.37827049590E+02  0.00000000000E+00 0. -1.
         11    1    4    4    0    0  0.29436881695E+02  0.48893382764E+02 -0.53299958084E+02  0.78089553807E+02  0.00000000000E+00 0.  1.
</event>
<event>
 8    1  0.4798744E-006  0.1795976E+03  0.7561462E-02  0.1168193E+00
          2   -1    0    0  501    0  0.00000000000E+00  0.00000000000E+00  0.37165535419E+03  0.37165535419E+03  0.00000000000E+00 0. -1.
         -2   -1    0    0    0  501 -0.00000000000E+00 -0.00000000000E+00 -0.10578786588E+03  0.10578786588E+03  0.00000000000E+00 0.  1.
         23    2    1    2    0    0 -0.15973051873E+02 -0.14774655233E+03  0.51152192936E+02  0.20086244187E+03  0.12507994085E+03 0.  0.
         23    2    1    2    0    0  0.15973051873E+02  0.14774655233E+03  0.21471529537E+03  0.27658077819E+03  0.91159676867E+02 0.  0.
          5    1    3    3  502    0 -0.64874285170E+02 -0.76568399268E+02  0.54620602939E+02  0.11433405139E+03  0.41800000000E+01 0. -1.
         -5    1    3    3    0  502  0.48901233297E+02 -0.71178153060E+02 -0.34684100033E+01  0.86528390479E+02  0.41800000000E+01 0. -1.
        -11    1    4    4    0    0 -0.10664861316E+02  0.14513610097E+03  0.19509940617E+03  0.24339680639E+03  0.00000000000E+00 0.  1.
         11    1    4    4    0    0  0.26637913189E+02  0.26104513553E+01  0.19615889205E+02  0.33183971803E+02  0.00000000000E+00 0. -1.
</event>
<event>
 6    1  0.4798744E-006  0.8980776E+02  0.7561462E-02  0.1303318E+00
          1   -1    0    0  501    0  0.00000000000E+00  0.00000000000E+00  0.20594771131E+02  0.20594771131E+02  0.00000000000E+00 0. -1.
         -1   -1    0    0    0  501 -0.00000000000E+00 -0.00000000000E+00 -0.44905754809E+03  0.44905754809E+03  0.00000000000E+00 0.  1.
          5    1    1    2  502    0  0.69522973246E+02 -0.25187384996E+01 -0.12342479787E+03  0.14174251649E+03  0.41800000000E+01 0. -1.
         -5    1    1    2    0  502 -0.48329130660E+02  0.24313663857E+02 -0.21266565366E+03  0.21947895518E+03  0.41800000000E+01 0.  1.
        -11    1    1    2    0    0 -0.27944055602E+02 -0.32588785579E+02 -0.61163604085E+02  0.74725401663E+02  0.00000000000E+00 0. -1.
         11    1    1    2    0    0  0.67502130159E+01  0.10793860222E+02 -0.31208721341E+02  0.33705445880E+02  0.00000000000E+00 0.  1.
</event>
<event>
 8    1  0.4798744E-006  0.3153672E+03  0.7561462E-02  0.1077801E+00
          1   -1    0    0  501    0  0.00000000000E+00  0.00000000000E+00  0.69679055250E+03  0.69679055250E+03  0.00000000000E+00 0. -1.
         -1   -1    0    0    0  501 -0.00000000000E+00 -0.00000000000E+00 -0.15842251214E+03  0.15842251214E+03  0.00000000000E+00 0.  1.
         23    2    1    2    0    0 -0.20347965185E+03  0.23066223090E+03  0.19350570609E+03  0.38432057744E+03  0.12509522165E+03 0.  0.
         23    2    1    2    0    0  0.20347965185E+03 -0.23066223090E+03  0.34486233426E+03  0.47089248719E+03  0.90557558625E+02 0.  0.
          5    1    3    3  502    0 -0.10655208296E+03  0.65664242230E+02  0.21659744391E+02  0.12708955904E+03  0.41800000000E+01 0.  1.
         -5    1    3    3    0  502 -0.96927568886E+02  0.16499798867E+03  0.17184596170E+03  0.25723101840E+03  0.41800000000E+01 0.  1.
        -11    1    4    4    0    0  0.17097139552E+03 -0.15118520941E+03  0.28982723395E+03  0.36890108588E+03  0.00000000000E+00 0. -1.
         11    1    4    4    0    0  0.32508256330E+02 -0.79477021490E+02  0.55035100317E+02  0.10199140131E+03  0.00000000000E+00 0.  1.
</event>
<event>
 8    1  0.4798744E-006  0.1322385E+03  0.7561462E-02  0.1224172E+00
         -1   -1    0    0    0  501 -0.00000000000E+00  0.00000000000E+00  0.14559947101E+03  0.14559947101E+03  0.00000000000E+00 0.  1.
          1   -1    0    0  501    0  0.00000000000E+00 -0.00000000000E+00 -0.20655518961E+03  0.20655518961E+03  0.00000000000E+00 0. -1.
         23    2    1    2    0    0 -0.56120190505E+02 -0.76634194403E+02  0.65680702412E+02  0.17024728152E+03  0.12509159309E+03 0.  0.
         23    2    1    2    0    0  0.56120190505E+02  0.76634194403E+02 -0.12663642101E+03  0.18190737911E+03  0.89617163046E+02 0.  0.
          5    1    3    3  502    0 -0.47185876931E+02 -0.10665281887E+03  0.26067429246E+02  0.11957555780E+03  0.41800000000E+01 0.  1.
         -5    1    3    3    0  502 -0.89343135734E+01  0.30018624469E+02  0.39613273166E+02  0.50671723722E+02  0.41800000000E+01 0.  1.
        -11    1    4    4    0    0  0.66867402981E+02  0.39813621861E+02 -0.40752478701E+02  0.87847245759E+02  0.00000000000E+00 0.  1.
         11    1    4    4    0    0 -0.10747212476E+02  0.36820572541E+02 -0.85883942312E+02  0.94060133348E+02  0.00000000000E+00 0. -1.
</event>
<event>
 8    1  0.4798744E-006  0.8358208E+02  0.7561462E-02  0.1319183E+00
          4   -1    0    0  501    0  0.00000000000E+00  0.00000000000E+00  0.25139074597E+03  0.25139074597E+03  0.00000000000E+00 0. -1.
         -4   -1    0    0    0  501 -0.00000000000E+00 -0.00000000000E+00 -0.53942134003E+02  0.53942134003E+02  0.00000000000E+00 0.  1.
         23    2    1    2    0    0 -0.21802774774E+02 -0.36041936969E+02  0.12275854998E+03  0.18025338288E+03  0.12508892133E+03 0.  0.
         23    2    1    2    0    0  0.21802774774E+02  0.36041936969E+02  0.74690061990E+02  0.12507949710E+03  0.91059832117E+02 0.  0.
          5    1    3    3  502    0 -0.38043567461E+02  0.19633536534E+02 -0.15236628502E+01  0.43041639496E+02  0.41800000000E+01 0.  1.
         -5    1    3    3    0  502  0.16240792688E+02 -0.55675473503E+02  0.12428221283E+03  0.13721174338E+03  0.41800000000E+01 0.  1.
        -11    1    4    4    0    0  0.26489120415E+02 -0.30203705477E+01  0.80963400729E+02  0.85240063328E+02  0.00000000000E+00 0. -1.
         11    1    4    4    0    0 -0.46863456409E+01  0.39062307517E+02 -0.62733387384E+01  0.39839433768E+02  0.00000000000E+00 0.  1.
</event>
<event>
 8    1  0.4798744E-006  0.1591893E+03  0.7561462E-02  0.1189615E+00
         -2   -1    0    0    0  501 -0.00000000000E+00  0.00000000000E+00  0.44380535277E+02  0.44380535277E+02  0.00000000000E+00 0.  1.
          2   -1    0    0  501    0  0.00000000000E+00 -0.00000000000E+00 -0.78578923826E+03  0.78578923826E+03  0.00000000000E+00 0. -1.
         23    2    1    2    0    0 -0.33221392867E+02  0.12740220569E+03 -0.22163788136E+03  0.28654099286E+03  0.12508959659E+03 0.  0.
         23    2    1    2    0    0  0.33221392867E+02 -0.12740220569E+03 -0.51977082162E+03  0.54362878068E+03  0.89641291925E+02 0.  0.
          5    1    3    3  502    0  0.26921591533E+02  0.10689327420E+03 -0.98392542804E+02  0.14781579428E+03  0.41800000000E+01 0.  1.
         -5    1    3    3    0  502 -0.60142984400E+02  0.20508931485E+02 -0.12324533856E+03  0.13872519858E+03  0.41800000000E+01 0.  1.
        -11    1    4    4    0    0  0.48337443910E+02 -0.70276795061E+02 -0.18543919900E+03  0.20411524425E+03  0.00000000000E+00 0.  1.
         11    1    4    4    0    0 -0.15116051043E+02 -0.57125410625E+02 -0.33433162262E+03  0.33951353643E+03  0.00000000000E+00 0. -1.
</event>
<event>
 8    1  0.4798744E-006  0.1219755E+03  0.7561462E-02  0.1239873E+00
          1   -1    0    0  501    0  0.00000000000E+00  0.00000000000E+00  0.14918581988E+03  0.14918581988E+03  0.00000000000E+00 0. -1.
         -1   -1    0    0    0  501 -0.00000000000E+00 -0.00000000000E+00 -0.14763751965E+03  0.14763751965E+03  0.00000000000E+00 0.  1.
         23    2    1    2    0    0 -0.10017567947E+03  0.64087838832E+01  0.48843971220E+01  0.16046192909E+03  0.12509170270E+03 0.  0.
         23    2    1    2    0    0  0.10017567947E+03 -0.64087838832E+01 -0.33360968968E+01  0.13636141044E+03  0.92233754379E+02 0.  0.
          5    1    3    3  502    0 -0.80398681637E+02 -0.25279537673E+02 -0.46849049797E+02  0.96515847926E+02  0.41800000000E+01 0.  1.
         -5    1    3    3    0  502 -0.19776997832E+02  0.31688321556E+02  0.51733446919E+02  0.63946081165E+02  0.41800000000E+01 0.  1.
        -11    1    4    4    0    0 -0.56215919474E+01 -0.14820104333E+02 -0.23486158854E+02  0.28334386286E+02  0.00000000000E+00 0.  1.
         11    1    4    4    0    0  0.10579727142E+03  0.84113204493E+01  0.20150061957E+02  0.10802702415E+03  0.00000000000E+00 0. -1.
</event>
<event>
 8    1  0.4798744E-006  0.1084706E+03  0.7561462E-02  0.1263429E+00
         -2   -1    0    0    0  501 -0.00000000000E+00  0.00000000000E+00  0.94721374157E+02  0.94721374157E+02  0.00000000000E+00 0. -1.
          2   -1    0    0  501    0  0.00000000000E+00 -0.00000000000E+00 -0.14839547738E+03  0.14839547738E+03  0.00000000000E+00 0.  1.
         23    2    1    2    0    0  0.19548101761E+02 -0.43865389816E+02 -0.27230168442E+02  0.13672782531E+03  0.12508683158E+03 0.  0.
         23    2    1    2    0    0 -0.19548101761E+02  0.43865389816E+02 -0.26443934780E+02  0.10638902623E+03  0.91175887759E+02 0.  0.
          5    1    3    3  502    0 -0.39108363083E+02 -0.57301953425E+02 -0.31395244115E+02  0.76263436078E+02  0.41800000000E+01 0.  1.
         -5    1    3    3    0  502  0.58656464845E+02  0.13436563609E+02  0.41650756738E+01  0.60464389231E+02  0.41800000000E+01 0.  1.
        -11    1    4    4    0    0  0.26637920137E+02  0.27057828380E+02 -0.40254349721E+02  0.55336403365E+02  0.00000000000E+00 0.  1.
         11    1    4    4    0    0 -0.46186021898E+02  0.16807561436E+02  0.13810414942E+02  0.51052622862E+02  0.00000000000E+00 0. -1.
</event>
<event>
 8    1  0.4798744E-006  0.8962136E+02  0.7561462E-02  0.1303771E+00
         -3   -1    0    0    0  501 -0.00000000000E+00  0.00000000000E+00  0.23814625746E+02  0.23814625746E+02  0.00000000000E+00 0.  1.
          3   -1    0    0  501    0  0.00000000000E+00 -0.00000000000E+00 -0.60411604323E+03  0.60411604323E+03  0.00000000000E+00 0. -1.
         23    2    1    2    0    0  0.41578090524E+02  0.28815875994E+02 -0.33597690491E+03  0.36205957378E+03  0.12509021547E+03 0.  0.
         23    2    1    2    0    0 -0.41578090524E+02 -0.28815875994E+02 -0.24432451257E+03  0.26587109520E+03  0.91836155731E+02 0.  0.
          5    1    3    3  502    0  0.91518032148E+01 -0.31623634497E+02 -0.24905719127E+03  0.25125836639E+03  0.41800000000E+01 0.  1.
         -5    1    3    3    0  502  0.32426287309E+02  0.60439510491E+02 -0.86919713646E+02  0.11080120738E+03  0.41800000000E+01 0.  1.
        -11    1    4    4    0    0 -0.40158427852E+02  0.76223346627E+01 -0.36276547107E+02  0.54651506688E+02  0.00000000000E+00 0.  1.
         11    1    4    4    0    0 -0.14196626718E+01 -0.36438210657E+02 -0.20804796546E+03  0.21121958851E+03  0.00000000000E+00 0. -1.
</event>
<event>
 8    1  0.4798744E-006  0.1125725E+03  0.7561462E-02  0.1255879E+00
         -1   -1    0    0    0  501 -0.00000000000E+00  0.00000000000E+00  0.12719841554E+03  0.12719841554E+03  0.00000000000E+00 0.  1.
          1   -1    0    0  501    0  0.00000000000E+00 -0.00000000000E+00 -0.11425030968E+03  0.11425030968E+03  0.00000000000E+00 0. -1.
         23    2    1    2    0    0  0.78177642522E+01  0.51731312023E+02 -0.60159833550E+01  0.13573046090E+03  0.12509724169E+03 0.  0.
         23    2    1    2    0    0 -0.78177642522E+01 -0.51731312023E+02  0.18964089220E+02  0.10571826432E+03  0.89885864564E+02 0.  0.
          5    1    3    3  502    0 -0.18921199626E+02 -0.30624581249E+02  0.24592632920E+02  0.43796652451E+02  0.41800000000E+01 0. -1.
         -5    1    3    3    0  502  0.26738963879E+02  0.82355893271E+02 -0.30608616276E+02  0.91933808450E+02  0.41800000000E+01 0. -1.
        -11    1    4    4    0    0 -0.27071815847E+02  0.16240693216E+02 -0.30621256148E+01  0.31717817432E+02  0.00000000000E+00 0. -1.
         11    1    4    4    0    0  0.19254051594E+02 -0.67972005239E+02  0.22026214835E+02  0.74000446883E+02  0.00000000000E+00 0.  1.
</event>
<event>
 8    1  0.4798744E-006  0.1868955E+03  0.7561462E-02  0.1161292E+00
         -2   -1    0    0    0  501 -0.00000000000E+00  0.00000000000E+00  0.24433950987E+02  0.24433950987E+02  0.00000000000E+00 0.  1.
          2   -1    0    0  501    0  0.00000000000E+00 -0.00000000000E+00 -0.15716483318E+04  0.15716483318E+04  0.00000000000E+00 0. -1.
         23    2    1    2    0    0  0.10136890492E+03 -0.12506892095E+03 -0.71012088786E+03  0.73880749539E+03  0.12508776920E+03 0.  0.
         23    2    1    2    0    0 -0.10136890492E+03  0.12506892095E+03 -0.83709349296E+03  0.85727478740E+03  0.90976124812E+02 0.  0.
          5    1    3    3  502    0  0.99108844365E+02 -0.42923246160E+02 -0.52817373628E+03  0.53911959358E+03  0.41800000000E+01 0. -1.
         -5    1    3    3    0  502  0.22600605518E+01 -0.82145674787E+02 -0.18194715158E+03  0.19968790181E+03  0.41800000000E+01 0. -1.
        -11    1    4    4    0    0 -0.11044122012E+03  0.77314193415E+02 -0.56396378311E+03  0.57985334031E+03  0.00000000000E+00 0.  1.
         11    1    4    4    0    0  0.90723152044E+01  0.47754727532E+02 -0.27312970985E+03  0.27742144709E+03  0.00000000000E+00 0. -1.
</event>
<event>
 8    1  0.4798744E-006  0.1160447E+03  0.7561462E-02  0.1249768E+00
         -2   -1    0    0    0  501 -0.00000000000E+00  0.00000000000E+00  0.19850639155E+02  0.19850639155E+02  0.00000000000E+00 0.  1.
          2   -1    0    0  501    0  0.00000000000E+00 -0.00000000000E+00 -0.73566658825E+03  0.73566658825E+03  0.00000000000E+00 0. -1.
         23    2    1    2    0    0  0.40418482544E+02  0.24013570241E+02 -0.47468463293E+03  0.49313606237E+03  0.12508944794E+03 0.  0.
         23    2    1    2    0    0 -0.40418482544E+02 -0.24013570241E+02 -0.24113131617E+03  0.26238116504E+03  0.92137174048E+02 0.  0.
          5    1    3    3  502    0  0.28644724791E+02  0.74742923532E+02 -0.25375118713E+03  0.26610930508E+03  0.41800000000E+01 0. -1.
         -5    1    3    3    0  502  0.11773757753E+02 -0.50729353291E+02 -0.22093344580E+03  0.22702675730E+03  0.41800000000E+01 0. -1.
        -11    1    4    4    0    0 -0.42980790227E+02 -0.54325068366E+02 -0.19664034218E+03  0.20848497680E+03  0.00000000000E+00 0. -1.
         11    1    4    4    0    0  0.25623076828E+01  0.30311498125E+02 -0.44490973993E+02  0.53896188233E+02  0.00000000000E+00 0.  1.
</event>
<event>
 8    1  0.4798744E-006  0.1627772E+03  0.7561462E-02  0.1185597E+00
         -2   -1    0    0    0  501 -0.00000000000E+00  0.00000000000E+00  0.42032440888E+02  0.42032440888E+02  0.00000000000E+00 0.  1.
          2   -1    0    0  501    0  0.00000000000E+00 -0.00000000000E+00 -0.93855036483E+03  0.93855036483E+03  0.00000000000E+00 0. -1.
         23    2    1    2    0    0  0.12829450889E+03  0.80417736376E+02 -0.29762034948E+03  0.35658379768E+03  0.12509052325E+03 0.  0.
         23    2    1    2    0    0 -0.12829450889E+03 -0.80417736376E+02 -0.59889757446E+03  0.62399900804E+03  0.88147399297E+02 0.  0.
          5    1    3    3  502    0  0.70535953031E+02  0.47283897268E+02 -0.27222917448E+03  0.28519692048E+03  0.41800000000E+01 0. -1.
         -5    1    3    3    0  502  0.57758555858E+02  0.33133839108E+02 -0.25391175001E+02  0.71386877203E+02  0.41800000000E+01 0. -1.
        -11    1    4    4    0    0 -0.60396171825E+02 -0.86660315630E+02 -0.40124772804E+03  0.41491860302E+03  0.00000000000E+00 0.  1.
         11    1    4    4    0    0 -0.67898337064E+02  0.62425792538E+01 -0.19764984642E+03  0.20908040502E+03  0.00000000000E+00 0. -1.
</event>
<event>
 8    1  0.4798744E-006  0.1196192E+03  0.7561462E-02  0.1243726E+00
         -1   -1    0    0    0  501 -0.00000000000E+00  0.00000000000E+00  0.13450027779E+03  0.13450027779E+03  0.00000000000E+00 0.  1.
          1   -1    0    0  501    0  0.00000000000E+00 -0.00000000000E+00 -0.31989136395E+03  0.31989136395E+03  0.00000000000E+00 0. -1.
         23    2    1    2    0    0 -0.70690912140E+02 -0.51240738032E+02  0.71499112941E+02  0.16847707093E+03  0.12509828929E+03 0.  0.
         23    2    1    2    0    0  0.70690912140E+02  0.51240738032E+02 -0.25689019910E+03  0.28591457080E+03  0.90176211446E+02 0.  0.
          5    1    3    3  502    0 -0.72573219450E+02 -0.87851251911E+02  0.64225476119E+02  0.13087054224E+03  0.41800000000E+01 0.  1.
         -5    1    3    3    0  502  0.18823073103E+01  0.36610513879E+02  0.72736368216E+01  0.37606528687E+02  0.41800000000E+01 0.  1.
        -11    1    4    4    0    0  0.68214722271E+01  0.10621305768E+02  0.47943905852E+01  0.13502992285E+02  0.00000000000E+00 0.  1.
         11    1    4    4    0    0  0.63869439913E+02  0.40619432264E+02 -0.26168458969E+03  0.27241157852E+03  0.00000000000E+00 0. -1.
</event>
<event>
 8    1  0.4798744E-006  0.1194451E+03  0.7561462E-02  0.1244015E+00
          3   -1    0    0  501    0  0.00000000000E+00  0.00000000000E+00  0.13732840403E+03  0.13732840403E+03  0.00000000000E+00 0. -1.
         -3   -1    0    0    0  501 -0.00000000000E+00 -0.00000000000E+00 -0.18634051955E+03  0.18634051955E+03  0.00000000000E+00 0.  1.
         23    2    1    2    0    0 -0.74103287285E+02  0.54434636291E+02 -0.99132852280E+02  0.18416304806E+03  0.12503711072E+03 0.  0.
         23    2    1    2    0    0  0.74103287285E+02 -0.54434636291E+02  0.50120736763E+02  0.13950587551E+03  0.92170354420E+02 0.  0.
          5    1    3    3  502    0 -0.81348124455E+02  0.72903591012E+02 -0.11481436468E+03  0.15853157941E+03  0.41800000000E+01 0.  1.
         -5    1    3    3    0  502  0.72448371697E+01 -0.18468954721E+02  0.15681512397E+02  0.25631468650E+02  0.41800000000E+01 0.  1.
        -11    1    4    4    0    0 -0.10015990234E+02 -0.21136417178E+01 -0.17000626332E+02  0.19844617340E+02  0.00000000000E+00 0.  1.
         11    1    4    4    0    0  0.84119277519E+02 -0.52320994573E+02  0.67121363095E+02  0.11966125817E+03  0.00000000000E+00 0. -1.
</event>
<event>
 8    1  0.4798744E-006  0.1605603E+03  0.7561462E-02  0.1188066E+00
          2   -1    0    0  501    0  0.00000000000E+00  0.00000000000E+00  0.12230110062E+04  0.12230110062E+04  0.00000000000E+00 0. -1.
         -2   -1    0    0    0  501 -0.00000000000E+00 -0.00000000000E+00 -0.21605023832E+02  0.21605023832E+02  0.00000000000E+00 0.  1.
         23    2    1    2    0    0  0.11859196195E+03 -0.10712399043E+01  0.55898055872E+03  0.58495397151E+03  0.12508670103E+03 0.  0.
         23    2    1    2    0    0 -0.11859196195E+03  0.10712399043E+01  0.64242542370E+03  0.65966205857E+03  0.91533630447E+02 0.  0.
          5    1    3    3  502    0  0.46927718199E+02 -0.61656897953E+02  0.22443120852E+03  0.23746709995E+03  0.41800000000E+01 0. -1.
         -5    1    3    3    0  502  0.71664243748E+02  0.60585658049E+02  0.33454935020E+03  0.34748687157E+03  0.41800000000E+01 0. -1.
        -11    1    4    4    0    0 -0.27665618697E+02 -0.40951715220E+02  0.19562535988E+03  0.20177143223E+03  0.00000000000E+00 0.  1.
         11    1    4    4    0    0 -0.90926343249E+02  0.42022955125E+02  0.44680006383E+03  0.45789062634E+03  0.00000000000E+00 0. -1.
</event>
<event>
 8    1  0.4798744E-006  0.8165105E+02  0.7561462E-02  0.1324430E+00
          4   -1    0    0  501    0  0.00000000000E+00  0.00000000000E+00  0.76845897069E+02  0.76845897069E+02  0.00000000000E+00 0. -1.
         -4   -1    0    0    0  501 -0.00000000000E+00 -0.00000000000E+00 -0.23444647126E+03  0.23444647126E+03  0.00000000000E+00 0.  1.
         23    2    1    2    0    0  0.23111259599E+02 -0.71609121114E+02 -0.11204076726E+03  0.18401772440E+03  0.12508953921E+03 0.  0.
         23    2    1    2    0    0 -0.23111259599E+02  0.71609121114E+02 -0.45559806936E+02  0.12727464393E+03  0.91984468429E+02 0.  0.
          5    1    3    3  502    0  0.17703981980E+02 -0.77084072638E+02 -0.13662430382E+03  0.15792104998E+03  0.41800000000E+01 0.  1.
         -5    1    3    3    0  502  0.54072776191E+01  0.54749515236E+01  0.24583536568E+02  0.26096674417E+02  0.41800000000E+01 0.  1.
        -11    1    4    4    0    0 -0.20233331052E+02  0.57836079063E+02 -0.73681168196E+02  0.95829610630E+02  0.00000000000E+00 0.  1.
         11    1    4    4    0    0 -0.28779285473E+01  0.13773042051E+02  0.28121361259E+02  0.31445033298E+02  0.00000000000E+00 0. -1.
</event>
<event>
 8    1  0.4798744E-006  0.1803340E+03  0.7561462E-02  0.1167480E+00
          2   -1    0    0  501    0  0.00000000000E+00  0.00000000000E+00  0.38618620285E+03  0.38618620285E+03  0.00000000000E+00 0. -1.
         -2   -1    0    0    0  501 -0.00000000000E+00 -0.00000000000E+00 -0.94865007481E+02  0.94865007481E+02  0.00000000000E+00 0.  1.
         23    2    1    2    0    0 -0.10828344455E+03  0.11311315440E+03  0.13458700152E+03  0.24141457522E+03  0.12508975213E+03 0.  0.
         23    2    1    2    0    0  0.10828344455E+03 -0.11311315440E+03  0.15673419386E+03  0.23963663512E+03  0.91324801141E+02 0.  0.
          5    1    3    3  502    0 -0.10590716521E+02  0.96150434939E+02  0.91518115764E+02  0.13322952874E+03  0.41800000000E+01 0. -1.
         -5    1    3    3    0  502 -0.97692728030E+02  0.16962719464E+02  0.43068885752E+02  0.10818504648E+03  0.41800000000E+01 0. -1.
        -11    1    4    4    0    0  0.80694150972E+02 -0.48011700405E+02  0.37692912077E+02  0.10118016109E+03  0.00000000000E+00 0.  1.
         11    1    4    4    0    0  0.27589293579E+02 -0.65101453998E+02  0.11904128178E+03  0.13845647403E+03  0.00000000000E+00 0. -1.
</event>
<event>
 8    1  0.4798744E-006  0.1074206E+03  0.7561462E-02  0.1265422E+00
          1   -1    0    0  501    0  0.00000000000E+00  0.00000000000E+00  0.11381729778E+03  0.11381729778E+03  0.00000000000E+00 0. -1.
         -1   -1    0    0    0  501 -0.00000000000E+00 -0.00000000000E+00 -0.15449626982E+03  0.15449626982E+03  0.00000000000E+00 0.  1.
         23    2    1    2    0    0 -0.42948130369E+02 -0.57385633806E+02 -0.57165718069E+01  0.14428481792E+03  0.12509107330E+03 0.  0.
         23    2    1    2    0    0  0.42948130369E+02  0.57385633806E+02 -0.34962400235E+02  0.12402874967E+03  0.94990043929E+02 0.  0.
          5    1    3    3  502    0 -0.52412606775E+02 -0.70358803221E+02  0.39360491404E+02  0.96250523236E+02  0.41800000000E+01 0. -1.
         -5    1    3    3    0  502  0.94644764055E+01  0.12973169415E+02 -0.45077063211E+02  0.48034294686E+02  0.41800000000E+01 0. -1.
        -11    1    4    4    0    0  0.30518080301E+02  0.79438091761E+02 -0.45628093028E+02  0.96559238405E+02  0.00000000000E+00 0.  1.
         11    1    4    4    0    0  0.12430050068E+02 -0.22052457955E+02  0.10665692793E+02  0.27469511268E+02  0.00000000000E+00 0. -1.
</event>
<event>
 8    1  0.4798744E-006  0.9454288E+02  0.7561462E-02  0.1292209E+00
          2   -1    0    0  501    0  0.00000000000E+00  0.00000000000E+00  0.32733179321E+02  0.32733179321E+02  0.00000000000E+00 0. -1.
         -2   -1    0    0    0  501 -0.00000000000E+00 -0.00000000000E+00 -0.48070930690E+03  0.48070930690E+03  0.00000000000E+00 0.  1.
         23    2    1    2    0    0  0.39332359250E+02 -0.44661724902E+02 -0.29238785189E+03  0.32341276533E+03  0.12475358388E+03 0.  0.
         23    2    1    2    0    0 -0.39332359250E+02  0.44661724902E+02 -0.15558827569E+03  0.19002972089E+03  0.91443311043E+02 0.  0.
          5    1    3    3  502    0  0.66039447543E+02 -0.20707382007E+02 -0.71523814243E+02  0.99614922101E+02  0.41800000000E+01 0. -1.
         -5    1    3    3    0  502 -0.26707088293E+02 -0.23954342896E+02 -0.22086403765E+03  0.22379784323E+03  0.41800000000E+01 0.  1.
        -11    1    4    4    0    0 -0.43110072825E+02  0.45584444727E+01 -0.14046696030E+03  0.14700416569E+03  0.00000000000E+00 0.  1.
         11    1    4    4    0    0  0.37777135752E+01  0.40103280430E+02 -0.15121315390E+02  0.43025555199E+02  0.00000000000E+00 0. -1.
</event>
<event>
 8    1  0.4798744E-006  0.1014897E+03  0.7561462E-02  0.1277194E+00
          2   -1    0    0  501    0  0.00000000000E+00  0.00000000000E+00  0.13523911423E+03  0.13523911423E+03  0.00000000000E+00 0. -1.
         -2   -1    0    0    0  501 -0.00000000000E+00 -0.00000000000E+00 -0.98413841923E+02  0.98413841923E+02  0.00000000000E+00 0.  1.
         23    2    1    2    0    0 -0.25466719848E+02 -0.34041324053E+02  0.21728038975E+02  0.13389179503E+03  0.12509012565E+03 0.  0.
         23    2    1    2    0    0  0.25466719848E+02  0.34041324053E+02  0.15097233331E+02  0.99761161120E+02  0.88977509803E+02 0.  0.
          5    1    3    3  502    0  0.38066257828E+02  0.15710207079E+02  0.32160970872E+02  0.52418041158E+02  0.41800000000E+01 0.  1.
         -5    1    3    3    0  502 -0.63532977676E+02 -0.49751531132E+02 -0.10432931896E+02  0.81473753874E+02  0.41800000000E+01 0.  1.
        -11    1    4    4    0    0 -0.23890262054E+02  0.11856746316E+02 -0.21648408072E+02  0.34350846078E+02  0.00000000000E+00 0.  1.
         11    1    4    4    0    0  0.49356981902E+02  0.22184577737E+02  0.36745641403E+02  0.65410315043E+02  0.00000000000E+00 0. -1.
</event>
<event>
 8    1  0.4798744E-006  0.1727371E+03  0.7561462E-02  0.1175023E+00
         -2   -1    0    0    0  501 -0.00000000000E+00  0.00000000000E+00  0.81903439162E+02  0.81903439162E+02  0.00000000000E+00 0.  1.
          2   -1    0    0  501    0  0.00000000000E+00 -0.00000000000E+00 -0.49061925566E+03  0.49061925566E+03  0.00000000000E+00 0. -1.
         23    2    1    2    0    0  0.77443045448E+02 -0.13436528708E+03 -0.12011664193E+03  0.23265282802E+03  0.12509146677E+03 0.  0.
         23    2    1    2    0    0 -0.77443045448E+02  0.13436528708E+03 -0.28859917457E+03  0.33986986680E+03  0.90391300134E+02 0.  0.
          5    1    3    3  502    0  0.54392925806E+02 -0.13231914320E+03 -0.39209193926E+02  0.14839736966E+03  0.41800000000E+01 0. -1.
         -5    1    3    3    0  502  0.23050119642E+02 -0.20461438754E+01 -0.80907448003E+02  0.84255458355E+02  0.41800000000E+01 0. -1.
        -11    1    4    4    0    0 -0.57285863999E+01  0.98474494778E+02 -0.14448433658E+03  0.17494503806E+03  0.00000000000E+00 0.  1.
         11    1    4    4    0    0 -0.71714459048E+02  0.35890792297E+02 -0.14411483798E+03  0.16492482874E+03  0.00000000000E+00 0. -1.
</event>
<event>
 8    1  0.4798744E-006  0.1015804E+03  0.7561462E-02  0.1277007E+00
         -2   -1    0    0    0  501 -0.00000000000E+00  0.00000000000E+00  0.55259602134E+02  0.55259602134E+02  0.00000000000E+00 0.  1.
          2   -1    0    0  501    0  0.00000000000E+00 -0.00000000000E+00 -0.25071780139E+03  0.25071780139E+03  0.00000000000E+00 0. -1.
         23    2    1    2    0    0  0.12710442700E+02  0.36366408474E+02 -0.80957261452E+02  0.15389105703E+03  0.12507720909E+03 0.  0.
         23    2    1    2    0    0 -0.12710442700E+02 -0.36366408474E+02 -0.11450093781E+03  0.15208634650E+03  0.92388965864E+02 0.  0.
          5    1    3    3  502    0 -0.24201918347E+02  0.56091194933E+02 -0.91899560382E+02  0.11043077741E+03  0.41800000000E+01 0. -1.
         -5    1    3    3    0  502  0.36912361047E+02 -0.19724786458E+02  0.10942298930E+02  0.43460279621E+02  0.41800000000E+01 0. -1.
        -11    1    4    4    0    0  0.30283631530E+02  0.14239566314E+02 -0.43328315297E+02  0.54746748707E+02  0.00000000000E+00 0.  1.
         11    1    4    4    0    0 -0.42994074230E+02 -0.50605974789E+02 -0.71172622510E+02  0.97339597791E+02  0.00000000000E+00 0. -1.
</event>
<event>
 8    1  0.4798744E-006  0.1515108E+03  0.7561462E-02  0.1198629E+00
         -3   -1    0    0    0  501 -0.00000000000E+00  0.00000000000E+00  0.13405312349E+03  0.13405312349E+03  0.00000000000E+00 0.  1.
          3   -1    0    0  501    0  0.00000000000E+00 -0.00000000000E+00 -0.20540288315E+03  0.20540288315E+03  0.00000000000E+00 0. -1.
         23    2    1    2    0    0 -0.87968336402E+02  0.81056760890E+02  0.88074026256E+00  0.17308355855E+03  0.12509402801E+03 0.  0.
         23    2    1    2    0    0  0.87968336402E+02 -0.81056760890E+02 -0.72230499924E+02  0.16637244809E+03  0.90299056846E+02 0.  0.
          5    1    3    3  502    0 -0.10384397718E+03  0.21759852695E+02  0.21220383129E+02  0.10828129962E+03  0.41800000000E+01 0.  1.
         -5    1    3    3    0  502  0.15875640780E+02  0.59296908194E+02 -0.20339642866E+02  0.64802258938E+02  0.41800000000E+01 0.  1.
        -11    1    4    4    0    0  0.16642277376E+02 -0.58018380040E+02 -0.68538617491E+02  0.91327103898E+02  0.00000000000E+00 0. -1.
         11    1    4    4    0    0  0.71326059026E+02 -0.23038380849E+02 -0.36918824335E+01  0.75045344188E+02  0.00000000000E+00 0.  1.
</event>
<event>
 8    1  0.4798744E-006  0.9750156E+02  0.7561462E-02  0.1285639E+00
         -2   -1    0    0    0  501 -0.00000000000E+00  0.00000000000E+00  0.34259721019E+03  0.34259721019E+03  0.00000000000E+00 0.  1.
          2   -1    0    0  501    0  0.00000000000E+00 -0.00000000000E+00 -0.47612970724E+02  0.47612970724E+02  0.00000000000E+00 0. -1.
         23    2    1    2    0    0 -0.14937284171E+02 -0.55266355766E+02  0.21548834677E+03  0.25294359001E+03  0.11944764374E+03 0.  0.
         23    2    1    2    0    0  0.14937284171E+02  0.55266355766E+02  0.79495892692E+02  0.13726659090E+03  0.96151065959E+02 0.  0.
          5    1    3    3  502    0 -0.34131354067E+02  0.16266255789E+02  0.18198609896E+02  0.42168734982E+02  0.41800000000E+01 0. -1.
         -5    1    3    3    0  502  0.19194069896E+02 -0.71532611555E+02  0.19728973688E+03  0.21077485503E+03  0.41800000000E+01 0.  1.
        -11    1    4    4    0    0 -0.23314268604E+02  0.22814359793E+02  0.80748284931E+02  0.87088091337E+02  0.00000000000E+00 0. -1.
         11    1    4    4    0    0  0.38251552775E+02  0.32451995973E+02 -0.12523922392E+01  0.50178499566E+02  0.00000000000E+00 0.  1.
</event>
<event>
 8    1  0.4798744E-006  0.1092269E+03  0.7561462E-02  0.1262008E+00
         -4   -1    0    0    0  501 -0.00000000000E+00  0.00000000000E+00  0.39917049615E+03  0.39917049615E+03  0.00000000000E+00 0.  1.
          4   -1    0    0  501    0  0.00000000000E+00 -0.00000000000E+00 -0.43018382315E+02  0.43018382315E+02  0.00000000000E+00 0. -1.
         23    2    1    2    0    0  0.53107438771E+02  0.36217047494E+02  0.25742920788E+03  0.29334663491E+03  0.12510146507E+03 0.  0.
         23    2    1    2    0    0 -0.53107438771E+02 -0.36217047494E+02  0.98722905955E+02  0.14884224355E+03  0.90971021342E+02 0.  0.
          5    1    3    3  502    0  0.15522443902E+02  0.66590433316E+02  0.63375351379E+02  0.93322771264E+02  0.41800000000E+01 0. -1.
         -5    1    3    3    0  502  0.37584994869E+02 -0.30373385822E+02  0.19405385650E+03  0.20002386365E+03  0.41800000000E+01 0. -1.
        -11    1    4    4    0    0 -0.62289488128E+02  0.18207424672E+01  0.88781742608E+02  0.10846885846E+03  0.00000000000E+00 0.  1.
         11    1    4    4    0    0  0.91820493569E+01 -0.38037789961E+02  0.99411633463E+01  0.40373385097E+02  0.00000000000E+00 0. -1.
</event>
<event>
 8    1  0.4798744E-006  0.1401818E+03  0.7561462E-02  0.1213085E+00
          1   -1    0    0  501    0  0.00000000000E+00  0.00000000000E+00  0.13042685638E+03  0.13042685638E+03  0.00000000000E+00 0. -1.
         -1   -1    0    0    0  501 -0.00000000000E+00 -0.00000000000E+00 -0.25585307744E+03  0.25585307744E+03  0.00000000000E+00 0.  1.
         23    2    1    2    0    0  0.10803702814E+03  0.25402383415E+02 -0.16400335017E+03  0.23500287750E+03  0.12653842513E+03 0.  0.
         23    2    1    2    0    0 -0.10803702814E+03 -0.25402383415E+02  0.38577129111E+02  0.15127705633E+03  0.95285215801E+02 0.  0.
          5    1    3    3  502    0  0.77183772723E+02 -0.31807980879E+02 -0.35254855356E+02  0.90716369226E+02  0.41800000000E+01 0. -1.
         -5    1    3    3    0  502  0.30853255412E+02  0.57210364294E+02 -0.12874849481E+03  0.14428650827E+03  0.41800000000E+01 0.  1.
        -11    1    4    4    0    0 -0.42217127057E+02  0.24711489598E+02 -0.16805061744E+02  0.51723820772E+02  0.00000000000E+00 0.  1.
         11    1    4    4    0    0 -0.65819901078E+02 -0.50113873012E+02  0.55382190855E+02  0.99553235558E+02  0.00000000000E+00 0. -1.
</event>
<event>
 8    1  0.4798744E-006  0.1148269E+03  0.7561462E-02  0.1251884E+00
         -1   -1    0    0    0  501 -0.00000000000E+00  0.00000000000E+00  0.45751960890E+03  0.45751960890E+03  0.00000000000E+00 0.  1.
          1   -1    0    0  501    0  0.00000000000E+00 -0.00000000000E+00 -0.34362495010E+02  0.34362495010E+02  0.00000000000E+00 0. -1.
         23    2    1    2    0    0 -0.25055050336E+01 -0.56815169570E+02  0.29209700439E+03  0.32280244681E+03  0.12508604494E+03 0.  0.
         23    2    1    2    0    0  0.25055050336E+01  0.56815169570E+02  0.13106010950E+03  0.16907965711E+03  0.90426418135E+02 0.  0.
          5    1    3    3  502    0  0.54558502956E+02 -0.30570308551E+02  0.21116922427E+03  0.22027502739E+03  0.41800000000E+01 0.  1.
         -5    1    3    3    0  502 -0.57064007989E+02 -0.26244861019E+02  0.80927780120E+02  0.10252741942E+03  0.41800000000E+01 0.  1.
        -11    1    4    4    0    0  0.41782801415E+02  0.48247703301E+02  0.60899147519E+02  0.88217625997E+02  0.00000000000E+00 0.  1.
         11    1    4    4    0    0 -0.39277296382E+02  0.85674662691E+01  0.70160961980E+02  0.80862031110E+02  0.00000000000E+00 0. -1.
</event>
<event>
 8    1  0.5300031E-006  0.1063760E+03  0.7561462E-02  0.1267432E+00
         -2   -1    0    0    0  501 -0.00000000000E+00  0.00000000000E+00  0.33438661530E+02  0.33438661530E+02  0.00000000000E+00 0.  1.
          2   -1    0    0  501    0  0.00000000000E+00 -0.00000000000E+00 -0.52091987274E+03  0.52091987274E+03  0.00000000000E+00 0. -1.
         23    2    1    2    0    0 -0.38177382766E+02  0.60173023130E+02 -0.22910633048E+03  0.27058386778E+03  0.12509042156E+03 0.  0.
         23    2    1    2    0    0  0.38177382766E+02 -0.60173023130E+02 -0.25837488073E+03  0.28377466650E+03  0.93231845877E+02 0.  0.
          5    1    3    3  502    0 -0.34705894012E+02  0.95302653899E+02 -0.20132195158E+03  0.22546639552E+03  0.41800000000E+01 0.  1.
         -5    1    3    3    0  502 -0.34714887542E+01 -0.35129630769E+02 -0.27784378905E+02  0.45117472261E+02  0.41800000000E+01 0.  1.
        -11    1    4    4    0    0  0.61916919289E+01 -0.33435791583E+02 -0.15539341963E+02  0.37386633392E+02  0.00000000000E+00 0.  1.
         11    1    4    4    0    0  0.31985690837E+02 -0.26737231547E+02 -0.24283553877E+03  0.24638803310E+03  0.00000000000E+00 0. -1.
</event>
<event>
 8    1  0.4798744E-006  0.1884106E+03  0.7561462E-02  0.1159903E+00
          1   -1    0    0  501    0  0.00000000000E+00  0.00000000000E+00  0.54232607415E+02  0.54232607415E+02  0.00000000000E+00 0. -1.
         -1   -1    0    0    0  501 -0.00000000000E+00 -0.00000000000E+00 -0.11510007332E+04  0.11510007332E+04  0.00000000000E+00 0.  1.
         23    2    1    2    0    0 -0.15583730396E+03 -0.57087781796E+02 -0.92981880650E+03  0.95276152862E+03  0.12508891786E+03 0.  0.
         23    2    1    2    0    0  0.15583730396E+03  0.57087781796E+02 -0.16694931929E+03  0.25247181200E+03  0.91245057424E+02 0.  0.
          5    1    3    3  502    0 -0.13561894661E+03  0.76298827706E+01 -0.52616174684E+03  0.54342834857E+03  0.41800000000E+01 0. -1.
         -5    1    3    3    0  502 -0.20218357349E+02 -0.64717664567E+02 -0.40365705966E+03  0.40933318005E+03  0.41800000000E+01 0. -1.
        -11    1    4    4    0    0  0.12569148623E+03  0.23516452155E+02 -0.70568089699E+02  0.14605214315E+03  0.00000000000E+00 0. -1.
         11    1    4    4    0    0  0.30145817728E+02  0.33571329642E+02 -0.96381229594E+02  0.10641966885E+03  0.00000000000E+00 0.  1.
</event>
<event>
 8    1  0.4798744E-006  0.1577846E+03  0.7561462E-02  0.1191221E+00
          1   -1    0    0  501    0  0.00000000000E+00  0.00000000000E+00  0.21789093133E+03  0.21789093133E+03  0.00000000000E+00 0. -1.
         -1   -1    0    0    0  501 -0.00000000000E+00 -0.00000000000E+00 -0.20137243212E+03  0.20137243212E+03  0.00000000000E+00 0.  1.
         23    2    1    2    0    0  0.83923081876E+02  0.12511791179E+03 -0.87554331696E+02  0.21449871289E+03  0.12508541606E+03 0.  0.
         23    2    1    2    0    0 -0.83923081876E+02 -0.12511791179E+03  0.10407283090E+03  0.20476465056E+03  0.91650599911E+02 0.  0.
          5    1    3    3  502    0  0.10366263156E+02  0.10168556670E+01 -0.67926017927E+02  0.68847002249E+02  0.41800000000E+01 0.  1.
         -5    1    3    3    0  502  0.73556818720E+02  0.12410105613E+03 -0.19628313769E+02  0.14565171064E+03  0.41800000000E+01 0.  1.
        -11    1    4    4    0    0  0.26724555845E+00 -0.41033722917E+02 -0.74244488741E+01  0.41700842650E+02  0.00000000000E+00 0.  1.
         11    1    4    4    0    0 -0.84190327435E+02 -0.84084188875E+02  0.11149727978E+03  0.16306380791E+03  0.00000000000E+00 0. -1.
</event>
<event>
 8    1  0.4798744E-006  0.9341665E+02  0.7561462E-02  0.1294783E+00
         -1   -1    0    0    0  501 -0.00000000000E+00  0.00000000000E+00  0.22567857276E+03  0.22567857276E+03  0.00000000000E+00 0.  1.
          1   -1    0    0  501    0  0.00000000000E+00 -0.00000000000E+00 -0.63886919057E+02  0.63886919057E+02  0.00000000000E+00 0. -1.
         23    2    1    2    0    0  0.29243456586E+02 -0.83235841169E+01  0.14355752830E+03  0.19282251397E+03  0.12508915283E+03 0.  0.
         23    2    1    2    0    0 -0.29243456586E+02  0.83235841169E+01  0.18234125401E+02  0.96742977847E+02  0.90012547058E+02 0.  0.
          5    1    3    3  502    0  0.58239219192E+02 -0.44313469777E+02  0.12040404592E+03  0.14096133133E+03  0.41800000000E+01 0. -1.
         -5    1    3    3    0  502 -0.28995762606E+02  0.35989885660E+02  0.23153482386E+02  0.51861182647E+02  0.41800000000E+01 0. -1.
        -11    1    4    4    0    0  0.34883970601E+01  0.28475955474E+02  0.42506927384E+02  0.51282431980E+02  0.00000000000E+00 0.  1.
         11    1    4    4    0    0 -0.32731853646E+02 -0.20152371357E+02 -0.24272801982E+02  0.45460545867E+02  0.00000000000E+00 0. -1.
</event>
<event>
 8    1  0.4798744E-006  0.9552454E+02  0.7561462E-02  0.1289999E+00
          2   -1    0    0  501    0  0.00000000000E+00  0.00000000000E+00  0.44595359265E+03  0.44595359265E+03  0.00000000000E+00 0.  1.
         -2   -1    0    0    0  501 -0.00000000000E+00 -0.00000000000E+00 -0.51252502121E+02  0.51252502121E+02  0.00000000000E+00 0. -1.
         23    2    1    2    0    0  0.48172871966E+02  0.67389130563E+02  0.10763754237E+03  0.18464510125E+03  0.12508418116E+03 0.  0.
         23    2    1    2    0    0 -0.48172871966E+02 -0.67389130563E+02  0.28706354816E+03  0.31256099352E+03  0.91798548356E+02 0.  0.
          5    1    3    3  502    0  0.59369434293E+02  0.48230172732E+02  0.20107187738E+01  0.76631551465E+02  0.41800000000E+01 0.  1.
         -5    1    3    3    0  502 -0.11196562327E+02  0.19158957831E+02  0.10562682360E+03  0.10801354978E+03  0.41800000000E+01 0.  1.
        -11    1    4    4    0    0 -0.35467922580E+02 -0.15970075875E+02  0.27470728782E+02  0.47619930653E+02  0.00000000000E+00 0. -1.
         11    1    4    4    0    0 -0.12704949386E+02 -0.51419054688E+02  0.25959281937E+03  0.26494106287E+03  0.00000000000E+00 0.  1.
</event>
<event>
 8    1  0.4798744E-006  0.1996929E+03  0.7561462E-02  0.1149998E+00
         -2   -1    0    0    0  501 -0.00000000000E+00  0.00000000000E+00  0.21583790734E+03  0.21583790734E+03  0.00000000000E+00 0.  1.
          2   -1    0    0  501    0  0.00000000000E+00 -0.00000000000E+00 -0.35458284344E+03  0.35458284344E+03  0.00000000000E+00 0. -1.
         23    2    1    2    0    0  0.15717545280E+03 -0.98210171106E+02  0.10846263398E+03  0.24851581301E+03  0.12508639284E+03 0.  0.
         23    2    1    2    0    0 -0.15717545280E+03  0.98210171106E+02 -0.24720757008E+03  0.32190493776E+03  0.90342933195E+02 0.  0.
          5    1    3    3  502    0  0.62583308014E+02  0.12096152106E+02  0.76517766437E+02  0.99676618714E+02  0.41800000000E+01 0. -1.
         -5    1    3    3    0  502  0.94592144789E+02 -0.11030632321E+03  0.31944867545E+02  0.14883919430E+03  0.41800000000E+01 0. -1.
        -11    1    4    4    0    0 -0.11025182487E+03  0.90383943050E+02 -0.23137000623E+03  0.27176607925E+03  0.00000000000E+00 0. -1.
         11    1    4    4    0    0 -0.46923627934E+02  0.78262280567E+01 -0.15837563849E+02  0.50138858511E+02  0.00000000000E+00 0.  1.
</event>
<event>
 8    1  0.4798744E-006  0.9861275E+02  0.7561462E-02  0.1283240E+00
         -4   -1    0    0    0  501 -0.00000000000E+00  0.00000000000E+00  0.22167489637E+03  0.22167489637E+03  0.00000000000E+00 0.  1.
          4   -1    0    0  501    0  0.00000000000E+00 -0.00000000000E+00 -0.62501725721E+02  0.62501725721E+02  0.00000000000E+00 0. -1.
         23    2    1    2    0    0 -0.30356357895E+02 -0.68390218416E+01  0.13034087673E+03  0.18332188575E+03  0.12509951624E+03 0.  0.
         23    2    1    2    0    0  0.30356357895E+02  0.68390218416E+01  0.28832293920E+02  0.10085473634E+03  0.91499158388E+02 0.  0.
          5    1    3    3  502    0 -0.76166188134E+02 -0.16145630035E+02  0.10238678987E+03  0.12869536403E+03  0.41800000000E+01 0.  1.
         -5    1    3    3    0  502  0.45809830239E+02  0.93066081938E+01  0.27954086862E+02  0.54626521717E+02  0.41800000000E+01 0.  1.
        -11    1    4    4    0    0  0.46094438593E+02  0.21456198402E+02  0.49562519013E+02  0.71003584487E+02  0.00000000000E+00 0.  1.
         11    1    4    4    0    0 -0.15738080699E+02 -0.14617176561E+02 -0.20730225093E+02  0.29851151855E+02  0.00000000000E+00 0. -1.
</event>
<event>
 8    1  0.4798744E-006  0.1048713E+03  0.7561462E-02  0.1270373E+00
          2   -1    0    0  501    0  0.00000000000E+00  0.00000000000E+00  0.11991538751E+03  0.11991538751E+03  0.00000000000E+00 0. -1.
         -2   -1    0    0    0  501 -0.00000000000E+00 -0.00000000000E+00 -0.11427132884E+03  0.11427132884E+03  0.00000000000E+00 0.  1.
         23    2    1    2    0    0 -0.11121127937E+02  0.36165554344E+02 -0.18894184071E+02  0.13204325882E+03  0.12508719040E+03 0.  0.
         23    2    1    2    0    0  0.11121127937E+02 -0.36165554344E+02  0.24538242741E+02  0.10214345754E+03  0.91648970278E+02 0.  0.
          5    1    3    3  502    0  0.48266949522E+02  0.86421357044E+01  0.22889871903E+02  0.54275257359E+02  0.41800000000E+01 0. -1.
         -5    1    3    3    0  502 -0.59388077459E+02  0.27523418640E+02 -0.41784055974E+02  0.77768001463E+02  0.41800000000E+01 0. -1.
        -11    1    4    4    0    0  0.30615147434E+02  0.19271992742E+02 -0.47461127957E+01  0.36485922536E+02  0.00000000000E+00 0.  1.
         11    1    4    4    0    0 -0.19494019497E+02 -0.55437547086E+02  0.29284355537E+02  0.65657535000E+02  0.00000000000E+00 0. -1.
</event>
<event>
 8    1  0.4798744E-006  0.7033879E+02  0.7561462E-02  0.1358945E+00
          3   -1    0    0  501    0  0.00000000000E+00  0.00000000000E+00  0.79420423280E+02  0.79420423280E+02  0.00000000000E+00 0. -1.
         -3   -1    0    0    0  501 -0.00000000000E+00 -0.00000000000E+00 -0.20118966090E+03  0.20118966090E+03  0.00000000000E+00 0.  1.
         23    2    1    2    0    0 -0.46478683829E+02  0.13104880576E+02 -0.11619328663E+03  0.17742762588E+03  0.12509067360E+03 0.  0.
         23    2    1    2    0    0  0.46478683829E+02 -0.13104880576E+02 -0.55759509914E+01  0.10318245831E+03  0.91013858984E+02 0.  0.
          5    1    3    3  502    0 -0.45242401649E+01 -0.15407290082E+02  0.23490411692E+02  0.28759784043E+02  0.41800000000E+01 0.  1.
         -5    1    3    3    0  502 -0.41954443664E+02  0.28512170657E+02 -0.13968369832E+03  0.14866784183E+03  0.41800000000E+01 0.  1.
        -11    1    4    4    0    0 -0.86348480245E+01 -0.15801958126E+02  0.31794109216E+02  0.36539401499E+02  0.00000000000E+00 0. -1.
         11    1    4    4    0    0  0.55113531853E+02  0.26970775506E+01 -0.37370060207E+02  0.66643056807E+02  0.00000000000E+00 0.  1.
</event>
<event>
 8    1  0.4798744E-006  0.1141587E+03  0.7561462E-02  0.1253057E+00
         -1   -1    0    0    0  501 -0.00000000000E+00  0.00000000000E+00  0.17793659041E+03  0.17793659041E+03  0.00000000000E+00 0.  1.
          1   -1    0    0  501    0  0.00000000000E+00 -0.00000000000E+00 -0.90449202748E+02  0.90449202748E+02  0.00000000000E+00 0. -1.
         23    2    1    2    0    0 -0.10645046959E+02  0.63841650961E+02  0.32942992615E+02  0.14464562423E+03  0.12509213574E+03 0.  0.
         23    2    1    2    0    0  0.10645046959E+02 -0.63841650961E+02  0.54544395043E+02  0.12374016892E+03  0.90263309005E+02 0.  0.
          5    1    3    3  502    0 -0.17104708299E+02 -0.35824837049E+02  0.17134814184E+02  0.43440352816E+02  0.41800000000E+01 0.  1.
         -5    1    3    3    0  502  0.64596613403E+01  0.99666488010E+02  0.15808178431E+02  0.10120527142E+03  0.41800000000E+01 0.  1.
        -11    1    4    4    0    0 -0.64271959637E+01  0.10417016074E+02 -0.15834984965E+02  0.20014240447E+02  0.00000000000E+00 0. -1.
         11    1    4    4    0    0  0.17072242923E+02 -0.74258667035E+02  0.70379380008E+02  0.10372592848E+03  0.00000000000E+00 0.  1.
</event>
<event>
 8    1  0.4798744E-006  0.1346869E+03  0.7561462E-02  0.1220662E+00
         -3   -1    0    0    0  501 -0.00000000000E+00  0.00000000000E+00  0.39890293473E+03  0.39890293473E+03  0.00000000000E+00 0.  1.
          3   -1    0    0  501    0  0.00000000000E+00 -0.00000000000E+00 -0.99442933632E+02  0.99442933632E+02  0.00000000000E+00 0. -1.
         23    2    1    2    0    0 -0.12260602884E+03 -0.12240267920E+02  0.29730191118E+03  0.34528048232E+03  0.12509245625E+03 0.  0.
         23    2    1    2    0    0  0.12260602884E+03  0.12240267920E+02  0.21580899186E+01  0.15306538605E+03  0.90787072799E+02 0.  0.
          5    1    3    3  502    0 -0.46941221221E+02  0.14037720843E+02  0.24416819532E+03  0.24907050380E+03  0.41800000000E+01 0.  1.
         -5    1    3    3    0  502 -0.75664807619E+02 -0.26277988763E+02  0.53133715864E+02  0.96209978521E+02  0.41800000000E+01 0.  1.
        -11    1    4    4    0    0  0.18268206323E+01 -0.15879457105E+02 -0.21528961159E+02  0.26814000078E+02  0.00000000000E+00 0. -1.
         11    1    4    4    0    0  0.12077920821E+03  0.28119725025E+02  0.23687051078E+02  0.12625138597E+03  0.00000000000E+00 0.  1.
</event>
<event>
 8    1  0.4798744E-006  0.7140112E+02  0.7561462E-02  0.1355392E+00
         -2   -1    0    0    0  501 -0.00000000000E+00  0.00000000000E+00  0.12496486769E+03  0.12496486769E+03  0.00000000000E+00 0.  1.
          2   -1    0    0  501    0  0.00000000000E+00 -0.00000000000E+00 -0.11143759004E+03  0.11143759004E+03  0.00000000000E+00 0. -1.
         23    2    1    2    0    0 -0.18613434913E+02  0.44351078973E+02  0.36022014226E+01  0.13406552916E+03  0.12508841708E+03 0.  0.
         23    2    1    2    0    0  0.18613434913E+02 -0.44351078973E+02  0.99250762302E+01  0.10233692857E+03  0.89782301405E+02 0.  0.
          5    1    3    3  502    0 -0.15536921858E+02  0.61774465645E+00 -0.56955192471E+02  0.59187362660E+02  0.41800000000E+01 0. -1.
         -5    1    3    3    0  502 -0.30765130554E+01  0.43733334317E+02  0.60557393893E+02  0.74878166499E+02  0.41800000000E+01 0. -1.
        -11    1    4    4    0    0 -0.19258500249E+02  0.55252639534E+01  0.30435763510E+02  0.36438359925E+02  0.00000000000E+00 0.  1.
         11    1    4    4    0    0  0.37871935162E+02 -0.49876342927E+02 -0.20510687280E+02  0.65898568644E+02  0.00000000000E+00 0. -1.
</event>
<event>
 8    1  0.4798744E-006  0.1037962E+03  0.7561462E-02  0.1272510E+00
         -1   -1    0    0    0  501 -0.00000000000E+00  0.00000000000E+00  0.17906998220E+03  0.17906998220E+03  0.00000000000E+00 0.  1.
          1   -1    0    0  501    0  0.00000000000E+00 -0.00000000000E+00 -0.67246684218E+02  0.67246684218E+02  0.00000000000E+00 0. -1.
         23    2    1    2    0    0 -0.26611966320E+02  0.31655865866E+01  0.89473855402E+02  0.14507210418E+03  0.11100507611E+03 0.  0.
         23    2    1    2    0    0  0.26611966320E+02 -0.31655865866E+01  0.22349442585E+02  0.10124456224E+03  0.95040760252E+02 0.  0.
          5    1    3    3  502    0 -0.60363683620E+02 -0.25259938556E+02  0.33371417051E+02  0.73572839228E+02  0.41800000000E+01 0. -1.
         -5    1    3    3    0  502  0.33751717300E+02  0.28425525143E+02  0.56102438351E+02  0.71499264956E+02  0.41800000000E+01 0.  1.
        -11    1    4    4    0    0  0.60242031102E+02  0.10945247652E+02  0.21068093814E+02  0.64751566270E+02  0.00000000000E+00 0.  1.
         11    1    4    4    0    0 -0.33630064782E+02 -0.14110834238E+02  0.12813487705E+01  0.36492995969E+02  0.00000000000E+00 0. -1.
</event>
<event>
 8    1  0.4798744E-006  0.1996488E+03  0.7561462E-02  0.1150036E+00
          2   -1    0    0  501    0  0.00000000000E+00  0.00000000000E+00  0.25289485479E+03  0.25289485479E+03  0.00000000000E+00 0. -1.
         -2   -1    0    0    0  501 -0.00000000000E+00 -0.00000000000E+00 -0.18736239279E+03  0.18736239279E+03  0.00000000000E+00 0.  1.
         23    2    1    2    0    0 -0.18473849561E+03 -0.32695128054E+01 -0.42034055369E+01  0.22317086256E+03  0.12509421971E+03 0.  0.
         23    2    1    2    0    0  0.18473849561E+03  0.32695128054E+01  0.69735867539E+02  0.21708638502E+03  0.90135486150E+02 0.  0.
          5    1    3    3  502    0 -0.66398376199E+02  0.28531817757E+02  0.51157703578E+02  0.88641931510E+02  0.41800000000E+01 0. -1.
         -5    1    3    3    0  502 -0.11834011941E+03 -0.31801330562E+02 -0.55361109115E+02  0.13452893105E+03  0.41800000000E+01 0. -1.
        -11    1    4    4    0    0  0.11947682331E+03  0.44054607697E+02  0.31622999508E+02  0.13120797943E+03  0.00000000000E+00 0.  1.
         11    1    4    4    0    0  0.65261672299E+02 -0.40785094892E+02  0.38112868032E+02  0.85878405587E+02  0.00000000000E+00 0. -1.
</event>
<event>
 8    1  0.4798744E-006  0.1336512E+03  0.7561462E-02  0.1222136E+00
         -2   -1    0    0    0  501 -0.00000000000E+00  0.00000000000E+00  0.73367620144E+02  0.73367620144E+02  0.00000000000E+00 0.  1.
          2   -1    0    0  501    0  0.00000000000E+00 -0.00000000000E+00 -0.34672847770E+03  0.34672847770E+03  0.00000000000E+00 0. -1.
         23    2    1    2    0    0  0.14990034044E+02  0.97955226543E+02 -0.65381351152E+02  0.17245979062E+03  0.12509089006E+03 0.  0.
         23    2    1    2    0    0 -0.14990034044E+02 -0.97955226543E+02 -0.20797950640E+03  0.24763630722E+03  0.90820361380E+02 0.  0.
          5    1    3    3  502    0 -0.55270141508E+02  0.46861709611E+02 -0.31373790726E+02  0.79073355275E+02  0.41800000000E+01 0. -1.
         -5    1    3    3    0  502  0.70260175551E+02  0.51093516932E+02 -0.34007560427E+02  0.93386435349E+02  0.41800000000E+01 0. -1.
        -11    1    4    4    0    0  0.75635694088E+01 -0.75641970089E+02 -0.20135329414E+03  0.21522561251E+03  0.00000000000E+00 0. -1.
         11    1    4    4    0    0 -0.22553603453E+02 -0.22313256454E+02 -0.66262122640E+01  0.32410694705E+02  0.00000000000E+00 0.  1.
</event>
<event>
 8    1  0.4798744E-006  0.3044323E+03  0.7561462E-02  0.1083046E+00
         -1   -1    0    0    0  501 -0.00000000000E+00  0.00000000000E+00  0.26662562281E+03  0.26662562281E+03  0.00000000000E+00 0.  1.
          1   -1    0    0  501    0  0.00000000000E+00 -0.00000000000E+00 -0.39817941064E+03  0.39817941064E+03  0.00000000000E+00 0. -1.
         23    2    1    2    0    0  0.16178020287E+03 -0.24591494141E+03  0.21017006330E+02  0.32052481100E+03  0.12508975764E+03 0.  0.
         23    2    1    2    0    0 -0.16178020287E+03  0.24591494141E+03 -0.15257079416E+03  0.34428022245E+03  0.92757920918E+02 0.  0.
          5    1    3    3  502    0  0.11645153255E+03 -0.12420689847E+03  0.66527337268E+02  0.18284329920E+03  0.41800000000E+01 0. -1.
         -5    1    3    3    0  502  0.45328670322E+02 -0.12170804294E+03 -0.45510330938E+02  0.13768151180E+03  0.41800000000E+01 0. -1.
        -11    1    4    4    0    0 -0.90716641357E+02  0.57911579065E+02 -0.54895768111E+02  0.12081723952E+03  0.00000000000E+00 0. -1.
         11    1    4    4    0    0 -0.71063561510E+02  0.18800336234E+03 -0.97675026052E+02  0.22346298293E+03  0.00000000000E+00 0.  1.
</event>
<event>
 8    1  0.4798744E-006  0.2680770E+03  0.7561462E-02  0.1102385E+00
         -2   -1    0    0    0  501 -0.00000000000E+00  0.00000000000E+00  0.11972293759E+03  0.11972293759E+03  0.00000000000E+00 0.  1.
          2   -1    0    0  501    0  0.00000000000E+00 -0.00000000000E+00 -0.81172364175E+03  0.81172364175E+03  0.00000000000E+00 0. -1.
         23    2    1    2    0    0 -0.11014391644E+03  0.24430568283E+03 -0.17931256735E+03  0.34585768092E+03  0.12509032596E+03 0.  0.
         23    2    1    2    0    0  0.11014391644E+03 -0.24430568283E+03 -0.51268813680E+03  0.58558889842E+03  0.90820060232E+02 0.  0.
          5    1    3    3  502    0 -0.40896650498E+02  0.96359759684E+02 -0.20660090382E+01  0.10478301438E+03  0.41800000000E+01 0.  1.
         -5    1    3    3    0  502 -0.69247265943E+02  0.14794592315E+03 -0.17724655831E+03  0.24107466655E+03  0.41800000000E+01 0.  1.
        -11    1    4    4    0    0  0.70806297399E+02 -0.15615181246E+03 -0.23000906558E+03  0.28688166643E+03  0.00000000000E+00 0.  1.
         11    1    4    4    0    0  0.39337619042E+02 -0.88153870370E+02 -0.28267907122E+03  0.29870723199E+03  0.00000000000E+00 0. -1.
</event>
<event>
 8    1  0.5839429E-006  0.1840951E+03  0.7561462E-02  0.1163898E+00
          1   -1    0    0  501    0  0.00000000000E+00  0.00000000000E+00  0.13878582880E+03  0.13878582880E+03  0.00000000000E+00 0. -1.
         -1   -1    0    0    0  501 -0.00000000000E+00 -0.00000000000E+00 -0.29705224247E+03  0.29705224247E+03  0.00000000000E+00 0.  1.
         23    2    1    2    0    0  0.13237153358E+03 -0.10816484933E+03 -0.80821171613E+02  0.22671921317E+03  0.12509069632E+03 0.  0.
         23    2    1    2    0    0 -0.13237153358E+03  0.10816484933E+03 -0.77445242052E+02  0.20911885810E+03  0.92255480926E+02 0.  0.
          5    1    3    3  502    0  0.13200241928E+03 -0.74891897394E+02 -0.14644456508E+02  0.15252989050E+03  0.41800000000E+01 0.  1.
         -5    1    3    3    0  502  0.36911430388E+00 -0.33272951941E+02 -0.66176715106E+02  0.74189322671E+02  0.41800000000E+01 0.  1.
        -11    1    4    4    0    0 -0.76745601751E+02  0.10083976524E+03 -0.84879403068E+02  0.15252232199E+03  0.00000000000E+00 0.  1.
         11    1    4    4    0    0 -0.55625931828E+02  0.73250840995E+01  0.74341610163E+01  0.56596536103E+02  0.00000000000E+00 0. -1.
</event>
<event>
 8    1  0.4798744E-006  0.1817733E+03  0.7561462E-02  0.1166098E+00
         -1   -1    0    0    0  501 -0.00000000000E+00  0.00000000000E+00  0.27092485337E+03  0.27092485337E+03  0.00000000000E+00 0.  1.
          1   -1    0    0  501    0  0.00000000000E+00 -0.00000000000E+00 -0.18160791069E+03  0.18160791069E+03  0.00000000000E+00 0. -1.
         23    2    1    2    0    0  0.16950768682E+03 -0.23329953836E-01  0.14072341320E+03  0.25334372444E+03  0.12508839776E+03 0.  0.
         23    2    1    2    0    0 -0.16950768682E+03  0.23329953836E-01 -0.51406470521E+02  0.19918903962E+03  0.91108681569E+02 0.  0.
          5    1    3    3  502    0  0.18058377333E+01  0.97138898763E+01  0.70354979972E+02  0.71168225447E+02  0.41800000000E+01 0. -1.
         -5    1    3    3    0  502  0.16770184909E+03 -0.97372198301E+01  0.70368433227E+02  0.18217549899E+03  0.41800000000E+01 0. -1.
        -11    1    4    4    0    0 -0.13534643368E+03 -0.30759402809E+02 -0.13237457541E+02  0.13942750179E+03  0.00000000000E+00 0.  1.
         11    1    4    4    0    0 -0.34161253135E+02  0.30782732763E+02 -0.38169012980E+02  0.59761537831E+02  0.00000000000E+00 0. -1.
</event>
<event>
 8    1  0.4798744E-006  0.1060884E+03  0.7561462E-02  0.1267990E+00
         -2   -1    0    0    0  501 -0.00000000000E+00  0.00000000000E+00  0.56717937845E+03  0.56717937845E+03  0.00000000000E+00 0.  1.
          2   -1    0    0  501    0  0.00000000000E+00 -0.00000000000E+00 -0.10573982265E+03  0.10573982265E+03  0.00000000000E+00 0. -1.
         23    2    1    2    0    0 -0.76356650618E+02  0.19705138449E+02  0.51953993773E+03  0.53931984542E+03  0.12134874613E+03 0.  0.
         23    2    1    2    0    0  0.76356650618E+02 -0.19705138449E+02 -0.58100381924E+02  0.13359935569E+03  0.90854294811E+02 0.  0.
          5    1    3    3  502    0  0.15040989381E+02  0.25206414500E+02  0.29934492918E+03  0.30080966361E+03  0.41800000000E+01 0. -1.
         -5    1    3    3    0  502 -0.91397639999E+02 -0.55012760511E+01  0.22019500855E+03  0.23851018181E+03  0.41800000000E+01 0.  1.
        -11    1    4    4    0    0  0.14504538935E+02  0.14230217019E+02 -0.59667050489E+02  0.63032036618E+02  0.00000000000E+00 0.  1.
         11    1    4    4    0    0  0.61852111683E+02 -0.33935355467E+02  0.15666685651E+01  0.70567319070E+02  0.00000000000E+00 0. -1.
</event>
<event>
 8    1  0.4798744E-006  0.1183151E+03  0.7561462E-02  0.1245903E+00
          2   -1    0    0  501    0  0.00000000000E+00  0.00000000000E+00  0.16788504505E+03  0.16788504505E+03  0.00000000000E+00 0. -1.
         -2   -1    0    0    0  501 -0.00000000000E+00 -0.00000000000E+00 -0.13631845379E+03  0.13631845379E+03  0.00000000000E+00 0.  1.
         23    2    1    2    0    0  0.69351402840E+02 -0.12800547888E+02 -0.61133680981E+02  0.15607168728E+03  0.12509026148E+03 0.  0.
         23    2    1    2    0    0 -0.69351402840E+02  0.12800547888E+02  0.92700272238E+02  0.14813181156E+03  0.91521702459E+02 0.  0.
          5    1    3    3  502    0  0.10289101750E+03 -0.24981396585E+02 -0.34813406020E+02  0.11153509446E+03  0.41800000000E+01 0.  1.
         -5    1    3    3    0  502 -0.33539614655E+02  0.12180848696E+02 -0.26320274961E+02  0.44536592822E+02  0.41800000000E+01 0.  1.
        -11    1    4    4    0    0 -0.65839006814E+02 -0.14332583178E+02  0.99285563341E+02  0.11999091985E+03  0.00000000000E+00 0. -1.
         11    1    4    4    0    0 -0.35123960267E+01  0.27133131066E+02 -0.65852911028E+01  0.28140891710E+02  0.00000000000E+00 0.  1.
</event>
<event>
 6    1  0.4798744E-006  0.1741574E+03  0.7561462E-02  0.1173580E+00
         -1   -1    0    0    0  501 -0.00000000000E+00  0.00000000000E+00  0.18505592155E+03  0.18505592155E+03  0.00000000000E+00 0.  1.
          1   -1    0    0  501    0  0.00000000000E+00 -0.00000000000E+00 -0.22336794051E+03  0.22336794051E+03  0.00000000000E+00 0. -1.
          5    1    1    2  502    0  0.24673587453E+02 -0.49806244002E+01 -0.47481975301E+02  0.53903644734E+02  0.41800000000E+01 0. -1.
         -5    1    1    2    0  502 -0.89234704033E+02 -0.35600908748E+01  0.66691379434E+02  0.11153797175E+03  0.41800000000E+01 0.  1.
        -11    1    1    2    0    0  0.43206492304E+02 -0.10726362723E+03 -0.10251596707E+02  0.11609212695E+03  0.00000000000E+00 0.  1.
         11    1    1    2    0    0  0.21354624277E+02  0.11580434250E+03 -0.47269826381E+02  0.12689011863E+03  0.00000000000E+00 0. -1.
</event>
<event>
 8    1  0.4798744E-006  0.1012578E+03  0.7561462E-02  0.1277673E+00
          1   -1    0    0  501    0  0.00000000000E+00  0.00000000000E+00  0.15339537153E+03  0.15339537153E+03  0.00000000000E+00 0. -1.
         -1   -1    0    0    0  501 -0.00000000000E+00 -0.00000000000E+00 -0.90880462686E+02  0.90880462686E+02  0.00000000000E+00 0.  1.
         23    2    1    2    0    0  0.36165008615E+02 -0.18157216419E+02  0.15276306474E+02  0.13236578118E+03  0.12509892938E+03 0.  0.
         23    2    1    2    0    0 -0.36165008615E+02  0.18157216419E+02  0.47238602371E+02  0.11191005304E+03  0.93031081151E+02 0.  0.
          5    1    3    3  502    0 -0.32780107053E+02 -0.38142007165E+02 -0.17404179378E+02  0.53382824849E+02  0.41800000000E+01 0. -1.
         -5    1    3    3    0  502  0.68945115669E+02  0.19984790746E+02  0.32680485853E+02  0.78982956334E+02  0.41800000000E+01 0. -1.
        -11    1    4    4    0    0 -0.15252473186E+02  0.44192584152E+02 -0.79331874784E+01  0.47418961354E+02  0.00000000000E+00 0.  1.
         11    1    4    4    0    0 -0.20912535429E+02 -0.26035367733E+02  0.55171789849E+02  0.64491091681E+02  0.00000000000E+00 0. -1.
</event>
<event>
 8    1  0.4798744E-006  0.1040253E+03  0.7561462E-02  0.1272052E+00
          1   -1    0    0  501    0  0.00000000000E+00  0.00000000000E+00  0.92728477032E+02  0.92728477032E+02  0.00000000000E+00 0. -1.
         -1   -1    0    0    0  501 -0.00000000000E+00 -0.00000000000E+00 -0.14200178451E+03  0.14200178451E+03  0.00000000000E+00 0.  1.
         23    2    1    2    0    0  0.23418287044E+02 -0.10603004342E+02 -0.56050161561E+02  0.13946395493E+03  0.12509090393E+03 0.  0.
         23    2    1    2    0    0 -0.23418287044E+02  0.10603004342E+02  0.67768540818E+01  0.95266306608E+02  0.91481711584E+02 0.  0.
          5    1    3    3  502    0 -0.50401374498E+02 -0.13656438864E+02 -0.33180148881E+02  0.62009608558E+02  0.41800000000E+01 0. -1.
         -5    1    3    3    0  502  0.73819661543E+02  0.30534345223E+01 -0.22870012681E+02  0.77454346377E+02  0.41800000000E+01 0. -1.
        -11    1    4    4    0    0 -0.70665869704E+01  0.43954895800E+02 -0.20667529544E+02  0.49082749451E+02  0.00000000000E+00 0.  1.
         11    1    4    4    0    0 -0.16351700074E+02 -0.33351891458E+02  0.27444383626E+02  0.46183557158E+02  0.00000000000E+00 0. -1.
</event>
<event>
 8    1  0.4798744E-006  0.1641349E+03  0.7561462E-02  0.1184106E+00
         -2   -1    0    0    0  501 -0.00000000000E+00  0.00000000000E+00  0.96656646006E+02  0.96656646006E+02  0.00000000000E+00 0.  1.
          2   -1    0    0  501    0  0.00000000000E+00 -0.00000000000E+00 -0.28954132328E+03  0.28954132328E+03  0.00000000000E+00 0. -1.
         23    2    1    2    0    0 -0.19946246688E+02 -0.12583247310E+03 -0.11160669881E+03  0.21056111617E+03  0.12509302290E+03 0.  0.
         23    2    1    2    0    0  0.19946246688E+02  0.12583247310E+03 -0.81277978463E+02  0.17563685312E+03  0.89501566171E+02 0.  0.
          5    1    3    3  502    0 -0.66519053161E+02 -0.10967871682E+03 -0.71785385530E+02  0.14705379741E+03  0.41800000000E+01 0. -1.
         -5    1    3    3    0  502  0.46572806473E+02 -0.16153756283E+02 -0.39821313284E+02  0.63507318763E+02  0.41800000000E+01 0. -1.
        -11    1    4    4    0    0 -0.28501887573E+02  0.22439935633E+02 -0.40554754272E+02  0.54411362789E+02  0.00000000000E+00 0.  1.
         11    1    4    4    0    0  0.48448134261E+02  0.10339253747E+03 -0.40723224190E+02  0.12122549033E+03  0.00000000000E+00 0. -1.
</event>
<event>
 8    1  0.4798744E-006  0.8511334E+02  0.7561462E-02  0.1315136E+00
         -2   -1    0    0    0  501 -0.00000000000E+00  0.00000000000E+00  0.77604241031E+02  0.77604241031E+02  0.00000000000E+00 0.  1.
          2   -1    0    0  501    0  0.00000000000E+00 -0.00000000000E+00 -0.21151733792E+03  0.21151733792E+03  0.00000000000E+00 0. -1.
         23    2    1    2    0    0  0.17450270563E+02  0.14268004831E+02 -0.24733313452E+00  0.12710077252E+03  0.12508579974E+03 0.  0.
         23    2    1    2    0    0 -0.17450270563E+02 -0.14268004831E+02 -0.13366576376E+03  0.16202080643E+03  0.88747492424E+02 0.  0.
          5    1    3    3  502    0  0.13377833632E+01 -0.30599782595E+02  0.49316336340E+02  0.58204035850E+02  0.41800000000E+01 0.  1.
         -5    1    3    3    0  502  0.16112487200E+02  0.44867787426E+02 -0.49563669475E+02  0.68896736672E+02  0.41800000000E+01 0.  1.
        -11    1    4    4    0    0  0.47338111607E+01  0.36106116355E+02 -0.49408529493E+02  0.61378036732E+02  0.00000000000E+00 0. -1.
         11    1    4    4    0    0 -0.22184081724E+02 -0.50374121186E+02 -0.84257234265E+02  0.10064276970E+03  0.00000000000E+00 0.  1.
</event>
<event>
 8    1  0.4798744E-006  0.1996633E+03  0.7561462E-02  0.1150023E+00
          1   -1    0    0  501    0  0.00000000000E+00  0.00000000000E+00  0.42716306431E+02  0.42716306431E+02  0.00000000000E+00 0. -1.
         -1   -1    0    0    0  501 -0.00000000000E+00 -0.00000000000E+00 -0.10827615684E+04  0.10827615684E+04  0.00000000000E+00 0.  1.
         23    2    1    2    0    0 -0.56428050452E+01  0.16757206621E+03 -0.73700812244E+03  0.76612046206E+03  0.12508937292E+03 0.  0.
         23    2    1    2    0    0  0.56428050452E+01 -0.16757206621E+03 -0.30303713949E+03  0.35935741274E+03  0.95885366744E+02 0.  0.
          5    1    3    3  502    0 -0.26694375886E+02 -0.96380345935E+01 -0.14394363824E+03  0.14677440106E+03  0.41800000000E+01 0.  1.
         -5    1    3    3    0  502  0.21051570841E+02  0.17721010080E+03 -0.59306448420E+03  0.61934606100E+03  0.41800000000E+01 0.  1.
        -11    1    4    4    0    0  0.49809455956E+02 -0.90784901205E+02 -0.18152928587E+03  0.20898746808E+03  0.00000000000E+00 0. -1.
         11    1    4    4    0    0 -0.44166650911E+02 -0.76787165004E+02 -0.12150785362E+03  0.15036994465E+03  0.00000000000E+00 0.  1.
</event>
<event>
 8    1  0.4798744E-006  0.1249071E+03  0.7561462E-02  0.1235214E+00
         -2   -1    0    0    0  501 -0.00000000000E+00  0.00000000000E+00  0.23985804511E+02  0.23985804511E+02  0.00000000000E+00 0.  1.
          2   -1    0    0  501    0  0.00000000000E+00 -0.00000000000E+00 -0.10323526796E+04  0.10323526796E+04  0.00000000000E+00 0. -1.
         23    2    1    2    0    0  0.10588100053E+03  0.10953035128E+02 -0.41731739262E+03  0.44847823673E+03  0.12509263521E+03 0.  0.
         23    2    1    2    0    0 -0.10588100053E+03 -0.10953035128E+02 -0.59104948248E+03  0.60786024739E+03  0.93935266908E+02 0.  0.
          5    1    3    3  502    0  0.77222858488E+02  0.14787139569E+02 -0.88862793183E+02  0.11872698843E+03  0.41800000000E+01 0. -1.
         -5    1    3    3    0  502  0.28658142044E+02 -0.38341044413E+01 -0.32845459944E+03  0.32975124830E+03  0.41800000000E+01 0. -1.
        -11    1    4    4    0    0 -0.54959390726E+02  0.41416987822E+02 -0.27512822609E+03  0.28360437637E+03  0.00000000000E+00 0.  1.
         11    1    4    4    0    0 -0.50921609805E+02 -0.52370022950E+02 -0.31592125639E+03  0.32425587102E+03  0.00000000000E+00 0. -1.
</event>
<event>
 8    1  0.4798744E-006  0.1927796E+03  0.7561462E-02  0.1155978E+00
          2   -1    0    0  501    0  0.00000000000E+00  0.00000000000E+00  0.17324677010E+03  0.17324677010E+03  0.00000000000E+00 0.  1.
         -2   -1    0    0    0  501 -0.00000000000E+00 -0.00000000000E+00 -0.29257480809E+03  0.29257480809E+03  0.00000000000E+00 0. -1.
         23    2    1    2    0    0 -0.97748669962E+02 -0.14313868676E+03 -0.15860243891E+03  0.26616539733E+03  0.12508316825E+03 0.  0.
         23    2    1    2    0    0  0.97748669962E+02  0.14313868676E+03  0.39274400913E+02  0.19965618086E+03  0.90975963109E+02 0.  0.
          5    1    3    3  502    0  0.18289240875E+02 -0.27726680637E+01 -0.51419599291E+02  0.54805397647E+02  0.41800000000E+01 0.  1.
         -5    1    3    3    0  502 -0.11603791084E+03 -0.14036601869E+03 -0.10718283962E+03  0.21135999968E+03  0.41800000000E+01 0.  1.
        -11    1    4    4    0    0  0.15943752423E+01  0.51740791643E+02  0.42466645865E+02  0.66955713447E+02  0.00000000000E+00 0.  1.
         11    1    4    4    0    0  0.96154294720E+02  0.91397895116E+02 -0.31922449522E+01  0.13270046742E+03  0.00000000000E+00 0. -1.
</event>
<event>
 8    1  0.4798744E-006  0.2260838E+03  0.7561462E-02  0.1129427E+00
         -2   -1    0    0    0  501 -0.00000000000E+00  0.00000000000E+00  0.46916291909E+03  0.46916291909E+03  0.00000000000E+00 0.  1.
          2   -1    0    0  501    0  0.00000000000E+00 -0.00000000000E+00 -0.13927095950E+03  0.13927095950E+03  0.00000000000E+00 0. -1.
         23    2    1    2    0    0 -0.20990139440E+02 -0.20792476630E+03  0.28590540496E+03  0.37557818375E+03  0.12507508597E+03 0.  0.
         23    2    1    2    0    0  0.20990139440E+02  0.20792476630E+03  0.43986554637E+02  0.23285569484E+03  0.92809822943E+02 0.  0.
          5    1    3    3  502    0  0.35102079942E+02 -0.10423075078E+02  0.58805571946E+02  0.69400030276E+02  0.41800000000E+01 0. -1.
         -5    1    3    3    0  502 -0.56092219382E+02 -0.19750169122E+03  0.22709983301E+03  0.30617815347E+03  0.41800000000E+01 0. -1.
        -11    1    4    4    0    0  0.20120813844E+02  0.98720262528E+02 -0.24842261641E+02  0.10376740985E+03  0.00000000000E+00 0. -1.
         11    1    4    4    0    0  0.86932559592E+00  0.10920450377E+03  0.68828816277E+02  0.12908828499E+03  0.00000000000E+00 0.  1.
</event>
<event>
 8    1  0.4798744E-006  0.2262396E+03  0.7561462E-02  0.1129315E+00
         -1   -1    0    0    0  501 -0.00000000000E+00  0.00000000000E+00  0.10346007948E+03  0.10346007948E+03  0.00000000000E+00 0.  1.
          1   -1    0    0  501    0  0.00000000000E+00 -0.00000000000E+00 -0.50441695811E+03  0.50441695811E+03  0.00000000000E+00 0. -1.
         23    2    1    2    0    0  0.20000569927E+03 -0.52209375871E+00 -0.21415513672E+03  0.31861004499E+03  0.12508951141E+03 0.  0.
         23    2    1    2    0    0 -0.20000569927E+03  0.52209375871E+00 -0.18680174191E+03  0.28926699260E+03  0.93690714071E+02 0.  0.
          5    1    3    3  502    0  0.18854302472E+03 -0.40604419250E+02 -0.18707414389E+03  0.26872178688E+03  0.41800000000E+01 0.  1.
         -5    1    3    3    0  502  0.11462674547E+02  0.40082325491E+02 -0.27080992830E+02  0.49888258110E+02  0.41800000000E+01 0.  1.
        -11    1    4    4    0    0 -0.60776005585E+02  0.40234919408E+02 -0.40266550673E+02  0.83270443122E+02  0.00000000000E+00 0.  1.
         11    1    4    4    0    0 -0.13922969368E+03 -0.39712825649E+02 -0.14653519124E+03  0.20599654947E+03  0.00000000000E+00 0. -1.
</event>
<event>
 8    1  0.4798744E-006  0.1304458E+03  0.7561462E-02  0.1226796E+00
          2   -1    0    0  501    0  0.00000000000E+00  0.00000000000E+00  0.12525919849E+03  0.12525919849E+03  0.00000000000E+00 0.  1.
         -2   -1    0    0    0  501 -0.00000000000E+00 -0.00000000000E+00 -0.20434333244E+03  0.20434333244E+03  0.00000000000E+00 0. -1.
         23    2    1    2    0    0  0.20113976023E+02  0.85468214627E+02 -0.12332836640E+03  0.19636384439E+03  0.12505792930E+03 0.  0.
         23    2    1    2    0    0 -0.20113976023E+02 -0.85468214627E+02  0.44244232450E+02  0.13323868654E+03  0.89920007463E+02 0.  0.
          5    1    3    3  502    0 -0.37216413087E+02 -0.11965242665E+02 -0.26035560070E+02  0.47154546157E+02  0.41800000000E+01 0.  1.
         -5    1    3    3    0  502  0.57330389110E+02  0.97433457292E+02 -0.97292806334E+02  0.14920929823E+03  0.41800000000E+01 0.  1.
        -11    1    4    4    0    0  0.17624448379E+02 -0.60948296411E+02  0.58224385137E+02  0.86112688035E+02  0.00000000000E+00 0.  1.
         11    1    4    4    0    0 -0.37738424402E+02 -0.24519918216E+02 -0.13980152687E+02  0.47125998502E+02  0.00000000000E+00 0. -1.
</event>
<event>
 8    1  0.4798744E-006  0.9645057E+02  0.7561462E-02  0.1287942E+00
         -3   -1    0    0    0  501 -0.00000000000E+00  0.00000000000E+00  0.69405907609E+03  0.69405907609E+03  0.00000000000E+00 0. -1.
          3   -1    0    0  501    0  0.00000000000E+00 -0.00000000000E+00 -0.20280232818E+02  0.20280232818E+02  0.00000000000E+00 0.  1.
         23    2    1    2    0    0 -0.39682535454E+02 -0.29685459302E+02  0.38667943533E+03  0.40941972075E+03  0.12509033503E+03 0.  0.
         23    2    1    2    0    0  0.39682535454E+02  0.29685459302E+02  0.28709940794E+03  0.30491958816E+03  0.89966410883E+02 0.  0.
          5    1    3    3  502    0  0.24879810694E+02 -0.19968989714E+02  0.22141076840E+02  0.39057204380E+02  0.41800000000E+01 0. -1.
         -5    1    3    3    0  502 -0.64562346148E+02 -0.97164695879E+01  0.36453835849E+03  0.37036251637E+03  0.41800000000E+01 0. -1.
        -11    1    4    4    0    0  0.64710960334E+02  0.15528282905E+02  0.13969049052E+03  0.15473224970E+03  0.00000000000E+00 0. -1.
         11    1    4    4    0    0 -0.25028424880E+02  0.14157176396E+02  0.14740891742E+03  0.15018733845E+03  0.00000000000E+00 0.  1.
</event>
<event>
 8    1  0.4798744E-006  0.2306566E+03  0.7561462E-02  0.1126178E+00
          1   -1    0    0  501    0  0.00000000000E+00  0.00000000000E+00  0.96095051250E+03  0.96095051250E+03  0.00000000000E+00 0. -1.
         -1   -1    0    0    0  501 -0.00000000000E+00 -0.00000000000E+00 -0.55569277773E+02  0.55569277773E+02  0.00000000000E+00 0.  1.
         23    2    1    2    0    0  0.16176832055E+03 -0.12371333015E+03  0.44029914008E+03  0.50098450568E+03  0.12509262403E+03 0.  0.
         23    2    1    2    0    0 -0.16176832055E+03  0.12371333015E+03  0.46508209465E+03  0.51553528460E+03  0.89449971001E+02 0.  0.
          5    1    3    3  502    0  0.18265737042E+03 -0.11488059616E+03  0.40229965558E+03  0.45653450211E+03  0.41800000000E+01 0.  1.
         -5    1    3    3    0  502 -0.20889049875E+02 -0.88327339888E+01  0.37999484505E+02  0.44450003566E+02  0.41800000000E+01 0.  1.
        -11    1    4    4    0    0 -0.10051108956E+03  0.20762134448E+02  0.21454820424E+03  0.23783287681E+03  0.00000000000E+00 0.  1.
         11    1    4    4    0    0 -0.61257230986E+02  0.10295119570E+03  0.25053389041E+03  0.27770240778E+03  0.00000000000E+00 0. -1.
</event>
<event>
 8    1  0.4798744E-006  0.1365581E+03  0.7561462E-02  0.1218037E+00
          2   -1    0    0  501    0  0.00000000000E+00  0.00000000000E+00  0.17923383276E+03  0.17923383276E+03  0.00000000000E+00 0. -1.
         -2   -1    0    0    0  501 -0.00000000000E+00 -0.00000000000E+00 -0.15939503450E+03  0.15939503450E+03  0.00000000000E+00 0.  1.
         23    2    1    2    0    0 -0.25514764124E+01  0.94964059422E+02 -0.78307110050E+02  0.17550835930E+03  0.12508596278E+03 0.  0.
         23    2    1    2    0    0  0.25514764124E+01 -0.94964059422E+02  0.98145908309E+02  0.16312050797E+03  0.89168369895E+02 0.  0.
          5    1    3    3  502    0 -0.44179883706E+02 -0.52677396114E+01 -0.41055139316E+02  0.60684496118E+02  0.41800000000E+01 0.  1.
         -5    1    3    3    0  502  0.41628407294E+02  0.10023179903E+03 -0.37251970734E+02  0.11482386318E+03  0.41800000000E+01 0.  1.
        -11    1    4    4    0    0  0.26210908143E+02 -0.48623400125E+01 -0.15143804346E+01  0.26701074963E+02  0.00000000000E+00 0.  1.
         11    1    4    4    0    0 -0.23659431731E+02 -0.90101719409E+02  0.99660288744E+02  0.13641943301E+03  0.00000000000E+00 0. -1.
</event>
<event>
 8    1  0.4798744E-006  0.1589090E+03  0.7561462E-02  0.1189934E+00
          2   -1    0    0  501    0  0.00000000000E+00  0.00000000000E+00  0.41171203947E+03  0.41171203947E+03  0.00000000000E+00 0. -1.
         -2   -1    0    0    0  501 -0.00000000000E+00 -0.00000000000E+00 -0.80184497304E+02  0.80184497304E+02  0.00000000000E+00 0.  1.
         23    2    1    2    0    0 -0.12305250700E+03 -0.28543475145E+02  0.77580840394E+02  0.19396518249E+03  0.12508819197E+03 0.  0.
         23    2    1    2    0    0  0.12305250700E+03  0.28543475145E+02  0.25394670177E+03  0.29793135428E+03  0.91200411568E+02 0.  0.
          5    1    3    3  502    0 -0.17592266732E+01 -0.49977148430E+02  0.42673886818E+02  0.65873691712E+02  0.41800000000E+01 0.  1.
         -5    1    3    3    0  502 -0.12129328033E+03  0.21433673284E+02  0.34906953576E+02  0.12809149078E+03  0.41800000000E+01 0.  1.
        -11    1    4    4    0    0 -0.13116683313E+00  0.20975690408E+02  0.91762669371E+02  0.94129614271E+02  0.00000000000E+00 0.  1.
         11    1    4    4    0    0  0.12318367383E+03  0.75677847369E+01  0.16218403240E+03  0.20380174001E+03  0.00000000000E+00 0. -1.
</event>
<event>
 8    1  0.4798744E-006  0.1201116E+03  0.7561462E-02  0.1242913E+00
          2   -1    0    0  501    0  0.00000000000E+00  0.00000000000E+00  0.28808968822E+03  0.28808968822E+03  0.00000000000E+00 0. -1.
         -2   -1    0    0    0  501 -0.00000000000E+00 -0.00000000000E+00 -0.55742601268E+02  0.55742601268E+02  0.00000000000E+00 0.  1.
         23    2    1    2    0    0  0.23817639752E+02  0.54718664158E+02  0.78132358681E+02  0.15910242635E+03  0.12508998531E+03 0.  0.
         23    2    1    2    0    0 -0.23817639752E+02 -0.54718664158E+02  0.15421472827E+03  0.18472986314E+03  0.82350031876E+02 0.  0.
          5    1    3    3  502    0  0.34039891480E+02 -0.34525852466E+02  0.26694590698E+02  0.55505155373E+02  0.41800000000E+01 0. -1.
         -5    1    3    3    0  502 -0.10222251728E+02  0.89244516625E+02  0.51437767983E+02  0.10359727097E+03  0.41800000000E+01 0. -1.
        -11    1    4    4    0    0  0.26092120908E+02 -0.43110618436E+02  0.73119866921E+02  0.88802247347E+02  0.00000000000E+00 0.  1.
         11    1    4    4    0    0 -0.49909760660E+02 -0.11608045723E+02  0.81094861354E+02  0.95927615798E+02  0.00000000000E+00 0. -1.
</event>
<event>
 8    1  0.4853352E-006  0.1777200E+03  0.7561462E-02  0.1170028E+00
         -1   -1    0    0    0  501 -0.00000000000E+00  0.00000000000E+00  0.10594944767E+03  0.10594944767E+03  0.00000000000E+00 0.  1.
          1   -1    0    0  501    0  0.00000000000E+00 -0.00000000000E+00 -0.33628782314E+03  0.33628782314E+03  0.00000000000E+00 0. -1.
         23    2    1    2    0    0  0.54099790006E+02  0.14319382952E+03 -0.10335294738E+03  0.22307093566E+03  0.12509016954E+03 0.  0.
         23    2    1    2    0    0 -0.54099790006E+02 -0.14319382952E+03 -0.12698542809E+03  0.21916633514E+03  0.92072381429E+02 0.  0.
          5    1    3    3  502    0 -0.47247315177E+01  0.12625257329E+03 -0.10076682601E+03  0.16165847016E+03  0.41800000000E+01 0.  1.
         -5    1    3    3    0  502  0.58824521524E+02  0.16941256225E+02 -0.25861213643E+01  0.61412465499E+02  0.41800000000E+01 0.  1.
        -11    1    4    4    0    0 -0.62470334993E+02 -0.69280805841E+02 -0.32220888602E+02  0.98694267688E+02  0.00000000000E+00 0.  1.
         11    1    4    4    0    0  0.83705449875E+01 -0.73913023679E+02 -0.94764539489E+02  0.12047206746E+03  0.00000000000E+00 0. -1.
</event>
<event>
 8    1  0.4798744E-006  0.1453030E+03  0.7561462E-02  0.1206366E+00
         -2   -1    0    0    0  501 -0.00000000000E+00  0.00000000000E+00  0.46822650585E+02  0.46822650585E+02  0.00000000000E+00 0.  1.
          2   -1    0    0  501    0  0.00000000000E+00 -0.00000000000E+00 -0.71597387497E+03  0.71597387497E+03  0.00000000000E+00 0. -1.
         23    2    1    2    0    0  0.10270262010E+03 -0.36038930897E+02 -0.12184932858E+03  0.19781537636E+03  0.11152143979E+03 0.  0.
         23    2    1    2    0    0 -0.10270262010E+03  0.36038930897E+02 -0.54730189581E+03  0.56498114920E+03  0.88417764494E+02 0.  0.
          5    1    3    3  502    0 -0.26733565245E+01 -0.44533241674E+02 -0.61245200713E+02  0.75886780532E+02  0.41800000000E+01 0. -1.
         -5    1    3    3    0  502  0.10537597663E+03  0.84943107769E+01 -0.60604127864E+02  0.12192859582E+03  0.41800000000E+01 0.  1.
        -11    1    4    4    0    0 -0.12285577387E+02 -0.27074143009E+02 -0.13007224707E+03  0.13342688668E+03  0.00000000000E+00 0.  1.
         11    1    4    4    0    0 -0.90417042715E+02  0.63113073906E+02 -0.41722964874E+03  0.43155426252E+03  0.00000000000E+00 0. -1.
</event>
<event>
 8    1  0.4798744E-006  0.1361165E+03  0.7561462E-02  0.1218652E+00
          4   -1    0    0  501    0  0.00000000000E+00  0.00000000000E+00  0.38951344987E+03  0.38951344987E+03  0.00000000000E+00 0.  1.
         -4   -1    0    0    0  501 -0.00000000000E+00 -0.00000000000E+00 -0.65715514123E+02  0.65715514123E+02  0.00000000000E+00 0. -1.
         23    2    1    2    0    0 -0.80935576036E+02  0.80254414415E+02  0.14092711387E+03  0.22022315705E+03  0.12508576648E+03 0.  0.
         23    2    1    2    0    0  0.80935576036E+02 -0.80254414415E+02  0.18287082188E+03  0.23500580695E+03  0.93779812869E+02 0.  0.
          5    1    3    3  502    0 -0.93871868452E+02  0.61595450820E+02  0.15629638481E+03  0.19248885566E+03  0.41800000000E+01 0.  1.
         -5    1    3    3    0  502  0.12936292416E+02  0.18658963596E+02 -0.15369270946E+02  0.27734301386E+02  0.41800000000E+01 0.  1.
        -11    1    4    4    0    0  0.88731677823E+02 -0.88585948947E+02  0.18491373372E+03  0.22341412202E+03  0.00000000000E+00 0.  1.
         11    1    4    4    0    0 -0.77961017862E+01  0.83315345317E+01 -0.20429118358E+01  0.11591684929E+02  0.00000000000E+00 0. -1.
</event>
<event>
 8    1  0.4798744E-006  0.9060744E+02  0.7561462E-02  0.1301387E+00
         -3   -1    0    0    0  501 -0.00000000000E+00  0.00000000000E+00  0.97463505937E+02  0.97463505937E+02  0.00000000000E+00 0.  1.
          3   -1    0    0  501    0  0.00000000000E+00 -0.00000000000E+00 -0.14392597528E+03  0.14392597528E+03  0.00000000000E+00 0. -1.
         23    2    1    2    0    0 -0.35796296649E+02 -0.27290649921E+02 -0.87114374662E+01  0.13322882751E+03  0.12509147417E+03 0.  0.
         23    2    1    2    0    0  0.35796296649E+02  0.27290649921E+02 -0.37751031872E+02  0.10816065370E+03  0.90815374107E+02 0.  0.
          5    1    3    3  502    0  0.12464561497E+02 -0.32824644795E+02 -0.55400319738E+02  0.65722830328E+02  0.41800000000E+01 0.  1.
         -5    1    3    3    0  502 -0.48260858145E+02  0.55339948737E+01  0.46688882272E+02  0.67505997185E+02  0.41800000000E+01 0.  1.
        -11    1    4    4    0    0 -0.28627521921E+02  0.10808311725E+02 -0.26979249732E+02  0.40795030700E+02  0.00000000000E+00 0. -1.
         11    1    4    4    0    0  0.64423818570E+02  0.16482338196E+02 -0.10771782140E+02  0.67365622999E+02  0.00000000000E+00 0.  1.
</event>
<event>
 8    1  0.4798744E-006  0.1121214E+03  0.7561462E-02  0.1256691E+00
         -1   -1    0    0    0  501 -0.00000000000E+00  0.00000000000E+00  0.79743722021E+02  0.79743722021E+02  0.00000000000E+00 0.  1.
          1   -1    0    0  501    0  0.00000000000E+00 -0.00000000000E+00 -0.20060281355E+03  0.20060281355E+03  0.00000000000E+00 0. -1.
         23    2    1    2    0    0  0.24336542237E+02  0.56139939979E+02 -0.44351184427E+02  0.14614285987E+03  0.12508696088E+03 0.  0.
         23    2    1    2    0    0 -0.24336542237E+02 -0.56139939979E+02 -0.76507907098E+02  0.13420367569E+03  0.91723533362E+02 0.  0.
          5    1    3    3  502    0 -0.43515951525E+02 -0.60186295462E+01 -0.28877562950E+02  0.52737538630E+02  0.41800000000E+01 0.  1.
         -5    1    3    3    0  502  0.67852493762E+02  0.62158569525E+02 -0.15473621477E+02  0.93405321244E+02  0.41800000000E+01 0.  1.
        -11    1    4    4    0    0  0.20655792950E+02 -0.81188416172E+01  0.10954602475E+02  0.24750367411E+02  0.00000000000E+00 0.  1.
         11    1    4    4    0    0 -0.44992335186E+02 -0.48021098362E+02 -0.87462509573E+02  0.10945330828E+03  0.00000000000E+00 0. -1.
</event>
<event>
 8    1  0.4798744E-006  0.1544052E+03  0.7561462E-02  0.1195162E+00
         -2   -1    0    0    0  501 -0.00000000000E+00  0.00000000000E+00  0.20677495337E+03  0.20677495337E+03  0.00000000000E+00 0.  1.
          2   -1    0    0  501    0  0.00000000000E+00 -0.00000000000E+00 -0.45049310699E+03  0.45049310699E+03  0.00000000000E+00 0. -1.
         23    2    1    2    0    0 -0.13733349832E+03 -0.43432522822E+01  0.14466292482E+03  0.23548718376E+03  0.12508996082E+03 0.  0.
         23    2    1    2    0    0  0.13733349832E+03  0.43432522822E+01 -0.38838107844E+03  0.42178087659E+03  0.90442756319E+02 0.  0.
          5    1    3    3  502    0 -0.94895759835E+02 -0.35899416764E+02  0.24977860651E+02  0.10457217260E+03  0.41800000000E+01 0.  1.
         -5    1    3    3    0  502 -0.42437738487E+02  0.31556164481E+02  0.11968506417E+03  0.13091501117E+03  0.41800000000E+01 0.  1.
        -11    1    4    4    0    0  0.65824217670E+02 -0.32901036201E+02 -0.11308113514E+03  0.13491719290E+03  0.00000000000E+00 0.  1.
         11    1    4    4    0    0  0.71509280651E+02  0.37244288483E+02 -0.27529994330E+03  0.28686368370E+03  0.00000000000E+00 0. -1.
</event>
<event>
 8    1  0.4798744E-006  0.9046515E+02  0.7561462E-02  0.1301729E+00
         -2   -1    0    0    0  501 -0.00000000000E+00  0.00000000000E+00  0.16144903581E+03  0.16144903581E+03  0.00000000000E+00 0. -1.
          2   -1    0    0  501    0  0.00000000000E+00 -0.00000000000E+00 -0.13758970715E+03  0.13758970715E+03  0.00000000000E+00 0.  1.
         23    2    1    2    0    0 -0.28118681862E+02 -0.34982275024E+02  0.10375355312E+03  0.16860558826E+03  0.12509446339E+03 0.  0.
         23    2    1    2    0    0  0.28118681862E+02  0.34982275024E+02 -0.79894224466E+02  0.13043315470E+03  0.92818645256E+02 0.  0.
          5    1    3    3  502    0  0.31845217708E+02  0.15531262061E+02  0.78336715641E+02  0.86078170343E+02  0.41800000000E+01 0.  1.
         -5    1    3    3    0  502 -0.59963899570E+02 -0.50513537085E+02  0.25416837479E+02  0.82527417916E+02  0.41800000000E+01 0.  1.
        -11    1    4    4    0    0  0.23978182398E+02 -0.66634165751E+01 -0.84724801702E+02  0.88304282880E+02  0.00000000000E+00 0.  1.
         11    1    4    4    0    0  0.41404994641E+01  0.41645691599E+02  0.48305772355E+01  0.42128871822E+02  0.00000000000E+00 0. -1.
</event>
<event>
 8    1  0.4798744E-006  0.1041223E+03  0.7561462E-02  0.1271859E+00
          2   -1    0    0  501    0  0.00000000000E+00  0.00000000000E+00  0.59276436798E+02  0.59276436798E+02  0.00000000000E+00 0. -1.
         -2   -1    0    0    0  501 -0.00000000000E+00 -0.00000000000E+00 -0.23637632353E+03  0.23637632353E+03  0.00000000000E+00 0.  1.
         23    2    1    2    0    0 -0.13849214673E+01 -0.25869698809E+01 -0.15978286514E+03  0.20294461922E+03  0.12508934430E+03 0.  0.
         23    2    1    2    0    0  0.13849214673E+01  0.25869698809E+01 -0.17317021597E+02  0.92708141114E+02  0.91029169891E+02 0.  0.
          5    1    3    3  502    0  0.56010208817E+02  0.14464381510E+02 -0.44971306277E+02  0.73391093550E+02  0.41800000000E+01 0.  1.
         -5    1    3    3    0  502 -0.57395130285E+02 -0.17051351391E+02 -0.11481155886E+03  0.12955352567E+03  0.41800000000E+01 0.  1.
        -11    1    4    4    0    0 -0.89670531965E+01  0.45349785799E+02 -0.15187268354E+02  0.48658650157E+02  0.00000000000E+00 0.  1.
         11    1    4    4    0    0  0.10351974664E+02 -0.42762815918E+02 -0.21297532431E+01  0.44049490957E+02  0.00000000000E+00 0. -1.
</event>
<event>
 8    1  0.4798744E-006  0.1723071E+03  0.7561462E-02  0.1175463E+00
         -1   -1    0    0    0  501 -0.00000000000E+00  0.00000000000E+00  0.40155114918E+03  0.40155114918E+03  0.00000000000E+00 0.  1.
          1   -1    0    0  501    0  0.00000000000E+00 -0.00000000000E+00 -0.86939476268E+02  0.86939476268E+02  0.00000000000E+00 0. -1.
         23    2    1    2    0    0  0.14620114616E+03  0.42977888206E+02  0.17477549096E+03  0.26346679227E+03  0.12508558820E+03 0.  0.
         23    2    1    2    0    0 -0.14620114616E+03 -0.42977888206E+02  0.13983618195E+03  0.22502383318E+03  0.88654913593E+02 0.  0.
          5    1    3    3  502    0  0.13943276017E+03  0.15264641658E+02  0.73992553926E+02  0.15864070830E+03  0.41800000000E+01 0. -1.
         -5    1    3    3    0  502  0.67683859877E+01  0.27713246548E+02  0.10078293704E+03  0.10482608397E+03  0.41800000000E+01 0. -1.
        -11    1    4    4    0    0 -0.17719227881E+02 -0.43500287896E+02  0.47508131436E+02  0.66807698930E+02  0.00000000000E+00 0.  1.
         11    1    4    4    0    0 -0.12848191827E+03  0.52239969046E+00  0.92328050512E+02  0.15821613425E+03  0.00000000000E+00 0. -1.
</event>
<event>
 8    1  0.4798744E-006  0.9445950E+02  0.7561462E-02  0.1292398E+00
          2   -1    0    0  501    0  0.00000000000E+00  0.00000000000E+00  0.10615851061E+03  0.10615851061E+03  0.00000000000E+00 0. -1.
         -2   -1    0    0    0  501 -0.00000000000E+00 -0.00000000000E+00 -0.12419510693E+03  0.12419510693E+03  0.00000000000E+00 0.  1.
         23    2    1    2    0    0  0.50944332612E+00 -0.18050197698E+02 -0.58102850572E+02  0.13910267487E+03  0.12509014246E+03 0.  0.
         23    2    1    2    0    0 -0.50944332612E+00  0.18050197698E+02  0.40066254250E+02  0.91250942679E+02  0.79970998748E+02 0.  0.
          5    1    3    3  502    0 -0.32774817007E+02 -0.62500052197E+02 -0.32996530978E+02  0.78017232783E+02  0.41800000000E+01 0. -1.
         -5    1    3    3    0  502  0.33284260333E+02  0.44449854499E+02 -0.25106319593E+02  0.61085442083E+02  0.41800000000E+01 0. -1.
        -11    1    4    4    0    0 -0.69859504393E+01  0.39508366600E+02  0.52141514683E+02  0.65790972696E+02  0.00000000000E+00 0. -1.
         11    1    4    4    0    0  0.64765071132E+01 -0.21458168902E+02 -0.12075260433E+02  0.25459969983E+02  0.00000000000E+00 0.  1.
</event>
<event>
 8    1  0.4798744E-006  0.1273149E+03  0.7561462E-02  0.1231495E+00
          1   -1    0    0  501    0  0.00000000000E+00  0.00000000000E+00  0.28560951361E+03  0.28560951361E+03  0.00000000000E+00 0. -1.
         -1   -1    0    0    0  501 -0.00000000000E+00 -0.00000000000E+00 -0.69845611500E+02  0.69845611500E+02  0.00000000000E+00 0.  1.
         23    2    1    2    0    0  0.85087189209E+02  0.21286715176E+01  0.77317339528E+02  0.16991084018E+03  0.12508941446E+03 0.  0.
         23    2    1    2    0    0 -0.85087189209E+02 -0.21286715176E+01  0.13844656258E+03  0.18554428493E+03  0.89525806161E+02 0.  0.
          5    1    3    3  502    0  0.10840412369E+03 -0.20826378544E+02  0.80625223474E+02  0.13675924516E+03  0.41800000000E+01 0. -1.
         -5    1    3    3    0  502 -0.23316934476E+02  0.22955050061E+02 -0.33078839461E+01  0.33151595028E+02  0.41800000000E+01 0. -1.
        -11    1    4    4    0    0 -0.61269541518E+02  0.32339947134E+02  0.12246304761E+03  0.14070190805E+03  0.00000000000E+00 0. -1.
         11    1    4    4    0    0 -0.23817647691E+02 -0.34468618652E+02  0.15983514971E+02  0.44842376879E+02  0.00000000000E+00 0.  1.
</event>
<event>
 8    1  0.4798744E-006  0.8195309E+02  0.7561462E-02  0.1323598E+00
          3   -1    0    0  501    0  0.00000000000E+00  0.00000000000E+00  0.37872853247E+02  0.37872853247E+02  0.00000000000E+00 0. -1.
         -3   -1    0    0    0  501 -0.00000000000E+00 -0.00000000000E+00 -0.35865267574E+03  0.35865267574E+03  0.00000000000E+00 0.  1.
         23    2    1    2    0    0 -0.22530138444E+02 -0.48970315954E+01 -0.25091528487E+03  0.28131399230E+03  0.12508994372E+03 0.  0.
         23    2    1    2    0    0  0.22530138444E+02  0.48970315954E+01 -0.69864537621E+02  0.11521153669E+03  0.88662599294E+02 0.  0.
          5    1    3    3  502    0 -0.26286386873E+02 -0.41405159651E+02 -0.30676264538E+02  0.57998853321E+02  0.41800000000E+01 0.  1.
         -5    1    3    3    0  502  0.37562484291E+01  0.36508128056E+02 -0.22023902034E+03  0.22331513897E+03  0.41800000000E+01 0.  1.
        -11    1    4    4    0    0  0.22221290808E+02 -0.33034562416E+02 -0.66005314966E+02  0.77082875420E+02  0.00000000000E+00 0.  1.
         11    1    4    4    0    0  0.30884763564E+00  0.37931594011E+02 -0.38592226553E+01  0.38128661274E+02  0.00000000000E+00 0. -1.
</event>
<event>
 8    1  0.4798744E-006  0.1345330E+03  0.7561462E-02  0.1220880E+00
          1   -1    0    0  501    0  0.00000000000E+00  0.00000000000E+00  0.11910812955E+02  0.11910812955E+02  0.00000000000E+00 0. -1.
         -1   -1    0    0    0  501 -0.00000000000E+00 -0.00000000000E+00 -0.18796998379E+04  0.18796998379E+04  0.00000000000E+00 0.  1.
         23    2    1    2    0    0  0.14384466832E+02  0.79402609746E+02 -0.14074967499E+04  0.14153468753E+04  0.12509192286E+03 0.  0.
         23    2    1    2    0    0 -0.14384466832E+02 -0.79402609746E+02 -0.46029227509E+03  0.47626377558E+03  0.91904940593E+02 0.  0.
          5    1    3    3  502    0  0.69223607170E+02  0.54590179273E+02 -0.79389280758E+03  0.79878361137E+03  0.41800000000E+01 0. -1.
         -5    1    3    3    0  502 -0.54839140337E+02  0.24812430472E+02 -0.61360394230E+03  0.61656326393E+03  0.41800000000E+01 0. -1.
        -11    1    4    4    0    0 -0.52230315079E+02 -0.52364884137E+02 -0.32103734126E+03  0.32944659869E+03  0.00000000000E+00 0. -1.
         11    1    4    4    0    0  0.37845848246E+02 -0.27037725608E+02 -0.13925493383E+03  0.14681717689E+03  0.00000000000E+00 0.  1.
</event>
<event>
 8    1  0.4798744E-006  0.9456778E+02  0.7561462E-02  0.1292153E+00
         -1   -1    0    0    0  501 -0.00000000000E+00  0.00000000000E+00  0.21612361691E+03  0.21612361691E+03  0.00000000000E+00 0.  1.
          1   -1    0    0  501    0  0.00000000000E+00 -0.00000000000E+00 -0.76923995900E+02  0.76923995900E+02  0.00000000000E+00 0. -1.
         23    2    1    2    0    0 -0.61841913918E+02  0.18613183772E+02  0.10934325814E+03  0.17826114508E+03  0.12510081861E+03 0.  0.
         23    2    1    2    0    0  0.61841913918E+02 -0.18613183772E+02  0.29856362866E+02  0.11478646773E+03  0.90075844943E+02 0.  0.
          5    1    3    3  502    0  0.14943084686E+02  0.18269629038E+01  0.97406594999E+02  0.98651663558E+02  0.41800000000E+01 0.  1.
         -5    1    3    3    0  502 -0.76784998604E+02  0.16786220868E+02  0.11936663145E+02  0.79609481525E+02  0.41800000000E+01 0.  1.
        -11    1    4    4    0    0  0.24869552401E+02  0.26587876419E+02  0.41537312054E+02  0.55233668190E+02  0.00000000000E+00 0.  1.
         11    1    4    4    0    0  0.36972361518E+02 -0.45201060191E+02 -0.11680949188E+02  0.59552799536E+02  0.00000000000E+00 0. -1.
</event>
<event>
 8    1  0.4798744E-006  0.1791222E+03  0.7561462E-02  0.1168655E+00
          1   -1    0    0  501    0  0.00000000000E+00  0.00000000000E+00  0.92371014785E+03  0.92371014785E+03  0.00000000000E+00 0. -1.
         -1   -1    0    0    0  501 -0.00000000000E+00 -0.00000000000E+00 -0.37676420036E+02  0.37676420036E+02  0.00000000000E+00 0.  1.
         23    2    1    2    0    0 -0.15901006231E+02 -0.15175122537E+03  0.38239936144E+03  0.42720824031E+03  0.11400145857E+03 0.  0.
         23    2    1    2    0    0  0.15901006231E+02  0.15175122537E+03  0.50363436638E+03  0.53417832758E+03  0.91747666252E+02 0.  0.
          5    1    3    3  502    0 -0.64574243910E+02 -0.89983515526E+02  0.24347994434E+03  0.26751975953E+03  0.41800000000E+01 0. -1.
         -5    1    3    3    0  502  0.48673237679E+02 -0.61767709843E+02  0.13891941710E+03  0.15968848077E+03  0.41800000000E+01 0.  1.
        -11    1    4    4    0    0 -0.26606302334E+02  0.32171596097E+02  0.21285708752E+03  0.21691253220E+03  0.00000000000E+00 0. -1.
         11    1    4    4    0    0  0.42507308565E+02  0.11957962927E+03  0.29077727886E+03  0.31726579538E+03  0.00000000000E+00 0.  1.
</event>
<event>
 8    1  0.4798744E-006  0.1159129E+03  0.7561462E-02  0.1249996E+00
          1   -1    0    0  501    0  0.00000000000E+00  0.00000000000E+00  0.78976223065E+03  0.78976223065E+03  0.00000000000E+00 0. -1.
         -1   -1    0    0    0  501 -0.00000000000E+00 -0.00000000000E+00 -0.19920200736E+02  0.19920200736E+02  0.00000000000E+00 0.  1.
         23    2    1    2    0    0 -0.52854175011E+02 -0.29761673199E+02  0.42036747158E+03  0.44276021312E+03  0.12509386138E+03 0.  0.
         23    2    1    2    0    0  0.52854175011E+02  0.29761673199E+02  0.34947455834E+03  0.36692221826E+03  0.93915527596E+02 0.  0.
          5    1    3    3  502    0  0.31229262077E+02 -0.15808318873E+02  0.41733715719E+02  0.54629160558E+02  0.41800000000E+01 0. -1.
         -5    1    3    3    0  502 -0.84083437088E+02 -0.13953354325E+02  0.37863375586E+03  0.38813105256E+03  0.41800000000E+01 0. -1.
        -11    1    4    4    0    0  0.41423379928E+02 -0.29519662832E+02  0.14164627013E+03  0.15050240112E+03  0.00000000000E+00 0.  1.
         11    1    4    4    0    0  0.11430795083E+02  0.59281336031E+02  0.20782828820E+03  0.21641981715E+03  0.00000000000E+00 0. -1.
</event>
<event>
 8    1  0.4798744E-006  0.9781343E+02  0.7561462E-02  0.1284962E+00
          2   -1    0    0  501    0  0.00000000000E+00  0.00000000000E+00  0.11942831486E+03  0.11942831486E+03  0.00000000000E+00 0. -1.
         -2   -1    0    0    0  501 -0.00000000000E+00 -0.00000000000E+00 -0.16662024515E+03  0.16662024515E+03  0.00000000000E+00 0.  1.
         23    2    1    2    0    0 -0.52227448200E+02  0.19896382250E+02 -0.95984173932E+02  0.16728436734E+03  0.12509006971E+03 0.  0.
         23    2    1    2    0    0  0.52227448200E+02 -0.19896382250E+02  0.48792243643E+02  0.11876419267E+03  0.92739840677E+02 0.  0.
          5    1    3    3  502    0  0.44762799976E+01 -0.47766945517E+02 -0.40562369908E+02  0.62964247151E+02  0.41800000000E+01 0. -1.
         -5    1    3    3    0  502 -0.56703728197E+02  0.67663327768E+02 -0.55421804024E+02  0.10432012019E+03  0.41800000000E+01 0. -1.
        -11    1    4    4    0    0  0.33823240520E+02 -0.27504002285E+01 -0.24121039610E+02  0.41634130862E+02  0.00000000000E+00 0.  1.
         11    1    4    4    0    0  0.18404207679E+02 -0.17145982022E+02  0.72913283254E+02  0.77130061809E+02  0.00000000000E+00 0. -1.
</event>
<event>
 8    1  0.4798744E-006  0.9984195E+02  0.7561462E-02  0.1280629E+00
         -3   -1    0    0    0  501 -0.00000000000E+00  0.00000000000E+00  0.37731414679E+03  0.37731414679E+03  0.00000000000E+00 0.  1.
          3   -1    0    0  501    0  0.00000000000E+00 -0.00000000000E+00 -0.36509364748E+02  0.36509364748E+02  0.00000000000E+00 0. -1.
         23    2    1    2    0    0 -0.41207068542E+01  0.42185288566E+02  0.21815604764E+03  0.25501622941E+03  0.12507852471E+03 0.  0.
         23    2    1    2    0    0  0.41207068542E+01 -0.42185288566E+02  0.12264873440E+03  0.15880728213E+03  0.91544863377E+02 0.  0.
          5    1    3    3  502    0  0.16692474036E+02  0.65285649336E+02  0.50142879851E+02  0.84098962529E+02  0.41800000000E+01 0.  1.
         -5    1    3    3    0  502 -0.20813180890E+02 -0.23100360769E+02  0.16801316779E+03  0.17091726688E+03  0.41800000000E+01 0.  1.
        -11    1    4    4    0    0 -0.29217403079E+02  0.16313788297E+02  0.43844393335E+02  0.55155481669E+02  0.00000000000E+00 0.  1.
         11    1    4    4    0    0  0.33338109933E+02 -0.58499076863E+02  0.78804341061E+02  0.10365180046E+03  0.00000000000E+00 0. -1.
</event>
<event>
 8    1  0.4798744E-006  0.1404606E+03  0.7561462E-02  0.1212711E+00
          1   -1    0    0  501    0  0.00000000000E+00  0.00000000000E+00  0.22339675082E+03  0.22339675082E+03  0.00000000000E+00 0. -1.
         -1   -1    0    0    0  501 -0.00000000000E+00 -0.00000000000E+00 -0.14606575155E+03  0.14606575155E+03  0.00000000000E+00 0.  1.
         23    2    1    2    0    0 -0.50777664532E+02 -0.10795027256E+03 -0.41834732610E+02  0.17786586182E+03  0.12511789395E+03 0.  0.
         23    2    1    2    0    0  0.50777664532E+02  0.10795027256E+03  0.11916573188E+03  0.19159664055E+03  0.90978945113E+02 0.  0.
          5    1    3    3  502    0 -0.22407447013E+02 -0.12579401624E+03 -0.50713226908E+01  0.12794302997E+03  0.41800000000E+01 0. -1.
         -5    1    3    3    0  502 -0.28370217519E+02  0.17843743686E+02 -0.36763409920E+02  0.49922831848E+02  0.41800000000E+01 0. -1.
        -11    1    4    4    0    0  0.38661961644E+02  0.83503487415E+02  0.27625547882E+02  0.96076795245E+02  0.00000000000E+00 0. -1.
         11    1    4    4    0    0  0.12115702888E+02  0.24446785143E+02  0.91540183999E+02  0.95519845303E+02  0.00000000000E+00 0.  1.
</event>
<event>
 8    1  0.4798744E-006  0.1070583E+03  0.7561462E-02  0.1266116E+00
         -1   -1    0    0    0  501 -0.00000000000E+00  0.00000000000E+00  0.76279458617E+02  0.76279458617E+02  0.00000000000E+00 0.  1.
          1   -1    0    0  501    0  0.00000000000E+00 -0.00000000000E+00 -0.18337369233E+03  0.18337369233E+03  0.00000000000E+00 0. -1.
         23    2    1    2    0    0 -0.38474730421E+02  0.17088140217E+02 -0.36594567993E+02  0.13696241901E+03  0.12508889798E+03 0.  0.
         23    2    1    2    0    0  0.38474730421E+02 -0.17088140217E+02 -0.70499665720E+02  0.12269073194E+03  0.91161962568E+02 0.  0.
          5    1    3    3  502    0 -0.45159337339E+01 -0.44854142435E+02  0.16824679775E+02  0.48299378884E+02  0.41800000000E+01 0. -1.
         -5    1    3    3    0  502 -0.33958796687E+02  0.61942282652E+02 -0.53419247767E+02  0.88663040127E+02  0.41800000000E+01 0. -1.
        -11    1    4    4    0    0 -0.29041229968E+02 -0.41964159135E+01 -0.96455062679E+01  0.30887517474E+02  0.00000000000E+00 0. -1.
         11    1    4    4    0    0  0.67515960389E+02 -0.12891724304E+02 -0.60854159452E+02  0.91803214461E+02  0.00000000000E+00 0.  1.
</event>
<event>
 8    1  0.4798744E-006  0.2371067E+03  0.7561462E-02  0.1121735E+00
         -1   -1    0    0    0  501 -0.00000000000E+00  0.00000000000E+00  0.11845744919E+03  0.11845744919E+03  0.00000000000E+00 0.  1.
          1   -1    0    0  501    0  0.00000000000E+00 -0.00000000000E+00 -0.63848546804E+03  0.63848546804E+03  0.00000000000E+00 0. -1.
         23    2    1    2    0    0 -0.62650954225E+02 -0.19515490989E+03 -0.73920218314E+02  0.25124415335E+03  0.12509534363E+03 0.  0.
         23    2    1    2    0    0  0.62650954225E+02  0.19515490989E+03 -0.44610780054E+03  0.50569876388E+03  0.12127856024E+03 0.  0.
          5    1    3    3  502    0 -0.61247877549E+02 -0.21663541693E+02 -0.79631778587E+01  0.65585792246E+02  0.41800000000E+01 0.  1.
         -5    1    3    3    0  502 -0.14030766757E+01 -0.17349136819E+03 -0.65957040455E+02  0.18565836110E+03  0.41800000000E+01 0.  1.
        -11    1    4    4    0    0  0.40561635065E+02  0.20669922813E+03 -0.41839041019E+03  0.46842326211E+03  0.00000000000E+00 0. -1.
         11    1    4    4    0    0  0.22089319159E+02 -0.11544318244E+02 -0.27717390353E+02  0.37275501775E+02  0.00000000000E+00 0.  1.
</event>
<event>
 8    1  0.4798744E-006  0.1390977E+03  0.7561462E-02  0.1214548E+00
          2   -1    0    0  501    0  0.00000000000E+00  0.00000000000E+00  0.29847420889E+03  0.29847420889E+03  0.00000000000E+00 0. -1.
         -2   -1    0    0    0  501 -0.00000000000E+00 -0.00000000000E+00 -0.77198824313E+02  0.77198824313E+02  0.00000000000E+00 0.  1.
         23    2    1    2    0    0  0.99260476732E+02  0.67911253883E+01  0.77573482322E+02  0.17766360587E+03  0.12509176658E+03 0.  0.
         23    2    1    2    0    0 -0.99260476732E+02 -0.67911253883E+01  0.14370190225E+03  0.19800942733E+03  0.93052323854E+02 0.  0.
          5    1    3    3  502    0 -0.12113175614E+02 -0.28463169736E+02 -0.86708564774E+01  0.32396561653E+02  0.41800000000E+01 0.  1.
         -5    1    3    3    0  502  0.11137365235E+03  0.35254295124E+02  0.86244338800E+02  0.14526704422E+03  0.41800000000E+01 0.  1.
        -11    1    4    4    0    0 -0.99990084179E+02 -0.31908457274E+02  0.13587222547E+03  0.17168991885E+03  0.00000000000E+00 0. -1.
         11    1    4    4    0    0  0.72960744737E+00  0.25117331885E+02  0.78296767807E+01  0.26319508479E+02  0.00000000000E+00 0.  1.
</event>
<event>
 8    1  0.4798744E-006  0.8566787E+02  0.7561462E-02  0.1313695E+00
          4   -1    0    0  501    0  0.00000000000E+00  0.00000000000E+00  0.65562384119E+03  0.65562384119E+03  0.00000000000E+00 0. -1.
         -4   -1    0    0    0  501 -0.00000000000E+00 -0.00000000000E+00 -0.19027172198E+02  0.19027172198E+02  0.00000000000E+00 0.  1.
         23    2    1    2    0    0  0.10445987692E+02 -0.21567230111E+02  0.40994813465E+03  0.42927744942E+03  0.12508953356E+03 0.  0.
         23    2    1    2    0    0 -0.10445987692E+02  0.21567230111E+02  0.22664853435E+03  0.24537356397E+03  0.90908545800E+02 0.  0.
          5    1    3    3  502    0 -0.32336438783E+02 -0.28281124440E+02  0.36187482073E+03  0.36443974200E+03  0.41800000000E+01 0. -1.
         -5    1    3    3    0  502  0.42782426476E+02  0.67138943297E+01  0.48073313918E+02  0.64837707418E+02  0.41800000000E+01 0. -1.
        -11    1    4    4    0    0 -0.21236086225E+02 -0.27320018839E+02  0.43934700163E+02  0.55925062950E+02  0.00000000000E+00 0.  1.
         11    1    4    4    0    0  0.10790098533E+02  0.48887248949E+02  0.18271383418E+03  0.18944850102E+03  0.00000000000E+00 0. -1.
</event>
<event>
 8    1  0.4798744E-006  0.1045374E+03  0.7561462E-02  0.1271034E+00
          2   -1    0    0  501    0  0.00000000000E+00  0.00000000000E+00  0.36884627829E+03  0.36884627829E+03  0.00000000000E+00 0. -1.
         -2   -1    0    0    0  501 -0.00000000000E+00 -0.00000000000E+00 -0.38328400474E+02  0.38328400474E+02  0.00000000000E+00 0.  1.
         23    2    1    2    0    0 -0.31815229708E+01  0.44759364516E+02  0.15409893990E+03  0.20348967298E+03  0.12509212976E+03 0.  0.
         23    2    1    2    0    0  0.31815229708E+01 -0.44759364516E+02  0.17641893791E+03  0.20368500578E+03  0.91380616804E+02 0.  0.
          5    1    3    3  502    0 -0.36245704577E+02  0.72802896310E+02  0.13083994009E+03  0.15411221604E+03  0.41800000000E+01 0.  1.
         -5    1    3    3    0  502  0.33064181607E+02 -0.28043531794E+02  0.23258999813E+02  0.49377456932E+02  0.41800000000E+01 0.  1.
        -11    1    4    4    0    0 -0.27158713186E+02  0.31867995736E+01  0.12205281998E+02  0.29945288479E+02  0.00000000000E+00 0. -1.
         11    1    4    4    0    0  0.30340236157E+02 -0.47946164090E+02  0.16421365591E+03  0.17373971730E+03  0.00000000000E+00 0.  1.
</event>
<event>
 8    1  0.4798744E-006  0.1942922E+03  0.7561462E-02  0.1154646E+00
         -3   -1    0    0    0  501 -0.00000000000E+00  0.00000000000E+00  0.21276607536E+03  0.21276607536E+03  0.00000000000E+00 0.  1.
          3   -1    0    0  501    0  0.00000000000E+00 -0.00000000000E+00 -0.21499426227E+03  0.21499426227E+03  0.00000000000E+00 0. -1.
         23    2    1    2    0    0 -0.41364491608E+02  0.17531372049E+03  0.33185838390E+02  0.22179957394E+03  0.12509128416E+03 0.  0.
         23    2    1    2    0    0  0.41364491608E+02 -0.17531372049E+03 -0.35414025296E+02  0.20596076369E+03  0.93379661786E+02 0.  0.
          5    1    3    3  502    0  0.20089416162E+02  0.55584399171E+02 -0.37106175515E+02  0.69911020120E+02  0.41800000000E+01 0.  1.
         -5    1    3    3    0  502 -0.61453907770E+02  0.11972932132E+03  0.70292013905E+02  0.15188855382E+03  0.41800000000E+01 0.  1.
        -11    1    4    4    0    0  0.61855682472E+02 -0.10955023836E+03 -0.50298150589E+02  0.13548905540E+03  0.00000000000E+00 0. -1.
         11    1    4    4    0    0 -0.20491190864E+02 -0.65763482127E+02  0.14884125293E+02  0.70471708296E+02  0.00000000000E+00 0.  1.
</event>
<event>
 8    1  0.4798744E-006  0.8597635E+02  0.7561462E-02  0.1312899E+00
         -1   -1    0    0    0  501 -0.00000000000E+00  0.00000000000E+00  0.39990503535E+02  0.39990503535E+02  0.00000000000E+00 0.  1.
          1   -1    0    0  501    0  0.00000000000E+00 -0.00000000000E+00 -0.39070900070E+03  0.39070900070E+03  0.00000000000E+00 0. -1.
         23    2    1    2    0    0  0.31287736180E+01 -0.20574837042E+02 -0.94267649792E+02  0.15801209490E+03  0.12509324199E+03 0.  0.
         23    2    1    2    0    0 -0.31287736180E+01  0.20574837042E+02 -0.25645084737E+03  0.27268740933E+03  0.90323158437E+02 0.  0.
          5    1    3    3  502    0  0.40140008999E+02  0.94778479079E+01  0.10557676937E+02  0.42778345757E+02  0.41800000000E+01 0. -1.
         -5    1    3    3    0  502 -0.37011235381E+02 -0.30052684950E+02 -0.10482532673E+03  0.11523374914E+03  0.41800000000E+01 0. -1.
        -11    1    4    4    0    0  0.13618185027E+02  0.48335840506E+02 -0.89574514806E+02  0.10269080847E+03  0.00000000000E+00 0.  1.
         11    1    4    4    0    0 -0.16746958645E+02 -0.27761003464E+02 -0.16687633256E+03  0.16999660087E+03  0.00000000000E+00 0. -1.
</event>
<event>
 8    1  0.4798744E-006  0.1709625E+03  0.7561462E-02  0.1176848E+00
         -3   -1    0    0    0  501 -0.00000000000E+00  0.00000000000E+00  0.98670122284E+03  0.98670122284E+03  0.00000000000E+00 0.  1.
          3   -1    0    0  501    0  0.00000000000E+00 -0.00000000000E+00 -0.31156692856E+02  0.31156692856E+02  0.00000000000E+00 0. -1.
         23    2    1    2    0    0 -0.58970987821E+02 -0.12226223762E+03  0.57136594644E+03  0.60044314254E+03  0.12508913030E+03 0.  0.
         23    2    1    2    0    0  0.58970987821E+02  0.12226223762E+03  0.38417858354E+03  0.41741477315E+03  0.90643679554E+02 0.  0.
          5    1    3    3  502    0 -0.70579710721E+02 -0.14141100153E+03  0.53162911139E+03  0.55464001965E+03  0.41800000000E+01 0.  1.
         -5    1    3    3    0  502  0.11608722900E+02  0.19148763911E+02  0.39736835047E+02  0.45803122888E+02  0.41800000000E+01 0.  1.
        -11    1    4    4    0    0  0.25245956658E+02 -0.80028823376E+01  0.41125056118E+02  0.48914974128E+02  0.00000000000E+00 0.  1.
         11    1    4    4    0    0  0.33725031164E+02  0.13026511996E+03  0.34305352742E+03  0.36849979903E+03  0.00000000000E+00 0. -1.
</event>
<event>
 8    1  0.4798744E-006  0.1043396E+03  0.7561462E-02  0.1271426E+00
         -2   -1    0    0    0  501 -0.00000000000E+00  0.00000000000E+00  0.34603593342E+02  0.34603593342E+02  0.00000000000E+00 0.  1.
          2   -1    0    0  501    0  0.00000000000E+00 -0.00000000000E+00 -0.51731145394E+03  0.51731145394E+03  0.00000000000E+00 0. -1.
         23    2    1    2    0    0 -0.37717663748E+02 -0.68033461186E+02 -0.27996769385E+03  0.31635439099E+03  0.12508803742E+03 0.  0.
         23    2    1    2    0    0  0.37717663748E+02  0.68033461186E+02 -0.20274016675E+03  0.23556065629E+03  0.91291147307E+02 0.  0.
          5    1    3    3  502    0 -0.70156073828E+02 -0.58458291766E+02 -0.26269774019E+03  0.27814891996E+03  0.41800000000E+01 0. -1.
         -5    1    3    3    0  502  0.32438410080E+02 -0.95751694200E+01 -0.17269953653E+02  0.38205471037E+02  0.41800000000E+01 0. -1.
        -11    1    4    4    0    0  0.83149982905E+01  0.45196638853E+02 -0.21861050060E+02  0.50889889663E+02  0.00000000000E+00 0.  1.
         11    1    4    4    0    0  0.29402665457E+02  0.22836822332E+02 -0.18087911670E+03  0.18467076663E+03  0.00000000000E+00 0. -1.
</event>
<event>
 8    1  0.4798744E-006  0.1124669E+03  0.7561462E-02  0.1256069E+00
          1   -1    0    0  501    0  0.00000000000E+00  0.00000000000E+00  0.91095962434E+02  0.91095962434E+02  0.00000000000E+00 0. -1.
         -1   -1    0    0    0  501 -0.00000000000E+00 -0.00000000000E+00 -0.19348234148E+03  0.19348234148E+03  0.00000000000E+00 0.  1.
         23    2    1    2    0    0 -0.71167804024E+02 -0.74162042354E+01 -0.85126141628E+02  0.16737228773E+03  0.12508863376E+03 0.  0.
         23    2    1    2    0    0  0.71167804024E+02  0.74162042354E+01 -0.17260237414E+02  0.11720601618E+03  0.91211172665E+02 0.  0.
          5    1    3    3  502    0 -0.12400410471E+02  0.55972981179E+02 -0.36797161144E+02  0.68251360940E+02  0.41800000000E+01 0.  1.
         -5    1    3    3    0  502 -0.58767393553E+02 -0.63389185414E+02 -0.48328980485E+02  0.99120926787E+02  0.41800000000E+01 0.  1.
        -11    1    4    4    0    0  0.62321493650E+02 -0.83042345137E+01  0.27743750281E+02  0.68721499993E+02  0.00000000000E+00 0. -1.
         11    1    4    4    0    0  0.88463103737E+01  0.15720438749E+02 -0.45003987695E+02  0.48484516190E+02  0.00000000000E+00 0.  1.
</event>
<event>
 8    1  0.4798744E-006  0.1424280E+03  0.7561462E-02  0.1210099E+00
          2   -1    0    0  501    0  0.00000000000E+00  0.00000000000E+00  0.12218795489E+03  0.12218795489E+03  0.00000000000E+00 0. -1.
         -2   -1    0    0    0  501 -0.00000000000E+00 -0.00000000000E+00 -0.23695990952E+03  0.23695990952E+03  0.00000000000E+00 0.  1.
         23    2    1    2    0    0 -0.92525153197E+02 -0.63974554602E+02 -0.13092062571E+03  0.21316931874E+03  0.12508917062E+03 0.  0.
         23    2    1    2    0    0  0.92525153197E+02  0.63974554602E+02  0.16148671074E+02  0.14597854567E+03  0.91625916685E+02 0.  0.
          5    1    3    3  502    0 -0.75984999619E+02 -0.97440137085E+00 -0.12665348910E+03  0.14776078075E+03  0.41800000000E+01 0.  1.
         -5    1    3    3    0  502 -0.16540153578E+02 -0.63000153232E+02 -0.42671366062E+01  0.65408537993E+02  0.41800000000E+01 0.  1.
        -11    1    4    4    0    0  0.14980975579E+02 -0.22689498854E+02 -0.53658555831E+01  0.27713451493E+02  0.00000000000E+00 0.  1.
         11    1    4    4    0    0  0.77544177617E+02  0.86664053456E+02  0.21514526657E+02  0.11826509418E+03  0.00000000000E+00 0. -1.
</event>
<event>
 8    1  0.4798744E-006  0.9863077E+02  0.7561462E-02  0.1283202E+00
         -1   -1    0    0    0  501 -0.00000000000E+00  0.00000000000E+00  0.10944209800E+03  0.10944209800E+03  0.00000000000E+00 0.  1.
          1   -1    0    0  501    0  0.00000000000E+00 -0.00000000000E+00 -0.19686002384E+03  0.19686002384E+03  0.00000000000E+00 0. -1.
         23    2    1    2    0    0 -0.57638204918E+02  0.77955307678E+02 -0.24953147249E+02  0.16021662898E+03  0.12509003150E+03 0.  0.
         23    2    1    2    0    0  0.57638204918E+02 -0.77955307678E+02 -0.62464778591E+02  0.14608549287E+03  0.89665656759E+02 0.  0.
          5    1    3    3  502    0 -0.29912989795E+02  0.54017344359E+02 -0.75518729225E+02  0.97638165252E+02  0.41800000000E+01 0.  1.
         -5    1    3    3    0  502 -0.27725215122E+02  0.23937963319E+02  0.50565581976E+02  0.62578463724E+02  0.41800000000E+01 0.  1.
        -11    1    4    4    0    0  0.55276346616E+02 -0.64946932447E+02 -0.84711579267E+02  0.12020661459E+03  0.00000000000E+00 0. -1.
         11    1    4    4    0    0  0.23618583012E+01 -0.13008375231E+02  0.22246800676E+02  0.25878878281E+02  0.00000000000E+00 0.  1.
</event>
<event>
 8    1  0.4798744E-006  0.1157588E+03  0.7561462E-02  0.1250262E+00
          2   -1    0    0  501    0  0.00000000000E+00  0.00000000000E+00  0.73180552879E+03  0.73180552879E+03  0.00000000000E+00 0.  1.
         -2   -1    0    0    0  501 -0.00000000000E+00 -0.00000000000E+00 -0.27779320499E+02  0.27779320499E+02  0.00000000000E+00 0. -1.
         23    2    1    2    0    0  0.25243144005E+02 -0.88620637735E+02  0.37401542475E+03  0.40500204918E+03  0.12509311786E+03 0.  0.
         23    2    1    2    0    0 -0.25243144005E+02  0.88620637735E+02  0.33001078353E+03  0.35458280010E+03  0.91274372797E+02 0.  0.
          5    1    3    3  502    0 -0.15990528167E+02  0.10848971095E+02  0.19540763952E+03  0.19640523198E+03  0.41800000000E+01 0. -1.
         -5    1    3    3    0  502  0.41233672172E+02 -0.99469608830E+02  0.17860778523E+03  0.20859681720E+03  0.41800000000E+01 0. -1.
        -11    1    4    4    0    0 -0.37058900459E+02  0.42544046412E+02  0.68328336814E+02  0.88612186522E+02  0.00000000000E+00 0. -1.
         11    1    4    4    0    0  0.11815756453E+02  0.46076591323E+02  0.26168244672E+03  0.26597061358E+03  0.00000000000E+00 0.  1.
</event>
<event>
 8    1  0.4798744E-006  0.1524154E+03  0.7561462E-02  0.1197536E+00
          4   -1    0    0  501    0  0.00000000000E+00  0.00000000000E+00  0.52355711289E+02  0.52355711289E+02  0.00000000000E+00 0.  1.
         -4   -1    0    0    0  501 -0.00000000000E+00 -0.00000000000E+00 -0.64839599673E+03  0.64839599673E+03  0.00000000000E+00 0. -1.
         23    2    1    2    0    0  0.12365244893E+03  0.83380104309E+01 -0.46933556346E+03  0.50128105914E+03  0.12508948231E+03 0.  0.
         23    2    1    2    0    0 -0.12365244893E+03 -0.83380104309E+01 -0.12670472198E+03  0.19947064888E+03  0.91515040549E+02 0.  0.
          5    1    3    3  502    0  0.47944044773E+02 -0.55117021362E+02 -0.14836685160E+03  0.16542887452E+03  0.41800000000E+01 0.  1.
         -5    1    3    3    0  502  0.75708404155E+02  0.63455031793E+02 -0.32096871186E+03  0.33585218462E+03  0.41800000000E+01 0.  1.
        -11    1    4    4    0    0 -0.21983505762E+02  0.17254973603E+02  0.77227016813E+01  0.28993943521E+02  0.00000000000E+00 0.  1.
         11    1    4    4    0    0 -0.10166894317E+03 -0.25592984034E+02 -0.13442742366E+03  0.17047670535E+03  0.00000000000E+00 0. -1.
</event>
<event>
 8    1  0.4798744E-006  0.1260782E+03  0.7561462E-02  0.1233394E+00
         -2   -1    0    0    0  501 -0.00000000000E+00  0.00000000000E+00  0.18476471344E+03  0.18476471344E+03  0.00000000000E+00 0.  1.
          2   -1    0    0  501    0  0.00000000000E+00 -0.00000000000E+00 -0.10226599971E+03  0.10226599971E+03  0.00000000000E+00 0. -1.
         23    2    1    2    0    0 -0.60607379666E+02  0.58597927795E+02  0.54161549519E+02  0.16026124437E+03  0.12507286432E+03 0.  0.
         23    2    1    2    0    0  0.60607379666E+02 -0.58597927795E+02  0.28337164213E+02  0.12676946877E+03  0.90335661423E+02 0.  0.
          5    1    3    3  502    0 -0.26048572682E+01 -0.34491892523E+02 -0.55947085209E+01  0.35288087149E+02  0.41800000000E+01 0.  1.
         -5    1    3    3    0  502 -0.58002522398E+02  0.93089820319E+02  0.59756258040E+02  0.12497315722E+03  0.41800000000E+01 0.  1.
        -11    1    4    4    0    0  0.27975560205E+02  0.11488795513E+02  0.38320211466E+02  0.48816626244E+02  0.00000000000E+00 0.  1.
         11    1    4    4    0    0  0.32631819461E+02 -0.70086723308E+02 -0.99830472525E+01  0.77952842526E+02  0.00000000000E+00 0. -1.
</event>
<event>
 8    1  0.4798744E-006  0.1194217E+03  0.7561462E-02  0.1244054E+00
          1   -1    0    0  501    0  0.00000000000E+00  0.00000000000E+00  0.49674213828E+03  0.49674213828E+03  0.00000000000E+00 0. -1.
         -1   -1    0    0    0  501 -0.00000000000E+00 -0.00000000000E+00 -0.31677558434E+02  0.31677558434E+02  0.00000000000E+00 0.  1.
         23    2    1    2    0    0 -0.34060458129E+02  0.54321589717E+02  0.27928572654E+03  0.31266154998E+03  0.12508308387E+03 0.  0.
         23    2    1    2    0    0  0.34060458129E+02 -0.54321589717E+02  0.18577885331E+03  0.21575814673E+03  0.89032834553E+02 0.  0.
          5    1    3    3  502    0 -0.15909396398E+02  0.91604327079E+02  0.14717868402E+03  0.17413643807E+03  0.41800000000E+01 0.  1.
         -5    1    3    3    0  502 -0.18151061732E+02 -0.37282737362E+02  0.13210704252E+03  0.13852511191E+03  0.41800000000E+01 0.  1.
        -11    1    4    4    0    0  0.14224226399E+02  0.21469162299E+02  0.80558222650E+02  0.84574705338E+02  0.00000000000E+00 0. -1.
         11    1    4    4    0    0  0.19836231730E+02 -0.75790752017E+02  0.10522063066E+03  0.13118344140E+03  0.00000000000E+00 0.  1.
</event>
<event>
 8    1  0.4798744E-006  0.1160019E+03  0.7561462E-02  0.1249842E+00
          4   -1    0    0  501    0  0.00000000000E+00  0.00000000000E+00  0.35729599222E+03  0.35729599222E+03  0.00000000000E+00 0. -1.
         -4   -1    0    0    0  501 -0.00000000000E+00 -0.00000000000E+00 -0.40463894290E+02  0.40463894290E+02  0.00000000000E+00 0.  1.
         23    2    1    2    0    0  0.43024585696E+02  0.25767592718E+02  0.14849485923E+03  0.20053454736E+03  0.12509315592E+03 0.  0.
         23    2    1    2    0    0 -0.43024585696E+02 -0.25767592718E+02  0.16833723870E+03  0.19722533915E+03  0.89695733793E+02 0.  0.
          5    1    3    3  502    0  0.71615389556E+02  0.53974135196E+02  0.76316727711E+02  0.11782905677E+03  0.41800000000E+01 0. -1.
         -5    1    3    3    0  502 -0.28590803860E+02 -0.28206542478E+02  0.72178131517E+02  0.82705490587E+02  0.41800000000E+01 0. -1.
        -11    1    4    4    0    0  0.16865622952E+02  0.20226998064E+02  0.55771118184E+02  0.61676562094E+02  0.00000000000E+00 0. -1.
         11    1    4    4    0    0 -0.59890208648E+02 -0.45994590782E+02  0.11256612052E+03  0.13554877706E+03  0.00000000000E+00 0.  1.
</event>
<event>
 8    1  0.4798744E-006  0.7840823E+02  0.7561462E-02  0.1333630E+00
          2   -1    0    0  501    0  0.00000000000E+00  0.00000000000E+00  0.18518098144E+03  0.18518098144E+03  0.00000000000E+00 0.  1.
         -2   -1    0    0    0  501 -0.00000000000E+00 -0.00000000000E+00 -0.78884462744E+02  0.78884462744E+02  0.00000000000E+00 0. -1.
         23    2    1    2    0    0  0.20177327051E+02  0.48855959935E+02  0.69596594026E+02  0.15261497784E+03  0.12511441249E+03 0.  0.
         23    2    1    2    0    0 -0.20177327051E+02 -0.48855959935E+02  0.36699924667E+02  0.11145046634E+03  0.90996113264E+02 0.  0.
          5    1    3    3  502    0 -0.17976828719E+02  0.44320506668E+02  0.94946011765E+02  0.10639403758E+03  0.41800000000E+01 0. -1.
         -5    1    3    3    0  502  0.38154155770E+02  0.45354532670E+01 -0.25349417739E+02  0.46220940260E+02  0.41800000000E+01 0. -1.
        -11    1    4    4    0    0  0.14874065405E+02 -0.10556783719E+02 -0.24915485186E+02  0.30878227057E+02  0.00000000000E+00 0. -1.
         11    1    4    4    0    0 -0.35051392456E+02 -0.38299176216E+02  0.61615409853E+02  0.80572239284E+02  0.00000000000E+00 0.  1.
</event>
<event>
 8    1  0.4798744E-006  0.1003727E+03  0.7561462E-02  0.1279514E+00
          1   -1    0    0  501    0  0.00000000000E+00  0.00000000000E+00  0.43992812445E+03  0.43992812445E+03  0.00000000000E+00 0. -1.
         -1   -1    0    0    0  501 -0.00000000000E+00 -0.00000000000E+00 -0.29650207916E+02  0.29650207916E+02  0.00000000000E+00 0.  1.
         23    2    1    2    0    0 -0.82970503473E+01 -0.30559143244E+02  0.20513855115E+03  0.24234857306E+03  0.12509317893E+03 0.  0.
         23    2    1    2    0    0  0.82970503473E+01  0.30559143244E+02  0.20513936539E+03  0.22722975931E+03  0.92458109458E+02 0.  0.
          5    1    3    3  502    0  0.33108797850E+02  0.35351905257E+02  0.56703588063E+02  0.74690822726E+02  0.41800000000E+01 0.  1.
         -5    1    3    3    0  502 -0.41405848197E+02 -0.65911048502E+02  0.14843496309E+03  0.16765775033E+03  0.41800000000E+01 0.  1.
        -11    1    4    4    0    0  0.10130291736E+02  0.51840094306E+02  0.19766381438E+03  0.20459961315E+03  0.00000000000E+00 0. -1.
         11    1    4    4    0    0 -0.18332413890E+01 -0.21280951062E+02  0.74755510065E+01  0.22630146154E+02  0.00000000000E+00 0.  1.
</event>
<event>
 8    1  0.4798744E-006  0.1305716E+03  0.7561462E-02  0.1226610E+00
          2   -1    0    0  501    0  0.00000000000E+00  0.00000000000E+00  0.38609747574E+03  0.38609747574E+03  0.00000000000E+00 0. -1.
         -2   -1    0    0    0  501 -0.00000000000E+00 -0.00000000000E+00 -0.70208363588E+02  0.70208363588E+02  0.00000000000E+00 0.  1.
         23    2    1    2    0    0  0.10063002420E+03 -0.35573023788E+01  0.68413498035E+02  0.17386454159E+03  0.12413466856E+03 0.  0.
         23    2    1    2    0    0 -0.10063002420E+03  0.35573023788E+01  0.24747561412E+03  0.28244129774E+03  0.91596129366E+02 0.  0.
          5    1    3    3  502    0 -0.60947670531E+01 -0.44750944684E+02  0.18702610765E+02  0.49061729331E+02  0.41800000000E+01 0. -1.
         -5    1    3    3    0  502  0.10672479125E+03  0.41193642305E+02  0.49710887270E+02  0.12480281226E+03  0.41800000000E+01 0.  1.
        -11    1    4    4    0    0 -0.21991152779E+02 -0.38440891625E+01 -0.35571734925E+00  0.22327435071E+02  0.00000000000E+00 0.  1.
         11    1    4    4    0    0 -0.78638871421E+02  0.74013915413E+01  0.24783133147E+03  0.26011386267E+03  0.00000000000E+00 0. -1.
</event>
<event>
 8    1  0.4798744E-006  0.1147261E+03  0.7561462E-02  0.1252060E+00
         -2   -1    0    0    0  501 -0.00000000000E+00  0.00000000000E+00  0.13410745550E+03  0.13410745550E+03  0.00000000000E+00 0. -1.
          2   -1    0    0  501    0  0.00000000000E+00 -0.00000000000E+00 -0.10638138021E+03  0.10638138021E+03  0.00000000000E+00 0.  1.
         23    2    1    2    0    0 -0.47357186725E+02 -0.16518035616E+02  0.57431265084E+01  0.13491462240E+03  0.12511364114E+03 0.  0.
         23    2    1    2    0    0  0.47357186725E+02  0.16518035616E+02  0.21982948778E+02  0.10557421331E+03  0.90261375149E+02 0.  0.
          5    1    3    3  502    0 -0.74421364350E+02  0.29584489807E+02  0.11371976004E+02  0.80997381113E+02  0.41800000000E+01 0.  1.
         -5    1    3    3    0  502  0.27064177626E+02 -0.46102525423E+02 -0.56288494952E+01  0.53917241283E+02  0.41800000000E+01 0.  1.
        -11    1    4    4    0    0 -0.13225240334E+02  0.30688411188E+02 -0.10966640761E+02  0.35170339389E+02  0.00000000000E+00 0.  1.
         11    1    4    4    0    0  0.60582427059E+02 -0.14170375572E+02  0.32949589539E+02  0.70403873920E+02  0.00000000000E+00 0. -1.
</event>
<event>
 8    1  0.4798744E-006  0.8620869E+02  0.7561462E-02  0.1312302E+00
          1   -1    0    0  501    0  0.00000000000E+00  0.00000000000E+00  0.68672448248E+03  0.68672448248E+03  0.00000000000E+00 0. -1.
         -1   -1    0    0    0  501 -0.00000000000E+00 -0.00000000000E+00 -0.18135641923E+02  0.18135641923E+02  0.00000000000E+00 0.  1.
         23    2    1    2    0    0 -0.27209041900E+02  0.21709741222E+02  0.26364807046E+03  0.28802414424E+03  0.11061626364E+03 0.  0.
         23    2    1    2    0    0  0.27209041900E+02 -0.21709741222E+02  0.40494077009E+03  0.41683598016E+03  0.92539517227E+02 0.  0.
          5    1    3    3  502    0 -0.35219558377E+01  0.42620006404E+02  0.30465155313E+02  0.52673211475E+02  0.41800000000E+01 0. -1.
         -5    1    3    3    0  502 -0.23687086062E+02 -0.20910265183E+02  0.23318291515E+03  0.23535093277E+03  0.41800000000E+01 0.  1.
        -11    1    4    4    0    0 -0.11215981505E+02  0.30645883328E+02  0.10542179656E+03  0.11035725439E+03  0.00000000000E+00 0.  1.
         11    1    4    4    0    0  0.38425023405E+02 -0.52355624550E+02  0.29951897353E+03  0.30647872577E+03  0.00000000000E+00 0. -1.
</event>
<event>
 8    1  0.4798744E-006  0.8168309E+02  0.7561462E-02  0.1324342E+00
          3   -1    0    0  501    0  0.00000000000E+00  0.00000000000E+00  0.96939873001E+02  0.96939873001E+02  0.00000000000E+00 0. -1.
         -3   -1    0    0    0  501 -0.00000000000E+00 -0.00000000000E+00 -0.13729174168E+03  0.13729174168E+03  0.00000000000E+00 0.  1.
         23    2    1    2    0    0  0.46734939692E+02  0.29512352946E+01 -0.37644106949E+02  0.13877049413E+03  0.12508919568E+03 0.  0.
         23    2    1    2    0    0 -0.46734939692E+02 -0.29512352946E+01 -0.27077617287E+01  0.95461120547E+02  0.83142222636E+02 0.  0.
          5    1    3    3  502    0 -0.23015952114E+01 -0.37900475740E+02 -0.59904156926E+02  0.71047335059E+02  0.41800000000E+01 0. -1.
         -5    1    3    3    0  502  0.49036534903E+02  0.40851711035E+02  0.22260049978E+02  0.67723159073E+02  0.41800000000E+01 0. -1.
        -11    1    4    4    0    0 -0.19259102756E+02 -0.20874145968E+02 -0.37893126547E+02  0.47355380353E+02  0.00000000000E+00 0.  1.
         11    1    4    4    0    0 -0.27475836936E+02  0.17922910673E+02  0.35185364818E+02  0.48105740195E+02  0.00000000000E+00 0. -1.
</event>
<event>
 7    1  0.4798744E-006  0.1690264E+03  0.7561462E-02  0.1178867E+00
         -3   -1    0    0    0  501 -0.00000000000E+00  0.00000000000E+00  0.47700234856E+02  0.47700234856E+02  0.00000000000E+00 0.  1.
          3   -1    0    0  501    0  0.00000000000E+00 -0.00000000000E+00 -0.79299958580E+03  0.79299958580E+03  0.00000000000E+00 0. -1.
         23    2    1    2    0    0  0.71794918331E+00 -0.25814363471E+02 -0.38833172620E+03  0.39975306209E+03  0.91291205858E+02 0.  0.
          5    1    1    2  502    0 -0.12107987500E+03  0.73153750627E+01 -0.10270343791E+03  0.15899471501E+03  0.41800000000E+01 0. -1.
         -5    1    1    2    0  502  0.12036192581E+03  0.18498988408E+02 -0.25426418684E+03  0.28195204356E+03  0.41800000000E+01 0.  1.
        -11    1    3    3    0    0 -0.43973638483E+02 -0.24018303418E+02 -0.21098680838E+03  0.21685477419E+03  0.00000000000E+00 0. -1.
         11    1    3    3    0    0  0.44691587666E+02 -0.17960600531E+01 -0.17734491782E+03  0.18289828790E+03  0.00000000000E+00 0.  1.
</event>
<event>
 7    1  0.4798744E-006  0.1310292E+03  0.7561462E-02  0.1225936E+00
         -2   -1    0    0    0  501 -0.00000000000E+00  0.00000000000E+00  0.18237506388E+03  0.18237506388E+03  0.00000000000E+00 0.  1.
          2   -1    0    0  501    0  0.00000000000E+00 -0.00000000000E+00 -0.16148819880E+03  0.16148819880E+03  0.00000000000E+00 0. -1.
         23    2    1    2    0    0 -0.47381375115E+02  0.14966917401E+00  0.93315863847E+02  0.16309323721E+03  0.12508611621E+03 0.  0.
          5    1    3    3  502    0  0.19577754937E+02 -0.18011284101E+02  0.89523290101E+02  0.93485756743E+02  0.41800000000E+01 0.  1.
         -5    1    3    3    0  502 -0.66959130052E+02  0.18160953275E+02  0.37925737461E+01  0.69607480466E+02  0.41800000000E+01 0.  1.
        -11    1    1    2    0    0  0.99276910931E+02  0.32324552687E+02 -0.45536016987E+02  0.11390483130E+03  0.00000000000E+00 0.  1.
         11    1    1    2    0    0 -0.51895535816E+02 -0.32474221861E+02 -0.26892981775E+02  0.66865194173E+02  0.00000000000E+00 0. -1.
</event>
<event>
 8    1  0.4798744E-006  0.7859661E+02  0.7561462E-02  0.1333082E+00
          2   -1    0    0  501    0  0.00000000000E+00  0.00000000000E+00  0.19073002371E+03  0.19073002371E+03  0.00000000000E+00 0. -1.
         -2   -1    0    0    0  501 -0.00000000000E+00 -0.00000000000E+00 -0.67945121607E+02  0.67945121607E+02  0.00000000000E+00 0.  1.
         23    2    1    2    0    0  0.17809260569E+02  0.17100181205E+02  0.39790169073E+02  0.13356449749E+03  0.12508649597E+03 0.  0.
         23    2    1    2    0    0 -0.17809260569E+02 -0.17100181205E+02  0.82994733028E+02  0.12511064783E+03  0.90304831155E+02 0.  0.
          5    1    3    3  502    0 -0.14526346575E+02  0.38587104090E+02  0.71914199981E+02  0.83000625936E+02  0.41800000000E+01 0.  1.
         -5    1    3    3    0  502  0.32335607144E+02 -0.21486922885E+02 -0.32124030908E+02  0.50563871551E+02  0.41800000000E+01 0.  1.
        -11    1    4    4    0    0  0.13984182546E+02 -0.36754544566E+02  0.63459340476E+01  0.39833714197E+02  0.00000000000E+00 0. -1.
         11    1    4    4    0    0 -0.31793443115E+02  0.19654363361E+02  0.76648798980E+02  0.85276933630E+02  0.00000000000E+00 0.  1.
</event>
<event>
 8    1  0.4798744E-006  0.1458570E+03  0.7561462E-02  0.1205658E+00
         -2   -1    0    0    0  501 -0.00000000000E+00  0.00000000000E+00  0.28555528603E+02  0.28555528603E+02  0.00000000000E+00 0.  1.
          2   -1    0    0  501    0  0.00000000000E+00 -0.00000000000E+00 -0.84675871219E+03  0.84675871219E+03  0.00000000000E+00 0. -1.
         23    2    1    2    0    0 -0.23991537798E+02  0.10705009421E+03 -0.37517098624E+03  0.41040897935E+03  0.12508774863E+03 0.  0.
         23    2    1    2    0    0  0.23991537798E+02 -0.10705009421E+03 -0.44303219734E+03  0.46490526144E+03  0.88453703583E+02 0.  0.
          5    1    3    3  502    0  0.42104581077E+02  0.75264673429E+02 -0.25848722393E+03  0.27252648339E+03  0.41800000000E+01 0. -1.
         -5    1    3    3    0  502 -0.66096118875E+02  0.31785420778E+02 -0.11668376231E+03  0.13788249595E+03  0.41800000000E+01 0. -1.
        -11    1    4    4    0    0  0.10761997404E+02  0.96549824394E+01 -0.14146359626E+02  0.20227673240E+02  0.00000000000E+00 0.  1.
         11    1    4    4    0    0  0.13229540394E+02 -0.11670507665E+03 -0.42888583772E+03  0.44467758820E+03  0.00000000000E+00 0. -1.
</event>
<event>
 8    1  0.4798744E-006  0.1465573E+03  0.7561462E-02  0.1204768E+00
          2   -1    0    0  501    0  0.00000000000E+00  0.00000000000E+00  0.34807204942E+03  0.34807204942E+03  0.00000000000E+00 0. -1.
         -2   -1    0    0    0  501 -0.00000000000E+00 -0.00000000000E+00 -0.64550348388E+02  0.64550348388E+02  0.00000000000E+00 0.  1.
         23    2    1    2    0    0  0.80843479782E+02  0.63609486269E+02  0.14364377771E+03  0.21647732837E+03  0.12508822430E+03 0.  0.
         23    2    1    2    0    0 -0.80843479782E+02 -0.63609486269E+02  0.13987792332E+03  0.19614506943E+03  0.91242642791E+02 0.  0.
          5    1    3    3  502    0  0.45193817835E+02  0.97974536303E+02  0.12006027616E+03  0.16147270124E+03  0.41800000000E+01 0. -1.
         -5    1    3    3    0  502  0.35649661946E+02 -0.34365050034E+02  0.23583501549E+02  0.55004627133E+02  0.41800000000E+01 0. -1.
        -11    1    4    4    0    0 -0.10253129361E+02 -0.64038332324E+02  0.50177365489E+02  0.81998796796E+02  0.00000000000E+00 0.  1.
         11    1    4    4    0    0 -0.70590350421E+02  0.42884605466E+00  0.89700557831E+02  0.11414627264E+03  0.00000000000E+00 0. -1.
</event>
<event>
 7    1  0.4798744E-006  0.4414217E+03  0.7561462E-02  0.1030311E+00
          1   -1    0    0  501    0  0.00000000000E+00  0.00000000000E+00  0.11993588053E+04  0.11993588053E+04  0.00000000000E+00 0. -1.
         -1   -1    0    0    0  501 -0.00000000000E+00 -0.00000000000E+00 -0.75111197772E+03  0.75111197772E+03  0.00000000000E+00 0.  1.
         23    2    1    2    0    0  0.25640070091E+03 -0.33786690065E+03  0.10815488595E+04  0.11649984248E+04  0.87051895184E+02 0.  0.
          5    1    1    2  502    0 -0.15585974179E+03  0.72652448537E+02 -0.16748180615E+03  0.24007970589E+03  0.41800000000E+01 0. -1.
         -5    1    1    2    0  502 -0.10054095911E+03  0.26521445211E+03 -0.46582022574E+03  0.54539265230E+03  0.41800000000E+01 0.  1.
        -11    1    3    3    0    0  0.12832454772E+03 -0.12760425836E+03  0.55444664657E+03  0.58323333254E+03  0.00000000000E+00 0.  1.
         11    1    3    3    0    0  0.12807615319E+03 -0.21026264229E+03  0.52710221292E+03  0.58176509230E+03  0.00000000000E+00 0. -1.
</event>
<event>
 8    1  0.4798744E-006  0.1025346E+03  0.7561462E-02  0.1275055E+00
         -2   -1    0    0    0  501 -0.00000000000E+00  0.00000000000E+00  0.45884108839E+02  0.45884108839E+02  0.00000000000E+00 0.  1.
          2   -1    0    0  501    0  0.00000000000E+00 -0.00000000000E+00 -0.29368130901E+03  0.29368130901E+03  0.00000000000E+00 0. -1.
         23    2    1    2    0    0  0.27661701088E+02 -0.70300094200E+01 -0.99323087864E+02  0.16224222005E+03  0.12507146535E+03 0.  0.
         23    2    1    2    0    0 -0.27661701088E+02  0.70300094200E+01 -0.14847411230E+03  0.17732319779E+03  0.92651841386E+02 0.  0.
          5    1    3    3  502    0  0.76741612278E+02  0.65455882553E+01 -0.57329557389E+02  0.96105516653E+02  0.41800000000E+01 0.  1.
         -5    1    3    3    0  502 -0.49079911190E+02 -0.13575597675E+02 -0.41993530474E+02  0.66136703398E+02  0.41800000000E+01 0.  1.
        -11    1    4    4    0    0  0.24290482142E+02  0.52919249568E+01 -0.58747181999E+01  0.25544946788E+02  0.00000000000E+00 0.  1.
         11    1    4    4    0    0 -0.51952183230E+02  0.17380844632E+01 -0.14259939410E+03  0.15177825101E+03  0.00000000000E+00 0. -1.
</event>
<event>
 8    1  0.4798744E-006  0.1114841E+03  0.7561462E-02  0.1257846E+00
         -1   -1    0    0    0  501 -0.00000000000E+00  0.00000000000E+00  0.25769103707E+02  0.25769103707E+02  0.00000000000E+00 0.  1.
          1   -1    0    0  501    0  0.00000000000E+00 -0.00000000000E+00 -0.62116574515E+03  0.62116574515E+03  0.00000000000E+00 0. -1.
         23    2    1    2    0    0 -0.88203326849E+01 -0.59311445891E+02 -0.26169439597E+03  0.29618743537E+03  0.12508954434E+03 0.  0.
         23    2    1    2    0    0  0.88203326849E+01  0.59311445891E+02 -0.33370224547E+03  0.35074741349E+03  0.89838263311E+02 0.  0.
          5    1    3    3  502    0 -0.30648064069E+02  0.20670294728E+02 -0.16315394519E+03  0.16734170773E+03  0.41800000000E+01 0.  1.
         -5    1    3    3    0  502  0.21827731384E+02 -0.79981740619E+02 -0.98540450784E+02  0.12884572764E+03  0.41800000000E+01 0.  1.
        -11    1    4    4    0    0  0.10027550708E+02 -0.20558888339E+02 -0.12899092058E+03  0.13100334826E+03  0.00000000000E+00 0. -1.
         11    1    4    4    0    0 -0.12072180229E+01  0.79870334231E+02 -0.20471132489E+03  0.21974406523E+03  0.00000000000E+00 0.  1.
</event>
<event>
 8    1  0.4798744E-006  0.9033539E+02  0.7561462E-02  0.1302042E+00
          1   -1    0    0  501    0  0.00000000000E+00  0.00000000000E+00  0.14852240834E+03  0.14852240834E+03  0.00000000000E+00 0. -1.
         -1   -1    0    0    0  501 -0.00000000000E+00 -0.00000000000E+00 -0.17404392477E+03  0.17404392477E+03  0.00000000000E+00 0.  1.
         23    2    1    2    0    0  0.61754383778E+02 -0.29361009839E+02 -0.11086774888E+03  0.18059627837E+03  0.12509070791E+03 0.  0.
         23    2    1    2    0    0 -0.61754383778E+02  0.29361009839E+02  0.85346232450E+02  0.14197005474E+03  0.90530902093E+02 0.  0.
          5    1    3    3  502    0  0.59264719280E+01 -0.17846320385E+02 -0.12102172123E+03  0.12254527176E+03  0.41800000000E+01 0. -1.
         -5    1    3    3    0  502  0.55827911850E+02 -0.11514689453E+02  0.10153972351E+02  0.58051006617E+02  0.41800000000E+01 0. -1.
        -11    1    4    4    0    0  0.56856722981E+01  0.36035767900E+02  0.58776997264E+02  0.69178311955E+02  0.00000000000E+00 0. -1.
         11    1    4    4    0    0 -0.67440056076E+02 -0.66747580609E+01  0.26569235186E+02  0.72791742781E+02  0.00000000000E+00 0.  1.
</event>
<event>
 8    1  0.4798744E-006  0.9190356E+02  0.7561462E-02  0.1298306E+00
          1   -1    0    0  501    0  0.00000000000E+00  0.00000000000E+00  0.34891033331E+03  0.34891033331E+03  0.00000000000E+00 0. -1.
         -1   -1    0    0    0  501 -0.00000000000E+00 -0.00000000000E+00 -0.36008691825E+02  0.36008691825E+02  0.00000000000E+00 0.  1.
         23    2    1    2    0    0 -0.20464476415E+02 -0.10028010591E+02  0.14751395429E+03  0.19474968541E+03  0.12509083686E+03 0.  0.
         23    2    1    2    0    0  0.20464476415E+02  0.10028010591E+02  0.16538768720E+03  0.19016933973E+03  0.91060062070E+02 0.  0.
          5    1    3    3  502    0 -0.29683815566E+02  0.47153042332E+02  0.29411758783E+02  0.63143188567E+02  0.41800000000E+01 0. -1.
         -5    1    3    3    0  502  0.92193391506E+01 -0.57181052924E+02  0.11810219550E+03  0.13160649684E+03  0.41800000000E+01 0. -1.
        -11    1    4    4    0    0 -0.23697326817E+02 -0.28318463377E+01  0.12990067571E+03  0.13207485833E+03  0.00000000000E+00 0. -1.
         11    1    4    4    0    0  0.44161803232E+02  0.12859856929E+02  0.35487011488E+02  0.58094481402E+02  0.00000000000E+00 0.  1.
</event>
<event>
 8    1  0.4798744E-006  0.1278810E+03  0.7561462E-02  0.1230634E+00
          1   -1    0    0  501    0  0.00000000000E+00  0.00000000000E+00  0.26748872944E+03  0.26748872944E+03  0.00000000000E+00 0. -1.
         -1   -1    0    0    0  501 -0.00000000000E+00 -0.00000000000E+00 -0.76547184212E+02  0.76547184212E+02  0.00000000000E+00 0.  1.
         23    2    1    2    0    0  0.25023902119E+02  0.81045419404E+02  0.46807168216E+02  0.15822057560E+03  0.12509310078E+03 0.  0.
         23    2    1    2    0    0 -0.25023902119E+02 -0.81045419404E+02  0.14413437701E+03  0.18581533805E+03  0.80981884002E+02 0.  0.
          5    1    3    3  502    0  0.32855801128E+02 -0.26352597286E+02  0.49543353958E+01  0.42614327294E+02  0.41800000000E+01 0. -1.
         -5    1    3    3    0  502 -0.78318990090E+01  0.10739801669E+03  0.41852832820E+02  0.11560624830E+03  0.41800000000E+01 0. -1.
        -11    1    4    4    0    0  0.88533001274E+01 -0.69230150560E+02  0.12941373101E+03  0.14703437844E+03  0.00000000000E+00 0. -1.
         11    1    4    4    0    0 -0.33877202246E+02 -0.11815268845E+02  0.14720646001E+02  0.38780959614E+02  0.00000000000E+00 0.  1.
</event>
<event>
 8    1  0.4798744E-006  0.8612487E+02  0.7561462E-02  0.1312517E+00
         -2   -1    0    0    0  501 -0.00000000000E+00  0.00000000000E+00  0.69384464196E+02  0.69384464196E+02  0.00000000000E+00 0.  1.
          2   -1    0    0  501    0  0.00000000000E+00 -0.00000000000E+00 -0.25373291146E+03  0.25373291146E+03  0.00000000000E+00 0. -1.
         23    2    1    2    0    0 -0.26264385880E+02 -0.54468558482E+01 -0.14120259556E+02  0.12870793143E+03  0.12508742415E+03 0.  0.
         23    2    1    2    0    0  0.26264385880E+02  0.54468558482E+01 -0.17022818771E+03  0.19440944423E+03  0.89988387630E+02 0.  0.
          5    1    3    3  502    0 -0.69360804807E+01 -0.55239717239E+02 -0.40516277497E+02  0.68982437731E+02  0.41800000000E+01 0. -1.
         -5    1    3    3    0  502 -0.19328305400E+02  0.49792861391E+02  0.26396017940E+02  0.59725493704E+02  0.41800000000E+01 0. -1.
        -11    1    4    4    0    0 -0.41131890004E+01  0.25898448800E+02 -0.15058894142E+03  0.15285508579E+03  0.00000000000E+00 0. -1.
         11    1    4    4    0    0  0.30377574881E+02 -0.20451592952E+02 -0.19639246288E+02  0.41554358432E+02  0.00000000000E+00 0.  1.
</event>
<event>
 8    1  0.4798744E-006  0.7334530E+02  0.7561462E-02  0.1349073E+00
          3   -1    0    0  501    0  0.00000000000E+00  0.00000000000E+00  0.14051802287E+03  0.14051802287E+03  0.00000000000E+00 0. -1.
         -3   -1    0    0    0  501 -0.00000000000E+00 -0.00000000000E+00 -0.74112933312E+02  0.74112933312E+02  0.00000000000E+00 0.  1.
         23    2    1    2    0    0  0.11911003191E+02 -0.19095332745E+02  0.27391029907E+02  0.12229687457E+03  0.11704594517E+03 0.  0.
         23    2    1    2    0    0 -0.11911003191E+02  0.19095332745E+02  0.39014059652E+02  0.92334081613E+02  0.80603858760E+02 0.  0.
          5    1    3    3  502    0 -0.23364283947E+02 -0.16895758986E+02  0.64564155075E+02  0.70833318125E+02  0.41800000000E+01 0. -1.
         -5    1    3    3    0  502  0.35275287138E+02 -0.21995737586E+01 -0.37173125167E+02  0.51463556446E+02  0.41800000000E+01 0.  1.
        -11    1    4    4    0    0 -0.22607788355E+02  0.46959932686E+02  0.33570359124E+02  0.61994486722E+02  0.00000000000E+00 0. -1.
         11    1    4    4    0    0  0.10696785165E+02 -0.27864599941E+02  0.54437005280E+01  0.30339594891E+02  0.00000000000E+00 0.  1.
</event>
<event>
 8    1  0.4798744E-006  0.7503190E+02  0.7561462E-02  0.1343772E+00
         -2   -1    0    0    0  501 -0.00000000000E+00  0.00000000000E+00  0.22312109360E+02  0.22312109360E+02  0.00000000000E+00 0.  1.
          2   -1    0    0  501    0  0.00000000000E+00 -0.00000000000E+00 -0.54675420325E+03  0.54675420325E+03  0.00000000000E+00 0. -1.
         23    2    1    2    0    0  0.10186540424E+02 -0.12926232036E+02 -0.34412680594E+03  0.36652656952E+03  0.12509042536E+03 0.  0.
         23    2    1    2    0    0 -0.10186540424E+02  0.12926232036E+02 -0.18031528796E+03  0.20253974310E+03  0.90762830403E+02 0.  0.
          5    1    3    3  502    0  0.34384698807E+02 -0.13280525718E+02 -0.21319462859E+02  0.42786350300E+02  0.41800000000E+01 0.  1.
         -5    1    3    3    0  502 -0.24198158384E+02  0.35429368198E+00 -0.32280734308E+03  0.32374021922E+03  0.41800000000E+01 0.  1.
        -11    1    4    4    0    0 -0.24008846082E+02 -0.32794577436E+02 -0.11229645978E+03  0.11942530669E+03  0.00000000000E+00 0.  1.
         11    1    4    4    0    0  0.13822305658E+02  0.45720809473E+02 -0.68018828180E+02  0.83114436408E+02  0.00000000000E+00 0. -1.
</event>
<event>
 8    1  0.4798744E-006  0.1369303E+03  0.7561462E-02  0.1217520E+00
          1   -1    0    0  501    0  0.00000000000E+00  0.00000000000E+00  0.70542750531E+03  0.70542750531E+03  0.00000000000E+00 0.  1.
         -1   -1    0    0    0  501 -0.00000000000E+00 -0.00000000000E+00 -0.32274919549E+02  0.32274919549E+02  0.00000000000E+00 0. -1.
         23    2    1    2    0    0 -0.54560551543E+02 -0.71486293026E+02  0.23244602338E+03  0.27886445050E+03  0.12508830517E+03 0.  0.
         23    2    1    2    0    0  0.54560551543E+02  0.71486293026E+02  0.44070656238E+03  0.45883797436E+03  0.90680034821E+02 0.  0.
          5    1    3    3  502    0 -0.89963100081E+02 -0.72435067485E+02  0.19812071519E+03  0.22936758395E+03  0.41800000000E+01 0.  1.
         -5    1    3    3    0  502  0.35402548538E+02  0.94877445910E+00  0.34325308186E+02  0.49496866547E+02  0.41800000000E+01 0.  1.
        -11    1    4    4    0    0 -0.55866926483E+01  0.61379995045E+02  0.28552067051E+03  0.29209718967E+03  0.00000000000E+00 0.  1.
         11    1    4    4    0    0  0.60147244191E+02  0.10106297982E+02  0.15518589187E+03  0.16674078469E+03  0.00000000000E+00 0. -1.
</event>
<event>
 7    1  0.4798744E-006  0.1252636E+03  0.7561462E-02  0.1234658E+00
         -1   -1    0    0    0  501 -0.00000000000E+00  0.00000000000E+00  0.10225915229E+03  0.10225915229E+03  0.00000000000E+00 0.  1.
          1   -1    0    0  501    0  0.00000000000E+00 -0.00000000000E+00 -0.17579942285E+03  0.17579942285E+03  0.00000000000E+00 0. -1.
         23    2    1    2    0    0 -0.32523114639E+01 -0.19624574223E+02 -0.31348539780E+02  0.99457871380E+02  0.92268281602E+02 0.  0.
          5    1    1    2  502    0 -0.11100336644E+02  0.91888729439E+02 -0.48426626619E+02  0.10454361117E+03  0.41800000000E+01 0. -1.
         -5    1    1    2    0  502  0.14352648107E+02 -0.72264155216E+02  0.62348958396E+01  0.74057092590E+02  0.41800000000E+01 0.  1.
        -11    1    3    3    0    0  0.48994025256E+01 -0.51218998530E+02  0.36829814012E+01  0.51584438617E+02  0.00000000000E+00 0.  1.
         11    1    3    3    0    0 -0.81517139894E+01  0.31594424306E+02 -0.35031521181E+02  0.47873432762E+02  0.00000000000E+00 0. -1.
</event>
<event>
 8    1  0.4798744E-006  0.1519490E+03  0.7561462E-02  0.1198098E+00
          1   -1    0    0  501    0  0.00000000000E+00  0.00000000000E+00  0.23931103409E+03  0.23931103409E+03  0.00000000000E+00 0. -1.
         -1   -1    0    0    0  501 -0.00000000000E+00 -0.00000000000E+00 -0.37982120193E+03  0.37982120193E+03  0.00000000000E+00 0.  1.
         23    2    1    2    0    0 -0.33202507857E+02  0.13290341458E+03 -0.32354227084E+03  0.37295217459E+03  0.12509196368E+03 0.  0.
         23    2    1    2    0    0  0.33202507857E+02 -0.13290341458E+03  0.18303210300E+03  0.24618006143E+03  0.91313458948E+02 0.  0.
          5    1    3    3  502    0 -0.65229602540E+02  0.85650048080E+02 -0.11889056644E+03  0.16044709711E+03  0.41800000000E+01 0. -1.
         -5    1    3    3    0  502  0.32027094683E+02  0.47253366500E+02 -0.20465170440E+03  0.21250507748E+03  0.41800000000E+01 0. -1.
        -11    1    4    4    0    0  0.13921278048E+02 -0.98518004096E+02  0.18119451003E+03  0.20671489927E+03  0.00000000000E+00 0. -1.
         11    1    4    4    0    0  0.19281229809E+02 -0.34385410483E+02  0.18375929683E+01  0.39465162168E+02  0.00000000000E+00 0.  1.
</event>
<event>
 8    1  0.4798744E-006  0.1016725E+03  0.7561462E-02  0.1276818E+00
         -1   -1    0    0    0  501 -0.00000000000E+00  0.00000000000E+00  0.29719960408E+03  0.29719960408E+03  0.00000000000E+00 0.  1.
          1   -1    0    0  501    0  0.00000000000E+00 -0.00000000000E+00 -0.44922583847E+02  0.44922583847E+02  0.00000000000E+00 0. -1.
         23    2    1    2    0    0  0.37668783617E+02  0.41442113138E+01  0.16670685075E+03  0.21183379789E+03  0.12508505944E+03 0.  0.
         23    2    1    2    0    0 -0.37668783617E+02 -0.41442113138E+01  0.85570169481E+02  0.13028839003E+03  0.90646008883E+02 0.  0.
          5    1    3    3  502    0  0.75719948543E+02  0.16156033005E+02  0.60643608593E+02  0.98436008010E+02  0.41800000000E+01 0.  1.
         -5    1    3    3    0  502 -0.38051164927E+02 -0.12011821691E+02  0.10606324216E+03  0.11339778988E+03  0.41800000000E+01 0.  1.
        -11    1    4    4    0    0 -0.44918601489E+02 -0.33126308709E+02  0.83376553722E+02  0.10033286002E+03  0.00000000000E+00 0.  1.
         11    1    4    4    0    0  0.72498178722E+01  0.28982097395E+02  0.21936157585E+01  0.29955530019E+02  0.00000000000E+00 0. -1.
</event>
<event>
 8    1  0.4798744E-006  0.1201143E+03  0.7561462E-02  0.1242909E+00
          2   -1    0    0  501    0  0.00000000000E+00  0.00000000000E+00  0.26954243429E+03  0.26954243429E+03  0.00000000000E+00 0. -1.
         -2   -1    0    0    0  501 -0.00000000000E+00 -0.00000000000E+00 -0.60822577770E+02  0.60822577770E+02  0.00000000000E+00 0.  1.
         23    2    1    2    0    0  0.30469781095E+02 -0.48599186213E+02  0.85645982303E+02  0.16208871107E+03  0.12508887845E+03 0.  0.
         23    2    1    2    0    0 -0.30469781095E+02  0.48599186213E+02  0.12307387422E+03  0.16827630099E+03  0.99395404818E+02 0.  0.
          5    1    3    3  502    0 -0.38435259202E+02 -0.45113002603E+02  0.68882034220E+02  0.90965153724E+02  0.41800000000E+01 0. -1.
         -5    1    3    3    0  502  0.68905040297E+02 -0.34861836098E+01  0.16763948083E+02  0.71123557348E+02  0.41800000000E+01 0. -1.
        -11    1    4    4    0    0  0.26836878119E+02  0.47289840879E+02  0.79303904442E+02  0.96154336029E+02  0.00000000000E+00 0. -1.
         11    1    4    4    0    0 -0.57306659214E+02  0.13093453341E+01  0.43769969777E+02  0.72121964960E+02  0.00000000000E+00 0.  1.
</event>
<event>
 8    1  0.4798744E-006  0.8315766E+02  0.7561462E-02  0.1320322E+00
          2   -1    0    0  501    0  0.00000000000E+00  0.00000000000E+00  0.29045340533E+02  0.29045340533E+02  0.00000000000E+00 0. -1.
         -2   -1    0    0    0  501 -0.00000000000E+00 -0.00000000000E+00 -0.43660069530E+03  0.43660069530E+03  0.00000000000E+00 0.  1.
         23    2    1    2    0    0  0.16647931920E+02  0.25434304238E+02 -0.22326190730E+03  0.25771595295E+03  0.12509027015E+03 0.  0.
         23    2    1    2    0    0 -0.16647931920E+02 -0.25434304238E+02 -0.18429344746E+03  0.20793008287E+03  0.91360752607E+02 0.  0.
          5    1    3    3  502    0 -0.17053464789E+02  0.41852664247E+02 -0.17690166814E+02  0.48712221955E+02  0.41800000000E+01 0. -1.
         -5    1    3    3    0  502  0.33701396709E+02 -0.16418360009E+02 -0.20557174049E+03  0.20900373100E+03  0.41800000000E+01 0. -1.
        -11    1    4    4    0    0  0.24145667040E+02 -0.33826958574E+02 -0.14438642961E+03  0.15024885164E+03  0.00000000000E+00 0.  1.
         11    1    4    4    0    0 -0.40793598959E+02  0.83926543356E+01 -0.39907017851E+02  0.57681231234E+02  0.00000000000E+00 0. -1.
</event>
<event>
 8    1  0.4798744E-006  0.1291756E+03  0.7561462E-02  0.1228684E+00
          2   -1    0    0  501    0  0.00000000000E+00  0.00000000000E+00  0.16326807308E+03  0.16326807308E+03  0.00000000000E+00 0.  1.
         -2   -1    0    0    0  501 -0.00000000000E+00 -0.00000000000E+00 -0.11520773277E+03  0.11520773277E+03  0.00000000000E+00 0. -1.
         23    2    1    2    0    0  0.73364355291E+02  0.42423062442E+02  0.22912991691E+02  0.15282227172E+03  0.12509035411E+03 0.  0.
         23    2    1    2    0    0 -0.73364355291E+02 -0.42423062442E+02  0.25147348621E+02  0.12565353413E+03  0.89299365300E+02 0.  0.
          5    1    3    3  502    0 -0.28220964409E+02  0.31005764005E+02  0.27660340423E+02  0.50401855780E+02  0.41800000000E+01 0.  1.
         -5    1    3    3    0  502  0.10158531970E+03  0.11417298437E+02 -0.47473487325E+01  0.10242041594E+03  0.41800000000E+01 0.  1.
        -11    1    4    4    0    0 -0.88816865871E+02 -0.28979313761E+02  0.26486893447E+00  0.93425405778E+02  0.00000000000E+00 0. -1.
         11    1    4    4    0    0  0.15452510580E+02 -0.13443748680E+02  0.24882479687E+02  0.32228128354E+02  0.00000000000E+00 0.  1.
</event>
<event>
 8    1  0.4798744E-006  0.1098911E+03  0.7561462E-02  0.1260772E+00
          2   -1    0    0  501    0  0.00000000000E+00  0.00000000000E+00  0.15905693835E+03  0.15905693835E+03  0.00000000000E+00 0. -1.
         -2   -1    0    0    0  501 -0.00000000000E+00 -0.00000000000E+00 -0.17388832130E+03  0.17388832130E+03  0.00000000000E+00 0.  1.
         23    2    1    2    0    0 -0.96416883733E+02 -0.28851974005E+01 -0.88462824466E+02  0.18093349037E+03  0.12492684577E+03 0.  0.
         23    2    1    2    0    0  0.96416883733E+02  0.28851974005E+01  0.73631441523E+02  0.15201176928E+03  0.91550253878E+02 0.  0.
          5    1    3    3  502    0 -0.67946116051E+02  0.11540512450E+02 -0.11834358748E+03  0.13701290163E+03  0.41800000000E+01 0.  1.
         -5    1    3    3    0  502 -0.28470767682E+02 -0.14425709851E+02  0.29880763018E+02  0.43920588744E+02  0.41800000000E+01 0.  1.
        -11    1    4    4    0    0  0.23226538808E+02  0.32201081483E+02  0.60077979124E+02  0.72012119323E+02  0.00000000000E+00 0.  1.
         11    1    4    4    0    0  0.73190344925E+02 -0.29315884083E+02  0.13553462399E+02  0.79999649955E+02  0.00000000000E+00 0. -1.
</event>
<event>
 8    1  0.4798744E-006  0.1225622E+03  0.7561462E-02  0.1238929E+00
          2   -1    0    0  501    0  0.00000000000E+00  0.00000000000E+00  0.64542522520E+03  0.64542522520E+03  0.00000000000E+00 0. -1.
         -2   -1    0    0    0  501 -0.00000000000E+00 -0.00000000000E+00 -0.39274066083E+02  0.39274066083E+02  0.00000000000E+00 0.  1.
         23    2    1    2    0    0  0.55742569668E+02  0.42528800607E+02  0.12307753542E+03  0.18885454034E+03  0.12490806510E+03 0.  0.
         23    2    1    2    0    0 -0.55742569668E+02 -0.42528800607E+02  0.48307362369E+03  0.49584475094E+03  0.87097406241E+02 0.  0.
          5    1    3    3  502    0 -0.56962157284E+01  0.66772619939E+02  0.96442760556E+02  0.11751471444E+03  0.41800000000E+01 0.  1.
         -5    1    3    3    0  502  0.61438785396E+02 -0.24243819332E+02  0.26634774867E+02  0.71339825897E+02  0.41800000000E+01 0.  1.
        -11    1    4    4    0    0  0.11237328636E+02 -0.43380555181E+02  0.19751111579E+03  0.20253096303E+03  0.00000000000E+00 0.  1.
         11    1    4    4    0    0 -0.66979898304E+02  0.85175457394E+00  0.28556250790E+03  0.29331378791E+03  0.00000000000E+00 0. -1.
</event>
<event>
 8    1  0.4798744E-006  0.1255844E+03  0.7561462E-02  0.1234159E+00
         -1   -1    0    0    0  501 -0.00000000000E+00  0.00000000000E+00  0.60544928113E+02  0.60544928113E+02  0.00000000000E+00 0.  1.
          1   -1    0    0  501    0  0.00000000000E+00 -0.00000000000E+00 -0.27789333068E+03  0.27789333068E+03  0.00000000000E+00 0. -1.
         23    2    1    2    0    0  0.12483228033E+02  0.67141693608E+02 -0.13130996151E+03  0.19379400426E+03  0.12509984850E+03 0.  0.
         23    2    1    2    0    0 -0.12483228033E+02 -0.67141693608E+02 -0.86038441062E+02  0.14464425453E+03  0.94103714198E+02 0.  0.
          5    1    3    3  502    0 -0.46855326499E+01  0.10037395267E+03 -0.11500509923E+03  0.15277607745E+03  0.41800000000E+01 0. -1.
         -5    1    3    3    0  502  0.17168760683E+02 -0.33232259067E+02 -0.16304862272E+02  0.41017926810E+02  0.41800000000E+01 0. -1.
        -11    1    4    4    0    0 -0.51143513110E+02 -0.29701987665E+02 -0.62054537082E+02  0.85724165653E+02  0.00000000000E+00 0. -1.
         11    1    4    4    0    0  0.38660285077E+02 -0.37439705943E+02 -0.23983903981E+02  0.58920088879E+02  0.00000000000E+00 0.  1.
</event>
<event>
 8    1  0.4798744E-006  0.1598057E+03  0.7561462E-02  0.1188916E+00
          1   -1    0    0  501    0  0.00000000000E+00  0.00000000000E+00  0.51146589718E+03  0.51146589718E+03  0.00000000000E+00 0. -1.
         -1   -1    0    0    0  501 -0.00000000000E+00 -0.00000000000E+00 -0.56112083863E+02  0.56112083863E+02  0.00000000000E+00 0.  1.
         23    2    1    2    0    0  0.83511111454E+02  0.97631051592E+02  0.26846412283E+03  0.32284066942E+03  0.12508870697E+03 0.  0.
         23    2    1    2    0    0 -0.83511111454E+02 -0.97631051592E+02  0.18688969048E+03  0.24473731162E+03  0.91992756886E+02 0.  0.
          5    1    3    3  502    0 -0.20411849381E+02  0.34463690760E+02  0.17458528294E+02  0.43893760219E+02  0.41800000000E+01 0. -1.
         -5    1    3    3    0  502  0.10392296083E+03  0.63167360832E+02  0.25100559454E+03  0.27894690920E+03  0.41800000000E+01 0. -1.
        -11    1    4    4    0    0 -0.93612943492E+02 -0.44647726458E+02  0.13066877234E+03  0.16682664875E+03  0.00000000000E+00 0.  1.
         11    1    4    4    0    0  0.10101832037E+02 -0.52983325134E+02  0.56220918144E+02  0.77910662876E+02  0.00000000000E+00 0. -1.
</event>
<event>
 8    1  0.4798744E-006  0.1201970E+03  0.7561462E-02  0.1242772E+00
         -1   -1    0    0    0  501 -0.00000000000E+00  0.00000000000E+00  0.39264482125E+02  0.39264482125E+02  0.00000000000E+00 0.  1.
          1   -1    0    0  501    0  0.00000000000E+00 -0.00000000000E+00 -0.58741464407E+03  0.58741464407E+03  0.00000000000E+00 0. -1.
         23    2    1    2    0    0  0.97067321441E+02  0.23586760148E+02 -0.37154305144E+03  0.40456143918E+03  0.12508924353E+03 0.  0.
         23    2    1    2    0    0 -0.97067321441E+02 -0.23586760148E+02 -0.17660711050E+03  0.22211768702E+03  0.90375855520E+02 0.  0.
          5    1    3    3  502    0  0.65298941282E+02 -0.27906091410E+02 -0.81200659299E+02  0.10795240220E+03  0.41800000000E+01 0.  1.
         -5    1    3    3    0  502  0.31768380158E+02  0.51492851557E+02 -0.29034239214E+03  0.29660903698E+03  0.41800000000E+01 0.  1.
        -11    1    4    4    0    0 -0.82704487846E+02 -0.20572576361E+01 -0.58790103540E+02  0.10149158040E+03  0.00000000000E+00 0.  1.
         11    1    4    4    0    0 -0.14362833595E+02 -0.21529502512E+02 -0.11781700696E+03  0.12062610662E+03  0.00000000000E+00 0. -1.
</event>
<event>
 8    1  0.4798744E-006  0.1364418E+03  0.7561462E-02  0.1218199E+00
          1   -1    0    0  501    0  0.00000000000E+00  0.00000000000E+00  0.54730196880E+03  0.54730196880E+03  0.00000000000E+00 0. -1.
         -1   -1    0    0    0  501 -0.00000000000E+00 -0.00000000000E+00 -0.93997166541E+02  0.93997166541E+02  0.00000000000E+00 0.  1.
         23    2    1    2    0    0 -0.11700878770E+03  0.68398236704E+02  0.29447663582E+02  0.18677273859E+03  0.12509003079E+03 0.  0.
         23    2    1    2    0    0  0.11700878770E+03 -0.68398236704E+02  0.42385713867E+03  0.45452639675E+03  0.92574273722E+02 0.  0.
          5    1    3    3  502    0 -0.35412397315E+02  0.14186063622E+02  0.70661513431E+02  0.80410224257E+02  0.41800000000E+01 0. -1.
         -5    1    3    3    0  502 -0.81596390390E+02  0.54212173082E+02 -0.41213849849E+02  0.10636251433E+03  0.41800000000E+01 0. -1.
        -11    1    4    4    0    0  0.75682609284E+02 -0.35313597214E+02  0.36883733821E+03  0.37817441684E+03  0.00000000000E+00 0. -1.
         11    1    4    4    0    0  0.41326178421E+02 -0.33084639489E+02  0.55019800463E+02  0.76351979909E+02  0.00000000000E+00 0.  1.
</event>
<event>
 8    1  0.4798744E-006  0.2072454E+03  0.7561462E-02  0.1143766E+00
         -2   -1    0    0    0  501 -0.00000000000E+00  0.00000000000E+00  0.73277963703E+02  0.73277963703E+02  0.00000000000E+00 0.  1.
          2   -1    0    0  501    0  0.00000000000E+00 -0.00000000000E+00 -0.77725845079E+03  0.77725845079E+03  0.00000000000E+00 0. -1.
         23    2    1    2    0    0  0.18477030826E+03  0.48707040119E+02 -0.19895744080E+03  0.30289163649E+03  0.12508732005E+03 0.  0.
         23    2    1    2    0    0 -0.18477030826E+03 -0.48707040119E+02 -0.50502304629E+03  0.54764477801E+03  0.91400672968E+02 0.  0.
          5    1    3    3  502    0  0.90964694403E+02  0.59615356384E+02 -0.17380695801E+03  0.20507290752E+03  0.41800000000E+01 0.  1.
         -5    1    3    3    0  502  0.93805613852E+02 -0.10908316265E+02 -0.25150482789E+02  0.97818728976E+02  0.41800000000E+01 0.  1.
        -11    1    4    4    0    0 -0.11929350664E+03  0.14429155269E+02 -0.26524449002E+03  0.29119371685E+03  0.00000000000E+00 0.  1.
         11    1    4    4    0    0 -0.65476801615E+02 -0.63136195388E+02 -0.23977855628E+03  0.25645106116E+03  0.00000000000E+00 0. -1.
</event>
<event>
 8    1  0.4798744E-006  0.1820036E+03  0.7561462E-02  0.1165878E+00
         -1   -1    0    0    0  501 -0.00000000000E+00  0.00000000000E+00  0.75094835751E+03  0.75094835751E+03  0.00000000000E+00 0.  1.
          1   -1    0    0  501    0  0.00000000000E+00 -0.00000000000E+00 -0.48739969700E+02  0.48739969700E+02  0.00000000000E+00 0. -1.
         23    2    1    2    0    0 -0.71798976800E+02 -0.13851170292E+03  0.34329822361E+03  0.39729245481E+03  0.12508812653E+03 0.  0.
         23    2    1    2    0    0  0.71798976800E+02  0.13851170292E+03  0.35891016420E+03  0.40239587240E+03  0.93623433196E+02 0.  0.
          5    1    3    3  502    0 -0.18310894764E+02 -0.13693561957E+03  0.29193461275E+03  0.32300146021E+03  0.41800000000E+01 0. -1.
         -5    1    3    3    0  502 -0.53488082036E+02 -0.15760833496E+01  0.51363610861E+02  0.74290994604E+02  0.41800000000E+01 0. -1.
        -11    1    4    4    0    0 -0.15095206831E+02  0.24282845130E+02  0.21640598682E+02  0.35858574263E+02  0.00000000000E+00 0. -1.
         11    1    4    4    0    0  0.86894183630E+02  0.11422885779E+03  0.33726956552E+03  0.36653729814E+03  0.00000000000E+00 0.  1.
</event>
<event>
 8    1  0.4798744E-006  0.9642696E+02  0.7561462E-02  0.1287994E+00
          1   -1    0    0  501    0  0.00000000000E+00  0.00000000000E+00  0.68497507993E+02  0.68497507993E+02  0.00000000000E+00 0. -1.
         -1   -1    0    0    0  501 -0.00000000000E+00 -0.00000000000E+00 -0.21031692503E+03  0.21031692503E+03  0.00000000000E+00 0.  1.
         23    2    1    2    0    0 -0.25970473816E+00 -0.36989215956E+02 -0.87694325921E+02  0.15718016880E+03  0.12508813342E+03 0.  0.
         23    2    1    2    0    0  0.25970473816E+00  0.36989215956E+02 -0.54125091113E+02  0.12163426422E+03  0.10245535223E+03 0.  0.
          5    1    3    3  502    0  0.39451546282E+01 -0.71226739745E+02 -0.10109591357E+02  0.72169861696E+02  0.41800000000E+01 0.  1.
         -5    1    3    3    0  502 -0.42048593664E+01  0.34237523789E+02 -0.77584734563E+02  0.85010307109E+02  0.41800000000E+01 0.  1.
        -11    1    4    4    0    0  0.25828419405E+02  0.51236426512E+02  0.29895354737E+01  0.57456209177E+02  0.00000000000E+00 0. -1.
         11    1    4    4    0    0 -0.25568714667E+02 -0.14247210556E+02 -0.57114626587E+02  0.64178055038E+02  0.00000000000E+00 0.  1.
</event>
<event>
 8    1  0.4798744E-006  0.1018669E+03  0.7561462E-02  0.1276418E+00
          2   -1    0    0  501    0  0.00000000000E+00  0.00000000000E+00  0.91266806964E+03  0.91266806964E+03  0.00000000000E+00 0. -1.
         -2   -1    0    0    0  501 -0.00000000000E+00 -0.00000000000E+00 -0.14327399705E+02  0.14327399705E+02  0.00000000000E+00 0.  1.
         23    2    1    2    0    0 -0.20003938008E+02  0.20050778236E+02  0.44099352052E+03  0.45926679058E+03  0.12509399886E+03 0.  0.
         23    2    1    2    0    0  0.20003938008E+02 -0.20050778236E+02  0.45734714942E+03  0.46772867876E+03  0.93816366445E+02 0.  0.
          5    1    3    3  502    0  0.21875204902E+02 -0.32664520451E+02  0.56846869243E+02  0.69242576704E+02  0.41800000000E+01 0. -1.
         -5    1    3    3    0  502 -0.41879142909E+02  0.52715298687E+02  0.38414665127E+03  0.39002421388E+03  0.41800000000E+01 0. -1.
        -11    1    4    4    0    0  0.27060293509E+02  0.33311313955E+02  0.24061112173E+03  0.24440870489E+03  0.00000000000E+00 0. -1.
         11    1    4    4    0    0 -0.70563555016E+01 -0.53362092191E+02  0.21673602768E+03  0.22331997388E+03  0.00000000000E+00 0.  1.
</event>
<event>
 8    1  0.4798744E-006  0.2801521E+03  0.7561462E-02  0.1095606E+00
          2   -1    0    0  501    0  0.00000000000E+00  0.00000000000E+00  0.56696864307E+03  0.56696864307E+03  0.00000000000E+00 0. -1.
         -2   -1    0    0    0  501 -0.00000000000E+00 -0.00000000000E+00 -0.14416954085E+03  0.14416954085E+03  0.00000000000E+00 0.  1.
         23    2    1    2    0    0  0.26407394511E+03 -0.15244921392E+02  0.21284250938E+03  0.36182430285E+03  0.12508971270E+03 0.  0.
         23    2    1    2    0    0 -0.26407394511E+03  0.15244921392E+02  0.20995659284E+03  0.34931388106E+03  0.89280235848E+02 0.  0.
          5    1    3    3  502    0  0.80756564466E+02 -0.63352839160E+02  0.67005712269E+02  0.12264763679E+03  0.41800000000E+01 0. -1.
         -5    1    3    3    0  502  0.18331738064E+03  0.48107917768E+02  0.14583679711E+03  0.23917666606E+03  0.41800000000E+01 0. -1.
        -11    1    4    4    0    0 -0.26205617925E+02 -0.11543063326E+02 -0.31715098005E+01  0.28810331415E+02  0.00000000000E+00 0.  1.
         11    1    4    4    0    0 -0.23786832718E+03  0.26787984718E+02  0.21312810264E+03  0.32050354965E+03  0.00000000000E+00 0. -1.
</event>
<event>
 8    1  0.4798744E-006  0.1079352E+03  0.7561462E-02  0.1264442E+00
          2   -1    0    0  501    0  0.00000000000E+00  0.00000000000E+00  0.41157622983E+03  0.41157622983E+03  0.00000000000E+00 0. -1.
         -2   -1    0    0    0  501 -0.00000000000E+00 -0.00000000000E+00 -0.46230090908E+02  0.46230090908E+02  0.00000000000E+00 0.  1.
         23    2    1    2    0    0  0.74039662555E+02 -0.10416851293E+02  0.13230940111E+03  0.19683581224E+03  0.12509267339E+03 0.  0.
         23    2    1    2    0    0 -0.74039662555E+02  0.10416851293E+02  0.23303673782E+03  0.26097050850E+03  0.90604098764E+02 0.  0.
          5    1    3    3  502    0 -0.20207555551E+00 -0.28639273230E+02  0.11467552442E+03  0.11827170882E+03  0.41800000000E+01 0. -1.
         -5    1    3    3    0  502  0.74241738110E+02  0.18222421937E+02  0.17633876682E+02  0.78564103417E+02  0.41800000000E+01 0. -1.
        -11    1    4    4    0    0  0.31960302185E+01 -0.25138375156E+02  0.22406770167E+02  0.33826259976E+02  0.00000000000E+00 0.  1.
         11    1    4    4    0    0 -0.77235692773E+02  0.35555226449E+02  0.21062996765E+03  0.22714424852E+03  0.00000000000E+00 0. -1.
</event>
<event>
 8    1  0.4798744E-006  0.9564800E+02  0.7561462E-02  0.1289723E+00
         -4   -1    0    0    0  501 -0.00000000000E+00  0.00000000000E+00  0.18195484185E+02  0.18195484185E+02  0.00000000000E+00 0.  1.
          4   -1    0    0  501    0  0.00000000000E+00 -0.00000000000E+00 -0.65643915124E+03  0.65643915124E+03  0.00000000000E+00 0. -1.
         23    2    1    2    0    0 -0.75592136224E+01 -0.48928429855E+01 -0.37553181757E+03  0.39592060821E+03  0.12509156798E+03 0.  0.
         23    2    1    2    0    0  0.75592136224E+01  0.48928429855E+01 -0.26271184948E+03  0.27871402721E+03  0.92644004016E+02 0.  0.
          5    1    3    3  502    0 -0.62466478088E+02  0.11628493764E+02 -0.14569488990E+03  0.15900237764E+03  0.41800000000E+01 0.  1.
         -5    1    3    3    0  502  0.54907264466E+02 -0.16521336750E+02 -0.22983692767E+03  0.23691823058E+03  0.41800000000E+01 0.  1.
        -11    1    4    4    0    0  0.38754674261E+02  0.22231632800E+01 -0.23067514750E+03  0.23391855614E+03  0.00000000000E+00 0. -1.
         11    1    4    4    0    0 -0.31195460639E+02  0.26696797055E+01 -0.32036701981E+02  0.44795471066E+02  0.00000000000E+00 0.  1.
</event>
<event>
 8    1  0.4798744E-006  0.1245886E+03  0.7561462E-02  0.1235714E+00
         -2   -1    0    0    0  501 -0.00000000000E+00  0.00000000000E+00  0.57271243888E+02  0.57271243888E+02  0.00000000000E+00 0. -1.
          2   -1    0    0  501    0  0.00000000000E+00 -0.00000000000E+00 -0.37685670993E+03  0.37685670993E+03  0.00000000000E+00 0.  1.
         23    2    1    2    0    0 -0.75111536890E+02  0.59577617413E+01 -0.80506799983E+02  0.16675058762E+03  0.12508867147E+03 0.  0.
         23    2    1    2    0    0  0.75111536890E+02 -0.59577617413E+01 -0.23907866606E+03  0.26737736620E+03  0.93031228584E+02 0.  0.
          5    1    3    3  502    0 -0.97310200590E+02 -0.15203800141E+02 -0.22670620353E+02  0.10115265743E+03  0.41800000000E+01 0.  1.
         -5    1    3    3    0  502  0.22198663700E+02  0.21161561882E+02 -0.57836179630E+02  0.65597930192E+02  0.41800000000E+01 0.  1.
        -11    1    4    4    0    0  0.92106163603E+02  0.14292603162E+02 -0.19000485012E+03  0.21163569394E+03  0.00000000000E+00 0.  1.
         11    1    4    4    0    0 -0.16994626712E+02 -0.20250364904E+02 -0.49073815943E+02  0.55741672266E+02  0.00000000000E+00 0. -1.
</event>
<event>
 7    1  0.4798744E-006  0.1080970E+03  0.7561462E-02  0.1264135E+00
          4   -1    0    0  501    0  0.00000000000E+00  0.00000000000E+00  0.38197661270E+03  0.38197661270E+03  0.00000000000E+00 0. -1.
         -4   -1    0    0    0  501 -0.00000000000E+00 -0.00000000000E+00 -0.12507927350E+03  0.12507927350E+03  0.00000000000E+00 0.  1.
         23    2    1    2    0    0  0.39195631547E+02 -0.73939805788E+02  0.30506463718E+03  0.32964419368E+03  0.92722538541E+02 0.  0.
          5    1    1    2  502    0  0.30195318781E+02  0.20700397715E+02  0.39143462718E+02  0.53758225560E+02  0.41800000000E+01 0. -1.
         -5    1    1    2    0  502 -0.69390950327E+02  0.53239408073E+02 -0.87310760698E+02  0.12365346697E+03  0.41800000000E+01 0.  1.
        -11    1    3    3    0    0 -0.43813942020E+01 -0.28470373805E+02  0.14342636737E+02  0.32178720116E+02  0.00000000000E+00 0.  1.
         11    1    3    3    0    0  0.43577025749E+02 -0.45469431983E+02  0.29072200045E+03  0.29746547356E+03  0.00000000000E+00 0. -1.
</event>
<event>
 8    1  0.4798744E-006  0.7818429E+02  0.7561462E-02  0.1334285E+00
         -1   -1    0    0    0  501 -0.00000000000E+00  0.00000000000E+00  0.35509095520E+02  0.35509095520E+02  0.00000000000E+00 0.  1.
          1   -1    0    0  501    0  0.00000000000E+00 -0.00000000000E+00 -0.41026982279E+03  0.41026982279E+03  0.00000000000E+00 0. -1.
         23    2    1    2    0    0 -0.46808519408E+02  0.23625697420E+02 -0.20042960741E+03  0.24201162517E+03  0.12509351751E+03 0.  0.
         23    2    1    2    0    0  0.46808519408E+02 -0.23625697420E+02 -0.17433111986E+03  0.20376729314E+03  0.91545394938E+02 0.  0.
          5    1    3    3  502    0 -0.17550484574E+02  0.12689192966E+02 -0.20835289825E+03  0.20951715380E+03  0.41800000000E+01 0.  1.
         -5    1    3    3    0  502 -0.29258034834E+02  0.10936504454E+02  0.79232908393E+01  0.32494471372E+02  0.41800000000E+01 0.  1.
        -11    1    4    4    0    0 -0.10734463602E+02 -0.41244176850E+02 -0.50445008265E+02  0.66037941305E+02  0.00000000000E+00 0.  1.
         11    1    4    4    0    0  0.57542983009E+02  0.17618479430E+02 -0.12388611160E+03  0.13772935184E+03  0.00000000000E+00 0. -1.
</event>
<event>
 8    1  0.4798744E-006  0.1194074E+03  0.7561462E-02  0.1244078E+00
         -1   -1    0    0    0  501 -0.00000000000E+00  0.00000000000E+00  0.19886262232E+03  0.19886262232E+03  0.00000000000E+00 0.  1.
          1   -1    0    0  501    0  0.00000000000E+00 -0.00000000000E+00 -0.82096860119E+02  0.82096860119E+02  0.00000000000E+00 0. -1.
         23    2    1    2    0    0  0.64265556300E+02  0.13272774994E+02  0.88430512082E+02  0.16665774480E+03  0.12509444493E+03 0.  0.
         23    2    1    2    0    0 -0.64265556300E+02 -0.13272774994E+02  0.28335250124E+02  0.11430173764E+03  0.89195137456E+02 0.  0.
          5    1    3    3  502    0  0.93290889703E+02  0.38541134789E+02  0.74474920069E+02  0.12550934344E+03  0.41800000000E+01 0. -1.
         -5    1    3    3    0  502 -0.29025333403E+02 -0.25268359795E+02  0.13955592013E+02  0.41148401358E+02  0.41800000000E+01 0. -1.
        -11    1    4    4    0    0 -0.22137175826E+02 -0.42421908894E+02 -0.11728044347E+02  0.49266823847E+02  0.00000000000E+00 0. -1.
         11    1    4    4    0    0 -0.42128380474E+02  0.29149133900E+02  0.40063294471E+02  0.65034913795E+02  0.00000000000E+00 0.  1.
</event>
<event>
 8    1  0.4798744E-006  0.9251292E+02  0.7561462E-02  0.1296878E+00
          2   -1    0    0  501    0  0.00000000000E+00  0.00000000000E+00  0.98536321272E+03  0.98536321272E+03  0.00000000000E+00 0. -1.
         -2   -1    0    0    0  501 -0.00000000000E+00 -0.00000000000E+00 -0.12304558243E+02  0.12304558243E+02  0.00000000000E+00 0.  1.
         23    2    1    2    0    0 -0.38304140556E+01 -0.13921259562E+02  0.62512269583E+03  0.63767871804E+03  0.12508912446E+03 0.  0.
         23    2    1    2    0    0  0.38304140556E+01  0.13921259562E+02  0.34793595865E+03  0.35998905293E+03  0.91237127130E+02 0.  0.
          5    1    3    3  502    0  0.17882508264E+02 -0.48496457243E+02  0.11792664363E+03  0.12882490499E+03  0.41800000000E+01 0.  1.
         -5    1    3    3    0  502 -0.21712922320E+02  0.34575197681E+02  0.50719605219E+03  0.50885381305E+03  0.41800000000E+01 0.  1.
        -11    1    4    4    0    0  0.38684014030E+02 -0.19951325482E+02  0.15135588393E+03  0.15749003756E+03  0.00000000000E+00 0.  1.
         11    1    4    4    0    0 -0.34853599975E+02  0.33872585044E+02  0.19658007472E+03  0.20249901537E+03  0.00000000000E+00 0. -1.
</event>
<event>
 8    1  0.4798744E-006  0.7815651E+02  0.7561462E-02  0.1334366E+00
          2   -1    0    0  501    0  0.00000000000E+00  0.00000000000E+00  0.45946459310E+03  0.45946459310E+03  0.00000000000E+00 0.  1.
         -2   -1    0    0    0  501 -0.00000000000E+00 -0.00000000000E+00 -0.39539541935E+02  0.39539541935E+02  0.00000000000E+00 0. -1.
         23    2    1    2    0    0  0.47494982159E+02 -0.30083362724E+02  0.12543586506E+03  0.18585675763E+03  0.12509115104E+03 0.  0.
         23    2    1    2    0    0 -0.47494982159E+02  0.30083362724E+02  0.29448918611E+03  0.31314737741E+03  0.90424649302E+02 0.  0.
          5    1    3    3  502    0  0.23376374487E+02 -0.10537373496E+02 -0.22666473447E+02  0.34478000854E+02  0.41800000000E+01 0. -1.
         -5    1    3    3    0  502  0.24118607672E+02 -0.19545989228E+02  0.14810233851E+03  0.15137875677E+03  0.41800000000E+01 0. -1.
        -11    1    4    4    0    0 -0.49079406352E+02 -0.16968478172E+02  0.21103041531E+03  0.21732591554E+03  0.00000000000E+00 0.  1.
         11    1    4    4    0    0  0.15844241937E+01  0.47051840896E+02  0.83458770792E+02  0.95821461865E+02  0.00000000000E+00 0. -1.
</event>
<event>
 8    1  0.4798744E-006  0.1164120E+03  0.7561462E-02  0.1249136E+00
         -1   -1    0    0    0  501 -0.00000000000E+00  0.00000000000E+00  0.22721754519E+02  0.22721754519E+02  0.00000000000E+00 0.  1.
          1   -1    0    0  501    0  0.00000000000E+00 -0.00000000000E+00 -0.84378138592E+03  0.84378138592E+03  0.00000000000E+00 0. -1.
         23    2    1    2    0    0  0.35350004640E+02 -0.84812879887E+02 -0.46694271286E+03  0.49206074366E+03  0.12508169706E+03 0.  0.
         23    2    1    2    0    0 -0.35350004640E+02  0.84812879887E+02 -0.35411691855E+03  0.37444239678E+03  0.79783889876E+02 0.  0.
          5    1    3    3  502    0  0.32780392688E+02  0.70696669472E+01 -0.28922972375E+02  0.44480839319E+02  0.41800000000E+01 0.  1.
         -5    1    3    3    0  502  0.25696119514E+01 -0.91882546834E+02 -0.43801974048E+03  0.44757990434E+03  0.41800000000E+01 0.  1.
        -11    1    4    4    0    0  0.14716629391E+02  0.25055955984E+02 -0.32875710238E+02  0.43877014878E+02  0.00000000000E+00 0.  1.
         11    1    4    4    0    0 -0.50066634031E+02  0.59756923902E+02 -0.32124120831E+03  0.33056538191E+03  0.00000000000E+00 0. -1.
</event>
<event>
 8    1  0.4798744E-006  0.1283396E+03  0.7561462E-02  0.1229941E+00
         -2   -1    0    0    0  501 -0.00000000000E+00  0.00000000000E+00  0.29305382494E+02  0.29305382494E+02  0.00000000000E+00 0.  1.
          2   -1    0    0  501    0  0.00000000000E+00 -0.00000000000E+00 -0.68863947568E+03  0.68863947568E+03  0.00000000000E+00 0. -1.
         23    2    1    2    0    0  0.86013334135E+02  0.21683898914E+02 -0.29657283409E+03  0.33386855874E+03  0.12507711012E+03 0.  0.
         23    2    1    2    0    0 -0.86013334135E+02 -0.21683898914E+02 -0.36276125909E+03  0.38407629943E+03  0.89723952004E+02 0.  0.
          5    1    3    3  502    0 -0.42902778730E+01  0.40891604688E+02 -0.18217449227E+03  0.18680350064E+03  0.41800000000E+01 0.  1.
         -5    1    3    3    0  502  0.90303612008E+02 -0.19207705774E+02 -0.11439834182E+03  0.14706505810E+03  0.41800000000E+01 0.  1.
        -11    1    4    4    0    0 -0.58390244879E+02  0.29011349762E+02 -0.23498707076E+03  0.24386472180E+03  0.00000000000E+00 0. -1.
         11    1    4    4    0    0 -0.27623089256E+02 -0.50695248676E+02 -0.12777418833E+03  0.14021157763E+03  0.00000000000E+00 0.  1.
</event>
<event>
 8    1  0.4798744E-006  0.7983078E+02  0.7561462E-02  0.1329532E+00
          1   -1    0    0  501    0  0.00000000000E+00  0.00000000000E+00  0.41037616752E+02  0.41037616752E+02  0.00000000000E+00 0. -1.
         -1   -1    0    0    0  501 -0.00000000000E+00 -0.00000000000E+00 -0.28991822216E+03  0.28991822216E+03  0.00000000000E+00 0.  1.
         23    2    1    2    0    0  0.59663070433E+01 -0.15312873717E+01 -0.15676764912E+03  0.20066857747E+03  0.12511530887E+03 0.  0.
         23    2    1    2    0    0 -0.59663070433E+01  0.15312873717E+01 -0.92112956287E+02  0.13028726144E+03  0.91934934144E+02 0.  0.
          5    1    3    3  502    0  0.37253435766E+02 -0.15124402782E+02 -0.25187782007E+00  0.40424026003E+02  0.41800000000E+01 0. -1.
         -5    1    3    3    0  502 -0.31287128722E+02  0.13593115411E+02 -0.15651577130E+03  0.16024455147E+03  0.41800000000E+01 0. -1.
        -11    1    4    4    0    0  0.17260462350E+02 -0.36461495450E+02 -0.18791075366E+02  0.44502457509E+02  0.00000000000E+00 0.  1.
         11    1    4    4    0    0 -0.23226769393E+02  0.37992782822E+02 -0.73321880922E+02  0.85784803928E+02  0.00000000000E+00 0. -1.
</event>
<event>
 8    1  0.4798744E-006  0.1089460E+03  0.7561462E-02  0.1262534E+00
          1   -1    0    0  501    0  0.00000000000E+00  0.00000000000E+00  0.29717671432E+03  0.29717671432E+03  0.00000000000E+00 0.  1.
         -1   -1    0    0    0  501 -0.00000000000E+00 -0.00000000000E+00 -0.79655681876E+02  0.79655681876E+02  0.00000000000E+00 0. -1.
         23    2    1    2    0    0  0.74368851033E+02  0.53461142639E+02  0.40593576813E+02  0.16025619823E+03  0.12508153667E+03 0.  0.
         23    2    1    2    0    0 -0.74368851033E+02 -0.53461142639E+02  0.17692745563E+03  0.21657619797E+03  0.84930001731E+02 0.  0.
          5    1    3    3  502    0  0.19290258409E+02 -0.16776912163E+02 -0.34772290608E+02  0.43360851529E+02  0.41800000000E+01 0. -1.
         -5    1    3    3    0  502  0.55078592624E+02  0.70238054802E+02  0.75365867420E+02  0.11689534670E+03  0.41800000000E+01 0. -1.
        -11    1    4    4    0    0 -0.74304424094E+02 -0.31558391114E+02  0.17714461671E+03  0.19467227517E+03  0.00000000000E+00 0.  1.
         11    1    4    4    0    0 -0.64426939761E-01 -0.21902751525E+02 -0.21716107740E+00  0.21903922802E+02  0.00000000000E+00 0. -1.
</event>
<event>
 8    1  0.4798744E-006  0.1356313E+03  0.7561462E-02  0.1219331E+00
         -2   -1    0    0    0  501 -0.00000000000E+00  0.00000000000E+00  0.25788223211E+03  0.25788223211E+03  0.00000000000E+00 0.  1.
          2   -1    0    0  501    0  0.00000000000E+00 -0.00000000000E+00 -0.75702688993E+02  0.75702688993E+02  0.00000000000E+00 0. -1.
         23    2    1    2    0    0  0.63721638987E+02  0.59079446465E+02  0.11885218663E+03  0.19319197069E+03  0.12508583854E+03 0.  0.
         23    2    1    2    0    0 -0.63721638987E+02 -0.59079446465E+02  0.63327356486E+02  0.14039295041E+03  0.90271801669E+02 0.  0.
          5    1    3    3  502    0 -0.29360322237E+02  0.50693292348E+02  0.44195120883E+02  0.73501833452E+02  0.41800000000E+01 0.  1.
         -5    1    3    3    0  502  0.93081961224E+02  0.83861541170E+01  0.74657065752E+02  0.11969013724E+03  0.41800000000E+01 0.  1.
        -11    1    4    4    0    0 -0.41763222641E+02  0.12911873241E+02  0.45394964836E+02  0.63020521010E+02  0.00000000000E+00 0.  1.
         11    1    4    4    0    0 -0.21958416346E+02 -0.71991319707E+02  0.17932391650E+02  0.77372429404E+02  0.00000000000E+00 0. -1.
</event>
<event>
 8    1  0.4798744E-006  0.1379574E+03  0.7561462E-02  0.1216104E+00
          2   -1    0    0  501    0  0.00000000000E+00  0.00000000000E+00  0.32055508355E+03  0.32055508355E+03  0.00000000000E+00 0.  1.
         -2   -1    0    0    0  501 -0.00000000000E+00 -0.00000000000E+00 -0.69043739204E+02  0.69043739204E+02  0.00000000000E+00 0. -1.
         23    2    1    2    0    0  0.90106992946E+02 -0.20855037974E+02  0.82278719872E+02  0.17599040941E+03  0.12509449898E+03 0.  0.
         23    2    1    2    0    0 -0.90106992946E+02  0.20855037974E+02  0.16923262448E+03  0.21360841335E+03  0.91840461006E+02 0.  0.
          5    1    3    3  502    0  0.11517089400E+03  0.93083064099E+00  0.83782667800E+02  0.14248582067E+03  0.41800000000E+01 0. -1.
         -5    1    3    3    0  502 -0.25063901050E+02 -0.21785868615E+02 -0.15039479282E+01  0.33504588739E+02  0.41800000000E+01 0. -1.
        -11    1    4    4    0    0 -0.95937010413E+02 -0.93865721459E+01  0.14633338066E+03  0.17522978057E+03  0.00000000000E+00 0. -1.
         11    1    4    4    0    0  0.58300174670E+01  0.30241610120E+02  0.22899243822E+02  0.38378632778E+02  0.00000000000E+00 0.  1.
</event>
<event>
 8    1  0.4798744E-006  0.4126523E+03  0.7561462E-02  0.1039485E+00
         -1   -1    0    0    0  501 -0.00000000000E+00  0.00000000000E+00  0.30639169911E+03  0.30639169911E+03  0.00000000000E+00 0.  1.
          1   -1    0    0  501    0  0.00000000000E+00 -0.00000000000E+00 -0.66406879109E+03  0.66406879109E+03  0.00000000000E+00 0. -1.
         23    2    1    2    0    0  0.43893192711E+02 -0.40567810904E+03 -0.35073950850E+03  0.55241937969E+03  0.12509047811E+03 0.  0.
         23    2    1    2    0    0 -0.43893192711E+02  0.40567810904E+03 -0.69375834833E+01  0.41804111051E+03  0.90602977247E+02 0.  0.
          5    1    3    3  502    0  0.46096215690E+02 -0.38429980700E+03 -0.36003464594E+03  0.52863373089E+03  0.41800000000E+01 0. -1.
         -5    1    3    3    0  502 -0.22030229795E+01 -0.21378302045E+02  0.92951374448E+01  0.23785648797E+02  0.41800000000E+01 0. -1.
        -11    1    4    4    0    0 -0.63944049629E+02  0.20714021283E+03 -0.22151278997E+02  0.21791417672E+03  0.00000000000E+00 0.  1.
         11    1    4    4    0    0  0.20050856918E+02  0.19853789621E+03  0.15213695514E+02  0.20012693378E+03  0.00000000000E+00 0. -1.
</event>
<event>
 8    1  0.4798744E-006  0.8780065E+02  0.7561462E-02  0.1308267E+00
          1   -1    0    0  501    0  0.00000000000E+00  0.00000000000E+00  0.12365295105E+03  0.12365295105E+03  0.00000000000E+00 0. -1.
         -1   -1    0    0    0  501 -0.00000000000E+00 -0.00000000000E+00 -0.10319041844E+03  0.10319041844E+03  0.00000000000E+00 0.  1.
         23    2    1    2    0    0 -0.30263656212E+02 -0.50894059890E+01 -0.13585503264E+02  0.12951459236E+03  0.12509065830E+03 0.  0.
         23    2    1    2    0    0  0.30263656212E+02  0.50894059890E+01  0.34048035876E+02  0.97328777133E+02  0.85859368566E+02 0.  0.
          5    1    3    3  502    0 -0.21072055380E+02 -0.46125642830E+02  0.37504553464E+02  0.63211315245E+02  0.41800000000E+01 0. -1.
         -5    1    3    3    0  502 -0.91916008323E+01  0.41036236841E+02 -0.51090056728E+02  0.66303277116E+02  0.41800000000E+01 0. -1.
        -11    1    4    4    0    0 -0.29874285428E+01 -0.32290910082E+02  0.34430831318E+02  0.47298094554E+02  0.00000000000E+00 0. -1.
         11    1    4    4    0    0  0.33251084755E+02  0.37380316071E+02 -0.38279544249E+00  0.50030682579E+02  0.00000000000E+00 0.  1.
</event>
<event>
 8    1  0.4798744E-006  0.1304833E+03  0.7561462E-02  0.1226740E+00
         -2   -1    0    0    0  501 -0.00000000000E+00  0.00000000000E+00  0.17299726806E+02  0.17299726806E+02  0.00000000000E+00 0. -1.
          2   -1    0    0  501    0  0.00000000000E+00 -0.00000000000E+00 -0.14738491705E+04  0.14738491705E+04  0.00000000000E+00 0.  1.
         23    2    1    2    0    0 -0.77240944323E+02 -0.86789542263E+02 -0.85080002128E+03  0.86775956226E+03  0.12508954217E+03 0.  0.
         23    2    1    2    0    0  0.77240944323E+02  0.86789542263E+02 -0.60574942239E+03  0.62338933502E+03  0.90461661295E+02 0.  0.
          5    1    3    3  502    0 -0.59549169383E+01 -0.28138110486E+02 -0.29982790304E+02  0.41757088164E+02  0.41800000000E+01 0. -1.
         -5    1    3    3    0  502 -0.71286027385E+02 -0.58651431776E+02 -0.82081723098E+03  0.82600247410E+03  0.41800000000E+01 0. -1.
        -11    1    4    4    0    0  0.38986693419E+01  0.61933069083E+02 -0.17364073415E+03  0.18439633735E+03  0.00000000000E+00 0.  1.
         11    1    4    4    0    0  0.73342274981E+02  0.24856473180E+02 -0.43210868824E+03  0.43899299768E+03  0.00000000000E+00 0. -1.
</event>
<event>
 8    1  0.4798744E-006  0.5765392E+02  0.7561462E-02  0.1407949E+00
         -4   -1    0    0    0  501 -0.00000000000E+00  0.00000000000E+00  0.22899862437E+03  0.22899862437E+03  0.00000000000E+00 0.  1.
          4   -1    0    0  501    0  0.00000000000E+00 -0.00000000000E+00 -0.58128915201E+02  0.58128915201E+02  0.00000000000E+00 0. -1.
         23    2    1    2    0    0  0.31601699168E+01  0.34774882531E+02  0.12773396332E+03  0.18216045393E+03  0.12508871437E+03 0.  0.
         23    2    1    2    0    0 -0.31601699168E+01 -0.34774882531E+02  0.43135745857E+02  0.10496708565E+03  0.89096113100E+02 0.  0.
          5    1    3    3  502    0  0.44201438327E+01  0.29133969740E+02  0.15302003537E+03  0.15588755399E+03  0.41800000000E+01 0. -1.
         -5    1    3    3    0  502 -0.12599739159E+01  0.56409127910E+01 -0.25286072053E+02  0.26272899940E+02  0.41800000000E+01 0. -1.
        -11    1    4    4    0    0 -0.36607554572E+02 -0.15037582345E+02  0.51787754837E+02  0.65178320671E+02  0.00000000000E+00 0.  1.
         11    1    4    4    0    0  0.33447384655E+02 -0.19737300187E+02 -0.86520089797E+01  0.39788764976E+02  0.00000000000E+00 0. -1.
</event>
<event>
 8    1  0.4798744E-006  0.1436151E+03  0.7561462E-02  0.1208546E+00
         -1   -1    0    0    0  501 -0.00000000000E+00  0.00000000000E+00  0.40403557113E+03  0.40403557113E+03  0.00000000000E+00 0.  1.
          1   -1    0    0  501    0  0.00000000000E+00 -0.00000000000E+00 -0.63541644768E+02  0.63541644768E+02  0.00000000000E+00 0. -1.
         23    2    1    2    0    0  0.83491473826E+02  0.82205885039E+02  0.17900057085E+03  0.24779959790E+03  0.12503920433E+03 0.  0.
         23    2    1    2    0    0 -0.83491473826E+02 -0.82205885039E+02  0.16149335552E+03  0.21977761800E+03  0.92159990024E+02 0.  0.
          5    1    3    3  502    0  0.96694174117E+01  0.71370957861E+02  0.15215821368E+03  0.16839508796E+03  0.41800000000E+01 0.  1.
         -5    1    3    3    0  502  0.73822056414E+02  0.10834927178E+02  0.26842357165E+02  0.79404509937E+02  0.41800000000E+01 0.  1.
        -11    1    4    4    0    0 -0.98596949670E+02 -0.72806470744E+02  0.16051659389E+03  0.20195969296E+03  0.00000000000E+00 0.  1.
         11    1    4    4    0    0  0.15105475844E+02 -0.93994142949E+01  0.97676163071E+00  0.17817925044E+02  0.00000000000E+00 0. -1.
</event>
<event>
 8    1  0.4798744E-006  0.1322324E+03  0.7561462E-02  0.1224180E+00
         -2   -1    0    0    0  501 -0.00000000000E+00  0.00000000000E+00  0.41886729993E+02  0.41886729993E+02  0.00000000000E+00 0.  1.
          2   -1    0    0  501    0  0.00000000000E+00 -0.00000000000E+00 -0.66143501569E+03  0.66143501569E+03  0.00000000000E+00 0. -1.
         23    2    1    2    0    0 -0.11966199049E+03  0.31284314251E+02 -0.27738880748E+03  0.32846683586E+03  0.12509281140E+03 0.  0.
         23    2    1    2    0    0  0.11966199049E+03 -0.31284314251E+02 -0.34215947822E+03  0.37485490982E+03  0.90251839838E+02 0.  0.
          5    1    3    3  502    0 -0.87198521820E+02 -0.71103090900E+01 -0.26117835937E+03  0.27547367662E+03  0.41800000000E+01 0. -1.
         -5    1    3    3    0  502 -0.32463468668E+02  0.38394623341E+02 -0.16210448104E+02  0.52993159249E+02  0.41800000000E+01 0. -1.
        -11    1    4    4    0    0  0.73159940179E+02 -0.32153565046E+02 -0.98715220922E+02  0.12700757235E+03  0.00000000000E+00 0.  1.
         11    1    4    4    0    0  0.46502050309E+02  0.86925079492E+00 -0.24344425730E+03  0.24784733747E+03  0.00000000000E+00 0. -1.
</event>
<event>
 8    1  0.4798744E-006  0.1171794E+03  0.7561462E-02  0.1247824E+00
          4   -1    0    0  501    0  0.00000000000E+00  0.00000000000E+00  0.42533023341E+03  0.42533023341E+03  0.00000000000E+00 0.  1.
         -4   -1    0    0    0  501 -0.00000000000E+00 -0.00000000000E+00 -0.53522021071E+02  0.53522021071E+02  0.00000000000E+00 0. -1.
         23    2    1    2    0    0  0.16490107732E+01  0.66381639860E+02  0.73262561122E+02  0.15944078645E+03  0.12507885582E+03 0.  0.
         23    2    1    2    0    0 -0.16490107732E+01 -0.66381639860E+02  0.29854565122E+03  0.31941146804E+03  0.92113727016E+02 0.  0.
          5    1    3    3  502    0  0.26250590485E+02  0.89873285555E+02  0.81490135011E+02  0.12419507020E+03  0.41800000000E+01 0.  1.
         -5    1    3    3    0  502 -0.24601579712E+02 -0.23491645695E+02 -0.82275738887E+01  0.35245716249E+02  0.41800000000E+01 0.  1.
        -11    1    4    4    0    0  0.33404395544E+02 -0.62796968897E+02  0.24651955205E+03  0.25657591954E+03  0.00000000000E+00 0.  1.
         11    1    4    4    0    0 -0.35053406317E+02 -0.35846709628E+01  0.52026099173E+02  0.62835548501E+02  0.00000000000E+00 0. -1.
</event>
<event>
 8    1  0.4798744E-006  0.1880653E+03  0.7561462E-02  0.1160218E+00
         -3   -1    0    0    0  501 -0.00000000000E+00  0.00000000000E+00  0.22269824396E+03  0.22269824396E+03  0.00000000000E+00 0.  1.
          3   -1    0    0  501    0  0.00000000000E+00 -0.00000000000E+00 -0.20562823920E+03  0.20562823920E+03  0.00000000000E+00 0. -1.
         23    2    1    2    0    0 -0.18344051845E+02  0.17729330698E+03  0.54516125270E+02  0.22447699603E+03  0.12509393629E+03 0.  0.
         23    2    1    2    0    0  0.18344051845E+02 -0.17729330698E+03 -0.37446120508E+02  0.20384948713E+03  0.91558617980E+02 0.  0.
          5    1    3    3  502    0  0.64720000839E+01  0.90461265727E+02 -0.34953165355E+02  0.97284754974E+02  0.41800000000E+01 0.  1.
         -5    1    3    3    0  502 -0.24816051929E+02  0.86832041250E+02  0.89469290625E+02  0.12719224106E+03  0.41800000000E+01 0.  1.
        -11    1    4    4    0    0  0.49605625147E+02 -0.10249027565E+03 -0.44982836830E+02  0.12242724475E+03  0.00000000000E+00 0.  1.
         11    1    4    4    0    0 -0.31261573302E+02 -0.74803031328E+02  0.75367163216E+01  0.81422242379E+02  0.00000000000E+00 0. -1.
</event>
<event>
 8    1  0.4798744E-006  0.1066159E+03  0.7561462E-02  0.1266968E+00
         -4   -1    0    0    0  501 -0.00000000000E+00  0.00000000000E+00  0.14604963719E+03  0.14604963719E+03  0.00000000000E+00 0.  1.
          4   -1    0    0  501    0  0.00000000000E+00 -0.00000000000E+00 -0.15044247608E+03  0.15044247608E+03  0.00000000000E+00 0. -1.
         23    2    1    2    0    0  0.39717758636E+02 -0.28915728501E+02  0.81140926527E+02  0.15904736955E+03  0.12766595512E+03 0.  0.
         23    2    1    2    0    0 -0.39717758636E+02  0.28915728501E+02 -0.85533765419E+02  0.13744474372E+03  0.95715269650E+02 0.  0.
          5    1    3    3  502    0  0.57205100886E+02  0.18284852691E+02 -0.36938750702E+01  0.60314811766E+02  0.41800000000E+01 0. -1.
         -5    1    3    3    0  502 -0.17487342250E+02 -0.47200581193E+02  0.84834801597E+02  0.98732557781E+02  0.41800000000E+01 0.  1.
        -11    1    4    4    0    0 -0.22437454739E+02  0.61594893923E+02 -0.33504465950E+02  0.73620103037E+02  0.00000000000E+00 0.  1.
         11    1    4    4    0    0 -0.17280303898E+02 -0.32679165421E+02 -0.52029299468E+02  0.63824640685E+02  0.00000000000E+00 0. -1.
</event>
<event>
 8    1  0.4798744E-006  0.1060676E+03  0.7561462E-02  0.1268030E+00
          2   -1    0    0  501    0  0.00000000000E+00  0.00000000000E+00  0.23751484897E+03  0.23751484897E+03  0.00000000000E+00 0. -1.
         -2   -1    0    0    0  501 -0.00000000000E+00 -0.00000000000E+00 -0.55586896177E+02  0.55586896177E+02  0.00000000000E+00 0.  1.
         23    2    1    2    0    0 -0.54091849564E+02 -0.77194426556E+01  0.81739102201E+02  0.15910545965E+03  0.12509096081E+03 0.  0.
         23    2    1    2    0    0  0.54091849564E+02  0.77194426556E+01  0.10018885059E+03  0.13399628550E+03  0.70225926550E+02 0.  0.
          5    1    3    3  502    0  0.40697451262E+02  0.13714733025E+01  0.20175167952E+02  0.45636315366E+02  0.41800000000E+01 0. -1.
         -5    1    3    3    0  502 -0.94789300826E+02 -0.90909159581E+01  0.61563934249E+02  0.11346914428E+03  0.41800000000E+01 0. -1.
        -11    1    4    4    0    0  0.33222354708E+02  0.30422289303E+02  0.22381589209E+02  0.50300855602E+02  0.00000000000E+00 0.  1.
         11    1    4    4    0    0  0.20869494856E+02 -0.22702846647E+02  0.77807261381E+02  0.83695429894E+02  0.00000000000E+00 0. -1.
</event>
<event>
 8    1  0.4798744E-006  0.6220765E+02  0.7561462E-02  0.1388794E+00
         -1   -1    0    0    0  501 -0.00000000000E+00  0.00000000000E+00  0.16729892468E+03  0.16729892468E+03  0.00000000000E+00 0.  1.
          1   -1    0    0  501    0  0.00000000000E+00 -0.00000000000E+00 -0.83343340480E+02  0.83343340480E+02  0.00000000000E+00 0. -1.
         23    2    1    2    0    0 -0.39657648922E+02 -0.18648090271E+02  0.64072370582E+02  0.14720631510E+03  0.12507577761E+03 0.  0.
         23    2    1    2    0    0  0.39657648922E+02  0.18648090271E+02  0.19883213623E+02  0.10343595006E+03  0.91559670119E+02 0.  0.
          5    1    3    3  502    0 -0.25037809058E+02  0.11292009666E+01  0.10016137417E+03  0.10333411950E+03  0.41800000000E+01 0.  1.
         -5    1    3    3    0  502 -0.14619839865E+02 -0.19777291237E+02 -0.36089003593E+02  0.43872195599E+02  0.41800000000E+01 0.  1.
        -11    1    4    4    0    0 -0.58109455720E+00  0.31738928033E+02  0.44362894839E+02  0.54550560602E+02  0.00000000000E+00 0.  1.
         11    1    4    4    0    0  0.40238743480E+02 -0.13090837762E+02 -0.24479681216E+02  0.48885389459E+02  0.00000000000E+00 0. -1.
</event>
<event>
 7    1  0.4798744E-006  0.8846899E+02  0.7561462E-02  0.1306602E+00
          1   -1    0    0  501    0  0.00000000000E+00  0.00000000000E+00  0.36651190350E+03  0.36651190350E+03  0.00000000000E+00 0. -1.
         -1   -1    0    0    0  501 -0.00000000000E+00 -0.00000000000E+00 -0.47898221206E+02  0.47898221206E+02  0.00000000000E+00 0.  1.
         23    2    1    2    0    0  0.44829921376E+01 -0.49402529613E+02  0.12308246435E+03  0.16200457425E+03  0.92927293608E+02 0.  0.
          5    1    1    2  502    0 -0.42507781664E+02 -0.26532713349E+01  0.18126595027E+03  0.18624921068E+03  0.41800000000E+01 0. -1.
         -5    1    1    2    0  502  0.38024789526E+02  0.52055800948E+02  0.14265267674E+02  0.66156339777E+02  0.41800000000E+01 0.  1.
        -11    1    3    3    0    0  0.22158357004E+02 -0.46662448576E+02  0.16936213444E+02  0.54361863637E+02  0.00000000000E+00 0.  1.
         11    1    3    3    0    0 -0.17675364866E+02 -0.27400810373E+01  0.10614625091E+03  0.10764271061E+03  0.00000000000E+00 0. -1.
</event>
<event>
 8    1  0.4798744E-006  0.1196365E+03  0.7561462E-02  0.1243698E+00
          2   -1    0    0  501    0  0.00000000000E+00  0.00000000000E+00  0.30734336349E+02  0.30734336349E+02  0.00000000000E+00 0. -1.
         -2   -1    0    0    0  501 -0.00000000000E+00 -0.00000000000E+00 -0.83934759642E+03  0.83934759642E+03  0.00000000000E+00 0.  1.
         23    2    1    2    0    0  0.10467886566E+03  0.44798317333E+02 -0.51921365276E+03  0.54607065403E+03  0.12508312365E+03 0.  0.
         23    2    1    2    0    0 -0.10467886566E+03 -0.44798317333E+02 -0.28939960731E+03  0.32401127874E+03  0.90920965064E+02 0.  0.
          5    1    3    3  502    0  0.96191851937E+02  0.53899557525E+02 -0.52123663422E+03  0.53278807788E+03  0.41800000000E+01 0.  1.
         -5    1    3    3    0  502  0.84870137263E+01 -0.91012401924E+01  0.20229814595E+01  0.13282576144E+02  0.41800000000E+01 0.  1.
        -11    1    4    4    0    0 -0.49007875188E+02 -0.32454158383E+02 -0.24440565522E+03  0.25137455824E+03  0.00000000000E+00 0.  1.
         11    1    4    4    0    0 -0.55670990475E+02 -0.12344158950E+02 -0.44993952092E+02  0.72636720504E+02  0.00000000000E+00 0. -1.
</event>
<event>
 8    1  0.4798744E-006  0.1188200E+03  0.7561462E-02  0.1245056E+00
          2   -1    0    0  501    0  0.00000000000E+00  0.00000000000E+00  0.64543459547E+03  0.64543459547E+03  0.00000000000E+00 0. -1.
         -2   -1    0    0    0  501 -0.00000000000E+00 -0.00000000000E+00 -0.27098396981E+02  0.27098396981E+02  0.00000000000E+00 0.  1.
         23    2    1    2    0    0 -0.63755277838E+02  0.35297824578E+02  0.38558860587E+03  0.41187295676E+03  0.12510031039E+03 0.  0.
         23    2    1    2    0    0  0.63755277838E+02 -0.35297824578E+02  0.23274759262E+03  0.26066003569E+03  0.91986631993E+02 0.  0.
          5    1    3    3  502    0 -0.44432684280E+02 -0.44062573323E+02  0.18006942158E+03  0.19067837526E+03  0.41800000000E+01 0.  1.
         -5    1    3    3    0  502 -0.19322593557E+02  0.79360397901E+02  0.20551918429E+03  0.22119458151E+03  0.41800000000E+01 0.  1.
        -11    1    4    4    0    0 -0.83653952237E+01  0.57536081645E+01 -0.31185286264E+01  0.10621161187E+02  0.00000000000E+00 0.  1.
         11    1    4    4    0    0  0.72120673061E+02 -0.41051432743E+02  0.23586612125E+03  0.25003887451E+03  0.00000000000E+00 0. -1.
</event>
<event>
 8    1  0.4798744E-006  0.9820269E+02  0.7561462E-02  0.1284121E+00
         -2   -1    0    0    0  501 -0.00000000000E+00  0.00000000000E+00  0.18482617218E+03  0.18482617218E+03  0.00000000000E+00 0.  1.
          2   -1    0    0  501    0  0.00000000000E+00 -0.00000000000E+00 -0.84418365892E+02  0.84418365892E+02  0.00000000000E+00 0. -1.
         23    2    1    2    0    0  0.35512549652E+02  0.31792658886E+02  0.96788152609E+02  0.16518796318E+03  0.12508877788E+03 0.  0.
         23    2    1    2    0    0 -0.35512549652E+02 -0.31792658886E+02  0.36196536796E+01  0.10405657489E+03  0.92427022803E+02 0.  0.
          5    1    3    3  502    0  0.58639006762E+02  0.43056935495E+02  0.11302769072E+03  0.13448109189E+03  0.41800000000E+01 0.  1.
         -5    1    3    3    0  502 -0.23126457111E+02 -0.11264276608E+02 -0.16239538109E+02  0.30706871283E+02  0.41800000000E+01 0.  1.
        -11    1    4    4    0    0  0.84701588193E+01 -0.49383799281E+02  0.19978797697E+02  0.53941223376E+02  0.00000000000E+00 0. -1.
         11    1    4    4    0    0 -0.43982708471E+02  0.17591140395E+02 -0.16359144018E+02  0.50115351518E+02  0.00000000000E+00 0.  1.
</event>
<event>
 8    1  0.4798744E-006  0.8072646E+02  0.7561462E-02  0.1327002E+00
         -3   -1    0    0    0  501 -0.00000000000E+00  0.00000000000E+00  0.10581557016E+03  0.10581557016E+03  0.00000000000E+00 0.  1.
          3   -1    0    0  501    0  0.00000000000E+00 -0.00000000000E+00 -0.12858689560E+03  0.12858689560E+03  0.00000000000E+00 0. -1.
         23    2    1    2    0    0 -0.34079523833E+02 -0.94101729301E+01  0.11605071530E+02  0.13050648672E+03  0.12508916856E+03 0.  0.
         23    2    1    2    0    0  0.34079523833E+02  0.94101729301E+01 -0.34376396974E+02  0.10389597904E+03  0.91447648916E+02 0.  0.
          5    1    3    3  502    0 -0.39182685501E+02  0.32190856647E+02 -0.39402986916E+02  0.64355278514E+02  0.41800000000E+01 0. -1.
         -5    1    3    3    0  502  0.51031616681E+01 -0.41601029577E+02  0.51008058446E+02  0.66151208207E+02  0.41800000000E+01 0. -1.
        -11    1    4    4    0    0  0.14256692825E+02 -0.24976343967E+02  0.21109944159E+02  0.35674932244E+02  0.00000000000E+00 0.  1.
         11    1    4    4    0    0  0.19822831008E+02  0.34386516897E+02 -0.55486341132E+02  0.68221046794E+02  0.00000000000E+00 0. -1.
</event>
<event>
 8    1  0.4798744E-006  0.9431185E+02  0.7561462E-02  0.1292734E+00
         -2   -1    0    0    0  501 -0.00000000000E+00  0.00000000000E+00  0.34406964775E+03  0.34406964775E+03  0.00000000000E+00 0.  1.
          2   -1    0    0  501    0  0.00000000000E+00 -0.00000000000E+00 -0.36671667852E+02  0.36671667852E+02  0.00000000000E+00 0. -1.
         23    2    1    2    0    0  0.12479997814E+02 -0.94243629027E+01  0.21975014982E+03  0.25250844573E+03  0.12339294088E+03 0.  0.
         23    2    1    2    0    0 -0.12479997814E+02  0.94243629027E+01  0.87647830081E+02  0.12823286987E+03  0.92287365531E+02 0.  0.
          5    1    3    3  502    0 -0.53912886998E+02  0.99289340653E+01  0.91766222387E+02  0.10697520782E+03  0.41800000000E+01 0.  1.
         -5    1    3    3    0  502  0.66392884812E+02 -0.19353296968E+02  0.12798392743E+03  0.14553323792E+03  0.41800000000E+01 0.  1.
        -11    1    4    4    0    0  0.87683917338E+01  0.32106675950E+02  0.91073455866E+02  0.96964414594E+02  0.00000000000E+00 0.  1.
         11    1    4    4    0    0 -0.21248389548E+02 -0.22682313047E+02 -0.34256257853E+01  0.31268455280E+02  0.00000000000E+00 0. -1.
</event>
<event>
 8    1  0.4798744E-006  0.1836721E+03  0.7561462E-02  0.1164296E+00
          1   -1    0    0  501    0  0.00000000000E+00  0.00000000000E+00  0.11830083752E+03  0.11830083752E+03  0.00000000000E+00 0. -1.
         -1   -1    0    0    0  501 -0.00000000000E+00 -0.00000000000E+00 -0.34732056411E+03  0.34732056411E+03  0.00000000000E+00 0.  1.
         23    2    1    2    0    0  0.26696044474E+02 -0.16388901628E+03 -0.15746961944E+03  0.26079888183E+03  0.12508831788E+03 0.  0.
         23    2    1    2    0    0 -0.26696044474E+02  0.16388901628E+03 -0.71550107146E+02  0.20482251980E+03  0.96231794848E+02 0.  0.
          5    1    3    3  502    0  0.55005937088E+02 -0.16094279332E+03 -0.15777150544E+03  0.23202921404E+03  0.41800000000E+01 0.  1.
         -5    1    3    3    0  502 -0.28309892614E+02 -0.29462229535E+01  0.30188600430E+00  0.28769667789E+02  0.41800000000E+01 0.  1.
        -11    1    4    4    0    0 -0.20889953866E+02  0.47291917542E+02 -0.71311254866E+02  0.88080705651E+02  0.00000000000E+00 0.  1.
         11    1    4    4    0    0 -0.58060906079E+01  0.11659709873E+03 -0.23885228012E+00  0.11674181415E+03  0.00000000000E+00 0. -1.
</event>
<event>
 8    1  0.4798744E-006  0.1084764E+03  0.7561462E-02  0.1263418E+00
         -2   -1    0    0    0  501 -0.00000000000E+00  0.00000000000E+00  0.26235667182E+02  0.26235667182E+02  0.00000000000E+00 0.  1.
          2   -1    0    0  501    0  0.00000000000E+00 -0.00000000000E+00 -0.63115550694E+03  0.63115550694E+03  0.00000000000E+00 0. -1.
         23    2    1    2    0    0  0.67745835582E+01  0.18985166970E+02 -0.16676130993E+03  0.20943901940E+03  0.12509611029E+03 0.  0.
         23    2    1    2    0    0 -0.67745835582E+01 -0.18985166970E+02 -0.43815852983E+03  0.44795215472E+03  0.90950008855E+02 0.  0.
          5    1    3    3  502    0 -0.58738949899E+02  0.33521497038E+01 -0.84285471972E+02  0.10287377862E+03  0.41800000000E+01 0. -1.
         -5    1    3    3    0  502  0.65513533458E+02  0.15633017266E+02 -0.82475837955E+02  0.10656524077E+03  0.41800000000E+01 0. -1.
        -11    1    4    4    0    0  0.36500880939E+02 -0.28341609942E+02 -0.27672645360E+03  0.28055853451E+03  0.00000000000E+00 0.  1.
         11    1    4    4    0    0 -0.43275464497E+02  0.93564429723E+01 -0.16143207622E+03  0.16739362021E+03  0.00000000000E+00 0. -1.
</event>
<event>
 8    1  0.4798744E-006  0.1494601E+03  0.7561462E-02  0.1201138E+00
         -1   -1    0    0    0  501 -0.00000000000E+00  0.00000000000E+00  0.56548093846E+02  0.56548093846E+02  0.00000000000E+00 0. -1.
          1   -1    0    0  501    0  0.00000000000E+00 -0.00000000000E+00 -0.52931560868E+03  0.52931560868E+03  0.00000000000E+00 0.  1.
         23    2    1    2    0    0 -0.31122265595E+02  0.12245937614E+03 -0.17022103081E+03  0.24614282487E+03  0.12508475800E+03 0.  0.
         23    2    1    2    0    0  0.31122265595E+02 -0.12245937614E+03 -0.30254648402E+03  0.33972087766E+03  0.88943833424E+02 0.  0.
          5    1    3    3  502    0  0.16464080388E+02 -0.26923961478E+01  0.11274534207E+02  0.20564592425E+02  0.41800000000E+01 0. -1.
         -5    1    3    3    0  502 -0.47586345983E+02  0.12515177229E+03 -0.18149556502E+03  0.22557823244E+03  0.41800000000E+01 0. -1.
        -11    1    4    4    0    0  0.55246465616E+02 -0.10254921667E+03 -0.27248165886E+03  0.29633556691E+03  0.00000000000E+00 0. -1.
         11    1    4    4    0    0 -0.24124200021E+02 -0.19910159464E+02 -0.30064825166E+02  0.43385310749E+02  0.00000000000E+00 0.  1.
</event>
<event>
 8    1  0.4798744E-006  0.8851265E+02  0.7561462E-02  0.1306494E+00
          2   -1    0    0  501    0  0.00000000000E+00  0.00000000000E+00  0.31533365680E+03  0.31533365680E+03  0.00000000000E+00 0. -1.
         -2   -1    0    0    0  501 -0.00000000000E+00 -0.00000000000E+00 -0.73895943424E+02  0.73895943424E+02  0.00000000000E+00 0.  1.
         23    2    1    2    0    0 -0.12409982420E+02 -0.59777217960E+02  0.17691395998E+02  0.14031473847E+03  0.12509163397E+03 0.  0.
         23    2    1    2    0    0  0.12409982420E+02  0.59777217960E+02  0.22374631738E+03  0.24891486175E+03  0.90381803526E+02 0.  0.
          5    1    3    3  502    0  0.49900109710E+01 -0.54709891701E+02 -0.47362127949E+02  0.72654772887E+02  0.41800000000E+01 0.  1.
         -5    1    3    3    0  502 -0.17399993391E+02 -0.50673262590E+01  0.65053523947E+02  0.67659965588E+02  0.41800000000E+01 0.  1.
        -11    1    4    4    0    0  0.46045581408E+02  0.50707062026E+02  0.18247310594E+03  0.19490468465E+03  0.00000000000E+00 0.  1.
         11    1    4    4    0    0 -0.33635598989E+02  0.90701559345E+01  0.41273211435E+02  0.54010177098E+02  0.00000000000E+00 0. -1.
</event>
<event>
 8    1  0.4798744E-006  0.9463185E+02  0.7561462E-02  0.1292007E+00
         -2   -1    0    0    0  501 -0.00000000000E+00  0.00000000000E+00  0.49430494388E+03  0.49430494388E+03  0.00000000000E+00 0.  1.
          2   -1    0    0  501    0  0.00000000000E+00 -0.00000000000E+00 -0.27714420525E+02  0.27714420525E+02  0.00000000000E+00 0. -1.
         23    2    1    2    0    0 -0.36365086258E+02 -0.31572944020E+02  0.30510943152E+03  0.33325166014E+03  0.12508250672E+03 0.  0.
         23    2    1    2    0    0  0.36365086258E+02  0.31572944020E+02  0.16148109183E+03  0.18876770427E+03  0.85075453936E+02 0.  0.
          5    1    3    3  502    0 -0.18904172649E+02 -0.57169987282E+02  0.56477955905E+02  0.82662005133E+02  0.41800000000E+01 0. -1.
         -5    1    3    3    0  502 -0.17460913609E+02  0.25597043262E+02  0.24863147562E+03  0.25058965501E+03  0.41800000000E+01 0. -1.
        -11    1    4    4    0    0  0.62474140010E+02  0.34497640194E+02  0.11375303137E+03  0.13428647547E+03  0.00000000000E+00 0.  1.
         11    1    4    4    0    0 -0.26109053752E+02 -0.29246961738E+01  0.47728060469E+02  0.54481228801E+02  0.00000000000E+00 0. -1.
</event>
<event>
 8    1  0.4798744E-006  0.7271198E+02  0.7561462E-02  0.1351106E+00
          3   -1    0    0  501    0  0.00000000000E+00  0.00000000000E+00  0.33678070738E+02  0.33678070738E+02  0.00000000000E+00 0. -1.
         -3   -1    0    0    0  501 -0.00000000000E+00 -0.00000000000E+00 -0.37472121169E+03  0.37472121169E+03  0.00000000000E+00 0.  1.
         23    2    1    2    0    0  0.23176904995E+02 -0.18114831536E+02 -0.21460708716E+03  0.25013797786E+03  0.12508992789E+03 0.  0.
         23    2    1    2    0    0 -0.23176904995E+02  0.18114831536E+02 -0.12643605379E+03  0.15826130457E+03  0.90527613355E+02 0.  0.
          5    1    3    3  502    0  0.61128252407E+01 -0.28758070519E+02  0.45304624597E+01  0.30039819282E+02  0.41800000000E+01 0. -1.
         -5    1    3    3    0  502  0.17064079754E+02  0.10643238983E+02 -0.21913754962E+03  0.22009815857E+03  0.41800000000E+01 0. -1.
        -11    1    4    4    0    0 -0.58268978173E+02  0.93235071309E+01 -0.78573044804E+02  0.98264566210E+02  0.00000000000E+00 0.  1.
         11    1    4    4    0    0  0.35092073179E+02  0.87913244052E+01 -0.47863008987E+02  0.59996738362E+02  0.00000000000E+00 0. -1.
</event>
<event>
 7    1  0.4798744E-006  0.1087717E+03  0.7561462E-02  0.1262862E+00
          1   -1    0    0  501    0  0.00000000000E+00  0.00000000000E+00  0.43800285620E+02  0.43800285620E+02  0.00000000000E+00 0. -1.
         -1   -1    0    0    0  501 -0.00000000000E+00 -0.00000000000E+00 -0.36403989098E+03  0.36403989098E+03  0.00000000000E+00 0.  1.
         23    2    1    2    0    0  0.31157559133E+02  0.96633777835E+01 -0.68911165030E+02  0.11858045256E+03  0.90820706346E+02 0.  0.
          5    1    1    2  502    0 -0.52346614612E+02 -0.52830154193E+02 -0.21859736215E+03  0.23094040875E+03  0.41800000000E+01 0. -1.
         -5    1    1    2    0  502  0.21189055479E+02  0.43166776410E+02 -0.32731078176E+02  0.58319315293E+02  0.41800000000E+01 0.  1.
        -11    1    3    3    0    0  0.26849871202E+02  0.48647063541E+02 -0.51157543013E+02  0.75528448825E+02  0.00000000000E+00 0.  1.
         11    1    3    3    0    0  0.43076879304E+01 -0.38983685757E+02 -0.17753622016E+02  0.43052003731E+02  0.00000000000E+00 0. -1.
</event>
<event>
 8    1  0.4798744E-006  0.9447169E+02  0.7561462E-02  0.1292370E+00
         -4   -1    0    0    0  501 -0.00000000000E+00  0.00000000000E+00  0.64048333582E+02  0.64048333582E+02  0.00000000000E+00 0.  1.
          4   -1    0    0  501    0  0.00000000000E+00 -0.00000000000E+00 -0.19851505236E+03  0.19851505236E+03  0.00000000000E+00 0. -1.
         23    2    1    2    0    0 -0.13116850041E+02 -0.22217805838E+02 -0.67905849832E+02  0.14465278943E+03  0.12509013710E+03 0.  0.
         23    2    1    2    0    0  0.13116850041E+02  0.22217805838E+02 -0.66560868948E+02  0.11791059651E+03  0.93844961734E+02 0.  0.
          5    1    3    3  502    0 -0.57406890953E+02  0.24042451627E+02 -0.43222579586E+02  0.75889751582E+02  0.41800000000E+01 0. -1.
         -5    1    3    3    0  502  0.44290040912E+02 -0.46260257465E+02 -0.24683270246E+02  0.68763037853E+02  0.41800000000E+01 0. -1.
        -11    1    4    4    0    0 -0.11659208605E+02  0.33271229326E+02 -0.80154838268E+02  0.87565460907E+02  0.00000000000E+00 0. -1.
         11    1    4    4    0    0  0.24776058646E+02 -0.11053423487E+02  0.13593969320E+02  0.30345135602E+02  0.00000000000E+00 0.  1.
</event>
<event>
 8    1  0.4798744E-006  0.4889559E+02  0.7561462E-02  0.1451391E+00
          1   -1    0    0  501    0  0.00000000000E+00  0.00000000000E+00  0.40721640764E+02  0.40721640764E+02  0.00000000000E+00 0. -1.
         -1   -1    0    0    0  501 -0.00000000000E+00 -0.00000000000E+00 -0.28708972509E+03  0.28708972509E+03  0.00000000000E+00 0.  1.
         23    2    1    2    0    0  0.85106733079E+00  0.71895313657E+01 -0.17108262621E+03  0.21205987043E+03  0.12509080693E+03 0.  0.
         23    2    1    2    0    0 -0.85106733079E+00 -0.71895313657E+01 -0.75285458113E+02  0.11575149542E+03  0.87624738589E+02 0.  0.
          5    1    3    3  502    0 -0.22894279604E+01 -0.23889125413E+01  0.19983494129E+02  0.20682379484E+02  0.41800000000E+01 0.  1.
         -5    1    3    3    0  502  0.31404952912E+01  0.95784439070E+01 -0.19106612034E+03  0.19137749095E+03  0.41800000000E+01 0.  1.
        -11    1    4    4    0    0 -0.37933733284E+02  0.12009822557E+02 -0.58492966946E+02  0.70743417651E+02  0.00000000000E+00 0.  1.
         11    1    4    4    0    0  0.37082665953E+02 -0.19199353923E+02 -0.16792491167E+02  0.45008077773E+02  0.00000000000E+00 0. -1.
</event>
<event>
 8    1  0.4798744E-006  0.1354611E+03  0.7561462E-02  0.1219570E+00
          2   -1    0    0  501    0  0.00000000000E+00  0.00000000000E+00  0.94371244048E+02  0.94371244048E+02  0.00000000000E+00 0. -1.
         -2   -1    0    0    0  501 -0.00000000000E+00 -0.00000000000E+00 -0.24544294603E+03  0.24544294603E+03  0.00000000000E+00 0.  1.
         23    2    1    2    0    0  0.82815086850E+02  0.61914811495E+02 -0.11046886070E+03  0.19632807842E+03  0.12509821222E+03 0.  0.
         23    2    1    2    0    0 -0.82815086850E+02 -0.61914811495E+02 -0.40602841288E+02  0.14348611166E+03  0.90817900362E+02 0.  0.
          5    1    3    3  502    0  0.10723881193E+03  0.48495404095E+02 -0.11845805978E+03  0.16703817327E+03  0.41800000000E+01 0. -1.
         -5    1    3    3    0  502 -0.24423725080E+02  0.13419407400E+02  0.79891990820E+01  0.29289905150E+02  0.41800000000E+01 0. -1.
        -11    1    4    4    0    0  0.87095368390E+01 -0.24669158336E+02 -0.36083974122E+02  0.44569906814E+02  0.00000000000E+00 0.  1.
         11    1    4    4    0    0 -0.91524623690E+02 -0.37245653159E+02 -0.45188671659E+01  0.98916204846E+02  0.00000000000E+00 0. -1.
</event>
<event>
 8    1  0.4798744E-006  0.8850962E+02  0.7561462E-02  0.1306502E+00
         -2   -1    0    0    0  501 -0.00000000000E+00  0.00000000000E+00  0.74310262284E+02  0.74310262284E+02  0.00000000000E+00 0.  1.
          2   -1    0    0  501    0  0.00000000000E+00 -0.00000000000E+00 -0.17275191111E+03  0.17275191111E+03  0.00000000000E+00 0. -1.
         23    2    1    2    0    0  0.46059668507E+01 -0.34212130201E+02 -0.51568448193E+02  0.13963627480E+03  0.12508916663E+03 0.  0.
         23    2    1    2    0    0 -0.46059668507E+01  0.34212130201E+02 -0.46873200631E+02  0.10742589859E+03  0.90285890184E+02 0.  0.
          5    1    3    3  502    0 -0.25939104172E+02 -0.56220862000E+02  0.14271755872E+02  0.63677137694E+02  0.41800000000E+01 0. -1.
         -5    1    3    3    0  502  0.30545071023E+02  0.22008731799E+02 -0.65840204065E+02  0.75959137110E+02  0.41800000000E+01 0. -1.
        -11    1    4    4    0    0  0.60888008568E+01  0.54131947383E+02 -0.60195152039E+02  0.81183727141E+02  0.00000000000E+00 0. -1.
         11    1    4    4    0    0 -0.10694767708E+02 -0.19919817182E+02  0.13321951408E+02  0.26242171446E+02  0.00000000000E+00 0.  1.
</event>
<event>
 8    1  0.4798744E-006  0.1124948E+03  0.7561462E-02  0.1256018E+00
          1   -1    0    0  501    0  0.00000000000E+00  0.00000000000E+00  0.20042860222E+02  0.20042860222E+02  0.00000000000E+00 0. -1.
         -1   -1    0    0    0  501 -0.00000000000E+00 -0.00000000000E+00 -0.11289571693E+04  0.11289571693E+04  0.00000000000E+00 0.  1.
         23    2    1    2    0    0  0.21338797290E+02  0.46681615024E+02 -0.93051376591E+03  0.94028603393E+03  0.12508972622E+03 0.  0.
         23    2    1    2    0    0 -0.21338797290E+02 -0.46681615024E+02 -0.17840054320E+03  0.20871399562E+03  0.95395286592E+02 0.  0.
          5    1    3    3  502    0  0.77951676333E+01  0.88648868160E+02 -0.54465936406E+03  0.55189734709E+03  0.41800000000E+01 0.  1.
         -5    1    3    3    0  502  0.13543629657E+02 -0.41967253136E+02 -0.38585440185E+03  0.38838868684E+03  0.41800000000E+01 0.  1.
        -11    1    4    4    0    0 -0.35668380779E+02 -0.61434191914E+02 -0.75056831560E+02  0.10334370463E+03  0.00000000000E+00 0. -1.
         11    1    4    4    0    0  0.14329583489E+02  0.14752576889E+02 -0.10334371164E+03  0.10537029099E+03  0.00000000000E+00 0.  1.
</event>
<event>
 8    1  0.4798744E-006  0.1218432E+03  0.7561462E-02  0.1240087E+00
          2   -1    0    0  501    0  0.00000000000E+00  0.00000000000E+00  0.56491499643E+03  0.56491499643E+03  0.00000000000E+00 0. -1.
         -2   -1    0    0    0  501 -0.00000000000E+00 -0.00000000000E+00 -0.36955972991E+02  0.36955972991E+02  0.00000000000E+00 0.  1.
         23    2    1    2    0    0  0.13406521147E+02 -0.87953556267E+02  0.23838922718E+03  0.28353799361E+03  0.12509519302E+03 0.  0.
         23    2    1    2    0    0 -0.13406521147E+02  0.87953556267E+02  0.28956979626E+03  0.31833297581E+03  0.97824606886E+02 0.  0.
          5    1    3    3  502    0  0.60264797898E+02 -0.34974954509E+02  0.17523251231E+03  0.18862396210E+03  0.41800000000E+01 0.  1.
         -5    1    3    3    0  502 -0.46858276751E+02 -0.52978601759E+02  0.63156714872E+02  0.94914031511E+02  0.41800000000E+01 0.  1.
        -11    1    4    4    0    0 -0.32058097086E+02  0.70676867655E+02  0.28097470775E+03  0.29149567339E+03  0.00000000000E+00 0. -1.
         11    1    4    4    0    0  0.18651575938E+02  0.17276688612E+02  0.85950885027E+01  0.26837302412E+02  0.00000000000E+00 0.  1.
</event>
<event>
 8    1  0.4798744E-006  0.1032720E+03  0.7561462E-02  0.1273562E+00
         -2   -1    0    0    0  501 -0.00000000000E+00  0.00000000000E+00  0.98474872689E+02  0.98474872689E+02  0.00000000000E+00 0.  1.
          2   -1    0    0  501    0  0.00000000000E+00 -0.00000000000E+00 -0.15002713077E+03  0.15002713077E+03  0.00000000000E+00 0. -1.
         23    2    1    2    0    0 -0.43229796098E+01  0.60923959967E+02 -0.20800808581E+02  0.14080469687E+03  0.12515139620E+03 0.  0.
         23    2    1    2    0    0  0.43229796098E+01 -0.60923959967E+02 -0.30751449499E+02  0.10769730659E+03  0.83202410721E+02 0.  0.
          5    1    3    3  502    0  0.30918037578E+02 -0.24009681815E+02 -0.28248196430E+02  0.48454337991E+02  0.41800000000E+01 0. -1.
         -5    1    3    3    0  502 -0.35241017188E+02  0.84933641783E+02  0.74473878496E+01  0.92350358877E+02  0.41800000000E+01 0. -1.
        -11    1    4    4    0    0  0.12886024815E+02  0.70479334086E+00 -0.42465727979E+02  0.44383380020E+02  0.00000000000E+00 0. -1.
         11    1    4    4    0    0 -0.85630452047E+01 -0.61628753308E+02  0.11714278480E+02  0.63313926571E+02  0.00000000000E+00 0.  1.
</event>
<event>
 8    1  0.4798744E-006  0.6982575E+02  0.7561462E-02  0.1360687E+00
         -2   -1    0    0    0  501 -0.00000000000E+00  0.00000000000E+00  0.59486936868E+02  0.59486936868E+02  0.00000000000E+00 0.  1.
          2   -1    0    0  501    0  0.00000000000E+00 -0.00000000000E+00 -0.23873832471E+03  0.23873832471E+03  0.00000000000E+00 0. -1.
         23    2    1    2    0    0 -0.37134916743E+02 -0.29150238759E+02 -0.77467017769E+02  0.15452428702E+03  0.12509147842E+03 0.  0.
         23    2    1    2    0    0  0.37134916743E+02  0.29150238759E+02 -0.10178437007E+03  0.14370097456E+03  0.89784038879E+02 0.  0.
          5    1    3    3  502    0 -0.13862278118E+02 -0.23380912680E+01  0.34233355028E+02  0.37242776774E+02  0.41800000000E+01 0. -1.
         -5    1    3    3    0  502 -0.23272638626E+02 -0.26812147491E+02 -0.11170037280E+03  0.11728151024E+03  0.41800000000E+01 0. -1.
        -11    1    4    4    0    0  0.58176980597E+02  0.68550836494E+01 -0.30369000328E+02  0.65983554195E+02  0.00000000000E+00 0.  1.
         11    1    4    4    0    0 -0.21042063854E+02  0.22295155109E+02 -0.71415369743E+02  0.77717420365E+02  0.00000000000E+00 0. -1.
</event>
<event>
 8    1  0.4798744E-006  0.9238196E+02  0.7561462E-02  0.1297184E+00
          1   -1    0    0  501    0  0.00000000000E+00  0.00000000000E+00  0.32566199852E+02  0.32566199852E+02  0.00000000000E+00 0. -1.
         -1   -1    0    0    0  501 -0.00000000000E+00 -0.00000000000E+00 -0.50587795226E+03  0.50587795226E+03  0.00000000000E+00 0.  1.
         23    2    1    2    0    0  0.43746947793E+02  0.25598779599E+02 -0.35970195852E+03  0.38419008479E+03  0.12508968515E+03 0.  0.
         23    2    1    2    0    0 -0.43746947793E+02 -0.25598779599E+02 -0.11360979389E+03  0.15425406732E+03  0.91203284258E+02 0.  0.
          5    1    3    3  502    0  0.18706197517E+02 -0.39666296640E+02 -0.25132353368E+03  0.25515549749E+03  0.41800000000E+01 0. -1.
         -5    1    3    3    0  502  0.25040750276E+02  0.65265076239E+02 -0.10837842483E+03  0.12903458730E+03  0.41800000000E+01 0. -1.
        -11    1    4    4    0    0 -0.34865234705E+01 -0.29980253393E+02  0.34575390348E+01  0.30379697425E+02  0.00000000000E+00 0. -1.
         11    1    4    4    0    0 -0.40260424322E+02  0.43814737944E+01 -0.11706733293E+03  0.12387436990E+03  0.00000000000E+00 0.  1.
</event>
<event>
 8    1  0.4798744E-006  0.3351317E+03  0.7561462E-02  0.1068889E+00
         -2   -1    0    0    0  501 -0.00000000000E+00  0.00000000000E+00  0.41491497529E+03  0.41491497529E+03  0.00000000000E+00 0.  1.
          2   -1    0    0  501    0  0.00000000000E+00 -0.00000000000E+00 -0.39242541814E+03  0.39242541814E+03  0.00000000000E+00 0. -1.
         23    2    1    2    0    0  0.32295084642E+03  0.76199576640E+01  0.22699960251E+03  0.41415224486E+03  0.12505178698E+03 0.  0.
         23    2    1    2    0    0 -0.32295084642E+03 -0.76199576640E+01 -0.20451004536E+03  0.39318814858E+03  0.91745564318E+02 0.  0.
          5    1    3    3  502    0  0.31760632743E+03  0.22340842581E+02  0.23531572916E+03  0.39593415774E+03  0.41800000000E+01 0. -1.
         -5    1    3    3    0  502  0.53445189857E+01 -0.14720884917E+02 -0.83161266521E+01  0.18218087123E+02  0.41800000000E+01 0. -1.
        -11    1    4    4    0    0 -0.14814541428E+03  0.41890072695E+02 -0.87390273781E+02  0.17702796930E+03  0.00000000000E+00 0. -1.
         11    1    4    4    0    0 -0.17480543213E+03 -0.49510030359E+02 -0.11711977158E+03  0.21616017927E+03  0.00000000000E+00 0.  1.
</event>
<event>
 8    1  0.4798744E-006  0.6963909E+02  0.7561462E-02  0.1361325E+00
         -2   -1    0    0    0  501 -0.00000000000E+00  0.00000000000E+00  0.75101859127E+03  0.75101859127E+03  0.00000000000E+00 0.  1.
          2   -1    0    0  501    0  0.00000000000E+00 -0.00000000000E+00 -0.16711607206E+02  0.16711607206E+02  0.00000000000E+00 0. -1.
         23    2    1    2    0    0 -0.13265744364E+02  0.12110425126E+02  0.49247920621E+03  0.50843419800E+03  0.12508766035E+03 0.  0.
         23    2    1    2    0    0  0.13265744364E+02 -0.12110425126E+02  0.24182777785E+03  0.25929600048E+03  0.91821018038E+02 0.  0.
          5    1    3    3  502    0  0.95149293594E+01  0.28630818688E+02  0.47294363738E+03  0.47392342652E+03  0.41800000000E+01 0.  1.
         -5    1    3    3    0  502 -0.22780673723E+02 -0.16520393563E+02  0.19535568827E+02  0.34510771480E+02  0.41800000000E+01 0.  1.
        -11    1    4    4    0    0  0.23881994311E+02  0.29197175144E+02  0.18172318421E+03  0.18559671432E+03  0.00000000000E+00 0.  1.
         11    1    4    4    0    0 -0.10616249948E+02 -0.41307600269E+02  0.60104593648E+02  0.73699286160E+02  0.00000000000E+00 0. -1.
</event>
<event>
 8    1  0.4798744E-006  0.1026248E+03  0.7561462E-02  0.1274871E+00
         -2   -1    0    0    0  501 -0.00000000000E+00  0.00000000000E+00  0.14361604020E+03  0.14361604020E+03  0.00000000000E+00 0.  1.
          2   -1    0    0  501    0  0.00000000000E+00 -0.00000000000E+00 -0.12985256637E+03  0.12985256637E+03  0.00000000000E+00 0. -1.
         23    2    1    2    0    0  0.54291763671E+02  0.61431722418E+02  0.12463910279E+02  0.15007585238E+03  0.12508381305E+03 0.  0.
         23    2    1    2    0    0 -0.54291763671E+02 -0.61431722418E+02  0.12995635463E+01  0.12339275419E+03  0.92209710976E+02 0.  0.
          5    1    3    3  502    0 -0.50938932788E+01  0.91471230965E+01  0.57732689965E+02  0.58823069457E+02  0.41800000000E+01 0. -1.
         -5    1    3    3    0  502  0.59385656950E+02  0.52284599322E+02 -0.45268779686E+02  0.91252782927E+02  0.41800000000E+01 0. -1.
        -11    1    4    4    0    0  0.90925165044E+01 -0.49397121799E+02  0.23110910616E+02  0.55288911075E+02  0.00000000000E+00 0.  1.
         11    1    4    4    0    0 -0.63384280175E+02 -0.12034600620E+02 -0.21811347069E+02  0.68103843110E+02  0.00000000000E+00 0. -1.
</event>
<event>
 8    1  0.4798744E-006  0.1323491E+03  0.7561462E-02  0.1224011E+00
          3   -1    0    0  501    0  0.00000000000E+00  0.00000000000E+00  0.13315286874E+04  0.13315286874E+04  0.00000000000E+00 0. -1.
         -3   -1    0    0    0  501 -0.00000000000E+00 -0.00000000000E+00 -0.14766801518E+02  0.14766801518E+02  0.00000000000E+00 0.  1.
         23    2    1    2    0    0 -0.80228774779E+02  0.46368173844E+02  0.78070250555E+03  0.79606659716E+03  0.12505583192E+03 0.  0.
         23    2    1    2    0    0  0.80228774779E+02 -0.46368173844E+02  0.53605938038E+03  0.55022889180E+03  0.82495516439E+02 0.  0.
          5    1    3    3  502    0 -0.56652694560E+02 -0.27991107217E+02  0.19130227991E+03  0.20151194650E+03  0.41800000000E+01 0. -1.
         -5    1    3    3    0  502 -0.23576080219E+02  0.74359281061E+02  0.58940022564E+03  0.59455465066E+03  0.41800000000E+01 0. -1.
        -11    1    4    4    0    0  0.57749401114E+02 -0.69924994820E+02  0.36497440803E+03  0.37607288755E+03  0.00000000000E+00 0.  1.
         11    1    4    4    0    0  0.22479373665E+02  0.23556820976E+02  0.17108497234E+03  0.17415600425E+03  0.00000000000E+00 0. -1.
</event>
<event>
 8    1  0.4798744E-006  0.9023332E+02  0.7561462E-02  0.1302288E+00
         -1   -1    0    0    0  501 -0.00000000000E+00  0.00000000000E+00  0.66152743493E+03  0.66152743493E+03  0.00000000000E+00 0.  1.
          1   -1    0    0  501    0  0.00000000000E+00 -0.00000000000E+00 -0.25105742668E+02  0.25105742668E+02  0.00000000000E+00 0. -1.
         23    2    1    2    0    0 -0.54578842100E+02 -0.37288455518E+02  0.40881804177E+03  0.43260609758E+03  0.12508623214E+03 0.  0.
         23    2    1    2    0    0  0.54578842100E+02  0.37288455518E+02  0.22760365050E+03  0.25402708002E+03  0.91416939040E+02 0.  0.
          5    1    3    3  502    0 -0.18982508014E+01 -0.16381584710E+01 -0.88488224464E+01  0.10102523347E+02  0.41800000000E+01 0.  1.
         -5    1    3    3    0  502 -0.52680591298E+02 -0.35650297047E+02  0.41766686421E+03  0.42250357424E+03  0.41800000000E+01 0.  1.
        -11    1    4    4    0    0 -0.25388054887E+02  0.10996295973E+02  0.71634644083E+02  0.76791888172E+02  0.00000000000E+00 0.  1.
         11    1    4    4    0    0  0.79966896987E+02  0.26292159545E+02  0.15596900641E+03  0.17723519185E+03  0.00000000000E+00 0. -1.
</event>
<event>
 8    1  0.4798744E-006  0.9400894E+02  0.7561462E-02  0.1293424E+00
          1   -1    0    0  501    0  0.00000000000E+00  0.00000000000E+00  0.97197992744E+02  0.97197992744E+02  0.00000000000E+00 0. -1.
         -1   -1    0    0    0  501 -0.00000000000E+00 -0.00000000000E+00 -0.12546463089E+03  0.12546463089E+03  0.00000000000E+00 0.  1.
         23    2    1    2    0    0  0.17736867306E+02 -0.10563909236E+02 -0.23196564746E+02  0.12888584064E+03  0.12508911488E+03 0.  0.
         23    2    1    2    0    0 -0.17736867306E+02  0.10563909236E+02 -0.50700734002E+01  0.93776782993E+02  0.91335572173E+02 0.  0.
          5    1    3    3  502    0 -0.45647300401E+02 -0.10167279487E+02  0.21067006018E+02  0.51462032108E+02  0.41800000000E+01 0.  1.
         -5    1    3    3    0  502  0.63384167707E+02 -0.39662974860E+00 -0.44263570764E+02  0.77423808533E+02  0.41800000000E+01 0.  1.
        -11    1    4    4    0    0 -0.45426780432E+02 -0.51280175497E+01 -0.28840772548E+02  0.54052558732E+02  0.00000000000E+00 0.  1.
         11    1    4    4    0    0  0.27689913126E+02  0.15691926785E+02  0.23770699148E+02  0.39724224261E+02  0.00000000000E+00 0. -1.
</event>
<event>
 8    1  0.4798744E-006  0.8546732E+02  0.7561462E-02  0.1314215E+00
         -1   -1    0    0    0  501 -0.00000000000E+00  0.00000000000E+00  0.13444320391E+03  0.13444320391E+03  0.00000000000E+00 0.  1.
          1   -1    0    0  501    0  0.00000000000E+00 -0.00000000000E+00 -0.10195318776E+03  0.10195318776E+03  0.00000000000E+00 0. -1.
         23    2    1    2    0    0  0.62440804516E+01  0.14706904423E+02  0.61105845524E+02  0.14014126080E+03  0.12510142702E+03 0.  0.
         23    2    1    2    0    0 -0.62440804516E+01 -0.14706904423E+02 -0.28615829374E+02  0.96255130877E+02  0.90503607392E+02 0.  0.
          5    1    3    3  502    0 -0.49691598706E+02 -0.24837188209E+02  0.15804378670E+02  0.57908476800E+02  0.41800000000E+01 0. -1.
         -5    1    3    3    0  502  0.55935679158E+02  0.39544092632E+02  0.45301466854E+02  0.82232783998E+02  0.41800000000E+01 0. -1.
        -11    1    4    4    0    0 -0.24858612202E+02 -0.41723365179E+01  0.26838258200E+02  0.36819167506E+02  0.00000000000E+00 0.  1.
         11    1    4    4    0    0  0.18614531750E+02 -0.10534567905E+02 -0.55454087574E+02  0.59435963371E+02  0.00000000000E+00 0. -1.
</event>
<event>
 8    1  0.4798744E-006  0.1347853E+03  0.7561462E-02  0.1220523E+00
          1   -1    0    0  501    0  0.00000000000E+00  0.00000000000E+00  0.44826959867E+03  0.44826959867E+03  0.00000000000E+00 0. -1.
         -1   -1    0    0    0  501 -0.00000000000E+00 -0.00000000000E+00 -0.57066732227E+02  0.57066732227E+02  0.00000000000E+00 0.  1.
         23    2    1    2    0    0  0.61343287379E+02  0.98951141731E+02  0.19288405770E+03  0.25769796298E+03  0.12509857333E+03 0.  0.
         23    2    1    2    0    0 -0.61343287379E+02 -0.98951141731E+02  0.19831880874E+03  0.24763836792E+03  0.91869929842E+02 0.  0.
          5    1    3    3  502    0 -0.51190286600E+01  0.19174314084E+02  0.13931731954E+03  0.14078581852E+03  0.41800000000E+01 0.  1.
         -5    1    3    3    0  502  0.66462316038E+02  0.79776827647E+02  0.53566738166E+02  0.11691214445E+03  0.41800000000E+01 0.  1.
        -11    1    4    4    0    0 -0.61324625500E+02 -0.11446471323E+03  0.15849071066E+03  0.20489554810E+03  0.00000000000E+00 0.  1.
         11    1    4    4    0    0 -0.18661878081E-01  0.15513571500E+02  0.39828098078E+02  0.42742819812E+02  0.00000000000E+00 0. -1.
</event>
<event>
 7    1  0.4798744E-006  0.1468534E+03  0.7561462E-02  0.1204394E+00
         -1   -1    0    0    0  501 -0.00000000000E+00  0.00000000000E+00  0.76234173256E+03  0.76234173256E+03  0.00000000000E+00 0.  1.
          1   -1    0    0  501    0  0.00000000000E+00 -0.00000000000E+00 -0.36111832452E+02  0.36111832452E+02  0.00000000000E+00 0. -1.
         23    2    1    2    0    0 -0.74423905411E+02  0.62247083737E+02  0.18947947750E+03  0.23196215519E+03  0.92143105633E+02 0.  0.
          5    1    1    2  502    0  0.86136594428E+02 -0.95572714635E+02  0.29128419016E+03  0.31846131401E+03  0.41800000000E+01 0. -1.
         -5    1    1    2    0  502 -0.11712689017E+02  0.33325630899E+02  0.24546623244E+03  0.24803009581E+03  0.41800000000E+01 0.  1.
        -11    1    3    3    0    0 -0.75957602511E+02  0.93987291472E+01  0.81918486760E+02  0.11210946419E+03  0.00000000000E+00 0. -1.
         11    1    3    3    0    0  0.15336971000E+01  0.52848354589E+02  0.10756099074E+03  0.11985269100E+03  0.00000000000E+00 0.  1.
</event>
<event>
 8    1  0.4798744E-006  0.1438328E+03  0.7561462E-02  0.1208263E+00
          2   -1    0    0  501    0  0.00000000000E+00  0.00000000000E+00  0.14265281063E+03  0.14265281063E+03  0.00000000000E+00 0. -1.
         -2   -1    0    0    0  501 -0.00000000000E+00 -0.00000000000E+00 -0.14795007672E+03  0.14795007672E+03  0.00000000000E+00 0.  1.
         23    2    1    2    0    0  0.75908024441E+02  0.66816394198E+02 -0.18757005514E+02  0.15450361548E+03  0.11529563406E+03 0.  0.
         23    2    1    2    0    0 -0.75908024441E+02 -0.66816394198E+02  0.13459739426E+02  0.13609927187E+03  0.90085451156E+02 0.  0.
          5    1    3    3  502    0  0.41081128496E+02 -0.28862433196E+02 -0.14848048734E+02  0.52522720034E+02  0.41800000000E+01 0. -1.
         -5    1    3    3    0  502  0.34826895944E+02  0.95678827395E+02 -0.39089567794E+01  0.10198089545E+03  0.41800000000E+01 0.  1.
        -11    1    4    4    0    0 -0.10229416730E+02 -0.68912323759E+02  0.88222049869E+01  0.70223789654E+02  0.00000000000E+00 0. -1.
         11    1    4    4    0    0 -0.65678607711E+02  0.20959295609E+01  0.46375344395E+01  0.65875482216E+02  0.00000000000E+00 0.  1.
</event>
<event>
 8    1  0.4798744E-006  0.8000090E+02  0.7561462E-02  0.1329049E+00
         -2   -1    0    0    0  501 -0.00000000000E+00  0.00000000000E+00  0.18359847281E+03  0.18359847281E+03  0.00000000000E+00 0.  1.
          2   -1    0    0  501    0  0.00000000000E+00 -0.00000000000E+00 -0.64675440690E+02  0.64675440690E+02  0.00000000000E+00 0. -1.
         23    2    1    2    0    0 -0.47624375687E+01  0.24359265163E+01  0.78113775374E+02  0.14757396534E+03  0.12509076222E+03 0.  0.
         23    2    1    2    0    0  0.47624375687E+01 -0.24359265163E+01  0.40809256745E+02  0.10069994816E+03  0.91904676563E+02 0.  0.
          5    1    3    3  502    0 -0.24284379265E+02 -0.31716422994E+02  0.96071633061E+02  0.10412921609E+03  0.41800000000E+01 0.  1.
         -5    1    3    3    0  502  0.19521941697E+02  0.34152349510E+02 -0.17957857687E+02  0.43444749250E+02  0.41800000000E+01 0.  1.
        -11    1    4    4    0    0  0.18119735314E+01 -0.41281322184E+02 -0.37751909672E+01  0.41493166620E+02  0.00000000000E+00 0. -1.
         11    1    4    4    0    0  0.29504640373E+01  0.38845395668E+02  0.44584447713E+02  0.59206781541E+02  0.00000000000E+00 0.  1.
</event>
<event>
 8    1  0.4798744E-006  0.7294121E+02  0.7561462E-02  0.1350368E+00
          1   -1    0    0  501    0  0.00000000000E+00  0.00000000000E+00  0.63381435863E+02  0.63381435863E+02  0.00000000000E+00 0. -1.
         -1   -1    0    0    0  501 -0.00000000000E+00 -0.00000000000E+00 -0.24533181318E+03  0.24533181318E+03  0.00000000000E+00 0.  1.
         23    2    1    2    0    0 -0.70618886281E+01  0.38074448027E+02 -0.16291015470E+03  0.20902967162E+03  0.12511655066E+03 0.  0.
         23    2    1    2    0    0  0.70618886281E+01 -0.38074448027E+02 -0.19040222622E+02  0.99683577429E+02  0.89859622011E+02 0.  0.
          5    1    3    3  502    0 -0.19914322600E+02  0.19132168920E+02  0.13548909731E+02  0.31042961957E+02  0.41800000000E+01 0. -1.
         -5    1    3    3    0  502  0.12852433972E+02  0.18942279108E+02 -0.17645906443E+03  0.17798670966E+03  0.41800000000E+01 0. -1.
        -11    1    4    4    0    0  0.41579013054E+02 -0.43001415022E+02 -0.24028337131E+02  0.64461593261E+02  0.00000000000E+00 0.  1.
         11    1    4    4    0    0 -0.34517124426E+02  0.49269669947E+01  0.49881145093E+01  0.35221984168E+02  0.00000000000E+00 0. -1.
</event>
<event>
 7    1  0.4798744E-006  0.7848795E+02  0.7561462E-02  0.1333398E+00
         -2   -1    0    0    0  501 -0.00000000000E+00  0.00000000000E+00  0.49532942942E+02  0.49532942942E+02  0.00000000000E+00 0.  1.
          2   -1    0    0  501    0  0.00000000000E+00 -0.00000000000E+00 -0.40954873846E+03  0.40954873846E+03  0.00000000000E+00 0. -1.
         23    2    1    2    0    0  0.28449642877E+02 -0.18780122578E+02 -0.29093040087E+03  0.30663540021E+03  0.90679078776E+02 0.  0.
          5    1    1    2  502    0  0.15105747500E+02  0.69291540546E+01 -0.97467362061E+02  0.98962396144E+02  0.41800000000E+01 0. -1.
         -5    1    1    2    0  502 -0.43555390377E+02  0.11850968523E+02  0.28381967411E+02  0.53483885049E+02  0.41800000000E+01 0.  1.
        -11    1    3    3    0    0 -0.23008385496E+02  0.19670135704E+02 -0.12726111767E+03  0.13081166657E+03  0.00000000000E+00 0.  1.
         11    1    3    3    0    0  0.51458028373E+02 -0.38450258282E+02 -0.16366928321E+03  0.17582373364E+03  0.00000000000E+00 0. -1.
</event>
<event>
 8    1  0.4798744E-006  0.1159744E+03  0.7561462E-02  0.1249890E+00
          2   -1    0    0  501    0  0.00000000000E+00  0.00000000000E+00  0.21193325529E+03  0.21193325529E+03  0.00000000000E+00 0. -1.
         -2   -1    0    0    0  501 -0.00000000000E+00 -0.00000000000E+00 -0.67349014095E+02  0.67349014095E+02  0.00000000000E+00 0.  1.
         23    2    1    2    0    0  0.21371376739E+02 -0.45983572623E+02  0.73642318516E+02  0.15375743858E+03  0.12508770582E+03 0.  0.
         23    2    1    2    0    0 -0.21371376739E+02  0.45983572623E+02  0.70941922680E+02  0.12552483081E+03  0.90291206996E+02 0.  0.
          5    1    3    3  502    0  0.20221059087E+02  0.41590900007E+02  0.33882975030E+02  0.57482367652E+02  0.41800000000E+01 0.  1.
         -5    1    3    3    0  502  0.11503176522E+01 -0.87574472631E+02  0.39759343486E+02  0.96275070925E+02  0.41800000000E+01 0.  1.
        -11    1    4    4    0    0  0.18556813670E+02 -0.15731253971E+02  0.14495737662E+01  0.24370657545E+02  0.00000000000E+00 0.  1.
         11    1    4    4    0    0 -0.39928190409E+02  0.61714826594E+02  0.69492348914E+02  0.10115417326E+03  0.00000000000E+00 0. -1.
</event>
<event>
 8    1  0.4798744E-006  0.9435625E+02  0.7561462E-02  0.1292633E+00
         -1   -1    0    0    0  501 -0.00000000000E+00  0.00000000000E+00  0.19824596498E+03  0.19824596498E+03  0.00000000000E+00 0.  1.
          1   -1    0    0  501    0  0.00000000000E+00 -0.00000000000E+00 -0.92574839276E+02  0.92574839276E+02  0.00000000000E+00 0. -1.
         23    2    1    2    0    0  0.75175901888E+02  0.11689243085E+02  0.83671946604E+02  0.16862700909E+03  0.12508404741E+03 0.  0.
         23    2    1    2    0    0 -0.75175901888E+02 -0.11689243085E+02  0.21999179096E+02  0.12219379517E+03  0.93055387095E+02 0.  0.
          5    1    3    3  502    0  0.71237871747E+02  0.28105461936E+02 -0.63334409799E+01  0.76956716642E+02  0.41800000000E+01 0. -1.
         -5    1    3    3    0  502  0.39380301412E+01 -0.16416218851E+02  0.90005387584E+02  0.91670292445E+02  0.41800000000E+01 0. -1.
        -11    1    4    4    0    0 -0.18739398985E+02 -0.29931344971E+02  0.46186680056E+02  0.58140002586E+02  0.00000000000E+00 0.  1.
         11    1    4    4    0    0 -0.56436502903E+02  0.18242101886E+02 -0.24187500961E+02  0.64053792579E+02  0.00000000000E+00 0. -1.
</event>
<event>
 8    1  0.4798744E-006  0.9478916E+02  0.7561462E-02  0.1291652E+00
         -1   -1    0    0    0  501 -0.00000000000E+00  0.00000000000E+00  0.58363720491E+02  0.58363720491E+02  0.00000000000E+00 0.  1.
          1   -1    0    0  501    0  0.00000000000E+00 -0.00000000000E+00 -0.21060534541E+03  0.21060534541E+03  0.00000000000E+00 0. -1.
         23    2    1    2    0    0  0.82928931822E+01  0.11306096160E+02 -0.77031297082E+02  0.14757116001E+03  0.12508727612E+03 0.  0.
         23    2    1    2    0    0 -0.82928931822E+01 -0.11306096160E+02 -0.75210327835E+02  0.12139790589E+03  0.94256343309E+02 0.  0.
          5    1    3    3  502    0 -0.21327016713E+01  0.55645255078E+02 -0.84440247015E+02  0.10123522384E+03  0.41800000000E+01 0. -1.
         -5    1    3    3    0  502  0.10425594854E+02 -0.44339158919E+02  0.74089499339E+01  0.46335936170E+02  0.41800000000E+01 0. -1.
        -11    1    4    4    0    0 -0.44879224778E+02  0.95476417043E+01 -0.15701732894E+02  0.48495842035E+02  0.00000000000E+00 0.  1.
         11    1    4    4    0    0  0.36586331596E+02 -0.20853737864E+02 -0.59508594940E+02  0.72902063855E+02  0.00000000000E+00 0. -1.
</event>
<event>
 8    1  0.4798744E-006  0.1554231E+03  0.7561462E-02  0.1193963E+00
          1   -1    0    0  501    0  0.00000000000E+00  0.00000000000E+00  0.69894026344E+03  0.69894026344E+03  0.00000000000E+00 0. -1.
         -1   -1    0    0    0  501 -0.00000000000E+00 -0.00000000000E+00 -0.42011799254E+02  0.42011799254E+02  0.00000000000E+00 0.  1.
         23    2    1    2    0    0  0.12137475193E+03  0.51059490270E+02  0.31623695560E+03  0.36468050774E+03  0.12508860334E+03 0.  0.
         23    2    1    2    0    0 -0.12137475193E+03 -0.51059490270E+02  0.34069150859E+03  0.37627155496E+03  0.90391797713E+02 0.  0.
          5    1    3    3  502    0  0.84385554929E+02 -0.88239042079E+01  0.74896541480E+02  0.11325081674E+03  0.41800000000E+01 0. -1.
         -5    1    3    3    0  502  0.36989197001E+02  0.59883394478E+02  0.24134041412E+03  0.25142969100E+03  0.41800000000E+01 0. -1.
        -11    1    4    4    0    0 -0.69593258318E+02  0.15260402317E+02  0.11359965116E+03  0.13409318486E+03  0.00000000000E+00 0.  1.
         11    1    4    4    0    0 -0.51781493612E+02 -0.66319892587E+02  0.22709185742E+03  0.24217837010E+03  0.00000000000E+00 0. -1.
</event>
<event>
 8    1  0.4798744E-006  0.1108325E+03  0.7561462E-02  0.1259036E+00
         -2   -1    0    0    0  501 -0.00000000000E+00  0.00000000000E+00  0.61472680555E+02  0.61472680555E+02  0.00000000000E+00 0.  1.
          2   -1    0    0  501    0  0.00000000000E+00 -0.00000000000E+00 -0.41951493498E+03  0.41951493498E+03  0.00000000000E+00 0. -1.
         23    2    1    2    0    0  0.71214526496E+02 -0.55912732445E+02 -0.85035306452E+02  0.17626811899E+03  0.12506679814E+03 0.  0.
         23    2    1    2    0    0 -0.71214526496E+02  0.55912732445E+02 -0.27300694798E+03  0.30471949655E+03  0.10061528461E+03 0.  0.
          5    1    3    3  502    0 -0.21585583738E+02 -0.16185055263E+02 -0.68696462028E+02  0.73922728131E+02  0.41800000000E+01 0. -1.
         -5    1    3    3    0  502  0.92800110233E+02 -0.39727677183E+02 -0.16338844424E+02  0.10234539086E+03  0.41800000000E+01 0. -1.
        -11    1    4    4    0    0 -0.35707320506E+02  0.42170096609E+02 -0.25790796627E+03  0.26376096916E+03  0.00000000000E+00 0. -1.
         11    1    4    4    0    0 -0.35507205990E+02  0.13742635836E+02 -0.15098981702E+02  0.40958527383E+02  0.00000000000E+00 0.  1.
</event>
<event>
 8    1  0.4798744E-006  0.1034912E+03  0.7561462E-02  0.1273121E+00
          2   -1    0    0  501    0  0.00000000000E+00  0.00000000000E+00  0.53047676525E+02  0.53047676525E+02  0.00000000000E+00 0. -1.
         -2   -1    0    0    0  501 -0.00000000000E+00 -0.00000000000E+00 -0.22202486633E+03  0.22202486633E+03  0.00000000000E+00 0.  1.
         23    2    1    2    0    0  0.20226761660E+02 -0.42517605535E+01 -0.13199688994E+03  0.17417941680E+03  0.11175012719E+03 0.  0.
         23    2    1    2    0    0 -0.20226761660E+02  0.42517605535E+01 -0.36980299860E+02  0.10089312605E+03  0.91567903501E+02 0.  0.
          5    1    3    3  502    0  0.13848756336E+02  0.53449991614E+02 -0.61321018260E+02  0.82622208492E+02  0.41800000000E+01 0. -1.
         -5    1    3    3    0  502  0.63780053243E+01 -0.57701752168E+02 -0.70675871681E+02  0.91557208308E+02  0.41800000000E+01 0.  1.
        -11    1    4    4    0    0 -0.39205098938E+02  0.38056514192E+02 -0.26546732238E+02  0.60745922067E+02  0.00000000000E+00 0. -1.
         11    1    4    4    0    0  0.18978337279E+02 -0.33804753639E+02 -0.10433567621E+02  0.40147203984E+02  0.00000000000E+00 0.  1.
</event>
<event>
 8    1  0.4798744E-006  0.2367695E+03  0.7561462E-02  0.1121964E+00
          2   -1    0    0  501    0  0.00000000000E+00  0.00000000000E+00  0.12093572430E+04  0.12093572430E+04  0.00000000000E+00 0. -1.
         -2   -1    0    0    0  501 -0.00000000000E+00 -0.00000000000E+00 -0.60348569688E+02  0.60348569688E+02  0.00000000000E+00 0.  1.
         23    2    1    2    0    0  0.26519665337E+02  0.21376639331E+03  0.30396283344E+03  0.39298264811E+03  0.12507035640E+03 0.  0.
         23    2    1    2    0    0 -0.26519665337E+02 -0.21376639331E+03  0.84504583989E+03  0.87672316458E+03  0.90231215492E+02 0.  0.
          5    1    3    3  502    0  0.61082752281E+02  0.58587481050E+02  0.69114741589E+02  0.10935225406E+03  0.41800000000E+01 0.  1.
         -5    1    3    3    0  502 -0.34563086944E+02  0.15517891226E+03  0.23484809185E+03  0.28363039406E+03  0.41800000000E+01 0.  1.
        -11    1    4    4    0    0  0.35383697998E+01 -0.19344760625E+03  0.64424333812E+03  0.67266929106E+03  0.00000000000E+00 0.  1.
         11    1    4    4    0    0 -0.30058035136E+02 -0.20318787062E+02  0.20080250177E+03  0.20405387352E+03  0.00000000000E+00 0. -1.
</event>
<event>
 8    1  0.4798744E-006  0.1598276E+03  0.7561462E-02  0.1188892E+00
         -1   -1    0    0    0  501 -0.00000000000E+00  0.00000000000E+00  0.73082036741E+02  0.73082036741E+02  0.00000000000E+00 0.  1.
          1   -1    0    0  501    0  0.00000000000E+00 -0.00000000000E+00 -0.37760682337E+03  0.37760682337E+03  0.00000000000E+00 0. -1.
         23    2    1    2    0    0 -0.58002973971E+02 -0.10572628333E+03 -0.13260744875E+03  0.21857533376E+03  0.12509216237E+03 0.  0.
         23    2    1    2    0    0  0.58002973971E+02  0.10572628333E+03 -0.17191733788E+03  0.23211352635E+03  0.98887441459E+02 0.  0.
          5    1    3    3  502    0 -0.93856737341E+02 -0.61407904039E+02 -0.10986124363E+03  0.15705726049E+03  0.41800000000E+01 0.  1.
         -5    1    3    3    0  502  0.35853763369E+02 -0.44318379286E+02 -0.22746205125E+02  0.61518073263E+02  0.41800000000E+01 0.  1.
        -11    1    4    4    0    0  0.14316252812E+00  0.90403764854E+02 -0.71710060610E+02  0.11539148144E+03  0.00000000000E+00 0.  1.
         11    1    4    4    0    0  0.57859811443E+02  0.15322518471E+02 -0.10020727727E+03  0.11672204492E+03  0.00000000000E+00 0. -1.
</event>
<event>
 8    1  0.4798744E-006  0.1414114E+03  0.7561462E-02  0.1211442E+00
         -1   -1    0    0    0  501 -0.00000000000E+00  0.00000000000E+00  0.45612873365E+02  0.45612873365E+02  0.00000000000E+00 0.  1.
          1   -1    0    0  501    0  0.00000000000E+00 -0.00000000000E+00 -0.61250173653E+03  0.61250173653E+03  0.00000000000E+00 0. -1.
         23    2    1    2    0    0  0.81390464871E+02 -0.88368419736E+02 -0.22108616675E+03  0.28099738369E+03  0.12508817344E+03 0.  0.
         23    2    1    2    0    0 -0.81390464871E+02  0.88368419736E+02 -0.34580269642E+03  0.37711722620E+03  0.90578761709E+02 0.  0.
          5    1    3    3  502    0  0.18347053042E+00 -0.69228877052E+02 -0.36466510885E+02  0.78357832381E+02  0.41800000000E+01 0. -1.
         -5    1    3    3    0  502  0.81206994340E+02 -0.19139542683E+02 -0.18461965587E+03  0.20263955131E+03  0.41800000000E+01 0. -1.
        -11    1    4    4    0    0 -0.22795259122E+02  0.61270191654E+02 -0.26878754732E+03  0.27662321995E+03  0.00000000000E+00 0. -1.
         11    1    4    4    0    0 -0.58595205748E+02  0.27098228081E+02 -0.77015149098E+02  0.10049400625E+03  0.00000000000E+00 0.  1.
</event>
<event>
 8    1  0.4798744E-006  0.1036226E+03  0.7561462E-02  0.1272857E+00
          1   -1    0    0  501    0  0.00000000000E+00  0.00000000000E+00  0.15609241267E+03  0.15609241267E+03  0.00000000000E+00 0. -1.
         -1   -1    0    0    0  501 -0.00000000000E+00 -0.00000000000E+00 -0.82525042962E+02  0.82525042962E+02  0.00000000000E+00 0.  1.
         23    2    1    2    0    0  0.37790469032E+02  0.20994387695E+02  0.28642868736E+02  0.13541395066E+03  0.12509052818E+03 0.  0.
         23    2    1    2    0    0 -0.37790469032E+02 -0.20994387695E+02  0.44924500973E+02  0.10320350497E+03  0.82242743066E+02 0.  0.
          5    1    3    3  502    0  0.76541899359E+01 -0.52253268160E+02  0.13450817653E+02  0.54656999118E+02  0.41800000000E+01 0.  1.
         -5    1    3    3    0  502  0.30136279096E+02  0.73247655855E+02  0.15192051083E+02  0.80756951541E+02  0.41800000000E+01 0.  1.
        -11    1    4    4    0    0 -0.26841702921E+02 -0.42819237861E+02 -0.17075637253E+01  0.50565600170E+02  0.00000000000E+00 0.  1.
         11    1    4    4    0    0 -0.10948766111E+02  0.21824850166E+02  0.46632064699E+02  0.52637904804E+02  0.00000000000E+00 0. -1.
</event>
<event>
 8    1  0.4798744E-006  0.1957994E+03  0.7561462E-02  0.1153332E+00
         -1   -1    0    0    0  501 -0.00000000000E+00  0.00000000000E+00  0.20295590349E+03  0.20295590349E+03  0.00000000000E+00 0.  1.
          1   -1    0    0  501    0  0.00000000000E+00 -0.00000000000E+00 -0.20786829186E+03  0.20786829186E+03  0.00000000000E+00 0. -1.
         23    2    1    2    0    0  0.16479825502E+03 -0.54284535683E+02 -0.14550256924E+02  0.21439330091E+03  0.12508997492E+03 0.  0.
         23    2    1    2    0    0 -0.16479825502E+03  0.54284535683E+02  0.96378685601E+01  0.19643089444E+03  0.91580194972E+02 0.  0.
          5    1    3    3  502    0  0.18045488893E+02 -0.56835007448E+02 -0.29755568891E+02  0.66773677606E+02  0.41800000000E+01 0. -1.
         -5    1    3    3    0  502  0.14675276612E+03  0.25504717643E+01  0.15205311967E+02  0.14761962330E+03  0.41800000000E+01 0. -1.
        -11    1    4    4    0    0 -0.19624857919E+02 -0.14443345566E+02  0.25205602437E+02  0.35058061465E+02  0.00000000000E+00 0.  1.
         11    1    4    4    0    0 -0.14517339710E+03  0.68727881249E+02 -0.15567733877E+02  0.16137283298E+03  0.00000000000E+00 0. -1.
</event>
<event>
 8    1  0.4798744E-006  0.2183301E+03  0.7561462E-02  0.1135134E+00
          1   -1    0    0  501    0  0.00000000000E+00  0.00000000000E+00  0.50432369891E+03  0.50432369891E+03  0.00000000000E+00 0. -1.
         -1   -1    0    0    0  501 -0.00000000000E+00 -0.00000000000E+00 -0.56872119519E+03  0.56872119519E+03  0.00000000000E+00 0.  1.
         23    2    1    2    0    0  0.21442324204E+02 -0.20189984494E+03 -0.51685681710E+03  0.56878992234E+03  0.12311655338E+03 0.  0.
         23    2    1    2    0    0 -0.21442324204E+02  0.20189984494E+03  0.45245932082E+03  0.50425497177E+03  0.91270580730E+02 0.  0.
          5    1    3    3  502    0  0.44650193891E+02 -0.34212648017E+02 -0.21914991860E+03  0.22629251937E+03  0.41800000000E+01 0. -1.
         -5    1    3    3    0  502 -0.23207869687E+02 -0.16768719692E+03 -0.29770689850E+03  0.34249740297E+03  0.41800000000E+01 0.  1.
        -11    1    4    4    0    0  0.56229379825E+01  0.16530790366E+03  0.40960767746E+03  0.44174287757E+03  0.00000000000E+00 0. -1.
         11    1    4    4    0    0 -0.27065262186E+02  0.36591941275E+02  0.42851643358E+02  0.62512094206E+02  0.00000000000E+00 0.  1.
</event>
<event>
 8    1  0.4798744E-006  0.8009469E+02  0.7561462E-02  0.1328783E+00
         -2   -1    0    0    0  501 -0.00000000000E+00  0.00000000000E+00  0.41527001200E+02  0.41527001200E+02  0.00000000000E+00 0.  1.
          2   -1    0    0  501    0  0.00000000000E+00 -0.00000000000E+00 -0.35072284150E+03  0.35072284150E+03  0.00000000000E+00 0. -1.
         23    2    1    2    0    0 -0.46700054172E+02  0.18138109231E+01 -0.21534877912E+03  0.25339019746E+03  0.12508921029E+03 0.  0.
         23    2    1    2    0    0  0.46700054172E+02 -0.18138109231E+01 -0.93847061185E+02  0.13885964524E+03  0.91052431131E+02 0.  0.
          5    1    3    3  502    0 -0.45630138234E+02  0.13320092922E+02 -0.22963811275E+03  0.23454353459E+03  0.41800000000E+01 0.  1.
         -5    1    3    3    0  502 -0.10699159380E+01 -0.11506281999E+02  0.14289333633E+02  0.18846662867E+02  0.41800000000E+01 0.  1.
        -11    1    4    4    0    0 -0.17122059082E+02 -0.26668375304E+02 -0.43658861121E+02  0.53948709928E+02  0.00000000000E+00 0. -1.
         11    1    4    4    0    0  0.63822113254E+02  0.24854564381E+02 -0.50188200064E+02  0.84910935317E+02  0.00000000000E+00 0.  1.
</event>
<event>
 8    1  0.4798744E-006  0.1774954E+03  0.7561462E-02  0.1170249E+00
          2   -1    0    0  501    0  0.00000000000E+00  0.00000000000E+00  0.44679815946E+03  0.44679815946E+03  0.00000000000E+00 0. -1.
         -2   -1    0    0    0  501 -0.00000000000E+00 -0.00000000000E+00 -0.80385535161E+02  0.80385535161E+02  0.00000000000E+00 0.  1.
         23    2    1    2    0    0  0.68937876105E+02 -0.13252407319E+03  0.13845672085E+03  0.23902500664E+03  0.12509048530E+03 0.  0.
         23    2    1    2    0    0 -0.68937876105E+02  0.13252407319E+03  0.22795590345E+03  0.28815868798E+03  0.93576037570E+02 0.  0.
          5    1    3    3  502    0 -0.30056666015E+02 -0.15182697971E+02  0.53944086266E+02  0.63728755932E+02  0.41800000000E+01 0.  1.
         -5    1    3    3    0  502  0.98994542120E+02 -0.11734137522E+03  0.84512634587E+02  0.17529625071E+03  0.41800000000E+01 0.  1.
        -11    1    4    4    0    0  0.74815946044E+01  0.65220645225E+02  0.47772236534E+02  0.81190476072E+02  0.00000000000E+00 0.  1.
         11    1    4    4    0    0 -0.76419470710E+02  0.67303427963E+02  0.18018366691E+03  0.20696821191E+03  0.00000000000E+00 0. -1.
</event>
<event>
 8    1  0.4798744E-006  0.8928016E+02  0.7561462E-02  0.1304604E+00
          3   -1    0    0  501    0  0.00000000000E+00  0.00000000000E+00  0.26021720683E+03  0.26021720683E+03  0.00000000000E+00 0. -1.
         -3   -1    0    0    0  501 -0.00000000000E+00 -0.00000000000E+00 -0.57545829568E+02  0.57545829568E+02  0.00000000000E+00 0.  1.
         23    2    1    2    0    0  0.49743471888E+02  0.40056849533E+01  0.81570794117E+02  0.15745472367E+03  0.12509091511E+03 0.  0.
         23    2    1    2    0    0 -0.49743471888E+02 -0.40056849533E+01  0.12110058315E+03  0.16030831274E+03  0.92428055190E+02 0.  0.
          5    1    3    3  502    0  0.31312884562E+02 -0.31307723508E+02  0.10288302417E+03  0.11208505410E+03  0.41800000000E+01 0.  1.
         -5    1    3    3    0  502  0.18430587326E+02  0.35313408461E+02 -0.21312230053E+02  0.45369669562E+02  0.41800000000E+01 0.  1.
        -11    1    4    4    0    0  0.15739413002E+02  0.18956937447E+02  0.51383285073E+01  0.25169366676E+02  0.00000000000E+00 0.  1.
         11    1    4    4    0    0 -0.65482884889E+02 -0.22962622400E+02  0.11596225464E+03  0.13513894606E+03  0.00000000000E+00 0. -1.
</event>
<event>
 8    1  0.4798744E-006  0.1503871E+03  0.7561462E-02  0.1199998E+00
          1   -1    0    0  501    0  0.00000000000E+00  0.00000000000E+00  0.49941185104E+03  0.49941185104E+03  0.00000000000E+00 0. -1.
         -1   -1    0    0    0  501 -0.00000000000E+00 -0.00000000000E+00 -0.74171782234E+02  0.74171782234E+02  0.00000000000E+00 0.  1.
         23    2    1    2    0    0  0.50620975362E+01  0.12236540551E+03  0.71599379000E+02  0.18913642867E+03  0.12508876960E+03 0.  0.
         23    2    1    2    0    0 -0.50620975362E+01 -0.12236540551E+03  0.35364068980E+03  0.38444720460E+03  0.87971576890E+02 0.  0.
          5    1    3    3  502    0 -0.44709063624E+02  0.83104367489E+02  0.81598881750E+02  0.12482422108E+03  0.41800000000E+01 0. -1.
         -5    1    3    3    0  502  0.49771161160E+02  0.39261038025E+02 -0.99995027500E+01  0.64312207592E+02  0.41800000000E+01 0. -1.
        -11    1    4    4    0    0  0.32887673073E+02 -0.76393720392E+02  0.14193445777E+03  0.16450832762E+03  0.00000000000E+00 0.  1.
         11    1    4    4    0    0 -0.37949770609E+02 -0.45971685122E+02  0.21170623203E+03  0.21993887697E+03  0.00000000000E+00 0. -1.
</event>
<event>
 7    1  0.4798744E-006  0.1127141E+03  0.7561462E-02  0.1255625E+00
         -2   -1    0    0    0  501 -0.00000000000E+00  0.00000000000E+00  0.55196081583E+03  0.55196081583E+03  0.00000000000E+00 0.  1.
          2   -1    0    0  501    0  0.00000000000E+00 -0.00000000000E+00 -0.19933518641E+03  0.19933518641E+03  0.00000000000E+00 0. -1.
         23    2    1    2    0    0  0.28917953587E+01 -0.12683517812E+02 -0.17695146123E+03  0.20116073121E+03  0.94787056326E+02 0.  0.
          5    1    1    2  502    0 -0.45043303972E+02 -0.43873266236E+02  0.37388926441E+03  0.37916278452E+03  0.41800000000E+01 0. -1.
         -5    1    1    2    0  502  0.42151508613E+02  0.56556784047E+02  0.15568782624E+03  0.17097248650E+03  0.41800000000E+01 0.  1.
        -11    1    3    3    0    0  0.46153128415E+02  0.16311270585E+01 -0.11753473439E+03  0.12628216670E+03  0.00000000000E+00 0. -1.
         11    1    3    3    0    0 -0.43261333056E+02 -0.14314644870E+02 -0.59416726835E+02  0.74878564512E+02  0.00000000000E+00 0.  1.
</event>
<event>
 8    1  0.4798744E-006  0.1810075E+03  0.7561462E-02  0.1166832E+00
         -1   -1    0    0    0  501 -0.00000000000E+00  0.00000000000E+00  0.97876542583E+02  0.97876542583E+02  0.00000000000E+00 0.  1.
          1   -1    0    0  501    0  0.00000000000E+00 -0.00000000000E+00 -0.41520037924E+03  0.41520037924E+03  0.00000000000E+00 0. -1.
         23    2    1    2    0    0 -0.16453587762E+03  0.37292681322E+01 -0.11699767749E+03  0.23753378787E+03  0.12509149203E+03 0.  0.
         23    2    1    2    0    0  0.16453587762E+03 -0.37292681322E+01 -0.20032615917E+03  0.27554313395E+03  0.93313911905E+02 0.  0.
          5    1    3    3  502    0 -0.96832041368E+02  0.31136919508E+02 -0.12800450965E+03  0.16354992780E+03  0.41800000000E+01 0.  1.
         -5    1    3    3    0  502 -0.67703836252E+02 -0.27407651375E+02  0.11006832163E+02  0.73983860074E+02  0.41800000000E+01 0.  1.
        -11    1    4    4    0    0  0.82831508286E+02  0.42583043629E+02 -0.79100488420E+02  0.12219354172E+03  0.00000000000E+00 0.  1.
         11    1    4    4    0    0  0.81704369334E+02 -0.46312311761E+02 -0.12122567075E+03  0.15334959223E+03  0.00000000000E+00 0. -1.
</event>
<event>
 8    1  0.4798744E-006  0.9899896E+02  0.7561462E-02  0.1282415E+00
          2   -1    0    0  501    0  0.00000000000E+00  0.00000000000E+00  0.41873026963E+03  0.41873026963E+03  0.00000000000E+00 0. -1.
         -2   -1    0    0    0  501 -0.00000000000E+00 -0.00000000000E+00 -0.30439024238E+02  0.30439024238E+02  0.00000000000E+00 0.  1.
         23    2    1    2    0    0 -0.23953683930E+02  0.21513558564E+02  0.19496509804E+03  0.23388633608E+03  0.12511920947E+03 0.  0.
         23    2    1    2    0    0  0.23953683930E+02 -0.21513558564E+02  0.19332614736E+03  0.21528295779E+03  0.89079405510E+02 0.  0.
          5    1    3    3  502    0  0.35350384036E+02 -0.11671134809E+02  0.13085821618E+02  0.39680929508E+02  0.41800000000E+01 0. -1.
         -5    1    3    3    0  502 -0.59304067966E+02  0.33184693373E+02  0.18187927642E+03  0.19420540657E+03  0.41800000000E+01 0. -1.
        -11    1    4    4    0    0 -0.29914316537E+02 -0.24256987877E+02  0.58195601591E+02  0.69785355479E+02  0.00000000000E+00 0.  1.
         11    1    4    4    0    0  0.53868000467E+02  0.27434293131E+01  0.13513054577E+03  0.14549760231E+03  0.00000000000E+00 0. -1.
</event>
<event>
 8    1  0.4798744E-006  0.2535612E+03  0.7561462E-02  0.1111075E+00
         -2   -1    0    0    0  501 -0.00000000000E+00  0.00000000000E+00  0.83656456475E+02  0.83656456475E+02  0.00000000000E+00 0.  1.
          2   -1    0    0  501    0  0.00000000000E+00 -0.00000000000E+00 -0.10777200642E+04  0.10777200642E+04  0.00000000000E+00 0. -1.
         23    2    1    2    0    0  0.11529845188E+03 -0.21000953545E+03 -0.22796697557E+03  0.35357413759E+03  0.12509192955E+03 0.  0.
         23    2    1    2    0    0 -0.11529845188E+03  0.21000953545E+03 -0.76609663218E+03  0.80780238311E+03  0.90790430860E+02 0.  0.
          5    1    3    3  502    0  0.84882396747E+02 -0.21375979254E+03 -0.22616249812E+03  0.32259141052E+03  0.41800000000E+01 0. -1.
         -5    1    3    3    0  502  0.30416055130E+02  0.37502570959E+01 -0.18044774539E+01  0.30982727072E+02  0.41800000000E+01 0. -1.
        -11    1    4    4    0    0 -0.48845017867E+02  0.38403099349E+02 -0.30646662000E+03  0.31270181161E+03  0.00000000000E+00 0. -1.
         11    1    4    4    0    0 -0.66453434010E+02  0.17160643610E+03 -0.45963001218E+03  0.49510057150E+03  0.00000000000E+00 0.  1.
</event>
<event>
 8    1  0.4798744E-006  0.9259808E+02  0.7561462E-02  0.1296679E+00
         -1   -1    0    0    0  501 -0.00000000000E+00  0.00000000000E+00  0.13629543252E+03  0.13629543252E+03  0.00000000000E+00 0.  1.
          1   -1    0    0  501    0  0.00000000000E+00 -0.00000000000E+00 -0.92148455764E+02  0.92148455764E+02  0.00000000000E+00 0. -1.
         23    2    1    2    0    0 -0.23122273296E+02  0.27636071213E+01  0.11122209892E+02  0.12772013787E+03  0.12508578264E+03 0.  0.
         23    2    1    2    0    0  0.23122273296E+02 -0.27636071213E+01  0.33024766861E+02  0.10072375041E+03  0.92262460531E+02 0.  0.
          5    1    3    3  502    0  0.90934679684E+00  0.43078608735E+02 -0.39470548343E+02  0.58583188959E+02  0.41800000000E+01 0. -1.
         -5    1    3    3    0  502 -0.24031620093E+02 -0.40315001613E+02  0.50592758235E+02  0.69136948915E+02  0.41800000000E+01 0. -1.
        -11    1    4    4    0    0  0.33435259314E+02  0.39229469989E+02  0.22368549928E+02  0.56189144031E+02  0.00000000000E+00 0.  1.
         11    1    4    4    0    0 -0.10312986018E+02 -0.41993077111E+02  0.10656216933E+02  0.44534606377E+02  0.00000000000E+00 0. -1.
</event>
<event>
 8    1  0.4798744E-006  0.9763608E+02  0.7561462E-02  0.1285347E+00
          2   -1    0    0  501    0  0.00000000000E+00  0.00000000000E+00  0.74457966290E+03  0.74457966290E+03  0.00000000000E+00 0. -1.
         -2   -1    0    0    0  501 -0.00000000000E+00 -0.00000000000E+00 -0.16959445016E+02  0.16959445016E+02  0.00000000000E+00 0.  1.
         23    2    1    2    0    0 -0.29655422585E+02 -0.78549950108E+01  0.40895776579E+03  0.42875912373E+03  0.12508711743E+03 0.  0.
         23    2    1    2    0    0  0.29655422585E+02  0.78549950108E+01  0.31866245210E+03  0.33277998419E+03  0.90860411973E+02 0.  0.
          5    1    3    3  502    0  0.39061460152E+02  0.26461656183E+02  0.21390326654E+03  0.21908467941E+03  0.41800000000E+01 0. -1.
         -5    1    3    3    0  502 -0.68716882738E+02 -0.34316651194E+02  0.19505449925E+03  0.20967444431E+03  0.41800000000E+01 0. -1.
        -11    1    4    4    0    0  0.46695384946E+02  0.19225763668E+02  0.30250069771E+03  0.30668674748E+03  0.00000000000E+00 0. -1.
         11    1    4    4    0    0 -0.17039962361E+02 -0.11370768657E+02  0.16161754390E+02  0.26093236712E+02  0.00000000000E+00 0.  1.
</event>
<event>
 8    1  0.4798744E-006  0.1002377E+03  0.7561462E-02  0.1279797E+00
          2   -1    0    0  501    0  0.00000000000E+00  0.00000000000E+00  0.32964267610E+03  0.32964267610E+03  0.00000000000E+00 0.  1.
         -2   -1    0    0    0  501 -0.00000000000E+00 -0.00000000000E+00 -0.84712278851E+02  0.84712278851E+02  0.00000000000E+00 0. -1.
         23    2    1    2    0    0 -0.11122317711E+02  0.94138591006E+01 -0.26677370170E+02  0.12873160966E+03  0.12509124091E+03 0.  0.
         23    2    1    2    0    0  0.11122317711E+02 -0.94138591006E+01  0.27160776742E+03  0.28562334529E+03  0.87164151803E+02 0.  0.
          5    1    3    3  502    0 -0.63470670080E+02 -0.18690509191E+02 -0.11798936060E+02  0.67339055431E+02  0.41800000000E+01 0.  1.
         -5    1    3    3    0  502  0.52348352369E+02  0.28104368292E+02 -0.14878434110E+02  0.61392554226E+02  0.41800000000E+01 0.  1.
        -11    1    4    4    0    0 -0.22400204952E+02  0.19991567399E+02  0.41425258328E+02  0.51161352371E+02  0.00000000000E+00 0. -1.
         11    1    4    4    0    0  0.33522522663E+02 -0.29405426499E+02  0.23018250909E+03  0.23446199292E+03  0.00000000000E+00 0.  1.
</event>
<event>
 8    1  0.4798744E-006  0.9544609E+02  0.7561462E-02  0.1290175E+00
          1   -1    0    0  501    0  0.00000000000E+00  0.00000000000E+00  0.41275720079E+03  0.41275720079E+03  0.00000000000E+00 0. -1.
         -1   -1    0    0    0  501 -0.00000000000E+00 -0.00000000000E+00 -0.41360789355E+02  0.41360789355E+02  0.00000000000E+00 0.  1.
         23    2    1    2    0    0 -0.17781177638E+02  0.67133499238E+02  0.16307154037E+03  0.21693956153E+03  0.12508944432E+03 0.  0.
         23    2    1    2    0    0  0.17781177638E+02 -0.67133499238E+02  0.20832487107E+03  0.23717842862E+03  0.89617398410E+02 0.  0.
          5    1    3    3  502    0 -0.20242249089E+02  0.45756198731E-01  0.14611846885E+03  0.14757313469E+03  0.41800000000E+01 0.  1.
         -5    1    3    3    0  502  0.24610714503E+01  0.67087743039E+02  0.16953071513E+02  0.69366426840E+02  0.41800000000E+01 0.  1.
        -11    1    4    4    0    0  0.93470966528E+01 -0.83779440244E+02  0.11843870866E+03  0.14537568756E+03  0.00000000000E+00 0.  1.
         11    1    4    4    0    0  0.84340809855E+01  0.16645941006E+02  0.89886162404E+02  0.91802741058E+02  0.00000000000E+00 0. -1.
</event>
<event>
 8    1  0.4798744E-006  0.9302255E+02  0.7561462E-02  0.1295693E+00
         -3   -1    0    0    0  501 -0.00000000000E+00  0.00000000000E+00  0.50515889816E+03  0.50515889816E+03  0.00000000000E+00 0.  1.
          3   -1    0    0  501    0  0.00000000000E+00 -0.00000000000E+00 -0.25530116827E+02  0.25530116827E+02  0.00000000000E+00 0. -1.
         23    2    1    2    0    0  0.90188923556E+01  0.32007133583E+02  0.28869425664E+03  0.31638160004E+03  0.12508855265E+03 0.  0.
         23    2    1    2    0    0 -0.90188923556E+01 -0.32007133583E+02  0.19093452469E+03  0.21430741495E+03  0.91465175688E+02 0.  0.
          5    1    3    3  502    0 -0.38666092395E+02  0.15003844215E+02  0.24748268481E+03  0.25096879034E+03  0.41800000000E+01 0.  1.
         -5    1    3    3    0  502  0.47684984751E+02  0.17003289368E+02  0.41211571829E+02  0.65412809698E+02  0.41800000000E+01 0.  1.
        -11    1    4    4    0    0 -0.19103059922E+01 -0.62359215098E+02  0.15284484228E+03  0.16508745194E+03  0.00000000000E+00 0.  1.
         11    1    4    4    0    0 -0.71085863633E+01  0.30352081515E+02  0.38089682411E+02  0.49219963008E+02  0.00000000000E+00 0. -1.
</event>
<event>
 8    1  0.4798744E-006  0.3022411E+03  0.7561462E-02  0.1084126E+00
         -1   -1    0    0    0  501 -0.00000000000E+00  0.00000000000E+00  0.25448828293E+03  0.25448828293E+03  0.00000000000E+00 0.  1.
          1   -1    0    0  501    0  0.00000000000E+00 -0.00000000000E+00 -0.77164235833E+03  0.77164235833E+03  0.00000000000E+00 0. -1.
         23    2    1    2    0    0  0.23130907209E+03 -0.19093118766E+03  0.94835380281E+02  0.33852727297E+03  0.12509340484E+03 0.  0.
         23    2    1    2    0    0 -0.23130907209E+03  0.19093118766E+03 -0.61198945568E+03  0.68760336829E+03  0.91152032098E+02 0.  0.
          5    1    3    3  502    0  0.39670472830E+02 -0.52145769977E+02 -0.28606408318E+02  0.71615129253E+02  0.41800000000E+01 0. -1.
         -5    1    3    3    0  502  0.19163859927E+03 -0.13878541769E+03  0.12344178860E+03  0.26691214372E+03  0.41800000000E+01 0. -1.
        -11    1    4    4    0    0 -0.35355291767E+02  0.48082564768E+02 -0.59668033836E+02  0.84393151100E+02  0.00000000000E+00 0.  1.
         11    1    4    4    0    0 -0.19595378033E+03  0.14284862290E+03 -0.55232142185E+03  0.60321021719E+03  0.00000000000E+00 0. -1.
</event>
<event>
 8    1  0.4798744E-006  0.1004252E+03  0.7561462E-02  0.1279404E+00
          1   -1    0    0  501    0  0.00000000000E+00  0.00000000000E+00  0.76118805225E+02  0.76118805225E+02  0.00000000000E+00 0. -1.
         -1   -1    0    0    0  501 -0.00000000000E+00 -0.00000000000E+00 -0.25816557706E+03  0.25816557706E+03  0.00000000000E+00 0.  1.
         23    2    1    2    0    0 -0.63623958883E+02  0.39606139269E+02 -0.15454090738E+03  0.21248067834E+03  0.12509393352E+03 0.  0.
         23    2    1    2    0    0  0.63623958883E+02 -0.39606139269E+02 -0.27505864454E+02  0.12180370394E+03  0.91994104719E+02 0.  0.
          5    1    3    3  502    0 -0.58533607483E+02  0.61058059757E+02 -0.16668557407E+03  0.18696476371E+03  0.41800000000E+01 0.  1.
         -5    1    3    3    0  502 -0.50903513996E+01 -0.21451920489E+02  0.12144666696E+02  0.25515914625E+02  0.41800000000E+01 0.  1.
        -11    1    4    4    0    0  0.58178234431E+02 -0.46693218690E+01  0.20781507373E+02  0.61954665498E+02  0.00000000000E+00 0. -1.
         11    1    4    4    0    0  0.54457244520E+01 -0.34936817400E+02 -0.48287371827E+02  0.59849038445E+02  0.00000000000E+00 0.  1.
</event>
<event>
 8    1  0.4798744E-006  0.2256893E+03  0.7561462E-02  0.1129711E+00
          1   -1    0    0  501    0  0.00000000000E+00  0.00000000000E+00  0.47518896728E+03  0.47518896728E+03  0.00000000000E+00 0. -1.
         -1   -1    0    0    0  501 -0.00000000000E+00 -0.00000000000E+00 -0.17430425928E+03  0.17430425928E+03  0.00000000000E+00 0.  1.
         23    2    1    2    0    0  0.17733110191E+03 -0.98912783232E+02 -0.40296142850E+02  0.24187114082E+03  0.12509121169E+03 0.  0.
         23    2    1    2    0    0 -0.17733110191E+03  0.98912783232E+02  0.34118085085E+03  0.40762208575E+03  0.92311068752E+02 0.  0.
          5    1    3    3  502    0 -0.11481913233E+02 -0.37747843903E+02 -0.11250911814E+02  0.41240628844E+02  0.41800000000E+01 0. -1.
         -5    1    3    3    0  502  0.18881301514E+03 -0.61164939329E+02 -0.29045231036E+02  0.20063051197E+03  0.41800000000E+01 0. -1.
        -11    1    4    4    0    0 -0.96955379860E+01 -0.94792669651E+01  0.15227322154E+01  0.13644730574E+02  0.00000000000E+00 0.  1.
         11    1    4    4    0    0 -0.16763556392E+03  0.10839205020E+03  0.33965811864E+03  0.39397735518E+03  0.00000000000E+00 0. -1.
</event>
<event>
 8    1  0.4798744E-006  0.1853943E+03  0.7561462E-02  0.1162682E+00
          1   -1    0    0  501    0  0.00000000000E+00  0.00000000000E+00  0.23486138174E+03  0.23486138174E+03  0.00000000000E+00 0. -1.
         -1   -1    0    0    0  501 -0.00000000000E+00 -0.00000000000E+00 -0.17168051318E+03  0.17168051318E+03  0.00000000000E+00 0.  1.
         23    2    1    2    0    0  0.15063730013E+03 -0.70334998897E+02  0.62552557909E+02  0.21725166427E+03  0.12508738892E+03 0.  0.
         23    2    1    2    0    0 -0.15063730013E+03  0.70334998897E+02  0.62831064705E+00  0.18929023065E+03  0.90508498977E+02 0.  0.
          5    1    3    3  502    0  0.58482633965E+02  0.16788940788E+02 -0.21931007057E+02  0.64811484158E+02  0.41800000000E+01 0.  1.
         -5    1    3    3    0  502  0.92154666163E+02 -0.87123939686E+02  0.84483564966E+02  0.15244018011E+03  0.41800000000E+01 0.  1.
        -11    1    4    4    0    0 -0.96879122178E+02  0.32341914822E+01 -0.23986425803E+02  0.99856762071E+02  0.00000000000E+00 0.  1.
         11    1    4    4    0    0 -0.53758177950E+02  0.67100807415E+02  0.24614736450E+02  0.89433468583E+02  0.00000000000E+00 0. -1.
</event>
<event>
 8    1  0.4798744E-006  0.1265473E+03  0.7561462E-02  0.1232671E+00
          2   -1    0    0  501    0  0.00000000000E+00  0.00000000000E+00  0.63746922771E+03  0.63746922771E+03  0.00000000000E+00 0. -1.
         -2   -1    0    0    0  501 -0.00000000000E+00 -0.00000000000E+00 -0.26273692549E+02  0.26273692549E+02  0.00000000000E+00 0.  1.
         23    2    1    2    0    0 -0.40083260499E+02 -0.49498512899E+02  0.28339814599E+03  0.31625769716E+03  0.12509057241E+03 0.  0.
         23    2    1    2    0    0  0.40083260499E+02  0.49498512899E+02  0.32779738917E+03  0.34748522310E+03  0.96114938373E+02 0.  0.
          5    1    3    3  502    0 -0.99358959736E+01 -0.89422789245E+02  0.17619657824E+03  0.19788346027E+03  0.41800000000E+01 0. -1.
         -5    1    3    3    0  502 -0.30147364525E+02  0.39924276346E+02  0.10720156776E+03  0.11837423689E+03  0.41800000000E+01 0. -1.
        -11    1    4    4    0    0  0.10410298661E+02 -0.27981022623E+02  0.58206592314E+02  0.65416506587E+02  0.00000000000E+00 0.  1.
         11    1    4    4    0    0  0.29672961838E+02  0.77479535522E+02  0.26959079685E+03  0.28206871652E+03  0.00000000000E+00 0. -1.
</event>
<event>
 8    1  0.4798744E-006  0.1497737E+03  0.7561462E-02  0.1200751E+00
         -2   -1    0    0    0  501 -0.00000000000E+00  0.00000000000E+00  0.90825210237E+02  0.90825210237E+02  0.00000000000E+00 0.  1.
          2   -1    0    0  501    0  0.00000000000E+00 -0.00000000000E+00 -0.32364839698E+03  0.32364839698E+03  0.00000000000E+00 0. -1.
         23    2    1    2    0    0 -0.12611966248E+03  0.40215917020E+02 -0.11777587695E+03  0.21688322206E+03  0.12507471996E+03 0.  0.
         23    2    1    2    0    0  0.12611966248E+03 -0.40215917020E+02 -0.11504730979E+03  0.19759038515E+03  0.91008722489E+02 0.  0.
          5    1    3    3  502    0 -0.12183107066E+03  0.60261391526E+02 -0.13361493120E+03  0.19064277413E+03  0.41800000000E+01 0. -1.
         -5    1    3    3    0  502 -0.42885918203E+01 -0.20045474506E+02  0.15839054252E+02  0.26240447930E+02  0.41800000000E+01 0. -1.
        -11    1    4    4    0    0  0.55295053173E+02  0.95065771414E+01 -0.92466099575E+02  0.10815681895E+03  0.00000000000E+00 0. -1.
         11    1    4    4    0    0  0.70824609310E+02 -0.49722494161E+02 -0.22581210213E+02  0.89433566206E+02  0.00000000000E+00 0.  1.
</event>
<event>
 8    1  0.4798744E-006  0.9616545E+02  0.7561462E-02  0.1288573E+00
          1   -1    0    0  501    0  0.00000000000E+00  0.00000000000E+00  0.31309281853E+03  0.31309281853E+03  0.00000000000E+00 0. -1.
         -1   -1    0    0    0  501 -0.00000000000E+00 -0.00000000000E+00 -0.42207933501E+02  0.42207933501E+02  0.00000000000E+00 0.  1.
         23    2    1    2    0    0  0.28568466396E+01  0.26718448227E+02  0.12057332229E+03  0.17580556961E+03  0.12509050807E+03 0.  0.
         23    2    1    2    0    0 -0.28568466396E+01 -0.26718448227E+02  0.15031156273E+03  0.17949518241E+03  0.94355273145E+02 0.  0.
          5    1    3    3  502    0  0.17384093612E+01 -0.42774541535E+02  0.90021701291E+02  0.99770048482E+02  0.41800000000E+01 0. -1.
         -5    1    3    3    0  502  0.11184372784E+01  0.69492989762E+02  0.30551621003E+02  0.76035521133E+02  0.41800000000E+01 0. -1.
        -11    1    4    4    0    0  0.35911921416E+02 -0.16940822503E+02  0.22637185831E+02  0.45706670730E+02  0.00000000000E+00 0.  1.
         11    1    4    4    0    0 -0.38768768056E+02 -0.97776257240E+01  0.12767437690E+03  0.13378851168E+03  0.00000000000E+00 0. -1.
</event>
<event>
 8    1  0.4798744E-006  0.1005467E+03  0.7561462E-02  0.1279150E+00
         -4   -1    0    0    0  501 -0.00000000000E+00  0.00000000000E+00  0.71216732952E+02  0.71216732952E+02  0.00000000000E+00 0.  1.
          4   -1    0    0  501    0  0.00000000000E+00 -0.00000000000E+00 -0.17025209407E+03  0.17025209407E+03  0.00000000000E+00 0. -1.
         23    2    1    2    0    0  0.17913683008E+02  0.21410953442E+02 -0.43306096482E+02  0.13528595631E+03  0.12509013957E+03 0.  0.
         23    2    1    2    0    0 -0.17913683008E+02 -0.21410953442E+02 -0.55729264632E+02  0.10618287070E+03  0.85963492996E+02 0.  0.
          5    1    3    3  502    0 -0.43168851594E+02 -0.64412114892E+01  0.14926831269E+02  0.46317617007E+02  0.41800000000E+01 0. -1.
         -5    1    3    3    0  502  0.61082534602E+02  0.27852164931E+02 -0.58232927751E+02  0.88968339308E+02  0.41800000000E+01 0. -1.
        -11    1    4    4    0    0  0.33433350702E+02 -0.19277392548E+02 -0.19005674351E+02  0.43018861679E+02  0.00000000000E+00 0.  1.
         11    1    4    4    0    0 -0.51347033710E+02 -0.21335608936E+01 -0.36723590281E+02  0.63164009024E+02  0.00000000000E+00 0. -1.
</event>
<event>
 8    1  0.4798744E-006  0.1149967E+03  0.7561462E-02  0.1251587E+00
         -2   -1    0    0    0  501 -0.00000000000E+00  0.00000000000E+00  0.46527520532E+02  0.46527520532E+02  0.00000000000E+00 0.  1.
          2   -1    0    0  501    0  0.00000000000E+00 -0.00000000000E+00 -0.34983928040E+03  0.34983928040E+03  0.00000000000E+00 0. -1.
         23    2    1    2    0    0  0.39725415277E+02  0.24474335755E+02 -0.94970948760E+02  0.16384380272E+03  0.12509280096E+03 0.  0.
         23    2    1    2    0    0 -0.39725415277E+02 -0.24474335755E+02 -0.20834081111E+03  0.23252299821E+03  0.92108356803E+02 0.  0.
          5    1    3    3  502    0  0.43407701426E+02 -0.43277844168E+02 -0.25126756741E+02  0.66377907795E+02  0.41800000000E+01 0. -1.
         -5    1    3    3    0  502 -0.36822861483E+01  0.67752179923E+02 -0.69844192019E+02  0.97465894929E+02  0.41800000000E+01 0. -1.
        -11    1    4    4    0    0 -0.61251462054E+02 -0.40766712746E+02 -0.12646790673E+03  0.14631403865E+03  0.00000000000E+00 0.  1.
         11    1    4    4    0    0  0.21526046776E+02  0.16292376991E+02 -0.81872904373E+02  0.86208959559E+02  0.00000000000E+00 0. -1.
</event>
<event>
 8    1  0.4798744E-006  0.9133857E+02  0.7561462E-02  0.1299642E+00
          2   -1    0    0  501    0  0.00000000000E+00  0.00000000000E+00  0.70343858704E+02  0.70343858704E+02  0.00000000000E+00 0. -1.
         -2   -1    0    0    0  501 -0.00000000000E+00 -0.00000000000E+00 -0.29238179735E+03  0.29238179735E+03  0.00000000000E+00 0.  1.
         23    2    1    2    0    0 -0.65570808022E+02  0.13117889861E+02 -0.20155434922E+03  0.24646129355E+03  0.12508958242E+03 0.  0.
         23    2    1    2    0    0  0.65570808022E+02 -0.13117889861E+02 -0.20483589426E+02  0.11626436250E+03  0.92877417351E+02 0.  0.
          5    1    3    3  502    0 -0.71190938368E+02  0.39044757859E+02 -0.20389133030E+03  0.21950350748E+03  0.41800000000E+01 0.  1.
         -5    1    3    3    0  502  0.56201303460E+01 -0.25926867999E+02  0.23369810825E+01  0.26957786072E+02  0.41800000000E+01 0.  1.
        -11    1    4    4    0    0  0.63545433419E+02 -0.23789345215E+01  0.25861947587E+02  0.68647809658E+02  0.00000000000E+00 0. -1.
         11    1    4    4    0    0  0.20253746034E+01 -0.10738955339E+02 -0.46345537012E+02  0.47616552847E+02  0.00000000000E+00 0.  1.
</event>
<event>
 8    1  0.4798744E-006  0.1092865E+03  0.7561462E-02  0.1261897E+00
          1   -1    0    0  501    0  0.00000000000E+00  0.00000000000E+00  0.14629627151E+03  0.14629627151E+03  0.00000000000E+00 0. -1.
         -1   -1    0    0    0  501 -0.00000000000E+00 -0.00000000000E+00 -0.12878512714E+03  0.12878512714E+03  0.00000000000E+00 0.  1.
         23    2    1    2    0    0  0.87302977522E+00 -0.75757631342E+02 -0.26245258577E+02  0.14858470758E+03  0.12509444768E+03 0.  0.
         23    2    1    2    0    0 -0.87302977522E+00  0.75757631342E+02  0.43756402953E+02  0.12649669107E+03  0.91360873268E+02 0.  0.
          5    1    3    3  502    0  0.26839945565E+02 -0.91399166917E+02 -0.51982539390E+02  0.10859948063E+03  0.41800000000E+01 0.  1.
         -5    1    3    3    0  502 -0.25966915790E+02  0.15641535576E+02  0.25737280813E+02  0.39985226953E+02  0.41800000000E+01 0.  1.
        -11    1    4    4    0    0  0.22716691360E+02  0.60253203439E+02 -0.10588038052E+02  0.65257973772E+02  0.00000000000E+00 0.  1.
         11    1    4    4    0    0 -0.23589721136E+02  0.15504427903E+02  0.54344441006E+02  0.61238717296E+02  0.00000000000E+00 0. -1.
</event>
<event>
 8    1  0.4798744E-006  0.1126734E+03  0.7561462E-02  0.1255698E+00
         -1   -1    0    0    0  501 -0.00000000000E+00  0.00000000000E+00  0.19389621483E+03  0.19389621483E+03  0.00000000000E+00 0.  1.
          1   -1    0    0  501    0  0.00000000000E+00 -0.00000000000E+00 -0.84772255525E+02  0.84772255525E+02  0.00000000000E+00 0. -1.
         23    2    1    2    0    0  0.88611452121E+01  0.45810685169E+02  0.11940055408E+03  0.17910675667E+03  0.12508236967E+03 0.  0.
         23    2    1    2    0    0 -0.88611452121E+01 -0.45810685169E+02 -0.10276594767E+02  0.99561713688E+02  0.87348655756E+02 0.  0.
          5    1    3    3  502    0 -0.50501931948E+02  0.53162437942E+02  0.62375018617E+02  0.96357694482E+02  0.41800000000E+01 0. -1.
         -5    1    3    3    0  502  0.59363077160E+02 -0.73517527726E+01  0.57025535459E+02  0.82749062189E+02  0.41800000000E+01 0. -1.
        -11    1    4    4    0    0 -0.29387716821E+02 -0.60119505732E+02 -0.23917154002E+02  0.71063514725E+02  0.00000000000E+00 0. -1.
         11    1    4    4    0    0  0.20526571609E+02  0.14308820563E+02  0.13640559235E+02  0.28498198964E+02  0.00000000000E+00 0.  1.
</event>
<event>
 7    1  0.4798744E-006  0.7001852E+02  0.7561462E-02  0.1360030E+00
          2   -1    0    0  501    0  0.00000000000E+00  0.00000000000E+00  0.13699281969E+03  0.13699281969E+03  0.00000000000E+00 0.  1.
         -2   -1    0    0    0  501 -0.00000000000E+00 -0.00000000000E+00 -0.51629126561E+02  0.51629126561E+02  0.00000000000E+00 0. -1.
         23    2    1    2    0    0 -0.11336014744E+02  0.14503336159E+02  0.50998571256E+02  0.13468109877E+03  0.12328540914E+03 0.  0.
          5    1    3    3  502    0  0.47566200080E+02 -0.64418824889E+01  0.53471704987E+02  0.71977335838E+02  0.41800000000E+01 0.  1.
         -5    1    3    3    0  502 -0.58902214824E+02  0.20945218648E+02 -0.24731337304E+01  0.62703762932E+02  0.41800000000E+01 0. -1.
        -11    1    1    2    0    0  0.14578949221E+02 -0.24866059658E+00  0.36371054805E+02  0.39184961657E+02  0.00000000000E+00 0.  1.
         11    1    1    2    0    0 -0.32429344769E+01 -0.14254675563E+02 -0.20059329360E+01  0.14755885821E+02  0.00000000000E+00 0. -1.
</event>
<event>
 8    1  0.4798744E-006  0.1450944E+03  0.7561462E-02  0.1206634E+00
         -4   -1    0    0    0  501 -0.00000000000E+00  0.00000000000E+00  0.59629799860E+02  0.59629799860E+02  0.00000000000E+00 0.  1.
          4   -1    0    0  501    0  0.00000000000E+00 -0.00000000000E+00 -0.48546150125E+03  0.48546150125E+03  0.00000000000E+00 0. -1.
         23    2    1    2    0    0  0.12952823221E+03 -0.11343179109E+02 -0.25326870474E+03  0.31096369125E+03  0.12508856790E+03 0.  0.
         23    2    1    2    0    0 -0.12952823221E+03  0.11343179109E+02 -0.17256299664E+03  0.23412760986E+03  0.90174936845E+02 0.  0.
          5    1    3    3  502    0  0.30763085151E+02 -0.14891133119E+02 -0.19100064935E+03  0.19407945204E+03  0.41800000000E+01 0.  1.
         -5    1    3    3    0  502  0.98765147063E+02  0.35479540098E+01 -0.62268055396E+02  0.11688423921E+03  0.41800000000E+01 0.  1.
        -11    1    4    4    0    0 -0.65288230277E+02 -0.38264089973E+02 -0.98809302637E+02  0.12445871557E+03  0.00000000000E+00 0. -1.
         11    1    4    4    0    0 -0.64240001937E+02  0.49607269082E+02 -0.73753694007E+02  0.10966889429E+03  0.00000000000E+00 0.  1.
</event>
<event>
 8    1  0.4798744E-006  0.1620135E+03  0.7561462E-02  0.1186442E+00
          1   -1    0    0  501    0  0.00000000000E+00  0.00000000000E+00  0.43721630853E+03  0.43721630853E+03  0.00000000000E+00 0. -1.
         -1   -1    0    0    0  501 -0.00000000000E+00 -0.00000000000E+00 -0.62921399822E+02  0.62921399822E+02  0.00000000000E+00 0.  1.
         23    2    1    2    0    0  0.28346251819E+02  0.11332417031E+03  0.24426900053E+03  0.29826153693E+03  0.12508685871E+03 0.  0.
         23    2    1    2    0    0 -0.28346251819E+02 -0.11332417031E+03  0.13002590818E+03  0.20187617143E+03  0.10100185257E+03 0.  0.
          5    1    3    3  502    0 -0.26153914515E+02 -0.14827776398E+02  0.29980200909E+02  0.42663509512E+02  0.41800000000E+01 0.  1.
         -5    1    3    3    0  502  0.54500166334E+02  0.12815194671E+03  0.21428879962E+03  0.25559802742E+03  0.41800000000E+01 0.  1.
        -11    1    4    4    0    0  0.30124982916E+02 -0.40225943377E+01  0.23144260714E+02  0.38201474643E+02  0.00000000000E+00 0.  1.
         11    1    4    4    0    0 -0.58471234735E+02 -0.10930157597E+03  0.10688164747E+03  0.16367469678E+03  0.00000000000E+00 0. -1.
</event>
<event>
 8    1  0.4798744E-006  0.1060482E+03  0.7561462E-02  0.1268068E+00
          1   -1    0    0  501    0  0.00000000000E+00  0.00000000000E+00  0.65681907782E+02  0.65681907782E+02  0.00000000000E+00 0. -1.
         -1   -1    0    0    0  501 -0.00000000000E+00 -0.00000000000E+00 -0.25322593960E+03  0.25322593960E+03  0.00000000000E+00 0.  1.
         23    2    1    2    0    0  0.10968109250E+02  0.44641979072E+02 -0.16714073528E+03  0.21376537149E+03  0.12508558247E+03 0.  0.
         23    2    1    2    0    0 -0.10968109250E+02 -0.44641979072E+02 -0.20403296534E+02  0.10514247589E+03  0.92333309327E+02 0.  0.
          5    1    3    3  502    0  0.55475585473E+02  0.25648185710E+02 -0.29869530199E+02  0.68154466090E+02  0.41800000000E+01 0.  1.
         -5    1    3    3    0  502 -0.44507476223E+02  0.18993793362E+02 -0.13727120508E+03  0.14561090540E+03  0.41800000000E+01 0.  1.
        -11    1    4    4    0    0 -0.18964333922E+02  0.25438541287E+02 -0.12741765810E+02  0.34192366690E+02  0.00000000000E+00 0. -1.
         11    1    4    4    0    0  0.79962246723E+01 -0.70080520358E+02 -0.76615307241E+01  0.70950109202E+02  0.00000000000E+00 0.  1.
</event>
<event>
 8    1  0.4798744E-006  0.6724901E+02  0.7561462E-02  0.1369706E+00
         -1   -1    0    0    0  501 -0.00000000000E+00  0.00000000000E+00  0.63591991795E+03  0.63591991795E+03  0.00000000000E+00 0.  1.
          1   -1    0    0  501    0  0.00000000000E+00 -0.00000000000E+00 -0.24376452397E+02  0.24376452397E+02  0.00000000000E+00 0. -1.
         23    2    1    2    0    0  0.47067400793E+02 -0.51686026702E+01  0.44358364007E+03  0.46330419330E+03  0.12506908140E+03 0.  0.
         23    2    1    2    0    0 -0.47067400793E+02  0.51686026702E+01  0.16795982549E+03  0.19699217705E+03  0.91396718595E+02 0.  0.
          5    1    3    3  502    0  0.59633939575E+02  0.15796962555E+02  0.43115445472E+03  0.43556559437E+03  0.41800000000E+01 0.  1.
         -5    1    3    3    0  502 -0.12566538782E+02 -0.20965565225E+02  0.12429185349E+02  0.27738598930E+02  0.41800000000E+01 0.  1.
        -11    1    4    4    0    0 -0.13804459417E+02  0.47605865979E+01 -0.88536258822E+01  0.17076679297E+02  0.00000000000E+00 0. -1.
         11    1    4    4    0    0 -0.33262941376E+02  0.40801607228E+00  0.17681345137E+03  0.17991549775E+03  0.00000000000E+00 0.  1.
</event>
<event>
 8    1  0.4798744E-006  0.1171864E+03  0.7561462E-02  0.1247812E+00
          1   -1    0    0  501    0  0.00000000000E+00  0.00000000000E+00  0.86348145714E+02  0.86348145714E+02  0.00000000000E+00 0. -1.
         -1   -1    0    0    0  501 -0.00000000000E+00 -0.00000000000E+00 -0.24344296474E+03  0.24344296474E+03  0.00000000000E+00 0.  1.
         23    2    1    2    0    0  0.27460285209E+02  0.83427165387E+02 -0.13220751079E+03  0.20209208819E+03  0.12509287354E+03 0.  0.
         23    2    1    2    0    0 -0.27460285209E+02 -0.83427165387E+02 -0.24887308231E+02  0.12769902226E+03  0.89294473439E+02 0.  0.
          5    1    3    3  502    0  0.14592095849E+02  0.93438151044E+02 -0.31170627147E+02  0.99662920530E+02  0.41800000000E+01 0.  1.
         -5    1    3    3    0  502  0.12868189360E+02 -0.10010985657E+02 -0.10103688364E+03  0.10242916766E+03  0.41800000000E+01 0.  1.
        -11    1    4    4    0    0  0.23506842083E+02  0.17989736566E+01 -0.14912386118E+02  0.27896006715E+02  0.00000000000E+00 0.  1.
         11    1    4    4    0    0 -0.50967127291E+02 -0.85226139044E+02 -0.99749221128E+01  0.99803015545E+02  0.00000000000E+00 0. -1.
</event>
<event>
 8    1  0.4798744E-006  0.9813657E+02  0.7561462E-02  0.1284264E+00
          1   -1    0    0  501    0  0.00000000000E+00  0.00000000000E+00  0.47784675092E+03  0.47784675092E+03  0.00000000000E+00 0. -1.
         -1   -1    0    0    0  501 -0.00000000000E+00 -0.00000000000E+00 -0.79242524011E+02  0.79242524011E+02  0.00000000000E+00 0.  1.
         23    2    1    2    0    0 -0.58998071862E+02  0.27527350904E+01 -0.54607754881E+01  0.13842658077E+03  0.12507497016E+03 0.  0.
         23    2    1    2    0    0  0.58998071862E+02 -0.27527350904E+01  0.40406500240E+03  0.41866269416E+03  0.92312378832E+02 0.  0.
          5    1    3    3  502    0 -0.72481042523E+02  0.18312363490E+02 -0.49413709373E+02  0.89710820171E+02  0.41800000000E+01 0. -1.
         -5    1    3    3    0  502  0.13482970661E+02 -0.15559628399E+02  0.43952933885E+02  0.48715760600E+02  0.41800000000E+01 0. -1.
        -11    1    4    4    0    0  0.17076909274E+02 -0.40515539725E+02  0.26441414703E+03  0.26804471817E+03  0.00000000000E+00 0. -1.
         11    1    4    4    0    0  0.41921162589E+02  0.37762804635E+02  0.13965085537E+03  0.15061797600E+03  0.00000000000E+00 0.  1.
</event>
<event>
 7    1  0.4798744E-006  0.1256396E+03  0.7561462E-02  0.1234073E+00
          2   -1    0    0  501    0  0.00000000000E+00  0.00000000000E+00  0.45493757588E+03  0.45493757588E+03  0.00000000000E+00 0. -1.
         -2   -1    0    0    0  501 -0.00000000000E+00 -0.00000000000E+00 -0.48967813969E+02  0.48967813969E+02  0.00000000000E+00 0.  1.
         23    2    1    2    0    0 -0.61127117309E+02 -0.39070917133E+02  0.28962431134E+03  0.31193769769E+03  0.90331746830E+02 0.  0.
          5    1    1    2  502    0  0.15935824369E+02 -0.49832678327E+02  0.46708288306E+02  0.70259397407E+02  0.41800000000E+01 0. -1.
         -5    1    1    2    0  502  0.45191292940E+02  0.88903595460E+02  0.69637162271E+02  0.12170829476E+03  0.41800000000E+01 0.  1.
        -11    1    3    3    0    0 -0.38636222481E+02 -0.57924926288E+02  0.26383651471E+03  0.27286949493E+03  0.00000000000E+00 0. -1.
         11    1    3    3    0    0 -0.22490894829E+02  0.18854009155E+02  0.25787796631E+02  0.39068202755E+02  0.00000000000E+00 0.  1.
</event>
<event>
 8    1  0.4798744E-006  0.1171057E+03  0.7561462E-02  0.1247949E+00
          2   -1    0    0  501    0  0.00000000000E+00  0.00000000000E+00  0.84666141412E+03  0.84666141412E+03  0.00000000000E+00 0. -1.
         -2   -1    0    0    0  501 -0.00000000000E+00 -0.00000000000E+00 -0.30177237861E+02  0.30177237861E+02  0.00000000000E+00 0.  1.
         23    2    1    2    0    0  0.25219810924E+02  0.94806970907E+02  0.26026856593E+03  0.30497809870E+03  0.12509002229E+03 0.  0.
         23    2    1    2    0    0 -0.25219810924E+02 -0.94806970907E+02  0.55621561032E+03  0.57186055328E+03  0.89578382637E+02 0.  0.
          5    1    3    3  502    0  0.72723340673E+00  0.62092877134E+02  0.25625246110E+03  0.26370220037E+03  0.41800000000E+01 0. -1.
         -5    1    3    3    0  502  0.24492577517E+02  0.32714093773E+02  0.40161048318E+01  0.41275898329E+02  0.41800000000E+01 0. -1.
        -11    1    4    4    0    0 -0.53021212886E+02 -0.31306243912E+02  0.31091495235E+03  0.31695336805E+03  0.00000000000E+00 0. -1.
         11    1    4    4    0    0  0.27801401962E+02 -0.63500726995E+02  0.24530065797E+03  0.25490718523E+03  0.00000000000E+00 0.  1.
</event>
<event>
 8    1  0.4798744E-006  0.1795907E+03  0.7561462E-02  0.1168200E+00
         -2   -1    0    0    0  501 -0.00000000000E+00  0.00000000000E+00  0.38016330289E+02  0.38016330289E+02  0.00000000000E+00 0. -1.
          2   -1    0    0  501    0  0.00000000000E+00 -0.00000000000E+00 -0.91644651727E+03  0.91644651727E+03  0.00000000000E+00 0.  1.
         23    2    1    2    0    0 -0.36071782792E+02  0.14745728657E+03 -0.47751675539E+03  0.51644458274E+03  0.12509168832E+03 0.  0.
         23    2    1    2    0    0  0.36071782792E+02 -0.14745728657E+03 -0.40091343159E+03  0.43801826482E+03  0.89908819413E+02 0.  0.
          5    1    3    3  502    0 -0.73911197432E+02  0.95910747334E+02 -0.38713569685E+03  0.40565164457E+03  0.41800000000E+01 0.  1.
         -5    1    3    3    0  502  0.37839414640E+02  0.51546539235E+02 -0.90381058538E+02  0.11079293818E+03  0.41800000000E+01 0.  1.
        -11    1    4    4    0    0  0.60115067470E+02 -0.13282923518E+03 -0.35956709154E+03  0.38800247470E+03  0.00000000000E+00 0. -1.
         11    1    4    4    0    0 -0.24043284677E+02 -0.14628051388E+02 -0.41346340056E+02  0.50015790121E+02  0.00000000000E+00 0.  1.
</event>
<event>
 8    1  0.4798744E-006  0.2053115E+03  0.7561462E-02  0.1145334E+00
          2   -1    0    0  501    0  0.00000000000E+00  0.00000000000E+00  0.24255425592E+03  0.24255425592E+03  0.00000000000E+00 0. -1.
         -2   -1    0    0    0  501 -0.00000000000E+00 -0.00000000000E+00 -0.19637119592E+03  0.19637119592E+03  0.00000000000E+00 0.  1.
         23    2    1    2    0    0  0.17593810734E+03 -0.61449504456E+02  0.56647185305E+02  0.23147622096E+03  0.12506829357E+03 0.  0.
         23    2    1    2    0    0 -0.17593810734E+03  0.61449504456E+02 -0.10464125309E+02  0.20744923088E+03  0.90528593613E+02 0.  0.
          5    1    3    3  502    0  0.23303166456E+02 -0.60350990455E+02  0.43805370055E+02  0.78241053556E+02  0.41800000000E+01 0.  1.
         -5    1    3    3    0  502  0.15263494088E+03 -0.10985140009E+01  0.12841815250E+02  0.15323516741E+03  0.41800000000E+01 0.  1.
        -11    1    4    4    0    0 -0.68601204031E+02 -0.15879257729E+01 -0.40118979987E+02  0.79486975398E+02  0.00000000000E+00 0.  1.
         11    1    4    4    0    0 -0.10733690331E+03  0.63037430229E+02  0.29654854678E+02  0.12796225548E+03  0.00000000000E+00 0. -1.
</event>
<event>
 8    1  0.4798744E-006  0.4886685E+02  0.7561462E-02  0.1451551E+00
          2   -1    0    0  501    0  0.00000000000E+00  0.00000000000E+00  0.19546990983E+03  0.19546990983E+03  0.00000000000E+00 0. -1.
         -2   -1    0    0    0  501 -0.00000000000E+00 -0.00000000000E+00 -0.60668749649E+02  0.60668749649E+02  0.00000000000E+00 0.  1.
         23    2    1    2    0    0  0.58422995248E+01  0.85195887577E+01  0.77381251442E+02  0.14745137826E+03  0.12508930818E+03 0.  0.
         23    2    1    2    0    0 -0.58422995248E+01 -0.85195887577E+01  0.57419908735E+02  0.10868728121E+03  0.91701490293E+02 0.  0.
          5    1    3    3  502    0  0.10115025623E+02  0.25823145093E+02 -0.28507812374E+02  0.39991453240E+02  0.41800000000E+01 0. -1.
         -5    1    3    3    0  502 -0.42727260982E+01 -0.17303556336E+02  0.10588906382E+03  0.10745992502E+03  0.41800000000E+01 0. -1.
        -11    1    4    4    0    0 -0.19834933285E+02  0.14410973148E+02  0.73430380824E+02  0.77415254010E+02  0.00000000000E+00 0. -1.
         11    1    4    4    0    0  0.13992633761E+02 -0.22930561906E+02 -0.16010472089E+02  0.31272027203E+02  0.00000000000E+00 0.  1.
</event>
<event>
 8    1  0.4798744E-006  0.5212688E+03  0.7561462E-02  0.1008372E+00
         -2   -1    0    0    0  501 -0.00000000000E+00  0.00000000000E+00  0.48175889469E+03  0.48175889469E+03  0.00000000000E+00 0.  1.
          2   -1    0    0  501    0  0.00000000000E+00 -0.00000000000E+00 -0.72214230441E+03  0.72214230441E+03  0.00000000000E+00 0. -1.
         23    2    1    2    0    0  0.50187807506E+03 -0.13113089725E+03  0.14054417934E+03  0.55179362992E+03  0.12508648701E+03 0.  0.
         23    2    1    2    0    0 -0.50187807506E+03  0.13113089725E+03 -0.38092758907E+03  0.65210756918E+03  0.10517385240E+03 0.  0.
          5    1    3    3  502    0  0.26427188580E+03 -0.93676696421E+02  0.15949991112E+02  0.28086798980E+03  0.41800000000E+01 0. -1.
         -5    1    3    3    0  502  0.23760618926E+03 -0.37454200830E+02  0.12459418823E+03  0.27092564012E+03  0.41800000000E+01 0. -1.
        -11    1    4    4    0    0 -0.44978826821E+03  0.99690008257E+02 -0.29586532515E+03  0.54752522735E+03  0.00000000000E+00 0.  1.
         11    1    4    4    0    0 -0.52089806850E+02  0.31440888993E+02 -0.85062263919E+02  0.10458234182E+03  0.00000000000E+00 0. -1.
</event>
<event>
 8    1  0.4798744E-006  0.9573655E+02  0.7561462E-02  0.1289526E+00
         -1   -1    0    0    0  501 -0.00000000000E+00  0.00000000000E+00  0.16549099369E+03  0.16549099369E+03  0.00000000000E+00 0.  1.
          1   -1    0    0  501    0  0.00000000000E+00 -0.00000000000E+00 -0.63027466692E+02  0.63027466692E+02  0.00000000000E+00 0. -1.
         23    2    1    2    0    0  0.13634374923E+01 -0.28937446342E+01  0.70306209613E+02  0.13121502404E+03  0.11074378856E+03 0.  0.
         23    2    1    2    0    0 -0.13634374923E+01  0.28937446342E+01  0.32157317390E+02  0.97303436345E+02  0.91780351617E+02 0.  0.
          5    1    3    3  502    0 -0.17518434268E+02 -0.48874342468E+02  0.61445847647E+02  0.80552228299E+02  0.41800000000E+01 0. -1.
         -5    1    3    3    0  502  0.18881871760E+02  0.45980597834E+02  0.88603619663E+01  0.50662795743E+02  0.41800000000E+01 0.  1.
        -11    1    4    4    0    0 -0.25339251675E+02  0.38792481381E+02  0.57309234897E+01  0.46688090250E+02  0.00000000000E+00 0.  1.
         11    1    4    4    0    0  0.23975814182E+02 -0.35898736747E+02  0.26426393900E+02  0.50615346095E+02  0.00000000000E+00 0. -1.
</event>
<event>
 8    1  0.4798744E-006  0.1268342E+03  0.7561462E-02  0.1232230E+00
         -2   -1    0    0    0  501 -0.00000000000E+00  0.00000000000E+00  0.38180010314E+02  0.38180010314E+02  0.00000000000E+00 0.  1.
          2   -1    0    0  501    0  0.00000000000E+00 -0.00000000000E+00 -0.50488122872E+03  0.50488122872E+03  0.00000000000E+00 0. -1.
         23    2    1    2    0    0  0.26950588814E+02  0.81920658631E+02 -0.25369635248E+03  0.29571369089E+03  0.12508964453E+03 0.  0.
         23    2    1    2    0    0 -0.26950588814E+02 -0.81920658631E+02 -0.21300486593E+03  0.24734754815E+03  0.91500864023E+02 0.  0.
          5    1    3    3  502    0 -0.24459048146E+01  0.10748550555E+03 -0.21614035890E+03  0.24143993766E+03  0.41800000000E+01 0. -1.
         -5    1    3    3    0  502  0.29396493629E+02 -0.25564846917E+02 -0.37555993584E+02  0.54273753230E+02  0.41800000000E+01 0. -1.
        -11    1    4    4    0    0  0.12624038661E+02 -0.60677014064E+02 -0.18330877730E+03  0.19350238816E+03  0.00000000000E+00 0.  1.
         11    1    4    4    0    0 -0.39574627475E+02 -0.21243644567E+02 -0.29696088627E+02  0.53845159987E+02  0.00000000000E+00 0. -1.
</event>
<event>
 8    1  0.4798744E-006  0.1355794E+03  0.7561462E-02  0.1219404E+00
         -4   -1    0    0    0  501 -0.00000000000E+00  0.00000000000E+00  0.63560178312E+03  0.63560178312E+03  0.00000000000E+00 0.  1.
          4   -1    0    0  501    0  0.00000000000E+00 -0.00000000000E+00 -0.41740558375E+02  0.41740558375E+02  0.00000000000E+00 0. -1.
         23    2    1    2    0    0  0.66672463793E+02  0.95777988938E+02  0.39085237632E+03  0.42665202703E+03  0.12509089295E+03 0.  0.
         23    2    1    2    0    0 -0.66672463793E+02 -0.95777988938E+02  0.20300884842E+03  0.25069031446E+03  0.89523184903E+02 0.  0.
          5    1    3    3  502    0  0.59498644812E+02  0.17278685143E+02  0.29972289889E+03  0.30608810858E+03  0.41800000000E+01 0.  1.
         -5    1    3    3    0  502  0.71738189815E+01  0.78499303795E+02  0.91129477431E+02  0.12056391845E+03  0.41800000000E+01 0.  1.
        -11    1    4    4    0    0  0.55058754885E+01 -0.35963256145E+02  0.12028665279E+03  0.12566841010E+03  0.00000000000E+00 0.  1.
         11    1    4    4    0    0 -0.72178339282E+02 -0.59814732793E+02  0.82722195629E+02  0.12502190436E+03  0.00000000000E+00 0. -1.
</event>
<event>
 8    1  0.4798744E-006  0.1953677E+03  0.7561462E-02  0.1153707E+00
          1   -1    0    0  501    0  0.00000000000E+00  0.00000000000E+00  0.10080460931E+04  0.10080460931E+04  0.00000000000E+00 0. -1.
         -1   -1    0    0    0  501 -0.00000000000E+00 -0.00000000000E+00 -0.44216673722E+02  0.44216673722E+02  0.00000000000E+00 0.  1.
         23    2    1    2    0    0  0.16148349559E+03 -0.55894458685E+02  0.35502209301E+03  0.41338787537E+03  0.12509092339E+03 0.  0.
         23    2    1    2    0    0 -0.16148349559E+03  0.55894458685E+02  0.60880732635E+03  0.63887489144E+03  0.91179254412E+02 0.  0.
          5    1    3    3  502    0  0.89697480741E+02  0.22375216317E+02  0.23770881568E+03  0.25508673390E+03  0.41800000000E+01 0.  1.
         -5    1    3    3    0  502  0.71786014849E+02 -0.78269675002E+02  0.11731327733E+03  0.15830114147E+03  0.41800000000E+01 0.  1.
        -11    1    4    4    0    0 -0.64595143070E+02 -0.21312188351E+02  0.25876898619E+03  0.26755958232E+03  0.00000000000E+00 0.  1.
         11    1    4    4    0    0 -0.96888352521E+02  0.77206647036E+02  0.35003834017E+03  0.37131530912E+03  0.00000000000E+00 0. -1.
</event>
<event>
 7    1  0.4798744E-006  0.1223881E+03  0.7561462E-02  0.1239209E+00
         -2   -1    0    0    0  501 -0.00000000000E+00  0.00000000000E+00  0.74749352279E+02  0.74749352279E+02  0.00000000000E+00 0.  1.
          2   -1    0    0  501    0  0.00000000000E+00 -0.00000000000E+00 -0.35177724431E+03  0.35177724431E+03  0.00000000000E+00 0. -1.
         23    2    1    2    0    0 -0.15862508107E+02 -0.78558960689E+02 -0.22725991750E+03  0.25720733374E+03  0.89918924351E+02 0.  0.
          5    1    1    2  502    0  0.11477577465E+02 -0.31569495558E+02  0.19511505246E+02  0.39070949198E+02  0.41800000000E+01 0. -1.
         -5    1    1    2    0  502  0.43849306422E+01  0.11012845625E+03 -0.69279479775E+02  0.13024831366E+03  0.41800000000E+01 0.  1.
        -11    1    3    3    0    0 -0.33049657189E+02 -0.17903537195E+02 -0.16264742369E+03  0.16693412149E+03  0.00000000000E+00 0. -1.
         11    1    3    3    0    0  0.17187149082E+02 -0.60655423494E+02 -0.64612493816E+02  0.90273212250E+02  0.00000000000E+00 0.  1.
</event>
<event>
 8    1  0.4798744E-006  0.1175945E+03  0.7561462E-02  0.1247119E+00
         -2   -1    0    0    0  501 -0.00000000000E+00  0.00000000000E+00  0.78661175942E+03  0.78661175942E+03  0.00000000000E+00 0.  1.
          2   -1    0    0  501    0  0.00000000000E+00 -0.00000000000E+00 -0.20744081836E+02  0.20744081836E+02  0.00000000000E+00 0. -1.
         23    2    1    2    0    0 -0.54656686512E+01 -0.62727460366E+02  0.50129938486E+03  0.52049318928E+03  0.12508988373E+03 0.  0.
         23    2    1    2    0    0  0.54656686512E+01  0.62727460366E+02  0.26456829273E+03  0.28686265197E+03  0.91264405788E+02 0.  0.
          5    1    3    3  502    0  0.52433516661E+02 -0.30539017958E+02  0.13283224441E+03  0.14609511574E+03  0.41800000000E+01 0.  1.
         -5    1    3    3    0  502 -0.57899185312E+02 -0.32188442408E+02  0.36846714044E+03  0.37439807354E+03  0.41800000000E+01 0.  1.
        -11    1    4    4    0    0 -0.39451357194E+02  0.44620973129E+02  0.17757631399E+03  0.18729866022E+03  0.00000000000E+00 0.  1.
         11    1    4    4    0    0  0.44917025845E+02  0.18106487237E+02  0.86991978734E+02  0.99563991759E+02  0.00000000000E+00 0. -1.
</event>
<event>
 8    1  0.4798744E-006  0.1540765E+03  0.7561462E-02  0.1195552E+00
         -1   -1    0    0    0  501 -0.00000000000E+00  0.00000000000E+00  0.14268377284E+02  0.14268377284E+02  0.00000000000E+00 0.  1.
          1   -1    0    0  501    0  0.00000000000E+00 -0.00000000000E+00 -0.22927754101E+04  0.22927754101E+04  0.00000000000E+00 0. -1.
         23    2    1    2    0    0 -0.65654764370E+02 -0.12111530621E+03 -0.14837653610E+04  0.14953882116E+04  0.12508713464E+03 0.  0.
         23    2    1    2    0    0  0.65654764370E+02  0.12111530621E+03 -0.79474167182E+03  0.81165557584E+03  0.90504051742E+02 0.  0.
          5    1    3    3  502    0 -0.29242561867E+02 -0.15676293325E+02 -0.92379077516E+03  0.92439587963E+03  0.41800000000E+01 0.  1.
         -5    1    3    3    0  502 -0.36412202503E+02 -0.10543901288E+03 -0.55997458584E+03  0.57099233193E+03  0.41800000000E+01 0.  1.
        -11    1    4    4    0    0  0.52292760041E+02  0.12653479616E+02 -0.20949248830E+03  0.21629088273E+03  0.00000000000E+00 0.  1.
         11    1    4    4    0    0  0.13362004329E+02  0.10846182659E+03 -0.58524918353E+03  0.59536469311E+03  0.00000000000E+00 0. -1.
</event>
<event>
 8    1  0.4798744E-006  0.2136788E+03  0.7561462E-02  0.1138685E+00
         -1   -1    0    0    0  501 -0.00000000000E+00  0.00000000000E+00  0.89156782874E+02  0.89156782874E+02  0.00000000000E+00 0.  1.
          1   -1    0    0  501    0  0.00000000000E+00 -0.00000000000E+00 -0.53356149503E+03  0.53356149503E+03  0.00000000000E+00 0. -1.
         23    2    1    2    0    0 -0.17991853630E+03 -0.57625218185E+02 -0.24024549131E+03  0.33024300772E+03  0.12510476639E+03 0.  0.
         23    2    1    2    0    0  0.17991853630E+03  0.57625218185E+02 -0.20415922084E+03  0.29247527019E+03  0.90385013911E+02 0.  0.
          5    1    3    3  502    0 -0.18158626026E+03 -0.78485675031E+02 -0.18444653353E+03  0.27050243480E+03  0.41800000000E+01 0.  1.
         -5    1    3    3    0  502  0.16677239565E+01  0.20860456846E+02 -0.55798957787E+02  0.59740572922E+02  0.41800000000E+01 0.  1.
        -11    1    4    4    0    0  0.14482135401E+03  0.50150225984E+01 -0.15650014342E+03  0.21328541891E+03  0.00000000000E+00 0. -1.
         11    1    4    4    0    0  0.35097182293E+02  0.52610195587E+02 -0.47659077421E+02  0.79189851276E+02  0.00000000000E+00 0.  1.
</event>
<event>
 8    1  0.4798744E-006  0.1265959E+03  0.7561462E-02  0.1232596E+00
         -4   -1    0    0    0  501 -0.00000000000E+00  0.00000000000E+00  0.23704399870E+03  0.23704399870E+03  0.00000000000E+00 0. -1.
          4   -1    0    0  501    0  0.00000000000E+00 -0.00000000000E+00 -0.10772035836E+03  0.10772035836E+03  0.00000000000E+00 0.  1.
         23    2    1    2    0    0  0.11021249177E+03  0.54217398727E+01  0.11536733996E+03  0.20281435959E+03  0.12509137748E+03 0.  0.
         23    2    1    2    0    0 -0.11021249177E+03 -0.54217398727E+01  0.13956300378E+02  0.14194999747E+03  0.88197703242E+02 0.  0.
          5    1    3    3  502    0  0.85876633313E+02 -0.26753671131E+01  0.14173373436E+03  0.16579468506E+03  0.41800000000E+01 0. -1.
         -5    1    3    3    0  502  0.24335858457E+02  0.80971069858E+01 -0.26366394398E+02  0.37019674525E+02  0.41800000000E+01 0. -1.
        -11    1    4    4    0    0 -0.67589444842E+02 -0.46460294576E+02  0.58041819043E+01  0.82222749612E+02  0.00000000000E+00 0. -1.
         11    1    4    4    0    0 -0.42623046928E+02  0.41038554703E+02  0.81521184739E+01  0.59727247862E+02  0.00000000000E+00 0.  1.
</event>
<event>
 7    1  0.4798744E-006  0.1994714E+03  0.7561462E-02  0.1150186E+00
          2   -1    0    0  501    0  0.00000000000E+00  0.00000000000E+00  0.74985979730E+03  0.74985979730E+03  0.00000000000E+00 0. -1.
         -2   -1    0    0    0  501 -0.00000000000E+00 -0.00000000000E+00 -0.78862822361E+02  0.78862822361E+02  0.00000000000E+00 0.  1.
         23    2    1    2    0    0  0.44140856116E+02 -0.15610868369E+03  0.54212843213E+03  0.57255603434E+03  0.87171321168E+02 0.  0.
          5    1    1    2  502    0  0.52092975094E+02  0.91317407224E+02  0.64913921929E+02  0.12362781474E+03  0.41800000000E+01 0. -1.
         -5    1    1    2    0  502 -0.96233831210E+02  0.64791276470E+02  0.63954620880E+02  0.13253877058E+03  0.41800000000E+01 0.  1.
        -11    1    3    3    0    0  0.41213143644E+02 -0.28753500347E+02  0.23013781001E+03  0.23556039265E+03  0.00000000000E+00 0.  1.
         11    1    3    3    0    0  0.29277124721E+01 -0.12735518335E+03  0.31199062212E+03  0.33699564169E+03  0.00000000000E+00 0. -1.
</event>
<event>
 8    1  0.5946856E-006  0.1235183E+03  0.7561462E-02  0.1237403E+00
         -1   -1    0    0    0  501 -0.00000000000E+00  0.00000000000E+00  0.35747261263E+02  0.35747261263E+02  0.00000000000E+00 0.  1.
          1   -1    0    0  501    0  0.00000000000E+00 -0.00000000000E+00 -0.54736183741E+03  0.54736183741E+03  0.00000000000E+00 0. -1.
         23    2    1    2    0    0 -0.68261819638E+01 -0.87696549045E+02 -0.26450124066E+03  0.30552554481E+03  0.12509065012E+03 0.  0.
         23    2    1    2    0    0  0.68261819638E+01  0.87696549045E+02 -0.24711333548E+03  0.27758355386E+03  0.90831422558E+02 0.  0.
          5    1    3    3  502    0 -0.27280614261E+02 -0.95625510758E+02 -0.10578555253E+03  0.14524643110E+03  0.41800000000E+01 0. -1.
         -5    1    3    3    0  502  0.20454432298E+02  0.79289617133E+01 -0.15871568813E+03  0.16027911372E+03  0.41800000000E+01 0. -1.
        -11    1    4    4    0    0  0.39169424789E+02  0.91401824822E+01 -0.61955648430E+02  0.73866698495E+02  0.00000000000E+00 0. -1.
         11    1    4    4    0    0 -0.32343242825E+02  0.78556366563E+02 -0.18515768705E+03  0.20371685536E+03  0.00000000000E+00 0.  1.
</event>
<event>
 8    1  0.4798744E-006  0.1461090E+03  0.7561462E-02  0.1205337E+00
         -1   -1    0    0    0  501 -0.00000000000E+00  0.00000000000E+00  0.47486573558E+02  0.47486573558E+02  0.00000000000E+00 0.  1.
          1   -1    0    0  501    0  0.00000000000E+00 -0.00000000000E+00 -0.63613579213E+03  0.63613579213E+03  0.00000000000E+00 0. -1.
         23    2    1    2    0    0  0.10684058728E+03  0.59554372648E+02 -0.19820085233E+03  0.26437245010E+03  0.12509028784E+03 0.  0.
         23    2    1    2    0    0 -0.10684058728E+03 -0.59554372648E+02 -0.39044836624E+03  0.41924991559E+03  0.91427187599E+02 0.  0.
          5    1    3    3  502    0  0.69666816342E+02  0.80176573839E+02 -0.65247228216E+02  0.12472538427E+03  0.41800000000E+01 0. -1.
         -5    1    3    3    0  502  0.37173770941E+02 -0.20622201191E+02 -0.13295362412E+03  0.13964706582E+03  0.41800000000E+01 0. -1.
        -11    1    4    4    0    0  0.13069331524E+01 -0.31433551245E+02 -0.37047657015E+02  0.48603550369E+02  0.00000000000E+00 0. -1.
         11    1    4    4    0    0 -0.10814752044E+03 -0.28120821403E+02 -0.35340070923E+03  0.37064636523E+03  0.00000000000E+00 0.  1.
</event>
<event>
 8    1  0.4798744E-006  0.6017772E+02  0.7561462E-02  0.1397087E+00
          2   -1    0    0  501    0  0.00000000000E+00  0.00000000000E+00  0.21819166959E+03  0.21819166959E+03  0.00000000000E+00 0. -1.
         -2   -1    0    0    0  501 -0.00000000000E+00 -0.00000000000E+00 -0.60575562870E+02  0.60575562870E+02  0.00000000000E+00 0.  1.
         23    2    1    2    0    0  0.14752335593E+02  0.12489878690E+02  0.49828217948E+02  0.13596187543E+03  0.12501660606E+03 0.  0.
         23    2    1    2    0    0 -0.14752335593E+02 -0.12489878690E+02  0.10778788877E+03  0.14280535703E+03  0.91659765198E+02 0.  0.
          5    1    3    3  502    0  0.15411978856E+02  0.29025737311E+01  0.91532862206E+02  0.92960697556E+02  0.41800000000E+01 0.  1.
         -5    1    3    3    0  502 -0.65964326355E+00  0.95873049593E+01 -0.41704644258E+02  0.43001177871E+02  0.41800000000E+01 0.  1.
        -11    1    4    4    0    0 -0.20389238676E+02  0.37849179962E+02  0.47674480445E+02  0.64196086822E+02  0.00000000000E+00 0.  1.
         11    1    4    4    0    0  0.56369030829E+01 -0.50339058652E+02  0.60113408327E+02  0.78609270210E+02  0.00000000000E+00 0. -1.
</event>
<event>
 7    1  0.4798744E-006  0.1559715E+03  0.7561462E-02  0.1193321E+00
         -2   -1    0    0    0  501 -0.00000000000E+00  0.00000000000E+00  0.82600207397E+02  0.82600207397E+02  0.00000000000E+00 0.  1.
          2   -1    0    0  501    0  0.00000000000E+00 -0.00000000000E+00 -0.88993660149E+03  0.88993660149E+03  0.00000000000E+00 0. -1.
         23    2    1    2    0    0  0.39082913168E+02  0.12293464469E+03 -0.77058531167E+03  0.78650989730E+03  0.90308886722E+02 0.  0.
          5    1    1    2  502    0  0.40810090600E+02 -0.32897050512E+02 -0.39148848796E+02  0.65557487667E+02  0.41800000000E+01 0. -1.
         -5    1    1    2    0  502 -0.79893003768E+02 -0.90037594176E+02  0.23977663752E+01  0.12046942392E+03  0.41800000000E+01 0.  1.
        -11    1    3    3    0    0  0.12325386117E+02 -0.76790732001E+00 -0.11269314540E+02  0.16718321530E+02  0.00000000000E+00 0.  1.
         11    1    3    3    0    0  0.26757527051E+02  0.12370255201E+03 -0.75931599713E+03  0.76979157577E+03  0.00000000000E+00 0. -1.
</event>
<event>
 8    1  0.4798744E-006  0.1011795E+03  0.7561462E-02  0.1277835E+00
          1   -1    0    0  501    0  0.00000000000E+00  0.00000000000E+00  0.22721468120E+03  0.22721468120E+03  0.00000000000E+00 0. -1.
         -1   -1    0    0    0  501 -0.00000000000E+00 -0.00000000000E+00 -0.81100793271E+02  0.81100793271E+02  0.00000000000E+00 0.  1.
         23    2    1    2    0    0  0.45919462484E+02 -0.11429235622E+01  0.34763488274E+01  0.13330960850E+03  0.12509781536E+03 0.  0.
         23    2    1    2    0    0 -0.45919462484E+02  0.11429235622E+01  0.14263753910E+03  0.17500586597E+03  0.90397357564E+02 0.  0.
          5    1    3    3  502    0 -0.94512909558E+01 -0.54855502101E+02  0.49536701015E+01  0.56039845280E+02  0.41800000000E+01 0.  1.
         -5    1    3    3    0  502  0.55370753440E+02  0.53712578539E+02 -0.14773212741E+01  0.77269763220E+02  0.41800000000E+01 0.  1.
        -11    1    4    4    0    0 -0.32664143410E+02  0.25575996971E+02  0.14591159385E+02  0.43977037394E+02  0.00000000000E+00 0.  1.
         11    1    4    4    0    0 -0.13255319074E+02 -0.24433073408E+02  0.12804637972E+03  0.13102882858E+03  0.00000000000E+00 0. -1.
</event>
<event>
 8    1  0.4798744E-006  0.1258687E+03  0.7561462E-02  0.1233718E+00
          1   -1    0    0  501    0  0.00000000000E+00  0.00000000000E+00  0.58718703979E+03  0.58718703979E+03  0.00000000000E+00 0. -1.
         -1   -1    0    0    0  501 -0.00000000000E+00 -0.00000000000E+00 -0.36999979814E+02  0.36999979814E+02  0.00000000000E+00 0.  1.
         23    2    1    2    0    0  0.91779703968E+02 -0.26097304952E+02  0.24273988254E+03  0.28926513169E+03  0.12508829860E+03 0.  0.
         23    2    1    2    0    0 -0.91779703968E+02  0.26097304952E+02  0.30744717744E+03  0.33492188792E+03  0.92435494849E+02 0.  0.
          5    1    3    3  502    0  0.75595047485E+02 -0.67018191210E+02  0.11024463848E+03  0.14959078137E+03  0.41800000000E+01 0. -1.
         -5    1    3    3    0  502  0.16184656483E+02  0.40920886258E+02  0.13249524406E+03  0.13967435031E+03  0.41800000000E+01 0. -1.
        -11    1    4    4    0    0 -0.28277907834E+02  0.31932112064E+02  0.35188926772E+02  0.55295211544E+02  0.00000000000E+00 0.  1.
         11    1    4    4    0    0 -0.63501796134E+02 -0.58348071114E+01  0.27225825067E+03  0.27962667638E+03  0.00000000000E+00 0. -1.
</event>
<event>
 8    1  0.4798744E-006  0.8217270E+02  0.7561462E-02  0.1322996E+00
         -1   -1    0    0    0  501 -0.00000000000E+00  0.00000000000E+00  0.59172204018E+02  0.59172204018E+02  0.00000000000E+00 0.  1.
          1   -1    0    0  501    0  0.00000000000E+00 -0.00000000000E+00 -0.58248301794E+03  0.58248301794E+03  0.00000000000E+00 0. -1.
         23    2    1    2    0    0 -0.45921132974E+02 -0.22306420714E+02 -0.18418479682E+02  0.12634078585E+03  0.11408955656E+03 0.  0.
         23    2    1    2    0    0  0.45921132974E+02  0.22306420714E+02 -0.50489233424E+03  0.51531443611E+03  0.89590021946E+02 0.  0.
          5    1    3    3  502    0 -0.35335039206E+02 -0.30844222859E+02 -0.63507186342E+02  0.79060522365E+02  0.41800000000E+01 0. -1.
         -5    1    3    3    0  502 -0.10586093767E+02  0.85378021448E+01  0.45088706660E+02  0.47280263483E+02  0.41800000000E+01 0.  1.
        -11    1    4    4    0    0  0.65740038040E+02  0.39582343852E+02 -0.38505811665E+03  0.39262993740E+03  0.00000000000E+00 0. -1.
         11    1    4    4    0    0 -0.19818905066E+02 -0.17275923138E+02 -0.11983421759E+03  0.12268449871E+03  0.00000000000E+00 0.  1.
</event>
<event>
 8    1  0.4798744E-006  0.1134208E+03  0.7561462E-02  0.1254363E+00
         -1   -1    0    0    0  501 -0.00000000000E+00  0.00000000000E+00  0.34889811659E+02  0.34889811659E+02  0.00000000000E+00 0.  1.
          1   -1    0    0  501    0  0.00000000000E+00 -0.00000000000E+00 -0.50857624801E+03  0.50857624801E+03  0.00000000000E+00 0. -1.
         23    2    1    2    0    0 -0.81658752367E+02 -0.31745739655E+02 -0.22136007046E+03  0.26306957331E+03  0.11193469427E+03 0.  0.
         23    2    1    2    0    0  0.81658752367E+02  0.31745739655E+02 -0.25232636589E+03  0.28039648636E+03  0.85309148488E+02 0.  0.
          5    1    3    3  502    0 -0.66055058595E+02 -0.54522503131E+02 -0.21882954829E+03  0.23503152494E+03  0.41800000000E+01 0. -1.
         -5    1    3    3    0  502 -0.15603693772E+02  0.22776763476E+02 -0.25305221781E+01  0.28038048368E+02  0.41800000000E+01 0.  1.
        -11    1    4    4    0    0  0.89653689181E+02  0.10257625259E+02 -0.23478264306E+03  0.25152712049E+03  0.00000000000E+00 0. -1.
         11    1    4    4    0    0 -0.79949368141E+01  0.21488114396E+02 -0.17543722825E+02  0.28869365866E+02  0.00000000000E+00 0.  1.
</event>
<event>
 8    1  0.4798744E-006  0.1217021E+03  0.7561462E-02  0.1240315E+00
          2   -1    0    0  501    0  0.00000000000E+00  0.00000000000E+00  0.59044309994E+03  0.59044309994E+03  0.00000000000E+00 0. -1.
         -2   -1    0    0    0  501 -0.00000000000E+00 -0.00000000000E+00 -0.31446939399E+02  0.31446939399E+02  0.00000000000E+00 0.  1.
         23    2    1    2    0    0 -0.75396723629E+02 -0.97696203672E+01  0.23840708752E+03  0.27975859841E+03  0.12508725990E+03 0.  0.
         23    2    1    2    0    0  0.75396723629E+02  0.97696203672E+01  0.32058907302E+03  0.34213144093E+03  0.92176231835E+02 0.  0.
          5    1    3    3  502    0  0.46191715970E+01 -0.41719679238E+02  0.23728838334E+02  0.48398332106E+02  0.41800000000E+01 0.  1.
         -5    1    3    3    0  502 -0.80015895226E+02  0.31950058871E+02  0.21467824919E+03  0.23136026630E+03  0.41800000000E+01 0.  1.
        -11    1    4    4    0    0  0.79934205995E+02  0.36482676654E+02  0.19859522058E+03  0.21716474074E+03  0.00000000000E+00 0.  1.
         11    1    4    4    0    0 -0.45374823660E+01 -0.26713056287E+02  0.12199385244E+03  0.12496670019E+03  0.00000000000E+00 0. -1.
</event>
<event>
 8    1  0.4798744E-006  0.2348285E+03  0.7561462E-02  0.1123287E+00
         -2   -1    0    0    0  501 -0.00000000000E+00  0.00000000000E+00  0.21194683079E+03  0.21194683079E+03  0.00000000000E+00 0. -1.
          2   -1    0    0  501    0  0.00000000000E+00 -0.00000000000E+00 -0.26537930266E+03  0.26537930266E+03  0.00000000000E+00 0.  1.
         23    2    1    2    0    0 -0.16710561529E+03  0.12488003612E+03 -0.54400392024E+02  0.24925151238E+03  0.12509038209E+03 0.  0.
         23    2    1    2    0    0  0.16710561529E+03 -0.12488003612E+03  0.96792015081E+00  0.22807462107E+03  0.92183435734E+02 0.  0.
          5    1    3    3  502    0 -0.14938519395E+03  0.14941948154E+03 -0.38501795261E+02  0.21480683945E+03  0.41800000000E+01 0. -1.
         -5    1    3    3    0  502 -0.17720421348E+02 -0.24539445429E+02 -0.15898596763E+02  0.34444672937E+02  0.41800000000E+01 0. -1.
        -11    1    4    4    0    0  0.14259188750E+03 -0.53495297129E+02  0.61490806167E+01  0.15242048547E+03  0.00000000000E+00 0. -1.
         11    1    4    4    0    0  0.24513727789E+02 -0.71384738986E+02 -0.51811604659E+01  0.75654135605E+02  0.00000000000E+00 0.  1.
</event>
<event>
 8    1  0.4798744E-006  0.8037096E+02  0.7561462E-02  0.1328002E+00
          1   -1    0    0  501    0  0.00000000000E+00  0.00000000000E+00  0.37261591253E+02  0.37261591253E+02  0.00000000000E+00 0. -1.
         -1   -1    0    0    0  501 -0.00000000000E+00 -0.00000000000E+00 -0.41538843609E+03  0.41538843609E+03  0.00000000000E+00 0.  1.
         23    2    1    2    0    0 -0.53513229379E+02  0.28796888607E+02 -0.24454133868E+03  0.28131861515E+03  0.12508705128E+03 0.  0.
         23    2    1    2    0    0  0.53513229379E+02 -0.28796888607E+02 -0.13358550616E+03  0.17133141219E+03  0.88410626258E+02 0.  0.
          5    1    3    3  502    0 -0.21882009048E+02  0.39274099792E+02 -0.12487658727E+02  0.46847532005E+02  0.41800000000E+01 0. -1.
         -5    1    3    3    0  502 -0.31631220331E+02 -0.10477211184E+02 -0.23205367995E+03  0.23447108315E+03  0.41800000000E+01 0. -1.
        -11    1    4    4    0    0  0.42759241284E+02  0.81481216971E+01 -0.12436653933E+03  0.13176411009E+03  0.00000000000E+00 0.  1.
         11    1    4    4    0    0  0.10753988096E+02 -0.36945010305E+02 -0.92189668314E+01  0.39567302104E+02  0.00000000000E+00 0. -1.
</event>
<event>
 8    1  0.4798744E-006  0.9301489E+02  0.7561462E-02  0.1295711E+00
          2   -1    0    0  501    0  0.00000000000E+00  0.00000000000E+00  0.46427381724E+02  0.46427381724E+02  0.00000000000E+00 0.  1.
         -2   -1    0    0    0  501 -0.00000000000E+00 -0.00000000000E+00 -0.33021084287E+03  0.33021084287E+03  0.00000000000E+00 0. -1.
         23    2    1    2    0    0  0.44901480791E+01  0.41570627642E+02 -0.22084477349E+03  0.25723262834E+03  0.12509169674E+03 0.  0.
         23    2    1    2    0    0 -0.44901480791E+01 -0.41570627642E+02 -0.62938687665E+02  0.11940559626E+03  0.92456149068E+02 0.  0.
          5    1    3    3  502    0  0.49771306010E+02  0.52821034468E+02 -0.76744019427E+02  0.10570885252E+03  0.41800000000E+01 0. -1.
         -5    1    3    3    0  502 -0.45281157930E+02 -0.11250406825E+02 -0.14410075406E+03  0.15152377582E+03  0.41800000000E+01 0. -1.
        -11    1    4    4    0    0 -0.13343862650E+01 -0.53821586482E+02  0.13787590904E+01  0.53855777172E+02  0.00000000000E+00 0.  1.
         11    1    4    4    0    0 -0.31557618141E+01  0.12250958840E+02 -0.64317446755E+02  0.65549819086E+02  0.00000000000E+00 0. -1.
</event>
<event>
 8    1  0.4798744E-006  0.1039994E+03  0.7561462E-02  0.1272104E+00
         -1   -1    0    0    0  501 -0.00000000000E+00  0.00000000000E+00  0.18425706309E+04  0.18425706309E+04  0.00000000000E+00 0.  1.
          1   -1    0    0  501    0  0.00000000000E+00 -0.00000000000E+00 -0.13397532455E+02  0.13397532455E+02  0.00000000000E+00 0. -1.
         23    2    1    2    0    0  0.34014750732E+02 -0.16484422920E+02  0.15817006947E+04  0.15870896882E+04  0.12509137159E+03 0.  0.
         23    2    1    2    0    0 -0.34014750732E+02  0.16484422920E+02  0.24747240374E+03  0.26887847517E+03  0.98103538829E+02 0.  0.
          5    1    3    3  502    0 -0.35735299745E+02 -0.37805568062E+02  0.44630451486E+03  0.44934559640E+03  0.41800000000E+01 0. -1.
         -5    1    3    3    0  502  0.69750050477E+02  0.21321145142E+02  0.11353961799E+04  0.11377440918E+04  0.41800000000E+01 0. -1.
        -11    1    4    4    0    0  0.36839431542E+01 -0.25824404071E+02  0.16070015923E+02  0.30638483881E+02  0.00000000000E+00 0. -1.
         11    1    4    4    0    0 -0.37698693886E+02  0.42308826991E+02  0.23140238782E+03  0.23823999129E+03  0.00000000000E+00 0.  1.
</event>
<event>
 8    1  0.4798744E-006  0.1738243E+03  0.7561462E-02  0.1173917E+00
          1   -1    0    0  501    0  0.00000000000E+00  0.00000000000E+00  0.37410428963E+02  0.37410428963E+02  0.00000000000E+00 0. -1.
         -1   -1    0    0    0  501 -0.00000000000E+00 -0.00000000000E+00 -0.85964763506E+03  0.85964763506E+03  0.00000000000E+00 0.  1.
         23    2    1    2    0    0  0.53362409951E+02 -0.13203194027E+03 -0.44425500165E+03  0.48299723468E+03  0.12507534596E+03 0.  0.
         23    2    1    2    0    0 -0.53362409951E+02  0.13203194027E+03 -0.37798220445E+03  0.41406082935E+03  0.91081521014E+02 0.  0.
          5    1    3    3  502    0  0.88953297997E+02 -0.12394258960E+03 -0.34943756921E+03  0.38131160738E+03  0.41800000000E+01 0. -1.
         -5    1    3    3    0  502 -0.35590888045E+02 -0.80893506722E+01 -0.94817432431E+02  0.10168562730E+03  0.41800000000E+01 0. -1.
        -11    1    4    4    0    0  0.16618563113E+02  0.34032933571E+02 -0.16596996201E+03  0.17023643998E+03  0.00000000000E+00 0.  1.
         11    1    4    4    0    0 -0.69980973065E+02  0.97999006704E+02 -0.21201224244E+03  0.24382438937E+03  0.00000000000E+00 0. -1.
</event>
<event>
 8    1  0.4798744E-006  0.9411397E+02  0.7561462E-02  0.1293184E+00
          3   -1    0    0  501    0  0.00000000000E+00  0.00000000000E+00  0.90721417008E+03  0.90721417008E+03  0.00000000000E+00 0. -1.
         -3   -1    0    0    0  501 -0.00000000000E+00 -0.00000000000E+00 -0.15681887719E+02  0.15681887719E+02  0.00000000000E+00 0.  1.
         23    2    1    2    0    0  0.52830220111E+02  0.28758381980E+02  0.43592608153E+03  0.45748976202E+03  0.12508899673E+03 0.  0.
         23    2    1    2    0    0 -0.52830220111E+02 -0.28758381980E+02  0.45560620083E+03  0.46540629578E+03  0.73538651240E+02 0.  0.
          5    1    3    3  502    0  0.13393551657E+02  0.48764080230E+02  0.58422733588E+02  0.77382239219E+02  0.41800000000E+01 0. -1.
         -5    1    3    3    0  502  0.39436668454E+02 -0.20005698249E+02  0.37750334795E+03  0.38010752280E+03  0.41800000000E+01 0. -1.
        -11    1    4    4    0    0 -0.62215506424E+02  0.62820938998E+00  0.34562350570E+03  0.35117911609E+03  0.00000000000E+00 0. -1.
         11    1    4    4    0    0  0.93852863136E+01 -0.29386591370E+02  0.10998269513E+03  0.11422717968E+03  0.00000000000E+00 0.  1.
</event>
<event>
 8    1  0.4798744E-006  0.1140851E+03  0.7561462E-02  0.1253187E+00
         -2   -1    0    0    0  501 -0.00000000000E+00  0.00000000000E+00  0.37207199468E+03  0.37207199468E+03  0.00000000000E+00 0.  1.
          2   -1    0    0  501    0  0.00000000000E+00 -0.00000000000E+00 -0.38889565930E+02  0.38889565930E+02  0.00000000000E+00 0. -1.
         23    2    1    2    0    0  0.44789997227E+02 -0.25321979446E+02  0.16249146295E+03  0.21141918745E+03  0.12508897151E+03 0.  0.
         23    2    1    2    0    0 -0.44789997227E+02  0.25321979446E+02  0.17069096580E+03  0.19954237316E+03  0.89634850299E+02 0.  0.
          5    1    3    3  502    0  0.47539885964E+02  0.38859869714E+02  0.41074582380E+02  0.73991377534E+02  0.41800000000E+01 0.  1.
         -5    1    3    3    0  502 -0.27498887370E+01 -0.64181849160E+02  0.12141688057E+03  0.13742780991E+03  0.41800000000E+01 0.  1.
        -11    1    4    4    0    0 -0.66377063527E+02 -0.32305568332E+01  0.12427358567E+03  0.14092648848E+03  0.00000000000E+00 0.  1.
         11    1    4    4    0    0  0.21587066300E+02  0.28552536279E+02  0.46417380131E+02  0.58615884687E+02  0.00000000000E+00 0. -1.
</event>
<event>
 8    1  0.4798744E-006  0.1216382E+03  0.7561462E-02  0.1240419E+00
          2   -1    0    0  501    0  0.00000000000E+00  0.00000000000E+00  0.25592797020E+03  0.25592797020E+03  0.00000000000E+00 0. -1.
         -2   -1    0    0    0  501 -0.00000000000E+00 -0.00000000000E+00 -0.72633944504E+02  0.72633944504E+02  0.00000000000E+00 0.  1.
         23    2    1    2    0    0 -0.66982874862E+02  0.35753829166E+02  0.59025976022E+02  0.15778731006E+03  0.12509087714E+03 0.  0.
         23    2    1    2    0    0  0.66982874862E+02 -0.35753829166E+02  0.12426804967E+03  0.17077460464E+03  0.89198517908E+02 0.  0.
          5    1    3    3  502    0  0.28164899421E+02  0.98301562081E+01 -0.15717158016E+02  0.33976388663E+02  0.41800000000E+01 0. -1.
         -5    1    3    3    0  502 -0.95147774284E+02  0.25923672958E+02  0.74743134037E+02  0.12381092139E+03  0.41800000000E+01 0. -1.
        -11    1    4    4    0    0  0.20443469987E+02 -0.58989720629E+02  0.85650437506E+02  0.10598924497E+03  0.00000000000E+00 0.  1.
         11    1    4    4    0    0  0.46539404875E+02  0.23235891463E+02  0.38617612164E+02  0.64785359669E+02  0.00000000000E+00 0. -1.
</event>
<event>
 7    1  0.4798744E-006  0.7607401E+02  0.7561462E-02  0.1340577E+00
          1   -1    0    0  501    0  0.00000000000E+00  0.00000000000E+00  0.62677700579E+02  0.62677700579E+02  0.00000000000E+00 0. -1.
         -1   -1    0    0    0  501 -0.00000000000E+00 -0.00000000000E+00 -0.33926721125E+03  0.33926721125E+03  0.00000000000E+00 0.  1.
         23    2    1    2    0    0  0.49560806697E+01  0.56032291806E+01 -0.18809768067E+02  0.93754626329E+02  0.91543233887E+02 0.  0.
          5    1    1    2  502    0 -0.15251980961E+02  0.32654569080E+02  0.98626985081E+01  0.37599056197E+02  0.41800000000E+01 0. -1.
         -5    1    1    2    0  502  0.10295900291E+02 -0.38257798261E+02 -0.26764244112E+03  0.27059122931E+03  0.41800000000E+01 0.  1.
        -11    1    3    3    0    0 -0.96117826696E+01 -0.33208225922E+02 -0.35050742118E+02  0.49231363560E+02  0.00000000000E+00 0.  1.
         11    1    3    3    0    0  0.14567863339E+02  0.38811455103E+02  0.16240974051E+02  0.44523262769E+02  0.00000000000E+00 0. -1.
</event>
<event>
 8    1  0.4798744E-006  0.1325273E+03  0.7561462E-02  0.1223753E+00
         -1   -1    0    0    0  501 -0.00000000000E+00  0.00000000000E+00  0.35624768795E+02  0.35624768795E+02  0.00000000000E+00 0.  1.
          1   -1    0    0  501    0  0.00000000000E+00 -0.00000000000E+00 -0.58198269169E+03  0.58198269169E+03  0.00000000000E+00 0. -1.
         23    2    1    2    0    0 -0.83377041748E+02  0.19119379573E+02 -0.20480977010E+03  0.25499533337E+03  0.12553205306E+03 0.  0.
         23    2    1    2    0    0  0.83377041748E+02 -0.19119379573E+02 -0.34154815279E+03  0.36261212711E+03  0.86689862666E+02 0.  0.
          5    1    3    3  502    0 -0.24557420401E+01 -0.41686468272E+02 -0.10367657071E+03  0.11184854054E+03  0.41800000000E+01 0. -1.
         -5    1    3    3    0  502 -0.80921299708E+02  0.60805847845E+02 -0.10113319939E+03  0.14314679283E+03  0.41800000000E+01 0.  1.
        -11    1    4    4    0    0 -0.17741750537E+02  0.36886613164E+01 -0.52328829957E+02  0.55377634286E+02  0.00000000000E+00 0.  1.
         11    1    4    4    0    0  0.10111879229E+03 -0.22808040889E+02 -0.28921932283E+03  0.30723449283E+03  0.00000000000E+00 0. -1.
</event>
<event>
 8    1  0.4798744E-006  0.1055701E+03  0.7561462E-02  0.1269000E+00
         -1   -1    0    0    0  501 -0.00000000000E+00  0.00000000000E+00  0.15916167262E+03  0.15916167262E+03  0.00000000000E+00 0.  1.
          1   -1    0    0  501    0  0.00000000000E+00 -0.00000000000E+00 -0.93700878277E+02  0.93700878277E+02  0.00000000000E+00 0. -1.
         23    2    1    2    0    0  0.22144174934E+02 -0.45266876361E+02  0.54442277867E+02  0.14543500347E+03  0.12509166254E+03 0.  0.
         23    2    1    2    0    0 -0.22144174934E+02  0.45266876361E+02  0.11018516477E+02  0.10742754743E+03  0.94232773821E+02 0.  0.
          5    1    3    3  502    0 -0.27412349671E+02 -0.49670390555E+02 -0.16000031609E+02  0.59093637762E+02  0.41800000000E+01 0. -1.
         -5    1    3    3    0  502  0.49556524605E+02  0.44035141946E+01  0.70442309476E+02  0.86341365709E+02  0.41800000000E+01 0. -1.
        -11    1    4    4    0    0 -0.52870493242E+02  0.50552198328E+02  0.18315651607E+02  0.75407406170E+02  0.00000000000E+00 0.  1.
         11    1    4    4    0    0  0.30726318308E+02 -0.52853219677E+01 -0.72971351295E+01  0.32020141258E+02  0.00000000000E+00 0. -1.
</event>
<event>
 8    1  0.4798744E-006  0.1150269E+03  0.7561462E-02  0.1251534E+00
          2   -1    0    0  501    0  0.00000000000E+00  0.00000000000E+00  0.82570775990E+02  0.82570775990E+02  0.00000000000E+00 0. -1.
         -2   -1    0    0    0  501 -0.00000000000E+00 -0.00000000000E+00 -0.18340619545E+03  0.18340619545E+03  0.00000000000E+00 0.  1.
         23    2    1    2    0    0 -0.51994631342E+02 -0.55930084595E+01 -0.81427821586E+02  0.15815182738E+03  0.12508711742E+03 0.  0.
         23    2    1    2    0    0  0.51994631342E+02  0.55930084595E+01 -0.19407597878E+02  0.10782514406E+03  0.92276125863E+02 0.  0.
          5    1    3    3  502    0 -0.13455471024E+02 -0.63945882986E+02 -0.37349839169E+02  0.75383078587E+02  0.41800000000E+01 0.  1.
         -5    1    3    3    0  502 -0.38539160318E+02  0.58352874526E+02 -0.44077982417E+02  0.82768748797E+02  0.41800000000E+01 0.  1.
        -11    1    4    4    0    0  0.17575198195E+02 -0.36281084023E+02  0.15679311582E+02  0.43255583006E+02  0.00000000000E+00 0.  1.
         11    1    4    4    0    0  0.34419433147E+02  0.41874092482E+02 -0.35086909460E+02  0.64569561055E+02  0.00000000000E+00 0. -1.
</event>
<event>
 8    1  0.4798744E-006  0.9735899E+02  0.7561462E-02  0.1285950E+00
          2   -1    0    0  501    0  0.00000000000E+00  0.00000000000E+00  0.27379703314E+03  0.27379703314E+03  0.00000000000E+00 0. -1.
         -2   -1    0    0    0  501 -0.00000000000E+00 -0.00000000000E+00 -0.51237586185E+02  0.51237586185E+02  0.00000000000E+00 0.  1.
         23    2    1    2    0    0  0.39624620150E+02 -0.14779373681E+02  0.89298216195E+02  0.15940847221E+03  0.12509336188E+03 0.  0.
         23    2    1    2    0    0 -0.39624620150E+02  0.14779373681E+02  0.13326123076E+03  0.16562614712E+03  0.88797097797E+02 0.  0.
          5    1    3    3  502    0 -0.40487321567E+02 -0.12667480199E+02  0.48350967555E+01  0.42901501407E+02  0.41800000000E+01 0. -1.
         -5    1    3    3    0  502  0.80111941717E+02 -0.21118934819E+01  0.84463119439E+02  0.11650697080E+03  0.41800000000E+01 0. -1.
        -11    1    4    4    0    0 -0.94345846653E+01  0.34509324939E+02  0.99277632147E+01  0.37127690179E+02  0.00000000000E+00 0.  1.
         11    1    4    4    0    0 -0.30190035484E+02 -0.19729951258E+02  0.12333346754E+03  0.12849845694E+03  0.00000000000E+00 0. -1.
</event>
<event>
 8    1  0.4798744E-006  0.1231378E+03  0.7561462E-02  0.1238009E+00
         -2   -1    0    0    0  501 -0.00000000000E+00  0.00000000000E+00  0.46838958817E+02  0.46838958817E+02  0.00000000000E+00 0.  1.
          2   -1    0    0  501    0  0.00000000000E+00 -0.00000000000E+00 -0.68446583239E+03  0.68446583239E+03  0.00000000000E+00 0. -1.
         23    2    1    2    0    0  0.71073172885E+02  0.86483438695E+01 -0.86662854978E+02  0.16818365745E+03  0.12509637263E+03 0.  0.
         23    2    1    2    0    0 -0.71073172885E+02 -0.86483438695E+01 -0.55096401860E+03  0.56312113376E+03  0.91748960425E+02 0.  0.
          5    1    3    3  502    0  0.41473851392E+02  0.58490952170E+02 -0.83268094617E+02  0.10996508453E+03  0.41800000000E+01 0.  1.
         -5    1    3    3    0  502  0.29599321493E+02 -0.49842608300E+02 -0.33947603615E+01  0.58218572921E+02  0.41800000000E+01 0.  1.
        -11    1    4    4    0    0 -0.49084138195E+02 -0.49643169397E+02 -0.32273258002E+03  0.33019693381E+03  0.00000000000E+00 0.  1.
         11    1    4    4    0    0 -0.21989034690E+02  0.40994825527E+02 -0.22823143858E+03  0.23292419995E+03  0.00000000000E+00 0. -1.
</event>
<event>
 8    1  0.4798744E-006  0.1242505E+03  0.7561462E-02  0.1236245E+00
         -1   -1    0    0    0  501 -0.00000000000E+00  0.00000000000E+00  0.37775446376E+03  0.37775446376E+03  0.00000000000E+00 0.  1.
          1   -1    0    0  501    0  0.00000000000E+00 -0.00000000000E+00 -0.91699339303E+02  0.91699339303E+02  0.00000000000E+00 0. -1.
         23    2    1    2    0    0  0.47087853184E+02  0.62113317932E+02  0.31316608726E+03  0.34611519834E+03  0.12508957643E+03 0.  0.
         23    2    1    2    0    0 -0.47087853184E+02 -0.62113317932E+02 -0.27110962803E+02  0.12333860472E+03  0.91662843773E+02 0.  0.
          5    1    3    3  502    0 -0.38341670735E+02  0.30128446927E+02  0.16466460767E+03  0.17178391207E+03  0.41800000000E+01 0. -1.
         -5    1    3    3    0  502  0.85429523919E+02  0.31984871005E+02  0.14850147959E+03  0.17433128626E+03  0.41800000000E+01 0. -1.
        -11    1    4    4    0    0 -0.20639158375E+01 -0.63172714405E+02  0.11224925543E+02  0.64195409083E+02  0.00000000000E+00 0.  1.
         11    1    4    4    0    0 -0.45023937347E+02  0.10593964731E+01 -0.38335888346E+02  0.59143195639E+02  0.00000000000E+00 0. -1.
</event>
<event>
 8    1  0.4798744E-006  0.1872288E+03  0.7561462E-02  0.1160985E+00
          1   -1    0    0  501    0  0.00000000000E+00  0.00000000000E+00  0.18450005857E+04  0.18450005857E+04  0.00000000000E+00 0. -1.
         -1   -1    0    0    0  501 -0.00000000000E+00 -0.00000000000E+00 -0.21432226180E+02  0.21432226180E+02  0.00000000000E+00 0.  1.
         23    2    1    2    0    0  0.54229994497E+02 -0.15516139089E+03  0.10581685914E+04  0.10781393743E+04  0.12509113939E+03 0.  0.
         23    2    1    2    0    0 -0.54229994497E+02  0.15516139089E+03  0.76539976812E+03  0.78829343754E+03  0.92486696880E+02 0.  0.
          5    1    3    3  502    0 -0.34659004811E+02 -0.76010773932E+02  0.54152714017E+03  0.54794890301E+03  0.41800000000E+01 0. -1.
         -5    1    3    3    0  502  0.88888999308E+02 -0.79150616958E+02  0.51664145121E+03  0.53019047131E+03  0.41800000000E+01 0. -1.
        -11    1    4    4    0    0  0.96598310927E+01  0.21697527499E+02  0.30559465967E+02  0.38703694869E+02  0.00000000000E+00 0.  1.
         11    1    4    4    0    0 -0.63889825589E+02  0.13346386339E+03  0.73484030215E+03  0.74958974267E+03  0.00000000000E+00 0. -1.
</event>
<event>
 8    1  0.4798744E-006  0.9600395E+02  0.7561462E-02  0.1288931E+00
          1   -1    0    0  501    0  0.00000000000E+00  0.00000000000E+00  0.35107350541E+02  0.35107350541E+02  0.00000000000E+00 0. -1.
         -1   -1    0    0    0  501 -0.00000000000E+00 -0.00000000000E+00 -0.44545421075E+03  0.44545421075E+03  0.00000000000E+00 0.  1.
         23    2    1    2    0    0  0.51599722947E+02  0.29562752540E+02 -0.24506869375E+03  0.28149802073E+03  0.12508390493E+03 0.  0.
         23    2    1    2    0    0 -0.51599722947E+02 -0.29562752540E+02 -0.16527816646E+03  0.19906354056E+03  0.93663937174E+02 0.  0.
          5    1    3    3  502    0  0.34696359508E+02 -0.24162829003E+02 -0.15726424268E+02  0.45304221534E+02  0.41800000000E+01 0.  1.
         -5    1    3    3    0  502  0.16903363439E+02  0.53725581544E+02 -0.22934226948E+03  0.23619379920E+03  0.41800000000E+01 0.  1.
        -11    1    4    4    0    0 -0.76100874903E+01  0.23160873020E+02 -0.10468507121E+03  0.10748629496E+03  0.00000000000E+00 0.  1.
         11    1    4    4    0    0 -0.43989635457E+02 -0.52723625560E+02 -0.60593095255E+02  0.91577245604E+02  0.00000000000E+00 0. -1.
</event>
<event>
 8    1  0.4798744E-006  0.1184012E+03  0.7561462E-02  0.1245758E+00
         -1   -1    0    0    0  501 -0.00000000000E+00  0.00000000000E+00  0.56493182447E+02  0.56493182447E+02  0.00000000000E+00 0.  1.
          1   -1    0    0  501    0  0.00000000000E+00 -0.00000000000E+00 -0.29507703078E+03  0.29507703078E+03  0.00000000000E+00 0. -1.
         23    2    1    2    0    0 -0.62655104807E+02 -0.35460842267E+02 -0.94328440808E+02  0.17241532782E+03  0.12508419977E+03 0.  0.
         23    2    1    2    0    0  0.62655104807E+02  0.35460842267E+02 -0.14425540752E+03  0.17915488540E+03  0.78126287962E+02 0.  0.
          5    1    3    3  502    0 -0.62456706414E+02 -0.72995274437E+02 -0.35491370362E+02  0.10250004896E+03  0.41800000000E+01 0. -1.
         -5    1    3    3    0  502 -0.19839839257E+00  0.37534432171E+02 -0.58837070446E+02  0.69915278866E+02  0.41800000000E+01 0. -1.
        -11    1    4    4    0    0  0.33861491749E+02  0.57422497646E+02 -0.11356975444E+03  0.13168915286E+03  0.00000000000E+00 0. -1.
         11    1    4    4    0    0  0.28793613058E+02 -0.21961655379E+02 -0.30685653087E+02  0.47465732537E+02  0.00000000000E+00 0.  1.
</event>
<event>
 8    1  0.4798744E-006  0.1065338E+03  0.7561462E-02  0.1267127E+00
          1   -1    0    0  501    0  0.00000000000E+00  0.00000000000E+00  0.23513295230E+03  0.23513295230E+03  0.00000000000E+00 0. -1.
         -1   -1    0    0    0  501 -0.00000000000E+00 -0.00000000000E+00 -0.85014205136E+02  0.85014205136E+02  0.00000000000E+00 0.  1.
         23    2    1    2    0    0  0.53288412455E+02  0.40195769158E+02  0.10542456176E+02  0.14217219042E+03  0.12508570496E+03 0.  0.
         23    2    1    2    0    0 -0.53288412455E+02 -0.40195769158E+02  0.13957629099E+03  0.17797496702E+03  0.87967000170E+02 0.  0.
          5    1    3    3  502    0  0.62036347825E+01 -0.35024255066E+02 -0.27873102994E+02  0.45382439313E+02  0.41800000000E+01 0. -1.
         -5    1    3    3    0  502  0.47084777672E+02  0.75220024225E+02  0.38415559170E+02  0.96789751106E+02  0.41800000000E+01 0. -1.
        -11    1    4    4    0    0 -0.21984865213E+02 -0.50807786116E+02  0.28862452130E+02  0.62432416031E+02  0.00000000000E+00 0.  1.
         11    1    4    4    0    0 -0.31303547242E+02  0.10612016958E+02  0.11071383886E+03  0.11554255099E+03  0.00000000000E+00 0. -1.
</event>
<event>
 8    1  0.4798744E-006  0.1440104E+03  0.7561462E-02  0.1208032E+00
         -1   -1    0    0    0  501 -0.00000000000E+00  0.00000000000E+00  0.21609000357E+03  0.21609000357E+03  0.00000000000E+00 0.  1.
          1   -1    0    0  501    0  0.00000000000E+00 -0.00000000000E+00 -0.24432861417E+03  0.24432861417E+03  0.00000000000E+00 0. -1.
         23    2    1    2    0    0 -0.51026139057E+00  0.12911086134E+03  0.14164767827E+03  0.22886677708E+03  0.12508421966E+03 0.  0.
         23    2    1    2    0    0  0.51026139057E+00 -0.12911086134E+03 -0.16988628887E+03  0.23155184067E+03  0.89916788674E+02 0.  0.
          5    1    3    3  502    0 -0.35084252951E+02  0.62509552926E+02  0.13563610566E+03  0.15346978390E+03  0.41800000000E+01 0.  1.
         -5    1    3    3    0  502  0.34573991561E+02  0.66601308416E+02  0.60115726109E+01  0.75396993179E+02  0.41800000000E+01 0.  1.
        -11    1    4    4    0    0  0.10522127801E+02  0.99524478370E+00 -0.60095476874E+02  0.61017800898E+02  0.00000000000E+00 0. -1.
         11    1    4    4    0    0 -0.10011866411E+02 -0.13010610613E+03 -0.10979081200E+03  0.17053403977E+03  0.00000000000E+00 0.  1.
</event>
<event>
 8    1  0.4798744E-006  0.1074782E+03  0.7561462E-02  0.1265312E+00
         -1   -1    0    0    0  501 -0.00000000000E+00  0.00000000000E+00  0.16434840265E+03  0.16434840265E+03  0.00000000000E+00 0.  1.
          1   -1    0    0  501    0  0.00000000000E+00 -0.00000000000E+00 -0.12859957851E+03  0.12859957851E+03  0.00000000000E+00 0. -1.
         23    2    1    2    0    0 -0.55468154866E+02 -0.64147905503E+02  0.29940100011E+02  0.15406055808E+03  0.12508627415E+03 0.  0.
         23    2    1    2    0    0  0.55468154866E+02  0.64147905503E+02  0.58087241237E+01  0.13888742308E+03  0.10983763030E+03 0.  0.
          5    1    3    3  502    0 -0.92381462748E+01 -0.51490366649E+02 -0.42204171557E+02  0.67344381362E+02  0.41800000000E+01 0.  1.
         -5    1    3    3    0  502 -0.46230008591E+02 -0.12657538854E+02  0.72144271567E+02  0.86716176715E+02  0.41800000000E+01 0.  1.
        -11    1    4    4    0    0  0.14475264287E+02  0.71297472491E+02  0.41769432173E+02  0.83890096697E+02  0.00000000000E+00 0.  1.
         11    1    4    4    0    0  0.40992890579E+02 -0.71495669886E+01 -0.35960708049E+02  0.54997326386E+02  0.00000000000E+00 0. -1.
</event>
<event>
 8    1  0.4798744E-006  0.1615164E+03  0.7561462E-02  0.1186995E+00
         -2   -1    0    0    0  501 -0.00000000000E+00  0.00000000000E+00  0.57897062484E+02  0.57897062484E+02  0.00000000000E+00 0.  1.
          2   -1    0    0  501    0  0.00000000000E+00 -0.00000000000E+00 -0.71729356493E+03  0.71729356493E+03  0.00000000000E+00 0. -1.
         23    2    1    2    0    0  0.11789558109E+03 -0.83631418858E+02 -0.16603149649E+03  0.25320152401E+03  0.12510384355E+03 0.  0.
         23    2    1    2    0    0 -0.11789558109E+03  0.83631418858E+02 -0.49336500596E+03  0.52198910341E+03  0.90388122631E+02 0.  0.
          5    1    3    3  502    0 -0.14602451808E+02 -0.16886677538E+02 -0.76656270627E+02  0.79950282698E+02  0.41800000000E+01 0.  1.
         -5    1    3    3    0  502  0.13249803290E+03 -0.66744741319E+02 -0.89375225863E+02  0.17325124131E+03  0.41800000000E+01 0.  1.
        -11    1    4    4    0    0 -0.68569791104E+02  0.20070906471E+02 -0.35338486693E+03  0.36053504922E+03  0.00000000000E+00 0. -1.
         11    1    4    4    0    0 -0.49325789990E+02  0.63560512387E+02 -0.13998013903E+03  0.16145405420E+03  0.00000000000E+00 0.  1.
</event>
<event>
 8    1  0.4798744E-006  0.9592995E+02  0.7561462E-02  0.1289095E+00
          2   -1    0    0  501    0  0.00000000000E+00  0.00000000000E+00  0.51421858674E+03  0.51421858674E+03  0.00000000000E+00 0. -1.
         -2   -1    0    0    0  501 -0.00000000000E+00 -0.00000000000E+00 -0.25005728694E+02  0.25005728694E+02  0.00000000000E+00 0.  1.
         23    2    1    2    0    0  0.26414168965E+02  0.71651585251E+01  0.22958185708E+03  0.26287710972E+03  0.12508995921E+03 0.  0.
         23    2    1    2    0    0 -0.26414168965E+02 -0.71651585251E+01  0.25963100097E+03  0.27634720572E+03  0.90611663848E+02 0.  0.
          5    1    3    3  502    0  0.29954000820E+02 -0.41104019168E+02  0.19907881326E+03  0.20551551972E+03  0.41800000000E+01 0.  1.
         -5    1    3    3    0  502 -0.35398318544E+01  0.48269177694E+02  0.30503043818E+02  0.57361589997E+02  0.41800000000E+01 0.  1.
        -11    1    4    4    0    0 -0.56816291038E+02  0.94594889588E+01  0.19051794332E+03  0.19903431760E+03  0.00000000000E+00 0. -1.
         11    1    4    4    0    0  0.30402122072E+02 -0.16624647484E+02  0.69113057654E+02  0.77312888115E+02  0.00000000000E+00 0.  1.
</event>
<event>
 8    1  0.4798744E-006  0.1818869E+03  0.7561462E-02  0.1165989E+00
          1   -1    0    0  501    0  0.00000000000E+00  0.00000000000E+00  0.63406543965E+03  0.63406543965E+03  0.00000000000E+00 0. -1.
         -1   -1    0    0    0  501 -0.00000000000E+00 -0.00000000000E+00 -0.57218061465E+02  0.57218061465E+02  0.00000000000E+00 0.  1.
         23    2    1    2    0    0  0.65373097732E+02 -0.13868938090E+03  0.26684546424E+03  0.33220689977E+03  0.12508611508E+03 0.  0.
         23    2    1    2    0    0 -0.65373097732E+02  0.13868938090E+03  0.31000191394E+03  0.35907660134E+03  0.96573457552E+02 0.  0.
          5    1    3    3  502    0 -0.19331216903E+02  0.10042153955E+02  0.58340594495E+02  0.62415047617E+02  0.41800000000E+01 0.  1.
         -5    1    3    3    0  502  0.84704314635E+02 -0.14873153486E+03  0.20850486975E+03  0.26979185215E+03  0.41800000000E+01 0.  1.
        -11    1    4    4    0    0  0.14810802212E+02  0.43323791445E+02  0.36578260977E+02  0.58602729830E+02  0.00000000000E+00 0.  1.
         11    1    4    4    0    0 -0.80183899944E+02  0.95365589458E+02  0.27342365296E+03  0.30047387152E+03  0.00000000000E+00 0. -1.
</event>
<event>
 7    1  0.4798744E-006  0.8304081E+02  0.7561462E-02  0.1320637E+00
          1   -1    0    0  501    0  0.00000000000E+00  0.00000000000E+00  0.24392757472E+02  0.24392757472E+02  0.00000000000E+00 0. -1.
         -1   -1    0    0    0  501 -0.00000000000E+00 -0.00000000000E+00 -0.57100307627E+03  0.57100307627E+03  0.00000000000E+00 0.  1.
         23    2    1    2    0    0 -0.73211343138E+02 -0.41350535014E+01 -0.37744691589E+03  0.40434112757E+03  0.12509425925E+03 0.  0.
          5    1    3    3  502    0  0.11277087143E+01 -0.79208160308E+01 -0.28694212495E+03  0.28708407571E+03  0.41800000000E+01 0. -1.
         -5    1    3    3    0  502 -0.74339051853E+02  0.37857625295E+01 -0.90504790937E+02  0.11725705186E+03  0.41800000000E+01 0. -1.
        -11    1    1    2    0    0  0.65185924311E+02  0.16975485219E+02 -0.10220861624E+03  0.12240903995E+03  0.00000000000E+00 0. -1.
         11    1    1    2    0    0  0.80254188271E+01 -0.12840431717E+02 -0.66954786666E+02  0.68645666226E+02  0.00000000000E+00 0.  1.
</event>
<event>
 8    1  0.4798744E-006  0.1383832E+03  0.7561462E-02  0.1215521E+00
         -2   -1    0    0    0  501 -0.00000000000E+00  0.00000000000E+00  0.10022340069E+03  0.10022340069E+03  0.00000000000E+00 0.  1.
          2   -1    0    0  501    0  0.00000000000E+00 -0.00000000000E+00 -0.32343803043E+03  0.32343803043E+03  0.00000000000E+00 0. -1.
         23    2    1    2    0    0  0.10972180823E+03  0.19941705519E+02 -0.12800446258E+02  0.16806974959E+03  0.12508813886E+03 0.  0.
         23    2    1    2    0    0 -0.10972180823E+03 -0.19941705519E+02 -0.21041418349E+03  0.25559168153E+03  0.92824739330E+02 0.  0.
          5    1    3    3  502    0  0.11786276191E+03  0.10265334566E+02 -0.50036987077E+02  0.12852307270E+03  0.41800000000E+01 0. -1.
         -5    1    3    3    0  502 -0.81409536805E+01  0.96763709524E+01  0.37236540819E+02  0.39546676899E+02  0.41800000000E+01 0. -1.
        -11    1    4    4    0    0 -0.19085145216E+02  0.34433615661E+02 -0.54764048966E+02  0.67446406239E+02  0.00000000000E+00 0.  1.
         11    1    4    4    0    0 -0.90636663016E+02 -0.54375321180E+02 -0.15565013452E+03  0.18814527529E+03  0.00000000000E+00 0. -1.
</event>
<event>
 8    1  0.4798744E-006  0.9982613E+02  0.7561462E-02  0.1280662E+00
          1   -1    0    0  501    0  0.00000000000E+00  0.00000000000E+00  0.61770601006E+02  0.61770601006E+02  0.00000000000E+00 0. -1.
         -1   -1    0    0    0  501 -0.00000000000E+00 -0.00000000000E+00 -0.22890442956E+03  0.22890442956E+03  0.00000000000E+00 0.  1.
         23    2    1    2    0    0  0.44116461352E+02 -0.12033637931E+02 -0.88033945227E+02  0.15964659335E+03  0.12508392643E+03 0.  0.
         23    2    1    2    0    0 -0.44116461352E+02  0.12033637931E+02 -0.79099883327E+02  0.13102843722E+03  0.93917991960E+02 0.  0.
          5    1    3    3  502    0 -0.18263724488E+02  0.29232557354E+02 -0.76291207008E+02  0.83820801167E+02  0.41800000000E+01 0.  1.
         -5    1    3    3    0  502  0.62380185840E+02 -0.41266195285E+02 -0.11742738219E+02  0.75825792179E+02  0.41800000000E+01 0.  1.
        -11    1    4    4    0    0 -0.52997131501E+02  0.36261793753E+02 -0.82989270504E+02  0.10493251475E+03  0.00000000000E+00 0.  1.
         11    1    4    4    0    0  0.88806701494E+01 -0.24228155821E+02  0.38893871769E+01  0.26095922467E+02  0.00000000000E+00 0. -1.
</event>
<event>
 8    1  0.4798744E-006  0.1644347E+03  0.7561462E-02  0.1183779E+00
          1   -1    0    0  501    0  0.00000000000E+00  0.00000000000E+00  0.40738639032E+03  0.40738639032E+03  0.00000000000E+00 0. -1.
         -1   -1    0    0    0  501 -0.00000000000E+00 -0.00000000000E+00 -0.70270521778E+02  0.70270521778E+02  0.00000000000E+00 0.  1.
         23    2    1    2    0    0  0.58776528104E+01 -0.12554748283E+03  0.13736300751E+03  0.22430351361E+03  0.12508698229E+03 0.  0.
         23    2    1    2    0    0 -0.58776528104E+01  0.12554748283E+03  0.19975286103E+03  0.25335339849E+03  0.92141314229E+02 0.  0.
          5    1    3    3  502    0  0.12099470655E+02 -0.14841406515E+03  0.98473621335E+02  0.17857115787E+03  0.41800000000E+01 0.  1.
         -5    1    3    3    0  502 -0.62218178450E+01  0.22866582323E+02  0.38889386177E+02  0.45732355741E+02  0.41800000000E+01 0.  1.
        -11    1    4    4    0    0  0.36522077734E+02  0.19004606297E+02  0.53276269263E+02  0.67330513804E+02  0.00000000000E+00 0. -1.
         11    1    4    4    0    0 -0.42399730545E+02  0.10654287653E+03  0.14647659177E+03  0.18602288468E+03  0.00000000000E+00 0.  1.
</event>
<event>
 8    1  0.4798744E-006  0.2022208E+03  0.7561462E-02  0.1147879E+00
         -1   -1    0    0    0  501 -0.00000000000E+00  0.00000000000E+00  0.86387854051E+03  0.86387854051E+03  0.00000000000E+00 0.  1.
          1   -1    0    0  501    0  0.00000000000E+00 -0.00000000000E+00 -0.61223048859E+02  0.61223048859E+02  0.00000000000E+00 0. -1.
         23    2    1    2    0    0 -0.17135882067E+03 -0.92466780476E+02  0.52884676045E+03  0.57726908720E+03  0.12508697809E+03 0.  0.
         23    2    1    2    0    0  0.17135882067E+03  0.92466780476E+02  0.27380873120E+03  0.34783250216E+03  0.90012651157E+02 0.  0.
          5    1    3    3  502    0 -0.45882594082E+02  0.71156585791E+01  0.35635279110E+02  0.58678706138E+02  0.41800000000E+01 0.  1.
         -5    1    3    3    0  502 -0.12547622659E+03 -0.99582439055E+02  0.49321148134E+03  0.51859038107E+03  0.41800000000E+01 0.  1.
        -11    1    4    4    0    0  0.11514037807E+03  0.43696912911E+02  0.99587559683E+02  0.15838058247E+03  0.00000000000E+00 0.  1.
         11    1    4    4    0    0  0.56218442595E+02  0.48769867565E+02  0.17422117152E+03  0.18945191969E+03  0.00000000000E+00 0. -1.
</event>
<event>
 8    1  0.4798744E-006  0.7649620E+02  0.7561462E-02  0.1339299E+00
          1   -1    0    0  501    0  0.00000000000E+00  0.00000000000E+00  0.24184648841E+03  0.24184648841E+03  0.00000000000E+00 0. -1.
         -1   -1    0    0    0  501 -0.00000000000E+00 -0.00000000000E+00 -0.62981046768E+02  0.62981046768E+02  0.00000000000E+00 0.  1.
         23    2    1    2    0    0 -0.46059582606E+02  0.34822665021E+02  0.77636243861E+02  0.15814753637E+03  0.12509657769E+03 0.  0.
         23    2    1    2    0    0  0.46059582606E+02 -0.34822665021E+02  0.10122919778E+03  0.14667999881E+03  0.89070581107E+02 0.  0.
          5    1    3    3  502    0 -0.16950466622E+02 -0.18032159202E+02  0.92515143137E+02  0.95859278079E+02  0.41800000000E+01 0. -1.
         -5    1    3    3    0  502 -0.29109115984E+02  0.52854824224E+02 -0.14878899276E+02  0.62288258290E+02  0.41800000000E+01 0. -1.
        -11    1    4    4    0    0  0.22683124600E+02  0.30653413453E+01  0.99530333772E+02  0.10212838881E+03  0.00000000000E+00 0.  1.
         11    1    4    4    0    0  0.23376458007E+02 -0.37888006367E+02  0.16988640125E+01  0.44551610008E+02  0.00000000000E+00 0. -1.
</event>
<event>
 8    1  0.4798744E-006  0.2027085E+03  0.7561462E-02  0.1147474E+00
         -3   -1    0    0    0  501 -0.00000000000E+00  0.00000000000E+00  0.40433743825E+02  0.40433743825E+02  0.00000000000E+00 0.  1.
          3   -1    0    0  501    0  0.00000000000E+00 -0.00000000000E+00 -0.12851675952E+04  0.12851675952E+04  0.00000000000E+00 0. -1.
         23    2    1    2    0    0 -0.19123109527E+03 -0.44265422927E+02 -0.53342999260E+03  0.58199910228E+03  0.12508652442E+03 0.  0.
         23    2    1    2    0    0  0.19123109527E+03  0.44265422927E+02 -0.71130385875E+03  0.74360223671E+03  0.91991018654E+02 0.  0.
          5    1    3    3  502    0 -0.67510565748E+02 -0.23431495505E+02 -0.36489815701E+03  0.37185326254E+03  0.41800000000E+01 0. -1.
         -5    1    3    3    0  502 -0.12372052952E+03 -0.20833927422E+02 -0.16853183559E+03  0.21014583975E+03  0.41800000000E+01 0. -1.
        -11    1    4    4    0    0  0.14328907596E+03  0.35504576051E+00 -0.38307196482E+03  0.40899390652E+03  0.00000000000E+00 0.  1.
         11    1    4    4    0    0  0.47942019309E+02  0.43910377166E+02 -0.32823189393E+03  0.33460833019E+03  0.00000000000E+00 0. -1.
</event>
<event>
 8    1  0.4798744E-006  0.1688632E+03  0.7561462E-02  0.1179039E+00
         -1   -1    0    0    0  501 -0.00000000000E+00  0.00000000000E+00  0.30440549040E+03  0.30440549040E+03  0.00000000000E+00 0.  1.
          1   -1    0    0  501    0  0.00000000000E+00 -0.00000000000E+00 -0.13174348019E+03  0.13174348019E+03  0.00000000000E+00 0. -1.
         23    2    1    2    0    0  0.14389701229E+03 -0.21708843654E+02  0.18167417402E+03  0.26427771557E+03  0.12513824916E+03 0.  0.
         23    2    1    2    0    0 -0.14389701229E+03  0.21708843654E+02 -0.90121638091E+01  0.17187125501E+03  0.90999369033E+02 0.  0.
          5    1    3    3  502    0  0.79981295709E+02 -0.74144042144E+02  0.10473203020E+03  0.15126340337E+03  0.41800000000E+01 0. -1.
         -5    1    3    3    0  502  0.63915716581E+02  0.52435198490E+02  0.76942143825E+02  0.11301431221E+03  0.41800000000E+01 0. -1.
        -11    1    4    4    0    0 -0.44564169817E+02  0.24990314610E+01  0.39560214173E+02  0.59642442397E+02  0.00000000000E+00 0.  1.
         11    1    4    4    0    0 -0.99332842473E+02  0.19209812193E+02 -0.48572377982E+02  0.11222881262E+03  0.00000000000E+00 0. -1.
</event>
<event>
 8    1  0.4798744E-006  0.3048241E+03  0.7561462E-02  0.1082854E+00
         -2   -1    0    0    0  501 -0.00000000000E+00  0.00000000000E+00  0.16212966041E+04  0.16212966041E+04  0.00000000000E+00 0.  1.
          2   -1    0    0  501    0  0.00000000000E+00 -0.00000000000E+00 -0.61945313835E+02  0.61945313835E+02  0.00000000000E+00 0. -1.
         23    2    1    2    0    0  0.28323365911E+03 -0.91457543254E+02  0.80893088213E+03  0.87097788617E+03  0.12509004065E+03 0.  0.
         23    2    1    2    0    0 -0.28323365911E+03  0.91457543254E+02  0.75042040810E+03  0.81226403173E+03  0.89756785110E+02 0.  0.
          5    1    3    3  502    0  0.12306973986E+03 -0.74228089716E+02  0.24103518172E+03  0.28066243318E+03  0.41800000000E+01 0.  1.
         -5    1    3    3    0  502  0.16016391925E+03 -0.17229453538E+02  0.56789570041E+03  0.59031545299E+03  0.41800000000E+01 0.  1.
        -11    1    4    4    0    0 -0.67409113966E+02 -0.64745452408E+01  0.24235152606E+03  0.25163499471E+03  0.00000000000E+00 0. -1.
         11    1    4    4    0    0 -0.21582454514E+03  0.97932088494E+02  0.50806888205E+03  0.56062903702E+03  0.00000000000E+00 0.  1.
</event>
<event>
 8    1  0.4798744E-006  0.6846932E+02  0.7561462E-02  0.1365377E+00
          1   -1    0    0  501    0  0.00000000000E+00  0.00000000000E+00  0.20856206051E+02  0.20856206051E+02  0.00000000000E+00 0. -1.
         -1   -1    0    0    0  501 -0.00000000000E+00 -0.00000000000E+00 -0.61511044305E+03  0.61511044305E+03  0.00000000000E+00 0.  1.
         23    2    1    2    0    0  0.14271823438E+02  0.30261618030E+02 -0.32444625385E+03  0.34933035773E+03  0.12508747629E+03 0.  0.
         23    2    1    2    0    0 -0.14271823438E+02 -0.30261618030E+02 -0.26980798314E+03  0.28663629136E+03  0.90799588603E+02 0.  0.
          5    1    3    3  502    0  0.21075630661E+02  0.19836342149E+02 -0.33259330941E+03  0.33387639111E+03  0.41800000000E+01 0. -1.
         -5    1    3    3    0  502 -0.68038072235E+01  0.10425275881E+02  0.81470555592E+01  0.15453966617E+02  0.41800000000E+01 0. -1.
        -11    1    4    4    0    0 -0.47405065633E+02  0.31494449752E+01 -0.16593710153E+03  0.17260440584E+03  0.00000000000E+00 0.  1.
         11    1    4    4    0    0  0.33133242195E+02 -0.33411063005E+02 -0.10387088161E+03  0.11403188552E+03  0.00000000000E+00 0. -1.
</event>
<event>
 8    1  0.4798744E-006  0.1127241E+03  0.7561462E-02  0.1255607E+00
          3   -1    0    0  501    0  0.00000000000E+00  0.00000000000E+00  0.10273161202E+03  0.10273161202E+03  0.00000000000E+00 0. -1.
         -3   -1    0    0    0  501 -0.00000000000E+00 -0.00000000000E+00 -0.22218963457E+03  0.22218963457E+03  0.00000000000E+00 0.  1.
         23    2    1    2    0    0  0.24720406454E+02 -0.92073292515E+02 -0.11044990729E+03  0.19218675380E+03  0.12509187275E+03 0.  0.
         23    2    1    2    0    0 -0.24720406454E+02  0.92073292515E+02 -0.90081152561E+01  0.13273449279E+03  0.91916863226E+02 0.  0.
          5    1    3    3  502    0 -0.29169073885E+02 -0.60891084021E+02 -0.11076155184E+03  0.12978502514E+03  0.41800000000E+01 0.  1.
         -5    1    3    3    0  502  0.53889480339E+02 -0.31182208494E+02  0.31164454858E+00  0.62401728663E+02  0.41800000000E+01 0.  1.
        -11    1    4    4    0    0 -0.91091662402E+01  0.40753419856E+02 -0.50057160834E+02  0.65188476668E+02  0.00000000000E+00 0.  1.
         11    1    4    4    0    0 -0.15611240214E+02  0.51319872659E+02  0.41049045578E+02  0.67546016119E+02  0.00000000000E+00 0. -1.
</event>
<event>
 8    1  0.4798744E-006  0.1084380E+03  0.7561462E-02  0.1263490E+00
          2   -1    0    0  501    0  0.00000000000E+00  0.00000000000E+00  0.11587037528E+03  0.11587037528E+03  0.00000000000E+00 0. -1.
         -2   -1    0    0    0  501 -0.00000000000E+00 -0.00000000000E+00 -0.14344214839E+03  0.14344214839E+03  0.00000000000E+00 0.  1.
         23    2    1    2    0    0 -0.37519011518E+02  0.34958484827E+02 -0.76024427077E+02  0.14369908451E+03  0.11063426905E+03 0.  0.
         23    2    1    2    0    0  0.37519011518E+02 -0.34958484827E+02  0.48452653969E+02  0.11561343916E+03  0.91591679484E+02 0.  0.
          5    1    3    3  502    0 -0.32897043305E+02  0.72037213541E+02 -0.31266768426E+02  0.85244699547E+02  0.41800000000E+01 0. -1.
         -5    1    3    3    0  502 -0.46219682133E+01 -0.37078728714E+02 -0.44757658650E+02  0.58454384960E+02  0.41800000000E+01 0.  1.
        -11    1    4    4    0    0 -0.35745707177E+01 -0.54397071833E+02  0.86594412881E+01  0.55197870459E+02  0.00000000000E+00 0.  1.
         11    1    4    4    0    0  0.41093582236E+02  0.19438587006E+02  0.39793212681E+02  0.60415568699E+02  0.00000000000E+00 0. -1.
</event>
<event>
 8    1  0.4798744E-006  0.9775775E+02  0.7561462E-02  0.1285083E+00
          4   -1    0    0  501    0  0.00000000000E+00  0.00000000000E+00  0.10596459644E+03  0.10596459644E+03  0.00000000000E+00 0. -1.
         -4   -1    0    0    0  501 -0.00000000000E+00 -0.00000000000E+00 -0.14182969795E+03  0.14182969795E+03  0.00000000000E+00 0.  1.
         23    2    1    2    0    0 -0.18077710898E+02  0.43924117732E+02 -0.55005874907E+02  0.14467130803E+03  0.12509200352E+03 0.  0.
         23    2    1    2    0    0  0.18077710898E+02 -0.43924117732E+02  0.19140773395E+02  0.10312298635E+03  0.89508934512E+02 0.  0.
          5    1    3    3  502    0 -0.33463943336E+02  0.75718708361E+02 -0.67578640257E+02  0.10694626370E+03  0.41800000000E+01 0.  1.
         -5    1    3    3    0  502  0.15386232438E+02 -0.31794590628E+02  0.12572765350E+02  0.37725044339E+02  0.41800000000E+01 0.  1.
        -11    1    4    4    0    0  0.32314357766E+02 -0.51600393725E+02  0.42829504809E+02  0.74439135087E+02  0.00000000000E+00 0. -1.
         11    1    4    4    0    0 -0.14236646868E+02  0.76762759924E+01 -0.23688731414E+02  0.28683851261E+02  0.00000000000E+00 0.  1.
</event>
<event>
 8    1  0.4798744E-006  0.1320363E+03  0.7561462E-02  0.1224465E+00
         -1   -1    0    0    0  501 -0.00000000000E+00  0.00000000000E+00  0.17105739037E+03  0.17105739037E+03  0.00000000000E+00 0.  1.
          1   -1    0    0  501    0  0.00000000000E+00 -0.00000000000E+00 -0.12633487520E+03  0.12633487520E+03  0.00000000000E+00 0. -1.
         23    2    1    2    0    0 -0.93596819327E+02  0.12024396277E+02  0.53265288024E+02  0.16549865231E+03  0.12509061641E+03 0.  0.
         23    2    1    2    0    0  0.93596819327E+02 -0.12024396277E+02 -0.85427728514E+01  0.13189361326E+03  0.91749635186E+02 0.  0.
          5    1    3    3  502    0 -0.11194020851E+03  0.18605407930E+02  0.74940373922E+02  0.13605257634E+03  0.41800000000E+01 0.  1.
         -5    1    3    3    0  502  0.18343389186E+02 -0.65810116530E+01 -0.21675085898E+02  0.29446075968E+02  0.41800000000E+01 0.  1.
        -11    1    4    4    0    0  0.10538307285E+03 -0.29568555587E+02 -0.10147854996E+01  0.10945739496E+03  0.00000000000E+00 0.  1.
         11    1    4    4    0    0 -0.11786253520E+02  0.17544159310E+02 -0.75279873518E+01  0.22436218298E+02  0.00000000000E+00 0. -1.
</event>
<event>
 8    1  0.4798744E-006  0.1198333E+03  0.7561462E-02  0.1243372E+00
          2   -1    0    0  501    0  0.00000000000E+00  0.00000000000E+00  0.37289861168E+03  0.37289861168E+03  0.00000000000E+00 0. -1.
         -2   -1    0    0    0  501 -0.00000000000E+00 -0.00000000000E+00 -0.43545576499E+02  0.43545576499E+02  0.00000000000E+00 0.  1.
         23    2    1    2    0    0 -0.54734022515E+02 -0.76489279700E+01  0.14464681481E+03  0.19906217220E+03  0.12509487618E+03 0.  0.
         23    2    1    2    0    0  0.54734022515E+02  0.76489279700E+01  0.18470622038E+03  0.21738201598E+03  0.10042028534E+03 0.  0.
          5    1    3    3  502    0 -0.56514784668E+01  0.50552045331E+02  0.95686696932E+02  0.10844752125E+03  0.41800000000E+01 0. -1.
         -5    1    3    3    0  502 -0.49082544048E+02 -0.58200973301E+02  0.48960117877E+02  0.90614650945E+02  0.41800000000E+01 0. -1.
        -11    1    4    4    0    0 -0.13726807248E+02  0.35811422531E+02  0.43832096368E+02  0.58242045748E+02  0.00000000000E+00 0. -1.
         11    1    4    4    0    0  0.68460829763E+02 -0.28162494561E+02  0.14087412401E+03  0.15913997024E+03  0.00000000000E+00 0.  1.
</event>
<event>
 8    1  0.4798744E-006  0.1086938E+03  0.7561462E-02  0.1263008E+00
         -2   -1    0    0    0  501 -0.00000000000E+00  0.00000000000E+00  0.56548179734E+02  0.56548179734E+02  0.00000000000E+00 0.  1.
          2   -1    0    0  501    0  0.00000000000E+00 -0.00000000000E+00 -0.24120055249E+03  0.24120055249E+03  0.00000000000E+00 0. -1.
         23    2    1    2    0    0 -0.99166112662E+01  0.43702756482E+02 -0.11826619896E+03  0.17647999764E+03  0.12308544044E+03 0.  0.
         23    2    1    2    0    0  0.99166112662E+01 -0.43702756482E+02 -0.66386173796E+02  0.12126873458E+03  0.91053345974E+02 0.  0.
          5    1    3    3  502    0 -0.62434148769E+02  0.43355549881E+01 -0.74932746238E+02  0.97720053358E+02  0.41800000000E+01 0. -1.
         -5    1    3    3    0  502  0.52517537503E+02  0.39367201494E+02 -0.43333452727E+02  0.78759944287E+02  0.41800000000E+01 0.  1.
        -11    1    4    4    0    0  0.42826969891E+02 -0.33709612756E+02 -0.10285557877E+02  0.55464223091E+02  0.00000000000E+00 0.  1.
         11    1    4    4    0    0 -0.32910358625E+02 -0.99931437255E+01 -0.56100615919E+02  0.65804511493E+02  0.00000000000E+00 0. -1.
</event>
<event>
 8    1  0.4798744E-006  0.1303016E+03  0.7561462E-02  0.1227009E+00
         -2   -1    0    0    0  501 -0.00000000000E+00  0.00000000000E+00  0.11367992335E+03  0.11367992335E+03  0.00000000000E+00 0. -1.
          2   -1    0    0  501    0  0.00000000000E+00 -0.00000000000E+00 -0.17003991544E+03  0.17003991544E+03  0.00000000000E+00 0.  1.
         23    2    1    2    0    0  0.19341492330E+02 -0.74434299762E+02  0.11439540597E+02  0.14728915069E+03  0.12509465422E+03 0.  0.
         23    2    1    2    0    0 -0.19341492330E+02  0.74434299762E+02 -0.67799532693E+02  0.13643068810E+03  0.90011097734E+02 0.  0.
          5    1    3    3  502    0  0.40646453761E+02 -0.10069490846E+03 -0.63432329621E+01  0.10885452585E+03  0.41800000000E+01 0.  1.
         -5    1    3    3    0  502 -0.21304961430E+02  0.26260608703E+02  0.17782773560E+02  0.38434624838E+02  0.41800000000E+01 0.  1.
        -11    1    4    4    0    0 -0.22435360603E+02 -0.15883968126E+02 -0.10505701898E+02  0.29428143353E+02  0.00000000000E+00 0.  1.
         11    1    4    4    0    0  0.30938682726E+01  0.90318267888E+02 -0.57293830795E+02  0.10700254475E+03  0.00000000000E+00 0. -1.
</event>
<event>
 8    1  0.4798744E-006  0.1454702E+03  0.7561462E-02  0.1206152E+00
         -2   -1    0    0    0  501 -0.00000000000E+00  0.00000000000E+00  0.32305671081E+02  0.32305671081E+02  0.00000000000E+00 0.  1.
          2   -1    0    0  501    0  0.00000000000E+00 -0.00000000000E+00 -0.75624861534E+03  0.75624861534E+03  0.00000000000E+00 0. -1.
         23    2    1    2    0    0  0.10453182924E+03 -0.18465795571E+02 -0.27784770214E+03  0.32266817276E+03  0.12509002837E+03 0.  0.
         23    2    1    2    0    0 -0.10453182924E+03  0.18465795571E+02 -0.44609524212E+03  0.46588611366E+03  0.82346930299E+02 0.  0.
          5    1    3    3  502    0  0.13104241020E+03 -0.22774314913E+02 -0.25289741738E+03  0.28577151504E+03  0.41800000000E+01 0. -1.
         -5    1    3    3    0  502 -0.26510580955E+02  0.43085193422E+01 -0.24950284762E+02  0.36896657724E+02  0.41800000000E+01 0. -1.
        -11    1    4    4    0    0 -0.41629401415E+02  0.45983514183E+02 -0.15840380296E+03  0.17011541797E+03  0.00000000000E+00 0.  1.
         11    1    4    4    0    0 -0.62902427826E+02 -0.27517718612E+02 -0.28769143916E+03  0.29577069569E+03  0.00000000000E+00 0. -1.
</event>
<event>
 8    1  0.4798744E-006  0.8221488E+02  0.7561462E-02  0.1322881E+00
          1   -1    0    0  501    0  0.00000000000E+00  0.00000000000E+00  0.21951928297E+02  0.21951928297E+02  0.00000000000E+00 0. -1.
         -1   -1    0    0    0  501 -0.00000000000E+00 -0.00000000000E+00 -0.10177125990E+04  0.10177125990E+04  0.00000000000E+00 0.  1.
         23    2    1    2    0    0 -0.97565340535E+01 -0.92278550402E+01 -0.89607994103E+03  0.90486859134E+03  0.12509022191E+03 0.  0.
         23    2    1    2    0    0  0.97565340535E+01  0.92278550402E+01 -0.99680729650E+02  0.13479593593E+03  0.89740477013E+02 0.  0.
          5    1    3    3  502    0  0.35471979446E+02 -0.24721239796E+02 -0.74684100406E+03  0.74810317388E+03  0.41800000000E+01 0. -1.
         -5    1    3    3    0  502 -0.45228513499E+02  0.15493384756E+02 -0.14923893697E+03  0.15676541747E+03  0.41800000000E+01 0. -1.
        -11    1    4    4    0    0  0.40617588792E+02 -0.56989179328E+00 -0.13617460085E+02  0.42843301870E+02  0.00000000000E+00 0. -1.
         11    1    4    4    0    0 -0.30861054739E+02  0.97977468335E+01 -0.86063269564E+02  0.91952634061E+02  0.00000000000E+00 0.  1.
</event>
<event>
 8    1  0.4798744E-006  0.1413734E+03  0.7561462E-02  0.1211493E+00
         -2   -1    0    0    0  501 -0.00000000000E+00  0.00000000000E+00  0.40590122138E+02  0.40590122138E+02  0.00000000000E+00 0.  1.
          2   -1    0    0  501    0  0.00000000000E+00 -0.00000000000E+00 -0.82788671363E+03  0.82788671363E+03  0.00000000000E+00 0. -1.
         23    2    1    2    0    0  0.64509791614E+02  0.86466527057E+02 -0.20234502491E+03  0.26120847416E+03  0.12509350245E+03 0.  0.
         23    2    1    2    0    0 -0.64509791614E+02 -0.86466527057E+02 -0.58495156659E+03  0.60726836161E+03  0.12234604302E+03 0.  0.
          5    1    3    3  502    0  0.86333168421E+02  0.47692733893E+02 -0.68651413080E+02  0.12024351024E+03  0.41800000000E+01 0.  1.
         -5    1    3    3    0  502 -0.21823376807E+02  0.38773793164E+02 -0.13369361182E+03  0.14096496393E+03  0.41800000000E+01 0.  1.
        -11    1    4    4    0    0 -0.44475335042E+02  0.58629842353E+01 -0.66100200006E+02  0.79885333147E+02  0.00000000000E+00 0.  1.
         11    1    4    4    0    0 -0.20034456572E+02 -0.92329511292E+02 -0.51885136658E+03  0.52738302846E+03  0.00000000000E+00 0. -1.
</event>
<event>
 8    1  0.4798744E-006  0.2610485E+03  0.7561462E-02  0.1106515E+00
          1   -1    0    0  501    0  0.00000000000E+00  0.00000000000E+00  0.44124245012E+02  0.44124245012E+02  0.00000000000E+00 0. -1.
         -1   -1    0    0    0  501 -0.00000000000E+00 -0.00000000000E+00 -0.19636397642E+04  0.19636397642E+04  0.00000000000E+00 0.  1.
         23    2    1    2    0    0  0.31560516755E+01 -0.23847531027E+03 -0.14350725477E+04  0.14601232655E+04  0.12508516693E+03 0.  0.
         23    2    1    2    0    0 -0.31560516755E+01  0.23847531027E+03 -0.48444297150E+03  0.54764074373E+03  0.91350737795E+02 0.  0.
          5    1    3    3  502    0 -0.59355665861E+02 -0.14014659496E+03 -0.85469709542E+03  0.86815249839E+03  0.41800000000E+01 0.  1.
         -5    1    3    3    0  502  0.62511717536E+02 -0.98328715308E+02 -0.58037545232E+03  0.59197076714E+03  0.41800000000E+01 0.  1.
        -11    1    4    4    0    0  0.26864131596E+02  0.21052586403E+03 -0.42950898583E+03  0.47908328076E+03  0.00000000000E+00 0.  1.
         11    1    4    4    0    0 -0.30020183272E+02  0.27949446234E+02 -0.54933985668E+02  0.68557462977E+02  0.00000000000E+00 0. -1.
</event>
<event>
 8    1  0.4798744E-006  0.9944494E+02  0.7561462E-02  0.1281468E+00
         -1   -1    0    0    0  501 -0.00000000000E+00  0.00000000000E+00  0.16080559311E+03  0.16080559311E+03  0.00000000000E+00 0.  1.
          1   -1    0    0  501    0  0.00000000000E+00 -0.00000000000E+00 -0.74514392530E+02  0.74514392530E+02  0.00000000000E+00 0. -1.
         23    2    1    2    0    0 -0.15951735455E+02 -0.26785532588E+02  0.61996200563E+02  0.13460179707E+03  0.11533513026E+03 0.  0.
         23    2    1    2    0    0  0.15951735455E+02  0.26785532588E+02  0.24295000013E+02  0.10071818856E+03  0.92638997520E+02 0.  0.
          5    1    3    3  502    0  0.46798783850E+02  0.72329784953E+01  0.19182371311E+02  0.51262831729E+02  0.41800000000E+01 0. -1.
         -5    1    3    3    0  502 -0.62750519306E+02 -0.34018511084E+02  0.42813829252E+02  0.83338965345E+02  0.41800000000E+01 0.  1.
        -11    1    4    4    0    0  0.42133807720E+02 -0.36102571665E+00  0.41610148631E+02  0.59218177628E+02  0.00000000000E+00 0.  1.
         11    1    4    4    0    0 -0.26182072264E+02  0.27146558305E+02 -0.17315148618E+02  0.41500010934E+02  0.00000000000E+00 0. -1.
</event>
<event>
 7    1  0.4798744E-006  0.1261305E+03  0.7561462E-02  0.1233313E+00
         -1   -1    0    0    0  501 -0.00000000000E+00  0.00000000000E+00  0.13589559205E+03  0.13589559205E+03  0.00000000000E+00 0.  1.
          1   -1    0    0  501    0  0.00000000000E+00 -0.00000000000E+00 -0.16721271465E+03  0.16721271465E+03  0.00000000000E+00 0. -1.
         23    2    1    2    0    0 -0.38295999172E+02  0.38357817351E+02 -0.24410198715E+02  0.10996773755E+03  0.92515619195E+02 0.  0.
          5    1    1    2  502    0 -0.50660370843E+02 -0.15652586160E+02 -0.65326823217E+02  0.84240980876E+02  0.41800000000E+01 0. -1.
         -5    1    1    2    0  502  0.88956370015E+02 -0.22705231190E+02  0.58419899330E+02  0.10889958828E+03  0.41800000000E+01 0.  1.
        -11    1    3    3    0    0 -0.66001019250E+02  0.43424412371E+02 -0.16444048032E+02  0.80698332371E+02  0.00000000000E+00 0. -1.
         11    1    3    3    0    0  0.27705020077E+02 -0.50665950198E+01 -0.79661506825E+01  0.29269405175E+02  0.00000000000E+00 0.  1.
</event>
<event>
 8    1  0.4798744E-006  0.2115634E+03  0.7561462E-02  0.1140334E+00
         -1   -1    0    0    0  501 -0.00000000000E+00  0.00000000000E+00  0.79778357317E+02  0.79778357317E+02  0.00000000000E+00 0.  1.
          1   -1    0    0  501    0  0.00000000000E+00 -0.00000000000E+00 -0.56962616184E+03  0.56962616184E+03  0.00000000000E+00 0. -1.
         23    2    1    2    0    0  0.83962235626E+02  0.16341455399E+03 -0.22038129539E+03  0.31300066568E+03  0.12509007911E+03 0.  0.
         23    2    1    2    0    0 -0.83962235626E+02 -0.16341455399E+03 -0.26946650913E+03  0.33640385348E+03  0.82470477303E+02 0.  0.
          5    1    3    3  502    0  0.46691989152E+02 -0.73103735332E+01 -0.45197670913E+02  0.65527744262E+02  0.41800000000E+01 0. -1.
         -5    1    3    3    0  502  0.37270246474E+02  0.17072492752E+03 -0.17518362448E+03  0.24747292141E+03  0.41800000000E+01 0. -1.
        -11    1    4    4    0    0  0.93576197571E+01 -0.63434470801E+02 -0.75227985181E+02  0.98847088413E+02  0.00000000000E+00 0.  1.
         11    1    4    4    0    0 -0.93319855383E+02 -0.99980083184E+02 -0.19423852395E+03  0.23755676507E+03  0.00000000000E+00 0. -1.
</event>
<event>
 8    1  0.4798744E-006  0.1134612E+03  0.7561462E-02  0.1254291E+00
         -1   -1    0    0    0  501 -0.00000000000E+00  0.00000000000E+00  0.74168626339E+03  0.74168626339E+03  0.00000000000E+00 0.  1.
          1   -1    0    0  501    0  0.00000000000E+00 -0.00000000000E+00 -0.20930756965E+02  0.20930756965E+02  0.00000000000E+00 0. -1.
         23    2    1    2    0    0 -0.23628092658E+02  0.53712400305E+02  0.43693437297E+03  0.45826039780E+03  0.12509051604E+03 0.  0.
         23    2    1    2    0    0  0.23628092658E+02 -0.53712400305E+02  0.28382113346E+03  0.30435662256E+03  0.92925826264E+02 0.  0.
          5    1    3    3  502    0 -0.24149984200E+02  0.83668391289E+02  0.18497647869E+03  0.20449301090E+03  0.41800000000E+01 0.  1.
         -5    1    3    3    0  502  0.52189154244E+00 -0.29955990983E+02  0.25195789427E+03  0.25376738690E+03  0.41800000000E+01 0.  1.
        -11    1    4    4    0    0  0.27786561782E+02 -0.79060070915E+02  0.20545421533E+03  0.22188740935E+03  0.00000000000E+00 0. -1.
         11    1    4    4    0    0 -0.41584691246E+01  0.25347670610E+02  0.78366918123E+02  0.82469213206E+02  0.00000000000E+00 0.  1.
</event>
<event>
 8    1  0.4798744E-006  0.3929827E+03  0.7561462E-02  0.1046237E+00
         -2   -1    0    0    0  501 -0.00000000000E+00  0.00000000000E+00  0.33289469107E+03  0.33289469107E+03  0.00000000000E+00 0.  1.
          2   -1    0    0  501    0  0.00000000000E+00 -0.00000000000E+00 -0.47194895955E+03  0.47194895955E+03  0.00000000000E+00 0. -1.
         23    2    1    2    0    0  0.38065448099E+03  0.30145622233E+02 -0.65519810580E+02  0.40711946294E+03  0.12508724591E+03 0.  0.
         23    2    1    2    0    0 -0.38065448099E+03 -0.30145622233E+02 -0.73534457895E+02  0.39772418768E+03  0.83490242110E+02 0.  0.
          5    1    3    3  502    0  0.15076183587E+03  0.73454584083E+02 -0.31430357932E+02  0.17067526733E+03  0.41800000000E+01 0. -1.
         -5    1    3    3    0  502  0.22989264512E+03 -0.43308961850E+02 -0.34089452648E+02  0.23644419561E+03  0.41800000000E+01 0. -1.
        -11    1    4    4    0    0 -0.22546091254E+03 -0.38912460581E+02 -0.79379611751E+02  0.24217333758E+03  0.00000000000E+00 0.  1.
         11    1    4    4    0    0 -0.15519356845E+03  0.87668383482E+01  0.58451538553E+01  0.15555085010E+03  0.00000000000E+00 0. -1.
</event>
<event>
 8    1  0.4798744E-006  0.1007527E+03  0.7561462E-02  0.1278721E+00
          1   -1    0    0  501    0  0.00000000000E+00  0.00000000000E+00  0.21629043675E+02  0.21629043675E+02  0.00000000000E+00 0. -1.
         -1   -1    0    0    0  501 -0.00000000000E+00 -0.00000000000E+00 -0.71803205078E+03  0.71803205078E+03  0.00000000000E+00 0.  1.
         23    2    1    2    0    0  0.30605410085E+02  0.54705817780E+02 -0.41057298542E+03  0.43341752559E+03  0.12389978815E+03 0.  0.
         23    2    1    2    0    0 -0.30605410085E+02 -0.54705817780E+02 -0.28583002168E+03  0.30624356886E+03  0.90315583100E+02 0.  0.
          5    1    3    3  502    0  0.11365379081E+01  0.61151895997E+02 -0.39401030495E+03  0.39875109895E+03  0.41800000000E+01 0. -1.
         -5    1    3    3    0  502  0.29468872177E+02 -0.64460782168E+01 -0.16562680466E+02  0.34666426640E+02  0.41800000000E+01 0.  1.
        -11    1    4    4    0    0 -0.43933847889E+02 -0.74140788186E+02 -0.21674674906E+03  0.23325135089E+03  0.00000000000E+00 0. -1.
         11    1    4    4    0    0  0.13328437803E+02  0.19434970406E+02 -0.69083272618E+02  0.72992217973E+02  0.00000000000E+00 0.  1.
</event>
<event>
 8    1  0.4798744E-006  0.9877485E+02  0.7561462E-02  0.1282894E+00
          3   -1    0    0  501    0  0.00000000000E+00  0.00000000000E+00  0.30722734243E+03  0.30722734243E+03  0.00000000000E+00 0. -1.
         -3   -1    0    0    0  501 -0.00000000000E+00 -0.00000000000E+00 -0.57431623457E+02  0.57431623457E+02  0.00000000000E+00 0.  1.
         23    2    1    2    0    0  0.48811994407E+00 -0.18764944741E+02  0.35967421256E+02  0.13150447253E+03  0.12508960585E+03 0.  0.
         23    2    1    2    0    0 -0.48811994407E+00  0.18764944741E+02  0.21382829772E+03  0.23315449336E+03  0.91028102564E+02 0.  0.
          5    1    3    3  502    0  0.41208225377E+02 -0.48805420481E+02  0.47163122513E+02  0.79510498881E+02  0.41800000000E+01 0. -1.
         -5    1    3    3    0  502 -0.40720105433E+02  0.30040475740E+02 -0.11195701257E+02  0.51993973649E+02  0.41800000000E+01 0. -1.
        -11    1    4    4    0    0  0.23025539134E+02 -0.24437571306E+02  0.14321814975E+03  0.14710135540E+03  0.00000000000E+00 0. -1.
         11    1    4    4    0    0 -0.23513659078E+02  0.43202516047E+02  0.70610147972E+02  0.86053137959E+02  0.00000000000E+00 0.  1.
</event>
<event>
 8    1  0.4798744E-006  0.8597957E+02  0.7561462E-02  0.1312891E+00
         -1   -1    0    0    0  501 -0.00000000000E+00  0.00000000000E+00  0.11789003673E+03  0.11789003673E+03  0.00000000000E+00 0.  1.
          1   -1    0    0  501    0  0.00000000000E+00 -0.00000000000E+00 -0.15246888113E+03  0.15246888113E+03  0.00000000000E+00 0. -1.
         23    2    1    2    0    0  0.19451390228E+02 -0.58173775204E+01  0.58866936512E+02  0.13973707532E+03  0.12509570553E+03 0.  0.
         23    2    1    2    0    0 -0.19451390228E+02  0.58173775204E+01 -0.93445780908E+02  0.13062184253E+03  0.88981758319E+02 0.  0.
          5    1    3    3  502    0  0.51721029200E+01  0.43287257083E+02 -0.17974254005E+02  0.47340083243E+02  0.41800000000E+01 0. -1.
         -5    1    3    3    0  502  0.14279287308E+02 -0.49104634603E+02  0.76841190517E+02  0.92396992081E+02  0.41800000000E+01 0. -1.
        -11    1    4    4    0    0 -0.47838753321E+02  0.74744942365E+01 -0.89708910021E+02  0.10194166430E+03  0.00000000000E+00 0. -1.
         11    1    4    4    0    0  0.28387363094E+02 -0.16571167160E+01 -0.37368708868E+01  0.28680178229E+02  0.00000000000E+00 0.  1.
</event>
<event>
 8    1  0.4798744E-006  0.8555704E+02  0.7561462E-02  0.1313982E+00
         -1   -1    0    0    0  501 -0.00000000000E+00  0.00000000000E+00  0.77209626559E+03  0.77209626559E+03  0.00000000000E+00 0.  1.
          1   -1    0    0  501    0  0.00000000000E+00 -0.00000000000E+00 -0.15995364853E+02  0.15995364853E+02  0.00000000000E+00 0. -1.
         23    2    1    2    0    0 -0.59996430370E+01 -0.11926498489E+02  0.50914856674E+03  0.52446081201E+03  0.12509453719E+03 0.  0.
         23    2    1    2    0    0  0.59996430370E+01  0.11926498489E+02  0.24695233400E+03  0.26363081844E+03  0.91309999889E+02 0.  0.
          5    1    3    3  502    0 -0.39757344024E+02  0.20197716814E+02  0.71853105393E+02  0.84669565506E+02  0.41800000000E+01 0.  1.
         -5    1    3    3    0  502  0.33757700987E+02 -0.32124215303E+02  0.43729546134E+03  0.43979124650E+03  0.41800000000E+01 0.  1.
        -11    1    4    4    0    0  0.15296012084E+02  0.43769743102E+02  0.72539971235E+02  0.86091845280E+02  0.00000000000E+00 0. -1.
         11    1    4    4    0    0 -0.92963690473E+01 -0.31843244613E+02  0.17441236277E+03  0.17753897316E+03  0.00000000000E+00 0.  1.
</event>
<event>
 7    1  0.4798744E-006  0.1122052E+03  0.7561462E-02  0.1256540E+00
          2   -1    0    0  501    0  0.00000000000E+00  0.00000000000E+00  0.11757978867E+04  0.11757978867E+04  0.00000000000E+00 0. -1.
         -2   -1    0    0    0  501 -0.00000000000E+00 -0.00000000000E+00 -0.20104361289E+02  0.20104361289E+02  0.00000000000E+00 0.  1.
         23    2    1    2    0    0  0.39146935040E+02 -0.17476771631E+02  0.52085130267E+03  0.53353731359E+03  0.10741538734E+03 0.  0.
          5    1    1    2  502    0  0.35885496505E+02  0.49890767545E+01  0.53760279990E+03  0.53883847543E+03  0.41800000000E+01 0. -1.
         -5    1    1    2    0  502 -0.75032431545E+02  0.12487694877E+02  0.97239422813E+02  0.12352645893E+03  0.41800000000E+01 0.  1.
        -11    1    3    3    0    0  0.74716096236E+02 -0.96124647080E+01  0.40972205339E+03  0.41658979290E+03  0.00000000000E+00 0.  1.
         11    1    3    3    0    0 -0.35569161196E+02 -0.78643069232E+01  0.11112924927E+03  0.11694752069E+03  0.00000000000E+00 0. -1.
</event>
<event>
 8    1  0.4798744E-006  0.6315396E+02  0.7561462E-02  0.1385053E+00
         -1   -1    0    0    0  501 -0.00000000000E+00  0.00000000000E+00  0.28203143473E+03  0.28203143473E+03  0.00000000000E+00 0.  1.
          1   -1    0    0  501    0  0.00000000000E+00 -0.00000000000E+00 -0.49450591950E+02  0.49450591950E+02  0.00000000000E+00 0. -1.
         23    2    1    2    0    0  0.16115400509E+01 -0.25533834566E+02  0.18304178924E+03  0.22314736972E+03  0.12504350538E+03 0.  0.
         23    2    1    2    0    0 -0.16115400509E+01  0.25533834566E+02  0.49539053542E+02  0.10833465696E+03  0.92885447210E+02 0.  0.
          5    1    3    3  502    0 -0.21515914167E+02  0.98670205067E+01  0.17884002592E+03  0.18044810868E+03  0.41800000000E+01 0.  1.
         -5    1    3    3    0  502  0.23127454218E+02 -0.35400855072E+02  0.42017633189E+01  0.42699261041E+02  0.41800000000E+01 0.  1.
        -11    1    4    4    0    0  0.24186602652E+02  0.10455035565E+01 -0.19225921044E+02  0.30914735411E+02  0.00000000000E+00 0. -1.
         11    1    4    4    0    0 -0.25798142703E+02  0.24488331009E+02  0.68764974585E+02  0.77419921547E+02  0.00000000000E+00 0.  1.
</event>
<event>
 8    1  0.4798744E-006  0.9070155E+02  0.7561462E-02  0.1301162E+00
         -3   -1    0    0    0  501 -0.00000000000E+00  0.00000000000E+00  0.10613203034E+03  0.10613203034E+03  0.00000000000E+00 0.  1.
          3   -1    0    0  501    0  0.00000000000E+00 -0.00000000000E+00 -0.14038703197E+03  0.14038703197E+03  0.00000000000E+00 0. -1.
         23    2    1    2    0    0  0.32565467902E+01  0.55921453191E+02 -0.23905447265E+02  0.13912952965E+03  0.12509093328E+03 0.  0.
         23    2    1    2    0    0 -0.32565467902E+01 -0.55921453191E+02 -0.10349554364E+02  0.10738953265E+03  0.91036170960E+02 0.  0.
          5    1    3    3  502    0  0.26811144744E+02 -0.22597075025E+02 -0.42208388467E+02  0.55031679415E+02  0.41800000000E+01 0. -1.
         -5    1    3    3    0  502 -0.23554597954E+02  0.78518528217E+02  0.18302941203E+02  0.84097850239E+02  0.41800000000E+01 0. -1.
        -11    1    4    4    0    0  0.13831849428E+02 -0.28867895172E+02  0.37827588466E+02  0.49554029901E+02  0.00000000000E+00 0.  1.
         11    1    4    4    0    0 -0.17088396218E+02 -0.27053558019E+02 -0.48177142831E+02  0.57835502748E+02  0.00000000000E+00 0. -1.
</event>
<event>
 8    1  0.4798744E-006  0.1141637E+03  0.7561462E-02  0.1253048E+00
         -2   -1    0    0    0  501 -0.00000000000E+00  0.00000000000E+00  0.17294658782E+03  0.17294658782E+03  0.00000000000E+00 0.  1.
          2   -1    0    0  501    0  0.00000000000E+00 -0.00000000000E+00 -0.10769773384E+03  0.10769773384E+03  0.00000000000E+00 0. -1.
         23    2    1    2    0    0 -0.14419685392E+02  0.62317204612E+02  0.92344965637E+02  0.16813207246E+03  0.12509772097E+03 0.  0.
         23    2    1    2    0    0  0.14419685392E+02 -0.62317204612E+02 -0.27096111659E+02  0.11251224921E+03  0.88506754754E+02 0.  0.
          5    1    3    3  502    0  0.41838301751E+02  0.62091809295E+01  0.75743848102E+02  0.86853902311E+02  0.41800000000E+01 0.  1.
         -5    1    3    3    0  502 -0.56257987143E+02  0.56108023683E+02  0.16601117534E+02  0.81278170146E+02  0.41800000000E+01 0.  1.
        -11    1    4    4    0    0 -0.30442680659E+02 -0.12280387868E+01 -0.19873915057E+02  0.36376330005E+02  0.00000000000E+00 0.  1.
         11    1    4    4    0    0  0.44862366050E+02 -0.61089165825E+02 -0.72221966011E+01  0.76135919201E+02  0.00000000000E+00 0. -1.
</event>
<event>
 8    1  0.4798744E-006  0.1959586E+03  0.7561462E-02  0.1153194E+00
         -1   -1    0    0    0  501 -0.00000000000E+00  0.00000000000E+00  0.10631972474E+03  0.10631972474E+03  0.00000000000E+00 0.  1.
          1   -1    0    0  501    0  0.00000000000E+00 -0.00000000000E+00 -0.58603440264E+03  0.58603440264E+03  0.00000000000E+00 0. -1.
         23    2    1    2    0    0 -0.16032157582E+03 -0.84103631405E+02 -0.62695959108E+02  0.22880120623E+03  0.12507110056E+03 0.  0.
         23    2    1    2    0    0  0.16032157582E+03  0.84103631405E+02 -0.41701871879E+03  0.46355292114E+03  0.90555344342E+02 0.  0.
          5    1    3    3  502    0  0.69636777883E+01  0.43756137333E+01  0.20161255899E+02  0.22171771317E+02  0.41800000000E+01 0. -1.
         -5    1    3    3    0  502 -0.16728525361E+03 -0.88479245138E+02 -0.82857215008E+02  0.20662943492E+03  0.41800000000E+01 0. -1.
        -11    1    4    4    0    0  0.10880956610E+03  0.19116728427E+02 -0.16782524062E+03  0.20092357345E+03  0.00000000000E+00 0. -1.
         11    1    4    4    0    0  0.51512009720E+02  0.64986902978E+02 -0.24919347817E+03  0.26262934769E+03  0.00000000000E+00 0.  1.
</event>
<event>
 8    1  0.4798744E-006  0.6848386E+02  0.7561462E-02  0.1365326E+00
         -2   -1    0    0    0  501 -0.00000000000E+00  0.00000000000E+00  0.10576693091E+03  0.10576693091E+03  0.00000000000E+00 0.  1.
          2   -1    0    0  501    0  0.00000000000E+00 -0.00000000000E+00 -0.19615659743E+03  0.19615659743E+03  0.00000000000E+00 0. -1.
         23    2    1    2    0    0  0.56676607284E+02 -0.16741291931E+02  0.26633078393E+02  0.14087411570E+03  0.12507472542E+03 0.  0.
         23    2    1    2    0    0 -0.56676607284E+02  0.16741291931E+02 -0.11702274491E+03  0.16104941264E+03  0.93541872006E+02 0.  0.
          5    1    3    3  502    0  0.67992318985E+00  0.19339189152E+01 -0.46536976232E+02  0.46769272976E+02  0.41800000000E+01 0.  1.
         -5    1    3    3    0  502  0.55996684094E+02 -0.18675210846E+02  0.73170054625E+02  0.94104842721E+02  0.41800000000E+01 0.  1.
        -11    1    4    4    0    0  0.12879530778E+01  0.15092695212E+02  0.12175620214E+02  0.19434351018E+02  0.00000000000E+00 0.  1.
         11    1    4    4    0    0 -0.57964560362E+02  0.16485967190E+01 -0.12919836512E+03  0.14161506163E+03  0.00000000000E+00 0. -1.
</event>
<event>
 8    1  0.4798744E-006  0.8615885E+02  0.7561462E-02  0.1312430E+00
         -1   -1    0    0    0  501 -0.00000000000E+00  0.00000000000E+00  0.31024344147E+03  0.31024344147E+03  0.00000000000E+00 0.  1.
          1   -1    0    0  501    0  0.00000000000E+00 -0.00000000000E+00 -0.62636890380E+02  0.62636890380E+02  0.00000000000E+00 0. -1.
         23    2    1    2    0    0  0.10806812859E+02 -0.95961099385E+00  0.25159192654E+03  0.28118084259E+03  0.12508581328E+03 0.  0.
         23    2    1    2    0    0 -0.10806812859E+02  0.95961099385E+00 -0.39853754480E+01  0.91699489259E+02  0.90968154073E+02 0.  0.
          5    1    3    3  502    0  0.35614049945E+02  0.53977236174E+02  0.14035188233E+03  0.15458986336E+03  0.41800000000E+01 0. -1.
         -5    1    3    3    0  502 -0.24807237085E+02 -0.54936847168E+02  0.11124004421E+03  0.12659097924E+03  0.41800000000E+01 0. -1.
        -11    1    4    4    0    0  0.16585351734E+02 -0.78076333427E+01  0.37196726414E+02  0.41468415528E+02  0.00000000000E+00 0.  1.
         11    1    4    4    0    0 -0.27392164593E+02  0.87672443365E+01 -0.41182101862E+02  0.50231073730E+02  0.00000000000E+00 0. -1.
</event>
<event>
 8    1  0.4798744E-006  0.1046738E+03  0.7561462E-02  0.1270764E+00
          2   -1    0    0  501    0  0.00000000000E+00  0.00000000000E+00  0.10880322803E+03  0.10880322803E+03  0.00000000000E+00 0. -1.
         -2   -1    0    0    0  501 -0.00000000000E+00 -0.00000000000E+00 -0.10861624362E+03  0.10861624362E+03  0.00000000000E+00 0.  1.
         23    2    1    2    0    0 -0.12096665682E+01 -0.65005253762E+01  0.63892956267E+01  0.12542765175E+03  0.12509017787E+03 0.  0.
         23    2    1    2    0    0  0.12096665682E+01  0.65005253762E+01 -0.62023112136E+01  0.91991819901E+02  0.91544012043E+02 0.  0.
          5    1    3    3  502    0  0.10790486055E+02 -0.62462706263E+02 -0.13022558157E+02  0.64846616596E+02  0.41800000000E+01 0. -1.
         -5    1    3    3    0  502 -0.12000152623E+02  0.55962180886E+02  0.19411853783E+02  0.60581035150E+02  0.41800000000E+01 0. -1.
        -11    1    4    4    0    0 -0.21317393635E+02 -0.35134998267E+02 -0.15177786624E+02  0.43809412019E+02  0.00000000000E+00 0.  1.
         11    1    4    4    0    0  0.22527060203E+02  0.41635523643E+02  0.89754754102E+01  0.48182407882E+02  0.00000000000E+00 0. -1.
</event>
<event>
 8    1  0.4798744E-006  0.1582892E+03  0.7561462E-02  0.1190642E+00
         -1   -1    0    0    0  501 -0.00000000000E+00  0.00000000000E+00  0.17164316388E+02  0.17164316388E+02  0.00000000000E+00 0.  1.
          1   -1    0    0  501    0  0.00000000000E+00 -0.00000000000E+00 -0.14819671044E+04  0.14819671044E+04  0.00000000000E+00 0. -1.
         23    2    1    2    0    0 -0.11236147810E+03 -0.25768710331E+02 -0.69870186373E+03  0.71911098722E+03  0.12508872593E+03 0.  0.
         23    2    1    2    0    0  0.11236147810E+03  0.25768710331E+02 -0.76610092423E+03  0.78002043353E+03  0.90731044395E+02 0.  0.
          5    1    3    3  502    0 -0.13262358557E+03  0.50900799848E+01 -0.55875616037E+03  0.57431772001E+03  0.41800000000E+01 0.  1.
         -5    1    3    3    0  502  0.20262107468E+02 -0.30858790316E+02 -0.13994570336E+03  0.14479326721E+03  0.41800000000E+01 0.  1.
        -11    1    4    4    0    0  0.68586816236E+02 -0.30738546712E+02 -0.40399359113E+03  0.41092557877E+03  0.00000000000E+00 0. -1.
         11    1    4    4    0    0  0.43774661862E+02  0.56507257043E+02 -0.36210733311E+03  0.36909485476E+03  0.00000000000E+00 0.  1.
</event>
<event>
 8    1  0.4798744E-006  0.1058186E+03  0.7561462E-02  0.1268515E+00
          1   -1    0    0  501    0  0.00000000000E+00  0.00000000000E+00  0.14907231846E+03  0.14907231846E+03  0.00000000000E+00 0. -1.
         -1   -1    0    0    0  501 -0.00000000000E+00 -0.00000000000E+00 -0.11550928947E+03  0.11550928947E+03  0.00000000000E+00 0.  1.
         23    2    1    2    0    0  0.40749731698E+02  0.39911242210E+02 -0.27561957205E+02  0.14021559877E+03  0.12508918724E+03 0.  0.
         23    2    1    2    0    0 -0.40749731698E+02 -0.39911242210E+02  0.61124986197E+02  0.12436600917E+03  0.92071669973E+02 0.  0.
          5    1    3    3  502    0  0.37142297721E+02  0.72937938053E+02 -0.53488033808E+02  0.97866926221E+02  0.41800000000E+01 0. -1.
         -5    1    3    3    0  502  0.36074339771E+01 -0.33026695843E+02  0.25926076602E+02  0.42348672544E+02  0.41800000000E+01 0. -1.
        -11    1    4    4    0    0 -0.51505628161E+02  0.33523086709E+01  0.60840026152E+02  0.79784562967E+02  0.00000000000E+00 0. -1.
         11    1    4    4    0    0  0.10755896463E+02 -0.43263550880E+02  0.28496004545E+00  0.44581446205E+02  0.00000000000E+00 0.  1.
</event>
<event>
 8    1  0.4798744E-006  0.9432701E+02  0.7561462E-02  0.1292699E+00
         -2   -1    0    0    0  501 -0.00000000000E+00  0.00000000000E+00  0.78554433072E+03  0.78554433072E+03  0.00000000000E+00 0. -1.
          2   -1    0    0  501    0  0.00000000000E+00 -0.00000000000E+00 -0.18698484570E+02  0.18698484570E+02  0.00000000000E+00 0.  1.
         23    2    1    2    0    0 -0.39788576874E+02 -0.26126657663E+01  0.54324228972E+03  0.55888451798E+03  0.12509900969E+03 0.  0.
         23    2    1    2    0    0  0.39788576874E+02  0.26126657663E+01  0.22360355643E+03  0.24535829731E+03  0.92801868184E+02 0.  0.
          5    1    3    3  502    0  0.16724269249E+02 -0.43597899205E+02  0.35478751307E+03  0.35787166670E+03  0.41800000000E+01 0. -1.
         -5    1    3    3    0  502 -0.56512846123E+02  0.40985233439E+02  0.18845477665E+03  0.20101285128E+03  0.41800000000E+01 0. -1.
        -11    1    4    4    0    0  0.10737995563E+02  0.30029175077E+02  0.19495407772E+02  0.37378159782E+02  0.00000000000E+00 0.  1.
         11    1    4    4    0    0  0.29050581311E+02 -0.27416509311E+02  0.20410814866E+03  0.20798013753E+03  0.00000000000E+00 0. -1.
</event>
<event>
 8    1  0.4798744E-006  0.9506093E+02  0.7561462E-02  0.1291039E+00
          1   -1    0    0  501    0  0.00000000000E+00  0.00000000000E+00  0.78613924545E+02  0.78613924545E+02  0.00000000000E+00 0. -1.
         -1   -1    0    0    0  501 -0.00000000000E+00 -0.00000000000E+00 -0.27470313875E+03  0.27470313875E+03  0.00000000000E+00 0.  1.
         23    2    1    2    0    0 -0.57967364651E+02 -0.26708768004E+02 -0.19691765390E+03  0.24186260192E+03  0.12508949652E+03 0.  0.
         23    2    1    2    0    0  0.57967364651E+02  0.26708768004E+02  0.82843968684E+00  0.11145446138E+03  0.91366498212E+02 0.  0.
          5    1    3    3  502    0  0.10210943510E+02 -0.10809421159E+02  0.13219849558E+02  0.20330857716E+02  0.41800000000E+01 0.  1.
         -5    1    3    3    0  502 -0.68178308161E+02 -0.15899346846E+02 -0.21013750345E+03  0.22153174421E+03  0.41800000000E+01 0.  1.
        -11    1    4    4    0    0  0.53686932121E+02  0.54454554203E+02  0.17981158599E+02  0.78555122166E+02  0.00000000000E+00 0.  1.
         11    1    4    4    0    0  0.42804325301E+01 -0.27745786199E+02 -0.17152718912E+02  0.32899339211E+02  0.00000000000E+00 0. -1.
</event>
<event>
 8    1  0.4798744E-006  0.1042031E+03  0.7561462E-02  0.1271698E+00
          1   -1    0    0  501    0  0.00000000000E+00  0.00000000000E+00  0.59388108271E+02  0.59388108271E+02  0.00000000000E+00 0. -1.
         -1   -1    0    0    0  501 -0.00000000000E+00 -0.00000000000E+00 -0.31674724860E+03  0.31674724860E+03  0.00000000000E+00 0.  1.
         23    2    1    2    0    0  0.43149276847E+02 -0.26318570579E+01 -0.24093729085E+03  0.27489244942E+03  0.12508514644E+03 0.  0.
         23    2    1    2    0    0 -0.43149276847E+02  0.26318570579E+01 -0.16421849477E+02  0.10124290745E+03  0.90064767837E+02 0.  0.
          5    1    3    3  502    0 -0.35985854128E+02  0.29306112632E+02 -0.94153450757E+02  0.10505319902E+03  0.41800000000E+01 0. -1.
         -5    1    3    3    0  502  0.79135130975E+02 -0.31937969690E+02 -0.14678384010E+03  0.16983925040E+03  0.41800000000E+01 0. -1.
        -11    1    4    4    0    0 -0.11450753106E+02  0.31487012288E+02  0.24868798139E+02  0.41725397666E+02  0.00000000000E+00 0. -1.
         11    1    4    4    0    0 -0.31698523742E+02 -0.28855155230E+02 -0.41290647617E+02  0.59517509788E+02  0.00000000000E+00 0.  1.
</event>
<event>
 8    1  0.4798744E-006  0.1017030E+03  0.7561462E-02  0.1276755E+00
         -3   -1    0    0    0  501 -0.00000000000E+00  0.00000000000E+00  0.10630667192E+03  0.10630667192E+03  0.00000000000E+00 0.  1.
          3   -1    0    0  501    0  0.00000000000E+00 -0.00000000000E+00 -0.18986561389E+03  0.18986561389E+03  0.00000000000E+00 0. -1.
         23    2    1    2    0    0 -0.45248297973E+02 -0.76615045092E+02 -0.28940875351E+02  0.15610400750E+03  0.12495444484E+03 0.  0.
         23    2    1    2    0    0  0.45248297973E+02  0.76615045092E+02 -0.54618066623E+02  0.14006827832E+03  0.93374063769E+02 0.  0.
          5    1    3    3  502    0 -0.36527833163E+01 -0.72173500285E+02 -0.67561345649E+02  0.99016992458E+02  0.41800000000E+01 0.  1.
         -5    1    3    3    0  502 -0.41595514657E+02 -0.44415448066E+01  0.38620470298E+02  0.57087015038E+02  0.41800000000E+01 0.  1.
        -11    1    4    4    0    0  0.15843788855E+02  0.26878665845E+02 -0.73039376833E+02  0.79424422510E+02  0.00000000000E+00 0. -1.
         11    1    4    4    0    0  0.29404509118E+02  0.49736379247E+02  0.18421310210E+02  0.60643855805E+02  0.00000000000E+00 0.  1.
</event>
<event>
 8    1  0.4798744E-006  0.9286935E+02  0.7561462E-02  0.1296048E+00
          2   -1    0    0  501    0  0.00000000000E+00  0.00000000000E+00  0.21467708465E+03  0.21467708465E+03  0.00000000000E+00 0. -1.
         -2   -1    0    0    0  501 -0.00000000000E+00 -0.00000000000E+00 -0.84205645863E+02  0.84205645863E+02  0.00000000000E+00 0.  1.
         23    2    1    2    0    0  0.75997470214E+02 -0.57358331647E+01  0.44056432346E+02  0.15296419817E+03  0.12509421021E+03 0.  0.
         23    2    1    2    0    0 -0.75997470214E+02  0.57358331647E+01  0.86415006443E+02  0.14591853235E+03  0.89532951941E+02 0.  0.
          5    1    3    3  502    0  0.53588988867E+02  0.30921728397E+02  0.76853338831E+02  0.98751410645E+02  0.41800000000E+01 0.  1.
         -5    1    3    3    0  502  0.22408481346E+02 -0.36657561562E+02 -0.32796906485E+02  0.54212787522E+02  0.41800000000E+01 0.  1.
        -11    1    4    4    0    0 -0.27645890338E+02 -0.10474716640E+02 -0.14441302447E+02  0.32902373131E+02  0.00000000000E+00 0.  1.
         11    1    4    4    0    0 -0.48351579875E+02  0.16210549805E+02  0.10085630889E+03  0.11301615922E+03  0.00000000000E+00 0. -1.
</event>
<event>
 8    1  0.4798744E-006  0.1260935E+03  0.7561462E-02  0.1233370E+00
          1   -1    0    0  501    0  0.00000000000E+00  0.00000000000E+00  0.35786413266E+03  0.35786413266E+03  0.00000000000E+00 0. -1.
         -1   -1    0    0    0  501 -0.00000000000E+00 -0.00000000000E+00 -0.89409562859E+02  0.89409562859E+02  0.00000000000E+00 0.  1.
         23    2    1    2    0    0  0.85640356908E+02  0.41516950840E+01  0.93155135045E+00  0.15165461749E+03  0.12508696140E+03 0.  0.
         23    2    1    2    0    0 -0.85640356908E+02 -0.41516950840E+01  0.26752301846E+03  0.29561907804E+03  0.92035681083E+02 0.  0.
          5    1    3    3  502    0  0.16390187083E+02 -0.40669320620E+02  0.40711088929E+02  0.59979138324E+02  0.41800000000E+01 0. -1.
         -5    1    3    3    0  502  0.69250169825E+02  0.44821015704E+02 -0.39779537579E+02  0.91675479162E+02  0.41800000000E+01 0. -1.
        -11    1    4    4    0    0  0.16654339441E+02 -0.15337178480E+02  0.55610699423E+02  0.60042867656E+02  0.00000000000E+00 0. -1.
         11    1    4    4    0    0 -0.10229469635E+03  0.11185483396E+02  0.21191231903E+03  0.23557621038E+03  0.00000000000E+00 0.  1.
</event>
<event>
 8    1  0.4798744E-006  0.1101791E+03  0.7561462E-02  0.1260239E+00
          1   -1    0    0  501    0  0.00000000000E+00  0.00000000000E+00  0.91177803245E+02  0.91177803245E+02  0.00000000000E+00 0. -1.
         -1   -1    0    0    0  501 -0.00000000000E+00 -0.00000000000E+00 -0.20501952727E+03  0.20501952727E+03  0.00000000000E+00 0.  1.
         23    2    1    2    0    0 -0.70820180952E+02 -0.14776304808E+02 -0.10698306273E+03  0.17979424055E+03  0.12508699377E+03 0.  0.
         23    2    1    2    0    0  0.70820180952E+02  0.14776304808E+02 -0.68586612975E+01  0.11640308997E+03  0.90932947301E+02 0.  0.
          5    1    3    3  502    0 -0.88883763101E+02 -0.47298396817E+02 -0.52329378098E+02  0.11354865872E+03  0.41800000000E+01 0.  1.
         -5    1    3    3    0  502  0.18063582149E+02  0.32522092009E+02 -0.54653684634E+02  0.66245581836E+02  0.41800000000E+01 0.  1.
        -11    1    4    4    0    0  0.52778654171E+00  0.11782659308E+02 -0.37760547048E+02  0.39559683168E+02  0.00000000000E+00 0.  1.
         11    1    4    4    0    0  0.70292394410E+02  0.29936455002E+01  0.30901885750E+02  0.76843406797E+02  0.00000000000E+00 0. -1.
</event>
<event>
 8    1  0.4798744E-006  0.2151974E+03  0.7561462E-02  0.1137515E+00
         -1   -1    0    0    0  501 -0.00000000000E+00  0.00000000000E+00  0.94311516473E+02  0.94311516473E+02  0.00000000000E+00 0.  1.
          1   -1    0    0  501    0  0.00000000000E+00 -0.00000000000E+00 -0.49878210776E+03  0.49878210776E+03  0.00000000000E+00 0. -1.
         23    2    1    2    0    0 -0.36559513681E+02  0.18296712886E+03 -0.23733356793E+03  0.32678487826E+03  0.12509023108E+03 0.  0.
         23    2    1    2    0    0  0.36559513681E+02 -0.18296712886E+03 -0.16713702336E+03  0.26630874597E+03  0.90399089155E+02 0.  0.
          5    1    3    3  502    0  0.46237487374E+02  0.72632907630E+02 -0.81588584822E+02  0.11869125529E+03  0.41800000000E+01 0.  1.
         -5    1    3    3    0  502 -0.82797001055E+02  0.11033422123E+03 -0.15574498311E+03  0.20809362297E+03  0.41800000000E+01 0.  1.
        -11    1    4    4    0    0  0.56409212625E+02 -0.62911341931E+02 -0.54905645833E+02  0.10076937112E+03  0.00000000000E+00 0.  1.
         11    1    4    4    0    0 -0.19849698945E+02 -0.12005578693E+03 -0.11223137753E+03  0.16553937485E+03  0.00000000000E+00 0. -1.
</event>
<event>
 8    1  0.4798744E-006  0.1841017E+03  0.7561462E-02  0.1163891E+00
          1   -1    0    0  501    0  0.00000000000E+00  0.00000000000E+00  0.93894156017E+02  0.93894156017E+02  0.00000000000E+00 0. -1.
         -1   -1    0    0    0  501 -0.00000000000E+00 -0.00000000000E+00 -0.47290170745E+03  0.47290170745E+03  0.00000000000E+00 0.  1.
         23    2    1    2    0    0  0.13102079577E+03 -0.11336233345E+03 -0.26578084864E+03  0.34103413933E+03  0.12508939650E+03 0.  0.
         23    2    1    2    0    0 -0.13102079577E+03  0.11336233345E+03 -0.11322670279E+03  0.22576172413E+03  0.90169852447E+02 0.  0.
          5    1    3    3  502    0  0.72852138992E+02 -0.97498770170E+02 -0.25074477176E+03  0.27875411621E+03  0.41800000000E+01 0.  1.
         -5    1    3    3    0  502  0.58168656779E+02 -0.15863563275E+02 -0.15036076875E+02  0.62280023114E+02  0.41800000000E+01 0.  1.
        -11    1    4    4    0    0 -0.62627285678E+02  0.97326506608E+02 -0.10269488163E+03  0.15472835717E+03  0.00000000000E+00 0.  1.
         11    1    4    4    0    0 -0.68393510094E+02  0.16035826838E+02 -0.10531821163E+02  0.71033366965E+02  0.00000000000E+00 0. -1.
</event>
<event>
 7    1  0.4798744E-006  0.1689065E+03  0.7561462E-02  0.1178993E+00
         -1   -1    0    0    0  501 -0.00000000000E+00  0.00000000000E+00  0.43790866471E+03  0.43790866471E+03  0.00000000000E+00 0.  1.
          1   -1    0    0  501    0  0.00000000000E+00 -0.00000000000E+00 -0.78775594095E+02  0.78775594095E+02  0.00000000000E+00 0. -1.
         23    2    1    2    0    0  0.74024394289E+02  0.64997829341E+01  0.13854928339E+03  0.18289848084E+03  0.93456365414E+02 0.  0.
          5    1    1    2  502    0 -0.13319857564E+03 -0.71519813743E+02  0.18473570298E+03  0.23875028097E+03  0.41800000000E+01 0. -1.
         -5    1    1    2    0  502  0.59174181351E+02  0.65020030809E+02  0.35848084245E+02  0.95035496995E+02  0.41800000000E+01 0.  1.
        -11    1    3    3    0    0  0.25846940860E+02  0.34287510011E+02  0.11871271426E+02  0.44549127711E+02  0.00000000000E+00 0. -1.
         11    1    3    3    0    0  0.48177453429E+02 -0.27787727077E+02  0.12667801197E+03  0.13834935313E+03  0.00000000000E+00 0.  1.
</event>
<event>
 7    1  0.4798744E-006  0.1245385E+03  0.7561462E-02  0.1235792E+00
         -2   -1    0    0    0  501 -0.00000000000E+00  0.00000000000E+00  0.94040966406E+02  0.94040966406E+02  0.00000000000E+00 0.  1.
          2   -1    0    0  501    0  0.00000000000E+00 -0.00000000000E+00 -0.55628725210E+03  0.55628725210E+03  0.00000000000E+00 0. -1.
         23    2    1    2    0    0 -0.56722460961E+01 -0.15440619395E+02 -0.10045185228E+03  0.13632956791E+03  0.90689521759E+02 0.  0.
          5    1    1    2  502    0  0.88279126800E+02  0.24942217780E+02 -0.40839201343E+03  0.41858909146E+03  0.41800000000E+01 0. -1.
         -5    1    1    2    0  502 -0.82606880704E+02 -0.95015983853E+01  0.46597580015E+02  0.95409559137E+02  0.41800000000E+01 0.  1.
        -11    1    3    3    0    0 -0.19113902813E+02  0.24945280401E+02 -0.85702138898E+02  0.91282336226E+02  0.00000000000E+00 0.  1.
         11    1    3    3    0    0  0.13441656717E+02 -0.40385899796E+02 -0.14749713385E+02  0.45047231686E+02  0.00000000000E+00 0. -1.
</event>
<event>
 8    1  0.4798744E-006  0.1794467E+03  0.7561462E-02  0.1168340E+00
         -1   -1    0    0    0  501 -0.00000000000E+00  0.00000000000E+00  0.28663029558E+03  0.28663029558E+03  0.00000000000E+00 0.  1.
          1   -1    0    0  501    0  0.00000000000E+00 -0.00000000000E+00 -0.23015548534E+03  0.23015548534E+03  0.00000000000E+00 0. -1.
         23    2    1    2    0    0 -0.13651556785E+03  0.97218215455E+02  0.19078666319E+03  0.28308288458E+03  0.12509391274E+03 0.  0.
         23    2    1    2    0    0  0.13651556785E+03 -0.97218215455E+02 -0.13431185296E+03  0.23370289634E+03  0.92138418865E+02 0.  0.
          5    1    3    3  502    0 -0.90654457976E+02  0.71797909175E+02  0.38479139643E+02  0.12194788682E+03  0.41800000000E+01 0. -1.
         -5    1    3    3    0  502 -0.45861109879E+02  0.25420306280E+02  0.15230752355E+03  0.16113499775E+03  0.41800000000E+01 0. -1.
        -11    1    4    4    0    0  0.48014923317E+02 -0.89715352910E+02 -0.81490986029E+02  0.13036509584E+03  0.00000000000E+00 0. -1.
         11    1    4    4    0    0  0.88500644538E+02 -0.75028625447E+01 -0.52820866932E+02  0.10333780051E+03  0.00000000000E+00 0.  1.
</event>
<event>
 8    1  0.4798744E-006  0.1617291E+03  0.7561462E-02  0.1186758E+00
         -1   -1    0    0    0  501 -0.00000000000E+00  0.00000000000E+00  0.17140797197E+03  0.17140797197E+03  0.00000000000E+00 0.  1.
          1   -1    0    0  501    0  0.00000000000E+00 -0.00000000000E+00 -0.20573848954E+03  0.20573848954E+03  0.00000000000E+00 0. -1.
         23    2    1    2    0    0  0.11127595999E+03 -0.74955380145E+02  0.55779807497E+02  0.19172739533E+03  0.12508940367E+03 0.  0.
         23    2    1    2    0    0 -0.11127595999E+03  0.74955380145E+02 -0.90110325067E+02  0.18541906618E+03  0.90882952934E+02 0.  0.
          5    1    3    3  502    0 -0.18193801724E+02 -0.37622890089E+02 -0.77330740971E+01  0.42705609875E+02  0.41800000000E+01 0. -1.
         -5    1    3    3    0  502  0.12946976171E+03 -0.37332490056E+02  0.63512881594E+02  0.14902178545E+03  0.41800000000E+01 0. -1.
        -11    1    4    4    0    0 -0.15211737593E+02  0.42676785234E+02 -0.67970646433E+02  0.81686680279E+02  0.00000000000E+00 0. -1.
         11    1    4    4    0    0 -0.96064222395E+02  0.32278594911E+02 -0.22139678633E+02  0.10373238590E+03  0.00000000000E+00 0.  1.
</event>
<event>
 8    1  0.4798744E-006  0.1105311E+03  0.7561462E-02  0.1259590E+00
          1   -1    0    0  501    0  0.00000000000E+00  0.00000000000E+00  0.16343565306E+03  0.16343565306E+03  0.00000000000E+00 0. -1.
         -1   -1    0    0    0  501 -0.00000000000E+00 -0.00000000000E+00 -0.13615748515E+03  0.13615748515E+03  0.00000000000E+00 0.  1.
         23    2    1    2    0    0 -0.99496713063E+02  0.98407646081E+01  0.17414097879E+02  0.16107514396E+03  0.12508203163E+03 0.  0.
         23    2    1    2    0    0  0.99496713063E+02 -0.98407646081E+01  0.98640700340E+01  0.13851799425E+03  0.95359835858E+02 0.  0.
          5    1    3    3  502    0 -0.36015640434E+02  0.65772682013E+01 -0.54002062851E+02  0.65376463693E+02  0.41800000000E+01 0. -1.
         -5    1    3    3    0  502 -0.63481072629E+02  0.32634964068E+01  0.71416160730E+02  0.95698680264E+02  0.41800000000E+01 0. -1.
        -11    1    4    4    0    0  0.96012760093E+01 -0.27296860249E+02  0.33176596862E+02  0.44022603964E+02  0.00000000000E+00 0. -1.
         11    1    4    4    0    0  0.89895437054E+02  0.17456095641E+02 -0.23312526828E+02  0.94495390285E+02  0.00000000000E+00 0.  1.
</event>
<event>
 8    1  0.4798744E-006  0.1000107E+03  0.7561462E-02  0.1280274E+00
          2   -1    0    0  501    0  0.00000000000E+00  0.00000000000E+00  0.10620598584E+03  0.10620598584E+03  0.00000000000E+00 0. -1.
         -2   -1    0    0    0  501 -0.00000000000E+00 -0.00000000000E+00 -0.14212902104E+03  0.14212902104E+03  0.00000000000E+00 0.  1.
         23    2    1    2    0    0 -0.45403241104E+02 -0.26395065319E+02 -0.58438297164E+02  0.13864783269E+03  0.11423674172E+03 0.  0.
         23    2    1    2    0    0  0.45403241104E+02  0.26395065319E+02  0.22515261965E+02  0.10968717418E+03  0.93627909210E+02 0.  0.
          5    1    3    3  502    0 -0.73498703914E+02  0.15009726524E+02 -0.29664382619E+02  0.80776230189E+02  0.41800000000E+01 0. -1.
         -5    1    3    3    0  502  0.28095462809E+02 -0.41404791843E+02 -0.28773914544E+02  0.57871602503E+02  0.41800000000E+01 0.  1.
        -11    1    4    4    0    0 -0.98118608910E+01  0.15582120012E+02  0.45365510485E+02  0.48960235087E+02  0.00000000000E+00 0. -1.
         11    1    4    4    0    0  0.55215101995E+02  0.10812945307E+02 -0.22850248520E+02  0.60726939096E+02  0.00000000000E+00 0.  1.
</event>
<event>
 8    1  0.4798744E-006  0.2538514E+03  0.7561462E-02  0.1110895E+00
          1   -1    0    0  501    0  0.00000000000E+00  0.00000000000E+00  0.21645876837E+03  0.21645876837E+03  0.00000000000E+00 0. -1.
         -1   -1    0    0    0  501 -0.00000000000E+00 -0.00000000000E+00 -0.34845385902E+03  0.34845385902E+03  0.00000000000E+00 0.  1.
         23    2    1    2    0    0  0.16829696010E+03  0.16334861771E+03 -0.16515684849E+03  0.31293930703E+03  0.12509031774E+03 0.  0.
         23    2    1    2    0    0 -0.16829696010E+03 -0.16334861771E+03  0.33161757833E+02  0.25197332037E+03  0.85931451197E+02 0.  0.
          5    1    3    3  502    0  0.10109709250E+03  0.14480820755E+02 -0.57560627423E+02  0.11730735063E+03  0.41800000000E+01 0.  1.
         -5    1    3    3    0  502  0.67199867599E+02  0.14886779696E+03 -0.10759622107E+03  0.19563195640E+03  0.41800000000E+01 0.  1.
        -11    1    4    4    0    0 -0.89670009342E+02 -0.45820377030E+02 -0.16622723491E+02  0.10206141515E+03  0.00000000000E+00 0.  1.
         11    1    4    4    0    0 -0.78626950761E+02 -0.11752824068E+03  0.49784481324E+02  0.14991190521E+03  0.00000000000E+00 0. -1.
</event>
<event>
 7    1  0.4798744E-006  0.1361231E+03  0.7561462E-02  0.1218643E+00
          1   -1    0    0  501    0  0.00000000000E+00  0.00000000000E+00  0.72133590663E+03  0.72133590663E+03  0.00000000000E+00 0. -1.
         -1   -1    0    0    0  501 -0.00000000000E+00 -0.00000000000E+00 -0.41682156089E+02  0.41682156089E+02  0.00000000000E+00 0.  1.
         23    2    1    2    0    0  0.64786771193E+02 -0.81874069059E+02  0.15297997630E+03  0.22349884645E+03  0.12509265490E+03 0.  0.
          5    1    3    3  502    0  0.98369146586E+02 -0.58299978097E+02  0.79817385249E+02  0.13951223543E+03  0.41800000000E+01 0.  1.
         -5    1    3    3    0  502 -0.33582375393E+02 -0.23574090962E+02  0.73162591050E+02  0.83986611022E+02  0.41800000000E+01 0.  1.
        -11    1    1    2    0    0 -0.50514305088E+02  0.22121623559E+02  0.27283057983E+03  0.27834795946E+03  0.00000000000E+00 0. -1.
         11    1    1    2    0    0 -0.14272466105E+02  0.59752445499E+02  0.25384319441E+03  0.26117125680E+03  0.00000000000E+00 0.  1.
</event>
<event>
 8    1  0.4798744E-006  0.1212140E+03  0.7561462E-02  0.1241108E+00
          3   -1    0    0  501    0  0.00000000000E+00  0.00000000000E+00  0.44962726380E+02  0.44962726380E+02  0.00000000000E+00 0.  1.
         -3   -1    0    0    0  501 -0.00000000000E+00 -0.00000000000E+00 -0.49311341389E+03  0.49311341389E+03  0.00000000000E+00 0. -1.
         23    2    1    2    0    0  0.28950094195E+02  0.68330979306E+02 -0.36839394288E+03  0.39606686061E+03  0.12509048819E+03 0.  0.
         23    2    1    2    0    0 -0.28950094195E+02 -0.68330979306E+02 -0.79756744629E+02  0.14200927966E+03  0.91094821525E+02 0.  0.
          5    1    3    3  502    0 -0.40986235766E+01  0.86702460394E+02 -0.33283893112E+03  0.34399613635E+03  0.41800000000E+01 0.  1.
         -5    1    3    3    0  502  0.33048717772E+02 -0.18371481089E+02 -0.35555011759E+02  0.52070724260E+02  0.41800000000E+01 0.  1.
        -11    1    4    4    0    0 -0.55519108820E+02 -0.71724034866E+02 -0.60762010766E+02  0.10917293884E+03  0.00000000000E+00 0. -1.
         11    1    4    4    0    0  0.26569014625E+02  0.33930555602E+01 -0.18994733863E+02  0.32836340824E+02  0.00000000000E+00 0.  1.
</event>
<event>
 8    1  0.4798744E-006  0.1425123E+03  0.7561462E-02  0.1209988E+00
          2   -1    0    0  501    0  0.00000000000E+00  0.00000000000E+00  0.72487567590E+03  0.72487567590E+03  0.00000000000E+00 0. -1.
         -2   -1    0    0    0  501 -0.00000000000E+00 -0.00000000000E+00 -0.47652844244E+02  0.47652844244E+02  0.00000000000E+00 0.  1.
         23    2    1    2    0    0 -0.10587215064E+03 -0.57195927188E+02  0.16573408009E+03  0.23998934014E+03  0.12508721642E+03 0.  0.
         23    2    1    2    0    0  0.10587215064E+03  0.57195927188E+02  0.51148875157E+03  0.53253918000E+03  0.86584922980E+02 0.  0.
          5    1    3    3  502    0 -0.28354677652E+02  0.17911083380E+02  0.11646032016E+03  0.12126530099E+03  0.41800000000E+01 0.  1.
         -5    1    3    3    0  502 -0.77517472989E+02 -0.75107010569E+02  0.49273759927E+02  0.11872403915E+03  0.41800000000E+01 0.  1.
        -11    1    4    4    0    0  0.11502732472E+03  0.36662068309E+02  0.47100586305E+03  0.48623236802E+03  0.00000000000E+00 0.  1.
         11    1    4    4    0    0 -0.91551740788E+01  0.20533858880E+02  0.40482888517E+02  0.46306811978E+02  0.00000000000E+00 0. -1.
</event>
<event>
 8    1  0.4798744E-006  0.7991510E+02  0.7561462E-02  0.1329293E+00
          1   -1    0    0  501    0  0.00000000000E+00  0.00000000000E+00  0.11766924641E+03  0.11766924641E+03  0.00000000000E+00 0. -1.
         -1   -1    0    0    0  501 -0.00000000000E+00 -0.00000000000E+00 -0.17494710600E+03  0.17494710600E+03  0.00000000000E+00 0.  1.
         23    2    1    2    0    0  0.10834766348E+02 -0.26284410722E+02 -0.10726659854E+03  0.16721680196E+03  0.12508826199E+03 0.  0.
         23    2    1    2    0    0 -0.10834766348E+02  0.26284410722E+02  0.49988738957E+02  0.12539955045E+03  0.11143568020E+03 0.  0.
          5    1    3    3  502    0 -0.10013777566E+02  0.81187211182E+00  0.26732233007E+02  0.28862078217E+02  0.41800000000E+01 0.  1.
         -5    1    3    3    0  502  0.20848543914E+02 -0.27096282834E+02 -0.13399883155E+03  0.13835472375E+03  0.41800000000E+01 0.  1.
        -11    1    4    4    0    0 -0.47892742570E+02 -0.22767243771E+02  0.28989377081E+02  0.60435471069E+02  0.00000000000E+00 0. -1.
         11    1    4    4    0    0  0.37057976222E+02  0.49051654492E+02  0.20999361876E+02  0.64964079377E+02  0.00000000000E+00 0.  1.
</event>
<event>
 8    1  0.4798744E-006  0.9093709E+02  0.7561462E-02  0.1300598E+00
          1   -1    0    0  501    0  0.00000000000E+00  0.00000000000E+00  0.14396081466E+03  0.14396081466E+03  0.00000000000E+00 0. -1.
         -1   -1    0    0    0  501 -0.00000000000E+00 -0.00000000000E+00 -0.10411516719E+03  0.10411516719E+03  0.00000000000E+00 0.  1.
         23    2    1    2    0    0  0.27306670884E+02 -0.50075563347E+02  0.24463019483E+02  0.13963399353E+03  0.12508395783E+03 0.  0.
         23    2    1    2    0    0 -0.27306670884E+02  0.50075563347E+02  0.15382627990E+02  0.10844198833E+03  0.90938568655E+02 0.  0.
          5    1    3    3  502    0  0.48000864922E+02 -0.55336259235E+01 -0.36888465491E+02  0.60933860336E+02  0.41800000000E+01 0. -1.
         -5    1    3    3    0  502 -0.20694194038E+02 -0.44541937424E+02  0.61351484974E+02  0.78700133194E+02  0.41800000000E+01 0. -1.
        -11    1    4    4    0    0  0.84416378329E+01  0.47497400869E+02 -0.25093714699E+02  0.54377926183E+02  0.00000000000E+00 0.  1.
         11    1    4    4    0    0 -0.35748308717E+02  0.25781624784E+01  0.40476342689E+02  0.54064062143E+02  0.00000000000E+00 0. -1.
</event>
<event>
 8    1  0.4798744E-006  0.1395393E+03  0.7561462E-02  0.1213950E+00
         -1   -1    0    0    0  501 -0.00000000000E+00  0.00000000000E+00  0.47583422144E+02  0.47583422144E+02  0.00000000000E+00 0.  1.
          1   -1    0    0  501    0  0.00000000000E+00 -0.00000000000E+00 -0.53774164634E+03  0.53774164634E+03  0.00000000000E+00 0. -1.
         23    2    1    2    0    0  0.86032442944E+02  0.77491807412E+02 -0.22354265720E+03  0.28111456164E+03  0.12509003046E+03 0.  0.
         23    2    1    2    0    0 -0.86032442944E+02 -0.77491807412E+02 -0.26661556699E+03  0.30421050685E+03  0.89741910265E+02 0.  0.
          5    1    3    3  502    0  0.10757094688E+03  0.64249626633E+02 -0.22259381955E+03  0.25547016271E+03  0.41800000000E+01 0. -1.
         -5    1    3    3    0  502 -0.21538503933E+02  0.13242180778E+02 -0.94883765584E+00  0.25644398927E+02  0.41800000000E+01 0. -1.
        -11    1    4    4    0    0 -0.64381146191E+02 -0.21215546979E+02 -0.21298941011E+03  0.22351626392E+03  0.00000000000E+00 0. -1.
         11    1    4    4    0    0 -0.21651296753E+02 -0.56276260432E+02 -0.53626156886E+02  0.80694242928E+02  0.00000000000E+00 0.  1.
</event>
<event>
 8    1  0.4798744E-006  0.1252719E+03  0.7561462E-02  0.1234645E+00
          3   -1    0    0  501    0  0.00000000000E+00  0.00000000000E+00  0.24010096735E+03  0.24010096735E+03  0.00000000000E+00 0.  1.
         -3   -1    0    0    0  501 -0.00000000000E+00 -0.00000000000E+00 -0.65831089026E+02  0.65831089026E+02  0.00000000000E+00 0. -1.
         23    2    1    2    0    0  0.53859289652E+02 -0.35066776501E+02  0.98813390204E+02  0.17187633618E+03  0.12508751720E+03 0.  0.
         23    2    1    2    0    0 -0.53859289652E+02  0.35066776501E+02  0.75456488116E+02  0.13405572019E+03  0.90259363070E+02 0.  0.
          5    1    3    3  502    0  0.15064132723E+02  0.47122015899E+02  0.35468916695E+02  0.61015808842E+02  0.41800000000E+01 0.  1.
         -5    1    3    3    0  502  0.38795156929E+02 -0.82188792401E+02  0.63344473509E+02  0.11086052734E+03  0.41800000000E+01 0.  1.
        -11    1    4    4    0    0 -0.71417599651E+02  0.81152649479E+00  0.40766759560E+02  0.82237830712E+02  0.00000000000E+00 0.  1.
         11    1    4    4    0    0  0.17558309999E+02  0.34255250007E+02  0.34689728557E+02  0.51817889482E+02  0.00000000000E+00 0. -1.
</event>
<event>
 8    1  0.4798744E-006  0.9518104E+02  0.7561462E-02  0.1290769E+00
         -2   -1    0    0    0  501 -0.00000000000E+00  0.00000000000E+00  0.31663786069E+02  0.31663786069E+02  0.00000000000E+00 0. -1.
          2   -1    0    0  501    0  0.00000000000E+00 -0.00000000000E+00 -0.51203893794E+03  0.51203893794E+03  0.00000000000E+00 0.  1.
         23    2    1    2    0    0 -0.17348512440E+01  0.66807342951E+02 -0.27951473843E+03  0.31343595803E+03  0.12508948799E+03 0.  0.
         23    2    1    2    0    0  0.17348512440E+01 -0.66807342951E+02 -0.20086041345E+03  0.23026676598E+03  0.90618138613E+02 0.  0.
          5    1    3    3  502    0 -0.44364755893E+02  0.51029675621E+02 -0.25014344256E+03  0.25915530791E+03  0.41800000000E+01 0. -1.
         -5    1    3    3    0  502  0.42629904649E+02  0.15777667330E+02 -0.29371295865E+02  0.54280650121E+02  0.41800000000E+01 0. -1.
        -11    1    4    4    0    0 -0.11544258013E+02 -0.61649657944E+02 -0.20583391886E+03  0.21517795512E+03  0.00000000000E+00 0.  1.
         11    1    4    4    0    0  0.13279109257E+02 -0.51576850073E+01  0.49735054083E+01  0.15088810866E+02  0.00000000000E+00 0. -1.
</event>
<event>
 8    1  0.4798744E-006  0.1892678E+03  0.7561462E-02  0.1159123E+00
         -1   -1    0    0    0  501 -0.00000000000E+00  0.00000000000E+00  0.85774160064E+02  0.85774160064E+02  0.00000000000E+00 0.  1.
          1   -1    0    0  501    0  0.00000000000E+00 -0.00000000000E+00 -0.51238773107E+03  0.51238773107E+03  0.00000000000E+00 0. -1.
         23    2    1    2    0    0  0.13540543245E+03 -0.10882537783E+03 -0.15949595919E+03  0.26695995999E+03  0.12510421752E+03 0.  0.
         23    2    1    2    0    0 -0.13540543245E+03  0.10882537783E+03 -0.26711761182E+03  0.33120193115E+03  0.90362086400E+02 0.  0.
          5    1    3    3  502    0  0.48077273806E+02 -0.10415916305E+03 -0.46120613117E+02  0.12371393963E+03  0.41800000000E+01 0. -1.
         -5    1    3    3    0  502  0.87328158639E+02 -0.46662147816E+01 -0.11337534607E+03  0.14324602036E+03  0.41800000000E+01 0. -1.
        -11    1    4    4    0    0 -0.88853159687E+02  0.88445798678E+02 -0.11249239253E+03  0.16844014269E+03  0.00000000000E+00 0.  1.
         11    1    4    4    0    0 -0.46552272758E+02  0.20379579153E+02 -0.15462521928E+03  0.16276178846E+03  0.00000000000E+00 0. -1.
</event>
<event>
 8    1  0.4798744E-006  0.1995074E+03  0.7561462E-02  0.1150155E+00
          3   -1    0    0  501    0  0.00000000000E+00  0.00000000000E+00  0.57154012308E+03  0.57154012308E+03  0.00000000000E+00 0. -1.
         -3   -1    0    0    0  501 -0.00000000000E+00 -0.00000000000E+00 -0.99499457452E+02  0.99499457452E+02  0.00000000000E+00 0.  1.
         23    2    1    2    0    0  0.37834022165E+02 -0.17428439911E+03  0.82425293365E+02  0.23289620550E+03  0.12506097929E+03 0.  0.
         23    2    1    2    0    0 -0.37834022165E+02  0.17428439911E+03  0.38961537226E+03  0.43814337504E+03  0.91449514920E+02 0.  0.
          5    1    3    3  502    0  0.11420536387E+02 -0.18371180846E+03  0.52021747553E+02  0.19132221993E+03  0.41800000000E+01 0.  1.
         -5    1    3    3    0  502  0.26413485777E+02  0.94274093525E+01  0.30403545811E+02  0.41573985567E+02  0.41800000000E+01 0.  1.
        -11    1    4    4    0    0 -0.23161009614E+02  0.16955443563E+03  0.38610892552E+03  0.42233309292E+03  0.00000000000E+00 0. -1.
         11    1    4    4    0    0 -0.14673012551E+02  0.47299634761E+01  0.35064467409E+01  0.15810282115E+02  0.00000000000E+00 0.  1.
</event>
<event>
 8    1  0.4798744E-006  0.1001917E+03  0.7561462E-02  0.1279893E+00
          1   -1    0    0  501    0  0.00000000000E+00  0.00000000000E+00  0.15587765460E+03  0.15587765460E+03  0.00000000000E+00 0. -1.
         -1   -1    0    0    0  501 -0.00000000000E+00 -0.00000000000E+00 -0.86396972068E+02  0.86396972068E+02  0.00000000000E+00 0.  1.
         23    2    1    2    0    0 -0.29687198641E+02 -0.90622025960E+01  0.53501886183E+01  0.12899595061E+03  0.12509147644E+03 0.  0.
         23    2    1    2    0    0  0.29687198641E+02  0.90622025960E+01  0.64130493913E+02  0.11327867606E+03  0.88067502067E+02 0.  0.
          5    1    3    3  502    0  0.17064490040E+02  0.42041743108E+02 -0.26430031905E+02  0.52675648741E+02  0.41800000000E+01 0.  1.
         -5    1    3    3    0  502 -0.46751688681E+02 -0.51103945704E+02  0.31780220523E+02  0.76320301870E+02  0.41800000000E+01 0.  1.
        -11    1    4    4    0    0  0.46954456314E+02 -0.20467894595E+02  0.14927024126E+02  0.53352335714E+02  0.00000000000E+00 0.  1.
         11    1    4    4    0    0 -0.17267257673E+02  0.29530097191E+02  0.49203469787E+02  0.59926340341E+02  0.00000000000E+00 0. -1.
</event>
<event>
 8    1  0.4798744E-006  0.1003980E+03  0.7561462E-02  0.1279461E+00
         -3   -1    0    0    0  501 -0.00000000000E+00  0.00000000000E+00  0.68954252033E+03  0.68954252033E+03  0.00000000000E+00 0.  1.
          3   -1    0    0  501    0  0.00000000000E+00 -0.00000000000E+00 -0.53707264192E+02  0.53707264192E+02  0.00000000000E+00 0. -1.
         23    2    1    2    0    0  0.21757449310E+02  0.77214163882E+02  0.59955727651E+03  0.61769890958E+03  0.12509037281E+03 0.  0.
         23    2    1    2    0    0 -0.21757449310E+02 -0.77214163882E+02  0.36277979624E+02  0.12555087494E+03  0.89507076195E+02 0.  0.
          5    1    3    3  502    0 -0.12045327857E+02  0.29875546282E+02  0.50869697924E+03  0.50973299606E+03  0.41800000000E+01 0.  1.
         -5    1    3    3    0  502  0.33802777167E+02  0.47338617600E+02  0.90860297274E+02  0.10796591352E+03  0.41800000000E+01 0.  1.
        -11    1    4    4    0    0  0.28268413341E+02 -0.29663060796E+02  0.38875098680E+02  0.56482507610E+02  0.00000000000E+00 0.  1.
         11    1    4    4    0    0 -0.50025862651E+02 -0.47551103086E+02 -0.25971190553E+01  0.69068367333E+02  0.00000000000E+00 0. -1.
</event>
<event>
 8    1  0.4798744E-006  0.2435763E+03  0.7561462E-02  0.1117433E+00
          2   -1    0    0  501    0  0.00000000000E+00  0.00000000000E+00  0.35545579345E+03  0.35545579345E+03  0.00000000000E+00 0. -1.
         -2   -1    0    0    0  501 -0.00000000000E+00 -0.00000000000E+00 -0.27738210488E+03  0.27738210488E+03  0.00000000000E+00 0.  1.
         23    2    1    2    0    0 -0.18890620222E+03 -0.12953468616E+03 -0.14622999416E+03  0.29915598143E+03  0.12508517850E+03 0.  0.
         23    2    1    2    0    0  0.18890620222E+03  0.12953468616E+03  0.22430368273E+03  0.33368191690E+03  0.92556422937E+02 0.  0.
          5    1    3    3  502    0 -0.13818497198E+03 -0.52369076096E+02 -0.30340011430E+02  0.15091585505E+03  0.41800000000E+01 0. -1.
         -5    1    3    3    0  502 -0.50721230242E+02 -0.77165610059E+02 -0.11588998273E+03  0.14824012638E+03  0.41800000000E+01 0. -1.
        -11    1    4    4    0    0 -0.49930406188E+01  0.27159550570E+02  0.29050114000E+02  0.40080927699E+02  0.00000000000E+00 0.  1.
         11    1    4    4    0    0  0.19389924284E+03  0.10237513559E+03  0.19525356873E+03  0.29360098920E+03  0.00000000000E+00 0. -1.
</event>
<event>
 8    1  0.4798744E-006  0.1940408E+03  0.7561462E-02  0.1154866E+00
         -2   -1    0    0    0  501 -0.00000000000E+00  0.00000000000E+00  0.16045798020E+03  0.16045798020E+03  0.00000000000E+00 0.  1.
          2   -1    0    0  501    0  0.00000000000E+00 -0.00000000000E+00 -0.33863977396E+03  0.33863977396E+03  0.00000000000E+00 0. -1.
         23    2    1    2    0    0  0.10684314074E+03  0.15948937526E+03 -0.74425961599E+01  0.22924791981E+03  0.12508756515E+03 0.  0.
         23    2    1    2    0    0 -0.10684314074E+03 -0.15948937526E+03 -0.17073919760E+03  0.26984983435E+03  0.82551450360E+02 0.  0.
          5    1    3    3  502    0 -0.42139195720E+00  0.60617382327E+01  0.36228129819E+02  0.36971232489E+02  0.41800000000E+01 0. -1.
         -5    1    3    3    0  502  0.10726453270E+03  0.15342763703E+03 -0.43670725978E+02  0.19227668732E+03  0.41800000000E+01 0. -1.
        -11    1    4    4    0    0 -0.33172373233E+02 -0.70597833629E+02 -0.21018074049E+02  0.80785022719E+02  0.00000000000E+00 0.  1.
         11    1    4    4    0    0 -0.73670767511E+02 -0.88891541629E+02 -0.14972112355E+03  0.18906481163E+03  0.00000000000E+00 0. -1.
</event>
<event>
 8    1  0.4798744E-006  0.1438612E+03  0.7561462E-02  0.1208226E+00
          2   -1    0    0  501    0  0.00000000000E+00  0.00000000000E+00  0.74047580850E+03  0.74047580850E+03  0.00000000000E+00 0. -1.
         -2   -1    0    0    0  501 -0.00000000000E+00 -0.00000000000E+00 -0.33240640678E+02  0.33240640678E+02  0.00000000000E+00 0.  1.
         23    2    1    2    0    0 -0.42665960984E+02  0.85156758552E+02  0.23164596255E+03  0.27996065229E+03  0.12508420008E+03 0.  0.
         23    2    1    2    0    0  0.42665960984E+02 -0.85156758552E+02  0.47558920527E+03  0.49375579689E+03  0.92399334626E+02 0.  0.
          5    1    3    3  502    0 -0.46904300678E+02 -0.19578637548E+02  0.59456251309E+02  0.78331696586E+02  0.41800000000E+01 0.  1.
         -5    1    3    3    0  502  0.42383396942E+01  0.10473539610E+03  0.17218971124E+03  0.20162895570E+03  0.41800000000E+01 0.  1.
        -11    1    4    4    0    0 -0.23639891659E+02 -0.53197797953E+02  0.23861591445E+03  0.24561434163E+03  0.00000000000E+00 0.  1.
         11    1    4    4    0    0  0.66305852643E+02 -0.31958960599E+02  0.23697329082E+03  0.24814145526E+03  0.00000000000E+00 0. -1.
</event>
<event>
 8    1  0.4798744E-006  0.8180825E+02  0.7561462E-02  0.1323997E+00
          1   -1    0    0  501    0  0.00000000000E+00  0.00000000000E+00  0.61165213011E+03  0.61165213011E+03  0.00000000000E+00 0. -1.
         -1   -1    0    0    0  501 -0.00000000000E+00 -0.00000000000E+00 -0.28214298545E+02  0.28214298545E+02  0.00000000000E+00 0.  1.
         23    2    1    2    0    0 -0.57212952892E+02 -0.41081430085E+02  0.27096859259E+03  0.30664770548E+03  0.12509129158E+03 0.  0.
         23    2    1    2    0    0  0.57212952892E+02  0.41081430085E+02  0.31246923898E+03  0.33321872318E+03  0.91851435990E+02 0.  0.
          5    1    3    3  502    0  0.66022861256E+00 -0.16667026777E+01 -0.13193822781E+02  0.13955757206E+02  0.41800000000E+01 0.  1.
         -5    1    3    3    0  502 -0.57873181504E+02 -0.39414727407E+02  0.28416241537E+03  0.29269194827E+03  0.41800000000E+01 0.  1.
        -11    1    4    4    0    0  0.39034899590E+02  0.53993727155E+02  0.30072587633E+03  0.30801801676E+03  0.00000000000E+00 0. -1.
         11    1    4    4    0    0  0.18178053301E+02 -0.12912297070E+02  0.11743362648E+02  0.25200706413E+02  0.00000000000E+00 0.  1.
</event>
<event>
 8    1  0.4798744E-006  0.9726621E+02  0.7561462E-02  0.1286152E+00
         -2   -1    0    0    0  501 -0.00000000000E+00  0.00000000000E+00  0.31826554146E+02  0.31826554146E+02  0.00000000000E+00 0. -1.
          2   -1    0    0  501    0  0.00000000000E+00 -0.00000000000E+00 -0.38099147197E+03  0.38099147197E+03  0.00000000000E+00 0.  1.
         23    2    1    2    0    0  0.12970858547E+02 -0.11495236408E+02 -0.18712764626E+03  0.22575399060E+03  0.12509086555E+03 0.  0.
         23    2    1    2    0    0 -0.12970858547E+02  0.11495236408E+02 -0.16203727156E+03  0.18706403551E+03  0.91850380381E+02 0.  0.
          5    1    3    3  502    0 -0.21607366141E+02 -0.58954668230E+02 -0.66653687851E+02  0.91666338870E+02  0.41800000000E+01 0. -1.
         -5    1    3    3    0  502  0.34578224688E+02  0.47459431822E+02 -0.12047395841E+03  0.13408765173E+03  0.41800000000E+01 0. -1.
        -11    1    4    4    0    0 -0.94825223330E+01  0.41479031305E+02 -0.14758608502E+03  0.15359713786E+03  0.00000000000E+00 0.  1.
         11    1    4    4    0    0 -0.34883362139E+01 -0.29983794897E+02 -0.14451186541E+02  0.33466897652E+02  0.00000000000E+00 0. -1.
</event>
<event>
 8    1  0.4798744E-006  0.8791981E+02  0.7561462E-02  0.1307969E+00
         -3   -1    0    0    0  501 -0.00000000000E+00  0.00000000000E+00  0.31658347067E+02  0.31658347067E+02  0.00000000000E+00 0.  1.
          3   -1    0    0  501    0  0.00000000000E+00 -0.00000000000E+00 -0.49413324702E+03  0.49413324702E+03  0.00000000000E+00 0. -1.
         23    2    1    2    0    0  0.21678816631E+02  0.44280447987E+02 -0.17840501292E+03  0.22339667410E+03  0.12508795384E+03 0.  0.
         23    2    1    2    0    0 -0.21678816631E+02 -0.44280447987E+02 -0.28406988702E+03  0.30239491999E+03  0.91193518171E+02 0.  0.
          5    1    3    3  502    0  0.38320997178E+02  0.37602167925E+02 -0.19270203251E+03  0.20008490096E+03  0.41800000000E+01 0.  1.
         -5    1    3    3    0  502 -0.16642180547E+02  0.66782800618E+01  0.14297019584E+02  0.23311773140E+02  0.41800000000E+01 0.  1.
        -11    1    4    4    0    0 -0.54740399800E+02 -0.94450219380E+01 -0.15867026642E+03  0.16811297765E+03  0.00000000000E+00 0.  1.
         11    1    4    4    0    0  0.33061583169E+02 -0.34835426049E+02 -0.12539962061E+03  0.13428194234E+03  0.00000000000E+00 0. -1.
</event>
<event>
 8    1  0.4798744E-006  0.1871932E+03  0.7561462E-02  0.1161018E+00
         -1   -1    0    0    0  501 -0.00000000000E+00  0.00000000000E+00  0.17417371891E+03  0.17417371891E+03  0.00000000000E+00 0.  1.
          1   -1    0    0  501    0  0.00000000000E+00 -0.00000000000E+00 -0.23189862604E+03  0.23189862604E+03  0.00000000000E+00 0. -1.
         23    2    1    2    0    0 -0.13853071307E+03  0.93556998167E+02 -0.44046826677E+01  0.20883122918E+03  0.12508961062E+03 0.  0.
         23    2    1    2    0    0  0.13853071307E+03 -0.93556998167E+02 -0.53320224456E+02  0.19724111577E+03  0.90096287628E+02 0.  0.
          5    1    3    3  502    0 -0.15214347613E+03  0.10810115834E+03  0.42027590727E+01  0.18673144713E+03  0.41800000000E+01 0.  1.
         -5    1    3    3    0  502  0.13612763069E+02 -0.14544160170E+02 -0.86074417404E+01  0.22099782052E+02  0.41800000000E+01 0.  1.
        -11    1    4    4    0    0  0.35313671790E+02 -0.28047806494E+02  0.25477347365E+02  0.51796043219E+02  0.00000000000E+00 0.  1.
         11    1    4    4    0    0  0.10321704128E+03 -0.65509191673E+02 -0.78797571822E+02  0.14544507255E+03  0.00000000000E+00 0. -1.
</event>
<event>
 8    1  0.4798744E-006  0.1494034E+03  0.7561462E-02  0.1201208E+00
          2   -1    0    0  501    0  0.00000000000E+00  0.00000000000E+00  0.53523776113E+03  0.53523776113E+03  0.00000000000E+00 0. -1.
         -2   -1    0    0    0  501 -0.00000000000E+00 -0.00000000000E+00 -0.61743216745E+02  0.61743216745E+02  0.00000000000E+00 0.  1.
         23    2    1    2    0    0 -0.11940769634E+03  0.42020670393E+02  0.13290597648E+03  0.22211657648E+03  0.12509132775E+03 0.  0.
         23    2    1    2    0    0  0.11940769634E+03 -0.42020670393E+02  0.34058856790E+03  0.37486440140E+03  0.92189002399E+02 0.  0.
          5    1    3    3  502    0  0.82861205756E+01  0.16086624001E+02  0.78813571172E+02  0.80972159825E+02  0.41800000000E+01 0. -1.
         -5    1    3    3    0  502 -0.12769381691E+03  0.25934046392E+02  0.54092405310E+02  0.14114441665E+03  0.41800000000E+01 0. -1.
        -11    1    4    4    0    0  0.64204384369E+02  0.19605971357E+02  0.20814134559E+03  0.21869937547E+03  0.00000000000E+00 0. -1.
         11    1    4    4    0    0  0.55203311968E+02 -0.61626641750E+02  0.13244722231E+03  0.15616502593E+03  0.00000000000E+00 0.  1.
</event>
<event>
 8    1  0.4798744E-006  0.1134004E+03  0.7561462E-02  0.1254399E+00
          3   -1    0    0  501    0  0.00000000000E+00  0.00000000000E+00  0.27795125751E+03  0.27795125751E+03  0.00000000000E+00 0. -1.
         -3   -1    0    0    0  501 -0.00000000000E+00 -0.00000000000E+00 -0.68648419510E+02  0.68648419510E+02  0.00000000000E+00 0.  1.
         23    2    1    2    0    0  0.83570389658E+02  0.16020726761E+02  0.98360744653E+02  0.18045261168E+03  0.12509050827E+03 0.  0.
         23    2    1    2    0    0 -0.83570389658E+02 -0.16020726761E+02  0.11094209334E+03  0.16614706534E+03  0.89755364923E+02 0.  0.
          5    1    3    3  502    0  0.82556453699E+02 -0.35356700521E+02  0.91777865760E+02  0.12847689817E+03  0.41800000000E+01 0. -1.
         -5    1    3    3    0  502  0.10139359591E+01  0.51377427282E+02  0.65828788934E+01  0.51975713509E+02  0.41800000000E+01 0. -1.
        -11    1    4    4    0    0 -0.39725850208E+02 -0.10905094636E+02  0.11467261152E+03  0.12184774145E+03  0.00000000000E+00 0. -1.
         11    1    4    4    0    0 -0.43844539450E+02 -0.51156321253E+01 -0.37305181723E+01  0.44299323894E+02  0.00000000000E+00 0.  1.
</event>
<event>
 8    1  0.4798744E-006  0.1020182E+03  0.7561462E-02  0.1276108E+00
         -1   -1    0    0    0  501 -0.00000000000E+00  0.00000000000E+00  0.10310294460E+03  0.10310294460E+03  0.00000000000E+00 0.  1.
          1   -1    0    0  501    0  0.00000000000E+00 -0.00000000000E+00 -0.24263606676E+03  0.24263606676E+03  0.00000000000E+00 0. -1.
         23    2    1    2    0    0  0.66537287520E+02  0.35314724876E+02  0.19408755525E+02  0.14730458917E+03  0.12509037443E+03 0.  0.
         23    2    1    2    0    0 -0.66537287520E+02 -0.35314724876E+02 -0.15894187768E+03  0.19843442220E+03  0.91865983959E+02 0.  0.
          5    1    3    3  502    0 -0.58153299081E+01 -0.29033448844E+02 -0.26598311299E+02  0.40021266568E+02  0.41800000000E+01 0.  1.
         -5    1    3    3    0  502  0.72352617428E+02  0.64348173720E+02  0.46007066824E+02  0.10728332260E+03  0.41800000000E+01 0.  1.
        -11    1    4    4    0    0 -0.14353553470E+02 -0.16191139387E+02  0.75456189910E+01  0.22915362922E+02  0.00000000000E+00 0.  1.
         11    1    4    4    0    0 -0.52183734050E+02 -0.19123585489E+02 -0.16648749667E+03  0.17551905927E+03  0.00000000000E+00 0. -1.
</event>
<event>
 8    1  0.4798744E-006  0.8903912E+02  0.7561462E-02  0.1305195E+00
          1   -1    0    0  501    0  0.00000000000E+00  0.00000000000E+00  0.18589968744E+03  0.18589968744E+03  0.00000000000E+00 0. -1.
         -1   -1    0    0    0  501 -0.00000000000E+00 -0.00000000000E+00 -0.79531175986E+02  0.79531175986E+02  0.00000000000E+00 0.  1.
         23    2    1    2    0    0  0.41757546085E+02 -0.83382661433E+00  0.22751561448E+02  0.13382552638E+03  0.12508896851E+03 0.  0.
         23    2    1    2    0    0 -0.41757546085E+02  0.83382661433E+00  0.83616950009E+02  0.13160533704E+03  0.92648704729E+02 0.  0.
          5    1    3    3  502    0  0.39646608802E+01 -0.33546225906E+02  0.61602532980E+02  0.70380482224E+02  0.41800000000E+01 0.  1.
         -5    1    3    3    0  502  0.37792885205E+02  0.32712399292E+02 -0.38850971532E+02  0.63445044160E+02  0.41800000000E+01 0.  1.
        -11    1    4    4    0    0  0.54195174419E+01 -0.34510942195E+02  0.81995287340E+01  0.35883263117E+02  0.00000000000E+00 0.  1.
         11    1    4    4    0    0 -0.47177063527E+02  0.35344768809E+02  0.75417421275E+02  0.95722073927E+02  0.00000000000E+00 0. -1.
</event>
<event>
 8    1  0.4798744E-006  0.1080790E+03  0.7561462E-02  0.1264169E+00
          3   -1    0    0  501    0  0.00000000000E+00  0.00000000000E+00  0.65098665451E+03  0.65098665451E+03  0.00000000000E+00 0. -1.
         -3   -1    0    0    0  501 -0.00000000000E+00 -0.00000000000E+00 -0.21096946659E+02  0.21096946659E+02  0.00000000000E+00 0.  1.
         23    2    1    2    0    0  0.30878076731E+02  0.13758317074E+02  0.28400386918E+03  0.31216346643E+03  0.12508031480E+03 0.  0.
         23    2    1    2    0    0 -0.30878076731E+02 -0.13758317074E+02  0.34588583867E+03  0.35992013474E+03  0.93609524559E+02 0.  0.
          5    1    3    3  502    0 -0.39924848727E+02 -0.10900779530E+02  0.43404746917E+02  0.60118757432E+02  0.41800000000E+01 0. -1.
         -5    1    3    3    0  502  0.70802925458E+02  0.24659096604E+02  0.24059912227E+03  0.25204470900E+03  0.41800000000E+01 0. -1.
        -11    1    4    4    0    0 -0.61927242497E+02 -0.24526254470E+02  0.22587820040E+03  0.23549412294E+03  0.00000000000E+00 0.  1.
         11    1    4    4    0    0  0.31049165765E+02  0.10767937396E+02  0.12000763827E+03  0.12442601180E+03  0.00000000000E+00 0. -1.
</event>
<event>
 8    1  0.4798744E-006  0.1758903E+03  0.7561462E-02  0.1171841E+00
         -2   -1    0    0    0  501 -0.00000000000E+00  0.00000000000E+00  0.64366834169E+02  0.64366834169E+02  0.00000000000E+00 0.  1.
          2   -1    0    0  501    0  0.00000000000E+00 -0.00000000000E+00 -0.58485171652E+03  0.58485171652E+03  0.00000000000E+00 0. -1.
         23    2    1    2    0    0 -0.97475162350E+02 -0.11476780774E+03 -0.18155465075E+03  0.26698616050E+03  0.12508581742E+03 0.  0.
         23    2    1    2    0    0  0.97475162350E+02  0.11476780774E+03 -0.33893023159E+03  0.38223239019E+03  0.92492384848E+02 0.  0.
          5    1    3    3  502    0 -0.42048907449E+02 -0.12897818879E+03 -0.10652549023E+03  0.17253589850E+03  0.41800000000E+01 0.  1.
         -5    1    3    3    0  502 -0.55426254901E+02  0.14210381059E+02 -0.75029160529E+02  0.94450262000E+02  0.41800000000E+01 0.  1.
        -11    1    4    4    0    0  0.11785050953E+02  0.49734235112E+02 -0.41152362655E+02  0.65619345625E+02  0.00000000000E+00 0.  1.
         11    1    4    4    0    0  0.85690111397E+02  0.65033572623E+02 -0.29777786894E+03  0.31661304456E+03  0.00000000000E+00 0. -1.
</event>
<event>
 8    1  0.4798744E-006  0.1186951E+03  0.7561462E-02  0.1245265E+00
          2   -1    0    0  501    0  0.00000000000E+00  0.00000000000E+00  0.44827751573E+03  0.44827751573E+03  0.00000000000E+00 0. -1.
         -2   -1    0    0    0  501 -0.00000000000E+00 -0.00000000000E+00 -0.48170425666E+02  0.48170425666E+02  0.00000000000E+00 0.  1.
         23    2    1    2    0    0 -0.19211072386E+02  0.61106195310E+02  0.98511478243E+02  0.17162529616E+03  0.12509076117E+03 0.  0.
         23    2    1    2    0    0  0.19211072386E+02 -0.61106195310E+02  0.30159561182E+03  0.32482264523E+03  0.10220961491E+03 0.  0.
          5    1    3    3  502    0 -0.69419767138E+02  0.37541091400E+02  0.32887390156E+02  0.85600761938E+02  0.41800000000E+01 0. -1.
         -5    1    3    3    0  502  0.50208694752E+02  0.23565103910E+02  0.65624088086E+02  0.86024534223E+02  0.41800000000E+01 0. -1.
        -11    1    4    4    0    0  0.15596259913E+02  0.17847401463E+02  0.16259994399E+02  0.28743007499E+02  0.00000000000E+00 0. -1.
         11    1    4    4    0    0  0.36148124728E+01 -0.78953596773E+02  0.28533561742E+03  0.29607963773E+03  0.00000000000E+00 0.  1.
</event>
<event>
 8    1  0.4798744E-006  0.1031450E+03  0.7561462E-02  0.1273818E+00
         -2   -1    0    0    0  501 -0.00000000000E+00  0.00000000000E+00  0.19162278163E+03  0.19162278163E+03  0.00000000000E+00 0.  1.
          2   -1    0    0  501    0  0.00000000000E+00 -0.00000000000E+00 -0.11806611985E+03  0.11806611985E+03  0.00000000000E+00 0. -1.
         23    2    1    2    0    0 -0.95391234135E+01  0.48958799534E+02  0.12898929067E+03  0.18647737079E+03  0.12509042243E+03 0.  0.
         23    2    1    2    0    0  0.95391234135E+01 -0.48958799534E+02 -0.55432628892E+02  0.12321153069E+03  0.98083362612E+02 0.  0.
          5    1    3    3  502    0  0.32264318868E+02 -0.27999452282E+02  0.22261766488E+02  0.48353016941E+02  0.41800000000E+01 0.  1.
         -5    1    3    3    0  502 -0.41803442282E+02  0.76958251816E+02  0.10672752418E+03  0.13812435385E+03  0.41800000000E+01 0.  1.
        -11    1    4    4    0    0  0.33525046319E+02 -0.31687074450E+02  0.13620029419E+02  0.48098904554E+02  0.00000000000E+00 0.  1.
         11    1    4    4    0    0 -0.23985922906E+02 -0.17271725084E+02 -0.69052658311E+02  0.75112626134E+02  0.00000000000E+00 0. -1.
</event>
<event>
 8    1  0.4798744E-006  0.9782579E+02  0.7561462E-02  0.1284936E+00
         -3   -1    0    0    0  501 -0.00000000000E+00  0.00000000000E+00  0.75298270151E+03  0.75298270151E+03  0.00000000000E+00 0.  1.
          3   -1    0    0  501    0  0.00000000000E+00 -0.00000000000E+00 -0.26524117050E+02  0.26524117050E+02  0.00000000000E+00 0. -1.
         23    2    1    2    0    0 -0.35595725030E+01  0.24547342832E+02  0.63725816200E+03  0.64989204092E+03  0.12508579943E+03 0.  0.
         23    2    1    2    0    0  0.35595725030E+01 -0.24547342832E+02  0.89200422457E+02  0.12961477764E+03  0.90708503565E+02 0.  0.
          5    1    3    3  502    0 -0.35599099811E+02  0.56325184514E+02  0.21294517383E+03  0.22316572715E+03  0.41800000000E+01 0. -1.
         -5    1    3    3    0  502  0.32039527308E+02 -0.31777841683E+02  0.42431298817E+03  0.42672631377E+03  0.41800000000E+01 0. -1.
        -11    1    4    4    0    0  0.41315297118E+02 -0.68790566278E+01  0.74401190638E+02  0.85380398010E+02  0.00000000000E+00 0.  1.
         11    1    4    4    0    0 -0.37755724615E+02 -0.17668286204E+02  0.14799231820E+02  0.44234379628E+02  0.00000000000E+00 0. -1.
</event>
<event>
 8    1  0.4798744E-006  0.1026358E+03  0.7561462E-02  0.1274849E+00
         -2   -1    0    0    0  501 -0.00000000000E+00  0.00000000000E+00  0.83303532536E+02  0.83303532536E+02  0.00000000000E+00 0.  1.
          2   -1    0    0  501    0  0.00000000000E+00 -0.00000000000E+00 -0.23200506048E+03  0.23200506048E+03  0.00000000000E+00 0. -1.
         23    2    1    2    0    0 -0.37650405043E+02  0.54450839221E+02 -0.18269712895E+02  0.14270086713E+03  0.12508920089E+03 0.  0.
         23    2    1    2    0    0  0.37650405043E+02 -0.54450839221E+02 -0.13043181505E+03  0.17260772588E+03  0.91643449120E+02 0.  0.
          5    1    3    3  502    0  0.23913054784E+02  0.44984681154E+02  0.33907094772E+02  0.61340192398E+02  0.41800000000E+01 0. -1.
         -5    1    3    3    0  502 -0.61563459827E+02  0.94661580668E+01 -0.52176807667E+02  0.81360674731E+02  0.41800000000E+01 0. -1.
        -11    1    4    4    0    0  0.53643689450E+02 -0.53413242092E+02 -0.50298983594E+02  0.90887884776E+02  0.00000000000E+00 0.  1.
         11    1    4    4    0    0 -0.15993284407E+02 -0.10375971287E+01 -0.80132831454E+02  0.81719841108E+02  0.00000000000E+00 0. -1.
</event>
<event>
 8    1  0.4798744E-006  0.9947492E+02  0.7561462E-02  0.1281404E+00
          2   -1    0    0  501    0  0.00000000000E+00  0.00000000000E+00  0.21184215669E+03  0.21184215669E+03  0.00000000000E+00 0. -1.
         -2   -1    0    0    0  501 -0.00000000000E+00 -0.00000000000E+00 -0.60624403077E+02  0.60624403077E+02  0.00000000000E+00 0.  1.
         23    2    1    2    0    0 -0.15614569239E+02  0.25642500492E+01  0.56917762602E+02  0.13834504699E+03  0.12509728284E+03 0.  0.
         23    2    1    2    0    0  0.15614569239E+02 -0.25642500492E+01  0.94299991011E+02  0.13412151278E+03  0.94051590816E+02 0.  0.
          5    1    3    3  502    0  0.27458918754E+02  0.50250030584E+02  0.44786237740E+02  0.72817149654E+02  0.41800000000E+01 0. -1.
         -5    1    3    3    0  502 -0.43073487993E+02 -0.47685780535E+02  0.12131524862E+02  0.65527897331E+02  0.41800000000E+01 0. -1.
        -11    1    4    4    0    0 -0.29997717743E+02  0.63541446811E+01  0.19368981012E+01  0.30724416979E+02  0.00000000000E+00 0.  1.
         11    1    4    4    0    0  0.45612286983E+02 -0.89183947303E+01  0.92363092910E+02  0.10339709580E+03  0.00000000000E+00 0. -1.
</event>
<event>
 8    1  0.4798744E-006  0.1025385E+03  0.7561462E-02  0.1275047E+00
         -1   -1    0    0    0  501 -0.00000000000E+00  0.00000000000E+00  0.16579142125E+03  0.16579142125E+03  0.00000000000E+00 0.  1.
          1   -1    0    0  501    0  0.00000000000E+00 -0.00000000000E+00 -0.85243626903E+02  0.85243626903E+02  0.00000000000E+00 0. -1.
         23    2    1    2    0    0 -0.30191880096E+02  0.15568723247E+02  0.85612596377E+02  0.15534276496E+03  0.12509165920E+03 0.  0.
         23    2    1    2    0    0  0.30191880096E+02 -0.15568723247E+02 -0.50648020319E+01  0.95692283189E+02  0.89316437877E+02 0.  0.
          5    1    3    3  502    0  0.45074824665E+02  0.22262730193E+02  0.52273365854E+02  0.72645345012E+02  0.41800000000E+01 0. -1.
         -5    1    3    3    0  502 -0.75266704761E+02 -0.66940069455E+01  0.33339230524E+02  0.82697419951E+02  0.41800000000E+01 0. -1.
        -11    1    4    4    0    0  0.28482336712E+02  0.25270186556E+02 -0.29414176345E+02  0.48114650609E+02  0.00000000000E+00 0. -1.
         11    1    4    4    0    0  0.17095433836E+01 -0.40838909803E+02  0.24349374314E+02  0.47577632580E+02  0.00000000000E+00 0.  1.
</event>
<event>
 8    1  0.4798744E-006  0.9038346E+02  0.7561462E-02  0.1301926E+00
          2   -1    0    0  501    0  0.00000000000E+00  0.00000000000E+00  0.11495402258E+03  0.11495402258E+03  0.00000000000E+00 0. -1.
         -2   -1    0    0    0  501 -0.00000000000E+00 -0.00000000000E+00 -0.11842404358E+03  0.11842404358E+03  0.00000000000E+00 0.  1.
         23    2    1    2    0    0 -0.92006542414E+01  0.84149870740E+01 -0.42422679191E+02  0.13267432919E+03  0.12508928759E+03 0.  0.
         23    2    1    2    0    0  0.92006542414E+01 -0.84149870740E+01  0.38952658182E+02  0.10070373697E+03  0.92024284918E+02 0.  0.
          5    1    3    3  502    0  0.36995579216E+01 -0.57472488713E+02 -0.26572640728E+02  0.63563757936E+02  0.41800000000E+01 0. -1.
         -5    1    3    3    0  502 -0.12900212163E+02  0.65887475787E+02 -0.15850038464E+02  0.69110571252E+02  0.41800000000E+01 0. -1.
        -11    1    4    4    0    0  0.27274510382E+02 -0.20408126236E+02 -0.18873256922E+02  0.38943425117E+02  0.00000000000E+00 0.  1.
         11    1    4    4    0    0 -0.18073856140E+02  0.11993139162E+02  0.57825915104E+02  0.61760311854E+02  0.00000000000E+00 0. -1.
</event>
<event>
 8    1  0.4798744E-006  0.1401990E+03  0.7561462E-02  0.1213061E+00
          2   -1    0    0  501    0  0.00000000000E+00  0.00000000000E+00  0.46513072707E+03  0.46513072707E+03  0.00000000000E+00 0. -1.
         -2   -1    0    0    0  501 -0.00000000000E+00 -0.00000000000E+00 -0.45134770014E+02  0.45134770014E+02  0.00000000000E+00 0.  1.
         23    2    1    2    0    0 -0.49829250572E+02 -0.77485143650E+02  0.18029145143E+03  0.23798971427E+03  0.12508874826E+03 0.  0.
         23    2    1    2    0    0  0.49829250572E+02  0.77485143650E+02  0.23970450563E+03  0.27227578281E+03  0.90492818441E+02 0.  0.
          5    1    3    3  502    0  0.17137598991E+02  0.26260712683E+02  0.41267002582E+02  0.51997694486E+02  0.41800000000E+01 0. -1.
         -5    1    3    3    0  502 -0.66966849563E+02 -0.10374585633E+03  0.13902444885E+03  0.18599201979E+03  0.41800000000E+01 0. -1.
        -11    1    4    4    0    0  0.72707609896E+02  0.45101576610E+02  0.13003440820E+03  0.15565826693E+03  0.00000000000E+00 0.  1.
         11    1    4    4    0    0 -0.22878359324E+02  0.32383567040E+02  0.10967009743E+03  0.11661751588E+03  0.00000000000E+00 0. -1.
</event>
<event>
 8    1  0.4798744E-006  0.1279145E+03  0.7561462E-02  0.1230583E+00
         -2   -1    0    0    0  501 -0.00000000000E+00  0.00000000000E+00  0.13423166145E+03  0.13423166145E+03  0.00000000000E+00 0.  1.
          2   -1    0    0  501    0  0.00000000000E+00 -0.00000000000E+00 -0.17135587191E+03  0.17135587191E+03  0.00000000000E+00 0. -1.
         23    2    1    2    0    0  0.88064410988E+02  0.53927568701E+02 -0.42882861776E+01  0.16226776801E+03  0.12509562737E+03 0.  0.
         23    2    1    2    0    0 -0.88064410988E+02 -0.53927568701E+02 -0.32835924282E+02  0.14331976535E+03  0.93802100559E+02 0.  0.
          5    1    3    3  502    0  0.12785715028E+02  0.71757801487E+02  0.28190030528E+02  0.78261144920E+02  0.41800000000E+01 0. -1.
         -5    1    3    3    0  502  0.75278695960E+02 -0.17830232786E+02 -0.32478316706E+02  0.84006623088E+02  0.41800000000E+01 0. -1.
        -11    1    4    4    0    0 -0.82171881573E+02 -0.42552183364E+02  0.15048168311E+02  0.93751553586E+02  0.00000000000E+00 0.  1.
         11    1    4    4    0    0 -0.58925294146E+01 -0.11375385337E+02 -0.47884092593E+02  0.49568211769E+02  0.00000000000E+00 0. -1.
</event>
<event>
 8    1  0.4798744E-006  0.2214677E+03  0.7561462E-02  0.1132794E+00
         -1   -1    0    0    0  501 -0.00000000000E+00  0.00000000000E+00  0.45564702223E+02  0.45564702223E+02  0.00000000000E+00 0.  1.
          1   -1    0    0  501    0  0.00000000000E+00 -0.00000000000E+00 -0.11202655457E+04  0.11202655457E+04  0.00000000000E+00 0. -1.
         23    2    1    2    0    0  0.82239437526E+02 -0.17982003258E+03 -0.56168525569E+03  0.60846999960E+03  0.12508734848E+03 0.  0.
         23    2    1    2    0    0 -0.82239437526E+02  0.17982003258E+03 -0.51301558778E+03  0.55736024832E+03  0.91470672329E+02 0.  0.
          5    1    3    3  502    0 -0.20399259531E+02 -0.78495466559E+02 -0.12971829299E+03  0.15304239934E+03  0.41800000000E+01 0.  1.
         -5    1    3    3    0  502  0.10263869706E+03 -0.10132456602E+03 -0.43196696270E+03  0.45542760026E+03  0.41800000000E+01 0.  1.
        -11    1    4    4    0    0 -0.41111060864E+01  0.11730424315E+03 -0.29426093721E+03  0.31680701668E+03  0.00000000000E+00 0.  1.
         11    1    4    4    0    0 -0.78128331440E+02  0.62515789434E+02 -0.21875465057E+03  0.24055323163E+03  0.00000000000E+00 0. -1.
</event>
<event>
 8    1  0.4798744E-006  0.5660314E+02  0.7561462E-02  0.1412666E+00
         -2   -1    0    0    0  501 -0.00000000000E+00  0.00000000000E+00  0.15623536328E+03  0.15623536328E+03  0.00000000000E+00 0.  1.
          2   -1    0    0  501    0  0.00000000000E+00 -0.00000000000E+00 -0.76513205168E+02  0.76513205168E+02  0.00000000000E+00 0. -1.
         23    2    1    2    0    0 -0.12694710820E+02  0.52961452662E+01  0.37807648212E+02  0.13139698934E+03  0.12508615313E+03 0.  0.
         23    2    1    2    0    0  0.12694710820E+02 -0.52961452662E+01  0.41914509897E+02  0.10135157911E+03  0.91247529339E+02 0.  0.
          5    1    3    3  502    0 -0.13124223208E+01 -0.22265352233E+02 -0.41095043528E+02  0.46944045043E+02  0.41800000000E+01 0. -1.
         -5    1    3    3    0  502 -0.11382288499E+02  0.27561497499E+02  0.78902691741E+02  0.84452944293E+02  0.41800000000E+01 0. -1.
        -11    1    4    4    0    0 -0.13083145598E+02  0.20251575719E+02  0.57121580222E+02  0.62001370508E+02  0.00000000000E+00 0.  1.
         11    1    4    4    0    0  0.25777856418E+02 -0.25547720985E+02 -0.15207070325E+02  0.39350208601E+02  0.00000000000E+00 0. -1.
</event>
<event>
 8    1  0.4798744E-006  0.6341170E+02  0.7561462E-02  0.1384048E+00
         -1   -1    0    0    0  501 -0.00000000000E+00  0.00000000000E+00  0.29975818176E+03  0.29975818176E+03  0.00000000000E+00 0.  1.
          1   -1    0    0  501    0  0.00000000000E+00 -0.00000000000E+00 -0.45590309119E+02  0.45590309119E+02  0.00000000000E+00 0. -1.
         23    2    1    2    0    0 -0.14097585055E+02 -0.10424034503E+02  0.20204032739E+03  0.23827610674E+03  0.12509119374E+03 0.  0.
         23    2    1    2    0    0  0.14097585055E+02  0.10424034503E+02  0.52127545250E+02  0.10707238414E+03  0.91868449816E+02 0.  0.
          5    1    3    3  502    0  0.87745325607E+01 -0.16544416954E+02  0.21155171372E+03  0.21242012647E+03  0.41800000000E+01 0.  1.
         -5    1    3    3    0  502 -0.22872117616E+02  0.61203824511E+01 -0.95113863290E+01  0.25855980265E+02  0.41800000000E+01 0.  1.
        -11    1    4    4    0    0  0.38960481627E+02 -0.20410136589E+02  0.51137901144E+02  0.67450557726E+02  0.00000000000E+00 0.  1.
         11    1    4    4    0    0 -0.24862896572E+02  0.30834171091E+02  0.98964410642E+00  0.39621826413E+02  0.00000000000E+00 0. -1.
</event>
<event>
 8    1  0.4798744E-006  0.1093090E+03  0.7561462E-02  0.1261855E+00
         -1   -1    0    0    0  501 -0.00000000000E+00  0.00000000000E+00  0.20721052298E+02  0.20721052298E+02  0.00000000000E+00 0.  1.
          1   -1    0    0  501    0  0.00000000000E+00 -0.00000000000E+00 -0.67639492718E+03  0.67639492718E+03  0.00000000000E+00 0. -1.
         23    2    1    2    0    0 -0.12644371942E+02 -0.38602644596E+02 -0.29353011014E+03  0.32164821243E+03  0.12509037809E+03 0.  0.
         23    2    1    2    0    0  0.12644371942E+02  0.38602644596E+02 -0.36214376475E+03  0.37546776705E+03  0.90431705935E+02 0.  0.
          5    1    3    3  502    0 -0.72093677067E+01 -0.82446374374E+02 -0.22722010989E+03  0.24185911264E+03  0.41800000000E+01 0.  1.
         -5    1    3    3    0  502 -0.54350042355E+01  0.43843729777E+02 -0.66310000248E+02  0.79789099786E+02  0.41800000000E+01 0.  1.
        -11    1    4    4    0    0 -0.22458080773E+02 -0.15211111417E+02 -0.51052455587E+02  0.57810868563E+02  0.00000000000E+00 0.  1.
         11    1    4    4    0    0  0.35102452715E+02  0.53813756014E+02 -0.31109130916E+03  0.31765689849E+03  0.00000000000E+00 0. -1.
</event>
<event>
 8    1  0.4798744E-006  0.2442619E+03  0.7561462E-02  0.1116986E+00
         -1   -1    0    0    0  501 -0.00000000000E+00  0.00000000000E+00  0.74461167793E+03  0.74461167793E+03  0.00000000000E+00 0.  1.
          1   -1    0    0  501    0  0.00000000000E+00 -0.00000000000E+00 -0.89562175485E+02  0.89562175485E+02  0.00000000000E+00 0. -1.
         23    2    1    2    0    0 -0.17866304233E+03  0.14402363352E+03  0.41510810861E+03  0.49053632169E+03  0.12509137204E+03 0.  0.
         23    2    1    2    0    0  0.17866304233E+03 -0.14402363352E+03  0.23994139384E+03  0.34363753172E+03  0.88609203968E+02 0.  0.
          5    1    3    3  502    0  0.13009845265E+02  0.15770087975E+02  0.74715192168E+01  0.22164109456E+02  0.41800000000E+01 0. -1.
         -5    1    3    3    0  502 -0.19167288759E+03  0.12825354555E+03  0.40763658939E+03  0.46837221223E+03  0.41800000000E+01 0. -1.
        -11    1    4    4    0    0  0.31141561708E+02 -0.59029754283E+02  0.11311669009E+03  0.13133809170E+03  0.00000000000E+00 0.  1.
         11    1    4    4    0    0  0.14752148062E+03 -0.84993879237E+02  0.12682470375E+03  0.21229944002E+03  0.00000000000E+00 0. -1.
</event>
<event>
 8    1  0.4798744E-006  0.1993073E+03  0.7561462E-02  0.1150325E+00
         -2   -1    0    0    0  501 -0.00000000000E+00  0.00000000000E+00  0.44705307792E+02  0.44705307792E+02  0.00000000000E+00 0.  1.
          2   -1    0    0  501    0  0.00000000000E+00 -0.00000000000E+00 -0.12023352673E+04  0.12023352673E+04  0.00000000000E+00 0. -1.
         23    2    1    2    0    0 -0.11102346975E+03  0.15773979983E+03 -0.41000032270E+03  0.47018258330E+03  0.12555214750E+03 0.  0.
         23    2    1    2    0    0  0.11102346975E+03 -0.15773979983E+03 -0.74762963685E+03  0.77685799183E+03  0.85733367403E+02 0.  0.
          5    1    3    3  502    0 -0.61596589316E+02  0.31286259226E+02 -0.25433649898E+03  0.26358584360E+03  0.41800000000E+01 0. -1.
         -5    1    3    3    0  502 -0.49426880434E+02  0.12645354061E+03 -0.15566382371E+03  0.20659673970E+03  0.41800000000E+01 0.  1.
        -11    1    4    4    0    0  0.10197338036E+03 -0.13571958204E+03 -0.72276476095E+03  0.74243334713E+03  0.00000000000E+00 0. -1.
         11    1    4    4    0    0  0.90500893863E+01 -0.22020217791E+02 -0.24864875898E+02  0.34424644702E+02  0.00000000000E+00 0.  1.
</event>
<event>
 8    1  0.4798744E-006  0.9402849E+02  0.7561462E-02  0.1293379E+00
         -2   -1    0    0    0  501 -0.00000000000E+00  0.00000000000E+00  0.25427531822E+03  0.25427531822E+03  0.00000000000E+00 0.  1.
          2   -1    0    0  501    0  0.00000000000E+00 -0.00000000000E+00 -0.54387715239E+02  0.54387715239E+02  0.00000000000E+00 0. -1.
         23    2    1    2    0    0 -0.28278885217E+02  0.53547651770E+01  0.16906463289E+03  0.21228384969E+03  0.12511280463E+03 0.  0.
         23    2    1    2    0    0  0.28278885217E+02 -0.53547651770E+01  0.30822970087E+02  0.96379183770E+02  0.86663272036E+02 0.  0.
          5    1    3    3  502    0 -0.72050348730E+02 -0.20254025136E+02  0.12069406893E+03  0.14207747521E+03  0.41800000000E+01 0.  1.
         -5    1    3    3    0  502  0.43771463513E+02  0.25608790313E+02  0.48370563958E+02  0.70206374475E+02  0.41800000000E+01 0.  1.
        -11    1    4    4    0    0  0.12368814346E+02  0.25027433402E+02  0.49867715200E+02  0.57150231935E+02  0.00000000000E+00 0.  1.
         11    1    4    4    0    0  0.15910070871E+02 -0.30382198578E+02 -0.19044745113E+02  0.39228951834E+02  0.00000000000E+00 0. -1.
</event>
<event>
 8    1  0.4798744E-006  0.1265331E+03  0.7561462E-02  0.1232693E+00
          2   -1    0    0  501    0  0.00000000000E+00  0.00000000000E+00  0.55952675828E+02  0.55952675828E+02  0.00000000000E+00 0. -1.
         -2   -1    0    0    0  501 -0.00000000000E+00 -0.00000000000E+00 -0.39540929164E+03  0.39540929164E+03  0.00000000000E+00 0.  1.
         23    2    1    2    0    0 -0.90029700090E+02  0.43550229522E+02 -0.19741202352E+03  0.25420673257E+03  0.12509031324E+03 0.  0.
         23    2    1    2    0    0  0.90029700090E+02 -0.43550229522E+02 -0.14204459230E+03  0.19715523490E+03  0.93228488441E+02 0.  0.
          5    1    3    3  502    0  0.40330128538E+01  0.54596667803E+02 -0.11945538822E+03  0.13146909714E+03  0.41800000000E+01 0. -1.
         -5    1    3    3    0  502 -0.94062712944E+02 -0.11046438281E+02 -0.77956635299E+02  0.12273763543E+03  0.41800000000E+01 0. -1.
        -11    1    4    4    0    0  0.30428706072E+02 -0.28942669042E+02  0.46236805531E+00  0.41997595511E+02  0.00000000000E+00 0. -1.
         11    1    4    4    0    0  0.59600994018E+02 -0.14607560480E+02 -0.14250696035E+03  0.15515763939E+03  0.00000000000E+00 0.  1.
</event>
<event>
 8    1  0.4798744E-006  0.1103710E+03  0.7561462E-02  0.1259884E+00
         -2   -1    0    0    0  501 -0.00000000000E+00  0.00000000000E+00  0.10097291564E+03  0.10097291564E+03  0.00000000000E+00 0.  1.
          2   -1    0    0  501    0  0.00000000000E+00 -0.00000000000E+00 -0.20846949705E+03  0.20846949705E+03  0.00000000000E+00 0. -1.
         23    2    1    2    0    0 -0.13397436046E+02 -0.21741953419E+02  0.40483149706E+02  0.13393475591E+03  0.12508968623E+03 0.  0.
         23    2    1    2    0    0  0.13397436046E+02  0.21741953419E+02 -0.14797973112E+03  0.17550765678E+03  0.90844553686E+02 0.  0.
          5    1    3    3  502    0  0.27193589866E+00  0.51935957431E+02  0.22521715541E+02  0.56763700499E+02  0.41800000000E+01 0.  1.
         -5    1    3    3    0  502 -0.13669371945E+02 -0.73677910850E+02  0.17961434165E+02  0.77171055415E+02  0.41800000000E+01 0.  1.
        -11    1    4    4    0    0  0.23123506086E+02 -0.31715772929E+02 -0.51142599521E+02  0.64468226840E+02  0.00000000000E+00 0.  1.
         11    1    4    4    0    0 -0.97260700397E+01  0.53457726347E+02 -0.96837131601E+02  0.11103942994E+03  0.00000000000E+00 0. -1.
</event>
<event>
 8    1  0.4798744E-006  0.3110655E+03  0.7561462E-02  0.1079836E+00
          1   -1    0    0  501    0  0.00000000000E+00  0.00000000000E+00  0.69988127183E+02  0.69988127183E+02  0.00000000000E+00 0. -1.
         -1   -1    0    0    0  501 -0.00000000000E+00 -0.00000000000E+00 -0.14255654398E+04  0.14255654398E+04  0.00000000000E+00 0.  1.
         23    2    1    2    0    0  0.34249250686E+02 -0.29438455659E+03 -0.66304218182E+03  0.73695808712E+03  0.12508800488E+03 0.  0.
         23    2    1    2    0    0 -0.34249250686E+02  0.29438455659E+03 -0.69253513081E+03  0.75859547988E+03  0.89593059768E+02 0.  0.
          5    1    3    3  502    0  0.42945294262E+02 -0.30457512945E+03 -0.63632161414E+03  0.70677646876E+03  0.41800000000E+01 0.  1.
         -5    1    3    3    0  502 -0.86960435751E+01  0.10190572865E+02 -0.26720567687E+02  0.30181618357E+02  0.41800000000E+01 0.  1.
        -11    1    4    4    0    0 -0.33933313591E+02  0.91392879267E+02 -0.31774002289E+03  0.33235951964E+03  0.00000000000E+00 0. -1.
         11    1    4    4    0    0 -0.31593709542E+00  0.20299167732E+03 -0.37479510792E+03  0.42623596024E+03  0.00000000000E+00 0.  1.
</event>
<event>
 8    1  0.4798744E-006  0.1412740E+03  0.7561462E-02  0.1211625E+00
          1   -1    0    0  501    0  0.00000000000E+00  0.00000000000E+00  0.78024245110E+03  0.78024245110E+03  0.00000000000E+00 0. -1.
         -1   -1    0    0    0  501 -0.00000000000E+00 -0.00000000000E+00 -0.52108339644E+02  0.52108339644E+02  0.00000000000E+00 0.  1.
         23    2    1    2    0    0  0.80487439373E+02  0.43280919887E+02  0.85471418086E+02  0.17693192750E+03  0.12509227688E+03 0.  0.
         23    2    1    2    0    0 -0.80487439373E+02 -0.43280919887E+02  0.64266269337E+03  0.65541886324E+03  0.90592951846E+02 0.  0.
          5    1    3    3  502    0  0.11194665181E+03  0.17537336217E+02  0.55423708812E+02  0.12620963082E+03  0.41800000000E+01 0. -1.
         -5    1    3    3    0  502 -0.31459212441E+02  0.25743583670E+02  0.30047709274E+02  0.50722296677E+02  0.41800000000E+01 0. -1.
        -11    1    4    4    0    0  0.11966267341E+02  0.14859905308E+02  0.78833744878E+02  0.81109602830E+02  0.00000000000E+00 0.  1.
         11    1    4    4    0    0 -0.92453706714E+02 -0.58140825195E+02  0.56382894849E+03  0.57430926041E+03  0.00000000000E+00 0. -1.
</event>
<event>
 8    1  0.7558265E-006  0.2926985E+03  0.7561462E-02  0.1088949E+00
         -2   -1    0    0    0  501 -0.00000000000E+00  0.00000000000E+00  0.58973575912E+02  0.58973575912E+02  0.00000000000E+00 0.  1.
          2   -1    0    0  501    0  0.00000000000E+00 -0.00000000000E+00 -0.18071556908E+04  0.18071556908E+04  0.00000000000E+00 0. -1.
         23    2    1    2    0    0 -0.68523332598E+02 -0.28360983290E+03 -0.60942500481E+03  0.68715140651E+03  0.12509290369E+03 0.  0.
         23    2    1    2    0    0  0.68523332598E+02  0.28360983290E+03 -0.11387571101E+04  0.11789778602E+04  0.89950289989E+02 0.  0.
          5    1    3    3  502    0 -0.35733975510E+02 -0.18770715086E+03 -0.51198026711E+03  0.54649076644E+03  0.41800000000E+01 0. -1.
         -5    1    3    3    0  502 -0.32789357088E+02 -0.95902682041E+02 -0.97444737701E+02  0.14066064008E+03  0.41800000000E+01 0. -1.
        -11    1    4    4    0    0  0.58621837352E+02  0.19359462035E+03 -0.61390109482E+03  0.64636673110E+03  0.00000000000E+00 0.  1.
         11    1    4    4    0    0  0.99014952459E+01  0.90015212546E+02 -0.52485601529E+03  0.53261112914E+03  0.00000000000E+00 0. -1.
</event>
<event>
 8    1  0.4798744E-006  0.6442230E+02  0.7561462E-02  0.1380158E+00
         -2   -1    0    0    0  501 -0.00000000000E+00  0.00000000000E+00  0.11769529819E+03  0.11769529819E+03  0.00000000000E+00 0.  1.
          2   -1    0    0  501    0  0.00000000000E+00 -0.00000000000E+00 -0.10557465062E+03  0.10557465062E+03  0.00000000000E+00 0. -1.
         23    2    1    2    0    0  0.25800911769E+01  0.35225839081E+01  0.36831858443E+02  0.13047501251E+03  0.12509227644E+03 0.  0.
         23    2    1    2    0    0 -0.25800911769E+01 -0.35225839081E+01 -0.24711210873E+02  0.92794936308E+02  0.89337510564E+02 0.  0.
          5    1    3    3  502    0 -0.33434236542E+02 -0.32101316311E+02  0.58896187304E+02  0.75063812593E+02  0.41800000000E+01 0. -1.
         -5    1    3    3    0  502  0.36014327719E+02  0.35623900219E+02 -0.22064328861E+02  0.55411199915E+02  0.41800000000E+01 0. -1.
        -11    1    4    4    0    0 -0.15273808720E+02 -0.89157437709E+01 -0.55933090284E+02  0.58662511953E+02  0.00000000000E+00 0. -1.
         11    1    4    4    0    0  0.12693717544E+02  0.53931598628E+01  0.31221879412E+02  0.34132424356E+02  0.00000000000E+00 0.  1.
</event>
<event>
 8    1  0.4798744E-006  0.1240259E+03  0.7561462E-02  0.1236600E+00
         -2   -1    0    0    0  501 -0.00000000000E+00  0.00000000000E+00  0.10973464528E+03  0.10973464528E+03  0.00000000000E+00 0.  1.
          2   -1    0    0  501    0  0.00000000000E+00 -0.00000000000E+00 -0.19380782609E+03  0.19380782609E+03  0.00000000000E+00 0. -1.
         23    2    1    2    0    0 -0.42992629617E+02 -0.80304278787E+02 -0.11959540359E+02  0.15520266184E+03  0.12509073605E+03 0.  0.
         23    2    1    2    0    0  0.42992629617E+02  0.80304278787E+02 -0.72113640452E+02  0.14833980954E+03  0.92234367569E+02 0.  0.
          5    1    3    3  502    0 -0.66303200146E+02 -0.39244252615E+02  0.38278117959E+02  0.86133108776E+02  0.41800000000E+01 0.  1.
         -5    1    3    3    0  502  0.23310570529E+02 -0.41060026172E+02 -0.50237658318E+02  0.69069553067E+02  0.41800000000E+01 0.  1.
        -11    1    4    4    0    0 -0.22448890552E+02  0.37194754690E+01  0.26249439628E+01  0.22905840207E+02  0.00000000000E+00 0.  1.
         11    1    4    4    0    0  0.65441520169E+02  0.76584803318E+02 -0.74738584415E+02  0.12543396933E+03  0.00000000000E+00 0. -1.
</event>
<event>
 8    1  0.4798744E-006  0.1083275E+03  0.7561462E-02  0.1263699E+00
          1   -1    0    0  501    0  0.00000000000E+00  0.00000000000E+00  0.17481707051E+03  0.17481707051E+03  0.00000000000E+00 0. -1.
         -1   -1    0    0    0  501 -0.00000000000E+00 -0.00000000000E+00 -0.86402514605E+02  0.86402514605E+02  0.00000000000E+00 0.  1.
         23    2    1    2    0    0 -0.49945306515E+02 -0.37125089429E+02  0.41438294801E+02  0.14572970041E+03  0.12508879806E+03 0.  0.
         23    2    1    2    0    0  0.49945306515E+02  0.37125089429E+02  0.46976261102E+02  0.11548988470E+03  0.85195882838E+02 0.  0.
          5    1    3    3  502    0  0.21868154268E+02  0.10772193435E+02 -0.26166976787E+02  0.36006102214E+02  0.41800000000E+01 0. -1.
         -5    1    3    3    0  502 -0.71813460783E+02 -0.47897282864E+02  0.67605271589E+02  0.10972359820E+03  0.41800000000E+01 0. -1.
        -11    1    4    4    0    0  0.56270354321E+01 -0.26983301474E+02  0.12749137528E+02  0.30369435193E+02  0.00000000000E+00 0. -1.
         11    1    4    4    0    0  0.44318271083E+02  0.64108390903E+02  0.34227123574E+02  0.85120449506E+02  0.00000000000E+00 0.  1.
</event>
<event>
 8    1  0.4798744E-006  0.1330545E+03  0.7561462E-02  0.1222992E+00
          1   -1    0    0  501    0  0.00000000000E+00  0.00000000000E+00  0.13624538518E+03  0.13624538518E+03  0.00000000000E+00 0. -1.
         -1   -1    0    0    0  501 -0.00000000000E+00 -0.00000000000E+00 -0.13882988092E+03  0.13882988092E+03  0.00000000000E+00 0.  1.
         23    2    1    2    0    0 -0.30777589199E+02 -0.78769333268E+02  0.37713745652E+01  0.15104326614E+03  0.12509187472E+03 0.  0.
         23    2    1    2    0    0  0.30777589199E+02  0.78769333268E+02 -0.63558703086E+01  0.12403199995E+03  0.90507856372E+02 0.  0.
          5    1    3    3  502    0 -0.45184099198E+02  0.21073374954E+02  0.95805649106E+00  0.50040785610E+02  0.41800000000E+01 0. -1.
         -5    1    3    3    0  502  0.14406509999E+02 -0.99842708222E+02  0.28133180742E+01  0.10100248053E+03  0.41800000000E+01 0. -1.
        -11    1    4    4    0    0  0.45134169091E+02  0.11838529657E+02 -0.25201909967E+02  0.53031879751E+02  0.00000000000E+00 0.  1.
         11    1    4    4    0    0 -0.14356579892E+02  0.66930803610E+02  0.18846039658E+02  0.71000120204E+02  0.00000000000E+00 0. -1.
</event>
<event>
 8    1  0.4798744E-006  0.1168367E+03  0.7561462E-02  0.1248409E+00
         -1   -1    0    0    0  501 -0.00000000000E+00  0.00000000000E+00  0.68108210898E+02  0.68108210898E+02  0.00000000000E+00 0.  1.
          1   -1    0    0  501    0  0.00000000000E+00 -0.00000000000E+00 -0.28275332269E+03  0.28275332269E+03  0.00000000000E+00 0. -1.
         23    2    1    2    0    0  0.40431719018E+02  0.74026665913E+02 -0.11572126041E+03  0.19014029970E+03  0.12508897749E+03 0.  0.
         23    2    1    2    0    0 -0.40431719018E+02 -0.74026665913E+02 -0.98923851381E+02  0.16072123389E+03  0.94502462836E+02 0.  0.
          5    1    3    3  502    0 -0.76386894285E+01 -0.31783608553E+02 -0.14650950142E+02  0.36064804019E+02  0.41800000000E+01 0.  1.
         -5    1    3    3    0  502  0.48070408446E+02  0.10581027447E+03 -0.10107031027E+03  0.15407549568E+03  0.41800000000E+01 0.  1.
        -11    1    4    4    0    0 -0.27639106433E+02 -0.53988589878E+02 -0.11637384130E+03  0.13123093759E+03  0.00000000000E+00 0. -1.
         11    1    4    4    0    0 -0.12792612585E+02 -0.20038076036E+02  0.17449989917E+02  0.29490296303E+02  0.00000000000E+00 0.  1.
</event>
<event>
 8    1  0.4798744E-006  0.2076625E+03  0.7561462E-02  0.1143431E+00
         -2   -1    0    0    0  501 -0.00000000000E+00  0.00000000000E+00  0.29293811948E+03  0.29293811948E+03  0.00000000000E+00 0. -1.
          2   -1    0    0  501    0  0.00000000000E+00 -0.00000000000E+00 -0.21917096287E+03  0.21917096287E+03  0.00000000000E+00 0.  1.
         23    2    1    2    0    0 -0.34417719864E+02 -0.18208399584E+03  0.17413343257E+03  0.28338909957E+03  0.12509104058E+03 0.  0.
         23    2    1    2    0    0  0.34417719864E+02  0.18208399584E+03 -0.10036627595E+03  0.22871998278E+03  0.88883520384E+02 0.  0.
          5    1    3    3  502    0 -0.56603830324E+02 -0.38521664512E+02  0.97164521116E+02  0.11893834036E+03  0.41800000000E+01 0.  1.
         -5    1    3    3    0  502  0.22186110460E+02 -0.14356233132E+03  0.76968911453E+02  0.16445075920E+03  0.41800000000E+01 0.  1.
        -11    1    4    4    0    0  0.60058622252E+02  0.11871074849E+03 -0.87283975129E+02  0.15911559392E+03  0.00000000000E+00 0.  1.
         11    1    4    4    0    0 -0.25640902388E+02  0.63373247343E+02 -0.13082300823E+02  0.69604388863E+02  0.00000000000E+00 0. -1.
</event>
<event>
 8    1  0.4798744E-006  0.1024058E+03  0.7561462E-02  0.1275317E+00
          4   -1    0    0  501    0  0.00000000000E+00  0.00000000000E+00  0.85859310396E+02  0.85859310396E+02  0.00000000000E+00 0. -1.
         -4   -1    0    0    0  501 -0.00000000000E+00 -0.00000000000E+00 -0.17021812827E+03  0.17021812827E+03  0.00000000000E+00 0.  1.
         23    2    1    2    0    0 -0.39390399742E+02  0.28638330434E+02 -0.68126535278E+02  0.15053197183E+03  0.12508753803E+03 0.  0.
         23    2    1    2    0    0  0.39390399742E+02 -0.28638330434E+02 -0.16232282598E+02  0.10554546684E+03  0.92220393680E+02 0.  0.
          5    1    3    3  502    0  0.22952609244E+02  0.58645618069E+02 -0.20230272030E+02  0.66278707714E+02  0.41800000000E+01 0. -1.
         -5    1    3    3    0  502 -0.62343008985E+02 -0.30007287635E+02 -0.47896263249E+02  0.84253264113E+02  0.41800000000E+01 0. -1.
        -11    1    4    4    0    0 -0.11581388575E+02 -0.16199061263E+02  0.29736904884E+02  0.35788568834E+02  0.00000000000E+00 0. -1.
         11    1    4    4    0    0  0.50971788317E+02 -0.12439269171E+02 -0.45969187482E+02  0.69756898006E+02  0.00000000000E+00 0.  1.
</event>
<event>
 8    1  0.4798744E-006  0.9262130E+02  0.7561462E-02  0.1296625E+00
         -2   -1    0    0    0  501 -0.00000000000E+00  0.00000000000E+00  0.30078423074E+02  0.30078423074E+02  0.00000000000E+00 0.  1.
          2   -1    0    0  501    0  0.00000000000E+00 -0.00000000000E+00 -0.47206027000E+03  0.47206027000E+03  0.00000000000E+00 0. -1.
         23    2    1    2    0    0 -0.29851193606E+02  0.39961639522E+02 -0.23269641589E+03  0.26885446702E+03  0.12508827313E+03 0.  0.
         23    2    1    2    0    0  0.29851193606E+02 -0.39961639522E+02 -0.20928543104E+03  0.23328422606E+03  0.90183768437E+02 0.  0.
          5    1    3    3  502    0  0.22451765534E+02  0.48469711056E+02 -0.34672388531E+02  0.63820385394E+02  0.41800000000E+01 0. -1.
         -5    1    3    3    0  502 -0.52302959140E+02 -0.85080715339E+01 -0.19802402736E+03  0.20503408162E+03  0.41800000000E+01 0. -1.
        -11    1    4    4    0    0  0.28726235943E+02  0.85583780081E+01 -0.15956703314E+02  0.33956720193E+02  0.00000000000E+00 0.  1.
         11    1    4    4    0    0  0.11249576629E+01 -0.48520017530E+02 -0.19332872772E+03  0.19932750586E+03  0.00000000000E+00 0. -1.
</event>
<event>
 8    1  0.4798744E-006  0.1107302E+03  0.7561462E-02  0.1259224E+00
          2   -1    0    0  501    0  0.00000000000E+00  0.00000000000E+00  0.32162440711E+03  0.32162440711E+03  0.00000000000E+00 0. -1.
         -2   -1    0    0    0  501 -0.00000000000E+00 -0.00000000000E+00 -0.62114866945E+02  0.62114866945E+02  0.00000000000E+00 0.  1.
         23    2    1    2    0    0  0.25480267717E+02 -0.53931909161E+02  0.51133690901E+02  0.14770957613E+03  0.12508225160E+03 0.  0.
         23    2    1    2    0    0 -0.25480267717E+02  0.53931909161E+02  0.20837584927E+03  0.23602969793E+03  0.93443185296E+02 0.  0.
          5    1    3    3  502    0  0.48974936698E+02 -0.78913932760E+02  0.61700900841E+02  0.11158148042E+03  0.41800000000E+01 0. -1.
         -5    1    3    3    0  502 -0.23494668981E+02  0.24982023599E+02 -0.10567209939E+02  0.36128095708E+02  0.41800000000E+01 0. -1.
        -11    1    4    4    0    0  0.21996858628E+02 -0.12360295477E+00  0.84698375157E+01  0.23571491568E+02  0.00000000000E+00 0.  1.
         11    1    4    4    0    0 -0.47477126345E+02  0.54055512116E+02  0.19990601175E+03  0.21245820636E+03  0.00000000000E+00 0. -1.
</event>
<event>
 8    1  0.4798744E-006  0.1336178E+03  0.7561462E-02  0.1222184E+00
         -2   -1    0    0    0  501 -0.00000000000E+00  0.00000000000E+00  0.12133022971E+03  0.12133022971E+03  0.00000000000E+00 0.  1.
          2   -1    0    0  501    0  0.00000000000E+00 -0.00000000000E+00 -0.24445758762E+03  0.24445758762E+03  0.00000000000E+00 0. -1.
         23    2    1    2    0    0  0.59601441334E+02  0.86122864398E+02  0.22156807563E+02  0.16464731629E+03  0.12509330541E+03 0.  0.
         23    2    1    2    0    0 -0.59601441334E+02 -0.86122864398E+02 -0.14528416546E+03  0.20114050104E+03  0.91545250249E+02 0.  0.
          5    1    3    3  502    0  0.16187566744E+02 -0.32262102551E+02  0.11129018259E+02  0.38002737079E+02  0.41800000000E+01 0. -1.
         -5    1    3    3    0  502  0.43413874590E+02  0.11838496695E+03  0.11027789304E+02  0.12664457921E+03  0.41800000000E+01 0. -1.
        -11    1    4    4    0    0 -0.33560128123E+02 -0.48591597207E+02 -0.12021238306E+02  0.60265543133E+02  0.00000000000E+00 0.  1.
         11    1    4    4    0    0 -0.26041313211E+02 -0.37531267191E+02 -0.13326292716E+03  0.14087495791E+03  0.00000000000E+00 0. -1.
</event>
<event>
 8    1  0.4798744E-006  0.6017127E+02  0.7561462E-02  0.1397114E+00
         -1   -1    0    0    0  501 -0.00000000000E+00  0.00000000000E+00  0.18969056926E+03  0.18969056926E+03  0.00000000000E+00 0.  1.
          1   -1    0    0  501    0  0.00000000000E+00 -0.00000000000E+00 -0.70668855205E+02  0.70668855205E+02  0.00000000000E+00 0. -1.
         23    2    1    2    0    0 -0.25329149992E+02 -0.19260281757E+02  0.95770072613E+02  0.16072798085E+03  0.12509617392E+03 0.  0.
         23    2    1    2    0    0  0.25329149992E+02  0.19260281757E+02  0.23251641441E+02  0.99631443611E+02  0.91505526792E+02 0.  0.
          5    1    3    3  502    0 -0.35819273124E+02 -0.33652040160E+02  0.12036291243E+03  0.13007760462E+03  0.41800000000E+01 0. -1.
         -5    1    3    3    0  502  0.10490123132E+02  0.14391758403E+02 -0.24592839817E+02  0.30650376238E+02  0.41800000000E+01 0. -1.
        -11    1    4    4    0    0  0.14624190650E+02  0.32535335358E+02 -0.28171816585E+02  0.45454001460E+02  0.00000000000E+00 0. -1.
         11    1    4    4    0    0  0.10704959342E+02 -0.13275053601E+02  0.51423458026E+02  0.54177442151E+02  0.00000000000E+00 0.  1.
</event>
<event>
 8    1  0.4798744E-006  0.1231021E+03  0.7561462E-02  0.1238066E+00
         -2   -1    0    0    0  501 -0.00000000000E+00  0.00000000000E+00  0.41351044528E+02  0.41351044528E+02  0.00000000000E+00 0.  1.
          2   -1    0    0  501    0  0.00000000000E+00 -0.00000000000E+00 -0.48849762131E+03  0.48849762131E+03  0.00000000000E+00 0. -1.
         23    2    1    2    0    0 -0.80204683587E+02  0.38030491157E+02 -0.21191581025E+03  0.26159492404E+03  0.12507791220E+03 0.  0.
         23    2    1    2    0    0  0.80204683587E+02 -0.38030491157E+02 -0.23523076653E+03  0.26825374180E+03  0.93527786995E+02 0.  0.
          5    1    3    3  502    0  0.20936843253E+01 -0.38915231399E+02 -0.71288305286E+02  0.81352772660E+02  0.41800000000E+01 0.  1.
         -5    1    3    3    0  502 -0.82298367912E+02  0.76945722556E+02 -0.14062750496E+03  0.18024215138E+03  0.41800000000E+01 0.  1.
        -11    1    4    4    0    0  0.27782099472E+02 -0.30580647449E+02 -0.18714277401E+02  0.45356865281E+02  0.00000000000E+00 0.  1.
         11    1    4    4    0    0  0.52422584115E+02 -0.74498437083E+01 -0.21651648913E+03  0.22289687652E+03  0.00000000000E+00 0. -1.
</event>
<event>
 8    1  0.4798744E-006  0.8384972E+02  0.7561462E-02  0.1318468E+00
          2   -1    0    0  501    0  0.00000000000E+00  0.00000000000E+00  0.50710683389E+02  0.50710683389E+02  0.00000000000E+00 0. -1.
         -2   -1    0    0    0  501 -0.00000000000E+00 -0.00000000000E+00 -0.34937705049E+03  0.34937705049E+03  0.00000000000E+00 0.  1.
         23    2    1    2    0    0  0.13250526289E+02  0.75826169624E+02 -0.19577462178E+03  0.24474738971E+03  0.12509355614E+03 0.  0.
         23    2    1    2    0    0 -0.13250526289E+02 -0.75826169624E+02 -0.10289174532E+03  0.15534034417E+03  0.87285318503E+02 0.  0.
          5    1    3    3  502    0 -0.64557530403E+01  0.44171498165E+02 -0.20182183639E+03  0.20674216803E+03  0.41800000000E+01 0.  1.
         -5    1    3    3    0  502  0.19706279330E+02  0.31654671459E+02  0.60472146080E+01  0.38005221677E+02  0.41800000000E+01 0.  1.
        -11    1    4    4    0    0  0.25237198835E+01 -0.67421588981E+02 -0.19751421134E+02  0.70300486909E+02  0.00000000000E+00 0. -1.
         11    1    4    4    0    0 -0.15774246173E+02 -0.84045806426E+01 -0.83140324181E+02  0.85039857261E+02  0.00000000000E+00 0.  1.
</event>
<event>
 7    1  0.4798744E-006  0.1837310E+03  0.7561462E-02  0.1164240E+00
         -2   -1    0    0    0  501 -0.00000000000E+00  0.00000000000E+00  0.60968336899E+03  0.60968336899E+03  0.00000000000E+00 0.  1.
          2   -1    0    0  501    0  0.00000000000E+00 -0.00000000000E+00 -0.99600483018E+02  0.99600483018E+02  0.00000000000E+00 0. -1.
         23    2    1    2    0    0 -0.31249273658E+00  0.27265841070E+02 -0.31540903548E+02  0.10004098975E+03  0.90938700736E+02 0.  0.
          5    1    1    2  502    0 -0.11269319202E+03  0.67248111948E+02  0.26895279520E+03  0.29929106658E+03  0.41800000000E+01 0. -1.
         -5    1    1    2    0  502  0.11300568476E+03 -0.94513953017E+02  0.27267099432E+03  0.30995179569E+03  0.41800000000E+01 0.  1.
        -11    1    3    3    0    0  0.34820426595E+02 -0.11305569373E+02 -0.30831069477E+02  0.47862645687E+02  0.00000000000E+00 0.  1.
         11    1    3    3    0    0 -0.35132919331E+02  0.38571410442E+02 -0.70983407152E+00  0.52178344058E+02  0.00000000000E+00 0. -1.
</event>
<event>
 8    1  0.4798744E-006  0.4187125E+03  0.7561462E-02  0.1037486E+00
         -3   -1    0    0    0  501 -0.00000000000E+00  0.00000000000E+00  0.26227449680E+03  0.26227449680E+03  0.00000000000E+00 0.  1.
          3   -1    0    0  501    0  0.00000000000E+00 -0.00000000000E+00 -0.89728566471E+03  0.89728566471E+03  0.00000000000E+00 0. -1.
         23    2    1    2    0    0  0.15007493773E+03  0.38529648501E+03 -0.48657722510E+02  0.43473135578E+03  0.12509160418E+03 0.  0.
         23    2    1    2    0    0 -0.15007493773E+03 -0.38529648501E+03 -0.58635344539E+03  0.72482880574E+03  0.10291047761E+03 0.  0.
          5    1    3    3  502    0  0.53015475044E+02  0.43871747739E+02  0.22839018783E+02  0.72625505319E+02  0.41800000000E+01 0.  1.
         -5    1    3    3    0  502  0.97059462686E+02  0.34142473727E+03 -0.71496741293E+02  0.36210585046E+03  0.41800000000E+01 0.  1.
        -11    1    4    4    0    0 -0.11764574446E+03 -0.30590731910E+03 -0.52675565120E+03  0.62039610342E+03  0.00000000000E+00 0. -1.
         11    1    4    4    0    0 -0.32429193265E+02 -0.79389165912E+02 -0.59597794196E+02  0.10443270232E+03  0.00000000000E+00 0.  1.
</event>
<event>
 8    1  0.4798744E-006  0.1097108E+03  0.7561462E-02  0.1261106E+00
          1   -1    0    0  501    0  0.00000000000E+00  0.00000000000E+00  0.50582674612E+03  0.50582674612E+03  0.00000000000E+00 0. -1.
         -1   -1    0    0    0  501 -0.00000000000E+00 -0.00000000000E+00 -0.27825257579E+02  0.27825257579E+02  0.00000000000E+00 0.  1.
         23    2    1    2    0    0  0.29965674128E+01  0.35582055547E+02  0.32423820303E+03  0.34935853380E+03  0.12508361500E+03 0.  0.
         23    2    1    2    0    0 -0.29965674128E+01 -0.35582055547E+02  0.15376328551E+03  0.18429346990E+03  0.95109794360E+02 0.  0.
          5    1    3    3  502    0  0.35631124887E+02 -0.31049047106E+02  0.70623174479E+02  0.85080700281E+02  0.41800000000E+01 0.  1.
         -5    1    3    3    0  502 -0.32634557474E+02  0.66631102653E+02  0.25361502855E+03  0.26427783352E+03  0.41800000000E+01 0.  1.
        -11    1    4    4    0    0  0.34205947336E+02  0.12896564308E+02  0.34398289767E+02  0.50195722358E+02  0.00000000000E+00 0.  1.
         11    1    4    4    0    0 -0.37202514749E+02 -0.48478619855E+02  0.11936499574E+03  0.13409774754E+03  0.00000000000E+00 0. -1.
</event>
<event>
 8    1  0.4798744E-006  0.7509779E+02  0.7561462E-02  0.1343568E+00
         -2   -1    0    0    0  501 -0.00000000000E+00  0.00000000000E+00  0.13088020967E+03  0.13088020967E+03  0.00000000000E+00 0.  1.
          2   -1    0    0  501    0  0.00000000000E+00 -0.00000000000E+00 -0.21182000216E+03  0.21182000216E+03  0.00000000000E+00 0. -1.
         23    2    1    2    0    0  0.26405806184E+01  0.39740765461E+02  0.79647866698E+02  0.15355280181E+03  0.12509348172E+03 0.  0.
         23    2    1    2    0    0 -0.26405806184E+01 -0.39740765461E+02 -0.16058765919E+03  0.18914741001E+03  0.91662671390E+02 0.  0.
          5    1    3    3  502    0 -0.12943984103E+02  0.60466217767E+02 -0.75958364274E+01  0.62441006931E+02  0.41800000000E+01 0. -1.
         -5    1    3    3    0  502  0.15584564722E+02 -0.20725452306E+02  0.87243703125E+02  0.91111794878E+02  0.41800000000E+01 0. -1.
        -11    1    4    4    0    0  0.19697292843E+02 -0.33325861614E+02 -0.16131537547E+03  0.16589528854E+03  0.00000000000E+00 0. -1.
         11    1    4    4    0    0 -0.22337873461E+02 -0.64149038473E+01  0.72771627838E+00  0.23252121476E+02  0.00000000000E+00 0.  1.
</event>
<event>
 8    1  0.4798744E-006  0.1264570E+03  0.7561462E-02  0.1232810E+00
          2   -1    0    0  501    0  0.00000000000E+00  0.00000000000E+00  0.27379779140E+03  0.27379779140E+03  0.00000000000E+00 0.  1.
         -2   -1    0    0    0  501 -0.00000000000E+00 -0.00000000000E+00 -0.73125669278E+02  0.73125669278E+02  0.00000000000E+00 0. -1.
         23    2    1    2    0    0  0.73918225664E+02  0.31034212876E+02  0.64634294551E+02  0.16202606770E+03  0.12509127918E+03 0.  0.
         23    2    1    2    0    0 -0.73918225664E+02 -0.31034212876E+02  0.13603782757E+03  0.18489739298E+03  0.96196304220E+02 0.  0.
          5    1    3    3  502    0  0.92960500725E+02  0.59226801764E+02  0.64442088890E+02  0.12774867499E+03  0.41800000000E+01 0. -1.
         -5    1    3    3    0  502 -0.19042275061E+02 -0.28192588887E+02  0.19220566107E+00  0.34277392706E+02  0.41800000000E+01 0. -1.
        -11    1    4    4    0    0 -0.53552451737E+02  0.16978802647E+02  0.23566394678E+02  0.60922243758E+02  0.00000000000E+00 0. -1.
         11    1    4    4    0    0 -0.20365773928E+02 -0.48013015523E+02  0.11247143289E+03  0.12397514922E+03  0.00000000000E+00 0.  1.
</event>
<event>
 8    1  0.4798744E-006  0.6999027E+02  0.7561462E-02  0.1360126E+00
          2   -1    0    0  501    0  0.00000000000E+00  0.00000000000E+00  0.33210850397E+02  0.33210850397E+02  0.00000000000E+00 0. -1.
         -2   -1    0    0    0  501 -0.00000000000E+00 -0.00000000000E+00 -0.46819969556E+03  0.46819969556E+03  0.00000000000E+00 0.  1.
         23    2    1    2    0    0 -0.53888974977E+02 -0.15623366981E+02 -0.29684272608E+03  0.32697292245E+03  0.12509027448E+03 0.  0.
         23    2    1    2    0    0  0.53888974977E+02  0.15623366981E+02 -0.13814611909E+03  0.17443762351E+03  0.90531889719E+02 0.  0.
          5    1    3    3  502    0 -0.51613499961E+02 -0.18456936968E+02 -0.35212407059E+02  0.65283978979E+02  0.41800000000E+01 0. -1.
         -5    1    3    3    0  502 -0.22754750164E+01  0.28335699866E+01 -0.26163031902E+03  0.26168894347E+03  0.41800000000E+01 0. -1.
        -11    1    4    4    0    0  0.29799955977E+02  0.36828956412E+02 -0.13393832111E+03  0.14206999426E+03  0.00000000000E+00 0.  1.
         11    1    4    4    0    0  0.24089019000E+02 -0.21205589431E+02 -0.42077979785E+01  0.32367629251E+02  0.00000000000E+00 0. -1.
</event>
<event>
 8    1  0.4798744E-006  0.1271630E+03  0.7561462E-02  0.1231727E+00
          2   -1    0    0  501    0  0.00000000000E+00  0.00000000000E+00  0.10296777680E+04  0.10296777680E+04  0.00000000000E+00 0. -1.
         -2   -1    0    0    0  501 -0.00000000000E+00 -0.00000000000E+00 -0.16699294136E+02  0.16699294136E+02  0.00000000000E+00 0.  1.
         23    2    1    2    0    0  0.70112552081E+02 -0.14364683119E+02  0.50144340700E+03  0.52174102867E+03  0.12508435752E+03 0.  0.
         23    2    1    2    0    0 -0.70112552081E+02  0.14364683119E+02  0.51153506686E+03  0.52463603346E+03  0.91938723588E+02 0.  0.
          5    1    3    3  502    0  0.92914411863E+02  0.26851498805E+02  0.33312269663E+03  0.34690386900E+03  0.41800000000E+01 0.  1.
         -5    1    3    3    0  502 -0.22801859782E+02 -0.41216181924E+02  0.16832071037E+03  0.17483715967E+03  0.41800000000E+01 0.  1.
        -11    1    4    4    0    0  0.15909146880E+02  0.18137991347E+02  0.55103976194E+02  0.60154267322E+02  0.00000000000E+00 0. -1.
         11    1    4    4    0    0 -0.86021698961E+02 -0.37733082281E+01  0.45643109066E+03  0.46448176614E+03  0.00000000000E+00 0.  1.
</event>
<event>
 8    1  0.4798744E-006  0.9157464E+02  0.7561462E-02  0.1299083E+00
         -2   -1    0    0    0  501 -0.00000000000E+00  0.00000000000E+00  0.27539016067E+02  0.27539016067E+02  0.00000000000E+00 0.  1.
          2   -1    0    0  501    0  0.00000000000E+00 -0.00000000000E+00 -0.52415560796E+03  0.52415560796E+03  0.00000000000E+00 0. -1.
         23    2    1    2    0    0 -0.16390554253E+02 -0.40690673221E+02 -0.22009929837E+03  0.25693452328E+03  0.12508903612E+03 0.  0.
         23    2    1    2    0    0  0.16390554253E+02  0.40690673221E+02 -0.27651729352E+03  0.29476010074E+03  0.92180921107E+02 0.  0.
          5    1    3    3  502    0  0.13362594667E+02 -0.52509993480E+02 -0.21789846897E+03  0.22457309173E+03  0.41800000000E+01 0. -1.
         -5    1    3    3    0  502 -0.29753148919E+02  0.11819320259E+02 -0.22008294005E+01  0.32361431551E+02  0.41800000000E+01 0. -1.
        -11    1    4    4    0    0 -0.33062714404E+02  0.32555158720E+02 -0.18147672186E+03  0.18731466046E+03  0.00000000000E+00 0. -1.
         11    1    4    4    0    0  0.49453268656E+02  0.81355145009E+01 -0.95040571657E+02  0.10744544028E+03  0.00000000000E+00 0.  1.
</event>
<event>
 8    1  0.4798744E-006  0.9255754E+02  0.7561462E-02  0.1296774E+00
          1   -1    0    0  501    0  0.00000000000E+00  0.00000000000E+00  0.17381437063E+03  0.17381437063E+03  0.00000000000E+00 0.  1.
         -1   -1    0    0    0  501 -0.00000000000E+00 -0.00000000000E+00 -0.12375450862E+03  0.12375450862E+03  0.00000000000E+00 0. -1.
         23    2    1    2    0    0 -0.58866057207E+02  0.57249116932E+02 -0.27459075119E+02  0.15213471542E+03  0.12509315229E+03 0.  0.
         23    2    1    2    0    0  0.58866057207E+02 -0.57249116932E+02  0.77518937135E+02  0.14543416383E+03  0.91647347553E+02 0.  0.
          5    1    3    3  502    0 -0.36799304064E+02  0.31326953642E+02 -0.77523147693E+02  0.91448770534E+02  0.41800000000E+01 0. -1.
         -5    1    3    3    0  502 -0.22066753143E+02  0.25922163291E+02  0.50064072574E+02  0.60685944885E+02  0.41800000000E+01 0. -1.
        -11    1    4    4    0    0  0.44275151440E+02 -0.10937520424E+01  0.75315618076E+02  0.87372350630E+02  0.00000000000E+00 0.  1.
         11    1    4    4    0    0  0.14590905767E+02 -0.56155364890E+02  0.22033190594E+01  0.58061813199E+02  0.00000000000E+00 0. -1.
</event>
<event>
 8    1  0.4798744E-006  0.1026859E+03  0.7561462E-02  0.1274747E+00
         -3   -1    0    0    0  501 -0.00000000000E+00  0.00000000000E+00  0.88060815007E+02  0.88060815007E+02  0.00000000000E+00 0.  1.
          3   -1    0    0  501    0  0.00000000000E+00 -0.00000000000E+00 -0.18806945647E+03  0.18806945647E+03  0.00000000000E+00 0. -1.
         23    2    1    2    0    0  0.11770956992E+01 -0.56296156935E+02 -0.87280800278E+01  0.13745932667E+03  0.12509294252E+03 0.  0.
         23    2    1    2    0    0 -0.11770956992E+01  0.56296156935E+02 -0.91280561440E+02  0.13867094481E+03  0.87902486869E+02 0.  0.
          5    1    3    3  502    0 -0.36825129600E+02 -0.76652798076E+02  0.17363045380E+02  0.86894702760E+02  0.41800000000E+01 0. -1.
         -5    1    3    3    0  502  0.38002225299E+02  0.20356641141E+02 -0.26091125408E+02  0.50564623911E+02  0.41800000000E+01 0. -1.
        -11    1    4    4    0    0 -0.11928529950E+01 -0.10275527083E+02  0.11969358280E+02  0.15820078784E+02  0.00000000000E+00 0.  1.
         11    1    4    4    0    0  0.15757295733E-01  0.66571684018E+02 -0.10324991972E+03  0.12285086603E+03  0.00000000000E+00 0. -1.
</event>
<event>
 8    1  0.4798744E-006  0.1083603E+03  0.7561462E-02  0.1263637E+00
          3   -1    0    0  501    0  0.00000000000E+00  0.00000000000E+00  0.17554731367E+03  0.17554731367E+03  0.00000000000E+00 0. -1.
         -3   -1    0    0    0  501 -0.00000000000E+00 -0.00000000000E+00 -0.79996907634E+02  0.79996907634E+02  0.00000000000E+00 0.  1.
         23    2    1    2    0    0  0.18791402957E+02 -0.12675523707E+02  0.98721918634E+01  0.12750987637E+03  0.12509005826E+03 0.  0.
         23    2    1    2    0    0 -0.18791402957E+02  0.12675523707E+02  0.85678214175E+02  0.12803434493E+03  0.92402658898E+02 0.  0.
          5    1    3    3  502    0  0.20907595354E+02 -0.66120271219E+02 -0.10221203894E+02  0.70220817559E+02  0.41800000000E+01 0. -1.
         -5    1    3    3    0  502 -0.21161923964E+01  0.53444747512E+02  0.20093395758E+02  0.57289058816E+02  0.41800000000E+01 0. -1.
        -11    1    4    4    0    0 -0.87308760249E+00  0.51149052112E+02  0.58138282834E+02  0.77440607855E+02  0.00000000000E+00 0.  1.
         11    1    4    4    0    0 -0.17918315355E+02 -0.38473528406E+02  0.27539931340E+02  0.50593737077E+02  0.00000000000E+00 0. -1.
</event>
<event>
 8    1  0.4798744E-006  0.1203595E+03  0.7561462E-02  0.1242505E+00
         -4   -1    0    0    0  501 -0.00000000000E+00  0.00000000000E+00  0.14386074126E+03  0.14386074126E+03  0.00000000000E+00 0. -1.
          4   -1    0    0  501    0  0.00000000000E+00 -0.00000000000E+00 -0.18324156319E+03  0.18324156319E+03  0.00000000000E+00 0.  1.
         23    2    1    2    0    0  0.95868926161E+01 -0.10238833525E+03  0.41677534361E+02  0.16721310904E+03  0.12509167541E+03 0.  0.
         23    2    1    2    0    0 -0.95868926161E+01  0.10238833525E+03 -0.81058356288E+02  0.15988919541E+03  0.91754116956E+02 0.  0.
          5    1    3    3  502    0  0.31630425102E+02 -0.10991159537E+02  0.62315572904E+02  0.70866017289E+02  0.41800000000E+01 0. -1.
         -5    1    3    3    0  502 -0.22043532486E+02 -0.91397175716E+02 -0.20638038543E+02  0.96347091748E+02  0.41800000000E+01 0. -1.
        -11    1    4    4    0    0 -0.23826585106E+02  0.26443747437E+02 -0.74226388438E+02  0.82319710136E+02  0.00000000000E+00 0.  1.
         11    1    4    4    0    0  0.14239692490E+02  0.75944587816E+02 -0.68319678504E+01  0.77569485273E+02  0.00000000000E+00 0. -1.
</event>
<event>
 8    1  0.4798744E-006  0.1543963E+03  0.7561462E-02  0.1195173E+00
         -1   -1    0    0    0  501 -0.00000000000E+00  0.00000000000E+00  0.80523345167E+03  0.80523345167E+03  0.00000000000E+00 0.  1.
          1   -1    0    0  501    0  0.00000000000E+00 -0.00000000000E+00 -0.31512755175E+02  0.31512755175E+02  0.00000000000E+00 0. -1.
         23    2    1    2    0    0  0.46544361389E+02 -0.99695883429E+02  0.50847043237E+03  0.53506574527E+03  0.12509006522E+03 0.  0.
         23    2    1    2    0    0 -0.46544361389E+02  0.99695883429E+02  0.26525026412E+03  0.30168046157E+03  0.92454050901E+02 0.  0.
          5    1    3    3  502    0  0.78701275554E+02 -0.21359788774E+02  0.26099838959E+03  0.27347351448E+03  0.41800000000E+01 0.  1.
         -5    1    3    3    0  502 -0.32156914166E+02 -0.78336094654E+02  0.24747204278E+03  0.26159223079E+03  0.41800000000E+01 0.  1.
        -11    1    4    4    0    0 -0.59160227926E+02  0.21188679744E+02  0.96833050348E+02  0.11543626968E+03  0.00000000000E+00 0.  1.
         11    1    4    4    0    0  0.12615866537E+02  0.78507203685E+02  0.16841721377E+03  0.18624419189E+03  0.00000000000E+00 0. -1.
</event>
<event>
 8    1  0.4798744E-006  0.1725042E+03  0.7561462E-02  0.1175261E+00
         -2   -1    0    0    0  501 -0.00000000000E+00  0.00000000000E+00  0.10205034038E+03  0.10205034038E+03  0.00000000000E+00 0.  1.
          2   -1    0    0  501    0  0.00000000000E+00 -0.00000000000E+00 -0.37152188300E+03  0.37152188300E+03  0.00000000000E+00 0. -1.
         23    2    1    2    0    0  0.13235662384E+03  0.61947383387E+02 -0.58716252233E+02  0.20112670598E+03  0.12509436198E+03 0.  0.
         23    2    1    2    0    0 -0.13235662384E+03 -0.61947383387E+02 -0.21075529039E+03  0.27244551739E+03  0.91940270490E+02 0.  0.
          5    1    3    3  502    0  0.14459807653E+03  0.45529633047E+02 -0.79859703986E+02  0.17139602079E+03  0.41800000000E+01 0. -1.
         -5    1    3    3    0  502 -0.12241452687E+02  0.16417750340E+02  0.21143451753E+02  0.29730685195E+02  0.41800000000E+01 0. -1.
        -11    1    4    4    0    0 -0.11655458669E+03 -0.86646098899E+01 -0.13663047408E+03  0.17979970409E+03  0.00000000000E+00 0.  1.
         11    1    4    4    0    0 -0.15802037146E+02 -0.53282773497E+02 -0.74124816306E+02  0.92645813299E+02  0.00000000000E+00 0. -1.
</event>
<event>
 8    1  0.4798744E-006  0.1075936E+03  0.7561462E-02  0.1265092E+00
         -1   -1    0    0    0  501 -0.00000000000E+00  0.00000000000E+00  0.25848575177E+03  0.25848575177E+03  0.00000000000E+00 0.  1.
          1   -1    0    0  501    0  0.00000000000E+00 -0.00000000000E+00 -0.50735725694E+02  0.50735725694E+02  0.00000000000E+00 0. -1.
         23    2    1    2    0    0  0.19019340608E+02  0.21666547481E+02  0.15006782918E+03  0.19747706108E+03  0.12508261950E+03 0.  0.
         23    2    1    2    0    0 -0.19019340608E+02 -0.21666547481E+02  0.57682196899E+02  0.11174441639E+03  0.91260090717E+02 0.  0.
          5    1    3    3  502    0  0.91681265956E+01  0.69664428314E+02  0.12201265175E+03  0.14086073514E+03  0.41800000000E+01 0. -1.
         -5    1    3    3    0  502  0.98512140120E+01 -0.47997880833E+02  0.28055177428E+02  0.56616325936E+02  0.41800000000E+01 0. -1.
        -11    1    4    4    0    0 -0.55739352829E+02 -0.18654934897E+02  0.37725385814E+02  0.69843301645E+02  0.00000000000E+00 0. -1.
         11    1    4    4    0    0  0.36720012222E+02 -0.30116125832E+01  0.19956811085E+02  0.41901114741E+02  0.00000000000E+00 0.  1.
</event>
<event>
 8    1  0.4798744E-006  0.1029990E+03  0.7561462E-02  0.1274113E+00
          3   -1    0    0  501    0  0.00000000000E+00  0.00000000000E+00  0.20953026210E+03  0.20953026210E+03  0.00000000000E+00 0. -1.
         -3   -1    0    0    0  501 -0.00000000000E+00 -0.00000000000E+00 -0.80315210036E+02  0.80315210036E+02  0.00000000000E+00 0.  1.
         23    2    1    2    0    0  0.43088730420E+02  0.24488008709E+02  0.15242005310E+02  0.13541190860E+03  0.12509102687E+03 0.  0.
         23    2    1    2    0    0 -0.43088730420E+02 -0.24488008709E+02  0.11397304675E+03  0.15443356354E+03  0.91670981785E+02 0.  0.
          5    1    3    3  502    0 -0.17836844065E+02  0.58605434004E+02 -0.74922661465E+01  0.61857548877E+02  0.41800000000E+01 0.  1.
         -5    1    3    3    0  502  0.60925574485E+02 -0.34117425295E+02  0.22734271456E+02  0.73554359719E+02  0.41800000000E+01 0.  1.
        -11    1    4    4    0    0 -0.15210019259E+02  0.18161936980E+02  0.98314723376E+02  0.10112855914E+03  0.00000000000E+00 0. -1.
         11    1    4    4    0    0 -0.27878711160E+02 -0.42649945690E+02  0.15658323378E+02  0.53305004402E+02  0.00000000000E+00 0.  1.
</event>
<event>
 7    1  0.4798744E-006  0.1149641E+03  0.7561462E-02  0.1251644E+00
         -1   -1    0    0    0  501 -0.00000000000E+00  0.00000000000E+00  0.25063735881E+02  0.25063735881E+02  0.00000000000E+00 0.  1.
          1   -1    0    0  501    0  0.00000000000E+00 -0.00000000000E+00 -0.56044997466E+03  0.56044997466E+03  0.00000000000E+00 0. -1.
         23    2    1    2    0    0 -0.18488544050E+02 -0.13228841074E+01 -0.28295229055E+03  0.29773427993E+03  0.90775142164E+02 0.  0.
          5    1    1    2  502    0 -0.41132387732E+02 -0.45482229678E+02 -0.97694167026E+02  0.11542152836E+03  0.41800000000E+01 0. -1.
         -5    1    1    2    0  502  0.59620931782E+02  0.46805113785E+02 -0.15473978120E+03  0.17235790226E+03  0.41800000000E+01 0.  1.
        -11    1    3    3    0    0  0.19468024016E+02 -0.36135364632E+02 -0.13235516860E+03  0.13857365980E+03  0.00000000000E+00 0. -1.
         11    1    3    3    0    0 -0.37956568066E+02  0.34812480525E+02 -0.15059712195E+03  0.15916062013E+03  0.00000000000E+00 0.  1.
</event>
<event>
 8    1  0.4798744E-006  0.7717153E+02  0.7561462E-02  0.1337275E+00
         -1   -1    0    0    0  501 -0.00000000000E+00  0.00000000000E+00  0.12755674836E+04  0.12755674836E+04  0.00000000000E+00 0.  1.
          1   -1    0    0  501    0  0.00000000000E+00 -0.00000000000E+00 -0.10727766241E+02  0.10727766241E+02  0.00000000000E+00 0. -1.
         23    2    1    2    0    0 -0.10822887557E+02 -0.27661072504E+02  0.92038594035E+03  0.92932194387E+03  0.12508687517E+03 0.  0.
         23    2    1    2    0    0  0.10822887557E+02  0.27661072504E+02  0.34445377701E+03  0.35697330597E+03  0.88877819795E+02 0.  0.
          5    1    3    3  502    0  0.20502768431E+02 -0.24264336600E+02  0.57290453140E+02  0.65641373881E+02  0.41800000000E+01 0.  1.
         -5    1    3    3    0  502 -0.31325655988E+02 -0.33967359040E+01  0.86309548721E+03  0.86368056999E+03  0.41800000000E+01 0.  1.
        -11    1    4    4    0    0 -0.33311181460E+02  0.31973545290E+02  0.22165702137E+03  0.22641505588E+03  0.00000000000E+00 0.  1.
         11    1    4    4    0    0  0.44134069018E+02 -0.43124727862E+01  0.12279675564E+03  0.13055825009E+03  0.00000000000E+00 0. -1.
</event>
<event>
 7    1  0.4798744E-006  0.1340667E+03  0.7561462E-02  0.1221543E+00
         -1   -1    0    0    0  501 -0.00000000000E+00  0.00000000000E+00  0.26313807361E+02  0.26313807361E+02  0.00000000000E+00 0.  1.
          1   -1    0    0  501    0  0.00000000000E+00 -0.00000000000E+00 -0.82986012390E+03  0.82986012390E+03  0.00000000000E+00 0. -1.
         23    2    1    2    0    0 -0.14519358423E+02  0.35762849376E+02 -0.29916022395E+03  0.32654955709E+03  0.12509188812E+03 0.  0.
          5    1    3    3  502    0 -0.66621443110E+02 -0.10328116437E+01 -0.14316884710E+03  0.15796922030E+03  0.41800000000E+01 0.  1.
         -5    1    3    3    0  502  0.52102084687E+02  0.36795661020E+02 -0.15599137685E+03  0.16858033679E+03  0.41800000000E+01 0.  1.
        -11    1    1    2    0    0  0.61144645588E+02 -0.59338640418E+02 -0.43217646554E+03  0.44049544753E+03  0.00000000000E+00 0. -1.
         11    1    1    2    0    0 -0.46625287165E+02  0.23575791042E+02 -0.72209627054E+02  0.89128926650E+02  0.00000000000E+00 0.  1.
</event>
<event>
 8    1  0.4798744E-006  0.1480610E+03  0.7561462E-02  0.1202876E+00
         -2   -1    0    0    0  501 -0.00000000000E+00  0.00000000000E+00  0.48889600711E+03  0.48889600711E+03  0.00000000000E+00 0.  1.
          2   -1    0    0  501    0  0.00000000000E+00 -0.00000000000E+00 -0.65803202146E+02  0.65803202146E+02  0.00000000000E+00 0. -1.
         23    2    1    2    0    0 -0.73679429932E+02  0.11206397410E+03  0.29660621597E+03  0.34872537998E+03  0.12508857105E+03 0.  0.
         23    2    1    2    0    0  0.73679429932E+02 -0.11206397410E+03  0.12648658900E+03  0.20597382928E+03  0.91866035420E+02 0.  0.
          5    1    3    3  502    0  0.41370984278E+01  0.46593774780E+01 -0.11230254533E+02  0.13506161511E+02  0.41800000000E+01 0.  1.
         -5    1    3    3    0  502 -0.77816528360E+02  0.10740459662E+03  0.30783647050E+03  0.33521921847E+03  0.41800000000E+01 0.  1.
        -11    1    4    4    0    0 -0.99760983368E+01 -0.51969680241E+02  0.16837000969E+02  0.55532466215E+02  0.00000000000E+00 0. -1.
         11    1    4    4    0    0  0.83655528269E+02 -0.60094293860E+02  0.10964958803E+03  0.15044136306E+03  0.00000000000E+00 0.  1.
</event>
<event>
 8    1  0.4798744E-006  0.8827386E+02  0.7561462E-02  0.1307086E+00
          1   -1    0    0  501    0  0.00000000000E+00  0.00000000000E+00  0.21613334367E+03  0.21613334367E+03  0.00000000000E+00 0. -1.
         -1   -1    0    0    0  501 -0.00000000000E+00 -0.00000000000E+00 -0.87025356690E+02  0.87025356690E+02  0.00000000000E+00 0.  1.
         23    2    1    2    0    0  0.64430017243E+02 -0.29651369998E+02  0.16742893944E+02  0.14476539248E+03  0.12508502507E+03 0.  0.
         23    2    1    2    0    0 -0.64430017243E+02  0.29651369998E+02  0.11236509304E+03  0.15839330788E+03  0.86209599140E+02 0.  0.
          5    1    3    3  502    0  0.55459058185E+02 -0.11923310642E+02 -0.49548307921E+02  0.75434605382E+02  0.41800000000E+01 0. -1.
         -5    1    3    3    0  502  0.89709590584E+01 -0.17728059356E+02  0.66291201864E+02  0.69330787098E+02  0.41800000000E+01 0. -1.
        -11    1    4    4    0    0 -0.68793820564E+01  0.40260261894E+02  0.12620817060E+02  0.42749264421E+02  0.00000000000E+00 0.  1.
         11    1    4    4    0    0 -0.57550635187E+02 -0.10608891897E+02  0.99744275978E+02  0.11564404346E+03  0.00000000000E+00 0. -1.
</event>
<event>
 8    1  0.4798744E-006  0.1004573E+03  0.7561462E-02  0.1279337E+00
          1   -1    0    0  501    0  0.00000000000E+00  0.00000000000E+00  0.37043205527E+03  0.37043205527E+03  0.00000000000E+00 0. -1.
         -1   -1    0    0    0  501 -0.00000000000E+00 -0.00000000000E+00 -0.47292783795E+02  0.47292783795E+02  0.00000000000E+00 0.  1.
         23    2    1    2    0    0  0.46341860838E+02 -0.38473100399E+01  0.83131989509E+02  0.15722719890E+03  0.12508834692E+03 0.  0.
         23    2    1    2    0    0 -0.46341860838E+02  0.38473100399E+01  0.24000728197E+03  0.26049764017E+03  0.89961965707E+02 0.  0.
          5    1    3    3  502    0  0.57938965228E+02  0.37510360588E+02  0.90033627664E+02  0.11352302565E+03  0.41800000000E+01 0. -1.
         -5    1    3    3    0  502 -0.11597104390E+02 -0.41357670627E+02 -0.69016381556E+01  0.43704173247E+02  0.41800000000E+01 0. -1.
        -11    1    4    4    0    0  0.17696983821E+02 -0.13506702397E+02  0.17524525745E+02  0.28332371037E+02  0.00000000000E+00 0.  1.
         11    1    4    4    0    0 -0.64038844659E+02  0.17354012436E+02  0.22248275622E+03  0.23216526913E+03  0.00000000000E+00 0. -1.
</event>
<event>
 8    1  0.4798744E-006  0.8522197E+02  0.7561462E-02  0.1314853E+00
         -1   -1    0    0    0  501 -0.00000000000E+00  0.00000000000E+00  0.16105443335E+02  0.16105443335E+02  0.00000000000E+00 0.  1.
          1   -1    0    0  501    0  0.00000000000E+00 -0.00000000000E+00 -0.58536206991E+03  0.58536206991E+03  0.00000000000E+00 0. -1.
         23    2    1    2    0    0  0.14437871259E+02 -0.16377507418E+02 -0.33490228676E+03  0.35816719035E+03  0.12509004632E+03 0.  0.
         23    2    1    2    0    0 -0.14437871259E+02  0.16377507418E+02 -0.23435433982E+03  0.24330032290E+03  0.61615060308E+02 0.  0.
          5    1    3    3  502    0  0.58152687702E+02 -0.19239975513E+02 -0.87556352628E+02  0.10693689275E+03  0.41800000000E+01 0. -1.
         -5    1    3    3    0  502 -0.43714816443E+02  0.28624680955E+01 -0.24734593413E+03  0.25123029760E+03  0.41800000000E+01 0. -1.
        -11    1    4    4    0    0 -0.18561256445E+01  0.39059378656E+02 -0.15257470720E+03  0.15750594129E+03  0.00000000000E+00 0. -1.
         11    1    4    4    0    0 -0.12581745615E+02 -0.22681871238E+02 -0.81779632613E+02  0.85794381611E+02  0.00000000000E+00 0.  1.
</event>
<event>
 8    1  0.4798744E-006  0.1465536E+03  0.7561462E-02  0.1204773E+00
         -1   -1    0    0    0  501 -0.00000000000E+00  0.00000000000E+00  0.24248567208E+02  0.24248567208E+02  0.00000000000E+00 0.  1.
          1   -1    0    0  501    0  0.00000000000E+00 -0.00000000000E+00 -0.10496979463E+04  0.10496979463E+04  0.00000000000E+00 0. -1.
         23    2    1    2    0    0 -0.10562729261E+03  0.21018974305E+02 -0.48976396387E+03  0.51683062841E+03  0.12508491490E+03 0.  0.
         23    2    1    2    0    0  0.10562729261E+03 -0.21018974305E+02 -0.53568541525E+03  0.55711588512E+03  0.10872130941E+03 0.  0.
          5    1    3    3  502    0 -0.10015463541E+03 -0.16826714607E+02 -0.45064945538E+03  0.46197022994E+03  0.41800000000E+01 0. -1.
         -5    1    3    3    0  502 -0.54726571999E+01  0.37845688912E+02 -0.39114508493E+02  0.54860398474E+02  0.41800000000E+01 0. -1.
        -11    1    4    4    0    0  0.10219653714E+03 -0.56887946461E+02 -0.40420727908E+03  0.42078960909E+03  0.00000000000E+00 0. -1.
         11    1    4    4    0    0  0.34307554684E+01  0.35868972156E+02 -0.13147813617E+03  0.13632627603E+03  0.00000000000E+00 0.  1.
</event>
<event>
 8    1  0.4798744E-006  0.1115106E+03  0.7561462E-02  0.1257798E+00
         -2   -1    0    0    0  501 -0.00000000000E+00  0.00000000000E+00  0.87447118395E+02  0.87447118395E+02  0.00000000000E+00 0. -1.
          2   -1    0    0  501    0  0.00000000000E+00 -0.00000000000E+00 -0.18191524211E+03  0.18191524211E+03  0.00000000000E+00 0.  1.
         23    2    1    2    0    0 -0.30751968445E+02  0.54087568488E+02 -0.38727767129E+02  0.14497997901E+03  0.12509278851E+03 0.  0.
         23    2    1    2    0    0  0.30751968445E+02 -0.54087568488E+02 -0.55740356589E+02  0.12438238150E+03  0.92156610438E+02 0.  0.
          5    1    3    3  502    0  0.20684948615E+02  0.56356495810E+02 -0.63677396092E+02  0.87613953753E+02  0.41800000000E+01 0.  1.
         -5    1    3    3    0  502 -0.51436917060E+02 -0.22689273219E+01  0.24949628963E+02  0.57366025252E+02  0.41800000000E+01 0.  1.
        -11    1    4    4    0    0  0.63879792344E+02 -0.38391935888E+02 -0.36727398397E+02  0.83087125381E+02  0.00000000000E+00 0. -1.
         11    1    4    4    0    0 -0.33127823898E+02 -0.15695632600E+02 -0.19012958192E+02  0.41295256122E+02  0.00000000000E+00 0.  1.
</event>
<event>
 8    1  0.4798744E-006  0.1224211E+03  0.7561462E-02  0.1239156E+00
         -1   -1    0    0    0  501 -0.00000000000E+00  0.00000000000E+00  0.98274746066E+02  0.98274746066E+02  0.00000000000E+00 0.  1.
          1   -1    0    0  501    0  0.00000000000E+00 -0.00000000000E+00 -0.28453768705E+03  0.28453768705E+03  0.00000000000E+00 0. -1.
         23    2    1    2    0    0 -0.45677563306E+02 -0.11078078860E+03 -0.48653506888E+02  0.17992533393E+03  0.12508852523E+03 0.  0.
         23    2    1    2    0    0  0.45677563306E+02  0.11078078860E+03 -0.13760943410E+03  0.20288709919E+03  0.88701723494E+02 0.  0.
          5    1    3    3  502    0 -0.15441103185E+02 -0.30986532583E+02 -0.81302875284E+02  0.88465941461E+02  0.41800000000E+01 0.  1.
         -5    1    3    3    0  502 -0.30236460121E+02 -0.79794256019E+02  0.32649368397E+02  0.91459392470E+02  0.41800000000E+01 0.  1.
        -11    1    4    4    0    0  0.25138423077E+02  0.21982823608E+02 -0.97956790807E+02  0.10349259739E+03  0.00000000000E+00 0. -1.
         11    1    4    4    0    0  0.20539140229E+02  0.88797964994E+02 -0.39652643294E+02  0.99394501803E+02  0.00000000000E+00 0.  1.
</event>
<event>
 7    1  0.4798744E-006  0.1138334E+03  0.7561462E-02  0.1253631E+00
          1   -1    0    0  501    0  0.00000000000E+00  0.00000000000E+00  0.74265177103E+02  0.74265177103E+02  0.00000000000E+00 0. -1.
         -1   -1    0    0    0  501 -0.00000000000E+00 -0.00000000000E+00 -0.24610243245E+03  0.24610243245E+03  0.00000000000E+00 0.  1.
         23    2    1    2    0    0  0.20288976030E+02  0.26649565200E+02 -0.78515268479E+01  0.97010587587E+02  0.90705930106E+02 0.  0.
          5    1    1    2  502    0  0.40473876755E+02  0.42600690968E+02 -0.55080953117E+02  0.80649472204E+02  0.41800000000E+01 0. -1.
         -5    1    1    2    0  502 -0.60762852785E+02 -0.69250256168E+02 -0.10890477538E+03  0.14270754976E+03  0.41800000000E+01 0.  1.
        -11    1    3    3    0    0 -0.25658146881E+02  0.72896583224E+01  0.25598854041E+02  0.36970000650E+02  0.00000000000E+00 0. -1.
         11    1    3    3    0    0  0.45947122911E+02  0.19359906878E+02 -0.33450380889E+02  0.60040586937E+02  0.00000000000E+00 0.  1.
</event>
<event>
 8    1  0.4798744E-006  0.1624260E+03  0.7561462E-02  0.1185985E+00
          1   -1    0    0  501    0  0.00000000000E+00  0.00000000000E+00  0.48701105231E+03  0.48701105231E+03  0.00000000000E+00 0. -1.
         -1   -1    0    0    0  501 -0.00000000000E+00 -0.00000000000E+00 -0.93931870165E+02  0.93931870165E+02  0.00000000000E+00 0.  1.
         23    2    1    2    0    0  0.90830716198E+02 -0.10121629980E+03  0.35315919384E+02  0.18813961352E+03  0.12511731160E+03 0.  0.
         23    2    1    2    0    0 -0.90830716198E+02  0.10121629980E+03  0.35776326276E+03  0.39280330896E+03  0.88345509201E+02 0.  0.
          5    1    3    3  502    0  0.27714858109E+02 -0.98324084434E+02  0.61840482104E+02  0.11948831142E+03  0.41800000000E+01 0.  1.
         -5    1    3    3    0  502  0.63115858089E+02 -0.28922153641E+01 -0.26524562720E+02  0.68651302096E+02  0.41800000000E+01 0.  1.
        -11    1    4    4    0    0 -0.45087250071E+02 -0.32947120865E+01  0.13762897157E+03  0.14486355326E+03  0.00000000000E+00 0. -1.
         11    1    4    4    0    0 -0.45743466127E+02  0.10451101188E+03  0.22013429119E+03  0.24793975570E+03  0.00000000000E+00 0.  1.
</event>
<event>
 8    1  0.4798744E-006  0.1010228E+03  0.7561462E-02  0.1278160E+00
          2   -1    0    0  501    0  0.00000000000E+00  0.00000000000E+00  0.99703556153E+03  0.99703556153E+03  0.00000000000E+00 0.  1.
         -2   -1    0    0    0  501 -0.00000000000E+00 -0.00000000000E+00 -0.15783412162E+02  0.15783412162E+02  0.00000000000E+00 0. -1.
         23    2    1    2    0    0  0.53399113008E+02  0.15497456830E+02  0.47205460701E+03  0.49150289001E+03  0.12509157627E+03 0.  0.
         23    2    1    2    0    0 -0.53399113008E+02 -0.15497456830E+02  0.50919754236E+03  0.52131608369E+03  0.96936502520E+02 0.  0.
          5    1    3    3  502    0 -0.16799826192E+02 -0.41967367160E+01  0.46266764145E+01  0.18404491131E+02  0.41800000000E+01 0.  1.
         -5    1    3    3    0  502  0.70198939199E+02  0.19694193546E+02  0.46742793059E+03  0.47309839888E+03  0.41800000000E+01 0.  1.
        -11    1    4    4    0    0 -0.74701530649E+02 -0.34842621664E+02  0.39884908816E+03  0.40727745100E+03  0.00000000000E+00 0.  1.
         11    1    4    4    0    0  0.21302417641E+02  0.19345164834E+02  0.11034845420E+03  0.11403863268E+03  0.00000000000E+00 0. -1.
</event>
<event>
 8    1  0.4798744E-006  0.1555851E+03  0.7561462E-02  0.1193773E+00
          4   -1    0    0  501    0  0.00000000000E+00  0.00000000000E+00  0.48546548699E+03  0.48546548699E+03  0.00000000000E+00 0. -1.
         -4   -1    0    0    0  501 -0.00000000000E+00 -0.00000000000E+00 -0.66085372805E+02  0.66085372805E+02  0.00000000000E+00 0.  1.
         23    2    1    2    0    0  0.13696628477E+03  0.61162138975E+01  0.27500454604E+03  0.33177031953E+03  0.12508746277E+03 0.  0.
         23    2    1    2    0    0 -0.13696628477E+03 -0.61162138975E+01  0.14437556815E+03  0.21978054027E+03  0.93069919781E+02 0.  0.
          5    1    3    3  502    0  0.43528209967E+02  0.46364512059E+02  0.18570140079E+03  0.19633353177E+03  0.41800000000E+01 0. -1.
         -5    1    3    3    0  502  0.93438074800E+02 -0.40248298161E+02  0.89303145251E+02  0.13543678776E+03  0.41800000000E+01 0. -1.
        -11    1    4    4    0    0 -0.63552229469E+02 -0.27354688195E+02  0.12181952174E+03  0.14009696897E+03  0.00000000000E+00 0.  1.
         11    1    4    4    0    0 -0.73414055298E+02  0.21238474298E+02  0.22556046406E+02  0.79683571301E+02  0.00000000000E+00 0. -1.
</event>
<event>
 8    1  0.4798744E-006  0.7268045E+02  0.7561462E-02  0.1351208E+00
         -1   -1    0    0    0  501 -0.00000000000E+00  0.00000000000E+00  0.17801933570E+02  0.17801933570E+02  0.00000000000E+00 0.  1.
          1   -1    0    0  501    0  0.00000000000E+00 -0.00000000000E+00 -0.75714034473E+03  0.75714034473E+03  0.00000000000E+00 0. -1.
         23    2    1    2    0    0 -0.40580190400E+02  0.12863773071E+02 -0.43679568662E+03  0.45634508085E+03  0.12509249562E+03 0.  0.
         23    2    1    2    0    0  0.40580190400E+02 -0.12863773071E+02 -0.30254272455E+03  0.31859719745E+03  0.90331863355E+02 0.  0.
          5    1    3    3  502    0 -0.37701848894E+02  0.68764452940E+01 -0.28421309349E+02  0.47895283014E+02  0.41800000000E+01 0.  1.
         -5    1    3    3    0  502 -0.28783415056E+01  0.59873277767E+01 -0.40837437727E+03  0.40844979784E+03  0.41800000000E+01 0.  1.
        -11    1    4    4    0    0  0.69107778281E+02 -0.46009104305E+01 -0.19107314025E+03  0.20323877169E+03  0.00000000000E+00 0.  1.
         11    1    4    4    0    0 -0.28527587881E+02 -0.82628626402E+01 -0.11146958430E+03  0.11535842576E+03  0.00000000000E+00 0. -1.
</event>
<event>
 7    1  0.4798744E-006  0.8884846E+02  0.7561462E-02  0.1305665E+00
          3   -1    0    0  501    0  0.00000000000E+00  0.00000000000E+00  0.25362565333E+02  0.25362565333E+02  0.00000000000E+00 0. -1.
         -3   -1    0    0    0  501 -0.00000000000E+00 -0.00000000000E+00 -0.34842786473E+03  0.34842786473E+03  0.00000000000E+00 0.  1.
         23    2    1    2    0    0  0.21544350233E+02  0.28684266278E+02 -0.25404882491E+03  0.28544096450E+03  0.12509513428E+03 0.  0.
          5    1    3    3  502    0  0.73730278971E+02  0.10448505595E+02 -0.13976032979E+03  0.15841637381E+03  0.41800000000E+01 0. -1.
         -5    1    3    3    0  502 -0.52185928738E+02  0.18235760683E+02 -0.11428849511E+03  0.12702459070E+03  0.41800000000E+01 0. -1.
        -11    1    1    2    0    0 -0.13065825798E+02 -0.34831908206E+02 -0.29528773379E+02  0.47496590302E+02  0.00000000000E+00 0. -1.
         11    1    1    2    0    0 -0.84785244348E+01  0.61476419280E+01 -0.39487701106E+02  0.40852875254E+02  0.00000000000E+00 0.  1.
</event>
<event>
 8    1  0.4798744E-006  0.1125947E+03  0.7561462E-02  0.1255839E+00
          2   -1    0    0  501    0  0.00000000000E+00  0.00000000000E+00  0.82230676158E+02  0.82230676158E+02  0.00000000000E+00 0. -1.
         -2   -1    0    0    0  501 -0.00000000000E+00 -0.00000000000E+00 -0.23616019020E+03  0.23616019020E+03  0.00000000000E+00 0.  1.
         23    2    1    2    0    0 -0.49124513433E+02 -0.54127018342E+02 -0.13197099251E+03  0.19597936900E+03  0.12509443742E+03 0.  0.
         23    2    1    2    0    0  0.49124513433E+02  0.54127018342E+02 -0.21958521531E+02  0.12241149736E+03  0.95704995085E+02 0.  0.
          5    1    3    3  502    0 -0.89900903162E+02 -0.40912550775E+02 -0.10905228211E+03  0.14719334847E+03  0.41800000000E+01 0.  1.
         -5    1    3    3    0  502  0.40776389730E+02 -0.13214467567E+02 -0.22918710406E+02  0.48786020530E+02  0.41800000000E+01 0.  1.
        -11    1    4    4    0    0  0.15035201135E+02  0.45750322038E+02  0.32157494096E+02  0.57907285088E+02  0.00000000000E+00 0. -1.
         11    1    4    4    0    0  0.34089312297E+02  0.83766963045E+01 -0.54116015627E+02  0.64504212275E+02  0.00000000000E+00 0.  1.
</event>
<event>
 8    1  0.4798744E-006  0.1492684E+03  0.7561462E-02  0.1201375E+00
         -1   -1    0    0    0  501 -0.00000000000E+00  0.00000000000E+00  0.81807064629E+02  0.81807064629E+02  0.00000000000E+00 0.  1.
          1   -1    0    0  501    0  0.00000000000E+00 -0.00000000000E+00 -0.33619279829E+03  0.33619279829E+03  0.00000000000E+00 0. -1.
         23    2    1    2    0    0  0.89593335897E+02 -0.72639912889E+02 -0.76580851769E+02  0.18658950174E+03  0.12508993772E+03 0.  0.
         23    2    1    2    0    0 -0.89593335897E+02  0.72639912889E+02 -0.17780488190E+03  0.23141036118E+03  0.92912089932E+02 0.  0.
          5    1    3    3  502    0 -0.28026909529E+02  0.32308332480E+01 -0.37924915400E+01  0.28771536860E+02  0.41800000000E+01 0. -1.
         -5    1    3    3    0  502  0.11762024543E+03 -0.75870746137E+02 -0.72788360229E+02  0.15781796488E+03  0.41800000000E+01 0. -1.
        -11    1    4    4    0    0 -0.97963712841E+02  0.60166649216E+02 -0.10062387591E+03  0.15278114777E+03  0.00000000000E+00 0.  1.
         11    1    4    4    0    0  0.83703769440E+01  0.12473263673E+02 -0.77181005984E+02  0.78629213410E+02  0.00000000000E+00 0. -1.
</event>
<event>
 8    1  0.4798744E-006  0.1417639E+03  0.7561462E-02  0.1210975E+00
          4   -1    0    0  501    0  0.00000000000E+00  0.00000000000E+00  0.13311267510E+03  0.13311267510E+03  0.00000000000E+00 0. -1.
         -4   -1    0    0    0  501 -0.00000000000E+00 -0.00000000000E+00 -0.23054261771E+03  0.23054261771E+03  0.00000000000E+00 0.  1.
         23    2    1    2    0    0 -0.75629930106E+02 -0.80941644020E+02 -0.13666748752E+03  0.21586534864E+03  0.12509360708E+03 0.  0.
         23    2    1    2    0    0  0.75629930106E+02  0.80941644020E+02  0.39237544907E+02  0.14778994418E+03  0.89614990958E+02 0.  0.
          5    1    3    3  502    0 -0.94977283218E+02 -0.77097233389E+02 -0.59481110476E+02  0.13608873071E+03  0.41800000000E+01 0.  1.
         -5    1    3    3    0  502  0.19347353112E+02 -0.38444106306E+01 -0.77186377047E+02  0.79776617923E+02  0.41800000000E+01 0.  1.
        -11    1    4    4    0    0  0.12345795091E+02  0.76535949310E+02  0.10813578757E+02  0.78275817969E+02  0.00000000000E+00 0. -1.
         11    1    4    4    0    0  0.63284135016E+02  0.44056947105E+01  0.28423966150E+02  0.69514126206E+02  0.00000000000E+00 0.  1.
</event>
<event>
 8    1  0.4798744E-006  0.9496781E+02  0.7561462E-02  0.1291249E+00
          2   -1    0    0  501    0  0.00000000000E+00  0.00000000000E+00  0.47508073656E+03  0.47508073656E+03  0.00000000000E+00 0. -1.
         -2   -1    0    0    0  501 -0.00000000000E+00 -0.00000000000E+00 -0.32320166668E+02  0.32320166668E+02  0.00000000000E+00 0.  1.
         23    2    1    2    0    0 -0.26386023492E+02 -0.53502971818E+02  0.22908126631E+03  0.26773883154E+03  0.12508822932E+03 0.  0.
         23    2    1    2    0    0  0.26386023492E+02  0.53502971818E+02  0.21367930359E+03  0.23966207168E+03  0.90665724473E+02 0.  0.
          5    1    3    3  502    0  0.22437019032E+02 -0.56762452507E+02  0.41724664896E+02  0.74052791294E+02  0.41800000000E+01 0. -1.
         -5    1    3    3    0  502 -0.48823042524E+02  0.32594806899E+01  0.18735660141E+03  0.19368604025E+03  0.41800000000E+01 0. -1.
        -11    1    4    4    0    0  0.42528134072E+02  0.34886390149E+02  0.20692710065E+03  0.21411335173E+03  0.00000000000E+00 0. -1.
         11    1    4    4    0    0 -0.16142110580E+02  0.18616581669E+02  0.67522029388E+01  0.25548719959E+02  0.00000000000E+00 0.  1.
</event>
<event>
 8    1  0.4798744E-006  0.1214352E+03  0.7561462E-02  0.1240748E+00
         -1   -1    0    0    0  501 -0.00000000000E+00  0.00000000000E+00  0.20500577308E+03  0.20500577308E+03  0.00000000000E+00 0.  1.
          1   -1    0    0  501    0  0.00000000000E+00 -0.00000000000E+00 -0.92396559566E+02  0.92396559566E+02  0.00000000000E+00 0. -1.
         23    2    1    2    0    0 -0.34214299597E+02 -0.62699602731E+02  0.10459390016E+03  0.17801503421E+03  0.12509040720E+03 0.  0.
         23    2    1    2    0    0  0.34214299597E+02  0.62699602731E+02  0.80153133476E+01  0.11938729843E+03  0.95326928510E+02 0.  0.
          5    1    3    3  502    0  0.35913070521E+02 -0.26530044078E+01 -0.27644304252E+01  0.36357963945E+02  0.41800000000E+01 0.  1.
         -5    1    3    3    0  502 -0.70127370117E+02 -0.60046598324E+02  0.10735833059E+03  0.14165707027E+03  0.41800000000E+01 0.  1.
        -11    1    4    4    0    0  0.21397978114E+02  0.85450024680E+02 -0.84891234787E+01  0.88496584129E+02  0.00000000000E+00 0.  1.
         11    1    4    4    0    0  0.12816321482E+02 -0.22750421948E+02  0.16504436826E+02  0.30890714302E+02  0.00000000000E+00 0. -1.
</event>
<event>
 8    1  0.4798744E-006  0.1749674E+03  0.7561462E-02  0.1172764E+00
         -2   -1    0    0    0  501 -0.00000000000E+00  0.00000000000E+00  0.94790230699E+02  0.94790230699E+02  0.00000000000E+00 0. -1.
          2   -1    0    0  501    0  0.00000000000E+00 -0.00000000000E+00 -0.41574761103E+03  0.41574761103E+03  0.00000000000E+00 0.  1.
         23    2    1    2    0    0  0.15394026637E+03 -0.62705477375E+02 -0.17254777255E+03  0.27027910175E+03  0.12509387087E+03 0.  0.
         23    2    1    2    0    0 -0.15394026637E+03  0.62705477375E+02 -0.14840960778E+03  0.24025873998E+03  0.89829104158E+02 0.  0.
          5    1    3    3  502    0  0.86590027131E+02 -0.97299020946E+00 -0.15434617605E+03  0.17702822930E+03  0.41800000000E+01 0.  1.
         -5    1    3    3    0  502  0.67350239235E+02 -0.61732487165E+02 -0.18201596497E+02  0.93250872445E+02  0.41800000000E+01 0.  1.
        -11    1    4    4    0    0 -0.14631758176E+03  0.45933165240E+02 -0.15740104266E+03  0.21975845520E+03  0.00000000000E+00 0.  1.
         11    1    4    4    0    0 -0.76226846069E+01  0.16772312135E+02  0.89914348788E+01  0.20500284782E+02  0.00000000000E+00 0. -1.
</event>
<event>
 8    1  0.4798744E-006  0.1070478E+03  0.7561462E-02  0.1266137E+00
         -1   -1    0    0    0  501 -0.00000000000E+00  0.00000000000E+00  0.19921359428E+03  0.19921359428E+03  0.00000000000E+00 0.  1.
          1   -1    0    0  501    0  0.00000000000E+00 -0.00000000000E+00 -0.68631443096E+02  0.68631443096E+02  0.00000000000E+00 0. -1.
         23    2    1    2    0    0  0.34393576889E+02 -0.10149862402E+02  0.97750776845E+02  0.16275652979E+03  0.12509410769E+03 0.  0.
         23    2    1    2    0    0 -0.34393576889E+02  0.10149862402E+02  0.32831374341E+02  0.10508850759E+03  0.93165215869E+02 0.  0.
          5    1    3    3  502    0 -0.13224808757E+02 -0.51935671301E+02  0.10372604281E+02  0.54747354637E+02  0.41800000000E+01 0. -1.
         -5    1    3    3    0  502  0.47618385646E+02  0.41785808899E+02  0.87378172563E+02  0.10800917515E+03  0.41800000000E+01 0. -1.
        -11    1    4    4    0    0 -0.46480095393E+02 -0.29732250090E+02  0.59467657328E+01  0.55495675380E+02  0.00000000000E+00 0.  1.
         11    1    4    4    0    0  0.12086518504E+02  0.39882112493E+02  0.26884608608E+02  0.49592832208E+02  0.00000000000E+00 0. -1.
</event>
<event>
 8    1  0.4798744E-006  0.1552958E+03  0.7561462E-02  0.1194112E+00
         -1   -1    0    0    0  501 -0.00000000000E+00  0.00000000000E+00  0.46896070134E+02  0.46896070134E+02  0.00000000000E+00 0.  1.
          1   -1    0    0  501    0  0.00000000000E+00 -0.00000000000E+00 -0.60794341105E+03  0.60794341105E+03  0.00000000000E+00 0. -1.
         23    2    1    2    0    0  0.66880274794E+02 -0.11075702768E+03 -0.27474963118E+03  0.32844303617E+03  0.12508947935E+03 0.  0.
         23    2    1    2    0    0 -0.66880274794E+02  0.11075702768E+03 -0.28629770974E+03  0.32639644500E+03  0.88476948272E+02 0.  0.
          5    1    3    3  502    0  0.10325335558E+03 -0.84386243944E+02 -0.18624436745E+03  0.22909982630E+03  0.41800000000E+01 0.  1.
         -5    1    3    3    0  502 -0.36373080784E+02 -0.26370783731E+02 -0.88505263730E+02  0.99343209875E+02  0.41800000000E+01 0.  1.
        -11    1    4    4    0    0 -0.12368877467E+02  0.55342921694E+01  0.29028524603E+01  0.13857996681E+02  0.00000000000E+00 0.  1.
         11    1    4    4    0    0 -0.54511397327E+02  0.10522273551E+03 -0.28920056220E+03  0.31253844832E+03  0.00000000000E+00 0. -1.
</event>
<event>
 8    1  0.4798744E-006  0.9297423E+02  0.7561462E-02  0.1295805E+00
          2   -1    0    0  501    0  0.00000000000E+00  0.00000000000E+00  0.16325970810E+03  0.16325970810E+03  0.00000000000E+00 0. -1.
         -2   -1    0    0    0  501 -0.00000000000E+00 -0.00000000000E+00 -0.84292408294E+02  0.84292408294E+02  0.00000000000E+00 0.  1.
         23    2    1    2    0    0 -0.98081286022E+01  0.82781458853E+01 -0.24560685030E+00  0.12574618729E+03  0.12508923299E+03 0.  0.
         23    2    1    2    0    0  0.98081286022E+01 -0.82781458853E+01  0.79212906660E+02  0.12180592910E+03  0.91636634036E+02 0.  0.
          5    1    3    3  502    0 -0.22282591185E+02 -0.51877024819E+02  0.21328917815E+02  0.60499047175E+02  0.41800000000E+01 0. -1.
         -5    1    3    3    0  502  0.12474462583E+02  0.60155170704E+02 -0.21574524666E+02  0.65247140119E+02  0.41800000000E+01 0. -1.
        -11    1    4    4    0    0  0.19076896729E+02 -0.34786908833E+02  0.20900717773E+01  0.39729402399E+02  0.00000000000E+00 0.  1.
         11    1    4    4    0    0 -0.92687681271E+01  0.26508762948E+02  0.77122834882E+02  0.82076526705E+02  0.00000000000E+00 0. -1.
</event>
<event>
 8    1  0.4798744E-006  0.1192503E+03  0.7561462E-02  0.1244339E+00
         -1   -1    0    0    0  501 -0.00000000000E+00  0.00000000000E+00  0.14576302007E+03  0.14576302007E+03  0.00000000000E+00 0.  1.
          1   -1    0    0  501    0  0.00000000000E+00 -0.00000000000E+00 -0.16720625830E+03  0.16720625830E+03  0.00000000000E+00 0. -1.
         23    2    1    2    0    0 -0.72316487897E+01  0.67674176078E+02  0.77007670150E+02  0.16189354595E+03  0.12508896076E+03 0.  0.
         23    2    1    2    0    0  0.72316487897E+01 -0.67674176078E+02 -0.98450908385E+02  0.15107573242E+03  0.92191131425E+02 0.  0.
          5    1    3    3  502    0  0.31110317947E+02 -0.25985203717E+02  0.27424135075E+02  0.49118614390E+02  0.41800000000E+01 0. -1.
         -5    1    3    3    0  502 -0.38341966737E+02  0.93659379795E+02  0.49583535075E+02  0.11277493156E+03  0.41800000000E+01 0. -1.
        -11    1    4    4    0    0  0.64199753465E+00 -0.81311829603E+02 -0.39859539069E+02  0.90558316289E+02  0.00000000000E+00 0.  1.
         11    1    4    4    0    0  0.65896512551E+01  0.13637653525E+02 -0.58591369316E+02  0.60517416135E+02  0.00000000000E+00 0. -1.
</event>
<event>
 8    1  0.4798744E-006  0.7637023E+02  0.7561462E-02  0.1339680E+00
          4   -1    0    0  501    0  0.00000000000E+00  0.00000000000E+00  0.48109325023E+03  0.48109325023E+03  0.00000000000E+00 0. -1.
         -4   -1    0    0    0  501 -0.00000000000E+00 -0.00000000000E+00 -0.30416526728E+02  0.30416526728E+02  0.00000000000E+00 0.  1.
         23    2    1    2    0    0 -0.45916381887E+02 -0.77690252842E+01  0.19781236243E+03  0.23862814491E+03  0.12507993018E+03 0.  0.
         23    2    1    2    0    0  0.45916381887E+02  0.77690252842E+01  0.25286436107E+03  0.27288163204E+03  0.91407483981E+02 0.  0.
          5    1    3    3  502    0  0.36307503500E+01  0.11889347838E+02  0.18255528518E+03  0.18302580006E+03  0.41800000000E+01 0.  1.
         -5    1    3    3    0  502 -0.49547132237E+02 -0.19658373122E+02  0.15257077246E+02  0.55602344849E+02  0.41800000000E+01 0.  1.
        -11    1    4    4    0    0 -0.20850351381E+01 -0.26877365218E+02  0.22750397527E+02  0.35274930479E+02  0.00000000000E+00 0.  1.
         11    1    4    4    0    0  0.48001417025E+02  0.34646390502E+02  0.23011396354E+03  0.23760670156E+03  0.00000000000E+00 0. -1.
</event>
<event>
 8    1  0.4798744E-006  0.9997303E+02  0.7561462E-02  0.1280353E+00
          2   -1    0    0  501    0  0.00000000000E+00  0.00000000000E+00  0.42584470039E+03  0.42584470039E+03  0.00000000000E+00 0. -1.
         -2   -1    0    0    0  501 -0.00000000000E+00 -0.00000000000E+00 -0.27011528725E+02  0.27011528725E+02  0.00000000000E+00 0.  1.
         23    2    1    2    0    0 -0.42732303510E+01  0.24793577303E+02  0.20975284707E+03  0.24551041428E+03  0.12508447023E+03 0.  0.
         23    2    1    2    0    0  0.42732303510E+01 -0.24793577303E+02  0.18908032459E+03  0.20734581483E+03  0.81289210892E+02 0.  0.
          5    1    3    3  502    0 -0.34595422079E+02  0.62518714426E+02  0.82061292435E+02  0.10888967352E+03  0.41800000000E+01 0.  1.
         -5    1    3    3    0  502  0.30322191728E+02 -0.37725137123E+02  0.12769155464E+03  0.13662074077E+03  0.41800000000E+01 0.  1.
        -11    1    4    4    0    0 -0.20523777658E+02 -0.43917160158E+02  0.77133487931E+02  0.91101686955E+02  0.00000000000E+00 0.  1.
         11    1    4    4    0    0  0.24797008009E+02  0.19123582855E+02  0.11194683666E+03  0.11624412788E+03  0.00000000000E+00 0. -1.
</event>
<event>
 8    1  0.4798744E-006  0.1438552E+03  0.7561462E-02  0.1208234E+00
         -1   -1    0    0    0  501 -0.00000000000E+00  0.00000000000E+00  0.60748775543E+02  0.60748775543E+02  0.00000000000E+00 0.  1.
          1   -1    0    0  501    0  0.00000000000E+00 -0.00000000000E+00 -0.39112038968E+03  0.39112038968E+03  0.00000000000E+00 0. -1.
         23    2    1    2    0    0  0.10270268976E+03  0.14834815281E+02 -0.12691085938E+03  0.20620591090E+03  0.12508635910E+03 0.  0.
         23    2    1    2    0    0 -0.10270268976E+03 -0.14834815281E+02 -0.20346075475E+03  0.24566325432E+03  0.90477851267E+02 0.  0.
          5    1    3    3  502    0 -0.17054738472E+02  0.35202709222E+02 -0.44273836686E+02  0.59226175427E+02  0.41800000000E+01 0. -1.
         -5    1    3    3    0  502  0.11975742823E+03 -0.20367893941E+02 -0.82637022698E+02  0.14697973547E+03  0.41800000000E+01 0. -1.
        -11    1    4    4    0    0 -0.16772630468E+02 -0.34775366258E+02 -0.23377097232E+02  0.45134641975E+02  0.00000000000E+00 0.  1.
         11    1    4    4    0    0 -0.85930059290E+02  0.19940550976E+02 -0.18008365752E+03  0.20052861234E+03  0.00000000000E+00 0. -1.
</event>
<event>
 8    1  0.4798744E-006  0.1029903E+03  0.7561462E-02  0.1274131E+00
         -1   -1    0    0    0  501 -0.00000000000E+00  0.00000000000E+00  0.31654792362E+02  0.31654792362E+02  0.00000000000E+00 0.  1.
          1   -1    0    0  501    0  0.00000000000E+00 -0.00000000000E+00 -0.63002853370E+03  0.63002853370E+03  0.00000000000E+00 0. -1.
         23    2    1    2    0    0 -0.17011918473E+02 -0.12405278765E+02 -0.12198090525E+03  0.17598584578E+03  0.12509348648E+03 0.  0.
         23    2    1    2    0    0  0.17011918473E+02  0.12405278765E+02 -0.47639283609E+03  0.48569748028E+03  0.92242136571E+02 0.  0.
          5    1    3    3  502    0 -0.36267984003E+02 -0.54429635445E+02 -0.11000863163E+03  0.12805203361E+03  0.41800000000E+01 0.  1.
         -5    1    3    3    0  502  0.19256065530E+02  0.42024356680E+02 -0.11972273619E+02  0.47933812176E+02  0.41800000000E+01 0.  1.
        -11    1    4    4    0    0  0.10469361423E+02 -0.39932152969E+02 -0.18268437125E+03  0.18729058670E+03  0.00000000000E+00 0.  1.
         11    1    4    4    0    0  0.65425570503E+01  0.52337431734E+02 -0.29370846484E+03  0.29840689358E+03  0.00000000000E+00 0. -1.
</event>
<event>
 8    1  0.4798744E-006  0.1908564E+03  0.7561462E-02  0.1157691E+00
          2   -1    0    0  501    0  0.00000000000E+00  0.00000000000E+00  0.81895704568E+02  0.81895704568E+02  0.00000000000E+00 0. -1.
         -2   -1    0    0    0  501 -0.00000000000E+00 -0.00000000000E+00 -0.49278536616E+03  0.49278536616E+03  0.00000000000E+00 0.  1.
         23    2    1    2    0    0 -0.13216805181E+03  0.10457711988E+03 -0.22325778354E+03  0.30642677582E+03  0.12509421691E+03 0.  0.
         23    2    1    2    0    0  0.13216805181E+03 -0.10457711988E+03 -0.18763187805E+03  0.26825429491E+03  0.91377662239E+02 0.  0.
          5    1    3    3  502    0  0.23242569485E+02  0.22728756011E+02 -0.23116240113E+02  0.40107933667E+02  0.41800000000E+01 0. -1.
         -5    1    3    3    0  502 -0.15541062129E+03  0.81848363866E+02 -0.20014154343E+03  0.26631884215E+03  0.41800000000E+01 0. -1.
        -11    1    4    4    0    0  0.62441285418E+02 -0.74759065863E+02 -0.46272073981E+02  0.10783754858E+03  0.00000000000E+00 0.  1.
         11    1    4    4    0    0  0.69726766391E+02 -0.29818054014E+02 -0.14135980407E+03  0.16041674633E+03  0.00000000000E+00 0. -1.
</event>
<event>
 8    1  0.4798744E-006  0.9867273E+02  0.7561462E-02  0.1283112E+00
         -2   -1    0    0    0  501 -0.00000000000E+00  0.00000000000E+00  0.97150190079E+01  0.97150190079E+01  0.00000000000E+00 0.  1.
          2   -1    0    0  501    0  0.00000000000E+00 -0.00000000000E+00 -0.12415527311E+04  0.12415527311E+04  0.00000000000E+00 0. -1.
         23    2    1    2    0    0 -0.12470549588E+02 -0.30873309627E+01 -0.69028721712E+03  0.70164760725E+03  0.12509147220E+03 0.  0.
         23    2    1    2    0    0  0.12470549588E+02  0.30873309627E+01 -0.54155049500E+03  0.54962014289E+03  0.92953303406E+02 0.  0.
          5    1    3    3  502    0 -0.50186707539E+02 -0.28522046557E+02 -0.17463376073E+03  0.18397455134E+03  0.41800000000E+01 0. -1.
         -5    1    3    3    0  502  0.37716157950E+02  0.25434715594E+02 -0.51565345639E+03  0.51767305591E+03  0.41800000000E+01 0. -1.
        -11    1    4    4    0    0 -0.20673305945E+02 -0.36627106930E+02 -0.25186228444E+03  0.25534984015E+03  0.00000000000E+00 0.  1.
         11    1    4    4    0    0  0.33143855534E+02  0.39714437892E+02 -0.28968821056E+03  0.29427030274E+03  0.00000000000E+00 0. -1.
</event>
<event>
 8    1  0.4798744E-006  0.1482607E+03  0.7561462E-02  0.1202627E+00
         -1   -1    0    0    0  501 -0.00000000000E+00  0.00000000000E+00  0.46663273293E+02  0.46663273293E+02  0.00000000000E+00 0.  1.
          1   -1    0    0  501    0  0.00000000000E+00 -0.00000000000E+00 -0.56907158113E+03  0.56907158113E+03  0.00000000000E+00 0. -1.
         23    2    1    2    0    0  0.85720325911E+02 -0.67799850424E+02 -0.17874309264E+03  0.24400694874E+03  0.12508198862E+03 0.  0.
         23    2    1    2    0    0 -0.85720325911E+02  0.67799850424E+02 -0.34366521520E+03  0.37172790568E+03  0.90172400053E+02 0.  0.
          5    1    3    3  502    0  0.61303617452E+02  0.27119859172E+02 -0.60773955016E+02  0.90579060950E+02  0.41800000000E+01 0. -1.
         -5    1    3    3    0  502  0.24416708460E+02 -0.94919709596E+02 -0.11796913762E+03  0.15342788779E+03  0.41800000000E+01 0. -1.
        -11    1    4    4    0    0 -0.37217640699E+02  0.73535272733E+02 -0.14155252364E+03  0.16379775964E+03  0.00000000000E+00 0.  1.
         11    1    4    4    0    0 -0.48502685213E+02 -0.57354223091E+01 -0.20211269155E+03  0.20793014603E+03  0.00000000000E+00 0. -1.
</event>
<event>
 7    1  0.4798744E-006  0.1521537E+03  0.7561462E-02  0.1197851E+00
          1   -1    0    0  501    0  0.00000000000E+00  0.00000000000E+00  0.88531033449E+02  0.88531033449E+02  0.00000000000E+00 0. -1.
         -1   -1    0    0    0  501 -0.00000000000E+00 -0.00000000000E+00 -0.42710190722E+03  0.42710190722E+03  0.00000000000E+00 0.  1.
         23    2    1    2    0    0 -0.96767691297E+02 -0.18740899204E+02 -0.19664634203E+02  0.13600622623E+03  0.91628534597E+02 0.  0.
          5    1    1    2  502    0  0.11322365490E+02 -0.58245624099E+02 -0.25991557034E+02  0.64913651292E+02  0.41800000000E+01 0. -1.
         -5    1    1    2    0  502  0.85445325807E+02  0.76986523303E+02 -0.29291468254E+03  0.31471306315E+03  0.41800000000E+01 0.  1.
        -11    1    3    3    0    0 -0.73059225762E+02  0.27264816285E+02 -0.29407898554E+02  0.83341737283E+02  0.00000000000E+00 0.  1.
         11    1    3    3    0    0 -0.23708465535E+02 -0.46005715488E+02  0.97432643509E+01  0.52664488945E+02  0.00000000000E+00 0. -1.
</event>
<event>
 8    1  0.4798744E-006  0.1147224E+03  0.7561462E-02  0.1252066E+00
          1   -1    0    0  501    0  0.00000000000E+00  0.00000000000E+00  0.38349279033E+03  0.38349279033E+03  0.00000000000E+00 0. -1.
         -1   -1    0    0    0  501 -0.00000000000E+00 -0.00000000000E+00 -0.64073425949E+02  0.64073425949E+02  0.00000000000E+00 0.  1.
         23    2    1    2    0    0 -0.53815931763E+02  0.92251329356E+02  0.13701103188E+03  0.21406913387E+03  0.12508840451E+03 0.  0.
         23    2    1    2    0    0  0.53815931763E+02 -0.92251329356E+02  0.18240833250E+03  0.23349708240E+03  0.99204966836E+02 0.  0.
          5    1    3    3  502    0  0.10967858573E+02  0.24305393674E+02 -0.18251093053E+02  0.32582524165E+02  0.41800000000E+01 0. -1.
         -5    1    3    3    0  502 -0.64783790336E+02  0.67945935682E+02  0.15526212493E+03  0.18148660971E+03  0.41800000000E+01 0. -1.
        -11    1    4    4    0    0  0.22947932881E+02 -0.22197951330E+02  0.14466381576E+03  0.14814511891E+03  0.00000000000E+00 0.  1.
         11    1    4    4    0    0  0.30867998882E+02 -0.70053378026E+02  0.37744516741E+02  0.85351963491E+02  0.00000000000E+00 0. -1.
</event>
<event>
 8    1  0.4798744E-006  0.1279499E+03  0.7561462E-02  0.1230530E+00
          1   -1    0    0  501    0  0.00000000000E+00  0.00000000000E+00  0.43031101619E+03  0.43031101619E+03  0.00000000000E+00 0. -1.
         -1   -1    0    0    0  501 -0.00000000000E+00 -0.00000000000E+00 -0.58322838729E+02  0.58322838729E+02  0.00000000000E+00 0.  1.
         23    2    1    2    0    0  0.64279754867E+02  0.94703217593E+02  0.18225228360E+03  0.24893153906E+03  0.12510167846E+03 0.  0.
         23    2    1    2    0    0 -0.64279754867E+02 -0.94703217593E+02  0.18973589386E+03  0.23970231585E+03  0.91416106346E+02 0.  0.
          5    1    3    3  502    0  0.60761866347E+02  0.10029062703E+03  0.19867933291E+03  0.23074046892E+03  0.41800000000E+01 0. -1.
         -5    1    3    3    0  502  0.35178885195E+01 -0.55874094356E+01 -0.16427049310E+02  0.18191070141E+02  0.41800000000E+01 0. -1.
        -11    1    4    4    0    0 -0.28948149288E+02  0.75956617582E+00  0.99650365345E+02  0.10377267271E+03  0.00000000000E+00 0. -1.
         11    1    4    4    0    0 -0.35331605579E+02 -0.95462783769E+02  0.90085528512E+02  0.13592964314E+03  0.00000000000E+00 0.  1.
</event>
<event>
 8    1  0.4798744E-006  0.1961214E+03  0.7561462E-02  0.1153053E+00
         -1   -1    0    0    0  501 -0.00000000000E+00  0.00000000000E+00  0.32334584370E+03  0.32334584370E+03  0.00000000000E+00 0.  1.
          1   -1    0    0  501    0  0.00000000000E+00 -0.00000000000E+00 -0.13955200478E+03  0.13955200478E+03  0.00000000000E+00 0. -1.
         23    2    1    2    0    0 -0.15810026523E+03  0.81603141064E+02  0.13871152038E+03  0.25795854274E+03  0.12508779873E+03 0.  0.
         23    2    1    2    0    0  0.15810026523E+03 -0.81603141064E+02  0.45082318549E+02  0.20493930574E+03  0.91175309689E+02 0.  0.
          5    1    3    3  502    0 -0.11265687485E+03  0.28074947292E+01  0.31074310808E+02  0.11697238422E+03  0.41800000000E+01 0. -1.
         -5    1    3    3    0  502 -0.45443390375E+02  0.78795646335E+02  0.10763720957E+03  0.14098615852E+03  0.41800000000E+01 0. -1.
        -11    1    4    4    0    0  0.38323577249E+02  0.76035563620E+01  0.39396227107E+02  0.55484893014E+02  0.00000000000E+00 0.  1.
         11    1    4    4    0    0  0.11977668798E+03 -0.89206697426E+02  0.56860914416E+01  0.14945441273E+03  0.00000000000E+00 0. -1.
</event>
<event>
 8    1  0.4798744E-006  0.1684688E+03  0.7561462E-02  0.1179454E+00
         -2   -1    0    0    0  501 -0.00000000000E+00  0.00000000000E+00  0.29689686247E+02  0.29689686247E+02  0.00000000000E+00 0.  1.
          2   -1    0    0  501    0  0.00000000000E+00 -0.00000000000E+00 -0.11012480172E+04  0.11012480172E+04  0.00000000000E+00 0. -1.
         23    2    1    2    0    0 -0.12652624032E+03 -0.57804879154E+02 -0.44118754428E+03  0.47921554706E+03  0.12510314852E+03 0.  0.
         23    2    1    2    0    0  0.12652624032E+03  0.57804879154E+02 -0.63037078671E+03  0.65172215643E+03  0.89577602681E+02 0.  0.
          5    1    3    3  502    0 -0.33119225286E+02  0.39125180703E+02 -0.10103567995E+03  0.11337258871E+03  0.41800000000E+01 0.  1.
         -5    1    3    3    0  502 -0.93407015029E+02 -0.96930059857E+02 -0.34015186434E+03  0.36584295835E+03  0.41800000000E+01 0.  1.
        -11    1    4    4    0    0  0.12004891253E+03  0.32022307088E+02 -0.59290425446E+03  0.60578265452E+03  0.00000000000E+00 0. -1.
         11    1    4    4    0    0  0.64773277843E+01  0.25782572065E+02 -0.37466532245E+02  0.45939501913E+02  0.00000000000E+00 0.  1.
</event>
<event>
 8    1  0.4798744E-006  0.1032599E+03  0.7561462E-02  0.1273586E+00
         -2   -1    0    0    0  501 -0.00000000000E+00  0.00000000000E+00  0.11353978960E+03  0.11353978960E+03  0.00000000000E+00 0. -1.
          2   -1    0    0  501    0  0.00000000000E+00 -0.00000000000E+00 -0.10737989115E+03  0.10737989115E+03  0.00000000000E+00 0.  1.
         23    2    1    2    0    0 -0.76354647374E+01  0.21345916146E+01  0.23844641211E+02  0.12758970494E+03  0.12509080337E+03 0.  0.
         23    2    1    2    0    0  0.76354647374E+01 -0.21345916146E+01 -0.17684742761E+02  0.93329975806E+02  0.91295550025E+02 0.  0.
          5    1    3    3  502    0 -0.10398777205E+01  0.58157441415E+02  0.37586447562E+02  0.69379988310E+02  0.41800000000E+01 0.  1.
         -5    1    3    3    0  502 -0.65955870168E+01 -0.56022849800E+02 -0.13741806351E+02  0.58209716625E+02  0.41800000000E+01 0.  1.
        -11    1    4    4    0    0 -0.62190769180E+01 -0.45598178877E+02 -0.87277926107E+01  0.46840636187E+02  0.00000000000E+00 0. -1.
         11    1    4    4    0    0  0.13854541655E+02  0.43463587262E+02 -0.89569501506E+01  0.46489339619E+02  0.00000000000E+00 0.  1.
</event>
<event>
 8    1  0.4798744E-006  0.1122728E+03  0.7561462E-02  0.1256418E+00
          1   -1    0    0  501    0  0.00000000000E+00  0.00000000000E+00  0.40163320660E+03  0.40163320660E+03  0.00000000000E+00 0. -1.
         -1   -1    0    0    0  501 -0.00000000000E+00 -0.00000000000E+00 -0.62452369651E+02  0.62452369651E+02  0.00000000000E+00 0.  1.
         23    2    1    2    0    0  0.35072290233E+02 -0.10702191876E+02  0.21635566759E+02  0.13213635670E+03  0.12508923438E+03 0.  0.
         23    2    1    2    0    0 -0.35072290233E+02  0.10702191876E+02  0.31754527019E+03  0.33194921955E+03  0.89502420585E+02 0.  0.
          5    1    3    3  502    0 -0.10580406197E+02  0.51626389344E+02  0.11519003816E+02  0.54105350205E+02  0.41800000000E+01 0.  1.
         -5    1    3    3    0  502  0.45652696429E+02 -0.62328581219E+02  0.10116562943E+02  0.78031006490E+02  0.41800000000E+01 0.  1.
        -11    1    4    4    0    0  0.26199469807E+02 -0.12193970021E+02  0.13446132300E+03  0.13753164184E+03  0.00000000000E+00 0.  1.
         11    1    4    4    0    0 -0.61271760040E+02  0.22896161897E+02  0.18308394719E+03  0.19441757772E+03  0.00000000000E+00 0. -1.
</event>
<event>
 8    1  0.4798744E-006  0.1102533E+03  0.7561462E-02  0.1260101E+00
         -1   -1    0    0    0  501 -0.00000000000E+00  0.00000000000E+00  0.57047303579E+02  0.57047303579E+02  0.00000000000E+00 0.  1.
          1   -1    0    0  501    0  0.00000000000E+00 -0.00000000000E+00 -0.26666723485E+03  0.26666723485E+03  0.00000000000E+00 0. -1.
         23    2    1    2    0    0  0.17290483392E+02  0.51690275650E+02 -0.83589704610E+02  0.16001482386E+03  0.12508660889E+03 0.  0.
         23    2    1    2    0    0 -0.17290483392E+02 -0.51690275650E+02 -0.12603022666E+03  0.16369971457E+03  0.89124256553E+02 0.  0.
          5    1    3    3  502    0  0.11265979174E+02 -0.38508534043E+02 -0.59473763298E+01  0.40775889520E+02  0.41800000000E+01 0.  1.
         -5    1    3    3    0  502  0.60245042176E+01  0.90198809694E+02 -0.77642328280E+02  0.11923893434E+03  0.41800000000E+01 0.  1.
        -11    1    4    4    0    0 -0.45196011218E+02 -0.28952370486E+02 -0.30777248118E+02  0.61872111557E+02  0.00000000000E+00 0.  1.
         11    1    4    4    0    0  0.27905527826E+02 -0.22737905164E+02 -0.95252978544E+02  0.10182760302E+03  0.00000000000E+00 0. -1.
</event>
<event>
 8    1  0.4798744E-006  0.1198809E+03  0.7561462E-02  0.1243294E+00
         -1   -1    0    0    0  501 -0.00000000000E+00  0.00000000000E+00  0.25086947035E+02  0.25086947035E+02  0.00000000000E+00 0.  1.
          1   -1    0    0  501    0  0.00000000000E+00 -0.00000000000E+00 -0.81629783288E+03  0.81629783288E+03  0.00000000000E+00 0. -1.
         23    2    1    2    0    0 -0.46986588404E+02 -0.27198290126E+02 -0.20560178026E+03  0.24589977593E+03  0.12347923422E+03 0.  0.
         23    2    1    2    0    0  0.46986588404E+02  0.27198290126E+02 -0.58560910559E+03  0.59548500398E+03  0.93364227339E+02 0.  0.
          5    1    3    3  502    0 -0.19448145381E+02 -0.74374060629E+02 -0.14524016144E+03  0.16438341811E+03  0.41800000000E+01 0. -1.
         -5    1    3    3    0  502 -0.27538443023E+02  0.47175770503E+02 -0.60361618811E+02  0.81516357819E+02  0.41800000000E+01 0.  1.
        -11    1    4    4    0    0  0.11856072473E+02  0.59255517535E+02 -0.32308759905E+03  0.32869040064E+03  0.00000000000E+00 0.  1.
         11    1    4    4    0    0  0.35130515930E+02 -0.32057227409E+02 -0.26252150654E+03  0.26679460334E+03  0.00000000000E+00 0. -1.
</event>
<event>
 8    1  0.4798744E-006  0.1183993E+03  0.7561462E-02  0.1245761E+00
          2   -1    0    0  501    0  0.00000000000E+00  0.00000000000E+00  0.42101150836E+03  0.42101150836E+03  0.00000000000E+00 0. -1.
         -2   -1    0    0    0  501 -0.00000000000E+00 -0.00000000000E+00 -0.58421461138E+02  0.58421461138E+02  0.00000000000E+00 0.  1.
         23    2    1    2    0    0  0.53580243514E+02 -0.25676074231E+02  0.46919300851E+02  0.14621648621E+03  0.12509091399E+03 0.  0.
         23    2    1    2    0    0 -0.53580243514E+02  0.25676074231E+02  0.31567074637E+03  0.33321648329E+03  0.88629009576E+02 0.  0.
          5    1    3    3  502    0  0.62886261310E+02  0.38010005037E+02  0.30442898328E+02  0.79647252326E+02  0.41800000000E+01 0. -1.
         -5    1    3    3    0  502 -0.93060177955E+01 -0.63686079268E+02  0.16476402523E+02  0.66569233883E+02  0.41800000000E+01 0. -1.
        -11    1    4    4    0    0 -0.29389559940E+00  0.42746128590E+02  0.76953384351E+02  0.88029206785E+02  0.00000000000E+00 0.  1.
         11    1    4    4    0    0 -0.53286347915E+02 -0.17070054360E+02  0.23871736202E+03  0.24518727651E+03  0.00000000000E+00 0. -1.
</event>
<event>
 8    1  0.4798744E-006  0.1623517E+03  0.7561462E-02  0.1186067E+00
         -2   -1    0    0    0  501 -0.00000000000E+00  0.00000000000E+00  0.86932451564E+02  0.86932451564E+02  0.00000000000E+00 0.  1.
          2   -1    0    0  501    0  0.00000000000E+00 -0.00000000000E+00 -0.35537935713E+03  0.35537935713E+03  0.00000000000E+00 0. -1.
         23    2    1    2    0    0  0.52961836125E+02  0.12678794732E+03 -0.15829073981E+03  0.24409818852E+03  0.12509127730E+03 0.  0.
         23    2    1    2    0    0 -0.52961836125E+02 -0.12678794732E+03 -0.11015616575E+03  0.19821362017E+03  0.90962182794E+02 0.  0.
          5    1    3    3  502    0  0.65415430786E+02  0.22735901934E+02 -0.23371767078E+02  0.73210734992E+02  0.41800000000E+01 0.  1.
         -5    1    3    3    0  502 -0.12453594662E+02  0.10405204538E+03 -0.13491897274E+03  0.17088745353E+03  0.41800000000E+01 0.  1.
        -11    1    4    4    0    0 -0.38783629997E+02 -0.21772301464E+02 -0.73829423389E+02  0.86191570497E+02  0.00000000000E+00 0. -1.
         11    1    4    4    0    0 -0.14178206128E+02 -0.10501564585E+03 -0.36326742359E+02  0.11202204967E+03  0.00000000000E+00 0.  1.
</event>
<event>
 8    1  0.4798744E-006  0.1252699E+03  0.7561462E-02  0.1234648E+00
         -1   -1    0    0    0  501 -0.00000000000E+00  0.00000000000E+00  0.38599207988E+03  0.38599207988E+03  0.00000000000E+00 0.  1.
          1   -1    0    0  501    0  0.00000000000E+00 -0.00000000000E+00 -0.64601510175E+02  0.64601510175E+02  0.00000000000E+00 0. -1.
         23    2    1    2    0    0  0.93451752534E+02 -0.65561565196E+02  0.17939905304E+03  0.24670487268E+03  0.12509086733E+03 0.  0.
         23    2    1    2    0    0 -0.93451752534E+02  0.65561565196E+02  0.14199151667E+03  0.20388871738E+03  0.91528516798E+02 0.  0.
          5    1    3    3  502    0  0.64722290472E+02 -0.24572843416E+00  0.15999429037E+03  0.17264032153E+03  0.41800000000E+01 0.  1.
         -5    1    3    3    0  502  0.28729462062E+02 -0.65315836762E+02  0.19404762666E+02  0.74064551145E+02  0.41800000000E+01 0.  1.
        -11    1    4    4    0    0 -0.13079452373E+02  0.10624796046E+02  0.93723150856E+02  0.95225980550E+02  0.00000000000E+00 0.  1.
         11    1    4    4    0    0 -0.80372300161E+02  0.54936769149E+02  0.48268365816E+02  0.10866273683E+03  0.00000000000E+00 0. -1.
</event>
<event>
 8    1  0.4798744E-006  0.1179869E+03  0.7561462E-02  0.1246455E+00
          1   -1    0    0  501    0  0.00000000000E+00  0.00000000000E+00  0.40072759811E+02  0.40072759811E+02  0.00000000000E+00 0. -1.
         -1   -1    0    0    0  501 -0.00000000000E+00 -0.00000000000E+00 -0.61868307485E+03  0.61868307485E+03  0.00000000000E+00 0.  1.
         23    2    1    2    0    0  0.84657492114E+02  0.54545016948E+02 -0.42119925284E+03  0.45077287650E+03  0.12508127659E+03 0.  0.
         23    2    1    2    0    0 -0.84657492114E+02 -0.54545016948E+02 -0.15741106221E+03  0.20798295816E+03  0.91305084941E+02 0.  0.
          5    1    3    3  502    0  0.12320762937E+02  0.58628842130E+02 -0.70353257515E+02  0.92499705793E+02  0.41800000000E+01 0.  1.
         -5    1    3    3    0  502  0.72336729176E+02 -0.40838251820E+01 -0.35084599532E+03  0.35827317071E+03  0.41800000000E+01 0.  1.
        -11    1    4    4    0    0 -0.68428425626E+02 -0.31931783736E+02 -0.36428612012E+02  0.83839919008E+02  0.00000000000E+00 0. -1.
         11    1    4    4    0    0 -0.16229066488E+02 -0.22613233213E+02 -0.12098245019E+03  0.12414303915E+03  0.00000000000E+00 0.  1.
</event>
<event>
 8    1  0.4798744E-006  0.1089742E+03  0.7561462E-02  0.1262481E+00
          1   -1    0    0  501    0  0.00000000000E+00  0.00000000000E+00  0.23339250003E+03  0.23339250003E+03  0.00000000000E+00 0. -1.
         -1   -1    0    0    0  501 -0.00000000000E+00 -0.00000000000E+00 -0.30023081010E+03  0.30023081010E+03  0.00000000000E+00 0.  1.
         23    2    1    2    0    0 -0.27317362269E+02  0.83761186994E+02 -0.26092787209E+03  0.30247869883E+03  0.12509130299E+03 0.  0.
         23    2    1    2    0    0  0.27317362269E+02 -0.83761186994E+02  0.19408956201E+03  0.23114461130E+03  0.89414196440E+02 0.  0.
          5    1    3    3  502    0  0.14919431321E+02 -0.11724351957E+02 -0.14544822974E+03  0.14674028006E+03  0.41800000000E+01 0.  1.
         -5    1    3    3    0  502 -0.42236793589E+02  0.95485538952E+02 -0.11547964235E+03  0.15573841877E+03  0.41800000000E+01 0.  1.
        -11    1    4    4    0    0  0.25550225517E+01 -0.58832019374E+02  0.18598452824E+03  0.19508454421E+03  0.00000000000E+00 0. -1.
         11    1    4    4    0    0  0.24762339717E+02 -0.24929167620E+02  0.81050337698E+01  0.36060067095E+02  0.00000000000E+00 0.  1.
</event>
<event>
 8    1  0.4798744E-006  0.6974085E+02  0.7561462E-02  0.1360977E+00
          1   -1    0    0  501    0  0.00000000000E+00  0.00000000000E+00  0.38880169881E+03  0.38880169881E+03  0.00000000000E+00 0. -1.
         -1   -1    0    0    0  501 -0.00000000000E+00 -0.00000000000E+00 -0.33111286442E+02  0.33111286442E+02  0.00000000000E+00 0.  1.
         23    2    1    2    0    0 -0.29442562148E+02  0.17100643660E+02  0.19882308818E+03  0.23735516055E+03  0.12509018893E+03 0.  0.
         23    2    1    2    0    0  0.29442562148E+02 -0.17100643660E+02  0.15686732419E+03  0.18455782470E+03  0.91076543534E+02 0.  0.
          5    1    3    3  502    0 -0.19652878885E+02  0.45384525289E+02  0.20101807263E+03  0.20705489298E+03  0.41800000000E+01 0. -1.
         -5    1    3    3    0  502 -0.97896832632E+01 -0.28283881629E+02 -0.21949844405E+01  0.30300267575E+02  0.41800000000E+01 0. -1.
        -11    1    4    4    0    0  0.71516750600E+01  0.17252630893E+02 -0.35372969755E+01  0.19008213982E+02  0.00000000000E+00 0.  1.
         11    1    4    4    0    0  0.22290887088E+02 -0.34353274552E+02  0.16040462116E+03  0.16554961072E+03  0.00000000000E+00 0. -1.
</event>
<event>
 8    1  0.4798744E-006  0.2935628E+03  0.7561462E-02  0.1088503E+00
         -1   -1    0    0    0  501 -0.00000000000E+00  0.00000000000E+00  0.18020358303E+03  0.18020358303E+03  0.00000000000E+00 0.  1.
          1   -1    0    0  501    0  0.00000000000E+00 -0.00000000000E+00 -0.53284175205E+03  0.53284175205E+03  0.00000000000E+00 0. -1.
         23    2    1    2    0    0 -0.16544476166E+03 -0.23812657708E+03 -0.18853099706E+03  0.36778938149E+03  0.12509538927E+03 0.  0.
         23    2    1    2    0    0  0.16544476166E+03  0.23812657708E+03 -0.16410717196E+03  0.34525595359E+03  0.90522227804E+02 0.  0.
          5    1    3    3  502    0 -0.14725703367E+03 -0.18947596281E+03 -0.20230138351E+03  0.31389344788E+03  0.41800000000E+01 0. -1.
         -5    1    3    3    0  502 -0.18187727991E+02 -0.48650614264E+02  0.13770386449E+02  0.53895933620E+02  0.41800000000E+01 0. -1.
        -11    1    4    4    0    0  0.11628695591E+03  0.20515530029E+03 -0.16185553394E+03  0.28602196982E+03  0.00000000000E+00 0. -1.
         11    1    4    4    0    0  0.49157805750E+02  0.32971276794E+02 -0.22516380170E+01  0.59233983771E+02  0.00000000000E+00 0.  1.
</event>
<event>
 6    1  0.4798744E-006  0.5383793E+02  0.7561462E-02  0.1425676E+00
          2   -1    0    0  501    0  0.00000000000E+00  0.00000000000E+00  0.30760489567E+03  0.30760489567E+03  0.00000000000E+00 0.  1.
         -2   -1    0    0    0  501 -0.00000000000E+00 -0.00000000000E+00 -0.40876048485E+02  0.40876048485E+02  0.00000000000E+00 0. -1.
          5    1    1    2  502    0  0.29333743163E+02  0.60022466030E+00 -0.28652824866E+02  0.41222391129E+02  0.41800000000E+01 0. -1.
         -5    1    1    2    0  502  0.14464936707E+01 -0.31935920943E+02  0.18336207959E+03  0.18617497153E+03  0.41800000000E+01 0.  1.
        -11    1    1    2    0    0 -0.12188194592E+02  0.41730688838E+01  0.36324523867E+02  0.38541375500E+02  0.00000000000E+00 0. -1.
         11    1    1    2    0    0 -0.18592042241E+02  0.27162627399E+02  0.75695068591E+02  0.82542205998E+02  0.00000000000E+00 0.  1.
</event>
<event>
 8    1  0.4798744E-006  0.1277821E+03  0.7561462E-02  0.1230784E+00
         -4   -1    0    0    0  501 -0.00000000000E+00  0.00000000000E+00  0.98934707897E+03  0.98934707897E+03  0.00000000000E+00 0.  1.
          4   -1    0    0  501    0  0.00000000000E+00 -0.00000000000E+00 -0.24073568468E+02  0.24073568468E+02  0.00000000000E+00 0. -1.
         23    2    1    2    0    0  0.10993001712E+03  0.17680291781E+02  0.53106813646E+03  0.55684518013E+03  0.12508392259E+03 0.  0.
         23    2    1    2    0    0 -0.10993001712E+03 -0.17680291781E+02  0.43420537404E+03  0.45657546731E+03  0.86773550795E+02 0.  0.
          5    1    3    3  502    0  0.46574613520E+02 -0.10026567081E+02  0.44356045409E+02  0.65227738243E+02  0.41800000000E+01 0. -1.
         -5    1    3    3    0  502  0.63355403600E+02  0.27706858862E+02  0.48671209105E+03  0.49161744189E+03  0.41800000000E+01 0. -1.
        -11    1    4    4    0    0 -0.11002109126E+03  0.10283387117E+02  0.30557924771E+03  0.32494471100E+03  0.00000000000E+00 0.  1.
         11    1    4    4    0    0  0.91074139235E-01 -0.27963678898E+02  0.12862612633E+03  0.13163075631E+03  0.00000000000E+00 0. -1.
</event>
<event>
 8    1  0.4798744E-006  0.1025728E+03  0.7561462E-02  0.1274977E+00
         -2   -1    0    0    0  501 -0.00000000000E+00  0.00000000000E+00  0.28029613007E+02  0.28029613007E+02  0.00000000000E+00 0.  1.
          2   -1    0    0  501    0  0.00000000000E+00 -0.00000000000E+00 -0.60989279737E+03  0.60989279737E+03  0.00000000000E+00 0. -1.
         23    2    1    2    0    0 -0.15554134214E+01  0.57048108902E+01 -0.15579358612E+03  0.19988475572E+03  0.12508920782E+03 0.  0.
         23    2    1    2    0    0  0.15554134214E+01 -0.57048108902E+01 -0.42606959824E+03  0.43803765466E+03  0.10152201818E+03 0.  0.
          5    1    3    3  502    0  0.21766625858E+01  0.55981094985E+02 -0.13304081508E+03  0.14441589847E+03  0.41800000000E+01 0. -1.
         -5    1    3    3    0  502 -0.37320760072E+01 -0.50276284095E+02 -0.22752771044E+02  0.55468857244E+02  0.41800000000E+01 0. -1.
        -11    1    4    4    0    0 -0.37018046920E+02  0.28583232694E+02 -0.25862846017E+03  0.26282316754E+03  0.00000000000E+00 0. -1.
         11    1    4    4    0    0  0.38573460341E+02 -0.34288043584E+02 -0.16744113807E+03  0.17521448711E+03  0.00000000000E+00 0.  1.
</event>
<event>
 8    1  0.4798744E-006  0.2118505E+03  0.7561462E-02  0.1140109E+00
         -2   -1    0    0    0  501 -0.00000000000E+00  0.00000000000E+00  0.11378051019E+03  0.11378051019E+03  0.00000000000E+00 0.  1.
          2   -1    0    0  501    0  0.00000000000E+00 -0.00000000000E+00 -0.48161504734E+03  0.48161504734E+03  0.00000000000E+00 0. -1.
         23    2    1    2    0    0  0.17410224614E+03 -0.11069868419E+03 -0.22098860779E+03  0.32718385557E+03  0.12509004671E+03 0.  0.
         23    2    1    2    0    0 -0.17410224614E+03  0.11069868419E+03 -0.14684592936E+03  0.26821170196E+03  0.88362884215E+02 0.  0.
          5    1    3    3  502    0  0.10640973357E+03 -0.35767673672E+02 -0.19130250139E+03  0.22184786976E+03  0.41800000000E+01 0. -1.
         -5    1    3    3    0  502  0.67692512563E+02 -0.74931010521E+02 -0.29686106397E+02  0.10533598582E+03  0.41800000000E+01 0. -1.
        -11    1    4    4    0    0 -0.18731985978E+02 -0.12844254204E+01  0.94410154896E+01  0.21015942064E+02  0.00000000000E+00 0.  1.
         11    1    4    4    0    0 -0.15537026016E+03  0.11198310961E+03 -0.15628694485E+03  0.24719575989E+03  0.00000000000E+00 0. -1.
</event>
<event>
 7    1  0.4798744E-006  0.1546099E+03  0.7561462E-02  0.1194920E+00
         -2   -1    0    0    0  501 -0.00000000000E+00  0.00000000000E+00  0.53257702501E+02  0.53257702501E+02  0.00000000000E+00 0.  1.
          2   -1    0    0  501    0  0.00000000000E+00 -0.00000000000E+00 -0.49100736816E+03  0.49100736816E+03  0.00000000000E+00 0. -1.
         23    2    1    2    0    0 -0.74775949435E+02 -0.33659497859E+02 -0.25040153986E+03  0.27762535143E+03  0.87467137725E+02 0.  0.
          5    1    1    2  502    0  0.83748176052E+02 -0.54905168713E+02 -0.90674980446E+02  0.13515827397E+03  0.41800000000E+01 0. -1.
         -5    1    1    2    0  502 -0.89722266164E+01  0.88564666572E+02 -0.96673145347E+02  0.13148144526E+03  0.41800000000E+01 0.  1.
        -11    1    3    3    0    0 -0.85429030215E+02 -0.90734386391E+00 -0.17612297217E+03  0.19575046309E+03  0.00000000000E+00 0.  1.
         11    1    3    3    0    0  0.10653080780E+02 -0.32752153995E+02 -0.74278567697E+02  0.81874888339E+02  0.00000000000E+00 0. -1.
</event>
<event>
 8    1  0.4798744E-006  0.8805172E+02  0.7561462E-02  0.1307640E+00
          4   -1    0    0  501    0  0.00000000000E+00  0.00000000000E+00  0.28087865436E+02  0.28087865436E+02  0.00000000000E+00 0. -1.
         -4   -1    0    0    0  501 -0.00000000000E+00 -0.00000000000E+00 -0.46749409865E+03  0.46749409865E+03  0.00000000000E+00 0.  1.
         23    2    1    2    0    0 -0.15040125927E+02 -0.30140921816E+02 -0.25874571522E+03  0.28936424083E+03  0.12509051991E+03 0.  0.
         23    2    1    2    0    0  0.15040125927E+02  0.30140921816E+02 -0.18066051799E+03  0.20621772325E+03  0.93556646304E+02 0.  0.
          5    1    3    3  502    0 -0.26746586830E+02  0.25660855805E+02 -0.17073988850E+02  0.41022590398E+02  0.41800000000E+01 0.  1.
         -5    1    3    3    0  502  0.11706460903E+02 -0.55801777620E+02 -0.24167172637E+03  0.24834165043E+03  0.41800000000E+01 0.  1.
        -11    1    4    4    0    0  0.15914258871E+02 -0.23283077581E+02 -0.12846160116E+03  0.13152090445E+03  0.00000000000E+00 0.  1.
         11    1    4    4    0    0 -0.87413294364E+00  0.53423999397E+02 -0.52198916831E+02  0.74696818796E+02  0.00000000000E+00 0. -1.
</event>
<event>
 8    1  0.4798744E-006  0.2560632E+03  0.7561462E-02  0.1109532E+00
          1   -1    0    0  501    0  0.00000000000E+00  0.00000000000E+00  0.16198881103E+04  0.16198881103E+04  0.00000000000E+00 0. -1.
         -1   -1    0    0    0  501 -0.00000000000E+00 -0.00000000000E+00 -0.43967470302E+02  0.43967470302E+02  0.00000000000E+00 0.  1.
         23    2    1    2    0    0  0.23374644620E+03  0.64283735671E+02  0.73113507518E+03  0.78036842563E+03  0.12508629730E+03 0.  0.
         23    2    1    2    0    0 -0.23374644620E+03 -0.64283735671E+02  0.84478556479E+03  0.88348715495E+03  0.90094964869E+02 0.  0.
          5    1    3    3  502    0  0.44013214731E+02 -0.24612583532E+02  0.67048622891E+02  0.83999598634E+02  0.41800000000E+01 0. -1.
         -5    1    3    3    0  502  0.18973323147E+03  0.88896319203E+02  0.66408645229E+03  0.69636882699E+03  0.41800000000E+01 0. -1.
        -11    1    4    4    0    0 -0.46239861591E+02 -0.43181718200E+02  0.13567710275E+03  0.14970324578E+03  0.00000000000E+00 0.  1.
         11    1    4    4    0    0 -0.18750658461E+03 -0.21102017470E+02  0.70910846205E+03  0.73378390917E+03  0.00000000000E+00 0. -1.
</event>
<event>
 8    1  0.4798744E-006  0.2104914E+03  0.7561462E-02  0.1141177E+00
         -2   -1    0    0    0  501 -0.00000000000E+00  0.00000000000E+00  0.27283470128E+03  0.27283470128E+03  0.00000000000E+00 0.  1.
          2   -1    0    0  501    0  0.00000000000E+00 -0.00000000000E+00 -0.18391264719E+03  0.18391264719E+03  0.00000000000E+00 0. -1.
         23    2    1    2    0    0  0.14368381244E+03  0.11141159697E+03  0.11974608801E+03  0.25108660385E+03  0.12509106739E+03 0.  0.
         23    2    1    2    0    0 -0.14368381244E+03 -0.11141159697E+03 -0.30824033915E+02  0.20566074462E+03  0.91041962369E+02 0.  0.
          5    1    3    3  502    0  0.14584661750E+03  0.13230457695E+03  0.96002195833E+02  0.21911100137E+03  0.41800000000E+01 0. -1.
         -5    1    3    3    0  502 -0.21628050562E+01 -0.20892979979E+02  0.23743892176E+02  0.31975602477E+02  0.41800000000E+01 0. -1.
        -11    1    4    4    0    0 -0.68123703769E+02 -0.16316939058E+00 -0.21641479982E+01  0.68158265647E+02  0.00000000000E+00 0. -1.
         11    1    4    4    0    0 -0.75560108672E+02 -0.11124842758E+03 -0.28659885917E+02  0.13750247897E+03  0.00000000000E+00 0.  1.
</event>
<event>
 8    1  0.4798744E-006  0.9721421E+02  0.7561462E-02  0.1286266E+00
          2   -1    0    0  501    0  0.00000000000E+00  0.00000000000E+00  0.54846871406E+02  0.54846871406E+02  0.00000000000E+00 0. -1.
         -2   -1    0    0    0  501 -0.00000000000E+00 -0.00000000000E+00 -0.24374154823E+03  0.24374154823E+03  0.00000000000E+00 0.  1.
         23    2    1    2    0    0  0.24895698330E+01 -0.20281507780E+02 -0.15177083324E+03  0.19773484143E+03  0.12508854535E+03 0.  0.
         23    2    1    2    0    0 -0.24895698330E+01  0.20281507780E+02 -0.37123843584E+02  0.10085357820E+03  0.91518997800E+02 0.  0.
          5    1    3    3  502    0 -0.18916235955E+02 -0.55749093621E+02 -0.14366611440E+03  0.15531648415E+03  0.41800000000E+01 0.  1.
         -5    1    3    3    0  502  0.21405805788E+02  0.35467585841E+02 -0.81047188400E+01  0.42418357280E+02  0.41800000000E+01 0.  1.
        -11    1    4    4    0    0  0.24722883936E+01  0.56832455728E+02 -0.22532186319E+02  0.61186106710E+02  0.00000000000E+00 0. -1.
         11    1    4    4    0    0 -0.49618582266E+01 -0.36550947949E+02 -0.14591657265E+02  0.39667471494E+02  0.00000000000E+00 0.  1.
</event>
<event>
 7    1  0.4798744E-006  0.2686492E+03  0.7561462E-02  0.1102055E+00
         -1   -1    0    0    0  501 -0.00000000000E+00  0.00000000000E+00  0.13580173559E+03  0.13580173559E+03  0.00000000000E+00 0.  1.
          1   -1    0    0  501    0  0.00000000000E+00 -0.00000000000E+00 -0.62247951281E+03  0.62247951281E+03  0.00000000000E+00 0. -1.
         23    2    1    2    0    0  0.11485448611E+03 -0.52765064624E+02 -0.24211828711E+03  0.28797653950E+03  0.91288100685E+02 0.  0.
          5    1    1    2  502    0  0.12637689813E+03 -0.30673409311E+02 -0.22689997776E+02  0.13207682166E+03  0.41800000000E+01 0. -1.
         -5    1    1    2    0  502 -0.24123138425E+03  0.83438473934E+02 -0.22186949233E+03  0.33822788724E+03  0.41800000000E+01 0.  1.
        -11    1    3    3    0    0  0.12675761337E+03 -0.36816174050E+02 -0.22842422799E+03  0.26381916373E+03  0.00000000000E+00 0.  1.
         11    1    3    3    0    0 -0.11903127258E+02 -0.15948890573E+02 -0.13694059120E+02  0.24157375773E+02  0.00000000000E+00 0. -1.
</event>
<event>
 8    1  0.4798744E-006  0.1054488E+03  0.7561462E-02  0.1269238E+00
         -1   -1    0    0    0  501 -0.00000000000E+00  0.00000000000E+00  0.12798431191E+03  0.12798431191E+03  0.00000000000E+00 0.  1.
          1   -1    0    0  501    0  0.00000000000E+00 -0.00000000000E+00 -0.13257748032E+03  0.13257748032E+03  0.00000000000E+00 0. -1.
         23    2    1    2    0    0 -0.20538084067E+02 -0.60508638785E+02  0.29797737558E+02  0.14359170379E+03  0.12509022332E+03 0.  0.
         23    2    1    2    0    0  0.20538084067E+02  0.60508638785E+02 -0.34390905976E+02  0.11697008843E+03  0.91739625625E+02 0.  0.
          5    1    3    3  502    0  0.12523696037E+02  0.17622100409E+02 -0.31791038167E+02  0.38672003995E+02  0.41800000000E+01 0.  1.
         -5    1    3    3    0  502 -0.33061780104E+02 -0.78130739194E+02  0.61588775725E+02  0.10491969980E+03  0.41800000000E+01 0.  1.
        -11    1    4    4    0    0 -0.45598290077E+01 -0.19530344091E+02  0.96201964370E+01  0.22243528505E+02  0.00000000000E+00 0.  1.
         11    1    4    4    0    0  0.25097913074E+02  0.80038982875E+02 -0.44011102413E+02  0.94726559929E+02  0.00000000000E+00 0. -1.
</event>
<event>
 7    1  0.4798744E-006  0.1064712E+03  0.7561462E-02  0.1267248E+00
         -1   -1    0    0    0  501 -0.00000000000E+00  0.00000000000E+00  0.31154401960E+02  0.31154401960E+02  0.00000000000E+00 0.  1.
          1   -1    0    0  501    0  0.00000000000E+00 -0.00000000000E+00 -0.45993536443E+03  0.45993536443E+03  0.00000000000E+00 0. -1.
         23    2    1    2    0    0  0.28799724976E+02 -0.26331804072E+01 -0.25423875603E+03  0.27112263664E+03  0.89631363008E+02 0.  0.
          5    1    1    2  502    0 -0.76770934599E+02  0.24537876940E+02 -0.11207971488E+03  0.13811306488E+03  0.41800000000E+01 0. -1.
         -5    1    1    2    0  502  0.47971209623E+02 -0.21904696532E+02 -0.62462491559E+02  0.81854064863E+02  0.41800000000E+01 0.  1.
        -11    1    3    3    0    0  0.10833674412E+01  0.33655791695E+02 -0.18594633240E+03  0.18897069755E+03  0.00000000000E+00 0.  1.
         11    1    3    3    0    0  0.27716357534E+02 -0.36288972102E+02 -0.68292423623E+02  0.82151939086E+02  0.00000000000E+00 0. -1.
</event>
<event>
 8    1  0.4798744E-006  0.2613149E+03  0.7561462E-02  0.1106356E+00
          1   -1    0    0  501    0  0.00000000000E+00  0.00000000000E+00  0.12726242362E+04  0.12726242362E+04  0.00000000000E+00 0. -1.
         -1   -1    0    0    0  501 -0.00000000000E+00 -0.00000000000E+00 -0.73282856184E+02  0.73282856184E+02  0.00000000000E+00 0.  1.
         23    2    1    2    0    0  0.21781254375E+03  0.10584240182E+03  0.27820014236E+03  0.38946580533E+03  0.12507348269E+03 0.  0.
         23    2    1    2    0    0 -0.21781254375E+03 -0.10584240182E+03  0.92114123768E+03  0.95644128709E+03  0.87371835565E+02 0.  0.
          5    1    3    3  502    0  0.64624700998E+02  0.92291351511E+02  0.78512903759E+02  0.13738920627E+03  0.41800000000E+01 0. -1.
         -5    1    3    3    0  502  0.15318784275E+03  0.13551050307E+02  0.19968723860E+03  0.25207659906E+03  0.41800000000E+01 0. -1.
        -11    1    4    4    0    0 -0.38639744944E+02  0.13308843161E+02  0.11372150959E+03  0.12084178474E+03  0.00000000000E+00 0. -1.
         11    1    4    4    0    0 -0.17917279880E+03 -0.11915124498E+03  0.80741972810E+03  0.83559950235E+03  0.00000000000E+00 0.  1.
</event>
<event>
 8    1  0.4798744E-006  0.1071490E+03  0.7561462E-02  0.1265942E+00
          1   -1    0    0  501    0  0.00000000000E+00  0.00000000000E+00  0.74290484747E+02  0.74290484747E+02  0.00000000000E+00 0. -1.
         -1   -1    0    0    0  501 -0.00000000000E+00 -0.00000000000E+00 -0.17673193271E+03  0.17673193271E+03  0.00000000000E+00 0.  1.
         23    2    1    2    0    0  0.37999668671E+01  0.30666842994E+02 -0.83140974768E+02  0.15334857838E+03  0.12509384397E+03 0.  0.
         23    2    1    2    0    0 -0.37999668671E+01 -0.30666842994E+02 -0.19300473191E+02  0.97673839072E+02  0.90624365191E+02 0.  0.
          5    1    3    3  502    0  0.20535911184E+02 -0.40542942840E+02 -0.62195714785E+02  0.77144236336E+02  0.41800000000E+01 0. -1.
         -5    1    3    3    0  502 -0.16735944317E+02  0.71209785834E+02 -0.20945259983E+02  0.76204342045E+02  0.41800000000E+01 0. -1.
        -11    1    4    4    0    0 -0.46904145237E+02 -0.11985443875E+02 -0.55732800067E+01  0.48731008150E+02  0.00000000000E+00 0.  1.
         11    1    4    4    0    0  0.43104178370E+02 -0.18681399119E+02 -0.13727193185E+02  0.48942830922E+02  0.00000000000E+00 0. -1.
</event>
<event>
 8    1  0.4798744E-006  0.8868537E+02  0.7561462E-02  0.1306067E+00
         -2   -1    0    0    0  501 -0.00000000000E+00  0.00000000000E+00  0.50567114404E+02  0.50567114404E+02  0.00000000000E+00 0.  1.
          2   -1    0    0  501    0  0.00000000000E+00 -0.00000000000E+00 -0.31637120606E+03  0.31637120606E+03  0.00000000000E+00 0. -1.
         23    2    1    2    0    0  0.38573806178E+02  0.30321260735E+02 -0.87577660672E+02  0.16039352379E+03  0.12509563721E+03 0.  0.
         23    2    1    2    0    0 -0.38573806178E+02 -0.30321260735E+02 -0.17822643098E+03  0.20654479667E+03  0.92134548108E+02 0.  0.
          5    1    3    3  502    0  0.75902129849E+02 -0.21709234649E+01 -0.79605877330E+02  0.11009275330E+03  0.41800000000E+01 0.  1.
         -5    1    3    3    0  502 -0.37328323672E+02  0.32492184200E+02 -0.79717833420E+01  0.50300770490E+02  0.41800000000E+01 0.  1.
        -11    1    4    4    0    0 -0.32294618619E+02 -0.16043825951E+02 -0.18575701754E+03  0.18922477720E+03  0.00000000000E+00 0. -1.
         11    1    4    4    0    0 -0.62791875592E+01 -0.14277434783E+02  0.75305865570E+01  0.17320019466E+02  0.00000000000E+00 0.  1.
</event>
<event>
 8    1  0.4798744E-006  0.9238189E+02  0.7561462E-02  0.1297184E+00
         -2   -1    0    0    0  501 -0.00000000000E+00  0.00000000000E+00  0.31659028585E+02  0.31659028585E+02  0.00000000000E+00 0.  1.
          2   -1    0    0  501    0  0.00000000000E+00 -0.00000000000E+00 -0.40381724013E+03  0.40381724013E+03  0.00000000000E+00 0. -1.
         23    2    1    2    0    0 -0.26165216917E+02  0.20393089190E+01 -0.17903844049E+03  0.21997928864E+03  0.12508935565E+03 0.  0.
         23    2    1    2    0    0  0.26165216917E+02 -0.20393089190E+01 -0.19311977106E+03  0.21549698008E+03  0.91950666634E+02 0.  0.
          5    1    3    3  502    0 -0.69311466532E+01 -0.59873726513E+02 -0.10771766364E+03  0.12350494476E+03  0.41800000000E+01 0. -1.
         -5    1    3    3    0  502 -0.19234070264E+02  0.61913035432E+02 -0.71320776851E+02  0.96474343874E+02  0.41800000000E+01 0. -1.
        -11    1    4    4    0    0 -0.32953072708E+01 -0.22992247873E+02 -0.47735967158E+01  0.23712649322E+02  0.00000000000E+00 0.  1.
         11    1    4    4    0    0  0.29460524188E+02  0.20952938954E+02 -0.18834617434E+03  0.19178433076E+03  0.00000000000E+00 0. -1.
</event>
<event>
 8    1  0.4798744E-006  0.1281642E+03  0.7561462E-02  0.1230205E+00
          1   -1    0    0  501    0  0.00000000000E+00  0.00000000000E+00  0.47089449339E+03  0.47089449339E+03  0.00000000000E+00 0. -1.
         -1   -1    0    0    0  501 -0.00000000000E+00 -0.00000000000E+00 -0.74460199378E+02  0.74460199378E+02  0.00000000000E+00 0.  1.
         23    2    1    2    0    0  0.88420231075E+02  0.40460184069E+02  0.37585858240E+02  0.16283531613E+03  0.12508988641E+03 0.  0.
         23    2    1    2    0    0 -0.88420231075E+02 -0.40460184069E+02  0.35884843577E+03  0.38251937663E+03  0.89965048146E+02 0.  0.
          5    1    3    3  502    0  0.11472815024E+03  0.14023644905E+02  0.96688109060E+01  0.11606105884E+03  0.41800000000E+01 0.  1.
         -5    1    3    3    0  502 -0.26307919164E+02  0.26436539164E+02  0.27917047334E+02  0.46774257296E+02  0.41800000000E+01 0.  1.
        -11    1    4    4    0    0 -0.59665943346E+02 -0.86976036213E+01  0.31680401148E+03  0.32249101506E+03  0.00000000000E+00 0. -1.
         11    1    4    4    0    0 -0.28754287729E+02 -0.31762580448E+02  0.42044424290E+02  0.60028361575E+02  0.00000000000E+00 0.  1.
</event>
<event>
 8    1  0.4798744E-006  0.9862928E+02  0.7561462E-02  0.1283205E+00
         -2   -1    0    0    0  501 -0.00000000000E+00  0.00000000000E+00  0.35053937021E+02  0.35053937021E+02  0.00000000000E+00 0.  1.
          2   -1    0    0  501    0  0.00000000000E+00 -0.00000000000E+00 -0.42312975818E+03  0.42312975818E+03  0.00000000000E+00 0. -1.
         23    2    1    2    0    0  0.40680899328E+02 -0.23625999574E+02 -0.16308716879E+03  0.21090150083E+03  0.12517545687E+03 0.  0.
         23    2    1    2    0    0 -0.40680899328E+02  0.23625999574E+02 -0.22498865237E+03  0.24728219438E+03  0.91189179911E+02 0.  0.
          5    1    3    3  502    0  0.34964507834E+02  0.49227937131E+02 -0.73528367330E+02  0.95235496557E+02  0.41800000000E+01 0. -1.
         -5    1    3    3    0  502  0.57163914941E+01 -0.72853936705E+02 -0.89558801459E+02  0.11566600427E+03  0.41800000000E+01 0. -1.
        -11    1    4    4    0    0 -0.31316464178E+02  0.36194460691E+02 -0.22653193853E+03  0.23153288986E+03  0.00000000000E+00 0. -1.
         11    1    4    4    0    0 -0.93644351494E+01 -0.12568461117E+02  0.15432861573E+01  0.15749304514E+02  0.00000000000E+00 0.  1.
</event>
<event>
 8    1  0.4798744E-006  0.1446457E+03  0.7561462E-02  0.1207211E+00
         -2   -1    0    0    0  501 -0.00000000000E+00  0.00000000000E+00  0.24405895466E+02  0.24405895466E+02  0.00000000000E+00 0.  1.
          2   -1    0    0  501    0  0.00000000000E+00 -0.00000000000E+00 -0.94518833655E+03  0.94518833655E+03  0.00000000000E+00 0. -1.
         23    2    1    2    0    0  0.85549863520E+02  0.53768713523E+02 -0.39812692337E+03  0.42938207049E+03  0.12511619257E+03 0.  0.
         23    2    1    2    0    0 -0.85549863520E+02 -0.53768713523E+02 -0.52265551772E+03  0.54021216153E+03  0.91926794581E+02 0.  0.
          5    1    3    3  502    0 -0.27748525250E+01  0.63583080472E+02 -0.23580135712E+03  0.24427496873E+03  0.41800000000E+01 0.  1.
         -5    1    3    3    0  502  0.88324716045E+02 -0.98143669490E+01 -0.16232556624E+03  0.18510710175E+03  0.41800000000E+01 0.  1.
        -11    1    4    4    0    0  0.19399727493E+02 -0.15513104666E+02 -0.10134250589E+03  0.10434227016E+03  0.00000000000E+00 0.  1.
         11    1    4    4    0    0 -0.10494959101E+03 -0.38255608857E+02 -0.42131301184E+03  0.43586989137E+03  0.00000000000E+00 0. -1.
</event>
<event>
 8    1  0.4798744E-006  0.1330843E+03  0.7561462E-02  0.1222950E+00
          3   -1    0    0  501    0  0.00000000000E+00  0.00000000000E+00  0.51756484196E+02  0.51756484196E+02  0.00000000000E+00 0. -1.
         -3   -1    0    0    0  501 -0.00000000000E+00 -0.00000000000E+00 -0.40555888349E+03  0.40555888349E+03  0.00000000000E+00 0.  1.
         23    2    1    2    0    0 -0.44738727593E+02  0.76206970814E+02 -0.24991501232E+03  0.29310758303E+03  0.12508191597E+03 0.  0.
         23    2    1    2    0    0  0.44738727593E+02 -0.76206970814E+02 -0.10388738697E+03  0.16420778465E+03  0.91446985849E+02 0.  0.
          5    1    3    3  502    0  0.37465871271E+02  0.33426312348E+02 -0.14269302923E+03  0.15132674205E+03  0.41800000000E+01 0.  1.
         -5    1    3    3    0  502 -0.82204598865E+02  0.42780658466E+02 -0.10722198309E+03  0.14178084098E+03  0.41800000000E+01 0.  1.
        -11    1    4    4    0    0  0.63122315773E+02 -0.23761312691E+02 -0.35929741873E+02  0.76419716568E+02  0.00000000000E+00 0. -1.
         11    1    4    4    0    0 -0.18383588179E+02 -0.52445658123E+02 -0.67957645100E+02  0.87788068084E+02  0.00000000000E+00 0.  1.
</event>
<event>
 8    1  0.4798744E-006  0.2066990E+03  0.7561462E-02  0.1144207E+00
         -3   -1    0    0    0  501 -0.00000000000E+00  0.00000000000E+00  0.17485231494E+03  0.17485231494E+03  0.00000000000E+00 0.  1.
          3   -1    0    0  501    0  0.00000000000E+00 -0.00000000000E+00 -0.31775424179E+03  0.31775424179E+03  0.00000000000E+00 0. -1.
         23    2    1    2    0    0  0.16987190311E+03 -0.95476429066E+02  0.61768572706E+01  0.23164130180E+03  0.12508927677E+03 0.  0.
         23    2    1    2    0    0 -0.16987190311E+03  0.95476429066E+02 -0.14907878413E+03  0.26096525493E+03  0.88916637534E+02 0.  0.
          5    1    3    3  502    0  0.13846933423E+03 -0.41189466210E+02  0.52280297326E+02  0.15369134829E+03  0.41800000000E+01 0.  1.
         -5    1    3    3    0  502  0.31402568872E+02 -0.54286962856E+02 -0.46103440055E+02  0.77949953514E+02  0.41800000000E+01 0.  1.
        -11    1    4    4    0    0 -0.88781489625E+02  0.87305046990E+02 -0.53960273241E+02  0.13570569339E+03  0.00000000000E+00 0.  1.
         11    1    4    4    0    0 -0.81090413480E+02  0.81713820756E+01 -0.95118510885E+02  0.12525956154E+03  0.00000000000E+00 0. -1.
</event>
<event>
 8    1  0.4798744E-006  0.1022547E+03  0.7561462E-02  0.1275625E+00
         -1   -1    0    0    0  501 -0.00000000000E+00  0.00000000000E+00  0.13782115527E+03  0.13782115527E+03  0.00000000000E+00 0.  1.
          1   -1    0    0  501    0  0.00000000000E+00 -0.00000000000E+00 -0.12726296987E+03  0.12726296987E+03  0.00000000000E+00 0. -1.
         23    2    1    2    0    0 -0.24119720051E+02  0.34382816487E+02  0.67347686829E+02  0.14814601425E+03  0.12509033397E+03 0.  0.
         23    2    1    2    0    0  0.24119720051E+02 -0.34382816487E+02 -0.56789501424E+02  0.11693811089E+03  0.93196219561E+02 0.  0.
          5    1    3    3  502    0 -0.62589777443E+02  0.11951285807E+02  0.79332490496E+02  0.10184021760E+03  0.41800000000E+01 0.  1.
         -5    1    3    3    0  502  0.38470057392E+02  0.22431530680E+02 -0.11984803667E+02  0.46305796649E+02  0.41800000000E+01 0.  1.
        -11    1    4    4    0    0 -0.25675890749E+02  0.11572388860E+02 -0.36702925828E+02  0.46263120453E+02  0.00000000000E+00 0. -1.
         11    1    4    4    0    0  0.49795610800E+02 -0.45955205348E+02 -0.20086575596E+02  0.70674990433E+02  0.00000000000E+00 0.  1.
</event>
<event>
 8    1  0.4798744E-006  0.1068346E+03  0.7561462E-02  0.1266547E+00
         -1   -1    0    0    0  501 -0.00000000000E+00  0.00000000000E+00  0.12591718372E+03  0.12591718372E+03  0.00000000000E+00 0.  1.
          1   -1    0    0  501    0  0.00000000000E+00 -0.00000000000E+00 -0.13586217220E+03  0.13586217220E+03  0.00000000000E+00 0. -1.
         23    2    1    2    0    0 -0.67170426344E+02  0.57030079343E+00  0.24235470309E+02  0.14403508201E+03  0.12508619192E+03 0.  0.
         23    2    1    2    0    0  0.67170426344E+02 -0.57030079343E+00 -0.34180458789E+02  0.11774427391E+03  0.90461145566E+02 0.  0.
          5    1    3    3  502    0  0.16794767765E+02  0.27928037671E+02 -0.26403980100E+02  0.42150706727E+02  0.41800000000E+01 0.  1.
         -5    1    3    3    0  502 -0.83965194109E+02 -0.27357736878E+02  0.50639450409E+02  0.10188437528E+03  0.41800000000E+01 0.  1.
        -11    1    4    4    0    0 -0.12307537191E+02  0.35822313004E+01 -0.35920287383E+02  0.38138889581E+02  0.00000000000E+00 0. -1.
         11    1    4    4    0    0  0.79477963535E+02 -0.41525320938E+01  0.17398285939E+01  0.79605384328E+02  0.00000000000E+00 0.  1.
</event>
<event>
 8    1  0.4798744E-006  0.4648713E+02  0.7561462E-02  0.1465266E+00
         -2   -1    0    0    0  501 -0.00000000000E+00  0.00000000000E+00  0.30493315468E+03  0.30493315468E+03  0.00000000000E+00 0.  1.
          2   -1    0    0  501    0  0.00000000000E+00 -0.00000000000E+00 -0.89691342109E+02  0.89691342109E+02  0.00000000000E+00 0. -1.
         23    2    1    2    0    0  0.30611274443E+02 -0.34073576647E+01  0.25658971447E+03  0.28711593841E+03  0.12509444555E+03 0.  0.
         23    2    1    2    0    0 -0.30611274443E+02  0.34073576647E+01 -0.41347901897E+02  0.10750855838E+03  0.94338650219E+02 0.  0.
          5    1    3    3  502    0  0.51028214821E+01 -0.55138235558E+01 -0.13379666196E+02  0.15903738705E+02  0.41800000000E+01 0.  1.
         -5    1    3    3    0  502  0.25508452961E+02  0.21064658911E+01  0.26996938067E+03  0.27121219970E+03  0.41800000000E+01 0.  1.
        -11    1    4    4    0    0  0.13862385099E+02  0.42040881535E+00  0.24405560370E+02  0.28070871757E+02  0.00000000000E+00 0.  1.
         11    1    4    4    0    0 -0.44473659542E+02  0.29869488493E+01 -0.65753462267E+02  0.79437686627E+02  0.00000000000E+00 0. -1.
</event>
<event>
 8    1  0.5159298E-006  0.2937489E+03  0.7561462E-02  0.1088408E+00
          1   -1    0    0  501    0  0.00000000000E+00  0.00000000000E+00  0.35174831428E+03  0.35174831428E+03  0.00000000000E+00 0. -1.
         -1   -1    0    0    0  501 -0.00000000000E+00 -0.00000000000E+00 -0.28307555625E+03  0.28307555625E+03  0.00000000000E+00 0.  1.
         23    2    1    2    0    0  0.28915455368E+03  0.46078669171E+02 -0.19295334886E+02  0.31898840104E+03  0.12509072862E+03 0.  0.
         23    2    1    2    0    0 -0.28915455368E+03 -0.46078669171E+02  0.87968092920E+02  0.31583546949E+03  0.79246821705E+02 0.  0.
          5    1    3    3  502    0  0.16158787971E+03  0.38540044404E+02  0.50036326898E+02  0.17354274488E+03  0.41800000000E+01 0. -1.
         -5    1    3    3    0  502  0.12756667397E+03  0.75386247669E+01 -0.69331661784E+02  0.14544565616E+03  0.41800000000E+01 0. -1.
        -11    1    4    4    0    0 -0.19293646957E+03 -0.21291639852E+02  0.19318401435E+02  0.19506669591E+03  0.00000000000E+00 0.  1.
         11    1    4    4    0    0 -0.96218084108E+02 -0.24787029319E+02  0.68649691485E+02  0.12076877358E+03  0.00000000000E+00 0. -1.
</event>
<event>
 8    1  0.4798744E-006  0.9139488E+02  0.7561462E-02  0.1299509E+00
          3   -1    0    0  501    0  0.00000000000E+00  0.00000000000E+00  0.34722301056E+03  0.34722301056E+03  0.00000000000E+00 0. -1.
         -3   -1    0    0    0  501 -0.00000000000E+00 -0.00000000000E+00 -0.55962269558E+02  0.55962269558E+02  0.00000000000E+00 0.  1.
         23    2    1    2    0    0  0.38715044273E+02  0.60817709271E+02  0.87207787248E+02  0.16866644475E+03  0.12508206511E+03 0.  0.
         23    2    1    2    0    0 -0.38715044273E+02 -0.60817709271E+02  0.20405295375E+03  0.23451883537E+03  0.90353903036E+02 0.  0.
          5    1    3    3  502    0 -0.13041320980E+02  0.30735216316E+02  0.10153926657E+03  0.10696926956E+03  0.41800000000E+01 0. -1.
         -5    1    3    3    0  502  0.51756365253E+02  0.30082492954E+02 -0.14331479321E+02  0.61697175188E+02  0.41800000000E+01 0. -1.
        -11    1    4    4    0    0 -0.51687618001E+02 -0.43910614130E+02  0.20203296300E+03  0.21311281057E+03  0.00000000000E+00 0. -1.
         11    1    4    4    0    0  0.12972573728E+02 -0.16907095141E+02  0.20199907496E+01  0.21406024802E+02  0.00000000000E+00 0.  1.
</event>
<event>
 8    1  0.4798744E-006  0.1697597E+03  0.7561462E-02  0.1178099E+00
         -2   -1    0    0    0  501 -0.00000000000E+00  0.00000000000E+00  0.66355216868E+02  0.66355216868E+02  0.00000000000E+00 0.  1.
          2   -1    0    0  501    0  0.00000000000E+00 -0.00000000000E+00 -0.56748102678E+03  0.56748102678E+03  0.00000000000E+00 0. -1.
         23    2    1    2    0    0 -0.90775524092E+02  0.12956635226E+03 -0.21741749718E+03  0.29655536642E+03  0.12508829626E+03 0.  0.
         23    2    1    2    0    0  0.90775524092E+02 -0.12956635226E+03 -0.28370831273E+03  0.33728087723E+03  0.90776362649E+02 0.  0.
          5    1    3    3  502    0 -0.19048725403E+01  0.69813018710E+02 -0.16076813170E+03  0.17533211540E+03  0.41800000000E+01 0.  1.
         -5    1    3    3    0  502 -0.88870651551E+02  0.59753333554E+02 -0.56649365473E+02  0.12122325101E+03  0.41800000000E+01 0.  1.
        -11    1    4    4    0    0 -0.15391058061E+01 -0.15798495515E+02  0.21949168976E+01  0.16024324242E+02  0.00000000000E+00 0.  1.
         11    1    4    4    0    0  0.92314629898E+02 -0.11376785675E+03 -0.28590322963E+03  0.32125655298E+03  0.00000000000E+00 0. -1.
</event>
<event>
 8    1  0.6381269E-006  0.2530999E+03  0.7561462E-02  0.1111361E+00
         -1   -1    0    0    0  501 -0.00000000000E+00  0.00000000000E+00  0.24085864728E+03  0.24085864728E+03  0.00000000000E+00 0.  1.
          1   -1    0    0  501    0  0.00000000000E+00 -0.00000000000E+00 -0.40134750517E+03  0.40134750517E+03  0.00000000000E+00 0. -1.
         23    2    1    2    0    0 -0.24071773500E+03 -0.28342563336E+02  0.84399841087E+02  0.28551628391E+03  0.12509151194E+03 0.  0.
         23    2    1    2    0    0  0.24071773500E+03  0.28342563336E+02 -0.24488869898E+03  0.35668986854E+03  0.92243474495E+02 0.  0.
          5    1    3    3  502    0 -0.21443621821E+03 -0.59004717050E+02  0.97472245853E+02  0.24286366427E+03  0.41800000000E+01 0.  1.
         -5    1    3    3    0  502 -0.26281516797E+02  0.30662153713E+02 -0.13072404765E+02  0.42652619636E+02  0.41800000000E+01 0.  1.
        -11    1    4    4    0    0  0.91421811611E+02  0.20260337720E+02 -0.15827200400E+03  0.18389795043E+03  0.00000000000E+00 0. -1.
         11    1    4    4    0    0  0.14929592339E+03  0.80822256161E+01 -0.86616694974E+02  0.17279191810E+03  0.00000000000E+00 0.  1.
</event>
<event>
 8    1  0.4798744E-006  0.2108660E+03  0.7561462E-02  0.1140882E+00
          1   -1    0    0  501    0  0.00000000000E+00  0.00000000000E+00  0.33381303887E+03  0.33381303887E+03  0.00000000000E+00 0.  1.
         -1   -1    0    0    0  501 -0.00000000000E+00 -0.00000000000E+00 -0.27508539769E+03  0.27508539769E+03  0.00000000000E+00 0. -1.
         23    2    1    2    0    0 -0.12584567843E+03 -0.14624813070E+03 -0.17652094549E+03  0.28988309725E+03  0.12508763073E+03 0.  0.
         23    2    1    2    0    0  0.12584567843E+03  0.14624813070E+03  0.23524858666E+03  0.31901533932E+03  0.95933511764E+02 0.  0.
          5    1    3    3  502    0 -0.11631651436E+03 -0.48969460516E+02 -0.66709038513E+02  0.14281144140E+03  0.41800000000E+01 0. -1.
         -5    1    3    3    0  502 -0.95291640738E+01 -0.97278670185E+02 -0.10981190697E+03  0.14707165585E+03  0.41800000000E+01 0. -1.
        -11    1    4    4    0    0  0.54013119399E+02  0.32328173674E+02  0.14165250367E+03  0.15500954705E+03  0.00000000000E+00 0.  1.
         11    1    4    4    0    0  0.71832559033E+02  0.11391995703E+03  0.93596082994E+02  0.16400579227E+03  0.00000000000E+00 0. -1.
</event>
<event>
 8    1  0.4798744E-006  0.2116736E+03  0.7561462E-02  0.1140247E+00
          2   -1    0    0  501    0  0.00000000000E+00  0.00000000000E+00  0.11154579384E+04  0.11154579384E+04  0.00000000000E+00 0. -1.
         -2   -1    0    0    0  501 -0.00000000000E+00 -0.00000000000E+00 -0.62134934426E+02  0.62134934426E+02  0.00000000000E+00 0.  1.
         23    2    1    2    0    0  0.16510331355E+03  0.77950510185E+02  0.19424007344E+03  0.29446793016E+03  0.12508704800E+03 0.  0.
         23    2    1    2    0    0 -0.16510331355E+03 -0.77950510185E+02  0.85908293058E+03  0.88312494272E+03  0.92470517728E+02 0.  0.
          5    1    3    3  502    0  0.39574932539E+01 -0.27887478293E+02  0.24391856210E+02  0.37494109507E+02  0.41800000000E+01 0.  1.
         -5    1    3    3    0  502  0.16114582029E+03  0.10583798848E+03  0.16984821723E+03  0.25697382065E+03  0.41800000000E+01 0.  1.
        -11    1    4    4    0    0 -0.11636113999E+03 -0.95184563416E+02  0.57208103457E+03  0.59150378369E+03  0.00000000000E+00 0.  1.
         11    1    4    4    0    0 -0.48742173554E+02  0.17234053231E+02  0.28700189601E+03  0.29162115902E+03  0.00000000000E+00 0. -1.
</event>
<event>
 8    1  0.4798744E-006  0.9379526E+02  0.7561462E-02  0.1293913E+00
          1   -1    0    0  501    0  0.00000000000E+00  0.00000000000E+00  0.24935670288E+03  0.24935670288E+03  0.00000000000E+00 0. -1.
         -1   -1    0    0    0  501 -0.00000000000E+00 -0.00000000000E+00 -0.57877409300E+02  0.57877409300E+02  0.00000000000E+00 0.  1.
         23    2    1    2    0    0  0.19675564030E+02 -0.44399877590E+02  0.88000849525E+02  0.16046911605E+03  0.12509080997E+03 0.  0.
         23    2    1    2    0    0 -0.19675564030E+02  0.44399877590E+02  0.10347844405E+03  0.14676499613E+03  0.92052695531E+02 0.  0.
          5    1    3    3  502    0 -0.16101584380E+02 -0.47307603877E+02 -0.14157533574E+02  0.52107375303E+02  0.41800000000E+01 0. -1.
         -5    1    3    3    0  502  0.35777148410E+02  0.29077262870E+01  0.10215838310E+03  0.10836174075E+03  0.41800000000E+01 0. -1.
        -11    1    4    4    0    0 -0.36658838080E+02 -0.14937736892E+02  0.57467470858E+02  0.69781921725E+02  0.00000000000E+00 0. -1.
         11    1    4    4    0    0  0.16983274051E+02  0.59337614482E+02  0.46010973195E+02  0.76983074401E+02  0.00000000000E+00 0.  1.
</event>
<event>
 7    1  0.4798744E-006  0.5624028E+02  0.7561462E-02  0.1414323E+00
         -3   -1    0    0    0  501 -0.00000000000E+00  0.00000000000E+00  0.18391730369E+03  0.18391730369E+03  0.00000000000E+00 0.  1.
          3   -1    0    0  501    0  0.00000000000E+00 -0.00000000000E+00 -0.73773744108E+02  0.73773744108E+02  0.00000000000E+00 0. -1.
         23    2    1    2    0    0  0.50581147146E+01  0.27134675186E+02  0.22635154697E+02  0.98334981986E+02  0.91627197557E+02 0.  0.
          5    1    1    2  502    0  0.10127454919E+02 -0.60691746187E+01 -0.33373133808E+02  0.35646019187E+02  0.41800000000E+01 0. -1.
         -5    1    1    2    0  502 -0.15185569633E+02 -0.21065500568E+02  0.12088153869E+03  0.12371004662E+03  0.41800000000E+01 0.  1.
        -11    1    3    3    0    0  0.34518861619E+02  0.27587995313E+02 -0.18358896623E+02  0.47850792868E+02  0.00000000000E+00 0.  1.
         11    1    3    3    0    0 -0.29460746905E+02 -0.45332012654E+00  0.40994051320E+02  0.50484189118E+02  0.00000000000E+00 0. -1.
</event>
<event>
 8    1  0.4798744E-006  0.1273587E+03  0.7561462E-02  0.1231428E+00
         -1   -1    0    0    0  501 -0.00000000000E+00  0.00000000000E+00  0.18371366026E+03  0.18371366026E+03  0.00000000000E+00 0.  1.
          1   -1    0    0  501    0  0.00000000000E+00 -0.00000000000E+00 -0.14618248996E+03  0.14618248996E+03  0.00000000000E+00 0. -1.
         23    2    1    2    0    0  0.84777515156E+02 -0.56609757754E+02  0.10647968831E+03  0.18725797994E+03  0.11548045411E+03 0.  0.
         23    2    1    2    0    0 -0.84777515156E+02  0.56609757754E+02 -0.68948518007E+02  0.14263817027E+03  0.72110039061E+02 0.  0.
          5    1    3    3  502    0 -0.15753983092E+02 -0.24165424334E+01  0.62775380811E+02  0.64901837390E+02  0.41800000000E+01 0. -1.
         -5    1    3    3    0  502  0.10053149825E+03 -0.54193215320E+02  0.43704307500E+02  0.12235614256E+03  0.41800000000E+01 0.  1.
        -11    1    4    4    0    0 -0.64679509765E+02  0.85072829616E+00 -0.44550681402E+02  0.78542510371E+02  0.00000000000E+00 0.  1.
         11    1    4    4    0    0 -0.20098005391E+02  0.55759029458E+02 -0.24397836606E+02  0.64095659898E+02  0.00000000000E+00 0. -1.
</event>
<event>
 8    1  0.4798744E-006  0.1192272E+03  0.7561462E-02  0.1244377E+00
         -4   -1    0    0    0  501 -0.00000000000E+00  0.00000000000E+00  0.31519920716E+02  0.31519920716E+02  0.00000000000E+00 0. -1.
          4   -1    0    0  501    0  0.00000000000E+00 -0.00000000000E+00 -0.50222716678E+03  0.50222716678E+03  0.00000000000E+00 0.  1.
         23    2    1    2    0    0  0.58003737699E+02  0.13879583175E+02 -0.28699839955E+03  0.31870002784E+03  0.12507817549E+03 0.  0.
         23    2    1    2    0    0 -0.58003737699E+02 -0.13879583175E+02 -0.18370884651E+03  0.21504705966E+03  0.94547454561E+02 0.  0.
          5    1    3    3  502    0 -0.59840132719E+01  0.51705939013E+02 -0.58680710676E+02  0.78550689045E+02  0.41800000000E+01 0. -1.
         -5    1    3    3    0  502  0.63987750971E+02 -0.37826355838E+02 -0.22831768887E+03  0.24014933879E+03  0.41800000000E+01 0. -1.
        -11    1    4    4    0    0 -0.56373884945E+02  0.32704442488E+02 -0.10672225429E+03  0.12504893052E+03  0.00000000000E+00 0.  1.
         11    1    4    4    0    0 -0.16298527533E+01 -0.46584025663E+02 -0.76986592220E+02  0.89998129140E+02  0.00000000000E+00 0. -1.
</event>
<event>
 8    1  0.4798744E-006  0.1402264E+03  0.7561462E-02  0.1213025E+00
          3   -1    0    0  501    0  0.00000000000E+00  0.00000000000E+00  0.16251222586E+03  0.16251222586E+03  0.00000000000E+00 0. -1.
         -3   -1    0    0    0  501 -0.00000000000E+00 -0.00000000000E+00 -0.18607419795E+03  0.18607419795E+03  0.00000000000E+00 0.  1.
         23    2    1    2    0    0 -0.12896922900E+02  0.13445131568E+03 -0.36878628727E+02  0.18386573046E+03  0.11917670356E+03 0.  0.
         23    2    1    2    0    0  0.12896922900E+02 -0.13445131568E+03  0.13316656633E+02  0.16472069335E+03  0.93338558835E+02 0.  0.
          5    1    3    3  502    0 -0.50580778048E+01  0.12948187785E+03  0.15441709676E+02  0.13056438887E+03  0.41800000000E+01 0. -1.
         -5    1    3    3    0  502 -0.78388450955E+01  0.49694378354E+01 -0.52320338403E+02  0.53301341591E+02  0.41800000000E+01 0.  1.
        -11    1    4    4    0    0 -0.86835643479E+01 -0.64478257375E+01 -0.26761646417E+02  0.28864588434E+02  0.00000000000E+00 0.  1.
         11    1    4    4    0    0  0.21580487248E+02 -0.12800348995E+03  0.40078303050E+02  0.13585610492E+03  0.00000000000E+00 0. -1.
</event>
<event>
 8    1  0.4798744E-006  0.2331317E+03  0.7561462E-02  0.1124455E+00
         -2   -1    0    0    0  501 -0.00000000000E+00  0.00000000000E+00  0.15181254091E+03  0.15181254091E+03  0.00000000000E+00 0.  1.
          2   -1    0    0  501    0  0.00000000000E+00 -0.00000000000E+00 -0.39429941486E+03  0.39429941486E+03  0.00000000000E+00 0. -1.
         23    2    1    2    0    0  0.32539767915E+02  0.21407970521E+03 -0.15590409610E+03  0.29468819523E+03  0.12508432576E+03 0.  0.
         23    2    1    2    0    0 -0.32539767915E+02 -0.21407970521E+03 -0.86582777851E+02  0.25142376054E+03  0.93959423492E+02 0.  0.
          5    1    3    3  502    0  0.47495867182E+02  0.22251387584E+03 -0.12644343042E+03  0.26033381616E+03  0.41800000000E+01 0.  1.
         -5    1    3    3    0  502 -0.14956099266E+02 -0.84341706292E+01 -0.29460665674E+02  0.34354379072E+02  0.41800000000E+01 0.  1.
        -11    1    4    4    0    0 -0.38273235816E+02 -0.10435082575E+03  0.61492596239E+00  0.11114995973E+03  0.00000000000E+00 0. -1.
         11    1    4    4    0    0  0.57334679003E+01 -0.10972887946E+03 -0.87197703813E+02  0.14027380080E+03  0.00000000000E+00 0.  1.
</event>
<event>
 7    1  0.4798744E-006  0.1107296E+03  0.7561462E-02  0.1259225E+00
          1   -1    0    0  501    0  0.00000000000E+00  0.00000000000E+00  0.23356566375E+02  0.23356566375E+02  0.00000000000E+00 0. -1.
         -1   -1    0    0    0  501 -0.00000000000E+00 -0.00000000000E+00 -0.80664733050E+03  0.80664733050E+03  0.00000000000E+00 0.  1.
         23    2    1    2    0    0  0.13013179863E+02 -0.20446921113E+02 -0.22340376074E+03  0.25030528897E+03  0.11025460508E+03 0.  0.
          5    1    1    2  502    0 -0.56512304357E+02  0.36015938549E+02 -0.12111788919E+03  0.13848394800E+03  0.41800000000E+01 0. -1.
         -5    1    1    2    0  502  0.43499124494E+02 -0.15569017436E+02 -0.43876911420E+03  0.44121465990E+03  0.41800000000E+01 0.  1.
        -11    1    3    3    0    0  0.47504315964E+02 -0.45120834612E+02 -0.16948231140E+03  0.18170526582E+03  0.00000000000E+00 0.  1.
         11    1    3    3    0    0 -0.34491136100E+02  0.24673913499E+02 -0.53921449341E+02  0.68600023148E+02  0.00000000000E+00 0. -1.
</event>
<event>
 8    1  0.4798744E-006  0.7352971E+02  0.7561462E-02  0.1348485E+00
         -2   -1    0    0    0  501 -0.00000000000E+00  0.00000000000E+00  0.31499268649E+02  0.31499268649E+02  0.00000000000E+00 0.  1.
          2   -1    0    0  501    0  0.00000000000E+00 -0.00000000000E+00 -0.38147537785E+03  0.38147537785E+03  0.00000000000E+00 0. -1.
         23    2    1    2    0    0  0.57118583533E+01 -0.52415856767E+01 -0.17150607101E+03  0.21241719166E+03  0.12508649557E+03 0.  0.
         23    2    1    2    0    0 -0.57118583533E+01  0.52415856767E+01 -0.17847003820E+03  0.20055745484E+03  0.91168188599E+02 0.  0.
          5    1    3    3  502    0 -0.32243063950E+02  0.62245247509E+01 -0.16927992225E+03  0.17248630194E+03  0.41800000000E+01 0.  1.
         -5    1    3    3    0  502  0.37954922303E+02 -0.11466110428E+02 -0.22261487579E+01  0.39930889718E+02  0.41800000000E+01 0.  1.
        -11    1    4    4    0    0 -0.39786503079E+02  0.40453933946E+01 -0.35168437435E+02  0.53255516396E+02  0.00000000000E+00 0.  1.
         11    1    4    4    0    0  0.34074644725E+02  0.11961922821E+01 -0.14330160076E+03  0.14730193845E+03  0.00000000000E+00 0. -1.
</event>
<event>
 8    1  0.4798744E-006  0.1309107E+03  0.7561462E-02  0.1226111E+00
          2   -1    0    0  501    0  0.00000000000E+00  0.00000000000E+00  0.53159988755E+03  0.53159988755E+03  0.00000000000E+00 0. -1.
         -2   -1    0    0    0  501 -0.00000000000E+00 -0.00000000000E+00 -0.37774583589E+02  0.37774583589E+02  0.00000000000E+00 0.  1.
         23    2    1    2    0    0 -0.15347937417E+02 -0.89888932569E+02  0.26084866853E+03  0.30332328291E+03  0.12508959469E+03 0.  0.
         23    2    1    2    0    0  0.15347937417E+02  0.89888932569E+02  0.23297663542E+03  0.26605118823E+03  0.90496092299E+02 0.  0.
          5    1    3    3  502    0 -0.59974750782E+02 -0.17900618412E+02  0.15816096375E+03  0.17014630682E+03  0.41800000000E+01 0.  1.
         -5    1    3    3    0  502  0.44626813365E+02 -0.71988314157E+02  0.10268770478E+03  0.13317697609E+03  0.41800000000E+01 0.  1.
        -11    1    4    4    0    0 -0.27614808886E+02  0.34302741818E+02  0.35865244664E+02  0.56794115372E+02  0.00000000000E+00 0.  1.
         11    1    4    4    0    0  0.42962746302E+02  0.55586190750E+02  0.19711139076E+03  0.20925707285E+03  0.00000000000E+00 0. -1.
</event>
<event>
 8    1  0.4798744E-006  0.1705642E+03  0.7561462E-02  0.1177261E+00
          1   -1    0    0  501    0  0.00000000000E+00  0.00000000000E+00  0.32823068040E+03  0.32823068040E+03  0.00000000000E+00 0. -1.
         -1   -1    0    0    0  501 -0.00000000000E+00 -0.00000000000E+00 -0.15005774555E+03  0.15005774555E+03  0.00000000000E+00 0.  1.
         23    2    1    2    0    0  0.59813802854E+02 -0.14531195742E+03 -0.28638294596E+02  0.20287728032E+03  0.12508310427E+03 0.  0.
         23    2    1    2    0    0 -0.59813802854E+02  0.14531195742E+03  0.20681122944E+03  0.27541114562E+03  0.91581431130E+02 0.  0.
          5    1    3    3  502    0  0.64109601220E+02 -0.89936451091E+02  0.37218692476E+02  0.11662465294E+03  0.41800000000E+01 0.  1.
         -5    1    3    3    0  502 -0.42957983659E+01 -0.55375506325E+02 -0.65856987072E+02  0.86252627384E+02  0.41800000000E+01 0.  1.
        -11    1    4    4    0    0 -0.28531486433E+02  0.24277969291E+01  0.67902746903E+02  0.73693439009E+02  0.00000000000E+00 0. -1.
         11    1    4    4    0    0 -0.31282316422E+02  0.14288416049E+03  0.13890848254E+03  0.20171770661E+03  0.00000000000E+00 0.  1.
</event>
<event>
 8    1  0.4798744E-006  0.2068502E+03  0.7561462E-02  0.1144085E+00
          2   -1    0    0  501    0  0.00000000000E+00  0.00000000000E+00  0.10290762894E+04  0.10290762894E+04  0.00000000000E+00 0. -1.
         -2   -1    0    0    0  501 -0.00000000000E+00 -0.00000000000E+00 -0.49885053162E+02  0.49885053162E+02  0.00000000000E+00 0.  1.
         23    2    1    2    0    0  0.16067229387E+03  0.11633479830E+03  0.48221069660E+03  0.53621348686E+03  0.12509347010E+03 0.  0.
         23    2    1    2    0    0 -0.16067229387E+03 -0.11633479830E+03  0.49698053968E+03  0.54274785575E+03  0.90753549681E+02 0.  0.
          5    1    3    3  502    0  0.40379092289E+02 -0.55177285881E+01  0.25046768796E+02  0.48018011725E+02  0.41800000000E+01 0.  1.
         -5    1    3    3    0  502  0.12029320158E+03  0.12185252689E+03  0.45716392781E+03  0.48819547514E+03  0.41800000000E+01 0.  1.
        -11    1    4    4    0    0 -0.80427818806E+02 -0.36711128666E+02  0.11914632564E+03  0.14836504952E+03  0.00000000000E+00 0.  1.
         11    1    4    4    0    0 -0.80244475067E+02 -0.79623669636E+02  0.37783421404E+03  0.39438280623E+03  0.00000000000E+00 0. -1.
</event>
<event>
 8    1  0.4798744E-006  0.1466783E+03  0.7561462E-02  0.1204615E+00
          2   -1    0    0  501    0  0.00000000000E+00  0.00000000000E+00  0.42380321080E+03  0.42380321080E+03  0.00000000000E+00 0. -1.
         -2   -1    0    0    0  501 -0.00000000000E+00 -0.00000000000E+00 -0.73063618592E+02  0.73063618592E+02  0.00000000000E+00 0.  1.
         23    2    1    2    0    0 -0.29563259104E+02 -0.10556954496E+03  0.69250708173E+02  0.18017460768E+03  0.12509321948E+03 0.  0.
         23    2    1    2    0    0  0.29563259104E+02  0.10556954496E+03  0.28148888403E+03  0.31669222171E+03  0.95073951981E+02 0.  0.
          5    1    3    3  502    0  0.45516934086E+02 -0.49702433439E+02  0.51276965345E+02  0.84787515315E+02  0.41800000000E+01 0.  1.
         -5    1    3    3    0  502 -0.75080193190E+02 -0.55867111516E+02  0.17973742828E+02  0.95387092365E+02  0.41800000000E+01 0.  1.
        -11    1    4    4    0    0 -0.64635911449E+01  0.94133463259E+02  0.13046032720E+03  0.16100553993E+03  0.00000000000E+00 0.  1.
         11    1    4    4    0    0  0.36026850249E+02  0.11436081696E+02  0.15102855683E+03  0.15568668178E+03  0.00000000000E+00 0. -1.
</event>
<event>
 8    1  0.5140097E-006  0.8925139E+02  0.7561462E-02  0.1304675E+00
          2   -1    0    0  501    0  0.00000000000E+00  0.00000000000E+00  0.17921988315E+02  0.17921988315E+02  0.00000000000E+00 0. -1.
         -2   -1    0    0    0  501 -0.00000000000E+00 -0.00000000000E+00 -0.10726710676E+04  0.10726710676E+04  0.00000000000E+00 0.  1.
         23    2    1    2    0    0 -0.72025089161E+01  0.80562058773E+02 -0.70295574471E+03  0.71856569240E+03  0.12509098223E+03 0.  0.
         23    2    1    2    0    0  0.72025089161E+01 -0.80562058773E+02 -0.35179333457E+03  0.37202736350E+03  0.90020483777E+02 0.  0.
          5    1    3    3  502    0  0.10732941742E+02  0.68245847085E+01 -0.52360221109E+03  0.52377334683E+03  0.41800000000E+01 0. -1.
         -5    1    3    3    0  502 -0.17935450658E+02  0.73737474064E+02 -0.17935353362E+03  0.19479234557E+03  0.41800000000E+01 0. -1.
        -11    1    4    4    0    0  0.20689074392E+02 -0.66431542324E+02 -0.34404990901E+03  0.35101499612E+03  0.00000000000E+00 0.  1.
         11    1    4    4    0    0 -0.13486565476E+02 -0.14130516448E+02 -0.77434255586E+01  0.21012367378E+02  0.00000000000E+00 0. -1.
</event>
<event>
 8    1  0.4798744E-006  0.7426050E+02  0.7561462E-02  0.1346176E+00
         -2   -1    0    0    0  501 -0.00000000000E+00  0.00000000000E+00  0.79365191082E+02  0.79365191082E+02  0.00000000000E+00 0.  1.
          2   -1    0    0  501    0  0.00000000000E+00 -0.00000000000E+00 -0.15746509949E+03  0.15746509949E+03  0.00000000000E+00 0. -1.
         23    2    1    2    0    0 -0.22262030198E+01 -0.41230912009E+02 -0.50241983454E+02  0.14098450327E+03  0.12508968453E+03 0.  0.
         23    2    1    2    0    0  0.22262030198E+01  0.41230912009E+02 -0.27857924955E+02  0.95845787307E+02  0.81886548814E+02 0.  0.
          5    1    3    3  502    0 -0.10793235158E+02  0.17518303942E+02  0.32722439091E+02  0.38879497402E+02  0.41800000000E+01 0. -1.
         -5    1    3    3    0  502  0.85670321381E+01 -0.58749215951E+02 -0.82964422545E+02  0.10210500587E+03  0.41800000000E+01 0. -1.
        -11    1    4    4    0    0 -0.25885335396E+02  0.17854303439E+02 -0.45453609294E+02  0.55270763860E+02  0.00000000000E+00 0. -1.
         11    1    4    4    0    0  0.28111538416E+02  0.23376608570E+02  0.17595684339E+02  0.40575023446E+02  0.00000000000E+00 0.  1.
</event>
<event>
 8    1  0.4798744E-006  0.8818412E+02  0.7561462E-02  0.1307310E+00
         -1   -1    0    0    0  501 -0.00000000000E+00  0.00000000000E+00  0.23551125127E+03  0.23551125127E+03  0.00000000000E+00 0.  1.
          1   -1    0    0  501    0  0.00000000000E+00 -0.00000000000E+00 -0.83022019220E+02  0.83022019220E+02  0.00000000000E+00 0. -1.
         23    2    1    2    0    0  0.59890377900E+02  0.31425827755E+02  0.14847057836E+03  0.20558546982E+03  0.12508969881E+03 0.  0.
         23    2    1    2    0    0 -0.59890377900E+02 -0.31425827755E+02  0.40186536991E+01  0.11294780067E+03  0.90369331548E+02 0.  0.
          5    1    3    3  502    0  0.21730649939E+02  0.57093448750E+01  0.15695250510E+03  0.15860762599E+03  0.41800000000E+01 0. -1.
         -5    1    3    3    0  502  0.38159727962E+02  0.25716482880E+02 -0.84819267409E+01  0.46977843832E+02  0.41800000000E+01 0. -1.
        -11    1    4    4    0    0  0.32736119942E+01 -0.42973409790E+02 -0.15556184233E+02  0.45819486601E+02  0.00000000000E+00 0. -1.
         11    1    4    4    0    0 -0.63163989895E+02  0.11547582035E+02  0.19574837932E+02  0.67128314073E+02  0.00000000000E+00 0.  1.
</event>
<event>
 8    1  0.4798744E-006  0.9904092E+02  0.7561462E-02  0.1282326E+00
         -2   -1    0    0    0  501 -0.00000000000E+00  0.00000000000E+00  0.15628415539E+03  0.15628415539E+03  0.00000000000E+00 0.  1.
          2   -1    0    0  501    0  0.00000000000E+00 -0.00000000000E+00 -0.91251008227E+02  0.91251008227E+02  0.00000000000E+00 0. -1.
         23    2    1    2    0    0  0.20416246256E+02 -0.38785333112E+02  0.62261307584E+02  0.14643853375E+03  0.12508656430E+03 0.  0.
         23    2    1    2    0    0 -0.20416246256E+02  0.38785333112E+02  0.27718395768E+01  0.10109662986E+03  0.91058883692E+02 0.  0.
          5    1    3    3  502    0 -0.31973384503E+02 -0.31077708311E+02 -0.19574550415E+02  0.48874908638E+02  0.41800000000E+01 0.  1.
         -5    1    3    3    0  502  0.52389630758E+02 -0.77076248017E+01  0.81835857999E+02  0.97563625115E+02  0.41800000000E+01 0.  1.
        -11    1    4    4    0    0 -0.50798862467E+02  0.46462123712E+02 -0.42813451134E+01  0.68975236743E+02  0.00000000000E+00 0. -1.
         11    1    4    4    0    0  0.30382616211E+02 -0.76767905992E+01  0.70531846903E+01  0.32121393120E+02  0.00000000000E+00 0.  1.
</event>
<event>
 8    1  0.4798744E-006  0.1112972E+03  0.7561462E-02  0.1258186E+00
          2   -1    0    0  501    0  0.00000000000E+00  0.00000000000E+00  0.26521770851E+03  0.26521770851E+03  0.00000000000E+00 0. -1.
         -2   -1    0    0    0  501 -0.00000000000E+00 -0.00000000000E+00 -0.53285819625E+02  0.53285819625E+02  0.00000000000E+00 0.  1.
         23    2    1    2    0    0  0.22829077286E+02  0.33724105658E+02  0.11971415304E+03  0.17787112818E+03  0.12509267657E+03 0.  0.
         23    2    1    2    0    0 -0.22829077286E+02 -0.33724105658E+02  0.92217735843E+02  0.14063239995E+03  0.98055489595E+02 0.  0.
          5    1    3    3  502    0  0.34752549491E+02  0.70212951350E+02  0.37322237745E+02  0.86879341985E+02  0.41800000000E+01 0. -1.
         -5    1    3    3    0  502 -0.11923472205E+02 -0.36488845693E+02  0.82391915292E+02  0.90991786195E+02  0.41800000000E+01 0. -1.
        -11    1    4    4    0    0  0.30485413251E+02  0.14389620698E+02  0.36916503479E+02  0.49992497777E+02  0.00000000000E+00 0. -1.
         11    1    4    4    0    0 -0.53314490536E+02 -0.48113726356E+02  0.55301232365E+02  0.90639902174E+02  0.00000000000E+00 0.  1.
</event>
<event>
 8    1  0.4798744E-006  0.1697045E+03  0.7561462E-02  0.1178156E+00
          2   -1    0    0  501    0  0.00000000000E+00  0.00000000000E+00  0.12081605502E+03  0.12081605502E+03  0.00000000000E+00 0. -1.
         -2   -1    0    0    0  501 -0.00000000000E+00 -0.00000000000E+00 -0.25142058605E+03  0.25142058605E+03  0.00000000000E+00 0.  1.
         23    2    1    2    0    0 -0.10063335676E+03  0.89852253895E+02 -0.87748061147E+02  0.20383555858E+03  0.12509481479E+03 0.  0.
         23    2    1    2    0    0  0.10063335676E+03 -0.89852253895E+02 -0.42856469885E+02  0.16840108248E+03  0.91223612886E+02 0.  0.
          5    1    3    3  502    0 -0.24464191478E+02  0.10347065605E+03 -0.47686606312E+02  0.11660256494E+03  0.41800000000E+01 0. -1.
         -5    1    3    3    0  502 -0.76169165279E+02 -0.13618402159E+02 -0.40061454835E+02  0.87232993645E+02  0.41800000000E+01 0. -1.
        -11    1    4    4    0    0  0.75628274915E+02 -0.10258831633E+03 -0.14113175975E+02  0.12823096487E+03  0.00000000000E+00 0. -1.
         11    1    4    4    0    0  0.25005081842E+02  0.12736062439E+02 -0.28743293910E+02  0.40170117614E+02  0.00000000000E+00 0.  1.
</event>
<event>
 8    1  0.4798744E-006  0.9730440E+02  0.7561462E-02  0.1286069E+00
         -2   -1    0    0    0  501 -0.00000000000E+00  0.00000000000E+00  0.68942830160E+02  0.68942830160E+02  0.00000000000E+00 0.  1.
          2   -1    0    0  501    0  0.00000000000E+00 -0.00000000000E+00 -0.22456487709E+03  0.22456487709E+03  0.00000000000E+00 0. -1.
         23    2    1    2    0    0 -0.11551486649E+02  0.15919524763E+02 -0.59568831678E+01  0.12677625784E+03  0.12509942838E+03 0.  0.
         23    2    1    2    0    0  0.11551486649E+02 -0.15919524763E+02 -0.14966516376E+03  0.16673144941E+03  0.70801460906E+02 0.  0.
          5    1    3    3  502    0  0.34666097109E+02 -0.39362620296E+02 -0.13163870685E+02  0.54239414237E+02  0.41800000000E+01 0.  1.
         -5    1    3    3    0  502 -0.46217583757E+02  0.55282145059E+02  0.72069875167E+01  0.72536843602E+02  0.41800000000E+01 0.  1.
        -11    1    4    4    0    0 -0.27950235189E+02 -0.23630411578E+01 -0.87123118156E+02  0.91527249100E+02  0.00000000000E+00 0. -1.
         11    1    4    4    0    0  0.39501721837E+02 -0.13556483605E+02 -0.62542045602E+02  0.75204200308E+02  0.00000000000E+00 0.  1.
</event>
<event>
 8    1  0.4798744E-006  0.1112166E+03  0.7561462E-02  0.1258333E+00
          1   -1    0    0  501    0  0.00000000000E+00  0.00000000000E+00  0.22159132752E+02  0.22159132752E+02  0.00000000000E+00 0. -1.
         -1   -1    0    0    0  501 -0.00000000000E+00 -0.00000000000E+00 -0.13953301481E+04  0.13953301481E+04  0.00000000000E+00 0.  1.
         23    2    1    2    0    0  0.53903930695E+02  0.15225474731E+01 -0.12414670644E+04  0.12489185978E+04  0.12509692260E+03 0.  0.
         23    2    1    2    0    0 -0.53903930695E+02 -0.15225474731E+01 -0.13170395090E+03  0.16857068300E+03  0.90344853704E+02 0.  0.
          5    1    3    3  502    0  0.75891343300E+02  0.31008390074E+02 -0.51430212628E+03  0.52081202534E+03  0.41800000000E+01 0. -1.
         -5    1    3    3    0  502 -0.21987412605E+02 -0.29485842601E+02 -0.72716493813E+03  0.72810657247E+03  0.41800000000E+01 0. -1.
        -11    1    4    4    0    0  0.21773026621E+02 -0.15025941336E+02 -0.20911279613E+02  0.33721287287E+02  0.00000000000E+00 0.  1.
         11    1    4    4    0    0 -0.75676957315E+02  0.13503393863E+02 -0.11079267129E+03  0.13484939572E+03  0.00000000000E+00 0. -1.
</event>
<event>
 8    1  0.4798744E-006  0.9237789E+02  0.7561462E-02  0.1297193E+00
         -2   -1    0    0    0  501 -0.00000000000E+00  0.00000000000E+00  0.22211092865E+02  0.22211092865E+02  0.00000000000E+00 0.  1.
          2   -1    0    0  501    0  0.00000000000E+00 -0.00000000000E+00 -0.68884340513E+03  0.68884340513E+03  0.00000000000E+00 0. -1.
         23    2    1    2    0    0 -0.14803829061E+02 -0.28926981286E+02 -0.24309924243E+03  0.27531876261E+03  0.12508899142E+03 0.  0.
         23    2    1    2    0    0  0.14803829061E+02  0.28926981286E+02 -0.42353306983E+03  0.43573573538E+03  0.97105335832E+02 0.  0.
          5    1    3    3  502    0 -0.41765593337E+02 -0.42149772080E+02 -0.23705318865E+03  0.24440264876E+03  0.41800000000E+01 0.  1.
         -5    1    3    3    0  502  0.26961764276E+02  0.13222790795E+02 -0.60460537835E+01  0.30916113850E+02  0.41800000000E+01 0.  1.
        -11    1    4    4    0    0 -0.35278684642E+01  0.59338087625E+02 -0.33696717317E+03  0.34217003126E+03  0.00000000000E+00 0. -1.
         11    1    4    4    0    0  0.18331697525E+02 -0.30411106339E+02 -0.86565896662E+02  0.93565704121E+02  0.00000000000E+00 0.  1.
</event>
<event>
 8    1  0.4798744E-006  0.9621219E+02  0.7561462E-02  0.1288469E+00
          2   -1    0    0  501    0  0.00000000000E+00  0.00000000000E+00  0.79368820466E+02  0.79368820466E+02  0.00000000000E+00 0. -1.
         -2   -1    0    0    0  501 -0.00000000000E+00 -0.00000000000E+00 -0.15552232650E+03  0.15552232650E+03  0.00000000000E+00 0.  1.
         23    2    1    2    0    0  0.11760380085E+02 -0.20715535840E+02 -0.81631964773E+02  0.13986595194E+03  0.11104623755E+03 0.  0.
         23    2    1    2    0    0 -0.11760380085E+02  0.20715535840E+02  0.54784587398E+01  0.95025195028E+02  0.91827742078E+02 0.  0.
          5    1    3    3  502    0  0.43034554581E+02  0.20536415189E+02 -0.72887568718E+02  0.87199697880E+02  0.41800000000E+01 0. -1.
         -5    1    3    3    0  502 -0.31274174496E+02 -0.41251951028E+02 -0.87443960552E+01  0.52666254057E+02  0.41800000000E+01 0.  1.
        -11    1    4    4    0    0  0.34344565644E+02 -0.11677862609E+02  0.12214589706E+02  0.38276858101E+02  0.00000000000E+00 0. -1.
         11    1    4    4    0    0 -0.46104945728E+02  0.32393398448E+02 -0.67361309664E+01  0.56748336927E+02  0.00000000000E+00 0.  1.
</event>
<event>
 8    1  0.4798744E-006  0.6451793E+02  0.7561462E-02  0.1379794E+00
         -2   -1    0    0    0  501 -0.00000000000E+00  0.00000000000E+00  0.90881977657E+02  0.90881977657E+02  0.00000000000E+00 0.  1.
          2   -1    0    0  501    0  0.00000000000E+00 -0.00000000000E+00 -0.14473242026E+03  0.14473242026E+03  0.00000000000E+00 0. -1.
         23    2    1    2    0    0  0.75770097698E+01 -0.32203117174E+02 -0.65664147345E+01  0.12955743145E+03  0.12509020109E+03 0.  0.
         23    2    1    2    0    0 -0.75770097698E+01  0.32203117174E+02 -0.47284027871E+02  0.10605696647E+03  0.88982296066E+02 0.  0.
          5    1    3    3  502    0  0.27247741510E+02 -0.52700747724E+02  0.42227317251E+02  0.72941256846E+02  0.41800000000E+01 0. -1.
         -5    1    3    3    0  502 -0.19670731740E+02  0.20497630550E+02 -0.48793731985E+02  0.56616174600E+02  0.41800000000E+01 0. -1.
        -11    1    4    4    0    0  0.71735548794E+01  0.21376962582E+02 -0.71918686978E+02  0.75370630590E+02  0.00000000000E+00 0. -1.
         11    1    4    4    0    0 -0.14750564649E+02  0.10826154592E+02  0.24634659107E+02  0.30686335885E+02  0.00000000000E+00 0.  1.
</event>
<event>
 8    1  0.4798744E-006  0.1558626E+03  0.7561462E-02  0.1193449E+00
          1   -1    0    0  501    0  0.00000000000E+00  0.00000000000E+00  0.37479774177E+03  0.37479774177E+03  0.00000000000E+00 0. -1.
         -1   -1    0    0    0  501 -0.00000000000E+00 -0.00000000000E+00 -0.80631065470E+02  0.80631065470E+02  0.00000000000E+00 0.  1.
         23    2    1    2    0    0  0.12787286765E+03 -0.24162968122E+02  0.10778680656E+03  0.21023994859E+03  0.12509005159E+03 0.  0.
         23    2    1    2    0    0 -0.12787286765E+03  0.24162968122E+02  0.18637986974E+03  0.24518885865E+03  0.91895599747E+02 0.  0.
          5    1    3    3  502    0  0.83420485452E+02  0.24053790494E+02  0.11497610763E+03  0.14413375717E+03  0.41800000000E+01 0. -1.
         -5    1    3    3    0  502  0.44452382196E+02 -0.48216758616E+02 -0.71893010692E+01  0.66106191421E+02  0.41800000000E+01 0. -1.
        -11    1    4    4    0    0 -0.90075458637E+02  0.59008380664E+02  0.13208774635E+03  0.17041933568E+03  0.00000000000E+00 0.  1.
         11    1    4    4    0    0 -0.37797409010E+02 -0.34845412542E+02  0.54292123383E+02  0.74769522966E+02  0.00000000000E+00 0. -1.
</event>
<event>
 7    1  0.4798744E-006  0.1211453E+03  0.7561462E-02  0.1241219E+00
         -1   -1    0    0    0  501 -0.00000000000E+00  0.00000000000E+00  0.25824185323E+02  0.25824185323E+02  0.00000000000E+00 0.  1.
          1   -1    0    0  501    0  0.00000000000E+00 -0.00000000000E+00 -0.63825288080E+03  0.63825288080E+03  0.00000000000E+00 0. -1.
         23    2    1    2    0    0  0.13070942399E+02 -0.33989459505E+02 -0.30636015093E+03  0.32170840027E+03  0.91179053711E+02 0.  0.
          5    1    1    2  502    0 -0.18619525728E+02 -0.57942176860E+02 -0.11290140622E+03  0.12832841667E+03  0.41800000000E+01 0. -1.
         -5    1    1    2    0  502  0.55485833289E+01  0.91931636365E+02 -0.19316713833E+03  0.21404024918E+03  0.41800000000E+01 0.  1.
        -11    1    3    3    0    0 -0.14367539707E+02 -0.53519146291E+02 -0.24986666545E+03  0.25593764030E+03  0.00000000000E+00 0. -1.
         11    1    3    3    0    0  0.27438482106E+02  0.19529686786E+02 -0.56493485477E+02  0.65770759974E+02  0.00000000000E+00 0.  1.
</event>
<event>
 8    1  0.4798744E-006  0.1032759E+03  0.7561462E-02  0.1273554E+00
         -1   -1    0    0    0  501 -0.00000000000E+00  0.00000000000E+00  0.42496295901E+03  0.42496295901E+03  0.00000000000E+00 0.  1.
          1   -1    0    0  501    0  0.00000000000E+00 -0.00000000000E+00 -0.31995088646E+02  0.31995088646E+02  0.00000000000E+00 0. -1.
         23    2    1    2    0    0  0.25004985977E+02  0.23302997974E+02  0.27498683481E+03  0.30402815155E+03  0.12508828313E+03 0.  0.
         23    2    1    2    0    0 -0.25004985977E+02 -0.23302997974E+02  0.11798103556E+03  0.15292989611E+03  0.91102960082E+02 0.  0.
          5    1    3    3  502    0  0.58836596964E+02 -0.29896321678E+02  0.15194419779E+03  0.16571073241E+03  0.41800000000E+01 0.  1.
         -5    1    3    3    0  502 -0.33831610987E+02  0.53199319652E+02  0.12304263702E+03  0.13831741914E+03  0.41800000000E+01 0.  1.
        -11    1    4    4    0    0 -0.14270500081E+02  0.24441559032E+02  0.36132609786E+01  0.28532308623E+02  0.00000000000E+00 0. -1.
         11    1    4    4    0    0 -0.10734485896E+02 -0.47744557006E+02  0.11436777458E+03  0.12439758749E+03  0.00000000000E+00 0.  1.
</event>
<event>
 8    1  0.4798744E-006  0.1480383E+03  0.7561462E-02  0.1202904E+00
         -2   -1    0    0    0  501 -0.00000000000E+00  0.00000000000E+00  0.10540292619E+03  0.10540292619E+03  0.00000000000E+00 0.  1.
          2   -1    0    0  501    0  0.00000000000E+00 -0.00000000000E+00 -0.27580084839E+03  0.27580084839E+03  0.00000000000E+00 0. -1.
         23    2    1    2    0    0 -0.68764415400E+02 -0.95175429842E+02 -0.25054818577E+02  0.17338808478E+03  0.12509507080E+03 0.  0.
         23    2    1    2    0    0  0.68764415400E+02  0.95175429842E+02 -0.14534310362E+03  0.20781568980E+03  0.90971621328E+02 0.  0.
          5    1    3    3  502    0 -0.11631791545E+02 -0.92196126268E+02 -0.55629240043E+02  0.10838592631E+03  0.41800000000E+01 0. -1.
         -5    1    3    3    0  502 -0.57132623856E+02 -0.29793035740E+01  0.30574421467E+02  0.65002158475E+02  0.41800000000E+01 0. -1.
        -11    1    4    4    0    0 -0.19867804569E+02  0.81360899869E+01 -0.87519030031E+01  0.23184508294E+02  0.00000000000E+00 0.  1.
         11    1    4    4    0    0  0.88632219969E+02  0.87039339855E+02 -0.13659120062E+03  0.18463118151E+03  0.00000000000E+00 0. -1.
</event>
<event>
 8    1  0.4798744E-006  0.9771679E+02  0.7561462E-02  0.1285172E+00
          2   -1    0    0  501    0  0.00000000000E+00  0.00000000000E+00  0.10770720919E+03  0.10770720919E+03  0.00000000000E+00 0. -1.
         -2   -1    0    0    0  501 -0.00000000000E+00 -0.00000000000E+00 -0.11614132974E+03  0.11614132974E+03  0.00000000000E+00 0.  1.
         23    2    1    2    0    0 -0.23996910180E+02 -0.66926762394E+01 -0.23225011388E+02  0.12964158336E+03  0.12508755081E+03 0.  0.
         23    2    1    2    0    0  0.23996910180E+02  0.66926762394E+01  0.14790890840E+02  0.94206955573E+02  0.89641153568E+02 0.  0.
          5    1    3    3  502    0 -0.32694910237E+02  0.42533968877E+02 -0.49410683482E+02  0.73054662452E+02  0.41800000000E+01 0. -1.
         -5    1    3    3    0  502  0.86980000570E+01 -0.49226645116E+02  0.26185672095E+02  0.56586920904E+02  0.41800000000E+01 0. -1.
        -11    1    4    4    0    0  0.37728823249E+02  0.40269970792E+02  0.41140309867E+00  0.55184272251E+02  0.00000000000E+00 0. -1.
         11    1    4    4    0    0 -0.13731913070E+02 -0.33577294552E+02  0.14379487741E+02  0.39022683322E+02  0.00000000000E+00 0.  1.
</event>
<event>
 8    1  0.4798744E-006  0.1180864E+03  0.7561462E-02  0.1246288E+00
         -4   -1    0    0    0  501 -0.00000000000E+00  0.00000000000E+00  0.82353332941E+03  0.82353332941E+03  0.00000000000E+00 0.  1.
          4   -1    0    0  501    0  0.00000000000E+00 -0.00000000000E+00 -0.22891115445E+02  0.22891115445E+02  0.00000000000E+00 0. -1.
         23    2    1    2    0    0 -0.62297960428E+02 -0.33246355832E+01  0.61388834546E+03  0.62960179568E+03  0.12508969327E+03 0.  0.
         23    2    1    2    0    0  0.62297960428E+02  0.33246355832E+01  0.18675386850E+03  0.21682264917E+03  0.90790774400E+02 0.  0.
          5    1    3    3  502    0  0.38039563670E+02 -0.59405638962E+01  0.19807559397E+03  0.20182594489E+03  0.41800000000E+01 0.  1.
         -5    1    3    3    0  502 -0.10033752410E+03  0.26159283131E+01  0.41581275149E+03  0.42777585080E+03  0.41800000000E+01 0.  1.
        -11    1    4    4    0    0  0.62893099350E+02 -0.25711036289E+02  0.17050467042E+03  0.18354411450E+03  0.00000000000E+00 0.  1.
         11    1    4    4    0    0 -0.59513892250E+00  0.29035671872E+02  0.16249198088E+02  0.33278534671E+02  0.00000000000E+00 0. -1.
</event>
<event>
 8    1  0.4798744E-006  0.1024530E+03  0.7561462E-02  0.1275221E+00
         -2   -1    0    0    0  501 -0.00000000000E+00  0.00000000000E+00  0.11964736227E+03  0.11964736227E+03  0.00000000000E+00 0.  1.
          2   -1    0    0  501    0  0.00000000000E+00 -0.00000000000E+00 -0.21698795260E+03  0.21698795260E+03  0.00000000000E+00 0. -1.
         23    2    1    2    0    0  0.81219389907E+02  0.33999497759E+02  0.35351369905E+02  0.15700232092E+03  0.12508978486E+03 0.  0.
         23    2    1    2    0    0 -0.81219389907E+02 -0.33999497759E+02 -0.13269196024E+03  0.17963299394E+03  0.83116190094E+02 0.  0.
          5    1    3    3  502    0  0.25962150468E+02  0.30156478054E+02  0.77536429851E+02  0.87251457177E+02  0.41800000000E+01 0.  1.
         -5    1    3    3    0  502  0.55257239439E+02  0.38430197047E+01 -0.42185059946E+02  0.69750863747E+02  0.41800000000E+01 0.  1.
        -11    1    4    4    0    0 -0.54857391953E+02 -0.53445408294E+02 -0.12399292427E+03  0.14573946064E+03  0.00000000000E+00 0. -1.
         11    1    4    4    0    0 -0.26361997954E+02  0.19445910535E+02 -0.86990359690E+01  0.33893533299E+02  0.00000000000E+00 0.  1.
</event>
<event>
 8    1  0.4798744E-006  0.1097555E+03  0.7561462E-02  0.1261023E+00
         -2   -1    0    0    0  501 -0.00000000000E+00  0.00000000000E+00  0.22448964624E+03  0.22448964624E+03  0.00000000000E+00 0. -1.
          2   -1    0    0  501    0  0.00000000000E+00 -0.00000000000E+00 -0.23902510209E+03  0.23902510209E+03  0.00000000000E+00 0.  1.
         23    2    1    2    0    0 -0.52431693695E+02  0.25189918067E+01  0.18809744483E+03  0.23191460804E+03  0.12509320065E+03 0.  0.
         23    2    1    2    0    0  0.52431693695E+02 -0.25189918067E+01 -0.20263290068E+03  0.23160014029E+03  0.99111577116E+02 0.  0.
          5    1    3    3  502    0  0.35904346440E+02  0.14013321532E+02  0.25304386093E+02  0.46295568138E+02  0.41800000000E+01 0. -1.
         -5    1    3    3    0  502 -0.88336040135E+02 -0.11494329725E+02  0.16279305873E+03  0.18561903990E+03  0.41800000000E+01 0. -1.
        -11    1    4    4    0    0  0.62177283225E+01  0.32809470074E+02 -0.17824194940E+02  0.37852653768E+02  0.00000000000E+00 0. -1.
         11    1    4    4    0    0  0.46213965372E+02 -0.35328461880E+02 -0.18480870574E+03  0.19374748652E+03  0.00000000000E+00 0.  1.
</event>
<event>
 8    1  0.4798744E-006  0.1096148E+03  0.7561462E-02  0.1261285E+00
         -2   -1    0    0    0  501 -0.00000000000E+00  0.00000000000E+00  0.41782963527E+02  0.41782963527E+02  0.00000000000E+00 0.  1.
          2   -1    0    0  501    0  0.00000000000E+00 -0.00000000000E+00 -0.51666294383E+03  0.51666294383E+03  0.00000000000E+00 0. -1.
         23    2    1    2    0    0  0.66842551353E+02 -0.70354823878E+02 -0.28968033590E+03  0.33012126265E+03  0.12509045980E+03 0.  0.
         23    2    1    2    0    0 -0.66842551353E+02  0.70354823878E+02 -0.18519964441E+03  0.22832464471E+03  0.91736073489E+02 0.  0.
          5    1    3    3  502    0  0.76536367889E+01 -0.19679331397E+02  0.75563772760E+01  0.22812835814E+02  0.41800000000E+01 0. -1.
         -5    1    3    3    0  502  0.59188914564E+02 -0.50675492481E+02 -0.29723671317E+03  0.30730842684E+03  0.41800000000E+01 0. -1.
        -11    1    4    4    0    0 -0.55659862787E+02  0.78905227180E+01 -0.37516545759E+02  0.67585293370E+02  0.00000000000E+00 0.  1.
         11    1    4    4    0    0 -0.11182688567E+02  0.62464301160E+02 -0.14768309865E+03  0.16073935134E+03  0.00000000000E+00 0. -1.
</event>
<event>
 8    1  0.4798744E-006  0.1050606E+03  0.7561462E-02  0.1270000E+00
         -2   -1    0    0    0  501 -0.00000000000E+00  0.00000000000E+00  0.32055016228E+02  0.32055016228E+02  0.00000000000E+00 0.  1.
          2   -1    0    0  501    0  0.00000000000E+00 -0.00000000000E+00 -0.45950676702E+03  0.45950676702E+03  0.00000000000E+00 0. -1.
         23    2    1    2    0    0  0.39329296981E+02 -0.18245296997E+02 -0.17432681458E+03  0.21889753932E+03  0.12508641003E+03 0.  0.
         23    2    1    2    0    0 -0.39329296981E+02  0.18245296997E+02 -0.25312493621E+03  0.27266424392E+03  0.91618077480E+02 0.  0.
          5    1    3    3  502    0 -0.36080656281E+02  0.16428039114E+02 -0.22399807534E+02  0.45726556882E+02  0.41800000000E+01 0. -1.
         -5    1    3    3    0  502  0.75409953261E+02 -0.34673336111E+02 -0.15192700705E+03  0.17317098244E+03  0.41800000000E+01 0. -1.
        -11    1    4    4    0    0 -0.10109744364E+02 -0.29495125488E+02 -0.16743510976E+03  0.17031349136E+03  0.00000000000E+00 0. -1.
         11    1    4    4    0    0 -0.29219552617E+02  0.47740422484E+02 -0.85689826450E+02  0.10235075257E+03  0.00000000000E+00 0.  1.
</event>
<event>
 8    1  0.4798744E-006  0.7566582E+02  0.7561462E-02  0.1341822E+00
          2   -1    0    0  501    0  0.00000000000E+00  0.00000000000E+00  0.21868084254E+03  0.21868084254E+03  0.00000000000E+00 0. -1.
         -2   -1    0    0    0  501 -0.00000000000E+00 -0.00000000000E+00 -0.75945615476E+02  0.75945615476E+02  0.00000000000E+00 0.  1.
         23    2    1    2    0    0 -0.32199047728E+02  0.50703140801E+02  0.39679475093E+02  0.14432621309E+03  0.12509199767E+03 0.  0.
         23    2    1    2    0    0  0.32199047728E+02 -0.50703140801E+02  0.10305575198E+03  0.15030024493E+03  0.91444455535E+02 0.  0.
          5    1    3    3  502    0 -0.28409882651E+02  0.25479556079E+02  0.84373419720E+02  0.92696685839E+02  0.41800000000E+01 0. -1.
         -5    1    3    3    0  502 -0.37891650778E+01  0.25223584722E+02 -0.44693944627E+02  0.51629527255E+02  0.41800000000E+01 0. -1.
        -11    1    4    4    0    0  0.46446513191E+02 -0.15250265896E+02  0.10266970385E+02  0.49952576293E+02  0.00000000000E+00 0.  1.
         11    1    4    4    0    0 -0.14247465462E+02 -0.35452874905E+02  0.92788781590E+02  0.10034766863E+03  0.00000000000E+00 0. -1.
</event>
<event>
 8    1  0.4798744E-006  0.1379342E+03  0.7561462E-02  0.1216136E+00
          3   -1    0    0  501    0  0.00000000000E+00  0.00000000000E+00  0.20701854404E+03  0.20701854404E+03  0.00000000000E+00 0. -1.
         -3   -1    0    0    0  501 -0.00000000000E+00 -0.00000000000E+00 -0.13250618836E+03  0.13250618836E+03  0.00000000000E+00 0.  1.
         23    2    1    2    0    0 -0.24096876589E+02  0.11289389541E+03 -0.12425666226E+02  0.17066841769E+03  0.12509044941E+03 0.  0.
         23    2    1    2    0    0  0.24096876589E+02 -0.11289389541E+03  0.86938021910E+02  0.16885631471E+03  0.87341538114E+02 0.  0.
          5    1    3    3  502    0 -0.44910424705E+01 -0.10981055252E+02  0.34479361934E+02  0.36702204787E+02  0.41800000000E+01 0.  1.
         -5    1    3    3    0  502 -0.19605834118E+02  0.12387495066E+03 -0.46905028160E+02  0.13396621290E+03  0.41800000000E+01 0.  1.
        -11    1    4    4    0    0 -0.27305295902E+02 -0.45161561746E+02  0.59450106349E+02  0.79495037509E+02  0.00000000000E+00 0. -1.
         11    1    4    4    0    0  0.51402172491E+02 -0.67732333666E+02  0.27487915561E+02  0.89361277198E+02  0.00000000000E+00 0.  1.
</event>
<event>
 8    1  0.4798744E-006  0.3219978E+03  0.7561462E-02  0.1074734E+00
          2   -1    0    0  501    0  0.00000000000E+00  0.00000000000E+00  0.66974701253E+03  0.66974701253E+03  0.00000000000E+00 0. -1.
         -2   -1    0    0    0  501 -0.00000000000E+00 -0.00000000000E+00 -0.17333954703E+03  0.17333954703E+03  0.00000000000E+00 0.  1.
         23    2    1    2    0    0  0.12800262598E+03  0.28894285213E+03  0.17717538143E+03  0.38328997784E+03  0.12508975688E+03 0.  0.
         23    2    1    2    0    0 -0.12800262598E+03 -0.28894285213E+03  0.31923208407E+03  0.45979658172E+03  0.98138315672E+02 0.  0.
          5    1    3    3  502    0  0.87954031874E+02  0.21025078595E+03  0.18634467425E+03  0.29441996321E+03  0.41800000000E+01 0.  1.
         -5    1    3    3    0  502  0.40048594111E+02  0.78692066181E+02 -0.91692928231E+01  0.88870014633E+02  0.41800000000E+01 0.  1.
        -11    1    4    4    0    0 -0.10183632764E+03 -0.28307962073E+03  0.30853202095E+03  0.43092541959E+03  0.00000000000E+00 0.  1.
         11    1    4    4    0    0 -0.26166298349E+02 -0.58632314024E+01  0.10700063120E+02  0.28871162127E+02  0.00000000000E+00 0. -1.
</event>
<event>
 8    1  0.4798744E-006  0.1025203E+03  0.7561462E-02  0.1275084E+00
         -1   -1    0    0    0  501 -0.00000000000E+00  0.00000000000E+00  0.27080896507E+02  0.27080896507E+02  0.00000000000E+00 0.  1.
          1   -1    0    0  501    0  0.00000000000E+00 -0.00000000000E+00 -0.63737731885E+03  0.63737731885E+03  0.00000000000E+00 0. -1.
         23    2    1    2    0    0 -0.52701851509E+02 -0.48973796569E+02 -0.29166719894E+03  0.32541460365E+03  0.12509592890E+03 0.  0.
         23    2    1    2    0    0  0.52701851509E+02  0.48973796569E+02 -0.31862922341E+03  0.33904361171E+03  0.90829899979E+02 0.  0.
          5    1    3    3  502    0 -0.59485830959E+01  0.19672863184E+02 -0.20213125699E+03  0.20321644776E+03  0.41800000000E+01 0.  1.
         -5    1    3    3    0  502 -0.46753268413E+02 -0.68646659753E+02 -0.89535941950E+02  0.12219815589E+03  0.41800000000E+01 0.  1.
        -11    1    4    4    0    0  0.83697069501E+01  0.55472711635E+02 -0.89908688120E+02  0.10597568556E+03  0.00000000000E+00 0.  1.
         11    1    4    4    0    0  0.44332144559E+02 -0.64989150658E+01 -0.22872053529E+03  0.23306792615E+03  0.00000000000E+00 0. -1.
</event>
<event>
 8    1  0.4798744E-006  0.8730686E+02  0.7561462E-02  0.1309508E+00
         -3   -1    0    0    0  501 -0.00000000000E+00  0.00000000000E+00  0.75489987458E+02  0.75489987458E+02  0.00000000000E+00 0.  1.
          3   -1    0    0  501    0  0.00000000000E+00 -0.00000000000E+00 -0.16483557504E+03  0.16483557504E+03  0.00000000000E+00 0. -1.
         23    2    1    2    0    0  0.23903082558E+02 -0.12605975082E+02 -0.44980988937E+02  0.13565172317E+03  0.12509129734E+03 0.  0.
         23    2    1    2    0    0 -0.23903082558E+02  0.12605975082E+02 -0.44364598649E+02  0.10467383933E+03  0.90874237620E+02 0.  0.
          5    1    3    3  502    0  0.61244439117E+02 -0.30992022547E+02  0.67801620715E+01  0.69100143140E+02  0.41800000000E+01 0. -1.
         -5    1    3    3    0  502 -0.37341356559E+02  0.18386047465E+02 -0.51761151008E+02  0.66551580032E+02  0.41800000000E+01 0. -1.
        -11    1    4    4    0    0 -0.12436287229E+02 -0.23251780793E+02 -0.58731256819E+02  0.64379088822E+02  0.00000000000E+00 0. -1.
         11    1    4    4    0    0 -0.11466795329E+02  0.35857755874E+02  0.14366658169E+02  0.40294750507E+02  0.00000000000E+00 0.  1.
</event>
<event>
 8    1  0.4798744E-006  0.1035271E+03  0.7561462E-02  0.1273049E+00
         -1   -1    0    0    0  501 -0.00000000000E+00  0.00000000000E+00  0.10849151391E+03  0.10849151391E+03  0.00000000000E+00 0.  1.
          1   -1    0    0  501    0  0.00000000000E+00 -0.00000000000E+00 -0.11475823718E+03  0.11475823718E+03  0.00000000000E+00 0. -1.
         23    2    1    2    0    0 -0.19301666154E+02  0.14592514798E+02  0.10505411805E+02  0.12784534533E+03  0.12509425583E+03 0.  0.
         23    2    1    2    0    0  0.19301666154E+02 -0.14592514798E+02 -0.16772135073E+02  0.95404405753E+02  0.90748004484E+02 0.  0.
          5    1    3    3  502    0 -0.64891739318E+02  0.22687547824E+02  0.32802832082E+02  0.76283424481E+02  0.41800000000E+01 0. -1.
         -5    1    3    3    0  502  0.45590073164E+02 -0.80950330254E+01 -0.22297420277E+02  0.51561920850E+02  0.41800000000E+01 0. -1.
        -11    1    4    4    0    0  0.54845137609E+02 -0.64037581850E+01  0.97017266699E-01  0.55217810991E+02  0.00000000000E+00 0.  1.
         11    1    4    4    0    0 -0.35543471455E+02 -0.81887566133E+01 -0.16869152340E+02  0.40186594762E+02  0.00000000000E+00 0. -1.
</event>
<event>
 8    1  0.4798744E-006  0.1045739E+03  0.7561462E-02  0.1270962E+00
          2   -1    0    0  501    0  0.00000000000E+00  0.00000000000E+00  0.78873565642E+03  0.78873565642E+03  0.00000000000E+00 0. -1.
         -2   -1    0    0    0  501 -0.00000000000E+00 -0.00000000000E+00 -0.17253315301E+02  0.17253315301E+02  0.00000000000E+00 0.  1.
         23    2    1    2    0    0 -0.11770675549E+02 -0.26771094883E+02  0.33724744079E+03  0.36088785680E+03  0.12509583741E+03 0.  0.
         23    2    1    2    0    0  0.11770675549E+02  0.26771094883E+02  0.43423490032E+03  0.44510111492E+03  0.93272790892E+02 0.  0.
          5    1    3    3  502    0  0.38143505627E+02  0.22467328286E+02  0.21803300584E+03  0.22252094710E+03  0.41800000000E+01 0. -1.
         -5    1    3    3    0  502 -0.49914181176E+02 -0.49238423169E+02  0.11921443495E+03  0.13836690970E+03  0.41800000000E+01 0. -1.
        -11    1    4    4    0    0  0.51170747464E+02  0.15196923065E+02  0.18661868175E+03  0.19410287026E+03  0.00000000000E+00 0.  1.
         11    1    4    4    0    0 -0.39400071914E+02  0.11574171817E+02  0.24761621858E+03  0.25099824466E+03  0.00000000000E+00 0. -1.
</event>
<event>
 8    1  0.4798744E-006  0.1569444E+03  0.7561462E-02  0.1192190E+00
          1   -1    0    0  501    0  0.00000000000E+00  0.00000000000E+00  0.16274268983E+03  0.16274268983E+03  0.00000000000E+00 0. -1.
         -1   -1    0    0    0  501 -0.00000000000E+00 -0.00000000000E+00 -0.19212800201E+03  0.19212800201E+03  0.00000000000E+00 0.  1.
         23    2    1    2    0    0  0.12996343349E+03 -0.49612963681E+01 -0.65562727662E+02  0.19199537184E+03  0.12509453642E+03 0.  0.
         23    2    1    2    0    0 -0.12996343349E+03  0.49612963681E+01  0.36177415476E+02  0.16287532000E+03  0.91128787821E+02 0.  0.
          5    1    3    3  502    0  0.73377349536E+02 -0.47726031465E+02 -0.80947167637E+02  0.11929763557E+03  0.41800000000E+01 0. -1.
         -5    1    3    3    0  502  0.56586083953E+02  0.42764735097E+02  0.15384439975E+02  0.72697736268E+02  0.41800000000E+01 0. -1.
        -11    1    4    4    0    0 -0.24013037373E+02 -0.34594131273E+02  0.25614306418E+02  0.49289680215E+02  0.00000000000E+00 0. -1.
         11    1    4    4    0    0 -0.10595039612E+03  0.39555427641E+02  0.10563109058E+02  0.11358563979E+03  0.00000000000E+00 0.  1.
</event>
<event>
 8    1  0.4798744E-006  0.9858154E+02  0.7561462E-02  0.1283307E+00
          1   -1    0    0  501    0  0.00000000000E+00  0.00000000000E+00  0.11950580452E+03  0.11950580452E+03  0.00000000000E+00 0. -1.
         -1   -1    0    0    0  501 -0.00000000000E+00 -0.00000000000E+00 -0.10551764992E+03  0.10551764992E+03  0.00000000000E+00 0.  1.
         23    2    1    2    0    0  0.77487661662E+01  0.29136219154E+02  0.22131578995E+02  0.13056135723E+03  0.12508996190E+03 0.  0.
         23    2    1    2    0    0 -0.77487661662E+01 -0.29136219154E+02 -0.81434243979E+01  0.94462097214E+02  0.89150489653E+02 0.  0.
          5    1    3    3  502    0  0.61216725651E+02 -0.75581873549E+01 -0.27599615498E+00  0.61823638435E+02  0.41800000000E+01 0. -1.
         -5    1    3    3    0  502 -0.53467959485E+02  0.36694406509E+02  0.22407575150E+02  0.68737718791E+02  0.41800000000E+01 0. -1.
        -11    1    4    4    0    0 -0.35604974885E+02 -0.11627583567E+02  0.27112583181E+02  0.46238588894E+02  0.00000000000E+00 0. -1.
         11    1    4    4    0    0  0.27856208719E+02 -0.17508635587E+02 -0.35256007579E+02  0.48223508320E+02  0.00000000000E+00 0.  1.
</event>
<event>
 8    1  0.4798744E-006  0.8891714E+02  0.7561462E-02  0.1305495E+00
         -2   -1    0    0    0  501 -0.00000000000E+00  0.00000000000E+00  0.11061469857E+03  0.11061469857E+03  0.00000000000E+00 0. -1.
          2   -1    0    0  501    0  0.00000000000E+00 -0.00000000000E+00 -0.12859374916E+03  0.12859374916E+03  0.00000000000E+00 0.  1.
         23    2    1    2    0    0  0.13003788911E+02  0.12613891174E+02  0.45861075557E+02  0.13445925617E+03  0.12509134479E+03 0.  0.
         23    2    1    2    0    0 -0.13003788911E+02 -0.12613891174E+02 -0.63840126150E+02  0.10474919156E+03  0.81047039728E+02 0.  0.
          5    1    3    3  502    0  0.60185497765E+02 -0.23767129231E+02  0.12464020363E+02  0.66030256525E+02  0.41800000000E+01 0. -1.
         -5    1    3    3    0  502 -0.47181708854E+02  0.36381020405E+02  0.33397055194E+02  0.68428999640E+02  0.41800000000E+01 0. -1.
        -11    1    4    4    0    0 -0.29085220191E+02  0.48924319179E+01  0.67564753049E+01  0.30257823487E+02  0.00000000000E+00 0. -1.
         11    1    4    4    0    0  0.16081431280E+02 -0.17506323092E+02 -0.70596601455E+02  0.74491368072E+02  0.00000000000E+00 0.  1.
</event>
<event>
 8    1  0.4798744E-006  0.1862884E+03  0.7561462E-02  0.1161852E+00
          3   -1    0    0  501    0  0.00000000000E+00  0.00000000000E+00  0.52382673507E+02  0.52382673507E+02  0.00000000000E+00 0. -1.
         -3   -1    0    0    0  501 -0.00000000000E+00 -0.00000000000E+00 -0.76481766436E+03  0.76481766436E+03  0.00000000000E+00 0.  1.
         23    2    1    2    0    0 -0.14592295800E+03  0.80198149117E+02 -0.41046616357E+03  0.46027681883E+03  0.12508807186E+03 0.  0.
         23    2    1    2    0    0  0.14592295800E+03 -0.80198149117E+02 -0.30196882728E+03  0.35692351904E+03  0.92108484943E+02 0.  0.
          5    1    3    3  502    0 -0.45223621739E+02  0.66721743880E+02 -0.29764901720E+03  0.30839808188E+03  0.41800000000E+01 0.  1.
         -5    1    3    3    0  502 -0.10069933626E+03  0.13476405237E+02 -0.11281714638E+03  0.15187873695E+03  0.41800000000E+01 0.  1.
        -11    1    4    4    0    0  0.11206317341E+03 -0.10064777543E+03 -0.23424018528E+03  0.27848984530E+03  0.00000000000E+00 0. -1.
         11    1    4    4    0    0  0.33859784591E+02  0.20449626314E+02 -0.67728642000E+02  0.78433673738E+02  0.00000000000E+00 0.  1.
</event>
<event>
 8    1  0.4798744E-006  0.1049773E+03  0.7561462E-02  0.1270164E+00
         -4   -1    0    0    0  501 -0.00000000000E+00  0.00000000000E+00  0.15116614970E+03  0.15116614970E+03  0.00000000000E+00 0.  1.
          4   -1    0    0  501    0  0.00000000000E+00 -0.00000000000E+00 -0.12085781672E+03  0.12085781672E+03  0.00000000000E+00 0. -1.
         23    2    1    2    0    0 -0.50335045531E+02  0.55635015178E+02  0.48165230511E+02  0.15364119449E+03  0.12512735709E+03 0.  0.
         23    2    1    2    0    0  0.50335045531E+02 -0.55635015178E+02 -0.17856897532E+02  0.11838277192E+03  0.89815033133E+02 0.  0.
          5    1    3    3  502    0  0.13998195814E+02  0.26842769338E+02  0.72725203479E+02  0.78885431943E+02  0.41800000000E+01 0.  1.
         -5    1    3    3    0  502 -0.64333241345E+02  0.28792245840E+02 -0.24559972967E+02  0.74755762551E+02  0.41800000000E+01 0.  1.
        -11    1    4    4    0    0  0.41403512921E+02 -0.76002251193E+02  0.47396239154E+01  0.86677892818E+02  0.00000000000E+00 0.  1.
         11    1    4    4    0    0  0.89315326102E+01  0.20367236015E+02 -0.22596521447E+02  0.31704879107E+02  0.00000000000E+00 0. -1.
</event>
<event>
 8    1  0.4798744E-006  0.1002202E+03  0.7561462E-02  0.1279834E+00
          2   -1    0    0  501    0  0.00000000000E+00  0.00000000000E+00  0.20363781567E+03  0.20363781567E+03  0.00000000000E+00 0. -1.
         -2   -1    0    0    0  501 -0.00000000000E+00 -0.00000000000E+00 -0.85467746665E+02  0.85467746665E+02  0.00000000000E+00 0.  1.
         23    2    1    2    0    0 -0.62414397214E+02 -0.63988188526E+01  0.19968644666E+02  0.14135925661E+03  0.12508873169E+03 0.  0.
         23    2    1    2    0    0  0.62414397214E+02  0.63988188526E+01  0.98201424334E+02  0.14774630572E+03  0.90823726258E+02 0.  0.
          5    1    3    3  502    0 -0.93945231370E+02 -0.21648088472E+02  0.35496559917E+02  0.10281937754E+03  0.41800000000E+01 0. -1.
         -5    1    3    3    0  502  0.31530834157E+02  0.15249269619E+02 -0.15527915251E+02  0.38539879068E+02  0.41800000000E+01 0. -1.
        -11    1    4    4    0    0  0.66488216077E+01  0.10851307599E+02 -0.16080124281E+02  0.20506781861E+02  0.00000000000E+00 0. -1.
         11    1    4    4    0    0  0.55765575606E+02 -0.44524887468E+01  0.11428154862E+03  0.12723952386E+03  0.00000000000E+00 0.  1.
</event>
<event>
 7    1  0.4798744E-006  0.1800139E+03  0.7561462E-02  0.1167790E+00
         -1   -1    0    0    0  501 -0.00000000000E+00  0.00000000000E+00  0.29352181317E+03  0.29352181317E+03  0.00000000000E+00 0.  1.
          1   -1    0    0  501    0  0.00000000000E+00 -0.00000000000E+00 -0.63284697803E+03  0.63284697803E+03  0.00000000000E+00 0. -1.
         23    2    1    2    0    0 -0.12418817018E+02  0.14023772645E+03 -0.54988959483E+03  0.57418114126E+03  0.86513406746E+02 0.  0.
          5    1    1    2  502    0 -0.73227833908E+02 -0.98003114615E+02  0.16245494500E+01  0.12242155731E+03  0.41800000000E+01 0. -1.
         -5    1    1    2    0  502  0.85646650926E+02 -0.42234611836E+02  0.20893988052E+03  0.22976609263E+03  0.41800000000E+01 0.  1.
        -11    1    3    3    0    0 -0.60706382741E+01  0.12885743336E+03 -0.54532252170E+03  0.56037286109E+03  0.00000000000E+00 0. -1.
         11    1    3    3    0    0 -0.63481787437E+01  0.11380293095E+02 -0.45670731312E+01  0.13808280171E+02  0.00000000000E+00 0.  1.
</event>
<event>
 8    1  0.4798744E-006  0.1311087E+03  0.7561462E-02  0.1225820E+00
         -1   -1    0    0    0  501 -0.00000000000E+00  0.00000000000E+00  0.82096267163E+02  0.82096267163E+02  0.00000000000E+00 0. -1.
          1   -1    0    0  501    0  0.00000000000E+00 -0.00000000000E+00 -0.23467167608E+03  0.23467167608E+03  0.00000000000E+00 0.  1.
         23    2    1    2    0    0 -0.23626861344E+02 -0.81389428048E+02 -0.63584809709E+02  0.16392927866E+03  0.12508921937E+03 0.  0.
         23    2    1    2    0    0  0.23626861344E+02  0.81389428048E+02 -0.88990599211E+02  0.15283866458E+03  0.90872785078E+02 0.  0.
          5    1    3    3  502    0 -0.43417690581E+02  0.11504552937E+02 -0.50905386521E+02  0.68016772715E+02  0.41800000000E+01 0. -1.
         -5    1    3    3    0  502  0.19790829237E+02 -0.92893980985E+02 -0.12679423188E+02  0.95912505949E+02  0.41800000000E+01 0. -1.
        -11    1    4    4    0    0  0.27747909816E+02 -0.10784959095E+02 -0.34953067172E+02  0.45912729679E+02  0.00000000000E+00 0. -1.
         11    1    4    4    0    0 -0.41210484717E+01  0.92174387143E+02 -0.54037532038E+02  0.10692593490E+03  0.00000000000E+00 0.  1.
</event>
<event>
 8    1  0.4798744E-006  0.1780681E+03  0.7561462E-02  0.1169686E+00
          2   -1    0    0  501    0  0.00000000000E+00  0.00000000000E+00  0.81294910936E+02  0.81294910936E+02  0.00000000000E+00 0. -1.
         -2   -1    0    0    0  501 -0.00000000000E+00 -0.00000000000E+00 -0.47253428686E+03  0.47253428686E+03  0.00000000000E+00 0.  1.
         23    2    1    2    0    0  0.62778657286E+01  0.16270524995E+03 -0.22154317340E+03  0.30206172189E+03  0.12508995239E+03 0.  0.
         23    2    1    2    0    0 -0.62778657286E+01 -0.16270524995E+03 -0.16969620252E+03  0.25176747590E+03  0.89875752089E+02 0.  0.
          5    1    3    3  502    0  0.35634061087E+02  0.15813251046E+03 -0.13675067406E+03  0.21211764761E+03  0.41800000000E+01 0.  1.
         -5    1    3    3    0  502 -0.29356195359E+02  0.45727394948E+01 -0.84792499345E+02  0.89944074277E+02  0.41800000000E+01 0.  1.
        -11    1    4    4    0    0  0.69897094316E+01 -0.46694653040E+02 -0.11195577638E+03  0.12150449591E+03  0.00000000000E+00 0. -1.
         11    1    4    4    0    0 -0.13267575160E+02 -0.11601059691E+03 -0.57740426132E+02  0.13026297999E+03  0.00000000000E+00 0.  1.
</event>
<event>
 8    1  0.4798744E-006  0.1578779E+03  0.7561462E-02  0.1191114E+00
         -2   -1    0    0    0  501 -0.00000000000E+00  0.00000000000E+00  0.10511012735E+03  0.10511012735E+03  0.00000000000E+00 0.  1.
          2   -1    0    0  501    0  0.00000000000E+00 -0.00000000000E+00 -0.47825662759E+03  0.47825662759E+03  0.00000000000E+00 0. -1.
         23    2    1    2    0    0  0.30770660595E+01 -0.14207361979E+03 -0.18001687407E+02  0.19017453459E+03  0.12509161075E+03 0.  0.
         23    2    1    2    0    0 -0.30770660595E+01  0.14207361979E+03 -0.35514481283E+03  0.39319222036E+03  0.90982978031E+02 0.  0.
          5    1    3    3  502    0  0.11706596361E+02 -0.15591370743E+03 -0.40979984065E+02  0.16168784759E+03  0.41800000000E+01 0. -1.
         -5    1    3    3    0  502 -0.86295303017E+01  0.13840087637E+02  0.22978296658E+02  0.28486687001E+02  0.41800000000E+01 0. -1.
        -11    1    4    4    0    0 -0.35081321061E+01  0.13900485757E+02  0.13073880619E+01  0.14395824349E+02  0.00000000000E+00 0.  1.
         11    1    4    4    0    0  0.43106604662E+00  0.12817313404E+03 -0.35645220089E+03  0.37879639601E+03  0.00000000000E+00 0. -1.
</event>
<event>
 8    1  0.4798744E-006  0.7162752E+02  0.7561462E-02  0.1354644E+00
         -1   -1    0    0    0  501 -0.00000000000E+00  0.00000000000E+00  0.36516959119E+03  0.36516959119E+03  0.00000000000E+00 0.  1.
          1   -1    0    0  501    0  0.00000000000E+00 -0.00000000000E+00 -0.34329686027E+02  0.34329686027E+02  0.00000000000E+00 0. -1.
         23    2    1    2    0    0 -0.21625751653E+02 -0.54867291600E+01  0.22196409987E+03  0.25575856209E+03  0.12508638263E+03 0.  0.
         23    2    1    2    0    0  0.21625751653E+02  0.54867291600E+01  0.10887580530E+03  0.14374071513E+03  0.91157418105E+02 0.  0.
          5    1    3    3  502    0  0.13132877906E+02  0.14681497692E+02 -0.84434993079E+01  0.21835382688E+02  0.41800000000E+01 0. -1.
         -5    1    3    3    0  502 -0.34758629558E+02 -0.20168226852E+02  0.23040759918E+03  0.23392317940E+03  0.41800000000E+01 0. -1.
        -11    1    4    4    0    0 -0.28485971689E+02 -0.10119055905E+02  0.76043820760E+02  0.81832197522E+02  0.00000000000E+00 0.  1.
         11    1    4    4    0    0  0.50111723342E+02  0.15605785065E+02  0.32831984536E+02  0.61908517608E+02  0.00000000000E+00 0. -1.
</event>
<event>
 8    1  0.4798744E-006  0.1837686E+03  0.7561462E-02  0.1164205E+00
          1   -1    0    0  501    0  0.00000000000E+00  0.00000000000E+00  0.39925801475E+03  0.39925801475E+03  0.00000000000E+00 0. -1.
         -1   -1    0    0    0  501 -0.00000000000E+00 -0.00000000000E+00 -0.11330153211E+03  0.11330153211E+03  0.00000000000E+00 0.  1.
         23    2    1    2    0    0  0.15089537810E+03 -0.72745077322E+02  0.61795472553E+02  0.21801055480E+03  0.12509460488E+03 0.  0.
         23    2    1    2    0    0 -0.15089537810E+03  0.72745077322E+02  0.22416101009E+03  0.29454899206E+03  0.91922189233E+02 0.  0.
          5    1    3    3  502    0  0.23490398101E+02  0.27561706760E+02  0.40372642922E+02  0.54395488590E+02  0.41800000000E+01 0.  1.
         -5    1    3    3    0  502  0.12740498000E+03 -0.10030678408E+03  0.21422829631E+02  0.16361506621E+03  0.41800000000E+01 0.  1.
        -11    1    4    4    0    0 -0.61892764457E+02  0.18299378607E+02  0.15884286996E+03  0.17145448051E+03  0.00000000000E+00 0. -1.
         11    1    4    4    0    0 -0.89002613646E+02  0.54445698716E+02  0.65318140127E+02  0.12309451155E+03  0.00000000000E+00 0.  1.
</event>
<event>
 8    1  0.4798744E-006  0.1544311E+03  0.7561462E-02  0.1195131E+00
          2   -1    0    0  501    0  0.00000000000E+00  0.00000000000E+00  0.23846094201E+02  0.23846094201E+02  0.00000000000E+00 0. -1.
         -2   -1    0    0    0  501 -0.00000000000E+00 -0.00000000000E+00 -0.13041937583E+04  0.13041937583E+04  0.00000000000E+00 0.  1.
         23    2    1    2    0    0 -0.10667385071E+02  0.11107704172E+03 -0.99301066707E+03  0.10070598741E+04  0.12508997875E+03 0.  0.
         23    2    1    2    0    0  0.10667385071E+02 -0.11107704172E+03 -0.28733699699E+03  0.32097997837E+03  0.89519240249E+02 0.  0.
          5    1    3    3  502    0 -0.66105004284E+02  0.48293119855E+02 -0.41748658756E+03  0.42545812979E+03  0.41800000000E+01 0. -1.
         -5    1    3    3    0  502  0.55437619212E+02  0.62783921867E+02 -0.57552407951E+03  0.58160174429E+03  0.41800000000E+01 0. -1.
        -11    1    4    4    0    0 -0.35375646562E+02 -0.19176510445E+02 -0.77927676426E+02  0.87703464445E+02  0.00000000000E+00 0.  1.
         11    1    4    4    0    0  0.46043031633E+02 -0.91900531277E+02 -0.20940932057E+03  0.23327651393E+03  0.00000000000E+00 0. -1.
</event>
<event>
 8    1  0.4798744E-006  0.1749373E+03  0.7561462E-02  0.1172795E+00
         -1   -1    0    0    0  501 -0.00000000000E+00  0.00000000000E+00  0.10734124340E+04  0.10734124340E+04  0.00000000000E+00 0.  1.
          1   -1    0    0  501    0  0.00000000000E+00 -0.00000000000E+00 -0.31786884190E+02  0.31786884190E+02  0.00000000000E+00 0. -1.
         23    2    1    2    0    0  0.46207416104E+02  0.13920635247E+03  0.47111655878E+03  0.50903054986E+03  0.12509098633E+03 0.  0.
         23    2    1    2    0    0 -0.46207416104E+02 -0.13920635247E+03  0.57050899099E+03  0.59616876829E+03  0.91777762090E+02 0.  0.
          5    1    3    3  502    0  0.62718669619E+02  0.15491289475E+03  0.43606676942E+03  0.46701534907E+03  0.41800000000E+01 0.  1.
         -5    1    3    3    0  502 -0.16511253515E+02 -0.15706542275E+02  0.35049789366E+02  0.42015200791E+02  0.41800000000E+01 0.  1.
        -11    1    4    4    0    0 -0.45025893987E+02 -0.39747101182E+02  0.33773841586E+03  0.34303702530E+03  0.00000000000E+00 0.  1.
         11    1    4    4    0    0 -0.11815221165E+01 -0.99459251290E+02  0.23277057513E+03  0.25313174299E+03  0.00000000000E+00 0. -1.
</event>
<event>
 8    1  0.4798744E-006  0.8705400E+02  0.7561462E-02  0.1310147E+00
          1   -1    0    0  501    0  0.00000000000E+00  0.00000000000E+00  0.27855415953E+02  0.27855415953E+02  0.00000000000E+00 0. -1.
         -1   -1    0    0    0  501 -0.00000000000E+00 -0.00000000000E+00 -0.58893533790E+03  0.58893533790E+03  0.00000000000E+00 0.  1.
         23    2    1    2    0    0  0.38840255339E+02 -0.17702322668E+02 -0.34693888082E+03  0.37126272583E+03  0.12508991528E+03 0.  0.
         23    2    1    2    0    0 -0.38840255339E+02  0.17702322668E+02 -0.21414104112E+03  0.24552802801E+03  0.11227506128E+03 0.  0.
          5    1    3    3  502    0  0.19676058785E+02 -0.25854176392E+02 -0.34843255486E+03  0.34996900350E+03  0.41800000000E+01 0.  1.
         -5    1    3    3    0  502  0.19164196555E+02  0.81518537235E+01  0.14936740363E+01  0.21293722334E+02  0.41800000000E+01 0.  1.
        -11    1    4    4    0    0 -0.77121561533E+02  0.25132680196E+02 -0.14347414546E+03  0.16481570703E+03  0.00000000000E+00 0.  1.
         11    1    4    4    0    0  0.38281306193E+02 -0.74303575281E+01 -0.70666895661E+02  0.80712320988E+02  0.00000000000E+00 0. -1.
</event>
<event>
 8    1  0.4798744E-006  0.8834666E+02  0.7561462E-02  0.1306906E+00
         -2   -1    0    0    0  501 -0.00000000000E+00  0.00000000000E+00  0.23902187561E+02  0.23902187561E+02  0.00000000000E+00 0.  1.
          2   -1    0    0  501    0  0.00000000000E+00 -0.00000000000E+00 -0.57153953127E+03  0.57153953127E+03  0.00000000000E+00 0. -1.
         23    2    1    2    0    0  0.31820667685E+02 -0.25706603356E+02 -0.36831123735E+03  0.39111314716E+03  0.12507174734E+03 0.  0.
         23    2    1    2    0    0 -0.31820667685E+02  0.25706603356E+02 -0.17932610637E+03  0.20432857167E+03  0.88988361197E+02 0.  0.
          5    1    3    3  502    0  0.46689953503E+02  0.24540740968E+02 -0.30146516081E+03  0.30607338223E+03  0.41800000000E+01 0. -1.
         -5    1    3    3    0  502 -0.14869285818E+02 -0.50247344324E+02 -0.66846076534E+02  0.85039764936E+02  0.41800000000E+01 0. -1.
        -11    1    4    4    0    0  0.17189141407E+02  0.42129269419E+01 -0.54137073840E+00  0.17706168925E+02  0.00000000000E+00 0.  1.
         11    1    4    4    0    0 -0.49009809092E+02  0.21493676414E+02 -0.17878473563E+03  0.18662240275E+03  0.00000000000E+00 0. -1.
</event>
<event>
 8    1  0.4798744E-006  0.9424626E+02  0.7561462E-02  0.1292883E+00
         -1   -1    0    0    0  501 -0.00000000000E+00  0.00000000000E+00  0.97690372136E+03  0.97690372136E+03  0.00000000000E+00 0.  1.
          1   -1    0    0  501    0  0.00000000000E+00 -0.00000000000E+00 -0.13234294054E+02  0.13234294054E+02  0.00000000000E+00 0. -1.
         23    2    1    2    0    0 -0.33177491429E+02 -0.73167895854E+01  0.59872634511E+03  0.61259540330E+03  0.12508241472E+03 0.  0.
         23    2    1    2    0    0  0.33177491429E+02  0.73167895854E+01  0.36494308219E+03  0.37754261211E+03  0.90557657709E+02 0.  0.
          5    1    3    3  502    0  0.21515196960E+02  0.30335718812E+02  0.67177170690E+02  0.76898661874E+02  0.41800000000E+01 0.  1.
         -5    1    3    3    0  502 -0.54692688389E+02 -0.37652508398E+02  0.53154917442E+03  0.53569674143E+03  0.41800000000E+01 0.  1.
        -11    1    4    4    0    0  0.54907526562E+02 -0.11138889498E+02  0.31577636848E+03  0.32070800774E+03  0.00000000000E+00 0.  1.
         11    1    4    4    0    0 -0.21730035133E+02  0.18455679083E+02  0.49166713708E+02  0.56834604373E+02  0.00000000000E+00 0. -1.
</event>
<event>
 8    1  0.4798744E-006  0.1186365E+03  0.7561462E-02  0.1245363E+00
          2   -1    0    0  501    0  0.00000000000E+00  0.00000000000E+00  0.13329114990E+03  0.13329114990E+03  0.00000000000E+00 0. -1.
         -2   -1    0    0    0  501 -0.00000000000E+00 -0.00000000000E+00 -0.13888503688E+03  0.13888503688E+03  0.00000000000E+00 0.  1.
         23    2    1    2    0    0  0.62209564813E+02 -0.35151870038E+02 -0.45386095480E+02  0.15103931984E+03  0.12508914643E+03 0.  0.
         23    2    1    2    0    0 -0.62209564813E+02  0.35151870038E+02  0.39792208493E+02  0.12113686694E+03  0.89359032855E+02 0.  0.
          5    1    3    3  502    0  0.75306375304E+02 -0.72270882113E+02 -0.31868078326E+02  0.10921161742E+03  0.41800000000E+01 0. -1.
         -5    1    3    3    0  502 -0.13096810492E+02  0.37119012075E+02 -0.13518017154E+02  0.41827702426E+02  0.41800000000E+01 0. -1.
        -11    1    4    4    0    0 -0.28553718544E+02  0.49100575735E+02 -0.11766448421E+02  0.58005436716E+02  0.00000000000E+00 0.  1.
         11    1    4    4    0    0 -0.33655846269E+02 -0.13948705697E+02  0.51558656914E+02  0.63131430219E+02  0.00000000000E+00 0. -1.
</event>
<event>
 8    1  0.4798744E-006  0.1163762E+03  0.7561462E-02  0.1249198E+00
          3   -1    0    0  501    0  0.00000000000E+00  0.00000000000E+00  0.52096701616E+02  0.52096701616E+02  0.00000000000E+00 0. -1.
         -3   -1    0    0    0  501 -0.00000000000E+00 -0.00000000000E+00 -0.27961879539E+03  0.27961879539E+03  0.00000000000E+00 0.  1.
         23    2    1    2    0    0 -0.58054999908E+02 -0.15527177152E+02 -0.14125602638E+03  0.19801755684E+03  0.12508481756E+03 0.  0.
         23    2    1    2    0    0  0.58054999908E+02  0.15527177152E+02 -0.86266067402E+02  0.13369794017E+03  0.82594361654E+02 0.  0.
          5    1    3    3  502    0 -0.61430254908E+02  0.44567263523E+02 -0.96790888421E+02  0.12306854057E+03  0.41800000000E+01 0. -1.
         -5    1    3    3    0  502  0.33752550009E+01 -0.60094440676E+02 -0.44465137956E+02  0.74949016270E+02  0.41800000000E+01 0. -1.
        -11    1    4    4    0    0  0.26600799389E+02 -0.30620517763E+02 -0.15205482261E+02  0.43317725321E+02  0.00000000000E+00 0. -1.
         11    1    4    4    0    0  0.31454200518E+02  0.46147694915E+02 -0.71060585141E+02  0.90380214852E+02  0.00000000000E+00 0.  1.
</event>
<event>
 8    1  0.4798744E-006  0.8619193E+02  0.7561462E-02  0.1312345E+00
         -1   -1    0    0    0  501 -0.00000000000E+00  0.00000000000E+00  0.31488858929E+02  0.31488858929E+02  0.00000000000E+00 0.  1.
          1   -1    0    0  501    0  0.00000000000E+00 -0.00000000000E+00 -0.38233104873E+03  0.38233104873E+03  0.00000000000E+00 0. -1.
         23    2    1    2    0    0 -0.13171768266E+02  0.91924852189E+01 -0.19239058645E+03  0.23004238693E+03  0.12508942707E+03 0.  0.
         23    2    1    2    0    0  0.13171768266E+02 -0.91924852189E+01 -0.15845160334E+03  0.18377752072E+03  0.91702067903E+02 0.  0.
          5    1    3    3  502    0  0.34861043897E+02  0.28176040420E+02 -0.16579595146E+03  0.17179916052E+03  0.41800000000E+01 0.  1.
         -5    1    3    3    0  502 -0.48032812163E+02 -0.18983555201E+02 -0.26594634997E+02  0.58243226412E+02  0.41800000000E+01 0.  1.
        -11    1    4    4    0    0 -0.20943217120E+02 -0.29249508665E+02 -0.23083691267E+02  0.42743524690E+02  0.00000000000E+00 0.  1.
         11    1    4    4    0    0  0.34114985386E+02  0.20057023446E+02 -0.13536791208E+03  0.14103399603E+03  0.00000000000E+00 0. -1.
</event>
<event>
 8    1  0.4798744E-006  0.1048252E+03  0.7561462E-02  0.1270464E+00
         -1   -1    0    0    0  501 -0.00000000000E+00  0.00000000000E+00  0.12008369539E+03  0.12008369539E+03  0.00000000000E+00 0.  1.
          1   -1    0    0  501    0  0.00000000000E+00 -0.00000000000E+00 -0.13786495588E+03  0.13786495588E+03  0.00000000000E+00 0. -1.
         23    2    1    2    0    0  0.29122384853E+02  0.27888212268E+01  0.52893309410E+02  0.13892372182E+03  0.12508480116E+03 0.  0.
         23    2    1    2    0    0 -0.29122384853E+02 -0.27888212268E+01 -0.70674569903E+02  0.11902492945E+03  0.91192917354E+02 0.  0.
          5    1    3    3  502    0 -0.46061573383E+01  0.56527121490E+02  0.10412630362E+01  0.56877840835E+02  0.41800000000E+01 0. -1.
         -5    1    3    3    0  502  0.33728542191E+02 -0.53738300263E+02  0.51852046374E+02  0.82045880985E+02  0.41800000000E+01 0. -1.
        -11    1    4    4    0    0 -0.12036657947E+02  0.40716436196E+02 -0.55510611277E+02  0.69886602974E+02  0.00000000000E+00 0. -1.
         11    1    4    4    0    0 -0.17085726906E+02 -0.43505257422E+02 -0.15163958626E+02  0.49138326472E+02  0.00000000000E+00 0.  1.
</event>
<event>
 8    1  0.4798744E-006  0.1235285E+03  0.7561462E-02  0.1237387E+00
         -2   -1    0    0    0  501 -0.00000000000E+00  0.00000000000E+00  0.55408012109E+03  0.55408012109E+03  0.00000000000E+00 0.  1.
          2   -1    0    0  501    0  0.00000000000E+00 -0.00000000000E+00 -0.35071391814E+02  0.35071391814E+02  0.00000000000E+00 0. -1.
         23    2    1    2    0    0  0.22893060486E+02  0.69334890772E+02  0.38336911654E+03  0.40981866947E+03  0.12509213818E+03 0.  0.
         23    2    1    2    0    0 -0.22893060486E+02 -0.69334890772E+02  0.13563961274E+03  0.17933284344E+03  0.91819087853E+02 0.  0.
          5    1    3    3  502    0  0.66008187493E+02  0.30653647516E+02  0.29646573296E+03  0.30529679025E+03  0.41800000000E+01 0.  1.
         -5    1    3    3    0  502 -0.43115127007E+02  0.38681243256E+02  0.86903383581E+02  0.10452187921E+03  0.41800000000E+01 0.  1.
        -11    1    4    4    0    0  0.34852099054E+02 -0.32046842519E+02  0.68305784888E+02  0.83110463680E+02  0.00000000000E+00 0.  1.
         11    1    4    4    0    0 -0.57745159541E+02 -0.37288048253E+02  0.67333827852E+02  0.96222379757E+02  0.00000000000E+00 0. -1.
</event>
<event>
 8    1  0.4798744E-006  0.1301470E+03  0.7561462E-02  0.1227238E+00
          2   -1    0    0  501    0  0.00000000000E+00  0.00000000000E+00  0.50387189697E+03  0.50387189697E+03  0.00000000000E+00 0. -1.
         -2   -1    0    0    0  501 -0.00000000000E+00 -0.00000000000E+00 -0.43621304424E+02  0.43621304424E+02  0.00000000000E+00 0.  1.
         23    2    1    2    0    0 -0.61443443786E+01  0.99356361669E+02  0.22456030763E+03  0.27565282010E+03  0.12509079061E+03 0.  0.
         23    2    1    2    0    0  0.61443443786E+01 -0.99356361669E+02  0.23569028492E+03  0.27184038129E+03  0.91857731976E+02 0.  0.
          5    1    3    3  502    0  0.53956294115E+02  0.44669275468E+02  0.61028537985E+02  0.92997745640E+02  0.41800000000E+01 0. -1.
         -5    1    3    3    0  502 -0.60100638494E+02  0.54687086202E+02  0.16353176964E+03  0.18265507446E+03  0.41800000000E+01 0. -1.
        -11    1    4    4    0    0 -0.12922969751E+02 -0.81876346600E+02  0.84187267373E+02  0.11814497563E+03  0.00000000000E+00 0.  1.
         11    1    4    4    0    0  0.19067314129E+02 -0.17480015069E+02  0.15150301754E+03  0.15369540566E+03  0.00000000000E+00 0. -1.
</event>
<event>
 8    1  0.4798744E-006  0.6032666E+02  0.7561462E-02  0.1396466E+00
         -2   -1    0    0    0  501 -0.00000000000E+00  0.00000000000E+00  0.38291208288E+02  0.38291208288E+02  0.00000000000E+00 0.  1.
          2   -1    0    0  501    0  0.00000000000E+00 -0.00000000000E+00 -0.39670814892E+03  0.39670814892E+03  0.00000000000E+00 0. -1.
         23    2    1    2    0    0  0.12293477001E+02 -0.52426314066E+02 -0.15963331171E+03  0.20983315386E+03  0.12509000866E+03 0.  0.
         23    2    1    2    0    0 -0.12293477001E+02  0.52426314066E+02 -0.19878362892E+03  0.22516620335E+03  0.91023293837E+02 0.  0.
          5    1    3    3  502    0  0.15936464329E+02 -0.72601629264E+01  0.18597609831E+02  0.25884828616E+02  0.41800000000E+01 0. -1.
         -5    1    3    3    0  502 -0.36429873279E+01 -0.45166151140E+02 -0.17823092155E+03  0.18394832524E+03  0.41800000000E+01 0. -1.
        -11    1    4    4    0    0 -0.13869529540E+02  0.18205578076E+02  0.56672738513E+00  0.22893844209E+02  0.00000000000E+00 0.  1.
         11    1    4    4    0    0  0.15760525388E+01  0.34220735990E+02 -0.19935035630E+03  0.20227235914E+03  0.00000000000E+00 0. -1.
</event>
<event>
 8    1  0.4798744E-006  0.2251942E+03  0.7561462E-02  0.1130069E+00
         -1   -1    0    0    0  501 -0.00000000000E+00  0.00000000000E+00  0.37787479038E+02  0.37787479038E+02  0.00000000000E+00 0.  1.
          1   -1    0    0  501    0  0.00000000000E+00 -0.00000000000E+00 -0.13602113405E+04  0.13602113405E+04  0.00000000000E+00 0. -1.
         23    2    1    2    0    0 -0.91863661860E+02  0.17548614226E+03 -0.73979535700E+03  0.77600214812E+03  0.12509134725E+03 0.  0.
         23    2    1    2    0    0  0.91863661860E+02 -0.17548614226E+03 -0.58262850448E+03  0.62199667144E+03  0.90496223924E+02 0.  0.
          5    1    3    3  502    0  0.30227640428E+02  0.33583090930E+02 -0.18404894615E+03  0.18956007286E+03  0.41800000000E+01 0. -1.
         -5    1    3    3    0  502 -0.12209130229E+03  0.14190305133E+03 -0.55574641084E+03  0.58644207526E+03  0.41800000000E+01 0. -1.
        -11    1    4    4    0    0  0.39862035639E+02 -0.15793011593E+03 -0.43463212362E+03  0.46415082277E+03  0.00000000000E+00 0.  1.
         11    1    4    4    0    0  0.52001626221E+02 -0.17556026336E+02 -0.14799638087E+03  0.15784584866E+03  0.00000000000E+00 0. -1.
</event>
<event>
 8    1  0.4798744E-006  0.1030004E+03  0.7561462E-02  0.1274110E+00
         -2   -1    0    0    0  501 -0.00000000000E+00  0.00000000000E+00  0.13383611931E+02  0.13383611931E+02  0.00000000000E+00 0.  1.
          2   -1    0    0  501    0  0.00000000000E+00 -0.00000000000E+00 -0.11689751024E+04  0.11689751024E+04  0.00000000000E+00 0. -1.
         23    2    1    2    0    0  0.56580356923E+02 -0.29765360573E+02 -0.61831994354E+03  0.63407794421E+03  0.12509185937E+03 0.  0.
         23    2    1    2    0    0 -0.56580356923E+02  0.29765360573E+02 -0.53727154695E+03  0.54828077014E+03  0.88677924315E+02 0.  0.
          5    1    3    3  502    0  0.14774054193E+02 -0.48702025656E+02 -0.87875383780E+02  0.10163520775E+03  0.41800000000E+01 0. -1.
         -5    1    3    3    0  502  0.41806302730E+02  0.18936665082E+02 -0.53044455976E+03  0.53244273646E+03  0.41800000000E+01 0. -1.
        -11    1    4    4    0    0  0.15355797992E+01  0.47935822282E+02 -0.26222344300E+03  0.26657332035E+03  0.00000000000E+00 0.  1.
         11    1    4    4    0    0 -0.58115936722E+02 -0.18170461708E+02 -0.27504810395E+03  0.28170744979E+03  0.00000000000E+00 0. -1.
</event>
<event>
 8    1  0.4798744E-006  0.1089239E+03  0.7561462E-02  0.1262576E+00
         -1   -1    0    0    0  501 -0.00000000000E+00  0.00000000000E+00  0.14673855819E+03  0.14673855819E+03  0.00000000000E+00 0.  1.
          1   -1    0    0  501    0  0.00000000000E+00 -0.00000000000E+00 -0.13720059333E+03  0.13720059333E+03  0.00000000000E+00 0. -1.
         23    2    1    2    0    0 -0.22812085318E+02  0.36129651753E+02  0.86939301884E+02  0.15821394672E+03  0.12508983872E+03 0.  0.
         23    2    1    2    0    0  0.22812085318E+02 -0.36129651753E+02 -0.77401337018E+02  0.12572520480E+03  0.89387455377E+02 0.  0.
          5    1    3    3  502    0  0.32190342321E+01 -0.38917535994E+02 -0.14533434608E+01  0.39300399444E+02  0.41800000000E+01 0.  1.
         -5    1    3    3    0  502 -0.26031119550E+02  0.75047187748E+02  0.88392645344E+02  0.11891354727E+03  0.41800000000E+01 0.  1.
        -11    1    4    4    0    0 -0.23079725919E+02  0.17118651907E+02 -0.24179393093E+02  0.37554827146E+02  0.00000000000E+00 0. -1.
         11    1    4    4    0    0  0.45891811237E+02 -0.53248303661E+02 -0.53221943925E+02  0.88170377659E+02  0.00000000000E+00 0.  1.
</event>
<event>
 8    1  0.4798744E-006  0.1062207E+03  0.7561462E-02  0.1267733E+00
          2   -1    0    0  501    0  0.00000000000E+00  0.00000000000E+00  0.10766996011E+03  0.10766996011E+03  0.00000000000E+00 0. -1.
         -2   -1    0    0    0  501 -0.00000000000E+00 -0.00000000000E+00 -0.23453426264E+03  0.23453426264E+03  0.00000000000E+00 0.  1.
         23    2    1    2    0    0  0.40989496129E+02  0.57974153969E+02 -0.16709327785E+03  0.22047520089E+03  0.12509200368E+03 0.  0.
         23    2    1    2    0    0 -0.40989496129E+02 -0.57974153969E+02  0.40228975331E+02  0.12172902186E+03  0.90324099690E+02 0.  0.
          5    1    3    3  502    0  0.16311278814E+02 -0.23342946786E+02  0.43229638103E+01  0.29105178187E+02  0.41800000000E+01 0.  1.
         -5    1    3    3    0  502  0.24678217315E+02  0.81317100755E+02 -0.17141624166E+03  0.19137002271E+03  0.41800000000E+01 0.  1.
        -11    1    4    4    0    0 -0.53257822641E+02 -0.65318278201E+02  0.58338362821E+01  0.84480215348E+02  0.00000000000E+00 0.  1.
         11    1    4    4    0    0  0.12268326512E+02  0.73441242317E+01  0.34395139049E+02  0.37248806509E+02  0.00000000000E+00 0. -1.
</event>
<event>
 8    1  0.4798744E-006  0.1562103E+03  0.7561462E-02  0.1193043E+00
         -1   -1    0    0    0  501 -0.00000000000E+00  0.00000000000E+00  0.91200870601E+02  0.91200870601E+02  0.00000000000E+00 0.  1.
          1   -1    0    0  501    0  0.00000000000E+00 -0.00000000000E+00 -0.43122551049E+03  0.43122551049E+03  0.00000000000E+00 0. -1.
         23    2    1    2    0    0 -0.25515913639E+02 -0.11911836656E+03 -0.22478200512E+02  0.17604839701E+03  0.12509005353E+03 0.  0.
         23    2    1    2    0    0  0.25515913639E+02  0.11911836656E+03 -0.31754643938E+03  0.34637798408E+03  0.65587495701E+02 0.  0.
          5    1    3    3  502    0 -0.40213970843E+02  0.12289146042E+02 -0.35118181850E+01  0.42402733737E+02  0.41800000000E+01 0. -1.
         -5    1    3    3    0  502  0.14698057204E+02 -0.13140751260E+03 -0.18966382327E+02  0.13364566328E+03  0.41800000000E+01 0. -1.
        -11    1    4    4    0    0  0.34382020133E+02  0.23049322267E+02 -0.10905830306E+03  0.11664950935E+03  0.00000000000E+00 0. -1.
         11    1    4    4    0    0 -0.88661064938E+01  0.96069044294E+02 -0.20848813632E+03  0.22972847473E+03  0.00000000000E+00 0.  1.
</event>
<event>
 8    1  0.4798744E-006  0.1097505E+03  0.7561462E-02  0.1261033E+00
          2   -1    0    0  501    0  0.00000000000E+00  0.00000000000E+00  0.28251913838E+03  0.28251913838E+03  0.00000000000E+00 0. -1.
         -2   -1    0    0    0  501 -0.00000000000E+00 -0.00000000000E+00 -0.46739167715E+02  0.46739167715E+02  0.00000000000E+00 0.  1.
         23    2    1    2    0    0 -0.34691996331E+02 -0.23206703333E+02  0.12506640225E+03  0.18011239920E+03  0.12270609474E+03 0.  0.
         23    2    1    2    0    0  0.34691996331E+02  0.23206703333E+02  0.11071356842E+03  0.14914590690E+03  0.90801550773E+02 0.  0.
          5    1    3    3  502    0 -0.10192447978E+02  0.45678351146E+02  0.83746928814E+02  0.96028215880E+02  0.41800000000E+01 0. -1.
         -5    1    3    3    0  502 -0.24499548352E+02 -0.68885054479E+02  0.41319473436E+02  0.84084183323E+02  0.41800000000E+01 0.  1.
        -11    1    4    4    0    0  0.62955847566E+02  0.30698278564E+02  0.85582997702E+02  0.11059056264E+03  0.00000000000E+00 0. -1.
         11    1    4    4    0    0 -0.28263851235E+02 -0.74915752309E+01  0.25130570716E+02  0.38555344255E+02  0.00000000000E+00 0.  1.
</event>
<event>
 8    1  0.4798744E-006  0.1039401E+03  0.7561462E-02  0.1272222E+00
          2   -1    0    0  501    0  0.00000000000E+00  0.00000000000E+00  0.96902530019E+02  0.96902530019E+02  0.00000000000E+00 0.  1.
         -2   -1    0    0    0  501 -0.00000000000E+00 -0.00000000000E+00 -0.18492942117E+03  0.18492942117E+03  0.00000000000E+00 0. -1.
         23    2    1    2    0    0  0.58937224975E+02  0.46817882349E+02 -0.71489420984E+02  0.16255371461E+03  0.12508981664E+03 0.  0.
         23    2    1    2    0    0 -0.58937224975E+02 -0.46817882349E+02 -0.16537470171E+02  0.11927823658E+03  0.91040096696E+02 0.  0.
          5    1    3    3  502    0 -0.49486926179E+01 -0.18259938995E+02  0.23734600414E+02  0.30638514774E+02  0.41800000000E+01 0.  1.
         -5    1    3    3    0  502  0.63885917593E+02  0.65077821344E+02 -0.95224021398E+02  0.13191519984E+03  0.41800000000E+01 0.  1.
        -11    1    4    4    0    0 -0.56321976480E+02 -0.63687960654E+01  0.24363030245E+02  0.61695087654E+02  0.00000000000E+00 0.  1.
         11    1    4    4    0    0 -0.26152484953E+01 -0.40449086284E+02 -0.40900500416E+02  0.57583148926E+02  0.00000000000E+00 0. -1.
</event>
<event>
 8    1  0.4798744E-006  0.1544118E+03  0.7561462E-02  0.1195154E+00
         -2   -1    0    0    0  501 -0.00000000000E+00  0.00000000000E+00  0.32596268584E+02  0.32596268584E+02  0.00000000000E+00 0.  1.
          2   -1    0    0  501    0  0.00000000000E+00 -0.00000000000E+00 -0.90662740518E+03  0.90662740518E+03  0.00000000000E+00 0. -1.
         23    2    1    2    0    0 -0.12853372059E+03  0.47001853977E+02 -0.45883968229E+03  0.49275062928E+03  0.11635822707E+03 0.  0.
         23    2    1    2    0    0  0.12853372059E+03 -0.47001853977E+02 -0.41519145431E+03  0.44647304449E+03  0.90687066967E+02 0.  0.
          5    1    3    3  502    0 -0.13224726616E+02 -0.10245160269E+02 -0.22601112718E+03  0.22666794813E+03  0.41800000000E+01 0. -1.
         -5    1    3    3    0  502 -0.11530899397E+03  0.57247014247E+02 -0.23282855511E+03  0.26608268114E+03  0.41800000000E+01 0.  1.
        -11    1    4    4    0    0 -0.10417062667E+02  0.82032059286E+01 -0.20533256851E+02  0.24442226147E+02  0.00000000000E+00 0.  1.
         11    1    4    4    0    0  0.13895078325E+03 -0.55205059906E+02 -0.39465819746E+03  0.42203081834E+03  0.00000000000E+00 0. -1.
</event>
<event>
 8    1  0.4798744E-006  0.1733472E+03  0.7561462E-02  0.1174402E+00
         -1   -1    0    0    0  501 -0.00000000000E+00  0.00000000000E+00  0.71254196942E+02  0.71254196942E+02  0.00000000000E+00 0.  1.
          1   -1    0    0  501    0  0.00000000000E+00 -0.00000000000E+00 -0.47842122423E+03  0.47842122423E+03  0.00000000000E+00 0. -1.
         23    2    1    2    0    0 -0.13453515846E+03  0.65860558016E+02 -0.21321662269E+03  0.28904392940E+03  0.12509093880E+03 0.  0.
         23    2    1    2    0    0  0.13453515846E+03 -0.65860558016E+02 -0.19395040459E+03  0.26063149177E+03  0.88739467520E+02 0.  0.
          5    1    3    3  502    0 -0.19761674377E+02 -0.36107318858E+02 -0.50689219155E+02  0.65430356776E+02  0.41800000000E+01 0. -1.
         -5    1    3    3    0  502 -0.11477348408E+03  0.10196787687E+03 -0.16252740354E+03  0.22361357263E+03  0.41800000000E+01 0. -1.
        -11    1    4    4    0    0  0.62258266330E+02 -0.17144133793E+02 -0.22653228665E+02  0.68433776886E+02  0.00000000000E+00 0.  1.
         11    1    4    4    0    0  0.72276892127E+02 -0.48716424223E+02 -0.17129717593E+03  0.19219771488E+03  0.00000000000E+00 0. -1.
</event>
<event>
 8    1  0.4798744E-006  0.1201326E+03  0.7561462E-02  0.1242878E+00
          1   -1    0    0  501    0  0.00000000000E+00  0.00000000000E+00  0.52334631781E+03  0.52334631781E+03  0.00000000000E+00 0.  1.
         -1   -1    0    0    0  501 -0.00000000000E+00 -0.00000000000E+00 -0.39597595809E+02  0.39597595809E+02  0.00000000000E+00 0. -1.
         23    2    1    2    0    0  0.19321397972E+02 -0.71537315701E+02  0.15537075655E+03  0.21278682937E+03  0.12508900353E+03 0.  0.
         23    2    1    2    0    0 -0.19321397972E+02  0.71537315701E+02  0.32837796545E+03  0.35015708425E+03  0.96369038085E+02 0.  0.
          5    1    3    3  502    0  0.50573494553E+02  0.98188398370E+01  0.29138813474E+02  0.59334903874E+02  0.41800000000E+01 0.  1.
         -5    1    3    3    0  502 -0.31252096581E+02 -0.81356155538E+02  0.12623194308E+03  0.15345192549E+03  0.41800000000E+01 0.  1.
        -11    1    4    4    0    0  0.14433276945E+02  0.65454963497E+02  0.29419318931E+03  0.30173217324E+03  0.00000000000E+00 0.  1.
         11    1    4    4    0    0 -0.33754674917E+02  0.60823522037E+01  0.34184776141E+02  0.48424911016E+02  0.00000000000E+00 0. -1.
</event>
<event>
 8    1  0.4798744E-006  0.1829238E+03  0.7561462E-02  0.1165003E+00
          1   -1    0    0  501    0  0.00000000000E+00  0.00000000000E+00  0.74561520121E+03  0.74561520121E+03  0.00000000000E+00 0. -1.
         -1   -1    0    0    0  501 -0.00000000000E+00 -0.00000000000E+00 -0.58427805850E+02  0.58427805850E+02  0.00000000000E+00 0.  1.
         23    2    1    2    0    0 -0.92509534472E+02 -0.14198451668E+03  0.46334232691E+03  0.50897078275E+03  0.12509008293E+03 0.  0.
         23    2    1    2    0    0  0.92509534472E+02  0.14198451668E+03  0.22384506846E+03  0.29507222431E+03  0.90793094127E+02 0.  0.
          5    1    3    3  502    0 -0.73758709015E+02 -0.78340203780E+02  0.40950211368E+03  0.42342294245E+03  0.41800000000E+01 0.  1.
         -5    1    3    3    0  502 -0.18750825457E+02 -0.63644312904E+02  0.53840213225E+02  0.85547840302E+02  0.41800000000E+01 0.  1.
        -11    1    4    4    0    0 -0.10928158446E+01 -0.11694894096E+02  0.88157918836E+01  0.14686149289E+02  0.00000000000E+00 0.  1.
         11    1    4    4    0    0  0.93602350317E+02  0.15367941078E+03  0.21502927658E+03  0.28038607502E+03  0.00000000000E+00 0. -1.
</event>
<event>
 8    1  0.4798744E-006  0.1187112E+03  0.7561462E-02  0.1245238E+00
          1   -1    0    0  501    0  0.00000000000E+00  0.00000000000E+00  0.21249555471E+03  0.21249555471E+03  0.00000000000E+00 0. -1.
         -1   -1    0    0    0  501 -0.00000000000E+00 -0.00000000000E+00 -0.11529658592E+03  0.11529658592E+03  0.00000000000E+00 0.  1.
         23    2    1    2    0    0 -0.48866363040E+02  0.92740915157E+02  0.97050620899E+01  0.16349455332E+03  0.12508989549E+03 0.  0.
         23    2    1    2    0    0  0.48866363040E+02 -0.92740915157E+02  0.87493906700E+02  0.16429758731E+03  0.91376773338E+02 0.  0.
          5    1    3    3  502    0 -0.30566832136E+02  0.99342242277E+02  0.52337710503E+02  0.11644707239E+03  0.41800000000E+01 0. -1.
         -5    1    3    3    0  502 -0.18299530905E+02 -0.66013271198E+01 -0.42632648413E+02  0.47047480929E+02  0.41800000000E+01 0. -1.
        -11    1    4    4    0    0 -0.55709515747E+01 -0.29664552664E+02 -0.13758738839E+02  0.33171133243E+02  0.00000000000E+00 0.  1.
         11    1    4    4    0    0  0.54437314615E+02 -0.63076362493E+02  0.10125264554E+03  0.13112645407E+03  0.00000000000E+00 0. -1.
</event>
<event>
 8    1  0.4798744E-006  0.1030144E+03  0.7561462E-02  0.1274082E+00
         -1   -1    0    0    0  501 -0.00000000000E+00  0.00000000000E+00  0.68206786231E+03  0.68206786231E+03  0.00000000000E+00 0.  1.
          1   -1    0    0  501    0  0.00000000000E+00 -0.00000000000E+00 -0.93215113155E+02  0.93215113155E+02  0.00000000000E+00 0. -1.
         23    2    1    2    0    0 -0.30477631148E+02 -0.32866687099E+02  0.64568189898E+03  0.65921274564E+03  0.12508886532E+03 0.  0.
         23    2    1    2    0    0  0.30477631148E+02  0.32866687099E+02 -0.56829149825E+02  0.11607022982E+03  0.90739411832E+02 0.  0.
          5    1    3    3  502    0  0.40549337321E+02 -0.54030856555E+01  0.39634867290E+03  0.39847607833E+03  0.41800000000E+01 0.  1.
         -5    1    3    3    0  502 -0.71026968470E+02 -0.27463601443E+02  0.24933322607E+03  0.26073666731E+03  0.41800000000E+01 0.  1.
        -11    1    4    4    0    0  0.42709586333E+02 -0.10167348583E+02 -0.20340380283E+00  0.43903588863E+02  0.00000000000E+00 0.  1.
         11    1    4    4    0    0 -0.12231955185E+02  0.43034035682E+02 -0.56625746022E+02  0.72166640958E+02  0.00000000000E+00 0. -1.
</event>
<event>
 8    1  0.4798744E-006  0.9084300E+02  0.7561462E-02  0.1300823E+00
         -1   -1    0    0    0  501 -0.00000000000E+00  0.00000000000E+00  0.54616209645E+02  0.54616209645E+02  0.00000000000E+00 0.  1.
          1   -1    0    0  501    0  0.00000000000E+00 -0.00000000000E+00 -0.31390082942E+03  0.31390082942E+03  0.00000000000E+00 0. -1.
         23    2    1    2    0    0  0.19216272147E+02 -0.61912462744E+01 -0.42506712818E+02  0.13365704999E+03  0.12509911963E+03 0.  0.
         23    2    1    2    0    0 -0.19216272147E+02  0.61912462744E+01 -0.21677790696E+03  0.23485998908E+03  0.88084941268E+02 0.  0.
          5    1    3    3  502    0 -0.26367099283E+02 -0.30170574262E+02  0.25924453767E+02  0.47906546307E+02  0.41800000000E+01 0.  1.
         -5    1    3    3    0  502  0.45583371429E+02  0.23979327988E+02 -0.68431166585E+02  0.85750503682E+02  0.41800000000E+01 0.  1.
        -11    1    4    4    0    0 -0.52785554460E+02 -0.77959000730E+01 -0.14236958669E+03  0.15204009350E+03  0.00000000000E+00 0. -1.
         11    1    4    4    0    0  0.33569282313E+02  0.13987146347E+02 -0.74408320268E+02  0.82819895575E+02  0.00000000000E+00 0.  1.
</event>
<event>
 8    1  0.4798744E-006  0.3467389E+03  0.7561462E-02  0.1063962E+00
         -1   -1    0    0    0  501 -0.00000000000E+00  0.00000000000E+00  0.25526153827E+03  0.25526153827E+03  0.00000000000E+00 0.  1.
          1   -1    0    0  501    0  0.00000000000E+00 -0.00000000000E+00 -0.52197748246E+03  0.52197748246E+03  0.00000000000E+00 0. -1.
         23    2    1    2    0    0  0.27407829300E+03  0.20565066612E+03 -0.20266893280E+03  0.41729294538E+03  0.12509036243E+03 0.  0.
         23    2    1    2    0    0 -0.27407829300E+03 -0.20565066612E+03 -0.64047011383E+02  0.35994607535E+03  0.89710926456E+02 0.  0.
          5    1    3    3  502    0  0.14522999372E+03  0.11018121225E+03 -0.17831026319E+03  0.25503661104E+03  0.41800000000E+01 0. -1.
         -5    1    3    3    0  502  0.12884829928E+03  0.95469453868E+02 -0.24358669603E+02  0.16225633434E+03  0.41800000000E+01 0. -1.
        -11    1    4    4    0    0 -0.22649139559E+03 -0.12944145099E+03 -0.69388572916E+02  0.26994113351E+03  0.00000000000E+00 0. -1.
         11    1    4    4    0    0 -0.47586897411E+02 -0.76209215135E+02  0.53415615334E+01  0.90004941844E+02  0.00000000000E+00 0.  1.
</event>
<event>
 8    1  0.4798744E-006  0.1613536E+03  0.7561462E-02  0.1187177E+00
          1   -1    0    0  501    0  0.00000000000E+00  0.00000000000E+00  0.98002709037E+03  0.98002709037E+03  0.00000000000E+00 0. -1.
         -1   -1    0    0    0  501 -0.00000000000E+00 -0.00000000000E+00 -0.42880522777E+02  0.42880522777E+02  0.00000000000E+00 0.  1.
         23    2    1    2    0    0  0.12144472273E+03 -0.49157577582E+02  0.20545105054E+03  0.27390368749E+03  0.12509119770E+03 0.  0.
         23    2    1    2    0    0 -0.12144472273E+03  0.49157577582E+02  0.73169551705E+03  0.74900392565E+03  0.91995993705E+02 0.  0.
          5    1    3    3  502    0  0.86281163140E+02 -0.78437040216E+02  0.83207729504E+02  0.14331017773E+03  0.41800000000E+01 0. -1.
         -5    1    3    3    0  502  0.35163559589E+02  0.29279462634E+02  0.12224332103E+03  0.13059350976E+03  0.41800000000E+01 0. -1.
        -11    1    4    4    0    0 -0.17404987117E+02  0.53185596492E+02  0.25172371775E+03  0.25786909728E+03  0.00000000000E+00 0.  1.
         11    1    4    4    0    0 -0.10403973561E+03 -0.40280189106E+01  0.47997179930E+03  0.49113482838E+03  0.00000000000E+00 0. -1.
</event>
<event>
 8    1  0.4798744E-006  0.1420483E+03  0.7561462E-02  0.1210599E+00
         -2   -1    0    0    0  501 -0.00000000000E+00  0.00000000000E+00  0.40807224097E+03  0.40807224097E+03  0.00000000000E+00 0.  1.
          2   -1    0    0  501    0  0.00000000000E+00 -0.00000000000E+00 -0.69319212952E+02  0.69319212952E+02  0.00000000000E+00 0. -1.
         23    2    1    2    0    0  0.10254034898E+03  0.59269251722E+02  0.24656897015E+03  0.30078457948E+03  0.12509092231E+03 0.  0.
         23    2    1    2    0    0 -0.10254034898E+03 -0.59269251722E+02  0.92184057870E+02  0.17660687444E+03  0.93084478867E+02 0.  0.
          5    1    3    3  502    0  0.48967580214E+02 -0.10080453832E+02  0.13801656151E+02  0.52032658725E+02  0.41800000000E+01 0. -1.
         -5    1    3    3    0  502  0.53572768768E+02  0.69349705553E+02  0.23276731400E+03  0.24875192076E+03  0.41800000000E+01 0. -1.
        -11    1    4    4    0    0 -0.20458508388E+02  0.22448037526E+02  0.31853402525E+01  0.30538686068E+02  0.00000000000E+00 0.  1.
         11    1    4    4    0    0 -0.82081840594E+02 -0.81717289248E+02  0.88998717617E+02  0.14606818837E+03  0.00000000000E+00 0. -1.
</event>
<event>
 8    1  0.4798744E-006  0.1314310E+03  0.7561462E-02  0.1225348E+00
         -2   -1    0    0    0  501 -0.00000000000E+00  0.00000000000E+00  0.22468407230E+03  0.22468407230E+03  0.00000000000E+00 0. -1.
          2   -1    0    0  501    0  0.00000000000E+00 -0.00000000000E+00 -0.97831637568E+02  0.97831637568E+02  0.00000000000E+00 0.  1.
         23    2    1    2    0    0 -0.89272743587E+02 -0.20129525356E+02  0.11573138481E+03  0.19343091872E+03  0.12508775460E+03 0.  0.
         23    2    1    2    0    0  0.89272743587E+02  0.20129525356E+02  0.11121049929E+02  0.12908479115E+03  0.90356986534E+02 0.  0.
          5    1    3    3  502    0 -0.28699134726E+02  0.51285724316E+02  0.61354272229E+02  0.85062829564E+02  0.41800000000E+01 0.  1.
         -5    1    3    3    0  502 -0.60573608861E+02 -0.71415249671E+02  0.54377112576E+02  0.10836808916E+03  0.41800000000E+01 0.  1.
        -11    1    4    4    0    0  0.15765547554E+02 -0.20778593788E+02 -0.26275912886E+02  0.37023317619E+02  0.00000000000E+00 0.  1.
         11    1    4    4    0    0  0.73507196033E+02  0.40908119144E+02  0.37396962815E+02  0.92061473529E+02  0.00000000000E+00 0. -1.
</event>
<event>
 8    1  0.4798744E-006  0.1408898E+03  0.7561462E-02  0.1212137E+00
          1   -1    0    0  501    0  0.00000000000E+00  0.00000000000E+00  0.23004282498E+03  0.23004282498E+03  0.00000000000E+00 0. -1.
         -1   -1    0    0    0  501 -0.00000000000E+00 -0.00000000000E+00 -0.91661517883E+02  0.91661517883E+02  0.00000000000E+00 0.  1.
         23    2    1    2    0    0  0.61427335676E+02  0.74730466275E+02  0.66216660285E+02  0.17143459734E+03  0.12508882807E+03 0.  0.
         23    2    1    2    0    0 -0.61427335676E+02 -0.74730466275E+02  0.72164646812E+02  0.15026974552E+03  0.89528207913E+02 0.  0.
          5    1    3    3  502    0  0.82649193393E+02  0.96462412332E+02  0.48588004390E+02  0.13606672162E+03  0.41800000000E+01 0. -1.
         -5    1    3    3    0  502 -0.21221857716E+02 -0.21731946057E+02  0.17628655895E+02  0.35367875721E+02  0.41800000000E+01 0. -1.
        -11    1    4    4    0    0 -0.65114753920E+02 -0.88440265897E+02  0.43206498887E+02  0.11801869918E+03  0.00000000000E+00 0.  1.
         11    1    4    4    0    0  0.36874182438E+01  0.13709799622E+02  0.28958147926E+02  0.32251046344E+02  0.00000000000E+00 0. -1.
</event>
<event>
 8    1  0.4798744E-006  0.9815880E+02  0.7561462E-02  0.1284216E+00
          3   -1    0    0  501    0  0.00000000000E+00  0.00000000000E+00  0.40132647653E+02  0.40132647653E+02  0.00000000000E+00 0. -1.
         -3   -1    0    0    0  501 -0.00000000000E+00 -0.00000000000E+00 -0.29669718248E+03  0.29669718248E+03  0.00000000000E+00 0.  1.
         23    2    1    2    0    0  0.83815599196E+01  0.27069989655E+01 -0.15407956975E+03  0.19865225215E+03  0.12507847569E+03 0.  0.
         23    2    1    2    0    0 -0.83815599196E+01 -0.27069989655E+01 -0.10248496508E+03  0.13817757798E+03  0.92262108147E+02 0.  0.
          5    1    3    3  502    0 -0.33991068601E+02 -0.35378020321E+02 -0.20436034265E+02  0.53311358667E+02  0.41800000000E+01 0. -1.
         -5    1    3    3    0  502  0.42372628521E+02  0.38085019286E+02 -0.13364353548E+03  0.14534089348E+03  0.41800000000E+01 0. -1.
        -11    1    4    4    0    0 -0.48707062780E+02  0.47692881863E+01 -0.72077052109E+02  0.87121900319E+02  0.00000000000E+00 0. -1.
         11    1    4    4    0    0  0.40325502860E+02 -0.74762871519E+01 -0.30407912969E+02  0.51055677663E+02  0.00000000000E+00 0.  1.
</event>
<event>
 8    1  0.4798744E-006  0.1229039E+03  0.7561462E-02  0.1238382E+00
         -1   -1    0    0    0  501 -0.00000000000E+00  0.00000000000E+00  0.15001879884E+03  0.15001879884E+03  0.00000000000E+00 0.  1.
          1   -1    0    0  501    0  0.00000000000E+00 -0.00000000000E+00 -0.15987988318E+03  0.15987988318E+03  0.00000000000E+00 0. -1.
         23    2    1    2    0    0  0.13911438530E+02  0.98619725605E+02  0.41752643947E+02  0.16526278957E+03  0.12509647453E+03 0.  0.
         23    2    1    2    0    0 -0.13911438530E+02 -0.98619725605E+02 -0.51613728285E+02  0.14463589246E+03  0.91302716492E+02 0.  0.
          5    1    3    3  502    0  0.51697332046E+01  0.10115661255E+03  0.77839437700E+02  0.12781172429E+03  0.41800000000E+01 0.  1.
         -5    1    3    3    0  502  0.87417053253E+01 -0.25368869459E+01 -0.36086793753E+02  0.37451065282E+02  0.41800000000E+01 0.  1.
        -11    1    4    4    0    0 -0.48693372796E+02 -0.29217616192E+02 -0.14600649496E+02  0.58633545142E+02  0.00000000000E+00 0. -1.
         11    1    4    4    0    0  0.34781934266E+02 -0.69402109413E+02 -0.37013078789E+02  0.86002347315E+02  0.00000000000E+00 0.  1.
</event>
<event>
 8    1  0.4798744E-006  0.8514568E+02  0.7561462E-02  0.1315052E+00
         -2   -1    0    0    0  501 -0.00000000000E+00  0.00000000000E+00  0.13316041423E+03  0.13316041423E+03  0.00000000000E+00 0.  1.
          2   -1    0    0  501    0  0.00000000000E+00 -0.00000000000E+00 -0.94722377749E+02  0.94722377749E+02  0.00000000000E+00 0. -1.
         23    2    1    2    0    0  0.13727964441E+02  0.66235820735E+01  0.48805013891E+02  0.13513622946E+03  0.12509013664E+03 0.  0.
         23    2    1    2    0    0 -0.13727964441E+02 -0.66235820735E+01 -0.10366977412E+02  0.92746562516E+02  0.90896214391E+02 0.  0.
          5    1    3    3  502    0 -0.30203707732E+02 -0.21979376956E+02  0.69185163340E+02  0.78736371510E+02  0.41800000000E+01 0.  1.
         -5    1    3    3    0  502  0.43931672174E+02  0.28602959030E+02 -0.20380149449E+02  0.56399857950E+02  0.41800000000E+01 0.  1.
        -11    1    4    4    0    0  0.11158264954E+02  0.32155935153E+02  0.18134267622E+02  0.38566341601E+02  0.00000000000E+00 0.  1.
         11    1    4    4    0    0 -0.24886229396E+02 -0.38779517226E+02 -0.28501245034E+02  0.54180220914E+02  0.00000000000E+00 0. -1.
</event>
<event>
 8    1  0.4798744E-006  0.1291489E+03  0.7561462E-02  0.1228724E+00
         -2   -1    0    0    0  501 -0.00000000000E+00  0.00000000000E+00  0.11641592640E+03  0.11641592640E+03  0.00000000000E+00 0.  1.
          2   -1    0    0  501    0  0.00000000000E+00 -0.00000000000E+00 -0.16787512867E+03  0.16787512867E+03  0.00000000000E+00 0. -1.
         23    2    1    2    0    0 -0.70663003266E+02  0.29414053394E+02  0.16497947038E+02  0.14757415930E+03  0.12508998229E+03 0.  0.
         23    2    1    2    0    0  0.70663003266E+02 -0.29414053394E+02 -0.67957149316E+02  0.13671689577E+03  0.90636024170E+02 0.  0.
          5    1    3    3  502    0 -0.83474515923E+02  0.66633011960E+02  0.88220161316E+01  0.10725322121E+03  0.41800000000E+01 0.  1.
         -5    1    3    3    0  502  0.12811512657E+02 -0.37218958566E+02  0.76759309063E+01  0.40320938091E+02  0.41800000000E+01 0.  1.
        -11    1    4    4    0    0  0.57960200200E+02  0.19605135178E+02 -0.59557880373E+02  0.85386692447E+02  0.00000000000E+00 0. -1.
         11    1    4    4    0    0  0.12702803066E+02 -0.49019188572E+02 -0.83992689425E+01  0.51330203319E+02  0.00000000000E+00 0.  1.
</event>
<event>
 8    1  0.4798744E-006  0.8097000E+02  0.7561462E-02  0.1326321E+00
          4   -1    0    0  501    0  0.00000000000E+00  0.00000000000E+00  0.75143561222E+02  0.75143561222E+02  0.00000000000E+00 0. -1.
         -4   -1    0    0    0  501 -0.00000000000E+00 -0.00000000000E+00 -0.20050064186E+03  0.20050064186E+03  0.00000000000E+00 0.  1.
         23    2    1    2    0    0  0.23021128930E+02 -0.43579476343E+02 -0.10412159419E+03  0.17005028793E+03  0.12508657368E+03 0.  0.
         23    2    1    2    0    0 -0.23021128930E+02  0.43579476343E+02 -0.21235486453E+02  0.10559391515E+03  0.90939462814E+02 0.  0.
          5    1    3    3  502    0  0.77155207851E+01 -0.43886105405E+02  0.17013957786E+02  0.47879710402E+02  0.41800000000E+01 0. -1.
         -5    1    3    3    0  502  0.15305608145E+02  0.30662906248E+00 -0.12113555197E+03  0.12217057753E+03  0.41800000000E+01 0. -1.
        -11    1    4    4    0    0  0.67041670371E+01 -0.25365302224E+02 -0.15082005452E+02  0.30262374346E+02  0.00000000000E+00 0.  1.
         11    1    4    4    0    0 -0.29725295967E+02  0.68944778567E+02 -0.61534810007E+01  0.75331540807E+02  0.00000000000E+00 0. -1.
</event>
<event>
 8    1  0.4798744E-006  0.1519714E+03  0.7561462E-02  0.1198071E+00
          2   -1    0    0  501    0  0.00000000000E+00  0.00000000000E+00  0.68465428048E+03  0.68465428048E+03  0.00000000000E+00 0. -1.
         -2   -1    0    0    0  501 -0.00000000000E+00 -0.00000000000E+00 -0.37414255467E+02  0.37414255467E+02  0.00000000000E+00 0.  1.
         23    2    1    2    0    0  0.50664449497E+02 -0.87272970500E+02  0.38631019076E+03  0.41840974653E+03  0.12509074582E+03 0.  0.
         23    2    1    2    0    0 -0.50664449497E+02  0.87272970500E+02  0.26092983426E+03  0.30365878942E+03  0.11807126729E+03 0.  0.
          5    1    3    3  502    0  0.48905295944E+02 -0.11539022991E+03  0.35285217379E+03  0.37447131008E+03  0.41800000000E+01 0.  1.
         -5    1    3    3    0  502  0.17591535537E+01  0.28117259413E+02  0.33458016971E+02  0.43938436451E+02  0.41800000000E+01 0.  1.
        -11    1    4    4    0    0 -0.10114084650E+02  0.10523213273E+03  0.14430020943E+03  0.17888165615E+03  0.00000000000E+00 0.  1.
         11    1    4    4    0    0 -0.40550364847E+02 -0.17959162228E+02  0.11662962483E+03  0.12477713326E+03  0.00000000000E+00 0. -1.
</event>
<event>
 8    1  0.4798744E-006  0.1081584E+03  0.7561462E-02  0.1264019E+00
          3   -1    0    0  501    0  0.00000000000E+00  0.00000000000E+00  0.21904731485E+03  0.21904731485E+03  0.00000000000E+00 0.  1.
         -3   -1    0    0    0  501 -0.00000000000E+00 -0.00000000000E+00 -0.88517644862E+02  0.88517644862E+02  0.00000000000E+00 0. -1.
         23    2    1    2    0    0 -0.18293353992E+02  0.50315924558E+02 -0.37701970876E+01  0.13611533538E+03  0.12508729382E+03 0.  0.
         23    2    1    2    0    0  0.18293353992E+02 -0.50315924558E+02  0.13429986707E+03  0.17144962433E+03  0.92153026662E+02 0.  0.
          5    1    3    3  502    0 -0.48342571488E+02 -0.20816966994E+02  0.17988588207E+02  0.55780032615E+02  0.41800000000E+01 0. -1.
         -5    1    3    3    0  502  0.30049217496E+02  0.71132891552E+02 -0.21758785294E+02  0.80335302764E+02  0.41800000000E+01 0. -1.
        -11    1    4    4    0    0 -0.56287410854E+01  0.15322013309E+02  0.83476271911E+02  0.85057244196E+02  0.00000000000E+00 0.  1.
         11    1    4    4    0    0  0.23922095077E+02 -0.65637937867E+02  0.50823595163E+02  0.86392380136E+02  0.00000000000E+00 0. -1.
</event>
<event>
 8    1  0.4798744E-006  0.1117569E+03  0.7561462E-02  0.1257350E+00
         -2   -1    0    0    0  501 -0.00000000000E+00  0.00000000000E+00  0.12860381989E+03  0.12860381989E+03  0.00000000000E+00 0.  1.
          2   -1    0    0  501    0  0.00000000000E+00 -0.00000000000E+00 -0.14375949741E+03  0.14375949741E+03  0.00000000000E+00 0. -1.
         23    2    1    2    0    0  0.19231195635E+02  0.26267377156E+02  0.67398554323E+02  0.14578350786E+03  0.12510176678E+03 0.  0.
         23    2    1    2    0    0 -0.19231195635E+02 -0.26267377156E+02 -0.82554231839E+02  0.12657980945E+03  0.90263131880E+02 0.  0.
          5    1    3    3  502    0  0.71365821385E+02  0.68596435336E+01  0.26252729210E+02  0.76464458164E+02  0.41800000000E+01 0.  1.
         -5    1    3    3    0  502 -0.52134625750E+02  0.19407733622E+02  0.41145825113E+02  0.69319049695E+02  0.41800000000E+01 0.  1.
        -11    1    4    4    0    0  0.32562559349E+02  0.83466214902E+01 -0.27122892817E+02  0.43193028099E+02  0.00000000000E+00 0.  1.
         11    1    4    4    0    0 -0.51793754984E+02 -0.34613998646E+02 -0.55431339023E+02  0.83386781347E+02  0.00000000000E+00 0. -1.
</event>
<event>
 8    1  0.4798744E-006  0.9324319E+02  0.7561462E-02  0.1295183E+00
          1   -1    0    0  501    0  0.00000000000E+00  0.00000000000E+00  0.12544499141E+03  0.12544499141E+03  0.00000000000E+00 0. -1.
         -1   -1    0    0    0  501 -0.00000000000E+00 -0.00000000000E+00 -0.27799967987E+03  0.27799967987E+03  0.00000000000E+00 0.  1.
         23    2    1    2    0    0 -0.20436805977E+02 -0.92071769703E+01 -0.24131083396E+03  0.27272894058E+03  0.12509085217E+03 0.  0.
         23    2    1    2    0    0  0.20436805977E+02  0.92071769703E+01  0.88756145499E+02  0.13071573070E+03  0.93308701327E+02 0.  0.
          5    1    3    3  502    0 -0.64087436518E+02  0.27067576068E+02 -0.14451766144E+03  0.16044525565E+03  0.41800000000E+01 0.  1.
         -5    1    3    3    0  502  0.43650630540E+02 -0.36274753038E+02 -0.96793172522E+02  0.11228368493E+03  0.41800000000E+01 0.  1.
        -11    1    4    4    0    0  0.30791469098E+02 -0.14483326096E+02  0.97622641566E+02  0.10338308106E+03  0.00000000000E+00 0. -1.
         11    1    4    4    0    0 -0.10354663121E+02  0.23690503066E+02 -0.88664960663E+01  0.27332649640E+02  0.00000000000E+00 0.  1.
</event>
<event>
 8    1  0.4798744E-006  0.1188714E+03  0.7561462E-02  0.1244971E+00
          1   -1    0    0  501    0  0.00000000000E+00  0.00000000000E+00  0.71113545794E+02  0.71113545794E+02  0.00000000000E+00 0. -1.
         -1   -1    0    0    0  501 -0.00000000000E+00 -0.00000000000E+00 -0.25028247764E+03  0.25028247764E+03  0.00000000000E+00 0.  1.
         23    2    1    2    0    0  0.55071508158E+02  0.41887618497E+02 -0.14245544068E+03  0.20181277187E+03  0.12508956278E+03 0.  0.
         23    2    1    2    0    0 -0.55071508158E+02 -0.41887618497E+02 -0.36713491171E+02  0.11958325157E+03  0.90359449023E+02 0.  0.
          5    1    3    3  502    0  0.31572484806E+02  0.86487608258E+02 -0.86805446128E+02  0.12660800155E+03  0.41800000000E+01 0.  1.
         -5    1    3    3    0  502  0.23499023352E+02 -0.44599989761E+02 -0.55649994547E+02  0.75204770316E+02  0.41800000000E+01 0.  1.
        -11    1    4    4    0    0 -0.24776967284E+02  0.16114101389E+02  0.17724243068E+02  0.34463185629E+02  0.00000000000E+00 0.  1.
         11    1    4    4    0    0 -0.30294540874E+02 -0.58001719886E+02 -0.54437734240E+02  0.85120065940E+02  0.00000000000E+00 0. -1.
</event>
<event>
 8    1  0.4798744E-006  0.9936637E+02  0.7561462E-02  0.1281634E+00
         -2   -1    0    0    0  501 -0.00000000000E+00  0.00000000000E+00  0.17880238435E+03  0.17880238435E+03  0.00000000000E+00 0.  1.
          2   -1    0    0  501    0  0.00000000000E+00 -0.00000000000E+00 -0.13785864169E+03  0.13785864169E+03  0.00000000000E+00 0. -1.
         23    2    1    2    0    0  0.94828436079E+01 -0.91119582635E+01  0.13578223741E+03  0.18508664625E+03  0.12508916227E+03 0.  0.
         23    2    1    2    0    0 -0.94828436079E+01  0.91119582635E+01 -0.94838494753E+02  0.13157437979E+03  0.90247023346E+02 0.  0.
          5    1    3    3  502    0 -0.11680265227E+02 -0.62123974860E+02  0.97347518982E+02  0.11614572183E+03  0.41800000000E+01 0. -1.
         -5    1    3    3    0  502  0.21163108834E+02  0.53012016596E+02  0.38434718430E+02  0.68940924420E+02  0.41800000000E+01 0. -1.
        -11    1    4    4    0    0 -0.25444052086E+02  0.37655533136E+02 -0.19516845278E+02  0.49459541162E+02  0.00000000000E+00 0.  1.
         11    1    4    4    0    0  0.15961208478E+02 -0.28543574873E+02 -0.75321649475E+02  0.82114838624E+02  0.00000000000E+00 0. -1.
</event>
<event>
 8    1  0.4798744E-006  0.6830038E+02  0.7561462E-02  0.1365970E+00
          4   -1    0    0  501    0  0.00000000000E+00  0.00000000000E+00  0.89099587672E+02  0.89099587672E+02  0.00000000000E+00 0. -1.
         -4   -1    0    0    0  501 -0.00000000000E+00 -0.00000000000E+00 -0.18284243241E+03  0.18284243241E+03  0.00000000000E+00 0.  1.
         23    2    1    2    0    0 -0.18920677288E+02 -0.23831599261E+02 -0.11446300482E+03  0.17226256724E+03  0.12508667174E+03 0.  0.
         23    2    1    2    0    0  0.18920677288E+02  0.23831599261E+02  0.20720160090E+02  0.99679452836E+02  0.92632235918E+02 0.  0.
          5    1    3    3  502    0 -0.55971353586E+02 -0.36246011228E+02 -0.19673487069E+02  0.69649725381E+02  0.41800000000E+01 0.  1.
         -5    1    3    3    0  502  0.37050676298E+02  0.12414411967E+02 -0.94789517756E+02  0.10261284186E+03  0.41800000000E+01 0.  1.
        -11    1    4    4    0    0  0.10247041941E+02  0.14423531619E+02  0.57803357973E+02  0.60450544463E+02  0.00000000000E+00 0. -1.
         11    1    4    4    0    0  0.86736353473E+01  0.94080676424E+01 -0.37083197883E+02  0.39228908373E+02  0.00000000000E+00 0.  1.
</event>
<event>
 8    1  0.4798744E-006  0.2912330E+03  0.7561462E-02  0.1089707E+00
         -1   -1    0    0    0  501 -0.00000000000E+00  0.00000000000E+00  0.16626463535E+04  0.16626463535E+04  0.00000000000E+00 0.  1.
          1   -1    0    0  501    0  0.00000000000E+00 -0.00000000000E+00 -0.12771641731E+03  0.12771641731E+03  0.00000000000E+00 0. -1.
         23    2    1    2    0    0  0.64763028124E+02 -0.28221101037E+03  0.14390100708E+04  0.14723210043E+04  0.11463791441E+03 0.  0.
         23    2    1    2    0    0 -0.64763028124E+02  0.28221101037E+03  0.95919865342E+02  0.31804176653E+03  0.90070197665E+02 0.  0.
          5    1    3    3  502    0  0.41113128231E+02 -0.10623123334E+03  0.32889172114E+03  0.34808418649E+03  0.41800000000E+01 0. -1.
         -5    1    3    3    0  502  0.23649899893E+02 -0.17597977703E+03  0.11101183497E+04  0.11242368178E+04  0.41800000000E+01 0.  1.
        -11    1    4    4    0    0 -0.53289017665E+02  0.17209544622E+03  0.10224634939E+03  0.20714940979E+03  0.00000000000E+00 0.  1.
         11    1    4    4    0    0 -0.11474010459E+02  0.11011556415E+03 -0.63264840433E+01  0.11089235675E+03  0.00000000000E+00 0. -1.
</event>
<event>
 8    1  0.4798744E-006  0.1046510E+03  0.7561462E-02  0.1270809E+00
          1   -1    0    0  501    0  0.00000000000E+00  0.00000000000E+00  0.69373704117E+02  0.69373704117E+02  0.00000000000E+00 0. -1.
         -1   -1    0    0    0  501 -0.00000000000E+00 -0.00000000000E+00 -0.22160356686E+03  0.22160356686E+03  0.00000000000E+00 0.  1.
         23    2    1    2    0    0  0.46608637264E+02  0.36407181588E+02 -0.96122323534E+02  0.16847824461E+03  0.12509024697E+03 0.  0.
         23    2    1    2    0    0 -0.46608637264E+02 -0.36407181588E+02 -0.56107539208E+02  0.12249902637E+03  0.91433623828E+02 0.  0.
          5    1    3    3  502    0 -0.24759963171E+02  0.21005945980E+02 -0.89202766186E+02  0.95020584286E+02  0.41800000000E+01 0.  1.
         -5    1    3    3    0  502  0.71368600435E+02  0.15401235608E+02 -0.69195573480E+01  0.73457660323E+02  0.41800000000E+01 0.  1.
        -11    1    4    4    0    0 -0.74384024688E+01  0.27493668697E+02 -0.34004713778E+02  0.44357098742E+02  0.00000000000E+00 0.  1.
         11    1    4    4    0    0 -0.39170234795E+02 -0.63900850285E+02 -0.22102825431E+02  0.78141927626E+02  0.00000000000E+00 0. -1.
</event>
<event>
 8    1  0.4798744E-006  0.7768877E+02  0.7561462E-02  0.1335741E+00
          1   -1    0    0  501    0  0.00000000000E+00  0.00000000000E+00  0.42730362929E+02  0.42730362929E+02  0.00000000000E+00 0. -1.
         -1   -1    0    0    0  501 -0.00000000000E+00 -0.00000000000E+00 -0.32997372162E+03  0.32997372162E+03  0.00000000000E+00 0.  1.
         23    2    1    2    0    0  0.81439835137E+01 -0.22066927554E+02 -0.23397251392E+03  0.26635094311E+03  0.12508562615E+03 0.  0.
         23    2    1    2    0    0 -0.81439835137E+01  0.22066927554E+02 -0.53270844767E+02  0.10635314143E+03  0.88994011210E+02 0.  0.
          5    1    3    3  502    0 -0.32643941017E+02  0.40406547671E+02 -0.85407437901E+02  0.10005108110E+03  0.41800000000E+01 0. -1.
         -5    1    3    3    0  502  0.40787924531E+02 -0.62473475225E+02 -0.14856507602E+03  0.16629986202E+03  0.41800000000E+01 0. -1.
        -11    1    4    4    0    0  0.37807507014E+01  0.13052922220E+02 -0.77064503205E+02  0.78253501574E+02  0.00000000000E+00 0.  1.
         11    1    4    4    0    0 -0.11924734215E+02  0.90140053336E+01  0.23793658438E+02  0.28099639858E+02  0.00000000000E+00 0. -1.
</event>
<event>
 8    1  0.4798744E-006  0.9105266E+02  0.7561462E-02  0.1300322E+00
         -1   -1    0    0    0  501 -0.00000000000E+00  0.00000000000E+00  0.29722438220E+02  0.29722438220E+02  0.00000000000E+00 0.  1.
          1   -1    0    0  501    0  0.00000000000E+00 -0.00000000000E+00 -0.42240993856E+03  0.42240993856E+03  0.00000000000E+00 0. -1.
         23    2    1    2    0    0  0.72798313805E+00  0.11826840202E+00 -0.16937589137E+03  0.21056212237E+03  0.12509065053E+03 0.  0.
         23    2    1    2    0    0 -0.72798313805E+00 -0.11826840202E+00 -0.22331160897E+03  0.24157025441E+03  0.92128004272E+02 0.  0.
          5    1    3    3  502    0  0.43609792163E+02  0.17771505676E+02 -0.15466926562E+03  0.16173340569E+03  0.41800000000E+01 0. -1.
         -5    1    3    3    0  502 -0.42881809025E+02 -0.17653237274E+02 -0.14706625747E+02  0.48828716678E+02  0.41800000000E+01 0. -1.
        -11    1    4    4    0    0 -0.19471401538E+02 -0.39840801364E+02 -0.77532839722E+02  0.89318341714E+02  0.00000000000E+00 0.  1.
         11    1    4    4    0    0  0.18743418400E+02  0.39722532962E+02 -0.14577876925E+03  0.15225191270E+03  0.00000000000E+00 0. -1.
</event>
<event>
 8    1  0.4798744E-006  0.1567953E+03  0.7561462E-02  0.1192363E+00
         -1   -1    0    0    0  501 -0.00000000000E+00  0.00000000000E+00  0.25669480976E+02  0.25669480976E+02  0.00000000000E+00 0.  1.
          1   -1    0    0  501    0  0.00000000000E+00 -0.00000000000E+00 -0.11370069708E+04  0.11370069708E+04  0.00000000000E+00 0. -1.
         23    2    1    2    0    0 -0.20053055077E+02 -0.12986686463E+03 -0.59057016069E+03  0.61781015955E+03  0.12509496793E+03 0.  0.
         23    2    1    2    0    0  0.20053055077E+02  0.12986686463E+03 -0.52076732912E+03  0.54486629221E+03  0.91723158254E+02 0.  0.
          5    1    3    3  502    0  0.85634004012E+01  0.21071180349E+02 -0.40111967950E+02  0.46300851402E+02  0.41800000000E+01 0. -1.
         -5    1    3    3    0  502 -0.28616455478E+02 -0.15093804498E+03 -0.55045819274E+03  0.57150930815E+03  0.41800000000E+01 0. -1.
        -11    1    4    4    0    0  0.18750337797E+02  0.21998905489E+02 -0.27348871902E+02  0.39793062267E+02  0.00000000000E+00 0.  1.
         11    1    4    4    0    0  0.13027172794E+01  0.10786795914E+03 -0.49341845722E+03  0.50507322994E+03  0.00000000000E+00 0. -1.
</event>
<event>
 8    1  0.4798744E-006  0.1079209E+03  0.7561462E-02  0.1264469E+00
         -1   -1    0    0    0  501 -0.00000000000E+00  0.00000000000E+00  0.11016260732E+04  0.11016260732E+04  0.00000000000E+00 0.  1.
          1   -1    0    0  501    0  0.00000000000E+00 -0.00000000000E+00 -0.12158524629E+02  0.12158524629E+02  0.00000000000E+00 0. -1.
         23    2    1    2    0    0  0.78609170545E+01  0.19911140030E+02  0.80002047353E+03  0.81002390280E+03  0.12509083713E+03 0.  0.
         23    2    1    2    0    0 -0.78609170545E+01 -0.19911140030E+02  0.28944707507E+03  0.30376069505E+03  0.89625348413E+02 0.  0.
          5    1    3    3  502    0  0.60777338088E+02  0.32999596360E+02  0.53129330136E+03  0.53579184639E+03  0.41800000000E+01 0. -1.
         -5    1    3    3    0  502 -0.52916421034E+02 -0.13088456330E+02  0.26872717216E+03  0.27423205641E+03  0.41800000000E+01 0. -1.
        -11    1    4    4    0    0  0.20872707622E+02 -0.47604600079E+02  0.17493668528E+03  0.18249578551E+03  0.00000000000E+00 0.  1.
         11    1    4    4    0    0 -0.28733624677E+02  0.27693460049E+02  0.11451038979E+03  0.12126490954E+03  0.00000000000E+00 0. -1.
</event>
<event>
 8    1  0.4798744E-006  0.9451540E+02  0.7561462E-02  0.1292271E+00
         -2   -1    0    0    0  501 -0.00000000000E+00  0.00000000000E+00  0.99739661373E+02  0.99739661373E+02  0.00000000000E+00 0.  1.
          2   -1    0    0  501    0  0.00000000000E+00 -0.00000000000E+00 -0.15653100427E+03  0.15653100427E+03  0.00000000000E+00 0. -1.
         23    2    1    2    0    0  0.29542290142E+02  0.34248243270E+02  0.13336143235E+02  0.13545708203E+03  0.12698456316E+03 0.  0.
         23    2    1    2    0    0 -0.29542290142E+02 -0.34248243270E+02 -0.70127486131E+02  0.12081358361E+03  0.87363428274E+02 0.  0.
          5    1    3    3  502    0 -0.25039379213E+02 -0.42296406692E+01 -0.41576627401E+02  0.48897328328E+02  0.41800000000E+01 0. -1.
         -5    1    3    3    0  502  0.54581669355E+02  0.38477883939E+02  0.54912770637E+02  0.86559753702E+02  0.41800000000E+01 0.  1.
        -11    1    4    4    0    0  0.74824007359E+01  0.25233592422E+02 -0.89502838543E+01  0.27799785761E+02  0.00000000000E+00 0.  1.
         11    1    4    4    0    0 -0.37024690878E+02 -0.59481835692E+02 -0.61177202277E+02  0.93013797849E+02  0.00000000000E+00 0. -1.
</event>
<event>
 8    1  0.4798744E-006  0.7491102E+02  0.7561462E-02  0.1344147E+00
         -1   -1    0    0    0  501 -0.00000000000E+00  0.00000000000E+00  0.83407940467E+02  0.83407940467E+02  0.00000000000E+00 0.  1.
          1   -1    0    0  501    0  0.00000000000E+00 -0.00000000000E+00 -0.17245565846E+03  0.17245565846E+03  0.00000000000E+00 0. -1.
         23    2    1    2    0    0 -0.16149806795E+02  0.45739788396E+02 -0.30608512507E+02  0.13761163195E+03  0.12508851149E+03 0.  0.
         23    2    1    2    0    0  0.16149806795E+02 -0.45739788396E+02 -0.58439205490E+02  0.11825196699E+03  0.90639077971E+02 0.  0.
          5    1    3    3  502    0 -0.16293068648E+02  0.42799770010E+02 -0.77675609106E+02  0.90267696597E+02  0.41800000000E+01 0. -1.
         -5    1    3    3    0  502  0.14326185272E+00  0.29400183857E+01  0.47067096599E+02  0.47343935349E+02  0.41800000000E+01 0. -1.
        -11    1    4    4    0    0 -0.29601004524E+02 -0.43884709556E+02 -0.47621172603E+02  0.71202972422E+02  0.00000000000E+00 0. -1.
         11    1    4    4    0    0  0.45750811319E+02 -0.18550788403E+01 -0.10818032887E+02  0.47048994563E+02  0.00000000000E+00 0.  1.
</event>
<event>
 8    1  0.4798744E-006  0.7892283E+02  0.7561462E-02  0.1332136E+00
         -1   -1    0    0    0  501 -0.00000000000E+00  0.00000000000E+00  0.69369639470E+03  0.69369639470E+03  0.00000000000E+00 0.  1.
          1   -1    0    0  501    0  0.00000000000E+00 -0.00000000000E+00 -0.23735766603E+02  0.23735766603E+02  0.00000000000E+00 0. -1.
         23    2    1    2    0    0 -0.33753759961E+02 -0.43750139092E+02  0.49063428802E+03  0.50933489683E+03  0.12508653632E+03 0.  0.
         23    2    1    2    0    0  0.33753759961E+02  0.43750139092E+02  0.17932634008E+03  0.20809726447E+03  0.89961904455E+02 0.  0.
          5    1    3    3  502    0 -0.38829822208E+02 -0.37963968552E+02  0.49605378715E+03  0.49903491876E+03  0.41800000000E+01 0. -1.
         -5    1    3    3    0  502  0.50760622469E+01 -0.57861705394E+01 -0.54194991273E+01  0.10299978070E+02  0.41800000000E+01 0. -1.
        -11    1    4    4    0    0  0.10034132917E+02  0.63172416263E+02  0.71216524462E+02  0.95724768771E+02  0.00000000000E+00 0.  1.
         11    1    4    4    0    0  0.23719627044E+02 -0.19422277171E+02  0.10810981562E+03  0.11237249570E+03  0.00000000000E+00 0. -1.
</event>
<event>
 7    1  0.4798744E-006  0.1009107E+03  0.7561462E-02  0.1278392E+00
         -2   -1    0    0    0  501 -0.00000000000E+00  0.00000000000E+00  0.85022684071E+02  0.85022684071E+02  0.00000000000E+00 0.  1.
          2   -1    0    0  501    0  0.00000000000E+00 -0.00000000000E+00 -0.36900392945E+03  0.36900392945E+03  0.00000000000E+00 0. -1.
         23    2    1    2    0    0 -0.67491827520E+02  0.30864191531E+02 -0.24272029401E+03  0.26849210088E+03  0.87562103721E+02 0.  0.
          5    1    1    2  502    0  0.12324236618E+02 -0.39411304537E+02 -0.97632383085E+02  0.10608813487E+03  0.41800000000E+01 0. -1.
         -5    1    1    2    0  502  0.55167590902E+02  0.85471130060E+01  0.56371431719E+02  0.79446377770E+02  0.41800000000E+01 0.  1.
        -11    1    3    3    0    0 -0.30792599947E+02 -0.23505347224E+02 -0.41143731749E+02  0.56510992044E+02  0.00000000000E+00 0.  1.
         11    1    3    3    0    0 -0.36699227573E+02  0.54369538755E+02 -0.20157656226E+03  0.21198110883E+03  0.00000000000E+00 0. -1.
</event>
<event>
 7    1  0.4798744E-006  0.3037359E+03  0.7561462E-02  0.1083388E+00
         -2   -1    0    0    0  501 -0.00000000000E+00  0.00000000000E+00  0.61940029630E+03  0.61940029630E+03  0.00000000000E+00 0.  1.
          2   -1    0    0  501    0  0.00000000000E+00 -0.00000000000E+00 -0.36861168664E+03  0.36861168664E+03  0.00000000000E+00 0. -1.
         23    2    1    2    0    0  0.27183089282E+03 -0.51155247289E+02 -0.14472623268E+03  0.32592669310E+03  0.93667674437E+02 0.  0.
          5    1    1    2  502    0 -0.83777356045E+02 -0.66776399190E+02 -0.82332995547E+02  0.13518109125E+03  0.41800000000E+01 0. -1.
         -5    1    1    2    0  502 -0.18805353677E+03  0.11793164648E+03  0.47784783788E+03  0.52690419860E+03  0.41800000000E+01 0.  1.
        -11    1    3    3    0    0  0.96846952981E+02 -0.36038212341E+01 -0.99803154550E+02  0.13911502251E+03  0.00000000000E+00 0.  1.
         11    1    3    3    0    0  0.17498393984E+03 -0.47551426055E+02 -0.44923078127E+02  0.18681167059E+03  0.00000000000E+00 0. -1.
</event>
<event>
 8    1  0.4798744E-006  0.1542894E+03  0.7561462E-02  0.1195299E+00
         -3   -1    0    0    0  501 -0.00000000000E+00  0.00000000000E+00  0.15808096692E+04  0.15808096692E+04  0.00000000000E+00 0.  1.
          3   -1    0    0  501    0  0.00000000000E+00 -0.00000000000E+00 -0.15220876430E+02  0.15220876430E+02  0.00000000000E+00 0. -1.
         23    2    1    2    0    0 -0.91713762451E+02  0.61291308950E+02  0.82546597709E+03  0.84214676184E+03  0.12509616454E+03 0.  0.
         23    2    1    2    0    0  0.91713762451E+02 -0.61291308950E+02  0.74012281567E+03  0.75388378377E+03  0.91602065380E+02 0.  0.
          5    1    3    3  502    0  0.23342874504E+02 -0.15478730585E+02  0.13038808297E+03  0.13342790365E+03  0.41800000000E+01 0. -1.
         -5    1    3    3    0  502 -0.11505663695E+03  0.76770039535E+02  0.69507789411E+03  0.70871885819E+03  0.41800000000E+01 0. -1.
        -11    1    4    4    0    0  0.60750562007E+02  0.12350457962E+02  0.27033100940E+03  0.27734819133E+03  0.00000000000E+00 0.  1.
         11    1    4    4    0    0  0.30963200444E+02 -0.73641766912E+02  0.46979180627E+03  0.47653559243E+03  0.00000000000E+00 0. -1.
</event>
<event>
 8    1  0.4798744E-006  0.6856056E+02  0.7561462E-02  0.1365057E+00
          1   -1    0    0  501    0  0.00000000000E+00  0.00000000000E+00  0.15111764060E+03  0.15111764060E+03  0.00000000000E+00 0. -1.
         -1   -1    0    0    0  501 -0.00000000000E+00 -0.00000000000E+00 -0.10782943800E+03  0.10782943800E+03  0.00000000000E+00 0.  1.
         23    2    1    2    0    0  0.30657640595E+02 -0.60652312748E+02  0.36612740388E+02  0.14699634530E+03  0.12509531888E+03 0.  0.
         23    2    1    2    0    0 -0.30657640595E+02  0.60652312748E+02  0.66754622151E+01  0.11195073330E+03  0.88711954783E+02 0.  0.
          5    1    3    3  502    0  0.15151910524E+02 -0.39107858057E+02 -0.44652936409E+02  0.61403274215E+02  0.41800000000E+01 0.  1.
         -5    1    3    3    0  502  0.15505730071E+02 -0.21544454690E+02  0.81265676797E+02  0.85593071087E+02  0.41800000000E+01 0.  1.
        -11    1    4    4    0    0 -0.11813999509E+02  0.28208238038E+02 -0.41083648052E+02  0.51216612685E+02  0.00000000000E+00 0.  1.
         11    1    4    4    0    0 -0.18843641086E+02  0.32444074709E+02  0.47759110267E+02  0.60734120613E+02  0.00000000000E+00 0. -1.
</event>
<event>
 8    1  0.4798744E-006  0.1011570E+03  0.7561462E-02  0.1277882E+00
         -2   -1    0    0    0  501 -0.00000000000E+00  0.00000000000E+00  0.13029247429E+03  0.13029247429E+03  0.00000000000E+00 0.  1.
          2   -1    0    0  501    0  0.00000000000E+00 -0.00000000000E+00 -0.14733005154E+03  0.14733005154E+03  0.00000000000E+00 0. -1.
         23    2    1    2    0    0  0.58226551325E+01 -0.78382815289E+02  0.29813335986E+02  0.15071576249E+03  0.12509451233E+03 0.  0.
         23    2    1    2    0    0 -0.58226551325E+01  0.78382815289E+02 -0.46850913241E+02  0.12690676334E+03  0.87934916068E+02 0.  0.
          5    1    3    3  502    0 -0.43674692874E+02 -0.23806220170E+02  0.53538113598E+02  0.73198476241E+02  0.41800000000E+01 0.  1.
         -5    1    3    3    0  502  0.49497348006E+02 -0.54576595119E+02 -0.23724777612E+02  0.77517286247E+02  0.41800000000E+01 0.  1.
        -11    1    4    4    0    0 -0.95088817116E+00  0.10932362052E+02  0.25567112545E+02  0.27822616201E+02  0.00000000000E+00 0.  1.
         11    1    4    4    0    0 -0.48717669613E+01  0.67450453236E+02 -0.72418025786E+02  0.99084147137E+02  0.00000000000E+00 0. -1.
</event>
<event>
 8    1  0.4798744E-006  0.1864292E+03  0.7561462E-02  0.1161722E+00
         -2   -1    0    0    0  501 -0.00000000000E+00  0.00000000000E+00  0.84545435408E+02  0.84545435408E+02  0.00000000000E+00 0. -1.
          2   -1    0    0  501    0  0.00000000000E+00 -0.00000000000E+00 -0.52208106543E+03  0.52208106543E+03  0.00000000000E+00 0.  1.
         23    2    1    2    0    0 -0.14709224134E+03 -0.10025163253E+03 -0.20310154148E+03  0.29763204171E+03  0.12509228120E+03 0.  0.
         23    2    1    2    0    0  0.14709224134E+03  0.10025163253E+03 -0.23443408854E+03  0.30899445912E+03  0.93977213248E+02 0.  0.
          5    1    3    3  502    0 -0.14972948599E+03 -0.77822264323E+02 -0.21371088767E+03  0.27233259025E+03  0.41800000000E+01 0. -1.
         -5    1    3    3    0  502  0.26372446541E+01 -0.22429368211E+02  0.10609346196E+02  0.25299451465E+02  0.41800000000E+01 0. -1.
        -11    1    4    4    0    0  0.92042291230E+02  0.42741314508E+02 -0.19572888198E+03  0.22047312440E+03  0.00000000000E+00 0.  1.
         11    1    4    4    0    0  0.55049950110E+02  0.57510318027E+02 -0.38705206565E+02  0.88521334727E+02  0.00000000000E+00 0. -1.
</event>
<event>
 8    1  0.4798744E-006  0.1092946E+03  0.7561462E-02  0.1261882E+00
         -1   -1    0    0    0  501 -0.00000000000E+00  0.00000000000E+00  0.23823359013E+02  0.23823359013E+02  0.00000000000E+00 0.  1.
          1   -1    0    0  501    0  0.00000000000E+00 -0.00000000000E+00 -0.55396194150E+03  0.55396194150E+03  0.00000000000E+00 0. -1.
         23    2    1    2    0    0 -0.19798924336E+02 -0.17539169489E+02 -0.24640646398E+03  0.27760236646E+03  0.12508920216E+03 0.  0.
         23    2    1    2    0    0  0.19798924336E+02  0.17539169489E+02 -0.28373211851E+03  0.30018293406E+03  0.94372977898E+02 0.  0.
          5    1    3    3  502    0 -0.71847984726E+02 -0.16543066290E+02 -0.12098150164E+03  0.14173849897E+03  0.41800000000E+01 0.  1.
         -5    1    3    3    0  502  0.52049060390E+02 -0.99610319965E+00 -0.12542496234E+03  0.13586386748E+03  0.41800000000E+01 0.  1.
        -11    1    4    4    0    0  0.11436862698E+02  0.53954716914E+02 -0.21489123235E+03  0.22185615846E+03  0.00000000000E+00 0. -1.
         11    1    4    4    0    0  0.83620616383E+01 -0.36415547425E+02 -0.68840886160E+02  0.78326775603E+02  0.00000000000E+00 0.  1.
</event>
<event>
 8    1  0.4798744E-006  0.2426104E+03  0.7561462E-02  0.1118066E+00
          1   -1    0    0  501    0  0.00000000000E+00  0.00000000000E+00  0.10435509192E+04  0.10435509192E+04  0.00000000000E+00 0. -1.
         -1   -1    0    0    0  501 -0.00000000000E+00 -0.00000000000E+00 -0.65092556983E+02  0.65092556983E+02  0.00000000000E+00 0.  1.
         23    2    1    2    0    0  0.15408139776E+03 -0.15486418708E+03  0.30846063449E+03  0.39814272006E+03  0.12508264839E+03 0.  0.
         23    2    1    2    0    0 -0.15408139776E+03  0.15486418708E+03  0.66999772774E+03  0.71050075613E+03  0.90500694559E+02 0.  0.
          5    1    3    3  502    0  0.17315928865E+03 -0.12533981899E+03  0.24256896535E+03  0.32334406570E+03  0.41800000000E+01 0. -1.
         -5    1    3    3    0  502 -0.19077890892E+02 -0.29524368096E+02  0.65891669137E+02  0.74798654359E+02  0.41800000000E+01 0. -1.
        -11    1    4    4    0    0 -0.71058206386E+02  0.13198942812E+03  0.40424477411E+03  0.43114303338E+03  0.00000000000E+00 0.  1.
         11    1    4    4    0    0 -0.83023191377E+02  0.22874758957E+02  0.26575295362E+03  0.27935772276E+03  0.00000000000E+00 0. -1.
</event>
<event>
 8    1  0.4798744E-006  0.8167478E+02  0.7561462E-02  0.1324365E+00
          2   -1    0    0  501    0  0.00000000000E+00  0.00000000000E+00  0.45473591275E+02  0.45473591275E+02  0.00000000000E+00 0. -1.
         -2   -1    0    0    0  501 -0.00000000000E+00 -0.00000000000E+00 -0.38264797244E+03  0.38264797244E+03  0.00000000000E+00 0.  1.
         23    2    1    2    0    0 -0.27109044915E+02 -0.18714571440E+02 -0.29340870431E+03  0.32065403906E+03  0.12508081187E+03 0.  0.
         23    2    1    2    0    0  0.27109044915E+02  0.18714571440E+02 -0.43765676850E+02  0.10746752465E+03  0.92459174151E+02 0.  0.
          5    1    3    3  502    0  0.36619058270E+02  0.12257447430E+02 -0.19780409550E+03  0.20158157913E+03  0.41800000000E+01 0.  1.
         -5    1    3    3    0  502 -0.63728103186E+02 -0.30972018870E+02 -0.95604608812E+02  0.11907245993E+03  0.41800000000E+01 0.  1.
        -11    1    4    4    0    0  0.21652430955E+02 -0.10320053880E+02  0.23760047941E+02  0.33761977971E+02  0.00000000000E+00 0. -1.
         11    1    4    4    0    0  0.54566139600E+01  0.29034625320E+02 -0.67525724791E+02  0.73705546684E+02  0.00000000000E+00 0.  1.
</event>
<event>
 7    1  0.4798744E-006  0.1044564E+03  0.7561462E-02  0.1271194E+00
         -3   -1    0    0    0  501 -0.00000000000E+00  0.00000000000E+00  0.17629667683E+03  0.17629667683E+03  0.00000000000E+00 0.  1.
          3   -1    0    0  501    0  0.00000000000E+00 -0.00000000000E+00 -0.95440051281E+02  0.95440051281E+02  0.00000000000E+00 0. -1.
         23    2    1    2    0    0 -0.20271279966E+02 -0.34720694371E+02 -0.70485554330E+00  0.99212904976E+02  0.90698689535E+02 0.  0.
          5    1    1    2  502    0 -0.84788211013E+01  0.73827346327E+02  0.96221377741E+02  0.12164864737E+03  0.41800000000E+01 0.  1.
         -5    1    1    2    0  502  0.28750101068E+02 -0.39106651956E+02 -0.14659896654E+02  0.50875175759E+02  0.41800000000E+01 0.  1.
        -11    1    3    3    0    0 -0.47660490508E+02 -0.33674004280E+02 -0.24138709581E+02  0.63151707973E+02  0.00000000000E+00 0. -1.
         11    1    3    3    0    0  0.27389210542E+02 -0.10466900906E+01  0.23433854037E+02  0.36061197003E+02  0.00000000000E+00 0.  1.
</event>
<event>
 8    1  0.4798744E-006  0.9521998E+02  0.7561462E-02  0.1290681E+00
         -2   -1    0    0    0  501 -0.00000000000E+00  0.00000000000E+00  0.10123275595E+04  0.10123275595E+04  0.00000000000E+00 0.  1.
          2   -1    0    0  501    0  0.00000000000E+00 -0.00000000000E+00 -0.12413289496E+02  0.12413289496E+02  0.00000000000E+00 0. -1.
         23    2    1    2    0    0  0.69287898196E+01 -0.53188904780E+01  0.69837299033E+03  0.70953967374E+03  0.12508163843E+03 0.  0.
         23    2    1    2    0    0 -0.69287898196E+01  0.53188904780E+01  0.30154127965E+03  0.31520117523E+03  0.91369244316E+02 0.  0.
          5    1    3    3  502    0 -0.42040090825E+02  0.17268187634E+02  0.54501639856E+03  0.54692404101E+03  0.41800000000E+01 0. -1.
         -5    1    3    3    0  502  0.48968880644E+02 -0.22587078112E+02  0.15335659177E+03  0.16261563273E+03  0.41800000000E+01 0. -1.
        -11    1    4    4    0    0  0.81362496496E+01  0.46320290154E+02  0.13217262959E+03  0.14029031275E+03  0.00000000000E+00 0.  1.
         11    1    4    4    0    0 -0.15065039469E+02 -0.41001399676E+02  0.16936865006E+03  0.17491086248E+03  0.00000000000E+00 0. -1.
</event>
<event>
 8    1  0.4798744E-006  0.1119876E+03  0.7561462E-02  0.1256933E+00
         -1   -1    0    0    0  501 -0.00000000000E+00  0.00000000000E+00  0.39422352616E+02  0.39422352616E+02  0.00000000000E+00 0.  1.
          1   -1    0    0  501    0  0.00000000000E+00 -0.00000000000E+00 -0.43044349922E+03  0.43044349922E+03  0.00000000000E+00 0. -1.
         23    2    1    2    0    0  0.68451994544E+01  0.64854233315E+02 -0.11618870732E+03  0.17347812806E+03  0.11109418020E+03 0.  0.
         23    2    1    2    0    0 -0.68451994544E+01 -0.64854233315E+02 -0.27483243929E+03  0.29638772377E+03  0.89776861079E+02 0.  0.
          5    1    3    3  502    0 -0.34096120893E+02  0.71863101411E+02 -0.10193724207E+03  0.12936585533E+03  0.41800000000E+01 0. -1.
         -5    1    3    3    0  502  0.40941320348E+02 -0.70088680960E+01 -0.14251465246E+02  0.44112272731E+02  0.41800000000E+01 0.  1.
        -11    1    4    4    0    0  0.92966770947E+01 -0.79942711396E+02 -0.25231589492E+03  0.26484066180E+03  0.00000000000E+00 0.  1.
         11    1    4    4    0    0 -0.16141876549E+02  0.15088478080E+02 -0.22516544364E+02  0.31547061977E+02  0.00000000000E+00 0. -1.
</event>
<event>
 8    1  0.4798744E-006  0.1111776E+03  0.7561462E-02  0.1258405E+00
          1   -1    0    0  501    0  0.00000000000E+00  0.00000000000E+00  0.78700593905E+03  0.78700593905E+03  0.00000000000E+00 0. -1.
         -1   -1    0    0    0  501 -0.00000000000E+00 -0.00000000000E+00 -0.15795872799E+02  0.15795872799E+02  0.00000000000E+00 0.  1.
         23    2    1    2    0    0  0.24599444581E+02  0.11019393682E+02  0.42703170553E+03  0.44579194002E+03  0.12509123288E+03 0.  0.
         23    2    1    2    0    0 -0.24599444581E+02 -0.11019393682E+02  0.34417836072E+03  0.35700987184E+03  0.90943635778E+02 0.  0.
          5    1    3    3  502    0 -0.51259240573E+02  0.65304818383E+01  0.16982090917E+03  0.17755779489E+03  0.41800000000E+01 0.  1.
         -5    1    3    3    0  502  0.75858685154E+02  0.44889118442E+01  0.25721079637E+03  0.26823414512E+03  0.41800000000E+01 0.  1.
        -11    1    4    4    0    0  0.22275279832E+02  0.26317679422E+02  0.14282310040E+03  0.14692598936E+03  0.00000000000E+00 0. -1.
         11    1    4    4    0    0 -0.46874724413E+02 -0.37337073104E+02  0.20135526033E+03  0.21008388248E+03  0.00000000000E+00 0.  1.
</event>
<event>
 8    1  0.4798744E-006  0.1623431E+03  0.7561462E-02  0.1186077E+00
          1   -1    0    0  501    0  0.00000000000E+00  0.00000000000E+00  0.18425456940E+03  0.18425456940E+03  0.00000000000E+00 0. -1.
         -1   -1    0    0    0  501 -0.00000000000E+00 -0.00000000000E+00 -0.16156698235E+03  0.16156698235E+03  0.00000000000E+00 0.  1.
         23    2    1    2    0    0  0.11346157381E+03 -0.56942316284E+02 -0.29430007297E+02  0.18063651873E+03  0.12508984952E+03 0.  0.
         23    2    1    2    0    0 -0.11346157381E+03  0.56942316284E+02  0.52117594348E+02  0.16518503302E+03  0.91945067173E+02 0.  0.
          5    1    3    3  502    0  0.10837901374E+03 -0.90758138458E+02 -0.35122267678E+02  0.14571923827E+03  0.41800000000E+01 0.  1.
         -5    1    3    3    0  502  0.50825600704E+01  0.33815822174E+02  0.56922603810E+01  0.34917280455E+02  0.41800000000E+01 0.  1.
        -11    1    4    4    0    0 -0.92953394958E+02  0.76566969614E+02  0.19584742525E+02  0.12200982178E+03  0.00000000000E+00 0.  1.
         11    1    4    4    0    0 -0.20508178852E+02 -0.19624653329E+02  0.32532851823E+02  0.43175211242E+02  0.00000000000E+00 0. -1.
</event>
<event>
 8    1  0.4798744E-006  0.9474958E+02  0.7561462E-02  0.1291741E+00
          2   -1    0    0  501    0  0.00000000000E+00  0.00000000000E+00  0.35053801066E+03  0.35053801066E+03  0.00000000000E+00 0. -1.
         -2   -1    0    0    0  501 -0.00000000000E+00 -0.00000000000E+00 -0.49940780428E+02  0.49940780428E+02  0.00000000000E+00 0.  1.
         23    2    1    2    0    0 -0.46112714729E+01 -0.39083374348E+02  0.69783148518E+02  0.14854497937E+03  0.12508856504E+03 0.  0.
         23    2    1    2    0    0  0.46112714729E+01  0.39083374348E+02  0.23081408171E+03  0.25193381172E+03  0.92987801331E+02 0.  0.
          5    1    3    3  502    0  0.41086513112E+02 -0.11129921616E+01  0.78151019509E+02  0.88399064257E+02  0.41800000000E+01 0.  1.
         -5    1    3    3    0  502 -0.45697784585E+02 -0.37970382187E+02 -0.83678709908E+01  0.60145915109E+02  0.41800000000E+01 0.  1.
        -11    1    4    4    0    0 -0.37376247369E+02  0.15457770635E+02  0.47465376161E+02  0.62360953123E+02  0.00000000000E+00 0.  1.
         11    1    4    4    0    0  0.41987518842E+02  0.23625603713E+02  0.18334870555E+03  0.18957285860E+03  0.00000000000E+00 0. -1.
</event>
<event>
 8    1  0.4798744E-006  0.1140543E+03  0.7561462E-02  0.1253241E+00
         -2   -1    0    0    0  501 -0.00000000000E+00  0.00000000000E+00  0.91650384032E+02  0.91650384032E+02  0.00000000000E+00 0.  1.
          2   -1    0    0  501    0  0.00000000000E+00 -0.00000000000E+00 -0.20763447471E+03  0.20763447471E+03  0.00000000000E+00 0. -1.
         23    2    1    2    0    0 -0.23546457052E+02 -0.82732161916E+02 -0.20440945037E+02  0.15321896057E+03  0.12513661090E+03 0.  0.
         23    2    1    2    0    0  0.23546457052E+02  0.82732161916E+02 -0.95543145639E+02  0.14606589817E+03  0.69337635347E+02 0.  0.
          5    1    3    3  502    0  0.35497561605E+02 -0.53934642984E+02 -0.49300529911E+02  0.81345173447E+02  0.41800000000E+01 0. -1.
         -5    1    3    3    0  502 -0.59044018657E+02 -0.28797518932E+02  0.28859584874E+02  0.71873787119E+02  0.41800000000E+01 0. -1.
        -11    1    4    4    0    0  0.11461096522E+02 -0.23032925852E+01 -0.44813730983E+02  0.46313414631E+02  0.00000000000E+00 0. -1.
         11    1    4    4    0    0  0.12085360530E+02  0.85035454501E+02 -0.50729414656E+02  0.99752483541E+02  0.00000000000E+00 0.  1.
</event>
<event>
 8    1  0.4798744E-006  0.1227819E+03  0.7561462E-02  0.1238577E+00
         -1   -1    0    0    0  501 -0.00000000000E+00  0.00000000000E+00  0.45841327309E+02  0.45841327309E+02  0.00000000000E+00 0.  1.
          1   -1    0    0  501    0  0.00000000000E+00 -0.00000000000E+00 -0.35279094269E+03  0.35279094269E+03  0.00000000000E+00 0. -1.
         23    2    1    2    0    0 -0.28729328979E+02  0.55072984757E+02 -0.14472537563E+03  0.20112226240E+03  0.12508525927E+03 0.  0.
         23    2    1    2    0    0  0.28729328979E+02 -0.55072984757E+02 -0.16222423974E+03  0.19751000760E+03  0.93995165553E+02 0.  0.
          5    1    3    3  502    0  0.32979217200E+02 -0.22691833204E+02 -0.44132731621E+02  0.59730381395E+02  0.41800000000E+01 0.  1.
         -5    1    3    3    0  502 -0.61708546179E+02  0.77764817961E+02 -0.10059264401E+03  0.14139188100E+03  0.41800000000E+01 0.  1.
        -11    1    4    4    0    0  0.20464239148E+01 -0.73497832236E+02 -0.77673571604E+02  0.10695467694E+03  0.00000000000E+00 0.  1.
         11    1    4    4    0    0  0.26682905065E+02  0.18424847478E+02 -0.84550668140E+02  0.90555330656E+02  0.00000000000E+00 0. -1.
</event>
<event>
 8    1  0.4798744E-006  0.1311059E+03  0.7561462E-02  0.1225824E+00
          2   -1    0    0  501    0  0.00000000000E+00  0.00000000000E+00  0.19200762389E+02  0.19200762389E+02  0.00000000000E+00 0.  1.
         -2   -1    0    0    0  501 -0.00000000000E+00 -0.00000000000E+00 -0.11929199578E+04  0.11929199578E+04  0.00000000000E+00 0. -1.
         23    2    1    2    0    0  0.18752848495E+00  0.92646159760E+02 -0.82657209399E+03  0.84110162211E+03  0.12508863289E+03 0.  0.
         23    2    1    2    0    0 -0.18752848495E+00 -0.92646159760E+02 -0.34714710144E+03  0.37101909809E+03  0.92524132127E+02 0.  0.
          5    1    3    3  502    0  0.43165673486E+02  0.87746447930E+02 -0.70957963484E+03  0.71629843296E+03  0.41800000000E+01 0. -1.
         -5    1    3    3    0  502 -0.42978145001E+02  0.48997118300E+01 -0.11699245915E+03  0.12480318915E+03  0.41800000000E+01 0. -1.
        -11    1    4    4    0    0  0.38609563618E+02 -0.50866147956E+02 -0.11073767096E+03  0.12783151090E+03  0.00000000000E+00 0.  1.
         11    1    4    4    0    0 -0.38797092103E+02 -0.41780011804E+02 -0.23640943048E+03  0.24318758719E+03  0.00000000000E+00 0. -1.
</event>
<event>
 8    1  0.4798744E-006  0.1225074E+03  0.7561462E-02  0.1239017E+00
          2   -1    0    0  501    0  0.00000000000E+00  0.00000000000E+00  0.37394280156E+03  0.37394280156E+03  0.00000000000E+00 0. -1.
         -2   -1    0    0    0  501 -0.00000000000E+00 -0.00000000000E+00 -0.45758099412E+02  0.45758099412E+02  0.00000000000E+00 0.  1.
         23    2    1    2    0    0 -0.55074375827E+02 -0.41800979140E+02  0.16633248004E+03  0.21930484636E+03  0.12509041926E+03 0.  0.
         23    2    1    2    0    0  0.55074375827E+02  0.41800979140E+02  0.16185222211E+03  0.20039605461E+03  0.95822378255E+02 0.  0.
          5    1    3    3  502    0  0.30214201639E+02 -0.26583379240E+02  0.11887012383E+02  0.42170457621E+02  0.41800000000E+01 0. -1.
         -5    1    3    3    0  502 -0.85288577466E+02 -0.15217599899E+02  0.15444546766E+03  0.17713438874E+03  0.41800000000E+01 0. -1.
        -11    1    4    4    0    0  0.72085493035E+02 -0.64683017550E+00  0.91469828228E+02  0.11646229506E+03  0.00000000000E+00 0.  1.
         11    1    4    4    0    0 -0.17011117208E+02  0.42447809315E+02  0.70382393877E+02  0.83933759550E+02  0.00000000000E+00 0. -1.
</event>
<event>
 8    1  0.4798744E-006  0.8964264E+02  0.7561462E-02  0.1303719E+00
         -3   -1    0    0    0  501 -0.00000000000E+00  0.00000000000E+00  0.76947604791E+03  0.76947604791E+03  0.00000000000E+00 0.  1.
          3   -1    0    0  501    0  0.00000000000E+00 -0.00000000000E+00 -0.35265538691E+02  0.35265538691E+02  0.00000000000E+00 0. -1.
         23    2    1    2    0    0  0.14656190906E+02  0.64121495723E+02  0.64022749383E+03  0.65564075220E+03  0.12508869630E+03 0.  0.
         23    2    1    2    0    0 -0.14656190906E+02 -0.64121495723E+02  0.93983015392E+02  0.14910083441E+03  0.95246425091E+02 0.  0.
          5    1    3    3  502    0  0.35975019432E+02  0.39691847651E+02  0.60574810200E+03  0.60812653311E+03  0.41800000000E+01 0. -1.
         -5    1    3    3    0  502 -0.21318828526E+02  0.24429648072E+02  0.34479391827E+02  0.47514219086E+02  0.41800000000E+01 0. -1.
        -11    1    4    4    0    0  0.21522384587E+02 -0.49246462670E+02  0.76065755814E+01  0.54279711825E+02  0.00000000000E+00 0.  1.
         11    1    4    4    0    0 -0.36178575493E+02 -0.14875033054E+02  0.86376439811E+02  0.94821122581E+02  0.00000000000E+00 0. -1.
</event>
<event>
 8    1  0.4798744E-006  0.1274496E+03  0.7561462E-02  0.1231290E+00
         -1   -1    0    0    0  501 -0.00000000000E+00  0.00000000000E+00  0.34967401012E+03  0.34967401012E+03  0.00000000000E+00 0.  1.
          1   -1    0    0  501    0  0.00000000000E+00 -0.00000000000E+00 -0.59661772963E+02  0.59661772963E+02  0.00000000000E+00 0. -1.
         23    2    1    2    0    0  0.79006985403E+02 -0.13403664530E+01  0.24442127306E+03  0.27993584967E+03  0.11125835197E+03 0.  0.
         23    2    1    2    0    0 -0.79006985403E+02  0.13403664530E+01  0.45590964100E+02  0.12939993341E+03  0.91770945483E+02 0.  0.
          5    1    3    3  502    0 -0.65468767977E+01 -0.41231777728E+02  0.77216456603E+02  0.87879318732E+02  0.41800000000E+01 0. -1.
         -5    1    3    3    0  502  0.85553862201E+02  0.39891411275E+02  0.16720481645E+03  0.19205653094E+03  0.41800000000E+01 0.  1.
        -11    1    4    4    0    0  0.18588094100E+00  0.33120532026E+02  0.25327956267E+02  0.41695438145E+02  0.00000000000E+00 0.  1.
         11    1    4    4    0    0 -0.79192866344E+02 -0.31780165573E+02  0.20263007832E+02  0.87704495267E+02  0.00000000000E+00 0. -1.
</event>
<event>
 8    1  0.4798744E-006  0.1220485E+03  0.7561462E-02  0.1239755E+00
          1   -1    0    0  501    0  0.00000000000E+00  0.00000000000E+00  0.37864599872E+03  0.37864599872E+03  0.00000000000E+00 0. -1.
         -1   -1    0    0    0  501 -0.00000000000E+00 -0.00000000000E+00 -0.74809688507E+02  0.74809688507E+02  0.00000000000E+00 0.  1.
         23    2    1    2    0    0 -0.84662052193E+02  0.67713655633E+02  0.69738738078E+02  0.17962097006E+03  0.12508956414E+03 0.  0.
         23    2    1    2    0    0  0.84662052193E+02 -0.67713655633E+02  0.23409757214E+03  0.27383471716E+03  0.91820350699E+02 0.  0.
          5    1    3    3  502    0 -0.87169903851E+02  0.25790418183E+02  0.94087300309E+02  0.13089549376E+03  0.41800000000E+01 0. -1.
         -5    1    3    3    0  502  0.25078516584E+01  0.41923237451E+02 -0.24348562231E+02  0.48725476304E+02  0.41800000000E+01 0. -1.
        -11    1    4    4    0    0  0.56882966694E+02 -0.30783245982E+02  0.44061138354E+02  0.78260232853E+02  0.00000000000E+00 0.  1.
         11    1    4    4    0    0  0.27779085499E+02 -0.36930409651E+02  0.19003643378E+03  0.19557448431E+03  0.00000000000E+00 0. -1.
</event>
<event>
 8    1  0.4798744E-006  0.9894006E+02  0.7561462E-02  0.1282541E+00
          4   -1    0    0  501    0  0.00000000000E+00  0.00000000000E+00  0.69576532158E+02  0.69576532158E+02  0.00000000000E+00 0.  1.
         -4   -1    0    0    0  501 -0.00000000000E+00 -0.00000000000E+00 -0.19358745528E+03  0.19358745528E+03  0.00000000000E+00 0. -1.
         23    2    1    2    0    0  0.95950660020E+01 -0.45812510753E+02 -0.82963325047E+02  0.15723156408E+03  0.12509196620E+03 0.  0.
         23    2    1    2    0    0 -0.95950660020E+01  0.45812510753E+02 -0.41047598076E+02  0.10593242336E+03  0.85708351854E+02 0.  0.
          5    1    3    3  502    0  0.11381258029E+02 -0.86108400274E+02 -0.33300675604E+02  0.93116040658E+02  0.41800000000E+01 0. -1.
         -5    1    3    3    0  502 -0.17861920272E+01  0.40295889521E+02 -0.49662649444E+02  0.64115523425E+02  0.41800000000E+01 0. -1.
        -11    1    4    4    0    0  0.10241457810E+02 -0.80147820899E+01  0.18911046070E+02  0.22951075214E+02  0.00000000000E+00 0.  1.
         11    1    4    4    0    0 -0.19836523812E+02  0.53827292843E+02 -0.59958644146E+02  0.82981348143E+02  0.00000000000E+00 0. -1.
</event>
<event>
 8    1  0.4798744E-006  0.1045541E+03  0.7561462E-02  0.1271001E+00
         -2   -1    0    0    0  501 -0.00000000000E+00  0.00000000000E+00  0.60061367160E+03  0.60061367160E+03  0.00000000000E+00 0.  1.
          2   -1    0    0  501    0  0.00000000000E+00 -0.00000000000E+00 -0.27036947662E+02  0.27036947662E+02  0.00000000000E+00 0. -1.
         23    2    1    2    0    0  0.47427741629E+02 -0.29442330668E+02  0.40398391820E+03  0.42657850047E+03  0.12509983769E+03 0.  0.
         23    2    1    2    0    0 -0.47427741629E+02  0.29442330668E+02  0.16959280573E+03  0.20107211878E+03  0.92477217113E+02 0.  0.
          5    1    3    3  502    0  0.48253338419E+02  0.25327103859E+02  0.73688931554E+02  0.91746269090E+02  0.41800000000E+01 0.  1.
         -5    1    3    3    0  502 -0.82559678987E+00 -0.54769434526E+02  0.33029498665E+03  0.33483223138E+03  0.41800000000E+01 0.  1.
        -11    1    4    4    0    0  0.19031991321E+02  0.26972831925E+02  0.23402477643E+02  0.40465124682E+02  0.00000000000E+00 0.  1.
         11    1    4    4    0    0 -0.66459732949E+02  0.24694987425E+01  0.14619032809E+03  0.16060699410E+03  0.00000000000E+00 0. -1.
</event>
<event>
 8    1  0.4798744E-006  0.2872028E+03  0.7561462E-02  0.1091819E+00
         -2   -1    0    0    0  501 -0.00000000000E+00  0.00000000000E+00  0.84125681134E+02  0.84125681134E+02  0.00000000000E+00 0.  1.
          2   -1    0    0  501    0  0.00000000000E+00 -0.00000000000E+00 -0.11052079840E+04  0.11052079840E+04  0.00000000000E+00 0. -1.
         23    2    1    2    0    0  0.10530265441E+03 -0.26291173042E+03 -0.46495066101E+03  0.55860143989E+03  0.12508087166E+03 0.  0.
         23    2    1    2    0    0 -0.10530265441E+03  0.26291173042E+03 -0.55613164184E+03  0.63073222522E+03  0.91266148506E+02 0.  0.
          5    1    3    3  502    0  0.13155693732E+02 -0.95582661647E+02 -0.26494556279E+03  0.28199776794E+03  0.41800000000E+01 0.  1.
         -5    1    3    3    0  502  0.92146960682E+02 -0.16732906877E+03 -0.20000509822E+03  0.27660367195E+03  0.41800000000E+01 0.  1.
        -11    1    4    4    0    0 -0.14811778306E+02  0.93792345047E+02 -0.11124678397E+03  0.14626086185E+03  0.00000000000E+00 0. -1.
         11    1    4    4    0    0 -0.90490876108E+02  0.16911938537E+03 -0.44488485786E+03  0.48447136337E+03  0.00000000000E+00 0.  1.
</event>
<event>
 8    1  0.4798744E-006  0.1323304E+03  0.7561462E-02  0.1224038E+00
         -3   -1    0    0    0  501 -0.00000000000E+00  0.00000000000E+00  0.30264576926E+03  0.30264576926E+03  0.00000000000E+00 0.  1.
          3   -1    0    0  501    0  0.00000000000E+00 -0.00000000000E+00 -0.71723993249E+02  0.71723993249E+02  0.00000000000E+00 0. -1.
         23    2    1    2    0    0  0.71194057767E+02 -0.62610551319E+02  0.16040156314E+03  0.22442161417E+03  0.12509086479E+03 0.  0.
         23    2    1    2    0    0 -0.71194057767E+02  0.62610551319E+02  0.70520212879E+02  0.14994814834E+03  0.92318317621E+02 0.  0.
          5    1    3    3  502    0  0.95600311745E+02 -0.52359201715E+02  0.16442969243E+03  0.19732080925E+03  0.41800000000E+01 0. -1.
         -5    1    3    3    0  502 -0.24406253979E+02 -0.10251349604E+02 -0.40281292932E+01  0.27100804925E+02  0.41800000000E+01 0. -1.
        -11    1    4    4    0    0 -0.86058597343E+02  0.71129242180E+02  0.71840477584E+02  0.13276485035E+03  0.00000000000E+00 0.  1.
         11    1    4    4    0    0  0.14864539576E+02 -0.85186908616E+01 -0.13202647045E+01  0.17183297987E+02  0.00000000000E+00 0. -1.
</event>
<event>
 7    1  0.4798744E-006  0.1089672E+03  0.7561462E-02  0.1262494E+00
          1   -1    0    0  501    0  0.00000000000E+00  0.00000000000E+00  0.42827242225E+03  0.42827242225E+03  0.00000000000E+00 0. -1.
         -1   -1    0    0    0  501 -0.00000000000E+00 -0.00000000000E+00 -0.33062907217E+02  0.33062907217E+02  0.00000000000E+00 0.  1.
         23    2    1    2    0    0  0.32413864552E+02 -0.21107489243E+02  0.18302377786E+03  0.20836773327E+03  0.91778125332E+02 0.  0.
          5    1    1    2  502    0 -0.81589853351E+02  0.17583247376E+01  0.15341922076E+03  0.17382441018E+03  0.41800000000E+01 0. -1.
         -5    1    1    2    0  502  0.49175988798E+02  0.19349164506E+02  0.58766516413E+02  0.79143186015E+02  0.41800000000E+01 0.  1.
        -11    1    3    3    0    0  0.42449972181E+02  0.15544591577E+02  0.39937320165E+02  0.60321008011E+02  0.00000000000E+00 0.  1.
         11    1    3    3    0    0 -0.10036107629E+02 -0.36652080821E+02  0.14308645769E+03  0.14804672526E+03  0.00000000000E+00 0. -1.
</event>
<event>
 8    1  0.4798744E-006  0.8876469E+02  0.7561462E-02  0.1305871E+00
         -1   -1    0    0    0  501 -0.00000000000E+00  0.00000000000E+00  0.10059847520E+03  0.10059847520E+03  0.00000000000E+00 0.  1.
          1   -1    0    0  501    0  0.00000000000E+00 -0.00000000000E+00 -0.13597803012E+03  0.13597803012E+03  0.00000000000E+00 0. -1.
         23    2    1    2    0    0  0.76761837747E+01  0.42338157388E+02 -0.16610676584E+02  0.13332605003E+03  0.12509387543E+03 0.  0.
         23    2    1    2    0    0 -0.76761837747E+01 -0.42338157388E+02 -0.18768878340E+02  0.10325045530E+03  0.91961635241E+02 0.  0.
          5    1    3    3  502    0  0.38318439637E+02 -0.31481449231E+02  0.60742525221E+01  0.50137345418E+02  0.41800000000E+01 0.  1.
         -5    1    3    3    0  502 -0.30642255863E+02  0.73819606619E+02 -0.22684929106E+02  0.83188704607E+02  0.41800000000E+01 0.  1.
        -11    1    4    4    0    0  0.71217768397E+01 -0.16033461253E+02  0.36376460185E+02  0.40386116930E+02  0.00000000000E+00 0.  1.
         11    1    4    4    0    0 -0.14797960614E+02 -0.26304696135E+02 -0.55145338525E+02  0.62864338366E+02  0.00000000000E+00 0. -1.
</event>
<event>
 8    1  0.4798744E-006  0.1039212E+03  0.7561462E-02  0.1272260E+00
         -2   -1    0    0    0  501 -0.00000000000E+00  0.00000000000E+00  0.49347431833E+02  0.49347431833E+02  0.00000000000E+00 0. -1.
          2   -1    0    0  501    0  0.00000000000E+00 -0.00000000000E+00 -0.30101499369E+03  0.30101499369E+03  0.00000000000E+00 0.  1.
         23    2    1    2    0    0  0.38065232534E+02 -0.23822535489E+02 -0.83291473736E+02  0.15684991188E+03  0.12509176686E+03 0.  0.
         23    2    1    2    0    0 -0.38065232534E+02  0.23822535489E+02 -0.16837608812E+03  0.19351251364E+03  0.84143394036E+02 0.  0.
          5    1    3    3  502    0  0.15007522004E+02 -0.65398286350E+02 -0.85868766432E+02  0.10905539429E+03  0.41800000000E+01 0.  1.
         -5    1    3    3    0  502  0.23057710530E+02  0.41575750861E+02  0.25772926960E+01  0.47794517596E+02  0.41800000000E+01 0.  1.
        -11    1    4    4    0    0 -0.29673496184E+02 -0.27756613992E+02 -0.52406750067E+02  0.66312996076E+02  0.00000000000E+00 0.  1.
         11    1    4    4    0    0 -0.83917363504E+01  0.51579149481E+02 -0.11596933805E+03  0.12719951757E+03  0.00000000000E+00 0. -1.
</event>
<event>
 8    1  0.4798744E-006  0.9097496E+02  0.7561462E-02  0.1300508E+00
          1   -1    0    0  501    0  0.00000000000E+00  0.00000000000E+00  0.81310633271E+02  0.81310633271E+02  0.00000000000E+00 0. -1.
         -1   -1    0    0    0  501 -0.00000000000E+00 -0.00000000000E+00 -0.30248922954E+03  0.30248922954E+03  0.00000000000E+00 0.  1.
         23    2    1    2    0    0  0.27975013340E+02  0.57543615792E+02 -0.23307263986E+03  0.27214553229E+03  0.12508583535E+03 0.  0.
         23    2    1    2    0    0 -0.27975013340E+02 -0.57543615792E+02  0.11894043591E+02  0.11165433052E+03  0.90726799578E+02 0.  0.
          5    1    3    3  502    0  0.59281683252E+02  0.62183448439E+02 -0.85943817073E+02  0.12159322071E+03  0.41800000000E+01 0. -1.
         -5    1    3    3    0  502 -0.31306669913E+02 -0.46398326475E+01 -0.14712882279E+03  0.15055231158E+03  0.41800000000E+01 0. -1.
        -11    1    4    4    0    0 -0.13370514134E+02 -0.25343657777E+02 -0.39789799922E+02  0.49033660026E+02  0.00000000000E+00 0.  1.
         11    1    4    4    0    0 -0.14604499206E+02 -0.32199958015E+02  0.51683843512E+02  0.62620670496E+02  0.00000000000E+00 0. -1.
</event>
<event>
 8    1  0.4798744E-006  0.5944358E+02  0.7561462E-02  0.1400182E+00
          1   -1    0    0  501    0  0.00000000000E+00  0.00000000000E+00  0.19646103095E+03  0.19646103095E+03  0.00000000000E+00 0. -1.
         -1   -1    0    0    0  501 -0.00000000000E+00 -0.00000000000E+00 -0.83866915671E+02  0.83866915671E+02  0.00000000000E+00 0.  1.
         23    2    1    2    0    0 -0.64161978090E+01 -0.11511462999E+02 -0.12733350950E+02  0.12642724024E+03  0.12509207598E+03 0.  0.
         23    2    1    2    0    0  0.64161978090E+01  0.11511462999E+02  0.12532746623E+03  0.15390070638E+03  0.88344622127E+02 0.  0.
          5    1    3    3  502    0 -0.17206021965E+02 -0.11061137506E+02  0.54417663014E+02  0.58285078731E+02  0.41800000000E+01 0. -1.
         -5    1    3    3    0  502  0.10789824156E+02 -0.45032549326E+00 -0.67151013964E+02  0.68142161506E+02  0.41800000000E+01 0. -1.
        -11    1    4    4    0    0  0.29144547419E+02 -0.28276660659E+02  0.39733247317E+02  0.56812895760E+02  0.00000000000E+00 0.  1.
         11    1    4    4    0    0 -0.22728349610E+02  0.39788123658E+02  0.85594218909E+02  0.97087810620E+02  0.00000000000E+00 0. -1.
</event>
<event>
 8    1  0.4798744E-006  0.1166655E+03  0.7561462E-02  0.1248702E+00
         -2   -1    0    0    0  501 -0.00000000000E+00  0.00000000000E+00  0.30805759995E+02  0.30805759995E+02  0.00000000000E+00 0.  1.
          2   -1    0    0  501    0  0.00000000000E+00 -0.00000000000E+00 -0.50673315792E+03  0.50673315792E+03  0.00000000000E+00 0. -1.
         23    2    1    2    0    0  0.46751837943E+02 -0.22824047478E+02 -0.19120346008E+03  0.23434137404E+03  0.12510173839E+03 0.  0.
         23    2    1    2    0    0 -0.46751837943E+02  0.22824047478E+02 -0.28472393785E+03  0.30319754387E+03  0.90301485765E+02 0.  0.
          5    1    3    3  502    0  0.86333168408E+02 -0.35051721195E+02 -0.12186708329E+03  0.15346366839E+03  0.41800000000E+01 0.  1.
         -5    1    3    3    0  502 -0.39581330466E+02  0.12227673717E+02 -0.69336376782E+02  0.80877705650E+02  0.41800000000E+01 0.  1.
        -11    1    4    4    0    0 -0.32565947872E+02 -0.29664054697E+02 -0.79449828810E+02  0.90844770900E+02  0.00000000000E+00 0.  1.
         11    1    4    4    0    0 -0.14185890070E+02  0.52488102175E+02 -0.20527410904E+03  0.21235277297E+03  0.00000000000E+00 0. -1.
</event>
<event>
 8    1  0.4841591E-006  0.1588451E+03  0.7561462E-02  0.1190007E+00
         -2   -1    0    0    0  501 -0.00000000000E+00  0.00000000000E+00  0.20388402411E+02  0.20388402411E+02  0.00000000000E+00 0.  1.
          2   -1    0    0  501    0  0.00000000000E+00 -0.00000000000E+00 -0.13460315252E+04  0.13460315252E+04  0.00000000000E+00 0. -1.
         23    2    1    2    0    0  0.12237757721E+03  0.19379703829E+02 -0.63288704943E+03  0.65692090709E+03  0.12508883451E+03 0.  0.
         23    2    1    2    0    0 -0.12237757721E+03 -0.19379703829E+02 -0.69275607338E+03  0.70949902053E+03  0.90144542888E+02 0.  0.
          5    1    3    3  502    0  0.14200455458E+03  0.38083411399E+02 -0.56151362718E+03  0.58045729012E+03  0.41800000000E+01 0.  1.
         -5    1    3    3    0  502 -0.19626977367E+02 -0.18703707571E+02 -0.71373422242E+02  0.76463616969E+02  0.41800000000E+01 0.  1.
        -11    1    4    4    0    0 -0.98407619229E+02  0.16745265757E+02 -0.58311791486E+03  0.59160034320E+03  0.00000000000E+00 0. -1.
         11    1    4    4    0    0 -0.23969957981E+02 -0.36124969585E+02 -0.10963815852E+03  0.11789867733E+03  0.00000000000E+00 0.  1.
</event>
<event>
 8    1  0.4798744E-006  0.2079820E+03  0.7561462E-02  0.1143174E+00
         -1   -1    0    0    0  501 -0.00000000000E+00  0.00000000000E+00  0.26872622941E+02  0.26872622941E+02  0.00000000000E+00 0.  1.
          1   -1    0    0  501    0  0.00000000000E+00 -0.00000000000E+00 -0.18692417697E+04  0.18692417697E+04  0.00000000000E+00 0. -1.
         23    2    1    2    0    0  0.11851712202E+03  0.15567588002E+03 -0.95317597946E+03  0.98105735743E+03  0.12509117842E+03 0.  0.
         23    2    1    2    0    0 -0.11851712202E+03 -0.15567588002E+03 -0.88919316728E+03  0.91505703519E+03  0.91562006765E+02 0.  0.
          5    1    3    3  502    0  0.77308605226E+02  0.43925296746E+02 -0.63655901400E+03  0.64275259848E+03  0.41800000000E+01 0. -1.
         -5    1    3    3    0  502  0.41208516795E+02  0.11175058327E+03 -0.31661696545E+03  0.33830475895E+03  0.41800000000E+01 0. -1.
        -11    1    4    4    0    0 -0.10191010261E+03 -0.77987933501E+02 -0.66335326295E+03  0.67565178772E+03  0.00000000000E+00 0. -1.
         11    1    4    4    0    0 -0.16607019415E+02 -0.77687946518E+02 -0.22583990433E+03  0.23940524747E+03  0.00000000000E+00 0.  1.
</event>
<event>
 8    1  0.4798744E-006  0.9385958E+02  0.7561462E-02  0.1293765E+00
         -1   -1    0    0    0  501 -0.00000000000E+00  0.00000000000E+00  0.50259407471E+02  0.50259407471E+02  0.00000000000E+00 0.  1.
          1   -1    0    0  501    0  0.00000000000E+00 -0.00000000000E+00 -0.25704843511E+03  0.25704843511E+03  0.00000000000E+00 0. -1.
         23    2    1    2    0    0  0.12198043746E+02  0.16634945070E+02 -0.81577460186E+02  0.15075711589E+03  0.12508921742E+03 0.  0.
         23    2    1    2    0    0 -0.12198043746E+02 -0.16634945070E+02 -0.12521156746E+03  0.15655072669E+03  0.91677040384E+02 0.  0.
          5    1    3    3  502    0 -0.41884643296E+02 -0.28450852013E+02 -0.13139725052E+02  0.52477605688E+02  0.41800000000E+01 0.  1.
         -5    1    3    3    0  502  0.54082687042E+02  0.45085797083E+02 -0.68437735134E+02  0.98279510207E+02  0.41800000000E+01 0.  1.
        -11    1    4    4    0    0 -0.21973165680E+02  0.19233559894E+02 -0.11405816178E+03  0.11773705493E+03  0.00000000000E+00 0. -1.
         11    1    4    4    0    0  0.97751219341E+01 -0.35868504963E+02 -0.11153405681E+02  0.38813671759E+02  0.00000000000E+00 0.  1.
</event>
<event>
 8    1  0.5653071E-006  0.8809732E+02  0.7561462E-02  0.1307526E+00
          4   -1    0    0  501    0  0.00000000000E+00  0.00000000000E+00  0.11128501544E+02  0.11128501544E+02  0.00000000000E+00 0. -1.
         -4   -1    0    0    0  501 -0.00000000000E+00 -0.00000000000E+00 -0.10090408925E+04  0.10090408925E+04  0.00000000000E+00 0.  1.
         23    2    1    2    0    0  0.10133777783E+02 -0.11788903347E+02 -0.65552522680E+03  0.66753490911E+03  0.12509140742E+03 0.  0.
         23    2    1    2    0    0 -0.10133777783E+02  0.11788903347E+02 -0.34238716419E+03  0.35263448497E+03  0.82948406224E+02 0.  0.
          5    1    3    3  502    0 -0.84563005869E+01  0.40675124124E+02 -0.89461632406E+02  0.98726039194E+02  0.41800000000E+01 0. -1.
         -5    1    3    3    0  502  0.18590078370E+02 -0.52464027471E+02 -0.56606359440E+03  0.56880886991E+03  0.41800000000E+01 0. -1.
        -11    1    4    4    0    0 -0.35064890769E+02 -0.18295519804E+02 -0.10802617190E+03  0.11503880400E+03  0.00000000000E+00 0. -1.
         11    1    4    4    0    0  0.24931112986E+02  0.30084423150E+02 -0.23436099229E+03  0.23759568098E+03  0.00000000000E+00 0.  1.
</event>
<event>
 8    1  0.4798744E-006  0.1217087E+03  0.7561462E-02  0.1240305E+00
         -1   -1    0    0    0  501 -0.00000000000E+00  0.00000000000E+00  0.62830105268E+02  0.62830105268E+02  0.00000000000E+00 0.  1.
          1   -1    0    0  501    0  0.00000000000E+00 -0.00000000000E+00 -0.53280555085E+03  0.53280555085E+03  0.00000000000E+00 0. -1.
         23    2    1    2    0    0 -0.27177544886E+02 -0.48070379520E+02 -0.28486224435E+02  0.13967042383E+03  0.12508789701E+03 0.  0.
         23    2    1    2    0    0  0.27177544886E+02  0.48070379520E+02 -0.44148922115E+03  0.45596523229E+03  0.99710482553E+02 0.  0.
          5    1    3    3  502    0 -0.73044154623E+01 -0.89712560346E+02 -0.23158946534E+02  0.93034978227E+02  0.41800000000E+01 0.  1.
         -5    1    3    3    0  502 -0.19873129424E+02  0.41642180826E+02 -0.53272779010E+01  0.46635445606E+02  0.41800000000E+01 0.  1.
        -11    1    4    4    0    0  0.33962176082E+02  0.73336896131E+02 -0.38912736992E+03  0.39743155355E+03  0.00000000000E+00 0. -1.
         11    1    4    4    0    0 -0.67846311965E+01 -0.25266516610E+02 -0.52361851226E+02  0.58533678732E+02  0.00000000000E+00 0.  1.
</event>
<event>
 8    1  0.4798744E-006  0.1476937E+03  0.7561462E-02  0.1203336E+00
         -2   -1    0    0    0  501 -0.00000000000E+00  0.00000000000E+00  0.20653171645E+02  0.20653171645E+02  0.00000000000E+00 0.  1.
          2   -1    0    0  501    0  0.00000000000E+00 -0.00000000000E+00 -0.13113450560E+04  0.13113450560E+04  0.00000000000E+00 0. -1.
         23    2    1    2    0    0  0.12042452122E+03 -0.22887390862E+02 -0.72832780451E+03  0.74909234867E+03  0.12510818534E+03 0.  0.
         23    2    1    2    0    0 -0.12042452122E+03  0.22887390862E+02 -0.56236407988E+03  0.58290587901E+03  0.92195485128E+02 0.  0.
          5    1    3    3  502    0  0.96108531886E+02 -0.50118742079E+02 -0.29676298769E+03  0.31596594986E+03  0.41800000000E+01 0. -1.
         -5    1    3    3    0  502  0.24315989329E+02  0.27231351217E+02 -0.43156481682E+03  0.43312639880E+03  0.41800000000E+01 0. -1.
        -11    1    4    4    0    0 -0.50796341195E+02 -0.33265321875E+02 -0.17132772566E+03  0.18176919293E+03  0.00000000000E+00 0.  1.
         11    1    4    4    0    0 -0.69628180021E+02  0.56152712737E+02 -0.39103635421E+03  0.40113668608E+03  0.00000000000E+00 0. -1.
</event>
<event>
 8    1  0.4798744E-006  0.1566409E+03  0.7561462E-02  0.1192542E+00
         -2   -1    0    0    0  501 -0.00000000000E+00  0.00000000000E+00  0.17361016848E+03  0.17361016848E+03  0.00000000000E+00 0. -1.
          2   -1    0    0  501    0  0.00000000000E+00 -0.00000000000E+00 -0.18023143083E+03  0.18023143083E+03  0.00000000000E+00 0.  1.
         23    2    1    2    0    0  0.14434499715E+02  0.13064925026E+03  0.29154774263E+02  0.18378497973E+03  0.12509730826E+03 0.  0.
         23    2    1    2    0    0 -0.14434499715E+02 -0.13064925026E+03 -0.35776036614E+02  0.17005661958E+03  0.10179267012E+03 0.  0.
          5    1    3    3  502    0  0.36347014866E+02  0.41814851773E+02  0.64926687574E+02  0.85454868076E+02  0.41800000000E+01 0.  1.
         -5    1    3    3    0  502 -0.21912515150E+02  0.88834398490E+02 -0.35771913311E+02  0.98330111651E+02  0.41800000000E+01 0.  1.
        -11    1    4    4    0    0 -0.57943960716E+02 -0.86734269129E+02 -0.19296490189E+02  0.10607869983E+03  0.00000000000E+00 0.  1.
         11    1    4    4    0    0  0.43509461001E+02 -0.43914981134E+02 -0.16479546425E+02  0.63977919746E+02  0.00000000000E+00 0. -1.
</event>
<event>
 8    1  0.4798744E-006  0.9476012E+02  0.7561462E-02  0.1291717E+00
         -1   -1    0    0    0  501 -0.00000000000E+00  0.00000000000E+00  0.17817190648E+03  0.17817190648E+03  0.00000000000E+00 0.  1.
          1   -1    0    0  501    0  0.00000000000E+00 -0.00000000000E+00 -0.81997578992E+02  0.81997578992E+02  0.00000000000E+00 0. -1.
         23    2    1    2    0    0 -0.15848730219E+02  0.48325824423E+02  0.55463991389E+02  0.14839023491E+03  0.12789386193E+03 0.  0.
         23    2    1    2    0    0  0.15848730219E+02 -0.48325824423E+02  0.40710336099E+02  0.11177925056E+03  0.90833374016E+02 0.  0.
          5    1    3    3  502    0  0.20333407626E+02 -0.60795250548E+01 -0.32313355128E+02  0.38884873797E+02  0.41800000000E+01 0. -1.
         -5    1    3    3    0  502 -0.36182137844E+02  0.54405349478E+02  0.87777346518E+02  0.10950536111E+03  0.41800000000E+01 0.  1.
        -11    1    4    4    0    0  0.18377250566E+02 -0.74189083194E+02  0.21300099974E+02  0.79343794101E+02  0.00000000000E+00 0. -1.
         11    1    4    4    0    0 -0.25285203476E+01  0.25863258770E+02  0.19410236125E+02  0.32435456460E+02  0.00000000000E+00 0.  1.
</event>
<event>
 7    1  0.4798744E-006  0.1050127E+03  0.7561462E-02  0.1270095E+00
          1   -1    0    0  501    0  0.00000000000E+00  0.00000000000E+00  0.23937759820E+03  0.23937759820E+03  0.00000000000E+00 0. -1.
         -1   -1    0    0    0  501 -0.00000000000E+00 -0.00000000000E+00 -0.91295267899E+02  0.91295267899E+02  0.00000000000E+00 0.  1.
         23    2    1    2    0    0 -0.29719998815E+02 -0.53680622289E+02  0.48693940560E+02  0.12152434430E+03  0.92909519813E+02 0.  0.
          5    1    1    2  502    0  0.74132220987E+02  0.10757414423E+02  0.12201644988E+03  0.14323684789E+03  0.41800000000E+01 0. -1.
         -5    1    1    2    0  502 -0.44412222172E+02  0.42923207866E+02 -0.22628060134E+02  0.65911673907E+02  0.41800000000E+01 0.  1.
        -11    1    3    3    0    0 -0.17022211254E+02  0.90993150093E+00 -0.24183106712E+02  0.29587265868E+02  0.00000000000E+00 0. -1.
         11    1    3    3    0    0 -0.12697787561E+02 -0.54590553789E+02  0.72877047272E+02  0.91937078434E+02  0.00000000000E+00 0.  1.
</event>
<event>
 8    1  0.4798744E-006  0.1067877E+03  0.7561462E-02  0.1266637E+00
         -2   -1    0    0    0  501 -0.00000000000E+00  0.00000000000E+00  0.14390309709E+03  0.14390309709E+03  0.00000000000E+00 0.  1.
          2   -1    0    0  501    0  0.00000000000E+00 -0.00000000000E+00 -0.21946656696E+03  0.21946656696E+03  0.00000000000E+00 0. -1.
         23    2    1    2    0    0  0.53088870985E+02 -0.42055616680E+02  0.85182642543E+02  0.16582176458E+03  0.12511463504E+03 0.  0.
         23    2    1    2    0    0 -0.53088870985E+02  0.42055616680E+02 -0.16074611241E+03  0.19754789947E+03  0.92729481888E+02 0.  0.
          5    1    3    3  502    0  0.73547978620E+02 -0.56844230872E+02  0.19141926332E+02  0.94997144621E+02  0.41800000000E+01 0.  1.
         -5    1    3    3    0  502 -0.20459107635E+02  0.14788614192E+02  0.66040716212E+02  0.70824619962E+02  0.41800000000E+01 0.  1.
        -11    1    4    4    0    0 -0.24199742300E+02 -0.16742471833E+02 -0.67426651262E+01  0.30189425689E+02  0.00000000000E+00 0.  1.
         11    1    4    4    0    0 -0.28889128685E+02  0.58798088513E+02 -0.15400344729E+03  0.16735847378E+03  0.00000000000E+00 0. -1.
</event>
<event>
 8    1  0.4798744E-006  0.1518419E+03  0.7561462E-02  0.1198228E+00
         -4   -1    0    0    0  501 -0.00000000000E+00  0.00000000000E+00  0.15872187336E+04  0.15872187336E+04  0.00000000000E+00 0.  1.
          4   -1    0    0  501    0  0.00000000000E+00 -0.00000000000E+00 -0.34739721669E+02  0.34739721669E+02  0.00000000000E+00 0. -1.
         23    2    1    2    0    0 -0.11284946082E+03 -0.29843266769E+02  0.13956747999E+04  0.14061228500E+04  0.12509077061E+03 0.  0.
         23    2    1    2    0    0  0.11284946082E+03  0.29843266769E+02  0.15680421209E+03  0.21583560530E+03  0.91497684179E+02 0.  0.
          5    1    3    3  502    0 -0.13196081613E+03 -0.31529674202E+02  0.91166154797E+03  0.92171146667E+03  0.41800000000E+01 0. -1.
         -5    1    3    3    0  502  0.19111355313E+02  0.16864074333E+01  0.48401325189E+03  0.48441138330E+03  0.41800000000E+01 0. -1.
        -11    1    4    4    0    0  0.32182956045E+02  0.55074235469E+02  0.68480729969E+02  0.93586988676E+02  0.00000000000E+00 0.  1.
         11    1    4    4    0    0  0.80666504775E+02 -0.25230968700E+02  0.88323482116E+02  0.12224861663E+03  0.00000000000E+00 0. -1.
</event>
<event>
 8    1  0.4798744E-006  0.1401460E+03  0.7561462E-02  0.1213133E+00
          2   -1    0    0  501    0  0.00000000000E+00  0.00000000000E+00  0.18860884178E+03  0.18860884178E+03  0.00000000000E+00 0. -1.
         -2   -1    0    0    0  501 -0.00000000000E+00 -0.00000000000E+00 -0.21335952374E+03  0.21335952374E+03  0.00000000000E+00 0.  1.
         23    2    1    2    0    0 -0.11260959277E+03 -0.22598776228E+02 -0.13577643051E+03  0.21742711522E+03  0.12509071221E+03 0.  0.
         23    2    1    2    0    0  0.11260959277E+03  0.22598776228E+02  0.11102574856E+03  0.18454125031E+03  0.92396597082E+02 0.  0.
          5    1    3    3  502    0 -0.13701763111E+03 -0.28017867033E+02 -0.93993717260E+02  0.16855599483E+03  0.41800000000E+01 0.  1.
         -5    1    3    3    0  502  0.24408038348E+02  0.54190908055E+01 -0.41782713255E+02  0.48871120390E+02  0.41800000000E+01 0.  1.
        -11    1    4    4    0    0  0.57275667189E+02  0.82825986499E+01  0.11342446728E+03  0.12733504337E+03  0.00000000000E+00 0. -1.
         11    1    4    4    0    0  0.55333925577E+02  0.14316177578E+02 -0.23987187271E+01  0.57206206934E+02  0.00000000000E+00 0.  1.
</event>
<event>
 8    1  0.4798744E-006  0.9941750E+02  0.7561462E-02  0.1281526E+00
         -2   -1    0    0    0  501 -0.00000000000E+00  0.00000000000E+00  0.34436771946E+02  0.34436771946E+02  0.00000000000E+00 0.  1.
          2   -1    0    0  501    0  0.00000000000E+00 -0.00000000000E+00 -0.52286820802E+03  0.52286820802E+03  0.00000000000E+00 0. -1.
         23    2    1    2    0    0  0.58217641939E+02 -0.51629849885E+02 -0.24202749216E+03  0.28333475468E+03  0.12508533494E+03 0.  0.
         23    2    1    2    0    0 -0.58217641939E+02  0.51629849885E+02 -0.24640394391E+03  0.27397022528E+03  0.91048588861E+02 0.  0.
          5    1    3    3  502    0  0.27974004275E+02  0.15793910762E+02 -0.19029611824E+03  0.19303387669E+03  0.41800000000E+01 0. -1.
         -5    1    3    3    0  502  0.30243637664E+02 -0.67423760647E+02 -0.51731373924E+02  0.90300877997E+02  0.41800000000E+01 0. -1.
        -11    1    4    4    0    0 -0.47274984080E+02  0.86316614664E+01 -0.39048558532E+02  0.61921075756E+02  0.00000000000E+00 0.  1.
         11    1    4    4    0    0 -0.10942657860E+02  0.42998188418E+02 -0.20735538538E+03  0.21204914953E+03  0.00000000000E+00 0. -1.
</event>
<event>
 8    1  0.4798744E-006  0.1258893E+03  0.7561462E-02  0.1233686E+00
          1   -1    0    0  501    0  0.00000000000E+00  0.00000000000E+00  0.10294178261E+04  0.10294178261E+04  0.00000000000E+00 0. -1.
         -1   -1    0    0    0  501 -0.00000000000E+00 -0.00000000000E+00 -0.16361931200E+02  0.16361931200E+02  0.00000000000E+00 0.  1.
         23    2    1    2    0    0 -0.15036478639E+02  0.64936750890E+02  0.45689678878E+03  0.47838119415E+03  0.12510401277E+03 0.  0.
         23    2    1    2    0    0  0.15036478639E+02 -0.64936750890E+02  0.55615910610E+03  0.56739856313E+03  0.90472652445E+02 0.  0.
          5    1    3    3  502    0  0.63800933613E+01  0.99869923608E+02  0.33962633393E+03  0.35408787939E+03  0.41800000000E+01 0. -1.
         -5    1    3    3    0  502 -0.21416572000E+02 -0.34933172719E+02  0.11727045485E+03  0.12429331476E+03  0.41800000000E+01 0. -1.
        -11    1    4    4    0    0  0.36898883241E+01  0.22226596370E+02  0.76368096573E+02  0.79622377735E+02  0.00000000000E+00 0.  1.
         11    1    4    4    0    0  0.11346590315E+02 -0.87163347260E+02  0.47979100952E+03  0.48777618539E+03  0.00000000000E+00 0. -1.
</event>
<event>
 8    1  0.4798744E-006  0.9675881E+02  0.7561462E-02  0.1287263E+00
          2   -1    0    0  501    0  0.00000000000E+00  0.00000000000E+00  0.54995350715E+02  0.54995350715E+02  0.00000000000E+00 0. -1.
         -2   -1    0    0    0  501 -0.00000000000E+00 -0.00000000000E+00 -0.25896957869E+03  0.25896957869E+03  0.00000000000E+00 0.  1.
         23    2    1    2    0    0  0.46996149733E+02 -0.61168741913E+00 -0.16106206155E+03  0.20257005279E+03  0.11351046808E+03 0.  0.
         23    2    1    2    0    0 -0.46996149733E+02  0.61168741913E+00 -0.42912166424E+02  0.11139487662E+03  0.91424024513E+02 0.  0.
          5    1    3    3  502    0  0.70234115483E+02 -0.26324128569E+01 -0.43760602872E+02  0.82898874171E+02  0.41800000000E+01 0. -1.
         -5    1    3    3    0  502 -0.23237965750E+02  0.20207254378E+01 -0.11730145868E+03  0.11967117862E+03  0.41800000000E+01 0.  1.
        -11    1    4    4    0    0 -0.11562342400E+01  0.39367927714E+02 -0.31175744880E+02  0.50230445738E+02  0.00000000000E+00 0. -1.
         11    1    4    4    0    0 -0.45839915493E+02 -0.38756240295E+02 -0.11736421544E+02  0.61164430880E+02  0.00000000000E+00 0.  1.
</event>
<event>
 8    1  0.4798744E-006  0.1497339E+03  0.7561462E-02  0.1200800E+00
         -2   -1    0    0    0  501 -0.00000000000E+00  0.00000000000E+00  0.50858745349E+03  0.50858745349E+03  0.00000000000E+00 0.  1.
          2   -1    0    0  501    0  0.00000000000E+00 -0.00000000000E+00 -0.51522642098E+02  0.51522642098E+02  0.00000000000E+00 0. -1.
         23    2    1    2    0    0 -0.10039433643E+03 -0.62167848030E+02  0.29299407134E+03  0.33987737964E+03  0.12540830607E+03 0.  0.
         23    2    1    2    0    0  0.10039433643E+03  0.62167848030E+02  0.16407074005E+03  0.22023271595E+03  0.87403531505E+02 0.  0.
          5    1    3    3  502    0 -0.12676631584E+03 -0.31456011448E+02  0.23725661635E+03  0.27086408748E+03  0.41800000000E+01 0. -1.
         -5    1    3    3    0  502  0.26371979414E+02 -0.30711836582E+02  0.55737454996E+02  0.69013292154E+02  0.41800000000E+01 0. -1.
        -11    1    4    4    0    0  0.80842706524E+01  0.28840361241E+02  0.96596024511E+02  0.10113314897E+03  0.00000000000E+00 0.  1.
         11    1    4    4    0    0  0.92310065774E+02  0.33327486789E+02  0.67474715538E+02  0.11909956698E+03  0.00000000000E+00 0. -1.
</event>
<event>
 8    1  0.4798744E-006  0.1784287E+03  0.7561462E-02  0.1169332E+00
          2   -1    0    0  501    0  0.00000000000E+00  0.00000000000E+00  0.11113945197E+04  0.11113945197E+04  0.00000000000E+00 0. -1.
         -2   -1    0    0    0  501 -0.00000000000E+00 -0.00000000000E+00 -0.32978481956E+02  0.32978481956E+02  0.00000000000E+00 0.  1.
         23    2    1    2    0    0 -0.62062288266E+02 -0.13946483105E+03  0.45069884963E+03  0.49201564845E+03  0.12509108098E+03 0.  0.
         23    2    1    2    0    0  0.62062288266E+02  0.13946483105E+03  0.62771718814E+03  0.65235735323E+03  0.90769385272E+02 0.  0.
          5    1    3    3  502    0  0.91871476135E+01  0.18967160989E+02  0.76124455301E+02  0.79098432172E+02  0.41800000000E+01 0. -1.
         -5    1    3    3    0  502 -0.71249435879E+02 -0.15843199203E+03  0.37457439433E+03  0.41291721628E+03  0.41800000000E+01 0. -1.
        -11    1    4    4    0    0  0.11986961013E+02 -0.14347052798E+01  0.71555573800E+01  0.14033802585E+02  0.00000000000E+00 0.  1.
         11    1    4    4    0    0  0.50075327253E+02  0.14089953633E+03  0.62056163076E+03  0.63832355064E+03  0.00000000000E+00 0. -1.
</event>
<event>
 8    1  0.4798744E-006  0.1426859E+03  0.7561462E-02  0.1209760E+00
         -2   -1    0    0    0  501 -0.00000000000E+00  0.00000000000E+00  0.48034854034E+02  0.48034854034E+02  0.00000000000E+00 0. -1.
          2   -1    0    0  501    0  0.00000000000E+00 -0.00000000000E+00 -0.65956093005E+03  0.65956093005E+03  0.00000000000E+00 0.  1.
         23    2    1    2    0    0 -0.41625429340E+02  0.10536089057E+03 -0.16081964587E+03  0.23311700557E+03  0.12508791372E+03 0.  0.
         23    2    1    2    0    0  0.41625429340E+02 -0.10536089057E+03 -0.45070643015E+03  0.47447877852E+03  0.95709098076E+02 0.  0.
          5    1    3    3  502    0  0.29381747613E+02  0.91555258752E+02 -0.88681385555E+02  0.13087212477E+03  0.41800000000E+01 0. -1.
         -5    1    3    3    0  502 -0.71007176953E+02  0.13805631818E+02 -0.72138260313E+02  0.10224488080E+03  0.41800000000E+01 0. -1.
        -11    1    4    4    0    0  0.11777421031E+02 -0.67186780425E+02 -0.39411998859E+03  0.39997917010E+03  0.00000000000E+00 0.  1.
         11    1    4    4    0    0  0.29848008310E+02 -0.38174110145E+02 -0.56586441561E+02  0.74499608415E+02  0.00000000000E+00 0. -1.
</event>
<event>
 7    1  0.4798744E-006  0.1642283E+03  0.7561462E-02  0.1184004E+00
         -2   -1    0    0    0  501 -0.00000000000E+00  0.00000000000E+00  0.78034257481E+03  0.78034257481E+03  0.00000000000E+00 0.  1.
          2   -1    0    0  501    0  0.00000000000E+00 -0.00000000000E+00 -0.47977745609E+02  0.47977745609E+02  0.00000000000E+00 0. -1.
         23    2    1    2    0    0  0.15932258661E+02  0.11359276497E+03  0.12601612069E+03  0.19359067012E+03  0.91870189745E+02 0.  0.
          5    1    1    2  502    0 -0.33420805084E+02  0.26055428417E+02  0.90626051325E+02  0.10013185877E+03  0.41800000000E+01 0. -1.
         -5    1    1    2    0  502  0.17488546423E+02 -0.13964819339E+03  0.51572265718E+03  0.53459779152E+03  0.41800000000E+01 0.  1.
        -11    1    3    3    0    0  0.19502107690E+02 -0.96631893160E+01  0.31210669198E+02  0.38050168250E+02  0.00000000000E+00 0.  1.
         11    1    3    3    0    0 -0.35698490282E+01  0.12325595429E+03  0.94805451495E+02  0.15554050187E+03  0.00000000000E+00 0. -1.
</event>
<event>
 8    1  0.4798744E-006  0.9372427E+02  0.7561462E-02  0.1294075E+00
          3   -1    0    0  501    0  0.00000000000E+00  0.00000000000E+00  0.86964650466E+02  0.86964650466E+02  0.00000000000E+00 0. -1.
         -3   -1    0    0    0  501 -0.00000000000E+00 -0.00000000000E+00 -0.18164103346E+03  0.18164103346E+03  0.00000000000E+00 0.  1.
         23    2    1    2    0    0  0.37683112129E+02 -0.38436777718E+02 -0.69010265820E+02  0.15269468254E+03  0.12512332504E+03 0.  0.
         23    2    1    2    0    0 -0.37683112129E+02  0.38436777718E+02 -0.25666117177E+02  0.11591100139E+03  0.99394204308E+02 0.  0.
          5    1    3    3  502    0  0.48120295699E+02 -0.51635270985E+02  0.10353350606E+02  0.71459277471E+02  0.41800000000E+01 0.  1.
         -5    1    3    3    0  502 -0.10437183570E+02  0.13198493267E+02 -0.79363616426E+02  0.81235405074E+02  0.41800000000E+01 0.  1.
        -11    1    4    4    0    0  0.24333812194E+02 -0.34370032180E+01  0.16896362867E+02  0.29823388223E+02  0.00000000000E+00 0. -1.
         11    1    4    4    0    0 -0.62016924323E+02  0.41873780936E+02 -0.42562480045E+02  0.86087613162E+02  0.00000000000E+00 0.  1.
</event>
<event>
 8    1  0.4798744E-006  0.1004816E+03  0.7561462E-02  0.1279287E+00
          1   -1    0    0  501    0  0.00000000000E+00  0.00000000000E+00  0.92328868038E+02  0.92328868038E+02  0.00000000000E+00 0. -1.
         -1   -1    0    0    0  501 -0.00000000000E+00 -0.00000000000E+00 -0.16491928661E+03  0.16491928661E+03  0.00000000000E+00 0.  1.
         23    2    1    2    0    0 -0.34624160181E+02  0.51752114009E+02 -0.24800876027E+02  0.13739067959E+03  0.11993332153E+03 0.  0.
         23    2    1    2    0    0  0.34624160181E+02 -0.51752114009E+02 -0.47789542546E+02  0.11985747506E+03  0.90580683254E+02 0.  0.
          5    1    3    3  502    0 -0.31327198319E+02 -0.33326178888E+02  0.68952193866E+01  0.46443987815E+02  0.41800000000E+01 0. -1.
         -5    1    3    3    0  502 -0.32969618617E+01  0.85078292897E+02 -0.31696095414E+02  0.90946691772E+02  0.41800000000E+01 0.  1.
        -11    1    4    4    0    0  0.39426552693E+02 -0.36244053221E+02 -0.72595092107E+02  0.90211594871E+02  0.00000000000E+00 0.  1.
         11    1    4    4    0    0 -0.48023925123E+01 -0.15508060788E+02  0.24805549561E+02  0.29645880191E+02  0.00000000000E+00 0. -1.
</event>
<event>
 8    1  0.4798744E-006  0.1230303E+03  0.7561462E-02  0.1238180E+00
          4   -1    0    0  501    0  0.00000000000E+00  0.00000000000E+00  0.47518301955E+03  0.47518301955E+03  0.00000000000E+00 0. -1.
         -4   -1    0    0    0  501 -0.00000000000E+00 -0.00000000000E+00 -0.35798912122E+02  0.35798912122E+02  0.00000000000E+00 0.  1.
         23    2    1    2    0    0  0.70541726480E+02  0.16600211737E+02  0.20997874603E+03  0.25493159675E+03  0.12508934020E+03 0.  0.
         23    2    1    2    0    0 -0.70541726480E+02 -0.16600211737E+02  0.22940536140E+03  0.25605033492E+03  0.87654161177E+02 0.  0.
          5    1    3    3  502    0  0.32341476955E+02  0.68559041955E+02  0.83204626132E+02  0.11263567630E+03  0.41800000000E+01 0.  1.
         -5    1    3    3    0  502  0.38200249524E+02 -0.51958830218E+02  0.12677411990E+03  0.14229592045E+03  0.41800000000E+01 0.  1.
        -11    1    4    4    0    0 -0.87172863230E+02 -0.17285959419E+02  0.14537484074E+03  0.17038707931E+03  0.00000000000E+00 0.  1.
         11    1    4    4    0    0  0.16631136751E+02  0.68574768236E+00  0.84030520662E+02  0.85663255613E+02  0.00000000000E+00 0. -1.
</event>
<event>
 8    1  0.4798744E-006  0.5185497E+02  0.7561462E-02  0.1435586E+00
          2   -1    0    0  501    0  0.00000000000E+00  0.00000000000E+00  0.21757394526E+03  0.21757394526E+03  0.00000000000E+00 0. -1.
         -2   -1    0    0    0  501 -0.00000000000E+00 -0.00000000000E+00 -0.53989634737E+02  0.53989634737E+02  0.00000000000E+00 0.  1.
         23    2    1    2    0    0  0.19195882750E+02 -0.18003364767E+02  0.70911356356E+02  0.14618815280E+03  0.12509977019E+03 0.  0.
         23    2    1    2    0    0 -0.19195882750E+02  0.18003364767E+02  0.92672954167E+02  0.12537542719E+03  0.80237885393E+02 0.  0.
          5    1    3    3  502    0  0.51393482303E+01  0.14243307219E+02 -0.32922328911E+02  0.36477895248E+02  0.41800000000E+01 0.  1.
         -5    1    3    3    0  502  0.14056534520E+02 -0.32246671987E+02  0.10383368527E+03  0.10971025756E+03  0.41800000000E+01 0.  1.
        -11    1    4    4    0    0 -0.37594584723E+01  0.31710713870E+02  0.15792657190E+01  0.31971815438E+02  0.00000000000E+00 0.  1.
         11    1    4    4    0    0 -0.15436424278E+02 -0.13707349103E+02  0.91093688448E+02  0.93403611755E+02  0.00000000000E+00 0. -1.
</event>
<event>
 8    1  0.4798744E-006  0.1210985E+03  0.7561462E-02  0.1241296E+00
         -2   -1    0    0    0  501 -0.00000000000E+00  0.00000000000E+00  0.27579230813E+02  0.27579230813E+02  0.00000000000E+00 0.  1.
          2   -1    0    0  501    0  0.00000000000E+00 -0.00000000000E+00 -0.58058662287E+03  0.58058662287E+03  0.00000000000E+00 0. -1.
         23    2    1    2    0    0  0.52275627670E+02  0.36231265800E+02 -0.26445692008E+03  0.29938517629E+03  0.12509426579E+03 0.  0.
         23    2    1    2    0    0 -0.52275627670E+02 -0.36231265800E+02 -0.28855047198E+03  0.30878067739E+03  0.89658719503E+02 0.  0.
          5    1    3    3  502    0  0.85153553673E+02 -0.71654456084E+01 -0.15409321554E+03  0.17625170294E+03  0.41800000000E+01 0. -1.
         -5    1    3    3    0  502 -0.32877926004E+02  0.43396711408E+02 -0.11036370454E+03  0.12313347335E+03  0.41800000000E+01 0. -1.
        -11    1    4    4    0    0 -0.51959845692E+02  0.12387060027E+02 -0.92728465441E+02  0.10701323808E+03  0.00000000000E+00 0.  1.
         11    1    4    4    0    0 -0.31578197724E+00 -0.48618325827E+02 -0.19582200654E+03  0.20176743932E+03  0.00000000000E+00 0. -1.
</event>
<event>
 8    1  0.4798744E-006  0.1333432E+03  0.7561462E-02  0.1222578E+00
          4   -1    0    0  501    0  0.00000000000E+00  0.00000000000E+00  0.12003904487E+04  0.12003904487E+04  0.00000000000E+00 0. -1.
         -4   -1    0    0    0  501 -0.00000000000E+00 -0.00000000000E+00 -0.18378239201E+02  0.18378239201E+02  0.00000000000E+00 0.  1.
         23    2    1    2    0    0  0.79853043621E+01 -0.98858157844E+02  0.70921002107E+03  0.72695448572E+03  0.12508904772E+03 0.  0.
         23    2    1    2    0    0 -0.79853043621E+01  0.98858157844E+02  0.47280218843E+03  0.49181420218E+03  0.92209541959E+02 0.  0.
          5    1    3    3  502    0 -0.46197003854E+02 -0.93938964661E+02  0.44461228742E+03  0.45678906595E+03  0.41800000000E+01 0.  1.
         -5    1    3    3    0  502  0.54182308216E+02 -0.49191931828E+01  0.26459773365E+03  0.27016541977E+03  0.41800000000E+01 0.  1.
        -11    1    4    4    0    0  0.12061142816E+02  0.75997216270E+02  0.44157591549E+03  0.44823022789E+03  0.00000000000E+00 0. -1.
         11    1    4    4    0    0 -0.20046447178E+02  0.22860941573E+02  0.31226272934E+02  0.43583974296E+02  0.00000000000E+00 0.  1.
</event>
<event>
 8    1  0.4798744E-006  0.9640870E+02  0.7561462E-02  0.1288035E+00
         -2   -1    0    0    0  501 -0.00000000000E+00  0.00000000000E+00  0.53827170601E+02  0.53827170601E+02  0.00000000000E+00 0. -1.
          2   -1    0    0  501    0  0.00000000000E+00 -0.00000000000E+00 -0.28768103413E+03  0.28768103413E+03  0.00000000000E+00 0.  1.
         23    2    1    2    0    0 -0.14149141108E+02 -0.59866956195E+02 -0.12250127268E+03  0.18557642348E+03  0.12509115278E+03 0.  0.
         23    2    1    2    0    0  0.14149141108E+02  0.59866956195E+02 -0.11135259085E+03  0.15593178125E+03  0.90172447443E+02 0.  0.
          5    1    3    3  502    0 -0.51238536418E+01  0.32907130235E+02 -0.26247178457E+01  0.33667412140E+02  0.41800000000E+01 0.  1.
         -5    1    3    3    0  502 -0.90252874661E+01 -0.92774086430E+02 -0.11987655484E+03  0.15190901134E+03  0.41800000000E+01 0.  1.
        -11    1    4    4    0    0  0.17075171285E+02  0.21440682930E+02  0.95582480477E+01  0.29027994500E+02  0.00000000000E+00 0. -1.
         11    1    4    4    0    0 -0.29260301773E+01  0.38426273265E+02 -0.12091083890E+03  0.12690378675E+03  0.00000000000E+00 0.  1.
</event>
<event>
 8    1  0.4798744E-006  0.1220451E+03  0.7561462E-02  0.1239761E+00
          1   -1    0    0  501    0  0.00000000000E+00  0.00000000000E+00  0.66325132389E+03  0.66325132389E+03  0.00000000000E+00 0. -1.
         -1   -1    0    0    0  501 -0.00000000000E+00 -0.00000000000E+00 -0.26251118951E+02  0.26251118951E+02  0.00000000000E+00 0.  1.
         23    2    1    2    0    0  0.44565597075E+01  0.72140974020E+02  0.29362693426E+03  0.32724252557E+03  0.12508682171E+03 0.  0.
         23    2    1    2    0    0 -0.44565597075E+01 -0.72140974020E+02  0.34337327069E+03  0.36225991727E+03  0.90015907385E+02 0.  0.
          5    1    3    3  502    0  0.63415000788E+02  0.50943150335E+02  0.17479113719E+03  0.19283692834E+03  0.41800000000E+01 0.  1.
         -5    1    3    3    0  502 -0.58958441081E+02  0.21197823685E+02  0.11883579706E+03  0.13440559723E+03  0.41800000000E+01 0.  1.
        -11    1    4    4    0    0 -0.29432849794E+02 -0.72455809908E+01  0.35726791269E+02  0.46852904982E+02  0.00000000000E+00 0.  1.
         11    1    4    4    0    0  0.24976290087E+02 -0.64895393029E+02  0.30764647942E+03  0.31540701229E+03  0.00000000000E+00 0. -1.
</event>
<event>
 8    1  0.4798744E-006  0.7941075E+02  0.7561462E-02  0.1330732E+00
         -1   -1    0    0    0  501 -0.00000000000E+00  0.00000000000E+00  0.74609078560E+03  0.74609078560E+03  0.00000000000E+00 0.  1.
          1   -1    0    0  501    0  0.00000000000E+00 -0.00000000000E+00 -0.35889691442E+02  0.35889691442E+02  0.00000000000E+00 0. -1.
         23    2    1    2    0    0 -0.35617571694E+01  0.23045775549E+02  0.66950538395E+03  0.68146806736E+03  0.12496989157E+03 0.  0.
         23    2    1    2    0    0  0.35617571694E+01 -0.23045775549E+02  0.40695710199E+02  0.10051240968E+03  0.88897749050E+02 0.  0.
          5    1    3    3  502    0 -0.39062733319E+02  0.15228363492E+02  0.76506931165E+02  0.87341760374E+02  0.41800000000E+01 0. -1.
         -5    1    3    3    0  502  0.35500976150E+02  0.78174120572E+01  0.59299845279E+03  0.59412630698E+03  0.41800000000E+01 0.  1.
        -11    1    4    4    0    0 -0.55408986723E+01 -0.50690119151E+02  0.48506551890E+02  0.70378088308E+02  0.00000000000E+00 0. -1.
         11    1    4    4    0    0  0.91026558416E+01  0.27644343602E+02 -0.78108416910E+01  0.30134321371E+02  0.00000000000E+00 0.  1.
</event>
<event>
 8    1  0.4798744E-006  0.2841180E+03  0.7561462E-02  0.1093461E+00
         -1   -1    0    0    0  501 -0.00000000000E+00  0.00000000000E+00  0.12747033320E+03  0.12747033320E+03  0.00000000000E+00 0.  1.
          1   -1    0    0  501    0  0.00000000000E+00 -0.00000000000E+00 -0.71981209719E+03  0.71981209719E+03  0.00000000000E+00 0. -1.
         23    2    1    2    0    0  0.26731671905E+03  0.72015634688E+02 -0.22294322325E+03  0.37682253271E+03  0.12508821063E+03 0.  0.
         23    2    1    2    0    0 -0.26731671905E+03 -0.72015634688E+02 -0.36939854073E+03  0.47045989768E+03  0.90734522123E+02 0.  0.
          5    1    3    3  502    0  0.95838070012E+02 -0.18083062893E+02 -0.27050326744E+02  0.10129721321E+03  0.41800000000E+01 0. -1.
         -5    1    3    3    0  502  0.17147864904E+03  0.90098697581E+02 -0.19589289651E+03  0.27552531950E+03  0.41800000000E+01 0. -1.
        -11    1    4    4    0    0 -0.18639065043E+03 -0.48746980304E+02 -0.31799668128E+03  0.37180590631E+03  0.00000000000E+00 0.  1.
         11    1    4    4    0    0 -0.80926068618E+02 -0.23268654384E+02 -0.51401859450E+02  0.98653991372E+02  0.00000000000E+00 0. -1.
</event>
<event>
 7    1  0.4798744E-006  0.1784917E+03  0.7561462E-02  0.1169271E+00
          2   -1    0    0  501    0  0.00000000000E+00  0.00000000000E+00  0.13839569514E+04  0.13839569514E+04  0.00000000000E+00 0. -1.
         -2   -1    0    0    0  501 -0.00000000000E+00 -0.00000000000E+00 -0.51036295980E+02  0.51036295980E+02  0.00000000000E+00 0.  1.
         23    2    1    2    0    0 -0.63212960610E+02 -0.99648334713E+02  0.68955514186E+03  0.70546316094E+03  0.90919243167E+02 0.  0.
          5    1    1    2  502    0 -0.16287024277E+02 -0.42444141800E+02  0.52792221900E+03  0.52989254953E+03  0.41800000000E+01 0. -1.
         -5    1    1    2    0  502  0.79499984887E+02  0.14209247651E+03  0.11544329452E+03  0.19963753687E+03  0.41800000000E+01 0.  1.
        -11    1    3    3    0    0 -0.70448792167E+02 -0.26996269866E+02  0.37966070521E+03  0.38708407612E+03  0.00000000000E+00 0. -1.
         11    1    3    3    0    0  0.72358315570E+01 -0.72652064847E+02  0.30989443665E+03  0.31837908482E+03  0.00000000000E+00 0.  1.
</event>
<event>
 8    1  0.4798744E-006  0.1320768E+03  0.7561462E-02  0.1224406E+00
          2   -1    0    0  501    0  0.00000000000E+00  0.00000000000E+00  0.22020505344E+03  0.22020505344E+03  0.00000000000E+00 0. -1.
         -2   -1    0    0    0  501 -0.00000000000E+00 -0.00000000000E+00 -0.10666368445E+03  0.10666368445E+03  0.00000000000E+00 0.  1.
         23    2    1    2    0    0  0.46154457704E+02 -0.83910414390E+02  0.99800765241E+01  0.15785671952E+03  0.12509176776E+03 0.  0.
         23    2    1    2    0    0 -0.46154457704E+02  0.83910414390E+02  0.10356129247E+03  0.16901201837E+03  0.93107085906E+02 0.  0.
          5    1    3    3  502    0  0.67203866624E+02 -0.27324139733E+02 -0.36716983083E+02  0.81416076718E+02  0.41800000000E+01 0. -1.
         -5    1    3    3    0  502 -0.21049408921E+02 -0.56586274657E+02  0.46697059608E+02  0.76440642799E+02  0.41800000000E+01 0. -1.
        -11    1    4    4    0    0  0.20936071437E+02  0.53221820634E+02  0.29014917884E+02  0.64130700438E+02  0.00000000000E+00 0.  1.
         11    1    4    4    0    0 -0.67090529140E+02  0.30688593756E+02  0.74546374581E+02  0.10488131793E+03  0.00000000000E+00 0. -1.
</event>
<event>
 8    1  0.4798744E-006  0.7517258E+02  0.7561462E-02  0.1343337E+00
         -2   -1    0    0    0  501 -0.00000000000E+00  0.00000000000E+00  0.27890137247E+02  0.27890137247E+02  0.00000000000E+00 0.  1.
          2   -1    0    0  501    0  0.00000000000E+00 -0.00000000000E+00 -0.59810354319E+03  0.59810354319E+03  0.00000000000E+00 0. -1.
         23    2    1    2    0    0  0.14011587000E+02  0.16023815770E+02 -0.15519930967E+03  0.20048665800E+03  0.12511989079E+03 0.  0.
         23    2    1    2    0    0 -0.14011587000E+02 -0.16023815770E+02 -0.41501409627E+03  0.42550702244E+03  0.91468239286E+02 0.  0.
          5    1    3    3  502    0  0.26298609980E+02 -0.96621362830E+01 -0.16699781620E+03  0.16938334269E+03  0.41800000000E+01 0.  1.
         -5    1    3    3    0  502 -0.12287022980E+02  0.25685952053E+02  0.11798506535E+02  0.31103315306E+02  0.41800000000E+01 0.  1.
        -11    1    4    4    0    0 -0.81370561219E+01 -0.54101930041E+02 -0.21795547183E+03  0.22471719609E+03  0.00000000000E+00 0. -1.
         11    1    4    4    0    0 -0.58745308785E+01  0.38078114271E+02 -0.19705862444E+03  0.20078982635E+03  0.00000000000E+00 0.  1.
</event>
<event>
 8    1  0.4798744E-006  0.1964267E+03  0.7561462E-02  0.1152789E+00
          1   -1    0    0  501    0  0.00000000000E+00  0.00000000000E+00  0.61025721679E+03  0.61025721679E+03  0.00000000000E+00 0. -1.
         -1   -1    0    0    0  501 -0.00000000000E+00 -0.00000000000E+00 -0.71936025045E+02  0.71936025045E+02  0.00000000000E+00 0.  1.
         23    2    1    2    0    0 -0.85207597753E+02 -0.15740589115E+03  0.28561591022E+03  0.35952866208E+03  0.12508981333E+03 0.  0.
         23    2    1    2    0    0  0.85207597753E+02  0.15740589115E+03  0.25270528152E+03  0.32266457976E+03  0.90639519186E+02 0.  0.
          5    1    3    3  502    0 -0.86823086947E+02 -0.42479694414E+02  0.87497203994E+02  0.13044541376E+03  0.41800000000E+01 0.  1.
         -5    1    3    3    0  502  0.16154891935E+01 -0.11492619673E+03  0.19811870623E+03  0.22908324832E+03  0.41800000000E+01 0.  1.
        -11    1    4    4    0    0  0.24670168961E+01  0.23887891610E+02  0.10268912428E+03  0.10545982070E+03  0.00000000000E+00 0. -1.
         11    1    4    4    0    0  0.82740580857E+02  0.13351799954E+03  0.15001615724E+03  0.21720475905E+03  0.00000000000E+00 0.  1.
</event>
<event>
 8    1  0.4798744E-006  0.1036021E+03  0.7561462E-02  0.1272899E+00
         -1   -1    0    0    0  501 -0.00000000000E+00  0.00000000000E+00  0.41762709268E+03  0.41762709268E+03  0.00000000000E+00 0.  1.
          1   -1    0    0  501    0  0.00000000000E+00 -0.00000000000E+00 -0.90093544213E+02  0.90093544213E+02  0.00000000000E+00 0. -1.
         23    2    1    2    0    0  0.39552737032E+02  0.50510807159E+02  0.36377951120E+03  0.38999965704E+03  0.12509372118E+03 0.  0.
         23    2    1    2    0    0 -0.39552737032E+02 -0.50510807159E+02 -0.36245962733E+02  0.11772097985E+03  0.91807944298E+02 0.  0.
          5    1    3    3  502    0 -0.21596352841E+02  0.70643011837E+02  0.22733544574E+03  0.23907261422E+03  0.41800000000E+01 0. -1.
         -5    1    3    3    0  502  0.61149089873E+02 -0.20132204679E+02  0.13644406546E+03  0.15092704282E+03  0.41800000000E+01 0. -1.
        -11    1    4    4    0    0 -0.19094822652E+02 -0.42751638904E+02 -0.65917622954E+02  0.80854485943E+02  0.00000000000E+00 0. -1.
         11    1    4    4    0    0 -0.20457914380E+02 -0.77591682547E+01  0.29671660222E+02  0.36866493908E+02  0.00000000000E+00 0.  1.
</event>
<event>
 8    1  0.4798744E-006  0.1222538E+03  0.7561462E-02  0.1239425E+00
          1   -1    0    0  501    0  0.00000000000E+00  0.00000000000E+00  0.98533174643E+02  0.98533174643E+02  0.00000000000E+00 0. -1.
         -1   -1    0    0    0  501 -0.00000000000E+00 -0.00000000000E+00 -0.27500473892E+03  0.27500473892E+03  0.00000000000E+00 0.  1.
         23    2    1    2    0    0  0.10110395522E+03  0.12165318265E+02 -0.17217145870E+03  0.23736866921E+03  0.12779228930E+03 0.  0.
         23    2    1    2    0    0 -0.10110395522E+03 -0.12165318265E+02 -0.43001055759E+01  0.13616924435E+03  0.90297106649E+02 0.  0.
          5    1    3    3  502    0  0.21668153998E+02  0.31663403061E+02  0.80366408380E+01  0.39422582196E+02  0.41800000000E+01 0. -1.
         -5    1    3    3    0  502  0.79435801220E+02 -0.19498084796E+02 -0.18020809954E+03  0.19794608702E+03  0.41800000000E+01 0.  1.
        -11    1    4    4    0    0 -0.11129427011E+03 -0.17251120336E+02  0.15142287848E+02  0.11363672202E+03  0.00000000000E+00 0. -1.
         11    1    4    4    0    0  0.10190314888E+02  0.50858020710E+01 -0.19442393424E+02  0.22532522324E+02  0.00000000000E+00 0.  1.
</event>
<event>
 8    1  0.4798744E-006  0.1166301E+03  0.7561462E-02  0.1248762E+00
         -2   -1    0    0    0  501 -0.00000000000E+00  0.00000000000E+00  0.42039802758E+02  0.42039802758E+02  0.00000000000E+00 0. -1.
          2   -1    0    0  501    0  0.00000000000E+00 -0.00000000000E+00 -0.42437586141E+03  0.42437586141E+03  0.00000000000E+00 0.  1.
         23    2    1    2    0    0 -0.29784587009E+02 -0.66051053090E+02 -0.23802521007E+03  0.27848308046E+03  0.12508781810E+03 0.  0.
         23    2    1    2    0    0  0.29784587009E+02  0.66051053090E+02 -0.14431084859E+03  0.18793258371E+03  0.96141415440E+02 0.  0.
          5    1    3    3  502    0  0.43226705223E+02  0.19305884742E+01 -0.89740659618E+02  0.99715262648E+02  0.41800000000E+01 0.  1.
         -5    1    3    3    0  502 -0.73011292232E+02 -0.67981641564E+02 -0.14828455045E+03  0.17876781781E+03  0.41800000000E+01 0.  1.
        -11    1    4    4    0    0 -0.15618922950E+02  0.15823964156E+02  0.60400747278E+01  0.23039772100E+02  0.00000000000E+00 0. -1.
         11    1    4    4    0    0  0.45403509959E+02  0.50227088935E+02 -0.15035092331E+03  0.16489281161E+03  0.00000000000E+00 0.  1.
</event>
<event>
 8    1  0.4798744E-006  0.8421221E+02  0.7561462E-02  0.1317506E+00
         -2   -1    0    0    0  501 -0.00000000000E+00  0.00000000000E+00  0.19979327495E+03  0.19979327495E+03  0.00000000000E+00 0.  1.
          2   -1    0    0  501    0  0.00000000000E+00 -0.00000000000E+00 -0.91317530878E+02  0.91317530878E+02  0.00000000000E+00 0. -1.
         23    2    1    2    0    0  0.33817409384E+02  0.70052735454E+02  0.97557108702E+02  0.17667603451E+03  0.12508408688E+03 0.  0.
         23    2    1    2    0    0 -0.33817409384E+02 -0.70052735454E+02  0.10918635369E+02  0.11443477131E+03  0.83217169894E+02 0.  0.
          5    1    3    3  502    0  0.17359848543E+02  0.59526168674E+02 -0.13700550790E+02  0.63638876408E+02  0.41800000000E+01 0. -1.
         -5    1    3    3    0  502  0.16457560842E+02  0.10526566780E+02  0.11125765949E+03  0.11303715811E+03  0.41800000000E+01 0. -1.
        -11    1    4    4    0    0  0.12739971907E+01 -0.40221952648E+02 -0.32050441392E+02  0.51445693086E+02  0.00000000000E+00 0. -1.
         11    1    4    4    0    0 -0.35091406575E+02 -0.29830782805E+02  0.42969076761E+02  0.62989078227E+02  0.00000000000E+00 0.  1.
</event>
<event>
 8    1  0.4798744E-006  0.1167964E+03  0.7561462E-02  0.1248478E+00
         -1   -1    0    0    0  501 -0.00000000000E+00  0.00000000000E+00  0.91833581853E+02  0.91833581853E+02  0.00000000000E+00 0.  1.
          1   -1    0    0  501    0  0.00000000000E+00 -0.00000000000E+00 -0.28128320170E+03  0.28128320170E+03  0.00000000000E+00 0. -1.
         23    2    1    2    0    0  0.69156511807E+02 -0.31157715441E+02  0.31391094439E+01  0.14632406887E+03  0.12508977882E+03 0.  0.
         23    2    1    2    0    0 -0.69156511807E+02  0.31157715441E+02 -0.19258872929E+03  0.22679271469E+03  0.92688135312E+02 0.  0.
          5    1    3    3  502    0  0.15551305329E+02 -0.64721305931E+02 -0.31866274474E+02  0.73916320171E+02  0.41800000000E+01 0. -1.
         -5    1    3    3    0  502  0.53605206478E+02  0.33563590490E+02  0.35005383917E+02  0.72407748697E+02  0.41800000000E+01 0. -1.
        -11    1    4    4    0    0 -0.45255498183E+02 -0.18118415114E+02 -0.14907799476E+03  0.15684573824E+03  0.00000000000E+00 0. -1.
         11    1    4    4    0    0 -0.23901013624E+02  0.49276130556E+02 -0.43510734537E+02  0.69946976451E+02  0.00000000000E+00 0.  1.
</event>
<event>
 8    1  0.4798744E-006  0.8602366E+02  0.7561462E-02  0.1312777E+00
         -1   -1    0    0    0  501 -0.00000000000E+00  0.00000000000E+00  0.62759956666E+02  0.62759956666E+02  0.00000000000E+00 0.  1.
          1   -1    0    0  501    0  0.00000000000E+00 -0.00000000000E+00 -0.25508235003E+03  0.25508235003E+03  0.00000000000E+00 0. -1.
         23    2    1    2    0    0 -0.24686866215E+02  0.56606997608E+02 -0.79509007456E+02  0.16057139718E+03  0.12509075819E+03 0.  0.
         23    2    1    2    0    0  0.24686866215E+02 -0.56606997608E+02 -0.11281338590E+03  0.15727090951E+03  0.90517873364E+02 0.  0.
          5    1    3    3  502    0  0.68874175878E+01 -0.12078610804E+02 -0.83502528625E+02  0.84755377686E+02  0.41800000000E+01 0.  1.
         -5    1    3    3    0  502 -0.31574283803E+02  0.68685608411E+02  0.39935211689E+01  0.75816019493E+02  0.41800000000E+01 0.  1.
        -11    1    4    4    0    0  0.41854247717E+02 -0.38553625905E+02 -0.11873256893E+03  0.13166466135E+03  0.00000000000E+00 0. -1.
         11    1    4    4    0    0 -0.17167381502E+02 -0.18053371702E+02  0.59191830276E+01  0.25606248167E+02  0.00000000000E+00 0.  1.
</event>
<event>
 8    1  0.4798744E-006  0.1098278E+03  0.7561462E-02  0.1260889E+00
         -2   -1    0    0    0  501 -0.00000000000E+00  0.00000000000E+00  0.50964282202E+02  0.50964282202E+02  0.00000000000E+00 0.  1.
          2   -1    0    0  501    0  0.00000000000E+00 -0.00000000000E+00 -0.24007810930E+03  0.24007810930E+03  0.00000000000E+00 0. -1.
         23    2    1    2    0    0 -0.12490524426E+02  0.17784972519E+02 -0.92864692425E+02  0.15729911962E+03  0.12508734343E+03 0.  0.
         23    2    1    2    0    0  0.12490524426E+02 -0.17784972519E+02 -0.96249134671E+02  0.13374327188E+03  0.90283156794E+02 0.  0.
          5    1    3    3  502    0  0.52227597796E+02 -0.14619555981E+02 -0.37282282365E+02  0.65946147476E+02  0.41800000000E+01 0. -1.
         -5    1    3    3    0  502 -0.64718122221E+02  0.32404528501E+02 -0.55582410060E+02  0.91352972143E+02  0.41800000000E+01 0. -1.
        -11    1    4    4    0    0  0.29887416171E+00  0.36815410068E+02 -0.41265979821E+02  0.55302304065E+02  0.00000000000E+00 0. -1.
         11    1    4    4    0    0  0.12191650264E+02 -0.54600382587E+02 -0.54983154850E+02  0.78440967817E+02  0.00000000000E+00 0.  1.
</event>
<event>
 8    1  0.4798744E-006  0.1239209E+03  0.7561462E-02  0.1236765E+00
         -1   -1    0    0    0  501 -0.00000000000E+00  0.00000000000E+00  0.32168139665E+03  0.32168139665E+03  0.00000000000E+00 0.  1.
          1   -1    0    0  501    0  0.00000000000E+00 -0.00000000000E+00 -0.14603566622E+03  0.14603566622E+03  0.00000000000E+00 0. -1.
         23    2    1    2    0    0  0.30864841078E+02  0.92554992016E+02  0.26271380476E+03  0.30689628633E+03  0.12509085654E+03 0.  0.
         23    2    1    2    0    0 -0.30864841078E+02 -0.92554992016E+02 -0.87068074333E+02  0.16082077653E+03  0.93613074057E+02 0.  0.
          5    1    3    3  502    0  0.59033275056E+02  0.22499681967E+02  0.48586485781E+02  0.79807783161E+02  0.41800000000E+01 0.  1.
         -5    1    3    3    0  502 -0.28168433978E+02  0.70055310049E+02  0.21412731898E+03  0.22708850317E+03  0.41800000000E+01 0.  1.
        -11    1    4    4    0    0  0.12669794150E+02 -0.31207183091E+02  0.12591267387E+02  0.35957641394E+02  0.00000000000E+00 0.  1.
         11    1    4    4    0    0 -0.43534635228E+02 -0.61347808925E+02 -0.99659341720E+02  0.12486313514E+03  0.00000000000E+00 0. -1.
</event>
<event>
 8    1  0.4798744E-006  0.5265390E+03  0.7561462E-02  0.1007075E+00
          1   -1    0    0  501    0  0.00000000000E+00  0.00000000000E+00  0.11114011736E+04  0.11114011736E+04  0.00000000000E+00 0. -1.
         -1   -1    0    0    0  501 -0.00000000000E+00 -0.00000000000E+00 -0.38653817169E+03  0.38653817169E+03  0.00000000000E+00 0.  1.
         23    2    1    2    0    0 -0.34722141200E+03  0.38210980603E+03 -0.80429566964E+02  0.53706808367E+03  0.12410720544E+03 0.  0.
         23    2    1    2    0    0  0.34722141200E+03 -0.38210980603E+03  0.80529256885E+03  0.96087126160E+03  0.90591650338E+02 0.  0.
          5    1    3    3  502    0 -0.14792400420E+03  0.80310327878E+02 -0.10643324599E+02  0.16870688350E+03  0.41800000000E+01 0. -1.
         -5    1    3    3    0  502 -0.19929740780E+03  0.30179947815E+03 -0.69786242365E+02  0.36836120017E+03  0.41800000000E+01 0.  1.
        -11    1    4    4    0    0  0.23601081974E+03 -0.31327339650E+03  0.63088031999E+03  0.74286695049E+03  0.00000000000E+00 0. -1.
         11    1    4    4    0    0  0.11121059226E+03 -0.68836409527E+02  0.17441224887E+03  0.21800431111E+03  0.00000000000E+00 0.  1.
</event>
<event>
 8    1  0.4798744E-006  0.9639386E+02  0.7561462E-02  0.1288067E+00
         -1   -1    0    0    0  501 -0.00000000000E+00  0.00000000000E+00  0.25254458329E+03  0.25254458329E+03  0.00000000000E+00 0.  1.
          1   -1    0    0  501    0  0.00000000000E+00 -0.00000000000E+00 -0.69585061262E+02  0.69585061262E+02  0.00000000000E+00 0. -1.
         23    2    1    2    0    0  0.35119742028E+02  0.24804179831E+00  0.18249430693E+03  0.22401679749E+03  0.12508355483E+03 0.  0.
         23    2    1    2    0    0 -0.35119742028E+02 -0.24804179831E+00  0.46521509207E+00  0.98112847061E+02  0.91610351645E+02 0.  0.
          5    1    3    3  502    0 -0.22896370295E+02 -0.48442938337E+02  0.83500792873E+02  0.99301645796E+02  0.41800000000E+01 0. -1.
         -5    1    3    3    0  502  0.58016112323E+02  0.48690980135E+02  0.98993514059E+02  0.12471515169E+03  0.41800000000E+01 0. -1.
        -11    1    4    4    0    0 -0.46646469024E+02 -0.10440603304E+02  0.35702834144E+02  0.59662313362E+02  0.00000000000E+00 0.  1.
         11    1    4    4    0    0  0.11526726996E+02  0.10192561506E+02 -0.35237619052E+02  0.38450533699E+02  0.00000000000E+00 0. -1.
</event>
<event>
 8    1  0.4798744E-006  0.1243896E+03  0.7561462E-02  0.1236026E+00
         -2   -1    0    0    0  501 -0.00000000000E+00  0.00000000000E+00  0.74893199034E+02  0.74893199034E+02  0.00000000000E+00 0.  1.
          2   -1    0    0  501    0  0.00000000000E+00 -0.00000000000E+00 -0.26511453236E+03  0.26511453236E+03  0.00000000000E+00 0. -1.
         23    2    1    2    0    0 -0.93150751456E+02 -0.76792911484E+01 -0.84793460879E+02  0.17768709389E+03  0.12508692305E+03 0.  0.
         23    2    1    2    0    0  0.93150751456E+02  0.76792911484E+01 -0.10542787245E+03  0.16232063750E+03  0.80603468049E+02 0.  0.
          5    1    3    3  502    0 -0.93963080133E+02 -0.40763712967E+02 -0.19473794470E+02  0.10434290486E+03  0.41800000000E+01 0.  1.
         -5    1    3    3    0  502  0.81232867762E+00  0.33084421819E+02 -0.65319666409E+02  0.73344189032E+02  0.41800000000E+01 0.  1.
        -11    1    4    4    0    0  0.47901813590E+02  0.35653810840E+02 -0.22533306692E+02  0.63824195123E+02  0.00000000000E+00 0.  1.
         11    1    4    4    0    0  0.45248937866E+02 -0.27974519692E+02 -0.82894565754E+02  0.98496442380E+02  0.00000000000E+00 0. -1.
</event>
<event>
 8    1  0.4798744E-006  0.1438109E+03  0.7561462E-02  0.1208291E+00
          1   -1    0    0  501    0  0.00000000000E+00  0.00000000000E+00  0.30251934348E+03  0.30251934348E+03  0.00000000000E+00 0. -1.
         -1   -1    0    0    0  501 -0.00000000000E+00 -0.00000000000E+00 -0.10594827613E+03  0.10594827613E+03  0.00000000000E+00 0.  1.
         23    2    1    2    0    0  0.23168010448E+00 -0.11900012701E+03  0.14654110668E+02  0.17327208645E+03  0.12508952426E+03 0.  0.
         23    2    1    2    0    0 -0.23168010448E+00  0.11900012701E+03  0.18191695668E+03  0.23519553316E+03  0.89789062739E+02 0.  0.
          5    1    3    3  502    0 -0.40234684633E+02 -0.54172849709E+02  0.54633650203E+02  0.86924309762E+02  0.41800000000E+01 0.  1.
         -5    1    3    3    0  502  0.40466364738E+02 -0.64827277296E+02 -0.39979539535E+02  0.86347776684E+02  0.41800000000E+01 0.  1.
        -11    1    4    4    0    0 -0.38994965069E+02  0.42254130254E+02  0.10556393426E+03  0.12020716718E+03  0.00000000000E+00 0.  1.
         11    1    4    4    0    0  0.38763284964E+02  0.76745996752E+02  0.76353022419E+02  0.11498836598E+03  0.00000000000E+00 0. -1.
</event>
<event>
 8    1  0.4798744E-006  0.1170455E+03  0.7561462E-02  0.1248052E+00
          2   -1    0    0  501    0  0.00000000000E+00  0.00000000000E+00  0.29929341829E+03  0.29929341829E+03  0.00000000000E+00 0.  1.
         -2   -1    0    0    0  501 -0.00000000000E+00 -0.00000000000E+00 -0.49339763984E+02  0.49339763984E+02  0.00000000000E+00 0. -1.
         23    2    1    2    0    0 -0.57560000042E+02  0.14325982733E+01  0.15220304169E+03  0.20525274700E+03  0.12509084023E+03 0.  0.
         23    2    1    2    0    0  0.57560000042E+02 -0.14325982733E+01  0.97750612618E+02  0.14338043527E+03  0.87678737499E+02 0.  0.
          5    1    3    3  502    0 -0.63827253564E+02 -0.51987216675E+02  0.77758276690E+02  0.11331553728E+03  0.41800000000E+01 0.  1.
         -5    1    3    3    0  502  0.62672535220E+01  0.53419814949E+02  0.74444765001E+02  0.91937209724E+02  0.41800000000E+01 0.  1.
        -11    1    4    4    0    0 -0.13232395525E+02  0.19794534585E+02  0.50029016211E+02  0.55405977600E+02  0.00000000000E+00 0.  1.
         11    1    4    4    0    0  0.70792395567E+02 -0.21227132858E+02  0.47721596407E+02  0.87974457674E+02  0.00000000000E+00 0. -1.
</event>
<event>
 8    1  0.4798744E-006  0.8610846E+02  0.7561462E-02  0.1312559E+00
          2   -1    0    0  501    0  0.00000000000E+00  0.00000000000E+00  0.40505308540E+03  0.40505308540E+03  0.00000000000E+00 0.  1.
         -2   -1    0    0    0  501 -0.00000000000E+00 -0.00000000000E+00 -0.33087234121E+02  0.33087234121E+02  0.00000000000E+00 0. -1.
         23    2    1    2    0    0  0.30378541865E+02 -0.31818630719E+01  0.15560788453E+03  0.20197537914E+03  0.12508900829E+03 0.  0.
         23    2    1    2    0    0 -0.30378541865E+02  0.31818630719E+01  0.21635796675E+03  0.23616494038E+03  0.89610988330E+02 0.  0.
          5    1    3    3  502    0 -0.25057280418E+02 -0.82877731201E+01 -0.89699222740E+01  0.28186634969E+02  0.41800000000E+01 0. -1.
         -5    1    3    3    0  502  0.55435822283E+02  0.51059100481E+01  0.16457780680E+03  0.17378874417E+03  0.41800000000E+01 0. -1.
        -11    1    4    4    0    0 -0.22722147222E+01  0.41824080596E+02  0.63984450443E+02  0.76475006217E+02  0.00000000000E+00 0.  1.
         11    1    4    4    0    0 -0.28106327142E+02 -0.38642217524E+02  0.15237351631E+03  0.15968993416E+03  0.00000000000E+00 0. -1.
</event>
<event>
 8    1  0.4798744E-006  0.1275076E+03  0.7561462E-02  0.1231202E+00
         -2   -1    0    0    0  501 -0.00000000000E+00  0.00000000000E+00  0.18628438749E+02  0.18628438749E+02  0.00000000000E+00 0.  1.
          2   -1    0    0  501    0  0.00000000000E+00 -0.00000000000E+00 -0.10541381440E+04  0.10541381440E+04  0.00000000000E+00 0. -1.
         23    2    1    2    0    0  0.76054639421E+02  0.39101152406E+02 -0.64256382344E+03  0.66018951144E+03  0.12509482615E+03 0.  0.
         23    2    1    2    0    0 -0.76054639421E+02 -0.39101152406E+02 -0.39294588180E+03  0.41257707129E+03  0.92196341776E+02 0.  0.
          5    1    3    3  502    0  0.10484660130E+03  0.34331524598E+02 -0.58696306026E+03  0.59725586635E+03  0.41800000000E+01 0.  1.
         -5    1    3    3    0  502 -0.28791961875E+02  0.47696278087E+01 -0.55600763179E+02  0.62933645088E+02  0.41800000000E+01 0.  1.
        -11    1    4    4    0    0 -0.91625525385E+02 -0.38942741309E+02 -0.37836676365E+03  0.39124567964E+03  0.00000000000E+00 0. -1.
         11    1    4    4    0    0  0.15570885964E+02 -0.15841109786E+00 -0.14579118147E+02  0.21331391650E+02  0.00000000000E+00 0.  1.
</event>
<event>
 8    1  0.4798744E-006  0.2110067E+03  0.7561462E-02  0.1140771E+00
          2   -1    0    0  501    0  0.00000000000E+00  0.00000000000E+00  0.33799207801E+03  0.33799207801E+03  0.00000000000E+00 0. -1.
         -2   -1    0    0    0  501 -0.00000000000E+00 -0.00000000000E+00 -0.16706652555E+03  0.16706652555E+03  0.00000000000E+00 0.  1.
         23    2    1    2    0    0 -0.18144491694E+03 -0.85919918143E+01 -0.24339391309E+02  0.22189533002E+03  0.12509616824E+03 0.  0.
         23    2    1    2    0    0  0.18144491694E+03  0.85919918143E+01  0.19526494377E+03  0.28316327354E+03  0.95168067169E+02 0.  0.
          5    1    3    3  502    0 -0.20040817619E+03 -0.10007722793E+02 -0.18417841297E+02  0.20154473667E+03  0.41800000000E+01 0. -1.
         -5    1    3    3    0  502  0.18963259247E+02  0.14157309792E+01 -0.59215500122E+01  0.20350593358E+02  0.41800000000E+01 0. -1.
        -11    1    4    4    0    0  0.68778465929E+02 -0.39529870017E+02  0.10185098076E+03  0.12909961379E+03  0.00000000000E+00 0. -1.
         11    1    4    4    0    0  0.11266645101E+03  0.48121861832E+02  0.93413963012E+02  0.15406365975E+03  0.00000000000E+00 0.  1.
</event>
<event>
 8    1  0.4798744E-006  0.1444199E+03  0.7561462E-02  0.1207502E+00
          3   -1    0    0  501    0  0.00000000000E+00  0.00000000000E+00  0.12603774205E+03  0.12603774205E+03  0.00000000000E+00 0. -1.
         -3   -1    0    0    0  501 -0.00000000000E+00 -0.00000000000E+00 -0.23389379814E+03  0.23389379814E+03  0.00000000000E+00 0.  1.
         23    2    1    2    0    0 -0.92744743660E+02 -0.94705101115E+02 -0.68010966357E+02  0.19453461961E+03  0.12509029950E+03 0.  0.
         23    2    1    2    0    0  0.92744743660E+02  0.94705101115E+02 -0.39845089732E+02  0.16539692058E+03  0.90542070381E+02 0.  0.
          5    1    3    3  502    0 -0.36850784111E+02 -0.86193403589E+02  0.13962354816E+02  0.94866763747E+02  0.41800000000E+01 0. -1.
         -5    1    3    3    0  502 -0.55893959549E+02 -0.85116975268E+01 -0.81973321174E+02  0.99667855867E+02  0.41800000000E+01 0. -1.
        -11    1    4    4    0    0  0.42210239395E+02  0.16750891417E+02 -0.54938436038E+02  0.71277825636E+02  0.00000000000E+00 0.  1.
         11    1    4    4    0    0  0.50534504265E+02  0.77954209698E+02  0.15093346306E+02  0.94119094947E+02  0.00000000000E+00 0. -1.
</event>
<event>
 7    1  0.4798744E-006  0.1502353E+03  0.7561462E-02  0.1200184E+00
         -2   -1    0    0    0  501 -0.00000000000E+00  0.00000000000E+00  0.84616378420E+02  0.84616378420E+02  0.00000000000E+00 0.  1.
          2   -1    0    0  501    0  0.00000000000E+00 -0.00000000000E+00 -0.37160096461E+03  0.37160096461E+03  0.00000000000E+00 0. -1.
         23    2    1    2    0    0  0.79546101592E+02 -0.53063806174E+02 -0.23965816797E+03  0.27370117180E+03  0.91284961357E+02 0.  0.
          5    1    1    2  502    0 -0.48065935906E+02 -0.49368439504E+02 -0.18083698332E+02  0.71358738490E+02  0.41800000000E+01 0. -1.
         -5    1    1    2    0  502 -0.31480165686E+02  0.10243224568E+03 -0.29242719897E+02  0.11115743274E+03  0.41800000000E+01 0.  1.
        -11    1    3    3    0    0  0.94933153842E+02 -0.36816411165E+02 -0.15001370915E+03  0.18130599759E+03  0.00000000000E+00 0.  1.
         11    1    3    3    0    0 -0.15387052250E+02 -0.16247395010E+02 -0.89644458815E+02  0.92395174213E+02  0.00000000000E+00 0. -1.
</event>
<event>
 8    1  0.4798744E-006  0.1516782E+03  0.7561462E-02  0.1198426E+00
          1   -1    0    0  501    0  0.00000000000E+00  0.00000000000E+00  0.78662602075E+03  0.78662602075E+03  0.00000000000E+00 0.  1.
         -1   -1    0    0    0  501 -0.00000000000E+00 -0.00000000000E+00 -0.32063880937E+02  0.32063880937E+02  0.00000000000E+00 0. -1.
         23    2    1    2    0    0 -0.79385084706E+02 -0.85605358589E+02  0.38307016331E+03  0.41954761651E+03  0.12508870217E+03 0.  0.
         23    2    1    2    0    0  0.79385084706E+02  0.85605358589E+02  0.37149197651E+03  0.39914228518E+03  0.87624232463E+02 0.  0.
          5    1    3    3  502    0 -0.58815439721E+02 -0.11142865667E+03  0.35247861395E+03  0.37434509102E+03  0.41800000000E+01 0.  1.
         -5    1    3    3    0  502 -0.20569644984E+02  0.25823298086E+02  0.30591549359E+02  0.45202525494E+02  0.41800000000E+01 0.  1.
        -11    1    4    4    0    0  0.91595892831E+02  0.45866534920E+02  0.23250560543E+03  0.25407164967E+03  0.00000000000E+00 0.  1.
         11    1    4    4    0    0 -0.12210808125E+02  0.39738823669E+02  0.13898637108E+03  0.14507063551E+03  0.00000000000E+00 0. -1.
</event>
<event>
 8    1  0.4798744E-006  0.1652458E+03  0.7561462E-02  0.1182898E+00
          1   -1    0    0  501    0  0.00000000000E+00  0.00000000000E+00  0.63758987950E+03  0.63758987950E+03  0.00000000000E+00 0. -1.
         -1   -1    0    0    0  501 -0.00000000000E+00 -0.00000000000E+00 -0.72526314554E+02  0.72526314554E+02  0.00000000000E+00 0.  1.
         23    2    1    2    0    0 -0.16340556416E+03  0.21362644534E+01  0.14803530506E+03  0.25352854790E+03  0.12512526136E+03 0.  0.
         23    2    1    2    0    0  0.16340556416E+03 -0.21362644534E+01  0.41702825988E+03  0.45658764615E+03  0.88621481906E+02 0.  0.
          5    1    3    3  502    0 -0.63954519009E+02  0.12270799797E+02 -0.10466557748E+02  0.66089138748E+02  0.41800000000E+01 0.  1.
         -5    1    3    3    0  502 -0.99451045151E+02 -0.10134535344E+02  0.15850186281E+03  0.18743940915E+03  0.41800000000E+01 0.  1.
        -11    1    4    4    0    0  0.38048235001E+02  0.97089335565E+01  0.29493418216E+02  0.49110012172E+02  0.00000000000E+00 0.  1.
         11    1    4    4    0    0  0.12535732916E+03 -0.11845198010E+02  0.38753484166E+03  0.40747763398E+03  0.00000000000E+00 0. -1.
</event>
<event>
 8    1  0.4798744E-006  0.1428225E+03  0.7561462E-02  0.1209581E+00
         -2   -1    0    0    0  501 -0.00000000000E+00  0.00000000000E+00  0.50462004248E+02  0.50462004248E+02  0.00000000000E+00 0. -1.
          2   -1    0    0  501    0  0.00000000000E+00 -0.00000000000E+00 -0.51243573354E+03  0.51243573354E+03  0.00000000000E+00 0.  1.
         23    2    1    2    0    0  0.62358043062E+01 -0.11508315602E+03 -0.20125273794E+03  0.26350238306E+03  0.12509125986E+03 0.  0.
         23    2    1    2    0    0 -0.62358043062E+01  0.11508315602E+03 -0.26072099135E+03  0.29939535473E+03  0.91537560855E+02 0.  0.
          5    1    3    3  502    0  0.45762243296E+02  0.23497931555E+01 -0.58561311345E+02  0.74475526355E+02  0.41800000000E+01 0. -1.
         -5    1    3    3    0  502 -0.39526438990E+02 -0.11743294918E+03 -0.14269142660E+03  0.18902685670E+03  0.41800000000E+01 0. -1.
        -11    1    4    4    0    0 -0.87454830018E+01  0.78389227541E+02 -0.24837585121E+03  0.26059915183E+03  0.00000000000E+00 0.  1.
         11    1    4    4    0    0  0.25096786956E+01  0.36693928480E+02 -0.12345140135E+02  0.38796202899E+02  0.00000000000E+00 0. -1.
</event>
<event>
 7    1  0.4798744E-006  0.1136820E+03  0.7561462E-02  0.1253899E+00
         -2   -1    0    0    0  501 -0.00000000000E+00  0.00000000000E+00  0.11527316260E+03  0.11527316260E+03  0.00000000000E+00 0.  1.
          2   -1    0    0  501    0  0.00000000000E+00 -0.00000000000E+00 -0.12612129806E+03  0.12612129806E+03  0.00000000000E+00 0. -1.
         23    2    1    2    0    0  0.26778625799E+02  0.13343015216E+01 -0.37160001130E+02  0.10234676571E+03  0.91515679569E+02 0.  0.
          5    1    1    2  502    0  0.51589623210E+02  0.18795832669E+02  0.16197132918E+02  0.57398537119E+02  0.41800000000E+01 0. -1.
         -5    1    1    2    0  502 -0.78368249009E+02 -0.20130134191E+02  0.10114732751E+02  0.81649157827E+02  0.41800000000E+01 0.  1.
        -11    1    3    3    0    0  0.41060412914E+01 -0.42090671643E+02 -0.25514239410E+01  0.42367369267E+02  0.00000000000E+00 0.  1.
         11    1    3    3    0    0  0.22672584508E+02  0.43424973165E+02 -0.34608577189E+02  0.59979396443E+02  0.00000000000E+00 0. -1.
</event>
<event>
 8    1  0.4798744E-006  0.9132096E+02  0.7561462E-02  0.1299684E+00
          2   -1    0    0  501    0  0.00000000000E+00  0.00000000000E+00  0.13884472092E+03  0.13884472092E+03  0.00000000000E+00 0. -1.
         -2   -1    0    0    0  501 -0.00000000000E+00 -0.00000000000E+00 -0.10055999093E+03  0.10055999093E+03  0.00000000000E+00 0.  1.
         23    2    1    2    0    0  0.40500109339E+02  0.14550420507E+02  0.12559088630E+01  0.13229046917E+03  0.12508883776E+03 0.  0.
         23    2    1    2    0    0 -0.40500109339E+02 -0.14550420507E+02  0.37028821128E+02  0.10711424268E+03  0.90831458191E+02 0.  0.
          5    1    3    3  502    0 -0.25925240848E+01 -0.31972309901E+02 -0.43754512636E+02  0.54413964729E+02  0.41800000000E+01 0. -1.
         -5    1    3    3    0  502  0.43092633424E+02  0.46522730408E+02  0.45010421499E+02  0.77876504438E+02  0.41800000000E+01 0. -1.
        -11    1    4    4    0    0 -0.49366692678E+02  0.18350588915E+02  0.48059098429E+02  0.71298607289E+02  0.00000000000E+00 0. -1.
         11    1    4    4    0    0  0.88665833389E+01 -0.32901009422E+02 -0.11030277301E+02  0.35815635390E+02  0.00000000000E+00 0.  1.
</event>
<event>
 8    1  0.4798744E-006  0.2418168E+03  0.7561462E-02  0.1118588E+00
          2   -1    0    0  501    0  0.00000000000E+00  0.00000000000E+00  0.75374125153E+03  0.75374125153E+03  0.00000000000E+00 0. -1.
         -2   -1    0    0    0  501 -0.00000000000E+00 -0.00000000000E+00 -0.13743140662E+03  0.13743140662E+03  0.00000000000E+00 0.  1.
         23    2    1    2    0    0 -0.22792849133E+03  0.28140757228E+02  0.39950203396E+02  0.26455047556E+03  0.12509051119E+03 0.  0.
         23    2    1    2    0    0  0.22792849133E+03 -0.28140757228E+02  0.57635964151E+03  0.62662218260E+03  0.87872771558E+02 0.  0.
          5    1    3    3  502    0 -0.84271070044E+01 -0.22491393064E+02 -0.19857789053E+02  0.31443331256E+02  0.41800000000E+01 0.  1.
         -5    1    3    3    0  502 -0.21950138433E+03  0.50632150292E+02  0.59807992449E+02  0.23310714430E+03  0.41800000000E+01 0.  1.
        -11    1    4    4    0    0  0.20270871281E+03 -0.39111576290E+02  0.55387221180E+03  0.59109640893E+03  0.00000000000E+00 0. -1.
         11    1    4    4    0    0  0.25219778517E+02  0.10970819062E+02  0.22487429713E+02  0.35525773664E+02  0.00000000000E+00 0.  1.
</event>
<event>
 8    1  0.4798744E-006  0.2110417E+03  0.7561462E-02  0.1140744E+00
          1   -1    0    0  501    0  0.00000000000E+00  0.00000000000E+00  0.44867216634E+02  0.44867216634E+02  0.00000000000E+00 0. -1.
         -1   -1    0    0    0  501 -0.00000000000E+00 -0.00000000000E+00 -0.14295921331E+04  0.14295921331E+04  0.00000000000E+00 0.  1.
         23    2    1    2    0    0  0.19257736139E+03  0.43887598843E+02 -0.10481825084E+04  0.10739396444E+04  0.12509047731E+03 0.  0.
         23    2    1    2    0    0 -0.19257736139E+03 -0.43887598843E+02 -0.33654240808E+03  0.40051970531E+03  0.90239018494E+02 0.  0.
          5    1    3    3  502    0  0.13181255180E+03 -0.23229794577E+02 -0.47028999378E+03  0.48898294737E+03  0.41800000000E+01 0.  1.
         -5    1    3    3    0  502  0.60764809588E+02  0.67117393421E+02 -0.57789251463E+03  0.58495669707E+03  0.41800000000E+01 0.  1.
        -11    1    4    4    0    0 -0.10378916444E+03 -0.22047174165E+02 -0.26159103372E+03  0.28229087387E+03  0.00000000000E+00 0.  1.
         11    1    4    4    0    0 -0.88788196953E+02 -0.21840424678E+02 -0.74951374353E+02  0.11822883145E+03  0.00000000000E+00 0. -1.
</event>
<event>
 8    1  0.4798744E-006  0.1095367E+03  0.7561462E-02  0.1261430E+00
         -2   -1    0    0    0  501 -0.00000000000E+00  0.00000000000E+00  0.14959058541E+03  0.14959058541E+03  0.00000000000E+00 0.  1.
          2   -1    0    0  501    0  0.00000000000E+00 -0.00000000000E+00 -0.94457142808E+02  0.94457142808E+02  0.00000000000E+00 0. -1.
         23    2    1    2    0    0  0.34138411368E+02 -0.27579749157E+02  0.52303629677E+02  0.14251073997E+03  0.12509023797E+03 0.  0.
         23    2    1    2    0    0 -0.34138411368E+02  0.27579749157E+02  0.28298129262E+01  0.10153698824E+03  0.91518732761E+02 0.  0.
          5    1    3    3  502    0 -0.27236335345E+02 -0.46216508577E+02 -0.79691514165E+01  0.54394516290E+02  0.41800000000E+01 0. -1.
         -5    1    3    3    0  502  0.61374746713E+02  0.18636759420E+02  0.60272781093E+02  0.88116223685E+02  0.41800000000E+01 0. -1.
        -11    1    4    4    0    0 -0.49580178149E+01 -0.33198952952E+02 -0.38454088921E+01  0.33786677660E+02  0.00000000000E+00 0. -1.
         11    1    4    4    0    0 -0.29180393553E+02  0.60778702109E+02  0.66752218183E+01  0.67750310584E+02  0.00000000000E+00 0.  1.
</event>
<event>
 8    1  0.4798744E-006  0.1648885E+03  0.7561462E-02  0.1183286E+00
          1   -1    0    0  501    0  0.00000000000E+00  0.00000000000E+00  0.40915987332E+02  0.40915987332E+02  0.00000000000E+00 0. -1.
         -1   -1    0    0    0  501 -0.00000000000E+00 -0.00000000000E+00 -0.79170739653E+03  0.79170739653E+03  0.00000000000E+00 0.  1.
         23    2    1    2    0    0 -0.12109592557E+03 -0.41894688063E+02 -0.54575040470E+03  0.57437857096E+03  0.12509136849E+03 0.  0.
         23    2    1    2    0    0  0.12109592557E+03  0.41894688063E+02 -0.20504100450E+03  0.25824481290E+03  0.90714837750E+02 0.  0.
          5    1    3    3  502    0 -0.13096715496E+03 -0.15017397018E+01 -0.46929015074E+03  0.48724261809E+03  0.41800000000E+01 0.  1.
         -5    1    3    3    0  502  0.98712293961E+01 -0.40392948361E+02 -0.76460253960E+02  0.87135952871E+02  0.41800000000E+01 0.  1.
        -11    1    4    4    0    0  0.31255755508E+02 -0.28894272659E+02 -0.58691663530E+02  0.72501811100E+02  0.00000000000E+00 0.  1.
         11    1    4    4    0    0  0.89840170059E+02  0.70788960722E+02 -0.14634934097E+03  0.18574300180E+03  0.00000000000E+00 0. -1.
</event>
<event>
 8    1  0.4798744E-006  0.1092096E+03  0.7561462E-02  0.1262041E+00
         -3   -1    0    0    0  501 -0.00000000000E+00  0.00000000000E+00  0.16140291648E+03  0.16140291648E+03  0.00000000000E+00 0.  1.
          3   -1    0    0  501    0  0.00000000000E+00 -0.00000000000E+00 -0.11522688200E+03  0.11522688200E+03  0.00000000000E+00 0. -1.
         23    2    1    2    0    0  0.74440356217E+02 -0.35577878466E+02  0.29870733672E+02  0.15277942038E+03  0.12506853518E+03 0.  0.
         23    2    1    2    0    0 -0.74440356217E+02  0.35577878466E+02  0.16305300813E+02  0.12385037810E+03  0.90917001992E+02 0.  0.
          5    1    3    3  502    0  0.18335037376E+02 -0.46833695214E+02 -0.38534458969E+02  0.63497602562E+02  0.41800000000E+01 0. -1.
         -5    1    3    3    0  502  0.56105318841E+02  0.11255816748E+02  0.68405192641E+02  0.89281817819E+02  0.41800000000E+01 0. -1.
        -11    1    4    4    0    0 -0.55389505552E+02  0.58638829894E+02  0.35690263899E+02  0.88206035133E+02  0.00000000000E+00 0.  1.
         11    1    4    4    0    0 -0.19050850665E+02 -0.23060951427E+02 -0.19384963086E+02  0.35644342968E+02  0.00000000000E+00 0. -1.
</event>
<event>
 8    1  0.4798744E-006  0.1772326E+03  0.7561462E-02  0.1170509E+00
          1   -1    0    0  501    0  0.00000000000E+00  0.00000000000E+00  0.75981060697E+03  0.75981060697E+03  0.00000000000E+00 0. -1.
         -1   -1    0    0    0  501 -0.00000000000E+00 -0.00000000000E+00 -0.53870094125E+02  0.53870094125E+02  0.00000000000E+00 0.  1.
         23    2    1    2    0    0 -0.13520724553E+03  0.94615579141E+02  0.27943098962E+03  0.34779637953E+03  0.12509011390E+03 0.  0.
         23    2    1    2    0    0  0.13520724553E+03 -0.94615579141E+02  0.42650952322E+03  0.46588432156E+03  0.88908495767E+02 0.  0.
          5    1    3    3  502    0 -0.12560345843E+03  0.55984999662E+02  0.11729504120E+03  0.18079310841E+03  0.41800000000E+01 0.  1.
         -5    1    3    3    0  502 -0.96037870988E+01  0.38630579480E+02  0.16213594841E+03  0.16700327112E+03  0.41800000000E+01 0.  1.
        -11    1    4    4    0    0  0.12000202556E+03 -0.50494151561E+02  0.23380720877E+03  0.26761157739E+03  0.00000000000E+00 0.  1.
         11    1    4    4    0    0  0.15205219963E+02 -0.44121427580E+02  0.19270231446E+03  0.19827274417E+03  0.00000000000E+00 0. -1.
</event>
<event>
 8    1  0.4798744E-006  0.8953424E+02  0.7561462E-02  0.1303984E+00
          2   -1    0    0  501    0  0.00000000000E+00  0.00000000000E+00  0.89394968806E+02  0.89394968806E+02  0.00000000000E+00 0.  1.
         -2   -1    0    0    0  501 -0.00000000000E+00 -0.00000000000E+00 -0.29573065842E+03  0.29573065842E+03  0.00000000000E+00 0. -1.
         23    2    1    2    0    0  0.92628945337E+00  0.32926637875E+02 -0.24617603842E+03  0.27809153806E+03  0.12508892899E+03 0.  0.
         23    2    1    2    0    0 -0.92628945337E+00 -0.32926637875E+02  0.39840348804E+02  0.10703408916E+03  0.93723110044E+02 0.  0.
          5    1    3    3  502    0 -0.31769296393E+02 -0.54126656693E+01 -0.65002026931E+01  0.33140763087E+02  0.41800000000E+01 0. -1.
         -5    1    3    3    0  502  0.32695585846E+02  0.38339303544E+02 -0.23967583573E+03  0.24495077498E+03  0.41800000000E+01 0. -1.
        -11    1    4    4    0    0  0.38349650424E+01  0.31337129207E+02  0.26520921226E+02  0.41232049264E+02  0.00000000000E+00 0.  1.
         11    1    4    4    0    0 -0.47612544958E+01 -0.64263767082E+02  0.13319427578E+02  0.65802039900E+02  0.00000000000E+00 0. -1.
</event>
<event>
 7    1  0.4798744E-006  0.3465577E+03  0.7561462E-02  0.1064037E+00
          1   -1    0    0  501    0  0.00000000000E+00  0.00000000000E+00  0.11911039293E+03  0.11911039293E+03  0.00000000000E+00 0. -1.
         -1   -1    0    0    0  501 -0.00000000000E+00 -0.00000000000E+00 -0.15043119305E+04  0.15043119305E+04  0.00000000000E+00 0.  1.
         23    2    1    2    0    0  0.26937973100E+03 -0.19655622593E+03 -0.26488406849E+03  0.44385903269E+03  0.12508989462E+03 0.  0.
          5    1    3    3  502    0  0.25669609953E+03 -0.15796549840E+03 -0.18374602311E+03  0.35302416292E+03  0.41800000000E+01 0.  1.
         -5    1    3    3    0  502  0.12683631474E+02 -0.38590727530E+02 -0.81138045372E+02  0.90834869766E+02  0.41800000000E+01 0.  1.
        -11    1    1    2    0    0 -0.15786195020E+03  0.17778694196E+03 -0.56740912560E+03  0.61520867018E+03  0.00000000000E+00 0. -1.
         11    1    1    2    0    0 -0.11151778080E+03  0.18769283971E+02 -0.55290834348E+03  0.56435462056E+03  0.00000000000E+00 0.  1.
</event>
<event>
 8    1  0.4798744E-006  0.9305899E+02  0.7561462E-02  0.1295609E+00
          1   -1    0    0  501    0  0.00000000000E+00  0.00000000000E+00  0.12976747020E+03  0.12976747020E+03  0.00000000000E+00 0. -1.
         -1   -1    0    0    0  501 -0.00000000000E+00 -0.00000000000E+00 -0.12730315443E+03  0.12730315443E+03  0.00000000000E+00 0.  1.
         23    2    1    2    0    0  0.30300216682E+02 -0.28231411043E+02 -0.52247713467E+02  0.14174936461E+03  0.12509173876E+03 0.  0.
         23    2    1    2    0    0 -0.30300216682E+02  0.28231411043E+02  0.54712029243E+02  0.11532126002E+03  0.92684794697E+02 0.  0.
          5    1    3    3  502    0 -0.23839321048E+02  0.80000985716E+01 -0.69669173661E+02  0.74186123795E+02  0.41800000000E+01 0. -1.
         -5    1    3    3    0  502  0.54139537729E+02 -0.36231509615E+02  0.17421460193E+02  0.67563240818E+02  0.41800000000E+01 0. -1.
        -11    1    4    4    0    0  0.30246540991E+02  0.12956018928E+02  0.38815409410E+02  0.50885633297E+02  0.00000000000E+00 0. -1.
         11    1    4    4    0    0 -0.60546757673E+02  0.15275392115E+02  0.15896619833E+02  0.64435626722E+02  0.00000000000E+00 0.  1.
</event>
<event>
 8    1  0.4798744E-006  0.1030828E+03  0.7561462E-02  0.1273944E+00
         -2   -1    0    0    0  501 -0.00000000000E+00  0.00000000000E+00  0.30603521896E+03  0.30603521896E+03  0.00000000000E+00 0. -1.
          2   -1    0    0  501    0  0.00000000000E+00 -0.00000000000E+00 -0.88527904642E+02  0.88527904642E+02  0.00000000000E+00 0.  1.
         23    2    1    2    0    0 -0.63424082906E+02  0.43674385867E+02  0.23128522984E+03  0.27398944427E+03  0.12508913526E+03 0.  0.
         23    2    1    2    0    0  0.63424082906E+02 -0.43674385867E+02 -0.13777915520E+02  0.12057367933E+03  0.91750285653E+02 0.  0.
          5    1    3    3  502    0  0.53607269610E+01  0.54875904015E+02  0.34473300012E+02  0.65161208159E+02  0.41800000000E+01 0.  1.
         -5    1    3    3    0  502 -0.68784809867E+02 -0.11201518147E+02  0.19681192982E+03  0.20882823611E+03  0.41800000000E+01 0.  1.
        -11    1    4    4    0    0  0.20602112408E+02 -0.29431240687E+02 -0.50788008486E+02  0.62209860714E+02  0.00000000000E+00 0.  1.
         11    1    4    4    0    0  0.42821970498E+02 -0.14243145180E+02  0.37010092966E+02  0.58363818615E+02  0.00000000000E+00 0. -1.
</event>
<event>
 8    1  0.4798744E-006  0.1058497E+03  0.7561462E-02  0.1268455E+00
         -4   -1    0    0    0  501 -0.00000000000E+00  0.00000000000E+00  0.59783216372E+02  0.59783216372E+02  0.00000000000E+00 0.  1.
          4   -1    0    0  501    0  0.00000000000E+00 -0.00000000000E+00 -0.34183206409E+03  0.34183206409E+03  0.00000000000E+00 0. -1.
         23    2    1    2    0    0 -0.49284677345E+02 -0.29434275431E+02 -0.50615266708E+02  0.14664332779E+03  0.12508798651E+03 0.  0.
         23    2    1    2    0    0  0.49284677345E+02  0.29434275431E+02 -0.23143358102E+03  0.25497195268E+03  0.90298605970E+02 0.  0.
          5    1    3    3  502    0  0.19941022530E+02  0.16609398381E+02  0.23444613443E+02  0.35222702815E+02  0.41800000000E+01 0. -1.
         -5    1    3    3    0  502 -0.69225699875E+02 -0.46043673811E+02 -0.74059880151E+02  0.11142062497E+03  0.41800000000E+01 0. -1.
        -11    1    4    4    0    0 -0.24264677559E+02  0.82422362328E+01 -0.29822864887E+02  0.39320634598E+02  0.00000000000E+00 0.  1.
         11    1    4    4    0    0  0.73549354904E+02  0.21192039198E+02 -0.20161071613E+03  0.21565131808E+03  0.00000000000E+00 0. -1.
</event>
<event>
 8    1  0.4798744E-006  0.7172442E+02  0.7561462E-02  0.1354325E+00
         -2   -1    0    0    0  501 -0.00000000000E+00  0.00000000000E+00  0.37666561543E+02  0.37666561543E+02  0.00000000000E+00 0.  1.
          2   -1    0    0  501    0  0.00000000000E+00 -0.00000000000E+00 -0.53219495370E+03  0.53219495370E+03  0.00000000000E+00 0. -1.
         23    2    1    2    0    0  0.62949770454E+01  0.18334581095E+02 -0.72923513005E+02  0.13809806093E+03  0.11566093586E+03 0.  0.
         23    2    1    2    0    0 -0.62949770454E+01 -0.18334581095E+02 -0.42160487916E+03  0.43176345431E+03  0.91067133215E+02 0.  0.
          5    1    3    3  502    0 -0.12365493555E+02  0.27532737695E+02 -0.99516273051E+02  0.10407650108E+03  0.41800000000E+01 0. -1.
         -5    1    3    3    0  502  0.18660470600E+02 -0.91981565996E+01  0.26592760046E+02  0.34021559851E+02  0.41800000000E+01 0.  1.
        -11    1    4    4    0    0 -0.13959416751E+02  0.35101648921E+02 -0.21069373591E+03  0.21405336116E+03  0.00000000000E+00 0.  1.
         11    1    4    4    0    0  0.76644397058E+01 -0.53436230017E+02 -0.21091114325E+03  0.21771009315E+03  0.00000000000E+00 0. -1.
</event>
<event>
 7    1  0.4798744E-006  0.9416642E+02  0.7561462E-02  0.1293065E+00
          2   -1    0    0  501    0  0.00000000000E+00  0.00000000000E+00  0.12528812755E+03  0.12528812755E+03  0.00000000000E+00 0. -1.
         -2   -1    0    0    0  501 -0.00000000000E+00 -0.00000000000E+00 -0.30280046377E+03  0.30280046377E+03  0.00000000000E+00 0.  1.
         23    2    1    2    0    0 -0.25342553048E+02  0.83090232049E+02 -0.16729454623E+02  0.12701814674E+03  0.91145506155E+02 0.  0.
          5    1    1    2  502    0  0.41063732984E+01 -0.46838664656E+02  0.59968407665E+02  0.76317790366E+02  0.41800000000E+01 0. -1.
         -5    1    1    2    0  502  0.21236179749E+02 -0.36251567392E+02 -0.22075128925E+03  0.22475265421E+03  0.41800000000E+01 0.  1.
        -11    1    3    3    0    0 -0.32192178804E+01  0.75425978253E+02  0.24698271480E+02  0.79432022342E+02  0.00000000000E+00 0.  1.
         11    1    3    3    0    0 -0.22123335167E+02  0.76642537958E+01 -0.41427726103E+02  0.47586124398E+02  0.00000000000E+00 0. -1.
</event>
<event>
 7    1  0.4798744E-006  0.1760624E+03  0.7561462E-02  0.1171669E+00
          1   -1    0    0  501    0  0.00000000000E+00  0.00000000000E+00  0.24523882838E+03  0.24523882838E+03  0.00000000000E+00 0. -1.
         -1   -1    0    0    0  501 -0.00000000000E+00 -0.00000000000E+00 -0.17101272199E+03  0.17101272199E+03  0.00000000000E+00 0.  1.
         23    2    1    2    0    0  0.14034684393E+03 -0.46240484780E+01  0.12258369793E+03  0.20704961170E+03  0.90134123829E+02 0.  0.
          5    1    1    2  502    0 -0.20052944538E+01 -0.39865991264E+02  0.24049815690E+02  0.46788721932E+02  0.41800000000E+01 0. -1.
         -5    1    1    2    0  502 -0.13834154948E+03  0.44490039742E+02 -0.72407407235E+02  0.16241321674E+03  0.41800000000E+01 0.  1.
        -11    1    3    3    0    0  0.23868021674E+02 -0.38506526748E+02  0.28363610901E+02  0.53450252424E+02  0.00000000000E+00 0.  1.
         11    1    3    3    0    0  0.11647882226E+03  0.33882478270E+02  0.94220087034E+02  0.15359935927E+03  0.00000000000E+00 0. -1.
</event>
<event>
 8    1  0.4798744E-006  0.6690608E+02  0.7561462E-02  0.1370942E+00
         -2   -1    0    0    0  501 -0.00000000000E+00  0.00000000000E+00  0.39217376126E+02  0.39217376126E+02  0.00000000000E+00 0. -1.
          2   -1    0    0  501    0  0.00000000000E+00 -0.00000000000E+00 -0.38815784108E+03  0.38815784108E+03  0.00000000000E+00 0.  1.
         23    2    1    2    0    0 -0.35678622377E+02  0.15729385645E+02 -0.11686155192E+03  0.17556828575E+03  0.12508886033E+03 0.  0.
         23    2    1    2    0    0  0.35678622377E+02 -0.15729385645E+02 -0.23207891303E+03  0.25180693145E+03  0.89586445311E+02 0.  0.
          5    1    3    3  502    0 -0.18329758169E+02  0.13329007728E+02  0.24167532453E+02  0.33394378366E+02  0.41800000000E+01 0.  1.
         -5    1    3    3    0  502 -0.17348864209E+02  0.24003779166E+01 -0.14102908437E+03  0.14217390739E+03  0.41800000000E+01 0.  1.
        -11    1    4    4    0    0  0.47159420176E+01 -0.47887441074E+02 -0.15947911667E+03  0.16658041834E+03  0.00000000000E+00 0.  1.
         11    1    4    4    0    0  0.30962680360E+02  0.32158055430E+02 -0.72599796366E+02  0.85226513108E+02  0.00000000000E+00 0. -1.
</event>
<event>
 8    1  0.4798744E-006  0.1204830E+03  0.7561462E-02  0.1242302E+00
          1   -1    0    0  501    0  0.00000000000E+00  0.00000000000E+00  0.17519414314E+03  0.17519414314E+03  0.00000000000E+00 0. -1.
         -1   -1    0    0    0  501 -0.00000000000E+00 -0.00000000000E+00 -0.13295500389E+03  0.13295500389E+03  0.00000000000E+00 0.  1.
         23    2    1    2    0    0 -0.35355074932E+02  0.82769589720E+02 -0.34550119538E+02  0.15793309334E+03  0.12509342471E+03 0.  0.
         23    2    1    2    0    0  0.35355074932E+02 -0.82769589720E+02  0.76789258785E+02  0.15021605368E+03  0.92560716360E+02 0.  0.
          5    1    3    3  502    0 -0.70187294659E+02  0.35407352520E+02 -0.54455385423E+02  0.95722506996E+02  0.41800000000E+01 0. -1.
         -5    1    3    3    0  502  0.34832219727E+02  0.47362237199E+02  0.19905265884E+02  0.62210586346E+02  0.41800000000E+01 0. -1.
        -11    1    4    4    0    0 -0.81403470260E+01 -0.44897446002E+02 -0.93257544365E+01  0.46572691602E+02  0.00000000000E+00 0.  1.
         11    1    4    4    0    0  0.43495421958E+02 -0.37872143717E+02  0.86115013221E+02  0.10364336208E+03  0.00000000000E+00 0. -1.
</event>
<event>
 8    1  0.4798744E-006  0.1152191E+03  0.7561462E-02  0.1251199E+00
          2   -1    0    0  501    0  0.00000000000E+00  0.00000000000E+00  0.31299011960E+03  0.31299011960E+03  0.00000000000E+00 0. -1.
         -2   -1    0    0    0  501 -0.00000000000E+00 -0.00000000000E+00 -0.62264202671E+02  0.62264202671E+02  0.00000000000E+00 0.  1.
         23    2    1    2    0    0 -0.12978303795E+02  0.77556691226E+02  0.85665420824E+02  0.17079765079E+03  0.12509914655E+03 0.  0.
         23    2    1    2    0    0  0.12978303795E+02 -0.77556691226E+02  0.16506049610E+03  0.20445667148E+03  0.91510034509E+02 0.  0.
          5    1    3    3  502    0  0.34963820757E+02 -0.32683308976E+01 -0.98789605559E+01  0.36718074710E+02  0.41800000000E+01 0. -1.
         -5    1    3    3    0  502 -0.47942124552E+02  0.80825022123E+02  0.95544381380E+02  0.13407957608E+03  0.41800000000E+01 0. -1.
        -11    1    4    4    0    0 -0.24831109458E+02 -0.43662293147E+02  0.13813054413E+03  0.14697968247E+03  0.00000000000E+00 0. -1.
         11    1    4    4    0    0  0.37809413253E+02 -0.33894398078E+02  0.26929951975E+02  0.57476989005E+02  0.00000000000E+00 0.  1.
</event>
<event>
 8    1  0.4798744E-006  0.1680909E+03  0.7561462E-02  0.1179854E+00
          3   -1    0    0  501    0  0.00000000000E+00  0.00000000000E+00  0.18354620403E+03  0.18354620403E+03  0.00000000000E+00 0. -1.
         -3   -1    0    0    0  501 -0.00000000000E+00 -0.00000000000E+00 -0.21411642424E+03  0.21411642424E+03  0.00000000000E+00 0.  1.
         23    2    1    2    0    0  0.15335066030E+03  0.50179671891E+02  0.25458105734E+02  0.20574203445E+03  0.12508894877E+03 0.  0.
         23    2    1    2    0    0 -0.15335066030E+03 -0.50179671891E+02 -0.56028325944E+02  0.19192059382E+03  0.87520949145E+02 0.  0.
          5    1    3    3  502    0  0.25790335388E+02  0.17818637679E+02  0.61565847380E+02  0.69213230034E+02  0.41800000000E+01 0. -1.
         -5    1    3    3    0  502  0.12756032492E+03  0.32361034212E+02 -0.36107741646E+02  0.13652880441E+03  0.41800000000E+01 0. -1.
        -11    1    4    4    0    0 -0.28192217345E+02  0.14829627996E+02 -0.38237952483E+02  0.49768062002E+02  0.00000000000E+00 0. -1.
         11    1    4    4    0    0 -0.12515844296E+03 -0.65009299887E+02 -0.17790373461E+02  0.14215253182E+03  0.00000000000E+00 0.  1.
</event>
<event>
 8    1  0.4798744E-006  0.1359691E+03  0.7561462E-02  0.1218858E+00
          1   -1    0    0  501    0  0.00000000000E+00  0.00000000000E+00  0.39854119762E+03  0.39854119762E+03  0.00000000000E+00 0. -1.
         -1   -1    0    0    0  501 -0.00000000000E+00 -0.00000000000E+00 -0.61464504836E+02  0.61464504836E+02  0.00000000000E+00 0.  1.
         23    2    1    2    0    0 -0.56976824741E+02 -0.99095766263E+02  0.20815091939E+03  0.26840311882E+03  0.12508836675E+03 0.  0.
         23    2    1    2    0    0  0.56976824741E+02  0.99095766263E+02  0.12892577339E+03  0.19160258364E+03  0.83805522285E+02 0.  0.
          5    1    3    3  502    0 -0.75275583695E+02 -0.29619025786E+02  0.16673533370E+03  0.18536947994E+03  0.41800000000E+01 0. -1.
         -5    1    3    3    0  502  0.18298758954E+02 -0.69476740477E+02  0.41415585693E+02  0.83033638875E+02  0.41800000000E+01 0. -1.
        -11    1    4    4    0    0  0.61035694482E+02  0.87505860117E+02  0.13934471242E+03  0.17549809239E+03  0.00000000000E+00 0. -1.
         11    1    4    4    0    0 -0.40588697415E+01  0.11589906146E+02 -0.10418939023E+02  0.16104491250E+02  0.00000000000E+00 0.  1.
</event>
<event>
 8    1  0.4798744E-006  0.4387843E+03  0.7561462E-02  0.1031120E+00
          3   -1    0    0  501    0  0.00000000000E+00  0.00000000000E+00  0.43502462130E+03  0.43502462130E+03  0.00000000000E+00 0. -1.
         -3   -1    0    0    0  501 -0.00000000000E+00 -0.00000000000E+00 -0.46164845153E+03  0.46164845153E+03  0.00000000000E+00 0.  1.
         23    2    1    2    0    0 -0.23526139445E+03  0.36306490672E+03  0.12517588442E+02  0.45052468351E+03  0.12510695513E+03 0.  0.
         23    2    1    2    0    0  0.23526139445E+03 -0.36306490672E+03 -0.39141418670E+02  0.44614838931E+03  0.10174617641E+03 0.  0.
          5    1    3    3  502    0 -0.21205778856E+03  0.36398577876E+03 -0.47258378593E+01  0.42130031898E+03  0.41800000000E+01 0.  1.
         -5    1    3    3    0  502 -0.23203605889E+02 -0.92087203993E+00  0.17243426301E+02  0.29224364530E+02  0.41800000000E+01 0.  1.
        -11    1    4    4    0    0  0.96573569795E+02 -0.14178160200E+03 -0.65592852822E+02  0.18365973807E+03  0.00000000000E+00 0.  1.
         11    1    4    4    0    0  0.13868782466E+03 -0.22128330473E+03  0.26451434152E+02  0.26248865124E+03  0.00000000000E+00 0. -1.
</event>
<event>
 8    1  0.4798744E-006  0.1365296E+03  0.7561462E-02  0.1218076E+00
          2   -1    0    0  501    0  0.00000000000E+00  0.00000000000E+00  0.11036017968E+04  0.11036017968E+04  0.00000000000E+00 0.  1.
         -2   -1    0    0    0  501 -0.00000000000E+00 -0.00000000000E+00 -0.25572090361E+02  0.25572090361E+02  0.00000000000E+00 0. -1.
         23    2    1    2    0    0 -0.92301192859E+02  0.78671874316E+02  0.45656148442E+03  0.48867639429E+03  0.12508978882E+03 0.  0.
         23    2    1    2    0    0  0.92301192859E+02 -0.78671874316E+02  0.62146822200E+03  0.64049749285E+03  0.96465088946E+02 0.  0.
          5    1    3    3  502    0 -0.55736599511E+02  0.14921629772E+00  0.33337042882E+03  0.33802352877E+03  0.41800000000E+01 0.  1.
         -5    1    3    3    0  502 -0.36564593348E+02  0.78522658019E+02  0.12319105560E+03  0.15065286552E+03  0.41800000000E+01 0.  1.
        -11    1    4    4    0    0  0.80174183887E+01 -0.34244350715E+02  0.49936196579E+02  0.61078460051E+02  0.00000000000E+00 0. -1.
         11    1    4    4    0    0  0.84283774470E+02 -0.44427523602E+02  0.57153202542E+03  0.57941903280E+03  0.00000000000E+00 0.  1.
</event>
<event>
 8    1  0.7541734E-006  0.4978130E+03  0.7561462E-02  0.1014351E+00
         -2   -1    0    0    0  501 -0.00000000000E+00  0.00000000000E+00  0.13426601880E+04  0.13426601880E+04  0.00000000000E+00 0.  1.
          2   -1    0    0  501    0  0.00000000000E+00 -0.00000000000E+00 -0.20133604889E+03  0.20133604889E+03  0.00000000000E+00 0. -1.
         23    2    1    2    0    0  0.40446094304E+03  0.28842800046E+03  0.41460344919E+03  0.65903099289E+03  0.12508582500E+03 0.  0.
         23    2    1    2    0    0 -0.40446094304E+03 -0.28842800046E+03  0.72672068992E+03  0.88496524399E+03  0.90890901763E+02 0.  0.
          5    1    3    3  502    0  0.95704066769E+02  0.49140884427E+02  0.15959879690E+03  0.19251842325E+03  0.41800000000E+01 0.  1.
         -5    1    3    3    0  502  0.30875687627E+03  0.23928711604E+03  0.25500465229E+03  0.46651256964E+03  0.41800000000E+01 0.  1.
        -11    1    4    4    0    0 -0.33133176467E+03 -0.24697326028E+03  0.65498367505E+03  0.77445473990E+03  0.00000000000E+00 0.  1.
         11    1    4    4    0    0 -0.73129178362E+02 -0.41454740190E+02  0.71737014869E+02  0.11051050409E+03  0.00000000000E+00 0. -1.
</event>
<event>
 8    1  0.4798744E-006  0.1135005E+03  0.7561462E-02  0.1254222E+00
         -2   -1    0    0    0  501 -0.00000000000E+00  0.00000000000E+00  0.28861248291E+03  0.28861248291E+03  0.00000000000E+00 0. -1.
          2   -1    0    0  501    0  0.00000000000E+00 -0.00000000000E+00 -0.60525303366E+02  0.60525303366E+02  0.00000000000E+00 0.  1.
         23    2    1    2    0    0  0.68139299700E+02  0.25105425384E+02  0.15196607284E+03  0.20979576337E+03  0.12508928207E+03 0.  0.
         23    2    1    2    0    0 -0.68139299700E+02 -0.25105425384E+02  0.76121106711E+02  0.13934202291E+03  0.91370290104E+02 0.  0.
          5    1    3    3  502    0  0.99661745734E+02  0.41876817554E+02  0.10620049941E+03  0.15159864738E+03  0.41800000000E+01 0.  1.
         -5    1    3    3    0  502 -0.31522446035E+02 -0.16771392170E+02  0.45765573423E+02  0.58197115994E+02  0.41800000000E+01 0.  1.
        -11    1    4    4    0    0 -0.64485288460E+02 -0.75383212103E+01  0.40276536401E+01  0.65049217584E+02  0.00000000000E+00 0.  1.
         11    1    4    4    0    0 -0.36540112402E+01 -0.17567104173E+02  0.72093453071E+02  0.74292805324E+02  0.00000000000E+00 0. -1.
</event>
<event>
 8    1  0.4798744E-006  0.7689912E+02  0.7561462E-02  0.1338089E+00
         -2   -1    0    0    0  501 -0.00000000000E+00  0.00000000000E+00  0.65936374498E+02  0.65936374498E+02  0.00000000000E+00 0.  1.
          2   -1    0    0  501    0  0.00000000000E+00 -0.00000000000E+00 -0.27442638964E+03  0.27442638964E+03  0.00000000000E+00 0. -1.
         23    2    1    2    0    0 -0.33808312521E+01 -0.45696878597E+02 -0.32001902094E+02  0.13701389373E+03  0.12509616543E+03 0.  0.
         23    2    1    2    0    0  0.33808312521E+01  0.45696878597E+02 -0.17648811305E+03  0.20334887041E+03  0.90017077908E+02 0.  0.
          5    1    3    3  502    0 -0.42702806245E+01 -0.47810098288E+02 -0.77505486851E+02  0.91261238689E+02  0.41800000000E+01 0.  1.
         -5    1    3    3    0  502  0.88944937237E+00  0.21132196915E+01  0.45503584757E+02  0.45752655042E+02  0.41800000000E+01 0.  1.
        -11    1    4    4    0    0 -0.87854817016E+01  0.71649343574E+02 -0.12104795802E+03  0.14093765027E+03  0.00000000000E+00 0.  1.
         11    1    4    4    0    0  0.12166312954E+02 -0.25952464977E+02 -0.55440155029E+02  0.62411220136E+02  0.00000000000E+00 0. -1.
</event>
<event>
 8    1  0.4798744E-006  0.1442129E+03  0.7561462E-02  0.1207770E+00
          2   -1    0    0  501    0  0.00000000000E+00  0.00000000000E+00  0.18593167613E+03  0.18593167613E+03  0.00000000000E+00 0. -1.
         -2   -1    0    0    0  501 -0.00000000000E+00 -0.00000000000E+00 -0.15048379422E+03  0.15048379422E+03  0.00000000000E+00 0.  1.
         23    2    1    2    0    0 -0.11776465171E+03  0.26113620612E+02 -0.20022205011E+02  0.17492532817E+03  0.12509015696E+03 0.  0.
         23    2    1    2    0    0  0.11776465171E+03 -0.26113620612E+02  0.55470086921E+02  0.16149014217E+03  0.91933133861E+02 0.  0.
          5    1    3    3  502    0 -0.93836465782E+02  0.48961738475E+02 -0.60889841594E+02  0.12217847337E+03  0.41800000000E+01 0.  1.
         -5    1    3    3    0  502 -0.23928185932E+02 -0.22848117862E+02  0.40867636583E+02  0.52746854804E+02  0.41800000000E+01 0.  1.
        -11    1    4    4    0    0  0.58272984792E+02 -0.57521026770E+02  0.44925846200E+02  0.93395615176E+02  0.00000000000E+00 0. -1.
         11    1    4    4    0    0  0.59491666922E+02  0.31407406158E+02  0.10544240721E+02  0.68094526998E+02  0.00000000000E+00 0.  1.
</event>
<event>
 8    1  0.4798744E-006  0.2243121E+03  0.7561462E-02  0.1130708E+00
         -1   -1    0    0    0  501 -0.00000000000E+00  0.00000000000E+00  0.27071927186E+03  0.27071927186E+03  0.00000000000E+00 0.  1.
          1   -1    0    0  501    0  0.00000000000E+00 -0.00000000000E+00 -0.21163358706E+03  0.21163358706E+03  0.00000000000E+00 0. -1.
         23    2    1    2    0    0 -0.17305727338E+03 -0.97255954274E+02  0.10586452549E+03  0.25741447337E+03  0.12508945932E+03 0.  0.
         23    2    1    2    0    0  0.17305727338E+03  0.97255954274E+02 -0.46778840691E+02  0.22493838555E+03  0.94876113151E+02 0.  0.
          5    1    3    3  502    0 -0.49249023689E+02 -0.92228488729E+02  0.19812818318E+02  0.10649685741E+03  0.41800000000E+01 0.  1.
         -5    1    3    3    0  502 -0.12380824969E+03 -0.50274655450E+01  0.86051707174E+02  0.15091761597E+03  0.41800000000E+01 0.  1.
        -11    1    4    4    0    0  0.40445242904E+02  0.75458571648E+02 -0.19470354564E+02  0.87800389609E+02  0.00000000000E+00 0. -1.
         11    1    4    4    0    0  0.13261203048E+03  0.21797382626E+02 -0.27308486127E+02  0.13713799594E+03  0.00000000000E+00 0.  1.
</event>
<event>
 8    1  0.4798744E-006  0.8651849E+02  0.7561462E-02  0.1311509E+00
          4   -1    0    0  501    0  0.00000000000E+00  0.00000000000E+00  0.12214902587E+02  0.12214902587E+02  0.00000000000E+00 0. -1.
         -4   -1    0    0    0  501 -0.00000000000E+00 -0.00000000000E+00 -0.12609957652E+04  0.12609957652E+04  0.00000000000E+00 0.  1.
         23    2    1    2    0    0 -0.48030192350E+01 -0.11447325855E+02 -0.96950989719E+03  0.97762484508E+03  0.12508711640E+03 0.  0.
         23    2    1    2    0    0  0.48030192350E+01  0.11447325855E+02 -0.27927096545E+03  0.29558582274E+03  0.96044761443E+02 0.  0.
          5    1    3    3  502    0  0.35847967426E+02  0.22251253234E+01 -0.84674447879E+03  0.84751620203E+03  0.41800000000E+01 0. -1.
         -5    1    3    3    0  502 -0.40650986661E+02 -0.13672451178E+02 -0.12276541841E+03  0.13010864304E+03  0.41800000000E+01 0. -1.
        -11    1    4    4    0    0 -0.40107079280E+02  0.24523827988E+02 -0.17681068847E+03  0.18295358839E+03  0.00000000000E+00 0.  1.
         11    1    4    4    0    0  0.44910098515E+02 -0.13076502133E+02 -0.10246027698E+03  0.11263223435E+03  0.00000000000E+00 0. -1.
</event>
<event>
 7    1  0.4798744E-006  0.2271695E+03  0.7561462E-02  0.1128648E+00
          2   -1    0    0  501    0  0.00000000000E+00  0.00000000000E+00  0.10200762343E+04  0.10200762343E+04  0.00000000000E+00 0. -1.
         -2   -1    0    0    0  501 -0.00000000000E+00 -0.00000000000E+00 -0.16348704754E+03  0.16348704754E+03  0.00000000000E+00 0.  1.
         23    2    1    2    0    0 -0.15715150397E+03 -0.12151058544E+03  0.81127833141E+03  0.84006128555E+03  0.89827695551E+02 0.  0.
          5    1    1    2  502    0  0.12156492383E+02 -0.37448222474E+02  0.11152967930E+03  0.11834902382E+03  0.41800000000E+01 0. -1.
         -5    1    1    2    0  502  0.14499501158E+03  0.15895880791E+03 -0.66218823900E+02  0.22515297252E+03  0.41800000000E+01 0.  1.
        -11    1    3    3    0    0 -0.22291179420E+02 -0.94619445584E+01  0.26345909003E+02  0.35784521737E+02  0.00000000000E+00 0.  1.
         11    1    3    3    0    0 -0.13486032455E+03 -0.11204864088E+03  0.78493242241E+03  0.80427676381E+03  0.00000000000E+00 0. -1.
</event>
<event>
 8    1  0.4798744E-006  0.1458689E+03  0.7561462E-02  0.1205643E+00
          2   -1    0    0  501    0  0.00000000000E+00  0.00000000000E+00  0.11025733465E+03  0.11025733465E+03  0.00000000000E+00 0.  1.
         -2   -1    0    0    0  501 -0.00000000000E+00 -0.00000000000E+00 -0.27913128766E+03  0.27913128766E+03  0.00000000000E+00 0. -1.
         23    2    1    2    0    0 -0.92834261823E+02 -0.42572496791E+02 -0.19169330416E+03  0.25065888302E+03  0.12511169061E+03 0.  0.
         23    2    1    2    0    0  0.92834261823E+02  0.42572496791E+02  0.22819351150E+02  0.13872973928E+03  0.91074695295E+02 0.  0.
          5    1    3    3  502    0 -0.22279182679E+02  0.42908999417E+02 -0.40895170421E+02  0.63462048309E+02  0.41800000000E+01 0.  1.
         -5    1    3    3    0  502 -0.70555079144E+02 -0.85481496208E+02 -0.15079813374E+03  0.18719683472E+03  0.41800000000E+01 0.  1.
        -11    1    4    4    0    0  0.37402989091E+02  0.62958784508E+02  0.30190716411E+02  0.79210299185E+02  0.00000000000E+00 0.  1.
         11    1    4    4    0    0  0.55431272732E+02 -0.20386287717E+02 -0.73713652604E+01  0.59519440096E+02  0.00000000000E+00 0. -1.
</event>
<event>
 8    1  0.4798744E-006  0.1879669E+03  0.7561462E-02  0.1160308E+00
          2   -1    0    0  501    0  0.00000000000E+00  0.00000000000E+00  0.34836697642E+03  0.34836697642E+03  0.00000000000E+00 0.  1.
         -2   -1    0    0    0  501 -0.00000000000E+00 -0.00000000000E+00 -0.10494697409E+03  0.10494697409E+03  0.00000000000E+00 0. -1.
         23    2    1    2    0    0 -0.11228126724E+03  0.10833751556E+03  0.15323175676E+03  0.25193528469E+03  0.12508923273E+03 0.  0.
         23    2    1    2    0    0  0.11228126724E+03 -0.10833751556E+03  0.90188245581E+02  0.20137866581E+03  0.89862935367E+02 0.  0.
          5    1    3    3  502    0  0.18502383874E+02  0.49516233625E+02  0.21674087233E+02  0.57283802762E+02  0.41800000000E+01 0.  1.
         -5    1    3    3    0  502 -0.13078365112E+03  0.58821281935E+02  0.13155766952E+03  0.19465148193E+03  0.41800000000E+01 0.  1.
        -11    1    4    4    0    0  0.92032323277E+02 -0.27416558630E+02  0.56495258377E+02  0.11141512659E+03  0.00000000000E+00 0. -1.
         11    1    4    4    0    0  0.20248943965E+02 -0.80920956931E+02  0.33692987204E+02  0.89963539220E+02  0.00000000000E+00 0.  1.
</event>
<event>
 8    1  0.4798744E-006  0.1260189E+03  0.7561462E-02  0.1233485E+00
          2   -1    0    0  501    0  0.00000000000E+00  0.00000000000E+00  0.18538273724E+03  0.18538273724E+03  0.00000000000E+00 0. -1.
         -2   -1    0    0    0  501 -0.00000000000E+00 -0.00000000000E+00 -0.19556973873E+03  0.19556973873E+03  0.00000000000E+00 0.  1.
         23    2    1    2    0    0  0.72837376405E+02  0.62590586347E+02 -0.12718951024E+03  0.20260048851E+03  0.12508765538E+03 0.  0.
         23    2    1    2    0    0 -0.72837376405E+02 -0.62590586347E+02  0.11700250875E+03  0.17835198746E+03  0.94323801221E+02 0.  0.
          5    1    3    3  502    0  0.99331501736E+02  0.59860785170E+02 -0.60944110218E+02  0.13107905175E+03  0.41800000000E+01 0.  1.
         -5    1    3    3    0  502 -0.26494125331E+02  0.27298011767E+01 -0.66245400024E+02  0.71521436757E+02  0.41800000000E+01 0.  1.
        -11    1    4    4    0    0 -0.15328058726E+02  0.85482620114E+01 -0.11229252983E+02  0.20835505520E+02  0.00000000000E+00 0.  1.
         11    1    4    4    0    0 -0.57509317679E+02 -0.71138848358E+02  0.12823176174E+03  0.15751648194E+03  0.00000000000E+00 0. -1.
</event>
<event>
 8    1  0.4798744E-006  0.1011302E+03  0.7561462E-02  0.1277937E+00
          1   -1    0    0  501    0  0.00000000000E+00  0.00000000000E+00  0.20254611417E+02  0.20254611417E+02  0.00000000000E+00 0. -1.
         -1   -1    0    0    0  501 -0.00000000000E+00 -0.00000000000E+00 -0.84449160451E+03  0.84449160451E+03  0.00000000000E+00 0.  1.
         23    2    1    2    0    0 -0.32447562831E+02 -0.21712691272E+02 -0.66241787919E+03  0.67525523303E+03  0.12509155754E+03 0.  0.
         23    2    1    2    0    0  0.32447562831E+02  0.21712691272E+02 -0.16181911390E+03  0.18949098289E+03  0.90537957119E+02 0.  0.
          5    1    3    3  502    0  0.25398564042E+02 -0.42007931525E+02 -0.12535687634E+03  0.13469065377E+03  0.41800000000E+01 0.  1.
         -5    1    3    3    0  502 -0.57846126873E+02  0.20295240253E+02 -0.53706100285E+03  0.54056457926E+03  0.41800000000E+01 0.  1.
        -11    1    4    4    0    0  0.44093427382E+02 -0.19871168225E+02 -0.49724417374E+02  0.69365779373E+02  0.00000000000E+00 0. -1.
         11    1    4    4    0    0 -0.11645864551E+02  0.41583859497E+02 -0.11209469652E+03  0.12012520352E+03  0.00000000000E+00 0.  1.
</event>
<event>
 8    1  0.4798744E-006  0.1781029E+03  0.7561462E-02  0.1169652E+00
          2   -1    0    0  501    0  0.00000000000E+00  0.00000000000E+00  0.60433979932E+03  0.60433979932E+03  0.00000000000E+00 0. -1.
         -2   -1    0    0    0  501 -0.00000000000E+00 -0.00000000000E+00 -0.56941233622E+02  0.56941233622E+02  0.00000000000E+00 0.  1.
         23    2    1    2    0    0  0.53507089387E+02 -0.13887126206E+03  0.25038443588E+03  0.31699780874E+03  0.12508800491E+03 0.  0.
         23    2    1    2    0    0 -0.53507089387E+02  0.13887126206E+03  0.29701412981E+03  0.34428322420E+03  0.90362100005E+02 0.  0.
          5    1    3    3  502    0 -0.32052422813E+02 -0.30771866583E+02  0.11659418440E+03  0.12484366951E+03  0.41800000000E+01 0. -1.
         -5    1    3    3    0  502  0.85559512200E+02 -0.10809939548E+03  0.13379025149E+03  0.19215413923E+03  0.41800000000E+01 0. -1.
        -11    1    4    4    0    0 -0.22823411519E+01  0.11850461567E+03  0.19084636462E+03  0.22465726764E+03  0.00000000000E+00 0.  1.
         11    1    4    4    0    0 -0.51224748235E+02  0.20366646395E+02  0.10616776519E+03  0.11962595656E+03  0.00000000000E+00 0. -1.
</event>
<event>
 8    1  0.4798744E-006  0.1360106E+03  0.7561462E-02  0.1218800E+00
         -1   -1    0    0    0  501 -0.00000000000E+00  0.00000000000E+00  0.98818557685E+02  0.98818557685E+02  0.00000000000E+00 0.  1.
          1   -1    0    0  501    0  0.00000000000E+00 -0.00000000000E+00 -0.28987155668E+03  0.28987155668E+03  0.00000000000E+00 0. -1.
         23    2    1    2    0    0 -0.43566182015E+02  0.98526380915E+02 -0.19493974807E+02  0.16622919798E+03  0.12508665499E+03 0.  0.
         23    2    1    2    0    0  0.43566182015E+02 -0.98526380915E+02 -0.17155902419E+03  0.22246091638E+03  0.91928779958E+02 0.  0.
          5    1    3    3  502    0 -0.58858834974E+02  0.12212523150E+03 -0.23050103580E+02  0.13757802985E+03  0.41800000000E+01 0.  1.
         -5    1    3    3    0  502  0.15292652959E+02 -0.23598850585E+02  0.35561287736E+01  0.28651168131E+02  0.41800000000E+01 0.  1.
        -11    1    4    4    0    0  0.12592695037E+02 -0.36832804915E+02 -0.14222318627E+03  0.14745394602E+03  0.00000000000E+00 0. -1.
         11    1    4    4    0    0  0.30973486978E+02 -0.61693576000E+02 -0.29335837918E+02  0.75006970353E+02  0.00000000000E+00 0.  1.
</event>
<event>
 8    1  0.4798744E-006  0.1002461E+03  0.7561462E-02  0.1279779E+00
         -3   -1    0    0    0  501 -0.00000000000E+00  0.00000000000E+00  0.45606324358E+03  0.45606324358E+03  0.00000000000E+00 0.  1.
          3   -1    0    0  501    0  0.00000000000E+00 -0.00000000000E+00 -0.40765101845E+02  0.40765101845E+02  0.00000000000E+00 0. -1.
         23    2    1    2    0    0  0.10015453421E+02 -0.57277507501E+02  0.33432411557E+03  0.36166435717E+03  0.12508985100E+03 0.  0.
         23    2    1    2    0    0 -0.10015453421E+02  0.57277507501E+02  0.80974026168E+02  0.13516398826E+03  0.91276988529E+02 0.  0.
          5    1    3    3  502    0 -0.31982806921E+02 -0.58339894834E+02  0.29981317991E+03  0.30713491908E+03  0.41800000000E+01 0. -1.
         -5    1    3    3    0  502  0.41998260342E+02  0.10623873326E+01  0.34510935656E+02  0.54529438091E+02  0.41800000000E+01 0. -1.
        -11    1    4    4    0    0  0.27920467861E+02  0.42599207395E+02  0.79554647051E+02  0.94462621516E+02  0.00000000000E+00 0.  1.
         11    1    4    4    0    0 -0.37935921282E+02  0.14678300106E+02  0.14193791170E+01  0.40701366741E+02  0.00000000000E+00 0. -1.
</event>
<event>
 8    1  0.4798744E-006  0.1173880E+03  0.7561462E-02  0.1247469E+00
          1   -1    0    0  501    0  0.00000000000E+00  0.00000000000E+00  0.50191383359E+02  0.50191383359E+02  0.00000000000E+00 0. -1.
         -1   -1    0    0    0  501 -0.00000000000E+00 -0.00000000000E+00 -0.39396863602E+03  0.39396863602E+03  0.00000000000E+00 0.  1.
         23    2    1    2    0    0 -0.73447111422E+02 -0.46543454435E+02 -0.23000901728E+03  0.27588669692E+03  0.12509416526E+03 0.  0.
         23    2    1    2    0    0  0.73447111422E+02  0.46543454435E+02 -0.11376823538E+03  0.16827332246E+03  0.88385113799E+02 0.  0.
          5    1    3    3  502    0 -0.20481403920E+02  0.40650364095E+02 -0.42680864672E+02  0.62538537053E+02  0.41800000000E+01 0. -1.
         -5    1    3    3    0  502 -0.52965707502E+02 -0.87193818530E+02 -0.18732815260E+03  0.21334815987E+03  0.41800000000E+01 0. -1.
        -11    1    4    4    0    0  0.60697595844E+02  0.37950075101E+02 -0.12842687246E+03  0.14703015987E+03  0.00000000000E+00 0.  1.
         11    1    4    4    0    0  0.12749515577E+02  0.85933793336E+01  0.14658637075E+02  0.21243162588E+02  0.00000000000E+00 0. -1.
</event>
<event>
 8    1  0.1137929E-005  0.2141068E+03  0.7561462E-02  0.1138354E+00
          2   -1    0    0  501    0  0.00000000000E+00  0.00000000000E+00  0.17107185670E+04  0.17107185670E+04  0.00000000000E+00 0. -1.
         -2   -1    0    0    0  501 -0.00000000000E+00 -0.00000000000E+00 -0.29947732300E+02  0.29947732300E+02  0.00000000000E+00 0.  1.
         23    2    1    2    0    0 -0.16421124399E+03 -0.10653501112E+03  0.72326864163E+03  0.75965750046E+03  0.12508776435E+03 0.  0.
         23    2    1    2    0    0  0.16421124399E+03  0.10653501112E+03  0.95750219303E+03  0.98100879881E+03  0.85163210505E+02 0.  0.
          5    1    3    3  502    0 -0.38670772098E+02 -0.79861424735E+02  0.43656256561E+03  0.44550827362E+03  0.41800000000E+01 0. -1.
         -5    1    3    3    0  502 -0.12554047189E+03 -0.26673586385E+02  0.28670607602E+03  0.31414922684E+03  0.41800000000E+01 0. -1.
        -11    1    4    4    0    0  0.11712867793E+03  0.29660257745E+02  0.62072667250E+03  0.63237683388E+03  0.00000000000E+00 0.  1.
         11    1    4    4    0    0  0.47082566063E+02  0.76874753374E+02  0.33677552054E+03  0.34863196492E+03  0.00000000000E+00 0. -1.
</event>
<event>
 8    1  0.4798744E-006  0.7409941E+02  0.7561462E-02  0.1346683E+00
          1   -1    0    0  501    0  0.00000000000E+00  0.00000000000E+00  0.16780286835E+03  0.16780286835E+03  0.00000000000E+00 0. -1.
         -1   -1    0    0    0  501 -0.00000000000E+00 -0.00000000000E+00 -0.22453183842E+03  0.22453183842E+03  0.00000000000E+00 0.  1.
         23    2    1    2    0    0  0.33665159146E+01 -0.42517553700E+02 -0.18949473361E+03  0.22985586536E+03  0.12290805089E+03 0.  0.
         23    2    1    2    0    0 -0.33665159146E+01  0.42517553700E+02  0.13276576353E+03  0.16247884141E+03  0.83387949600E+02 0.  0.
          5    1    3    3  502    0  0.14054943100E+02  0.90593594154E+01  0.12353748408E+02  0.21206152840E+02  0.41800000000E+01 0. -1.
         -5    1    3    3    0  502 -0.10688427185E+02 -0.51576913115E+02 -0.20184848201E+03  0.20864971252E+03  0.41800000000E+01 0.  1.
        -11    1    4    4    0    0 -0.21806446553E+02  0.52718723894E+02  0.12902576000E+03  0.14107597848E+03  0.00000000000E+00 0. -1.
         11    1    4    4    0    0  0.18439930638E+02 -0.10201170194E+02  0.37400035303E+01  0.21402862932E+02  0.00000000000E+00 0.  1.
</event>
<event>
 8    1  0.4798744E-006  0.1030699E+03  0.7561462E-02  0.1273970E+00
          1   -1    0    0  501    0  0.00000000000E+00  0.00000000000E+00  0.42022358519E+03  0.42022358519E+03  0.00000000000E+00 0. -1.
         -1   -1    0    0    0  501 -0.00000000000E+00 -0.00000000000E+00 -0.41868810425E+02  0.41868810425E+02  0.00000000000E+00 0.  1.
         23    2    1    2    0    0  0.63602167223E+02  0.92099569220E+01  0.14997946640E+03  0.20559914642E+03  0.12508840749E+03 0.  0.
         23    2    1    2    0    0 -0.63602167223E+02 -0.92099569220E+01  0.22837530837E+03  0.25649324920E+03  0.97485621637E+02 0.  0.
          5    1    3    3  502    0 -0.59248219084E+01  0.21509760249E+02  0.13018815097E+03  0.13215218634E+03  0.41800000000E+01 0. -1.
         -5    1    3    3    0  502  0.69526989131E+02 -0.12299803327E+02  0.19791315424E+02  0.73446960085E+02  0.41800000000E+01 0. -1.
        -11    1    4    4    0    0  0.17746478508E+02  0.19572680138E+02  0.86423576243E+02  0.90371797801E+02  0.00000000000E+00 0. -1.
         11    1    4    4    0    0 -0.81348645731E+02 -0.28782637060E+02  0.14195173213E+03  0.16612145139E+03  0.00000000000E+00 0.  1.
</event>
<event>
 8    1  0.4798744E-006  0.8477057E+02  0.7561462E-02  0.1316034E+00
         -1   -1    0    0    0  501 -0.00000000000E+00  0.00000000000E+00  0.30269163306E+03  0.30269163306E+03  0.00000000000E+00 0.  1.
          1   -1    0    0  501    0  0.00000000000E+00 -0.00000000000E+00 -0.38711081216E+02  0.38711081216E+02  0.00000000000E+00 0. -1.
         23    2    1    2    0    0  0.14703037407E+01 -0.39956842621E+00  0.17793203573E+03  0.21750890061E+03  0.12509193042E+03 0.  0.
         23    2    1    2    0    0 -0.14703037407E+01  0.39956842621E+00  0.86048516114E+02  0.12389381367E+03  0.89123557445E+02 0.  0.
          5    1    3    3  502    0 -0.24542538409E+02  0.52395084383E+02  0.12677420884E+03  0.13941575767E+03  0.41800000000E+01 0. -1.
         -5    1    3    3    0  502  0.26012842150E+02 -0.52794652810E+02  0.51157826885E+02  0.78093142936E+02  0.41800000000E+01 0. -1.
        -11    1    4    4    0    0 -0.25610532837E+02  0.86274098731E+01  0.93497163350E+02  0.97324463254E+02  0.00000000000E+00 0.  1.
         11    1    4    4    0    0  0.24140229097E+02 -0.82278414469E+01 -0.74486472359E+01  0.26569350413E+02  0.00000000000E+00 0. -1.
</event>
<event>
 8    1  0.4798744E-006  0.1186777E+03  0.7561462E-02  0.1245294E+00
          2   -1    0    0  501    0  0.00000000000E+00  0.00000000000E+00  0.66898149004E+03  0.66898149004E+03  0.00000000000E+00 0.  1.
         -2   -1    0    0    0  501 -0.00000000000E+00 -0.00000000000E+00 -0.26848994577E+02  0.26848994577E+02  0.00000000000E+00 0. -1.
         23    2    1    2    0    0  0.67944837096E+02  0.16016410209E+02  0.25243248310E+03  0.29024510392E+03  0.12508811111E+03 0.  0.
         23    2    1    2    0    0 -0.67944837096E+02 -0.16016410209E+02  0.38970001236E+03  0.40558538069E+03  0.88092991292E+02 0.  0.
          5    1    3    3  502    0 -0.70863624138E+01  0.52216942377E+02  0.56905477724E+02  0.77669372333E+02  0.41800000000E+01 0. -1.
         -5    1    3    3    0  502  0.75031199510E+02 -0.36200532168E+02  0.19552700538E+03  0.21257573159E+03  0.41800000000E+01 0. -1.
        -11    1    4    4    0    0 -0.83435481003E+02 -0.18313918665E+02  0.37314251668E+03  0.38279526755E+03  0.00000000000E+00 0.  1.
         11    1    4    4    0    0  0.15490643906E+02  0.22975084557E+01  0.16557495679E+02  0.22790113139E+02  0.00000000000E+00 0. -1.
</event>
<event>
 8    1  0.4798744E-006  0.1241038E+03  0.7561462E-02  0.1236477E+00
          2   -1    0    0  501    0  0.00000000000E+00  0.00000000000E+00  0.24741884113E+03  0.24741884113E+03  0.00000000000E+00 0. -1.
         -2   -1    0    0    0  501 -0.00000000000E+00 -0.00000000000E+00 -0.81622537237E+02  0.81622537237E+02  0.00000000000E+00 0.  1.
         23    2    1    2    0    0 -0.82148276288E+02  0.37848404900E+02  0.98171554625E+02  0.18294131062E+03  0.12509607486E+03 0.  0.
         23    2    1    2    0    0  0.82148276288E+02 -0.37848404900E+02  0.67624749266E+02  0.14610006774E+03  0.92689168894E+02 0.  0.
          5    1    3    3  502    0 -0.30743888741E+01  0.68056854956E+02  0.31823028741E+02  0.75308465206E+02  0.41800000000E+01 0.  1.
         -5    1    3    3    0  502 -0.79073887414E+02 -0.30208450056E+02  0.66348525884E+02  0.10763284542E+03  0.41800000000E+01 0.  1.
        -11    1    4    4    0    0  0.32536771950E+02 -0.31322500536E+02 -0.16612167646E+02  0.48121769322E+02  0.00000000000E+00 0.  1.
         11    1    4    4    0    0  0.49611504338E+02 -0.65259043639E+01  0.84236916912E+02  0.97978298420E+02  0.00000000000E+00 0. -1.
</event>
<event>
 8    1  0.4798744E-006  0.1080211E+03  0.7561462E-02  0.1264279E+00
         -1   -1    0    0    0  501 -0.00000000000E+00  0.00000000000E+00  0.28763887554E+02  0.28763887554E+02  0.00000000000E+00 0.  1.
          1   -1    0    0  501    0  0.00000000000E+00 -0.00000000000E+00 -0.49872324336E+03  0.49872324336E+03  0.00000000000E+00 0. -1.
         23    2    1    2    0    0 -0.14802247138E+02 -0.25012964399E+02 -0.17189134413E+03  0.21456272592E+03  0.12508306943E+03 0.  0.
         23    2    1    2    0    0  0.14802247138E+02  0.25012964399E+02 -0.29806801167E+03  0.31292440499E+03  0.90732512087E+02 0.  0.
          5    1    3    3  502    0 -0.63544923990E+02 -0.38585090717E+02 -0.78064639500E+02  0.10788107772E+03  0.41800000000E+01 0. -1.
         -5    1    3    3    0  502  0.48742676852E+02  0.13572126318E+02 -0.93826704634E+02  0.10668164820E+03  0.41800000000E+01 0. -1.
        -11    1    4    4    0    0 -0.29984685006E+02  0.33788636331E+02 -0.19565656877E+03  0.20080399942E+03  0.00000000000E+00 0. -1.
         11    1    4    4    0    0  0.44786932144E+02 -0.87756719319E+01 -0.10241144291E+03  0.11212040558E+03  0.00000000000E+00 0.  1.
</event>
<event>
 8    1  0.4798744E-006  0.9550576E+02  0.7561462E-02  0.1290041E+00
          2   -1    0    0  501    0  0.00000000000E+00  0.00000000000E+00  0.40011343583E+03  0.40011343583E+03  0.00000000000E+00 0. -1.
         -2   -1    0    0    0  501 -0.00000000000E+00 -0.00000000000E+00 -0.36172574902E+02  0.36172574902E+02  0.00000000000E+00 0.  1.
         23    2    1    2    0    0  0.45782486102E+02 -0.25433775236E+02  0.19694552530E+03  0.23912042949E+03  0.12509247342E+03 0.  0.
         23    2    1    2    0    0 -0.45782486102E+02  0.25433775236E+02  0.16699533563E+03  0.19716558124E+03  0.90795987514E+02 0.  0.
          5    1    3    3  502    0  0.66917592341E+02 -0.63147931679E+02  0.13006484114E+03  0.15937365134E+03  0.41800000000E+01 0. -1.
         -5    1    3    3    0  502 -0.21135106239E+02  0.37714156442E+02  0.66880684158E+02  0.79746778150E+02  0.41800000000E+01 0. -1.
        -11    1    4    4    0    0 -0.29696392030E+02  0.60884685146E+01  0.16921446411E+03  0.17190834771E+03  0.00000000000E+00 0. -1.
         11    1    4    4    0    0 -0.16086094072E+02  0.19345306721E+02 -0.22191284784E+01  0.25257233535E+02  0.00000000000E+00 0.  1.
</event>
<event>
 8    1  0.4798744E-006  0.1846489E+03  0.7561462E-02  0.1163378E+00
         -1   -1    0    0    0  501 -0.00000000000E+00  0.00000000000E+00  0.38433101928E+02  0.38433101928E+02  0.00000000000E+00 0.  1.
          1   -1    0    0  501    0  0.00000000000E+00 -0.00000000000E+00 -0.11412748811E+04  0.11412748811E+04  0.00000000000E+00 0. -1.
         23    2    1    2    0    0 -0.62053712060E+02  0.16364411126E+03 -0.46429365979E+03  0.51170916289E+03  0.12509039346E+03 0.  0.
         23    2    1    2    0    0  0.62053712060E+02 -0.16364411126E+03 -0.63854811937E+03  0.66799882012E+03  0.88592689355E+02 0.  0.
          5    1    3    3  502    0 -0.49927390067E+02  0.14945257042E+03 -0.24335996101E+03  0.28994888878E+03  0.41800000000E+01 0.  1.
         -5    1    3    3    0  502 -0.12126321993E+02  0.14191540841E+02 -0.22093369878E+03  0.22176027411E+03  0.41800000000E+01 0.  1.
        -11    1    4    4    0    0  0.63887240323E+02 -0.56218665240E+02 -0.22014402412E+03  0.23602014565E+03  0.00000000000E+00 0.  1.
         11    1    4    4    0    0 -0.18335282632E+01 -0.10742544602E+03 -0.41840409525E+03  0.43197867447E+03  0.00000000000E+00 0. -1.
</event>
<event>
 8    1  0.4798744E-006  0.1192215E+03  0.7561462E-02  0.1244387E+00
         -2   -1    0    0    0  501 -0.00000000000E+00  0.00000000000E+00  0.92145365359E+02  0.92145365359E+02  0.00000000000E+00 0.  1.
          2   -1    0    0  501    0  0.00000000000E+00 -0.00000000000E+00 -0.18515580470E+03  0.18515580470E+03  0.00000000000E+00 0. -1.
         23    2    1    2    0    0  0.22326530244E+00  0.74564105810E+02 -0.39173527236E+02  0.15080404560E+03  0.12508972464E+03 0.  0.
         23    2    1    2    0    0 -0.22326530244E+00 -0.74564105810E+02 -0.53836912104E+02  0.12649712445E+03  0.86851906530E+02 0.  0.
          5    1    3    3  502    0 -0.37321537269E+02 -0.40297997103E+01  0.22530169016E+02  0.43979737899E+02  0.41800000000E+01 0.  1.
         -5    1    3    3    0  502  0.37544802572E+02  0.78593905520E+02 -0.61703696251E+02  0.10682430770E+03  0.41800000000E+01 0.  1.
        -11    1    4    4    0    0 -0.33018434970E+02 -0.73594098029E+02 -0.45642422363E+02  0.92679766032E+02  0.00000000000E+00 0. -1.
         11    1    4    4    0    0  0.32795169667E+02 -0.97000778096E+00 -0.81944897409E+01  0.33817358423E+02  0.00000000000E+00 0.  1.
</event>
<event>
 8    1  0.4798744E-006  0.1774293E+03  0.7561462E-02  0.1170314E+00
          2   -1    0    0  501    0  0.00000000000E+00  0.00000000000E+00  0.12386625380E+03  0.12386625380E+03  0.00000000000E+00 0. -1.
         -2   -1    0    0    0  501 -0.00000000000E+00 -0.00000000000E+00 -0.32852530673E+03  0.32852530673E+03  0.00000000000E+00 0.  1.
         23    2    1    2    0    0 -0.16241865995E+03  0.33931305533E+02 -0.66402578633E+02  0.21814642460E+03  0.12508958998E+03 0.  0.
         23    2    1    2    0    0  0.16241865995E+03 -0.33931305533E+02 -0.13825647429E+03  0.23424513593E+03  0.90690553136E+02 0.  0.
          5    1    3    3  502    0 -0.15995809886E+03  0.21201489142E+02 -0.94415404438E+02  0.18699689176E+03  0.41800000000E+01 0.  1.
         -5    1    3    3    0  502 -0.24605610846E+01  0.12729816392E+02  0.28012825806E+02  0.31149532835E+02  0.41800000000E+01 0.  1.
        -11    1    4    4    0    0  0.70983402715E+02 -0.50217117462E+02 -0.10326804142E+03  0.13499885454E+03  0.00000000000E+00 0.  1.
         11    1    4    4    0    0  0.91435257232E+02  0.16285811928E+02 -0.34988432870E+02  0.99246281391E+02  0.00000000000E+00 0. -1.
</event>
<event>
 8    1  0.4798744E-006  0.8554706E+02  0.7561462E-02  0.1314008E+00
          1   -1    0    0  501    0  0.00000000000E+00  0.00000000000E+00  0.60082645312E+02  0.60082645312E+02  0.00000000000E+00 0. -1.
         -1   -1    0    0    0  501 -0.00000000000E+00 -0.00000000000E+00 -0.48912062594E+03  0.48912062594E+03  0.00000000000E+00 0.  1.
         23    2    1    2    0    0 -0.43607386468E+02  0.17796300785E+02 -0.42482146948E+03  0.44535212822E+03  0.12508766808E+03 0.  0.
         23    2    1    2    0    0  0.43607386468E+02 -0.17796300785E+02 -0.42165111512E+01  0.10385114303E+03  0.92460631982E+02 0.  0.
          5    1    3    3  502    0  0.22182295668E+02  0.35188056847E+02 -0.30197299376E+03  0.30485310388E+03  0.41800000000E+01 0.  1.
         -5    1    3    3    0  502 -0.65789682136E+02 -0.17391756062E+02 -0.12284847572E+03  0.14049902434E+03  0.41800000000E+01 0.  1.
        -11    1    4    4    0    0  0.48815832074E+02 -0.72542740525E+01  0.36556480669E+02  0.61416498044E+02  0.00000000000E+00 0. -1.
         11    1    4    4    0    0 -0.52084456053E+01 -0.10542026733E+02 -0.40772991821E+02  0.42434644988E+02  0.00000000000E+00 0.  1.
</event>
<event>
 8    1  0.4798744E-006  0.2084881E+03  0.7561462E-02  0.1142769E+00
         -2   -1    0    0    0  501 -0.00000000000E+00  0.00000000000E+00  0.14321453849E+03  0.14321453849E+03  0.00000000000E+00 0.  1.
          2   -1    0    0  501    0  0.00000000000E+00 -0.00000000000E+00 -0.98390724416E+03  0.98390724416E+03  0.00000000000E+00 0. -1.
         23    2    1    2    0    0  0.18875320594E+03  0.70060778924E+02  0.20790292181E+02  0.23794158671E+03  0.12509067486E+03 0.  0.
         23    2    1    2    0    0 -0.18875320594E+03 -0.70060778924E+02 -0.86148299785E+03  0.88918019594E+03  0.89174995170E+02 0.  0.
          5    1    3    3  502    0  0.10887624331E+03  0.63642064302E+02 -0.45216140752E+02  0.13403850376E+03  0.41800000000E+01 0.  1.
         -5    1    3    3    0  502  0.79876962630E+02  0.64187146221E+01  0.66006432933E+02  0.10390308294E+03  0.41800000000E+01 0.  1.
        -11    1    4    4    0    0 -0.95765034477E+02 -0.28342085029E+01 -0.52501041953E+03  0.53368053664E+03  0.00000000000E+00 0. -1.
         11    1    4    4    0    0 -0.92988171466E+02 -0.67226570421E+02 -0.33647257832E+03  0.35549965930E+03  0.00000000000E+00 0.  1.
</event>
<event>
 8    1  0.4798744E-006  0.1185643E+03  0.7561462E-02  0.1245485E+00
          1   -1    0    0  501    0  0.00000000000E+00  0.00000000000E+00  0.24335121191E+03  0.24335121191E+03  0.00000000000E+00 0. -1.
         -1   -1    0    0    0  501 -0.00000000000E+00 -0.00000000000E+00 -0.88166163608E+02  0.88166163608E+02  0.00000000000E+00 0.  1.
         23    2    1    2    0    0 -0.12209768011E+02 -0.94800731826E+02  0.52689454238E+02  0.16600604177E+03  0.12508225344E+03 0.  0.
         23    2    1    2    0    0  0.12209768011E+02  0.94800731826E+02  0.10249559406E+03  0.16551133375E+03  0.88047700750E+02 0.  0.
          5    1    3    3  502    0  0.68082882664E+00  0.18067580417E+02  0.48856931703E+02  0.52262540748E+02  0.41800000000E+01 0.  1.
         -5    1    3    3    0  502 -0.12890596838E+02 -0.11286831224E+03  0.38325225350E+01  0.11374350102E+03  0.41800000000E+01 0.  1.
        -11    1    4    4    0    0  0.28318622611E+02  0.67395160100E+02  0.11071923512E+03  0.13267554793E+03  0.00000000000E+00 0. -1.
         11    1    4    4    0    0 -0.16108854600E+02  0.27405571727E+02 -0.82236410615E+01  0.32835785821E+02  0.00000000000E+00 0.  1.
</event>
<event>
 8    1  0.4798744E-006  0.1567708E+03  0.7561462E-02  0.1192391E+00
         -1   -1    0    0    0  501 -0.00000000000E+00  0.00000000000E+00  0.42931823506E+02  0.42931823506E+02  0.00000000000E+00 0.  1.
          1   -1    0    0  501    0  0.00000000000E+00 -0.00000000000E+00 -0.66368124819E+03  0.66368124819E+03  0.00000000000E+00 0. -1.
         23    2    1    2    0    0  0.63170397693E+02 -0.10576849141E+03 -0.25174661962E+03  0.30692315500E+03  0.12509192488E+03 0.  0.
         23    2    1    2    0    0 -0.63170397693E+02  0.10576849141E+03 -0.36900280507E+03  0.39968991669E+03  0.91714156147E+02 0.  0.
          5    1    3    3  502    0 -0.90252943130E+01  0.19918112705E+02 -0.75379050666E+02  0.78598096863E+02  0.41800000000E+01 0. -1.
         -5    1    3    3    0  502  0.72195692006E+02 -0.12568660411E+03 -0.17636756895E+03  0.22832505814E+03  0.41800000000E+01 0. -1.
        -11    1    4    4    0    0 -0.15570908403E+02  0.96538122734E+02 -0.18318807431E+03  0.20765339607E+03  0.00000000000E+00 0.  1.
         11    1    4    4    0    0 -0.47599489290E+02  0.92303686744E+01 -0.18581473076E+03  0.19203652062E+03  0.00000000000E+00 0. -1.
</event>
<event>
 8    1  0.4798744E-006  0.1128955E+03  0.7561462E-02  0.1255300E+00
         -4   -1    0    0    0  501 -0.00000000000E+00  0.00000000000E+00  0.11940350286E+03  0.11940350286E+03  0.00000000000E+00 0.  1.
          4   -1    0    0  501    0  0.00000000000E+00 -0.00000000000E+00 -0.15121510721E+03  0.15121510721E+03  0.00000000000E+00 0. -1.
         23    2    1    2    0    0  0.55372588829E+02  0.55940387434E+02 -0.18400658441E+02  0.14893270237E+03  0.12508762954E+03 0.  0.
         23    2    1    2    0    0 -0.55372588829E+02 -0.55940387434E+02 -0.13410945906E+02  0.12168590770E+03  0.91826772360E+02 0.  0.
          5    1    3    3  502    0 -0.40927926925E+01 -0.36545302672E+02 -0.11184310181E+02  0.38663565454E+02  0.41800000000E+01 0.  1.
         -5    1    3    3    0  502  0.59465381522E+02  0.92485690105E+02 -0.72163482599E+01  0.11026913692E+03  0.41800000000E+01 0.  1.
        -11    1    4    4    0    0 -0.20679422488E+02 -0.19259027516E+02 -0.51295286643E+02  0.58564110913E+02  0.00000000000E+00 0. -1.
         11    1    4    4    0    0 -0.34693166341E+02 -0.36681359917E+02  0.37884340736E+02  0.63121796783E+02  0.00000000000E+00 0.  1.
</event>
<event>
 8    1  0.4798744E-006  0.8740538E+02  0.7561462E-02  0.1309259E+00
         -4   -1    0    0    0  501 -0.00000000000E+00  0.00000000000E+00  0.13951066132E+04  0.13951066132E+04  0.00000000000E+00 0. -1.
          4   -1    0    0  501    0  0.00000000000E+00 -0.00000000000E+00 -0.12713053070E+02  0.12713053070E+02  0.00000000000E+00 0.  1.
         23    2    1    2    0    0  0.51379447229E+02  0.15468631696E+02  0.10171163845E+04  0.10261832969E+04  0.12508914076E+03 0.  0.
         23    2    1    2    0    0 -0.51379447229E+02 -0.15468631696E+02  0.36527717568E+03  0.38163636938E+03  0.96642522713E+02 0.  0.
          5    1    3    3  502    0  0.46530174579E+02  0.25965494551E+02  0.10110701192E+04  0.10124818627E+04  0.41800000000E+01 0. -1.
         -5    1    3    3    0  502  0.48492726500E+01 -0.10496862855E+02  0.60462653119E+01  0.13701434204E+02  0.41800000000E+01 0. -1.
        -11    1    4    4    0    0 -0.78477182069E+02 -0.12982381043E+01  0.28871253927E+03  0.29919104909E+03  0.00000000000E+00 0. -1.
         11    1    4    4    0    0  0.27097734840E+02 -0.14170393592E+02  0.76564636411E+02  0.82445320284E+02  0.00000000000E+00 0.  1.
</event>
<event>
 8    1  0.4798744E-006  0.1274048E+03  0.7561462E-02  0.1231358E+00
         -2   -1    0    0    0  501 -0.00000000000E+00  0.00000000000E+00  0.24418607737E+02  0.24418607737E+02  0.00000000000E+00 0.  1.
          2   -1    0    0  501    0  0.00000000000E+00 -0.00000000000E+00 -0.96869003943E+03  0.96869003943E+03  0.00000000000E+00 0. -1.
         23    2    1    2    0    0 -0.63238864830E+02 -0.84819792492E+02 -0.41688365276E+03  0.44791909070E+03  0.12508389446E+03 0.  0.
         23    2    1    2    0    0  0.63238864830E+02  0.84819792492E+02 -0.52738777893E+03  0.54518955646E+03  0.88883248632E+02 0.  0.
          5    1    3    3  502    0 -0.11800614758E+02 -0.82685950343E+02 -0.36592960181E+03  0.37536404566E+03  0.41800000000E+01 0.  1.
         -5    1    3    3    0  502 -0.51438250072E+02 -0.21338421489E+01 -0.50954050948E+02  0.72555045040E+02  0.41800000000E+01 0.  1.
        -11    1    4    4    0    0  0.12125746229E+00  0.44786106956E+02 -0.80726568092E+02  0.92317868669E+02  0.00000000000E+00 0.  1.
         11    1    4    4    0    0  0.63117607367E+02  0.40033685535E+02 -0.44666121084E+03  0.45287168779E+03  0.00000000000E+00 0. -1.
</event>
<event>
 8    1  0.5578506E-006  0.1990870E+03  0.7561462E-02  0.1150512E+00
         -1   -1    0    0    0  501 -0.00000000000E+00  0.00000000000E+00  0.49124820574E+02  0.49124820574E+02  0.00000000000E+00 0.  1.
          1   -1    0    0  501    0  0.00000000000E+00 -0.00000000000E+00 -0.10095567568E+04  0.10095567568E+04  0.00000000000E+00 0. -1.
         23    2    1    2    0    0 -0.18152610785E+03 -0.82909677739E+01 -0.39732174546E+03  0.45445877125E+03  0.12509091641E+03 0.  0.
         23    2    1    2    0    0  0.18152610785E+03  0.82909677739E+01 -0.56311019074E+03  0.60422280611E+03  0.12235867163E+03 0.  0.
          5    1    3    3  502    0 -0.12541117571E+03  0.10880464419E+01 -0.12833575741E+03  0.17949007178E+03  0.41800000000E+01 0.  1.
         -5    1    3    3    0  502 -0.56114932140E+02 -0.93790142159E+01 -0.26898598805E+03  0.27496869946E+03  0.41800000000E+01 0.  1.
        -11    1    4    4    0    0  0.13865341633E+03 -0.46344149145E+02 -0.32877489665E+03  0.35981312190E+03  0.00000000000E+00 0.  1.
         11    1    4    4    0    0  0.42872691522E+02  0.54635116919E+02 -0.23433529409E+03  0.24440968421E+03  0.00000000000E+00 0. -1.
</event>
<event>
 8    1  0.4798744E-006  0.1101673E+03  0.7561462E-02  0.1260260E+00
          2   -1    0    0  501    0  0.00000000000E+00  0.00000000000E+00  0.11577404787E+03  0.11577404787E+03  0.00000000000E+00 0.  1.
         -2   -1    0    0    0  501 -0.00000000000E+00 -0.00000000000E+00 -0.12244147633E+03  0.12244147633E+03  0.00000000000E+00 0. -1.
         23    2    1    2    0    0 -0.21045878417E+02  0.47640700436E+02 -0.19362959370E+02  0.13687833267E+03  0.12509271930E+03 0.  0.
         23    2    1    2    0    0  0.21045878417E+02 -0.47640700436E+02  0.12695530912E+02  0.10133719153E+03  0.85997003119E+02 0.  0.
          5    1    3    3  502    0  0.52177260817E+02  0.20611348936E+02 -0.16643232620E+02  0.58666547908E+02  0.41800000000E+01 0. -1.
         -5    1    3    3    0  502 -0.73223139234E+02  0.27029351500E+02 -0.27197267506E+01  0.78211784760E+02  0.41800000000E+01 0. -1.
        -11    1    4    4    0    0  0.45766758105E+02 -0.37600871959E+02 -0.16795716399E+02  0.61567181265E+02  0.00000000000E+00 0. -1.
         11    1    4    4    0    0 -0.24720879689E+02 -0.10039828476E+02  0.29491247311E+02  0.39770010263E+02  0.00000000000E+00 0.  1.
</event>
<event>
 8    1  0.4798744E-006  0.1469122E+03  0.7561462E-02  0.1204319E+00
          4   -1    0    0  501    0  0.00000000000E+00  0.00000000000E+00  0.44654840149E+02  0.44654840149E+02  0.00000000000E+00 0. -1.
         -4   -1    0    0    0  501 -0.00000000000E+00 -0.00000000000E+00 -0.64117774778E+03  0.64117774778E+03  0.00000000000E+00 0.  1.
         23    2    1    2    0    0 -0.12050888695E+03  0.10395849302E+02 -0.43073406447E+03  0.46455269556E+03  0.12508759788E+03 0.  0.
         23    2    1    2    0    0  0.12050888695E+03 -0.10395849302E+02 -0.16578884316E+03  0.22127989237E+03  0.82754968024E+02 0.  0.
          5    1    3    3  502    0  0.22282590994E+02 -0.11050888082E+02 -0.33961371977E+02  0.42302283335E+02  0.41800000000E+01 0.  1.
         -5    1    3    3    0  502 -0.14279147794E+03  0.21446737384E+02 -0.39677269249E+03  0.42225041223E+03  0.41800000000E+01 0.  1.
        -11    1    4    4    0    0  0.92553817710E+02 -0.19813416281E+02 -0.61444471197E+02  0.11284592894E+03  0.00000000000E+00 0. -1.
         11    1    4    4    0    0  0.27955069240E+02  0.94175669791E+01 -0.10434437197E+03  0.10843396343E+03  0.00000000000E+00 0.  1.
</event>
<event>
 8    1  0.4798744E-006  0.8461211E+02  0.7561462E-02  0.1316450E+00
         -1   -1    0    0    0  501 -0.00000000000E+00  0.00000000000E+00  0.18334940648E+03  0.18334940648E+03  0.00000000000E+00 0.  1.
          1   -1    0    0  501    0  0.00000000000E+00 -0.00000000000E+00 -0.13781626706E+03  0.13781626706E+03  0.00000000000E+00 0. -1.
         23    2    1    2    0    0  0.37579233544E+02 -0.28228244847E+02  0.13794481519E+03  0.19205819889E+03  0.12509415303E+03 0.  0.
         23    2    1    2    0    0 -0.37579233544E+02  0.28228244847E+02 -0.92411675768E+02  0.12910747465E+03  0.76940168912E+02 0.  0.
          5    1    3    3  502    0 -0.22584231430E+02 -0.30827444742E+01 -0.13710392165E+02  0.26925788310E+02  0.41800000000E+01 0.  1.
         -5    1    3    3    0  502  0.60163464974E+02 -0.25145500373E+02  0.15165520735E+03  0.16513241058E+03  0.41800000000E+01 0.  1.
        -11    1    4    4    0    0 -0.55833177791E+02  0.13989288511E+02 -0.35397562338E+02  0.67572415636E+02  0.00000000000E+00 0.  1.
         11    1    4    4    0    0  0.18253944247E+02  0.14238956336E+02 -0.57014113429E+02  0.61535059017E+02  0.00000000000E+00 0. -1.
</event>
<event>
 8    1  0.4798744E-006  0.1026650E+03  0.7561462E-02  0.1274790E+00
          1   -1    0    0  501    0  0.00000000000E+00  0.00000000000E+00  0.27841773814E+03  0.27841773814E+03  0.00000000000E+00 0. -1.
         -1   -1    0    0    0  501 -0.00000000000E+00 -0.00000000000E+00 -0.76619115009E+02  0.76619115009E+02  0.00000000000E+00 0.  1.
         23    2    1    2    0    0  0.64394890312E+02  0.43418489619E+02  0.37389953412E+02  0.15190979897E+03  0.12508681493E+03 0.  0.
         23    2    1    2    0    0 -0.64394890312E+02 -0.43418489619E+02  0.16440866972E+03  0.20312705418E+03  0.90545691890E+02 0.  0.
          5    1    3    3  502    0  0.67490821093E+02  0.49924468841E+02 -0.25994026623E+02  0.87980823711E+02  0.41800000000E+01 0.  1.
         -5    1    3    3    0  502 -0.30959307811E+01 -0.65059792219E+01  0.63383980035E+02  0.63928975263E+02  0.41800000000E+01 0.  1.
        -11    1    4    4    0    0  0.23911359848E+01 -0.46047323814E+02  0.36497154767E+02  0.58805746894E+02  0.00000000000E+00 0.  1.
         11    1    4    4    0    0 -0.66786026297E+02  0.26288341949E+01  0.12791151495E+03  0.14432130728E+03  0.00000000000E+00 0. -1.
</event>
<event>
 8    1  0.4798744E-006  0.1624376E+03  0.7561462E-02  0.1185972E+00
          4   -1    0    0  501    0  0.00000000000E+00  0.00000000000E+00  0.21509997174E+03  0.21509997174E+03  0.00000000000E+00 0. -1.
         -4   -1    0    0    0  501 -0.00000000000E+00 -0.00000000000E+00 -0.16623064794E+03  0.16623064794E+03  0.00000000000E+00 0.  1.
         23    2    1    2    0    0  0.14755058412E+03  0.20781776866E+02 -0.14650123011E+02  0.19510208547E+03  0.12508853076E+03 0.  0.
         23    2    1    2    0    0 -0.14755058412E+03 -0.20781776866E+02  0.63519446816E+02  0.18622853421E+03  0.91887375127E+02 0.  0.
          5    1    3    3  502    0  0.33897991153E+02  0.47986633532E+02  0.34493520913E+02  0.68257352622E+02  0.41800000000E+01 0. -1.
         -5    1    3    3    0  502  0.11365259296E+03 -0.27204856667E+02 -0.49143643924E+02  0.12684473285E+03  0.41800000000E+01 0. -1.
        -11    1    4    4    0    0 -0.97219485059E+02 -0.12262380771E+02  0.86069846796E+02  0.13042243973E+03  0.00000000000E+00 0. -1.
         11    1    4    4    0    0 -0.50331099057E+02 -0.85193960948E+01 -0.22550399980E+02  0.55806094482E+02  0.00000000000E+00 0.  1.
</event>
<event>
 8    1  0.4798744E-006  0.9587083E+02  0.7561462E-02  0.1289227E+00
         -2   -1    0    0    0  501 -0.00000000000E+00  0.00000000000E+00  0.26225431253E+02  0.26225431253E+02  0.00000000000E+00 0.  1.
          2   -1    0    0  501    0  0.00000000000E+00 -0.00000000000E+00 -0.66014364012E+03  0.66014364012E+03  0.00000000000E+00 0. -1.
         23    2    1    2    0    0 -0.64532033162E+02 -0.41101995021E+02 -0.33402440041E+03  0.36479313847E+03  0.12509187225E+03 0.  0.
         23    2    1    2    0    0  0.64532033162E+02  0.41101995021E+02 -0.29989380846E+03  0.32157593291E+03  0.87298493544E+02 0.  0.
          5    1    3    3  502    0 -0.73471960406E+02 -0.94076659594E+01 -0.32045614624E+03  0.32893197960E+03  0.41800000000E+01 0. -1.
         -5    1    3    3    0  502  0.89399272438E+01 -0.31694329062E+02 -0.13568254176E+02  0.35861158866E+02  0.41800000000E+01 0. -1.
        -11    1    4    4    0    0  0.40302653007E+02  0.46266923842E+01 -0.36511845935E+02  0.54578613169E+02  0.00000000000E+00 0.  1.
         11    1    4    4    0    0  0.24229380155E+02  0.36475302637E+02 -0.26338196252E+03  0.26699731974E+03  0.00000000000E+00 0. -1.
</event>
<event>
 8    1  0.4798744E-006  0.1190973E+03  0.7561462E-02  0.1244594E+00
          1   -1    0    0  501    0  0.00000000000E+00  0.00000000000E+00  0.64300030398E+03  0.64300030398E+03  0.00000000000E+00 0. -1.
         -1   -1    0    0    0  501 -0.00000000000E+00 -0.00000000000E+00 -0.22587634193E+02  0.22587634193E+02  0.00000000000E+00 0.  1.
         23    2    1    2    0    0 -0.63387608622E+02 -0.17176295456E+01  0.34856518590E+03  0.37572059296E+03  0.12508931200E+03 0.  0.
         23    2    1    2    0    0  0.63387608622E+02  0.17176295456E+01  0.27184748389E+03  0.28986734522E+03  0.78109436985E+02 0.  0.
          5    1    3    3  502    0 -0.32493138447E+02 -0.63196759975E+02  0.16905509425E+03  0.18343045497E+03  0.41800000000E+01 0.  1.
         -5    1    3    3    0  502 -0.30894470175E+02  0.61479130430E+02  0.17951009165E+03  0.19229013799E+03  0.41800000000E+01 0.  1.
        -11    1    4    4    0    0  0.80367047097E+02  0.59278275183E+01  0.19386428685E+03  0.20994609574E+03  0.00000000000E+00 0.  1.
         11    1    4    4    0    0 -0.16979438475E+02 -0.42101979727E+01  0.77983197038E+02  0.79921249478E+02  0.00000000000E+00 0. -1.
</event>
<event>
 8    1  0.4798744E-006  0.9268334E+02  0.7561462E-02  0.1296481E+00
         -1   -1    0    0    0  501 -0.00000000000E+00  0.00000000000E+00  0.11385140195E+03  0.11385140195E+03  0.00000000000E+00 0.  1.
          1   -1    0    0  501    0  0.00000000000E+00 -0.00000000000E+00 -0.11892573392E+03  0.11892573392E+03  0.00000000000E+00 0. -1.
         23    2    1    2    0    0  0.36113086635E+02 -0.64597310699E+01  0.18521693992E+02  0.13166439716E+03  0.12508627894E+03 0.  0.
         23    2    1    2    0    0 -0.36113086635E+02  0.64597310699E+01 -0.23596025955E+02  0.10111273871E+03  0.91220229871E+02 0.  0.
          5    1    3    3  502    0 -0.27357171916E+02  0.30593462657E+02 -0.22914711069E+02  0.47190371857E+02  0.41800000000E+01 0.  1.
         -5    1    3    3    0  502  0.63470258551E+02 -0.37053193727E+02  0.41436405061E+02  0.84474025299E+02  0.41800000000E+01 0.  1.
        -11    1    4    4    0    0 -0.31641665252E+02 -0.24000039380E+02 -0.47659953232E+02  0.62037633838E+02  0.00000000000E+00 0. -1.
         11    1    4    4    0    0 -0.44714213829E+01  0.30459770450E+02  0.24063927277E+02  0.39075104876E+02  0.00000000000E+00 0.  1.
</event>
<event>
 7    1  0.4798744E-006  0.1070121E+03  0.7561462E-02  0.1266205E+00
         -2   -1    0    0    0  501 -0.00000000000E+00  0.00000000000E+00  0.19350538940E+03  0.19350538940E+03  0.00000000000E+00 0.  1.
          2   -1    0    0  501    0  0.00000000000E+00 -0.00000000000E+00 -0.12962601576E+03  0.12962601576E+03  0.00000000000E+00 0. -1.
         23    2    1    2    0    0  0.14129624337E+02  0.23189456682E+02 -0.71610097619E+02  0.11884074842E+03  0.90871999097E+02 0.  0.
          5    1    1    2  502    0 -0.64585961098E+02 -0.23130167827E+02  0.10617631751E+02  0.69545363172E+02  0.41800000000E+01 0. -1.
         -5    1    1    2    0  502  0.50456336761E+02 -0.59288854843E-01  0.12487183952E+03  0.13474529357E+03  0.41800000000E+01 0.  1.
        -11    1    3    3    0    0  0.51413315018E+02  0.12985336907E+01 -0.35271330920E+02  0.62362504246E+02  0.00000000000E+00 0.  1.
         11    1    3    3    0    0 -0.37283690682E+02  0.21890922992E+02 -0.36338766700E+02  0.56478244179E+02  0.00000000000E+00 0. -1.
</event>
<event>
 8    1  0.4798744E-006  0.1002976E+03  0.7561462E-02  0.1279671E+00
          2   -1    0    0  501    0  0.00000000000E+00  0.00000000000E+00  0.95217296557E+03  0.95217296557E+03  0.00000000000E+00 0. -1.
         -2   -1    0    0    0  501 -0.00000000000E+00 -0.00000000000E+00 -0.18880268758E+02  0.18880268758E+02  0.00000000000E+00 0.  1.
         23    2    1    2    0    0  0.18856020335E+02  0.60843500630E+02  0.34714431412E+03  0.37445770177E+03  0.12510761175E+03 0.  0.
         23    2    1    2    0    0 -0.18856020335E+02 -0.60843500630E+02  0.58614838269E+03  0.59659553255E+03  0.91097869697E+02 0.  0.
          5    1    3    3  502    0 -0.11258958645E+02 -0.78494682588E+01 -0.43762168404E+01  0.15000065851E+02  0.41800000000E+01 0. -1.
         -5    1    3    3    0  502  0.30114978979E+02  0.68692968889E+02  0.35152053096E+03  0.35945763592E+03  0.41800000000E+01 0. -1.
        -11    1    4    4    0    0  0.35837064905E+02 -0.11982426654E+02  0.20612628221E+03  0.20956125116E+03  0.00000000000E+00 0.  1.
         11    1    4    4    0    0 -0.54693085239E+02 -0.48861073977E+02  0.38002210048E+03  0.38703428140E+03  0.00000000000E+00 0. -1.
</event>
<event>
 8    1  0.4798744E-006  0.8503774E+02  0.7561462E-02  0.1315334E+00
         -3   -1    0    0    0  501 -0.00000000000E+00  0.00000000000E+00  0.35140372786E+03  0.35140372786E+03  0.00000000000E+00 0.  1.
          3   -1    0    0  501    0  0.00000000000E+00 -0.00000000000E+00 -0.36309629843E+02  0.36309629843E+02  0.00000000000E+00 0. -1.
         23    2    1    2    0    0  0.22571665923E+02  0.12614841282E+02  0.20845059098E+03  0.24447497925E+03  0.12509097601E+03 0.  0.
         23    2    1    2    0    0 -0.22571665923E+02 -0.12614841282E+02  0.10664350705E+03  0.14323837845E+03  0.92064005693E+02 0.  0.
          5    1    3    3  502    0  0.46968850374E+02  0.21223822822E+02  0.22007438227E+02  0.56198961716E+02  0.41800000000E+01 0. -1.
         -5    1    3    3    0  502 -0.24397184451E+02 -0.86089815400E+01  0.18644315275E+03  0.18827601754E+03  0.41800000000E+01 0. -1.
        -11    1    4    4    0    0 -0.47510223998E+02  0.19620139362E+02  0.40047442466E+02  0.65161099599E+02  0.00000000000E+00 0.  1.
         11    1    4    4    0    0  0.24938558075E+02 -0.32234980644E+02  0.66596064580E+02  0.78077278855E+02  0.00000000000E+00 0. -1.
</event>
<event>
 8    1  0.4798744E-006  0.8375271E+02  0.7561462E-02  0.1318727E+00
         -2   -1    0    0    0  501 -0.00000000000E+00  0.00000000000E+00  0.52233547154E+02  0.52233547154E+02  0.00000000000E+00 0.  1.
          2   -1    0    0  501    0  0.00000000000E+00 -0.00000000000E+00 -0.35331810216E+03  0.35331810216E+03  0.00000000000E+00 0. -1.
         23    2    1    2    0    0  0.45246355679E+02 -0.66189708908E+02 -0.15929003876E+03  0.21782687982E+03  0.12508766069E+03 0.  0.
         23    2    1    2    0    0 -0.45246355679E+02  0.66189708908E+02 -0.14179451624E+03  0.18772476949E+03  0.93309131259E+02 0.  0.
          5    1    3    3  502    0  0.34024448097E+02 -0.22731175066E+02  0.10255327574E+02  0.42391196396E+02  0.41800000000E+01 0. -1.
         -5    1    3    3    0  502  0.11221907581E+02 -0.43458533842E+02 -0.16954536634E+03  0.17543568343E+03  0.41800000000E+01 0. -1.
        -11    1    4    4    0    0 -0.77876877340E+01  0.22152139104E+02  0.98271707899E+01  0.25454638730E+02  0.00000000000E+00 0.  1.
         11    1    4    4    0    0 -0.37458667945E+02  0.44037569804E+02 -0.15162168703E+03  0.16227013076E+03  0.00000000000E+00 0. -1.
</event>
<event>
 8    1  0.4798744E-006  0.1313797E+03  0.7561462E-02  0.1225423E+00
          2   -1    0    0  501    0  0.00000000000E+00  0.00000000000E+00  0.46848046502E+02  0.46848046502E+02  0.00000000000E+00 0. -1.
         -2   -1    0    0    0  501 -0.00000000000E+00 -0.00000000000E+00 -0.15434411981E+04  0.15434411981E+04  0.00000000000E+00 0.  1.
         23    2    1    2    0    0  0.99477551014E+02  0.37632867061E+01 -0.14311495982E+04  0.14400507830E+04  0.12508852719E+03 0.  0.
         23    2    1    2    0    0 -0.99477551014E+02 -0.37632867061E+01 -0.65443553418E+02  0.15023846165E+03  0.91535737238E+02 0.  0.
          5    1    3    3  502    0 -0.16996535894E+01  0.48821543939E+02 -0.43720397429E+03  0.43994456414E+03  0.41800000000E+01 0. -1.
         -5    1    3    3    0  502  0.10117720460E+03 -0.45058257233E+02 -0.99394562392E+03  0.10001062189E+04  0.41800000000E+01 0. -1.
        -11    1    4    4    0    0 -0.52140519691E+02 -0.14973330022E+02 -0.82458154974E+02  0.98702490988E+02  0.00000000000E+00 0.  1.
         11    1    4    4    0    0 -0.47337031324E+02  0.11210043316E+02  0.17014601557E+02  0.51535970660E+02  0.00000000000E+00 0. -1.
</event>
<event>
 8    1  0.4798744E-006  0.1019387E+03  0.7561462E-02  0.1276271E+00
          1   -1    0    0  501    0  0.00000000000E+00  0.00000000000E+00  0.17798965001E+02  0.17798965001E+02  0.00000000000E+00 0. -1.
         -1   -1    0    0    0  501 -0.00000000000E+00 -0.00000000000E+00 -0.69783716472E+03  0.69783716472E+03  0.00000000000E+00 0.  1.
         23    2    1    2    0    0  0.24813568070E+02  0.88306350063E+01 -0.40313700216E+03  0.42291838580E+03  0.12508727058E+03 0.  0.
         23    2    1    2    0    0 -0.24813568070E+02 -0.88306350063E+01 -0.27690119756E+03  0.29271774392E+03  0.91190521006E+02 0.  0.
          5    1    3    3  502    0  0.64489028525E+02  0.25844363969E+02 -0.14127844630E+03  0.15749234184E+03  0.41800000000E+01 0.  1.
         -5    1    3    3    0  502 -0.39675460455E+02 -0.17013728962E+02 -0.26185855586E+03  0.26542604397E+03  0.41800000000E+01 0.  1.
        -11    1    4    4    0    0 -0.32577065091E+02  0.34169305203E+02 -0.10128551779E+03  0.11174776375E+03  0.00000000000E+00 0.  1.
         11    1    4    4    0    0  0.77634970215E+01 -0.42999940210E+02 -0.17561567977E+03  0.18096998017E+03  0.00000000000E+00 0. -1.
</event>
<event>
 7    1  0.4798744E-006  0.1223144E+03  0.7561462E-02  0.1239327E+00
         -2   -1    0    0    0  501 -0.00000000000E+00  0.00000000000E+00  0.99031051336E+01  0.99031051336E+01  0.00000000000E+00 0.  1.
          2   -1    0    0  501    0  0.00000000000E+00 -0.00000000000E+00 -0.16373423783E+04  0.16373423783E+04  0.00000000000E+00 0. -1.
         23    2    1    2    0    0 -0.44249486512E+02  0.14380217000E+02 -0.48888695965E+03  0.49952024617E+03  0.91352117200E+02 0.  0.
          5    1    1    2  502    0  0.92513426435E+02 -0.13780736010E+01 -0.82558465557E+03  0.83076358194E+03  0.41800000000E+01 0. -1.
         -5    1    1    2    0  502 -0.48263939923E+02 -0.13002143399E+02 -0.31296765792E+03  0.31696165531E+03  0.41800000000E+01 0.  1.
        -11    1    3    3    0    0  0.61706830689E+01 -0.32454171601E+02 -0.18633314286E+03  0.18923897779E+03  0.00000000000E+00 0. -1.
         11    1    3    3    0    0 -0.50420169581E+02  0.46834388601E+02 -0.30255381679E+03  0.31028126838E+03  0.00000000000E+00 0.  1.
</event>
<event>
 8    1  0.4798744E-006  0.1241979E+03  0.7561462E-02  0.1236328E+00
         -3   -1    0    0    0  501 -0.00000000000E+00  0.00000000000E+00  0.72613572995E+03  0.72613572995E+03  0.00000000000E+00 0.  1.
          3   -1    0    0  501    0  0.00000000000E+00 -0.00000000000E+00 -0.97849600777E+02  0.97849600777E+02  0.00000000000E+00 0. -1.
         23    2    1    2    0    0 -0.34086557228E+02  0.11097449638E+03  0.65304949905E+03  0.67498001400E+03  0.12508852406E+03 0.  0.
         23    2    1    2    0    0  0.34086557228E+02 -0.11097449638E+03 -0.24763369881E+02  0.14900531673E+03  0.90067350884E+02 0.  0.
          5    1    3    3  502    0 -0.69746847773E+01  0.10330923471E+03  0.24601281788E+03  0.26694797839E+03  0.41800000000E+01 0. -1.
         -5    1    3    3    0  502 -0.27111872451E+02  0.76652616767E+01  0.40703668117E+03  0.40803203561E+03  0.41800000000E+01 0. -1.
        -11    1    4    4    0    0  0.18189556451E+02 -0.70253979781E+02 -0.58961812979E+02  0.93503887773E+02  0.00000000000E+00 0. -1.
         11    1    4    4    0    0  0.15897000777E+02 -0.40720516601E+02  0.34198443098E+02  0.55501428957E+02  0.00000000000E+00 0.  1.
</event>
<event>
 8    1  0.4798744E-006  0.9117385E+02  0.7561462E-02  0.1300034E+00
         -2   -1    0    0    0  501 -0.00000000000E+00  0.00000000000E+00  0.59084297609E+02  0.59084297609E+02  0.00000000000E+00 0. -1.
          2   -1    0    0  501    0  0.00000000000E+00 -0.00000000000E+00 -0.30085263988E+03  0.30085263988E+03  0.00000000000E+00 0.  1.
         23    2    1    2    0    0 -0.31644335602E+02 -0.24408651790E+02 -0.43546341082E+02  0.13834790940E+03  0.12508682567E+03 0.  0.
         23    2    1    2    0    0  0.31644335602E+02  0.24408651790E+02 -0.19822200119E+03  0.22158902808E+03  0.90623337803E+02 0.  0.
          5    1    3    3  502    0 -0.57249479782E+02  0.24500249554E+01  0.23123047443E+02  0.61932651168E+02  0.41800000000E+01 0. -1.
         -5    1    3    3    0  502  0.25605144180E+02 -0.26858676745E+02 -0.66669388524E+02  0.76415258236E+02  0.41800000000E+01 0. -1.
        -11    1    4    4    0    0 -0.23188050660E+01  0.46808576400E+02 -0.15628155864E+03  0.16315742475E+03  0.00000000000E+00 0.  1.
         11    1    4    4    0    0  0.33963140668E+02 -0.22399924611E+02 -0.41940442548E+02  0.58431603330E+02  0.00000000000E+00 0. -1.
</event>
<event>
 8    1  0.4798744E-006  0.6442108E+02  0.7561462E-02  0.1380162E+00
          1   -1    0    0  501    0  0.00000000000E+00  0.00000000000E+00  0.62164053577E+02  0.62164053577E+02  0.00000000000E+00 0. -1.
         -1   -1    0    0    0  501 -0.00000000000E+00 -0.00000000000E+00 -0.25012805249E+03  0.25012805249E+03  0.00000000000E+00 0.  1.
         23    2    1    2    0    0 -0.19679705163E+02  0.18682247450E+02 -0.17157918160E+03  0.21406470934E+03  0.12509183452E+03 0.  0.
         23    2    1    2    0    0  0.19679705163E+02 -0.18682247450E+02 -0.16384817318E+02  0.98227396726E+02  0.92972265026E+02 0.  0.
          5    1    3    3  502    0 -0.18712180325E+02 -0.39016745671E+01 -0.18593552382E+03  0.18696218916E+03  0.41800000000E+01 0. -1.
         -5    1    3    3    0  502 -0.96752483845E+00  0.22583922017E+02  0.14356342227E+02  0.27102520180E+02  0.41800000000E+01 0. -1.
        -11    1    4    4    0    0 -0.31077976166E+02 -0.17174719369E+02 -0.29066642346E+02  0.45887702986E+02  0.00000000000E+00 0.  1.
         11    1    4    4    0    0  0.50757681330E+02 -0.15075280805E+01  0.12681825028E+02  0.52339693741E+02  0.00000000000E+00 0. -1.
</event>
<event>
 8    1  0.4798744E-006  0.1013857E+03  0.7561462E-02  0.1277409E+00
         -1   -1    0    0    0  501 -0.00000000000E+00  0.00000000000E+00  0.47620320304E+02  0.47620320304E+02  0.00000000000E+00 0. -1.
          1   -1    0    0  501    0  0.00000000000E+00 -0.00000000000E+00 -0.28672691117E+03  0.28672691117E+03  0.00000000000E+00 0.  1.
         23    2    1    2    0    0  0.25611528814E+02 -0.36892789674E+02 -0.12206486323E+03  0.18045743789E+03  0.12509207696E+03 0.  0.
         23    2    1    2    0    0 -0.25611528814E+02  0.36892789674E+02 -0.11704172764E+03  0.15388979358E+03  0.89253987145E+02 0.  0.
          5    1    3    3  502    0  0.74516401409E+02 -0.10421249428E+02 -0.55327378128E+02  0.93487366468E+02  0.41800000000E+01 0.  1.
         -5    1    3    3    0  502 -0.48904872594E+02 -0.26471540246E+02 -0.66737485099E+02  0.86970071426E+02  0.41800000000E+01 0.  1.
        -11    1    4    4    0    0 -0.84764478809E+01 -0.14873251065E+02  0.69202153874E+01  0.18464916651E+02  0.00000000000E+00 0. -1.
         11    1    4    4    0    0 -0.17135080933E+02  0.51766040739E+02 -0.12396194303E+03  0.13542487693E+03  0.00000000000E+00 0.  1.
</event>
<event>
 8    1  0.4798744E-006  0.1057504E+03  0.7561462E-02  0.1268648E+00
          1   -1    0    0  501    0  0.00000000000E+00  0.00000000000E+00  0.68588974683E+02  0.68588974683E+02  0.00000000000E+00 0. -1.
         -1   -1    0    0    0  501 -0.00000000000E+00 -0.00000000000E+00 -0.29100002894E+03  0.29100002894E+03  0.00000000000E+00 0.  1.
         23    2    1    2    0    0 -0.44657797963E+01  0.56265286168E+02 -0.21660064067E+03  0.25641884518E+03  0.12509620701E+03 0.  0.
         23    2    1    2    0    0  0.44657797963E+01 -0.56265286168E+02 -0.58104135854E+01  0.10317015844E+03  0.86166090022E+02 0.  0.
          5    1    3    3  502    0 -0.57690509701E+02  0.13704124652E+02 -0.54991915199E+02  0.80978892801E+02  0.41800000000E+01 0. -1.
         -5    1    3    3    0  502  0.53224729905E+02  0.42561161516E+02 -0.16160872547E+03  0.17543995238E+03  0.41800000000E+01 0. -1.
        -11    1    4    4    0    0  0.33010189497E+02 -0.35541268008E+02 -0.32970891839E+02  0.58650950981E+02  0.00000000000E+00 0.  1.
         11    1    4    4    0    0 -0.28544409701E+02 -0.20724018160E+02  0.27160478253E+02  0.44519207459E+02  0.00000000000E+00 0. -1.
</event>
<event>
 8    1  0.4798744E-006  0.1719537E+03  0.7561462E-02  0.1175826E+00
          1   -1    0    0  501    0  0.00000000000E+00  0.00000000000E+00  0.12715647327E+03  0.12715647327E+03  0.00000000000E+00 0. -1.
         -1   -1    0    0    0  501 -0.00000000000E+00 -0.00000000000E+00 -0.27226490907E+03  0.27226490907E+03  0.00000000000E+00 0.  1.
         23    2    1    2    0    0  0.12100533748E+03 -0.87320547395E+02 -0.96098974503E+02  0.21714018082E+03  0.12509066923E+03 0.  0.
         23    2    1    2    0    0 -0.12100533748E+03  0.87320547395E+02 -0.49009461292E+02  0.18228120153E+03  0.92505888671E+02 0.  0.
          5    1    3    3  502    0  0.44535632723E+01  0.27429560295E+02 -0.28763881904E+02  0.40212539163E+02  0.41800000000E+01 0.  1.
         -5    1    3    3    0  502  0.11655177421E+03 -0.11475010769E+03 -0.67335092600E+02  0.17692764165E+03  0.41800000000E+01 0.  1.
        -11    1    4    4    0    0 -0.76054784189E+02  0.36546498342E+02 -0.71745836908E+02  0.11075848434E+03  0.00000000000E+00 0.  1.
         11    1    4    4    0    0 -0.44950553289E+02  0.50774049053E+02  0.22736375615E+02  0.71522717191E+02  0.00000000000E+00 0. -1.
</event>
<event>
 8    1  0.4798744E-006  0.2035512E+03  0.7561462E-02  0.1146777E+00
          1   -1    0    0  501    0  0.00000000000E+00  0.00000000000E+00  0.22107420553E+03  0.22107420553E+03  0.00000000000E+00 0. -1.
         -1   -1    0    0    0  501 -0.00000000000E+00 -0.00000000000E+00 -0.20798923519E+03  0.20798923519E+03  0.00000000000E+00 0.  1.
         23    2    1    2    0    0 -0.60437591905E+02  0.17043818759E+03 -0.29593525794E+02  0.22186745698E+03  0.12509002115E+03 0.  0.
         23    2    1    2    0    0  0.60437591905E+02 -0.17043818759E+03  0.42678496135E+02  0.20719598374E+03  0.91688839783E+02 0.  0.
          5    1    3    3  502    0 -0.75704297776E+02  0.38344627452E+02  0.25438629238E+01  0.85002322290E+02  0.41800000000E+01 0. -1.
         -5    1    3    3    0  502  0.15266705871E+02  0.13209356014E+03 -0.32137388717E+02  0.13686513469E+03  0.41800000000E+01 0. -1.
        -11    1    4    4    0    0  0.42617562954E+02 -0.43430320106E+02 -0.20524882582E+02  0.64216198748E+02  0.00000000000E+00 0.  1.
         11    1    4    4    0    0  0.17820028951E+02 -0.12700786749E+03  0.63203378717E+02  0.14297978499E+03  0.00000000000E+00 0. -1.
</event>
<event>
 8    1  0.4798744E-006  0.3512684E+03  0.7561462E-02  0.1062096E+00
         -2   -1    0    0    0  501 -0.00000000000E+00  0.00000000000E+00  0.85410460868E+02  0.85410460868E+02  0.00000000000E+00 0. -1.
          2   -1    0    0  501    0  0.00000000000E+00 -0.00000000000E+00 -0.15578287671E+04  0.15578287671E+04  0.00000000000E+00 0.  1.
         23    2    1    2    0    0 -0.26216980662E+03  0.22400820192E+03 -0.62158814100E+03  0.72175524486E+03  0.12508450916E+03 0.  0.
         23    2    1    2    0    0  0.26216980662E+03 -0.22400820192E+03 -0.85083016521E+03  0.92148398308E+03  0.79423416001E+02 0.  0.
          5    1    3    3  502    0 -0.16809276415E+03  0.17771577375E+03 -0.32253292525E+03  0.40482469523E+03  0.41800000000E+01 0.  1.
         -5    1    3    3    0  502 -0.94077042467E+02  0.46292428176E+02 -0.29905521575E+03  0.31693054964E+03  0.41800000000E+01 0.  1.
        -11    1    4    4    0    0  0.12633983349E+03 -0.59607090045E+02 -0.30481107532E+03  0.33529770406E+03  0.00000000000E+00 0.  1.
         11    1    4    4    0    0  0.13582997313E+03 -0.16440111188E+03 -0.54601908989E+03  0.58618627902E+03  0.00000000000E+00 0. -1.
</event>
<event>
 8    1  0.4798744E-006  0.1095732E+03  0.7561462E-02  0.1261362E+00
         -1   -1    0    0    0  501 -0.00000000000E+00  0.00000000000E+00  0.40957200513E+03  0.40957200513E+03  0.00000000000E+00 0.  1.
          1   -1    0    0  501    0  0.00000000000E+00 -0.00000000000E+00 -0.39081020002E+02  0.39081020002E+02  0.00000000000E+00 0. -1.
         23    2    1    2    0    0 -0.40755459732E+02  0.11145187215E+02  0.29144003231E+03  0.31995372221E+03  0.12509144345E+03 0.  0.
         23    2    1    2    0    0  0.40755459732E+02 -0.11145187215E+02  0.79050952811E+02  0.12869930292E+03  0.92353856097E+02 0.  0.
          5    1    3    3  502    0  0.17153961504E+02 -0.38649377986E+02  0.44888299441E+02  0.61809907302E+02  0.41800000000E+01 0.  1.
         -5    1    3    3    0  502 -0.57909421236E+02  0.49794565201E+02  0.24655173287E+03  0.25814381491E+03  0.41800000000E+01 0.  1.
        -11    1    4    4    0    0  0.69641330870E+02 -0.14347932404E+02  0.65332157024E+02  0.96561218255E+02  0.00000000000E+00 0.  1.
         11    1    4    4    0    0 -0.28885871137E+02  0.32027451891E+01  0.13718795787E+02  0.32138084665E+02  0.00000000000E+00 0. -1.
</event>
<event>
 8    1  0.4798744E-006  0.9464150E+02  0.7561462E-02  0.1291986E+00
          3   -1    0    0  501    0  0.00000000000E+00  0.00000000000E+00  0.90575771532E+02  0.90575771532E+02  0.00000000000E+00 0. -1.
         -3   -1    0    0    0  501 -0.00000000000E+00 -0.00000000000E+00 -0.19655491565E+03  0.19655491565E+03  0.00000000000E+00 0.  1.
         23    2    1    2    0    0  0.20760799067E+01  0.77172596009E+02 -0.51615558162E+02  0.15579170832E+03  0.12508785254E+03 0.  0.
         23    2    1    2    0    0 -0.20760799067E+01 -0.77172596009E+02 -0.54363585952E+02  0.13133897886E+03  0.91294075424E+02 0.  0.
          5    1    3    3  502    0  0.10014571678E+02 -0.11639466252E+02 -0.63750407100E+02  0.65706587387E+02  0.41800000000E+01 0.  1.
         -5    1    3    3    0  502 -0.79384917717E+01  0.88812062261E+02  0.12134848938E+02  0.90085120932E+02  0.41800000000E+01 0.  1.
        -11    1    4    4    0    0 -0.17547768181E+02 -0.47572463343E+02 -0.76131665900E+02  0.91471820739E+02  0.00000000000E+00 0.  1.
         11    1    4    4    0    0  0.15471688274E+02 -0.29600132666E+02  0.21768079948E+02  0.39867158120E+02  0.00000000000E+00 0. -1.
</event>
<event>
 8    1  0.4798744E-006  0.1182912E+03  0.7561462E-02  0.1245943E+00
         -3   -1    0    0    0  501 -0.00000000000E+00  0.00000000000E+00  0.13893137061E+03  0.13893137061E+03  0.00000000000E+00 0.  1.
          3   -1    0    0  501    0  0.00000000000E+00 -0.00000000000E+00 -0.12392026354E+03  0.12392026354E+03  0.00000000000E+00 0. -1.
         23    2    1    2    0    0  0.20081125003E+02  0.49686073340E+02  0.30525682800E+02  0.13946781203E+03  0.12508995090E+03 0.  0.
         23    2    1    2    0    0 -0.20081125003E+02 -0.49686073340E+02 -0.15514575733E+02  0.12338382212E+03  0.11004957081E+03 0.  0.
          5    1    3    3  502    0  0.22441451343E+02  0.84050765244E+02  0.49233241690E+02  0.10004766046E+03  0.41800000000E+01 0.  1.
         -5    1    3    3    0  502 -0.23603263402E+01 -0.34364691904E+02 -0.18707558890E+02  0.39420151569E+02  0.41800000000E+01 0.  1.
        -11    1    4    4    0    0 -0.39788752394E+02  0.18450989642E+02  0.14742323066E+02  0.46270075916E+02  0.00000000000E+00 0.  1.
         11    1    4    4    0    0  0.19707627391E+02 -0.68137062982E+02 -0.30256898799E+02  0.77113746207E+02  0.00000000000E+00 0. -1.
</event>
<event>
 8    1  0.4798744E-006  0.1295486E+03  0.7561462E-02  0.1228127E+00
          1   -1    0    0  501    0  0.00000000000E+00  0.00000000000E+00  0.47489761711E+03  0.47489761711E+03  0.00000000000E+00 0. -1.
         -1   -1    0    0    0  501 -0.00000000000E+00 -0.00000000000E+00 -0.43428715988E+02  0.43428715988E+02  0.00000000000E+00 0.  1.
         23    2    1    2    0    0  0.12989525888E+02  0.85564972608E+02  0.16281353144E+03  0.22281764891E+03  0.12509742734E+03 0.  0.
         23    2    1    2    0    0 -0.12989525888E+02 -0.85564972608E+02  0.26865536969E+03  0.29550868419E+03  0.87519040495E+02 0.  0.
          5    1    3    3  502    0  0.60826955722E+02  0.79753446000E+02  0.86757236459E+02  0.13268316084E+03  0.41800000000E+01 0.  1.
         -5    1    3    3    0  502 -0.47837429834E+02  0.58115266083E+01  0.76056294976E+02  0.90134488073E+02  0.41800000000E+01 0.  1.
        -11    1    4    4    0    0 -0.15600841229E+01 -0.95307083769E+02  0.26251332156E+03  0.27928322197E+03  0.00000000000E+00 0. -1.
         11    1    4    4    0    0 -0.11429441765E+02  0.97421111613E+01  0.61420481277E+01  0.16225462217E+02  0.00000000000E+00 0.  1.
</event>
<event>
 8    1  0.4798744E-006  0.7754882E+02  0.7561462E-02  0.1336155E+00
         -2   -1    0    0    0  501 -0.00000000000E+00  0.00000000000E+00  0.36321804791E+02  0.36321804791E+02  0.00000000000E+00 0.  1.
          2   -1    0    0  501    0  0.00000000000E+00 -0.00000000000E+00 -0.42114279353E+03  0.42114279353E+03  0.00000000000E+00 0. -1.
         23    2    1    2    0    0 -0.46139065236E+02  0.16116931136E+01 -0.14457797563E+03  0.19667564173E+03  0.12508839321E+03 0.  0.
         23    2    1    2    0    0  0.46139065236E+02 -0.16116931136E+01 -0.24024301311E+03  0.26078895659E+03  0.90348014028E+02 0.  0.
          5    1    3    3  502    0 -0.10416619860E+02 -0.14322786679E+02  0.20246380471E+02  0.27221985779E+02  0.41800000000E+01 0.  1.
         -5    1    3    3    0  502 -0.35722445376E+02  0.15934479792E+02 -0.16482435611E+03  0.16945365595E+03  0.41800000000E+01 0.  1.
        -11    1    4    4    0    0  0.41186293366E+02 -0.40852610825E+02 -0.17633088960E+03  0.18562820152E+03  0.00000000000E+00 0. -1.
         11    1    4    4    0    0  0.49527718701E+01  0.39240917712E+02 -0.63912123510E+02  0.75160755076E+02  0.00000000000E+00 0.  1.
</event>
<event>
 8    1  0.4798744E-006  0.1098367E+03  0.7561462E-02  0.1260873E+00
         -1   -1    0    0    0  501 -0.00000000000E+00  0.00000000000E+00  0.61867154183E+02  0.61867154183E+02  0.00000000000E+00 0.  1.
          1   -1    0    0  501    0  0.00000000000E+00 -0.00000000000E+00 -0.35448588506E+03  0.35448588506E+03  0.00000000000E+00 0. -1.
         23    2    1    2    0    0  0.97398273426E+02  0.22440581338E+02 -0.14726136635E+03  0.21753834324E+03  0.12508803862E+03 0.  0.
         23    2    1    2    0    0 -0.97398273426E+02 -0.22440581338E+02 -0.14535736453E+03  0.19881469600E+03  0.91697963805E+02 0.  0.
          5    1    3    3  502    0  0.76148494659E+02  0.50418461202E+01 -0.95162040800E+01  0.77019763641E+02  0.41800000000E+01 0.  1.
         -5    1    3    3    0  502  0.21249778767E+02  0.17398735218E+02 -0.13774516227E+03  0.14051857960E+03  0.41800000000E+01 0.  1.
        -11    1    4    4    0    0 -0.55433802580E+02 -0.41624824460E+02 -0.31852700931E+02  0.76289757087E+02  0.00000000000E+00 0.  1.
         11    1    4    4    0    0 -0.41964470846E+02  0.19184243121E+02 -0.11350466359E+03  0.12252493891E+03  0.00000000000E+00 0. -1.
</event>
<event>
 8    1  0.4798744E-006  0.9995013E+02  0.7561462E-02  0.1280401E+00
          3   -1    0    0  501    0  0.00000000000E+00  0.00000000000E+00  0.60733156901E+03  0.60733156901E+03  0.00000000000E+00 0. -1.
         -3   -1    0    0    0  501 -0.00000000000E+00 -0.00000000000E+00 -0.27054518244E+02  0.27054518244E+02  0.00000000000E+00 0.  1.
         23    2    1    2    0    0  0.23638606603E+02 -0.37542191092E+02  0.18894155174E+03  0.23090098919E+03  0.12509259371E+03 0.  0.
         23    2    1    2    0    0 -0.23638606603E+02  0.37542191092E+02  0.39133549902E+03  0.40348509806E+03  0.87684387014E+02 0.  0.
          5    1    3    3  502    0  0.60792700348E+02 -0.23147804192E+02  0.17771733257E+03  0.18929473302E+03  0.41800000000E+01 0.  1.
         -5    1    3    3    0  502 -0.37154093745E+02 -0.14394386900E+02  0.11224219168E+02  0.41606256167E+02  0.41800000000E+01 0.  1.
        -11    1    4    4    0    0 -0.36036659340E+02 -0.16191071054E+02  0.11213709523E+03  0.11889289182E+03  0.00000000000E+00 0.  1.
         11    1    4    4    0    0  0.12398052738E+02  0.53733262145E+02  0.27919840379E+03  0.28459220624E+03  0.00000000000E+00 0. -1.
</event>
<event>
 8    1  0.4798744E-006  0.9478033E+02  0.7561462E-02  0.1291672E+00
          2   -1    0    0  501    0  0.00000000000E+00  0.00000000000E+00  0.30287169341E+03  0.30287169341E+03  0.00000000000E+00 0. -1.
         -2   -1    0    0    0  501 -0.00000000000E+00 -0.00000000000E+00 -0.53137404853E+02  0.53137404853E+02  0.00000000000E+00 0.  1.
         23    2    1    2    0    0  0.63798940508E+02 -0.18174085447E+02  0.14049211131E+03  0.19946282746E+03  0.12508710568E+03 0.  0.
         23    2    1    2    0    0 -0.63798940508E+02  0.18174085447E+02  0.10924217725E+03  0.15654627080E+03  0.90400660505E+02 0.  0.
          5    1    3    3  502    0  0.38143108987E+02  0.12053409384E+02  0.15258903543E+03  0.15780072108E+03  0.41800000000E+01 0. -1.
         -5    1    3    3    0  502  0.25655831521E+02 -0.30227494831E+02 -0.12096924120E+02  0.41662106379E+02  0.41800000000E+01 0. -1.
        -11    1    4    4    0    0 -0.64995656888E+02  0.47260954345E+02  0.94056838225E+02  0.12371225500E+03  0.00000000000E+00 0.  1.
         11    1    4    4    0    0  0.11967163797E+01 -0.29086868898E+02  0.15185339021E+02  0.32834015800E+02  0.00000000000E+00 0. -1.
</event>
<event>
 8    1  0.4798744E-006  0.1216193E+03  0.7561462E-02  0.1240449E+00
         -2   -1    0    0    0  501 -0.00000000000E+00  0.00000000000E+00  0.81022996151E+02  0.81022996151E+02  0.00000000000E+00 0.  1.
          2   -1    0    0  501    0  0.00000000000E+00 -0.00000000000E+00 -0.22398793552E+03  0.22398793552E+03  0.00000000000E+00 0. -1.
         23    2    1    2    0    0 -0.77142735685E+02 -0.12910386549E+02 -0.58328634528E+02  0.15864124759E+03  0.12508851299E+03 0.  0.
         23    2    1    2    0    0  0.77142735685E+02  0.12910386549E+02 -0.84636304838E+02  0.14636968407E+03  0.90239129925E+02 0.  0.
          5    1    3    3  502    0 -0.17815539987E+01 -0.43728087625E+02 -0.63180105085E+02  0.76970888396E+02  0.41800000000E+01 0.  1.
         -5    1    3    3    0  502 -0.75361181686E+02  0.30817701076E+02  0.48514705569E+01  0.81670359197E+02  0.41800000000E+01 0.  1.
        -11    1    4    4    0    0  0.15910630201E+02  0.45629069548E+02 -0.46948131943E+02  0.67374232717E+02  0.00000000000E+00 0.  1.
         11    1    4    4    0    0  0.61232105484E+02 -0.32718682999E+02 -0.37688172894E+02  0.78995451358E+02  0.00000000000E+00 0. -1.
</event>
<event>
 7    1  0.4798744E-006  0.7796245E+02  0.7561462E-02  0.1334935E+00
         -3   -1    0    0    0  501 -0.00000000000E+00  0.00000000000E+00  0.31458860182E+03  0.31458860182E+03  0.00000000000E+00 0.  1.
          3   -1    0    0  501    0  0.00000000000E+00 -0.00000000000E+00 -0.57547121402E+02  0.57547121402E+02  0.00000000000E+00 0. -1.
         23    2    1    2    0    0 -0.55264780527E+02 -0.12293404702E+02  0.51509191437E+02  0.11906459526E+03  0.91202287665E+02 0.  0.
          5    1    1    2  502    0  0.40286218720E+02  0.66793811246E+01 -0.54785869547E+01  0.41413534816E+02  0.41800000000E+01 0. -1.
         -5    1    1    2    0  502  0.14978561807E+02  0.56140235771E+01  0.21101087594E+03  0.21165759315E+03  0.41800000000E+01 0.  1.
        -11    1    3    3    0    0 -0.61124134823E+02 -0.38001928325E+02  0.14173422517E+02  0.73356610610E+02  0.00000000000E+00 0.  1.
         11    1    3    3    0    0  0.58593542962E+01  0.25708523623E+02  0.37335768920E+02  0.45707984647E+02  0.00000000000E+00 0. -1.
</event>
<event>
 8    1  0.4798744E-006  0.8881270E+02  0.7561462E-02  0.1305753E+00
         -2   -1    0    0    0  501 -0.00000000000E+00  0.00000000000E+00  0.16167090203E+02  0.16167090203E+02  0.00000000000E+00 0.  1.
          2   -1    0    0  501    0  0.00000000000E+00 -0.00000000000E+00 -0.99353740821E+03  0.99353740821E+03  0.00000000000E+00 0. -1.
         23    2    1    2    0    0 -0.46534410782E+02 -0.45479987723E+02 -0.51674059386E+03  0.53563222551E+03  0.12508860456E+03 0.  0.
         23    2    1    2    0    0  0.46534410782E+02  0.45479987723E+02 -0.46062972414E+03  0.47407227290E+03  0.91273744848E+02 0.  0.
          5    1    3    3  502    0 -0.83722082924E+01 -0.36065788715E+02 -0.31518919306E+02  0.48803172659E+02  0.41800000000E+01 0.  1.
         -5    1    3    3    0  502 -0.38162202490E+02 -0.94141990081E+01 -0.48522167456E+03  0.48682905285E+03  0.41800000000E+01 0.  1.
        -11    1    4    4    0    0  0.28170781905E+02 -0.18877782536E+02 -0.70360595165E+02  0.78106190399E+02  0.00000000000E+00 0.  1.
         11    1    4    4    0    0  0.18363628877E+02  0.64357770259E+02 -0.39026912898E+03  0.39596608250E+03  0.00000000000E+00 0. -1.
</event>
<event>
 8    1  0.4798744E-006  0.1680476E+03  0.7561462E-02  0.1179899E+00
          2   -1    0    0  501    0  0.00000000000E+00  0.00000000000E+00  0.17086332431E+03  0.17086332431E+03  0.00000000000E+00 0. -1.
         -2   -1    0    0    0  501 -0.00000000000E+00 -0.00000000000E+00 -0.20383688517E+03  0.20383688517E+03  0.00000000000E+00 0.  1.
         23    2    1    2    0    0 -0.75463185391E+02 -0.11965690343E+03 -0.71147821098E+02  0.20179758100E+03  0.12509110425E+03 0.  0.
         23    2    1    2    0    0  0.75463185391E+02  0.11965690343E+03  0.38174260239E+02  0.17290262848E+03  0.91790946726E+02 0.  0.
          5    1    3    3  502    0 -0.45926407145E+02 -0.13238558802E+03 -0.20534048879E+02  0.14168379707E+03  0.41800000000E+01 0. -1.
         -5    1    3    3    0  502 -0.29536778246E+02  0.12728684586E+02 -0.50613772219E+02  0.60113783932E+02  0.41800000000E+01 0. -1.
        -11    1    4    4    0    0 -0.14961530166E+02  0.40934501677E+02 -0.82138604210E+01  0.44350291041E+02  0.00000000000E+00 0.  1.
         11    1    4    4    0    0  0.90424715556E+02  0.78722401754E+02  0.46388120660E+02  0.12855233743E+03  0.00000000000E+00 0. -1.
</event>
<event>
 8    1  0.4798744E-006  0.8371897E+02  0.7561462E-02  0.1318817E+00
          3   -1    0    0  501    0  0.00000000000E+00  0.00000000000E+00  0.93367874875E+02  0.93367874875E+02  0.00000000000E+00 0. -1.
         -3   -1    0    0    0  501 -0.00000000000E+00 -0.00000000000E+00 -0.39217832529E+03  0.39217832529E+03  0.00000000000E+00 0.  1.
         23    2    1    2    0    0 -0.33071671243E+02 -0.10879211605E+02 -0.35563149929E+03  0.37552231131E+03  0.11546060073E+03 0.  0.
         23    2    1    2    0    0  0.33071671243E+02  0.10879211605E+02  0.56821048868E+02  0.11002388886E+03  0.87547312020E+02 0.  0.
          5    1    3    3  502    0  0.62972922915E+01  0.43499623265E+02 -0.21685265243E+03  0.22130164568E+03  0.41800000000E+01 0. -1.
         -5    1    3    3    0  502 -0.39368963535E+02 -0.54378834870E+02 -0.13877884686E+03  0.15422066563E+03  0.41800000000E+01 0.  1.
        -11    1    4    4    0    0  0.25460924852E+01 -0.15481946060E+02 -0.18698350344E+02  0.24409046403E+02  0.00000000000E+00 0.  1.
         11    1    4    4    0    0  0.30525578758E+02  0.26361157665E+02  0.75519399212E+02  0.85614842459E+02  0.00000000000E+00 0. -1.
</event>
<event>
 8    1  0.4798744E-006  0.9595554E+02  0.7561462E-02  0.1289038E+00
          3   -1    0    0  501    0  0.00000000000E+00  0.00000000000E+00  0.63652284647E+02  0.63652284647E+02  0.00000000000E+00 0. -1.
         -3   -1    0    0    0  501 -0.00000000000E+00 -0.00000000000E+00 -0.29588356319E+03  0.29588356319E+03  0.00000000000E+00 0.  1.
         23    2    1    2    0    0  0.74495595908E+02 -0.12338337443E+02 -0.17599162070E+03  0.22874099843E+03  0.12509022913E+03 0.  0.
         23    2    1    2    0    0 -0.74495595908E+02  0.12338337443E+02 -0.56239657845E+02  0.13079484941E+03  0.90788573830E+02 0.  0.
          5    1    3    3  502    0 -0.29142515470E+01 -0.22841728324E+02  0.11136947132E+02  0.25917974580E+02  0.41800000000E+01 0.  1.
         -5    1    3    3    0  502  0.77409847455E+02  0.10503390882E+02 -0.18712856783E+03  0.20282302385E+03  0.41800000000E+01 0.  1.
        -11    1    4    4    0    0 -0.61119541132E+02 -0.12204124555E+02 -0.74708889836E+02  0.97293150760E+02  0.00000000000E+00 0.  1.
         11    1    4    4    0    0 -0.13376054776E+02  0.24542461998E+02  0.18469231992E+02  0.33501698653E+02  0.00000000000E+00 0. -1.
</event>
<event>
 8    1  0.4798744E-006  0.9466934E+02  0.7561462E-02  0.1291923E+00
         -3   -1    0    0    0  501 -0.00000000000E+00  0.00000000000E+00  0.21259433668E+03  0.21259433668E+03  0.00000000000E+00 0.  1.
          3   -1    0    0  501    0  0.00000000000E+00 -0.00000000000E+00 -0.59585472634E+02  0.59585472634E+02  0.00000000000E+00 0. -1.
         23    2    1    2    0    0 -0.65018824338E+01  0.19914315527E+02  0.10805260252E+03  0.16662818693E+03  0.12510289097E+03 0.  0.
         23    2    1    2    0    0  0.65018824338E+01 -0.19914315527E+02  0.44956261522E+02  0.10555162238E+03  0.93173092142E+02 0.  0.
          5    1    3    3  502    0 -0.53020089849E+02  0.18574255296E+02  0.89210049523E+01  0.57036739184E+02  0.41800000000E+01 0.  1.
         -5    1    3    3    0  502  0.46518207415E+02  0.13400602315E+01  0.99131597567E+02  0.10959144774E+03  0.41800000000E+01 0.  1.
        -11    1    4    4    0    0 -0.30170955958E+02  0.16677123075E+02  0.41040846802E+02  0.53598172764E+02  0.00000000000E+00 0.  1.
         11    1    4    4    0    0  0.36672838392E+02 -0.36591438602E+02  0.39154147198E+01  0.51953449617E+02  0.00000000000E+00 0. -1.
</event>
<event>
 8    1  0.4798744E-006  0.1082656E+03  0.7561462E-02  0.1263816E+00
          1   -1    0    0  501    0  0.00000000000E+00  0.00000000000E+00  0.92504672029E+02  0.92504672029E+02  0.00000000000E+00 0. -1.
         -1   -1    0    0    0  501 -0.00000000000E+00 -0.00000000000E+00 -0.15314247520E+03  0.15314247520E+03  0.00000000000E+00 0.  1.
         23    2    1    2    0    0 -0.43893987156E+02 -0.12221155969E+02 -0.29198202629E+02  0.13629369397E+03  0.12508955679E+03 0.  0.
         23    2    1    2    0    0  0.43893987156E+02  0.12221155969E+02 -0.31439600538E+02  0.10935345326E+03  0.94306365085E+02 0.  0.
          5    1    3    3  502    0 -0.65682694220E+02  0.37237969843E+02 -0.20010750861E+01  0.75646278292E+02  0.41800000000E+01 0.  1.
         -5    1    3    3    0  502  0.21788707063E+02 -0.49459125812E+02 -0.27197127543E+02  0.60647415676E+02  0.41800000000E+01 0.  1.
        -11    1    4    4    0    0  0.20762670795E+02  0.43265606418E+02 -0.47424095692E+02  0.67468852440E+02  0.00000000000E+00 0.  1.
         11    1    4    4    0    0  0.23131316361E+02 -0.31044450450E+02  0.15984495154E+02  0.41884600818E+02  0.00000000000E+00 0. -1.
</event>
<event>
 8    1  0.4798744E-006  0.1214259E+03  0.7561462E-02  0.1240763E+00
          2   -1    0    0  501    0  0.00000000000E+00  0.00000000000E+00  0.25768844712E+02  0.25768844712E+02  0.00000000000E+00 0. -1.
         -2   -1    0    0    0  501 -0.00000000000E+00 -0.00000000000E+00 -0.67072551113E+03  0.67072551113E+03  0.00000000000E+00 0.  1.
         23    2    1    2    0    0 -0.40404207925E+02 -0.40693231420E+02 -0.47616423069E+03  0.49565472761E+03  0.12511113183E+03 0.  0.
         23    2    1    2    0    0  0.40404207925E+02  0.40693231420E+02 -0.16879243572E+03  0.20083962823E+03  0.92505301521E+02 0.  0.
          5    1    3    3  502    0  0.37447299216E+02 -0.42204786619E+02 -0.25331787439E+03  0.25955916882E+03  0.41800000000E+01 0. -1.
         -5    1    3    3    0  502 -0.77851507140E+02  0.15115551995E+01 -0.22284635630E+03  0.23609555878E+03  0.41800000000E+01 0. -1.
        -11    1    4    4    0    0  0.65454164556E+01 -0.29577660679E+02 -0.56580641070E+02  0.64179821063E+02  0.00000000000E+00 0.  1.
         11    1    4    4    0    0  0.33858791469E+02  0.70270892099E+02 -0.11221179465E+03  0.13665980717E+03  0.00000000000E+00 0. -1.
</event>
<event>
 8    1  0.4798744E-006  0.5447592E+02  0.7561462E-02  0.1422594E+00
          2   -1    0    0  501    0  0.00000000000E+00  0.00000000000E+00  0.18424591962E+03  0.18424591962E+03  0.00000000000E+00 0. -1.
         -2   -1    0    0    0  501 -0.00000000000E+00 -0.00000000000E+00 -0.88088723953E+02  0.88088723953E+02  0.00000000000E+00 0.  1.
         23    2    1    2    0    0  0.13677173303E+02  0.27858328409E+02 -0.10841740715E+02  0.12934161870E+03  0.12509420232E+03 0.  0.
         23    2    1    2    0    0 -0.13677173303E+02 -0.27858328409E+02  0.10699893639E+03  0.14299302488E+03  0.89638614698E+02 0.  0.
          5    1    3    3  502    0  0.10541036693E+02 -0.92630482407E+01 -0.63240759555E+02  0.64913662556E+02  0.41800000000E+01 0.  1.
         -5    1    3    3    0  502  0.31361366093E+01  0.37121376650E+02  0.52399018840E+02  0.64427956142E+02  0.41800000000E+01 0.  1.
        -11    1    4    4    0    0 -0.31275866741E+02 -0.13315386507E+02  0.41856390000E+00  0.33994919532E+02  0.00000000000E+00 0.  1.
         11    1    4    4    0    0  0.17598693439E+02 -0.14542941902E+02  0.10658037249E+03  0.10899810535E+03  0.00000000000E+00 0. -1.
</event>
<event>
 8    1  0.4798744E-006  0.1418281E+03  0.7561462E-02  0.1210890E+00
         -2   -1    0    0    0  501 -0.00000000000E+00  0.00000000000E+00  0.23066767535E+03  0.23066767535E+03  0.00000000000E+00 0.  1.
          2   -1    0    0  501    0  0.00000000000E+00 -0.00000000000E+00 -0.99535903785E+02  0.99535903785E+02  0.00000000000E+00 0. -1.
         23    2    1    2    0    0 -0.27963031001E+01  0.10638939854E+03  0.75986180808E+02  0.18193656024E+03  0.12649303872E+03 0.  0.
         23    2    1    2    0    0  0.27963031001E+01 -0.10638939854E+03  0.55145590753E+02  0.14826701889E+03  0.87267114541E+02 0.  0.
          5    1    3    3  502    0  0.47648819059E+02  0.36853268474E+02 -0.89686933808E+01  0.61044927847E+02  0.41800000000E+01 0. -1.
         -5    1    3    3    0  502 -0.50445122159E+02  0.69536130062E+02  0.84954874189E+02  0.12089163239E+03  0.41800000000E+01 0.  1.
        -11    1    4    4    0    0 -0.35842345504E+02 -0.86874913014E+02  0.32685637626E+02  0.99500126379E+02  0.00000000000E+00 0. -1.
         11    1    4    4    0    0  0.38638648604E+02 -0.19514485522E+02  0.22459953127E+02  0.48766892515E+02  0.00000000000E+00 0.  1.
</event>
<event>
 8    1  0.4798744E-006  0.1296847E+03  0.7561462E-02  0.1227924E+00
         -2   -1    0    0    0  501 -0.00000000000E+00  0.00000000000E+00  0.23700460071E+03  0.23700460071E+03  0.00000000000E+00 0.  1.
          2   -1    0    0  501    0  0.00000000000E+00 -0.00000000000E+00 -0.13878897571E+03  0.13878897571E+03  0.00000000000E+00 0. -1.
         23    2    1    2    0    0 -0.45612514391E+02 -0.89570163241E+02  0.16010575026E+03  0.22668151267E+03  0.12508933331E+03 0.  0.
         23    2    1    2    0    0  0.45612514391E+02  0.89570163241E+02 -0.61890125253E+02  0.14911206375E+03  0.91108201273E+02 0.  0.
          5    1    3    3  502    0 -0.86831293856E+02 -0.56008749820E+02  0.81350624277E+02  0.13157526409E+03  0.41800000000E+01 0. -1.
         -5    1    3    3    0  502  0.41218779465E+02 -0.33561413421E+02  0.78755125984E+02  0.95106248587E+02  0.41800000000E+01 0. -1.
        -11    1    4    4    0    0  0.44518992665E+00  0.18015783946E+02  0.23021832360E+02  0.29236474317E+02  0.00000000000E+00 0.  1.
         11    1    4    4    0    0  0.45167324464E+02  0.71554379295E+02 -0.84911957614E+02  0.11987558943E+03  0.00000000000E+00 0. -1.
</event>
<event>
 8    1  0.4798744E-006  0.1249062E+03  0.7561462E-02  0.1235216E+00
         -1   -1    0    0    0  501 -0.00000000000E+00  0.00000000000E+00  0.72349717691E+02  0.72349717691E+02  0.00000000000E+00 0.  1.
          1   -1    0    0  501    0  0.00000000000E+00 -0.00000000000E+00 -0.26148525713E+03  0.26148525713E+03  0.00000000000E+00 0. -1.
         23    2    1    2    0    0 -0.31933161306E+02  0.65736514604E+02 -0.53394175663E+02  0.15437930143E+03  0.12506404188E+03 0.  0.
         23    2    1    2    0    0  0.31933161306E+02 -0.65736514604E+02 -0.13574136377E+03  0.17945567339E+03  0.91856435434E+02 0.  0.
          5    1    3    3  502    0 -0.59862760060E+02  0.87738332450E+02 -0.52532239216E+02  0.11856927756E+03  0.41800000000E+01 0.  1.
         -5    1    3    3    0  502  0.27929598754E+02 -0.22001817846E+02 -0.86193644709E+00  0.35810023870E+02  0.41800000000E+01 0.  1.
        -11    1    4    4    0    0  0.33876324191E+02  0.72995605360E+01 -0.13797499927E+02  0.37299596901E+02  0.00000000000E+00 0.  1.
         11    1    4    4    0    0 -0.19431628857E+01 -0.73036075140E+02 -0.12194386384E+03  0.14215607649E+03  0.00000000000E+00 0. -1.
</event>
<event>
 8    1  0.4798744E-006  0.1112396E+03  0.7561462E-02  0.1258291E+00
          1   -1    0    0  501    0  0.00000000000E+00  0.00000000000E+00  0.27806638557E+03  0.27806638557E+03  0.00000000000E+00 0. -1.
         -1   -1    0    0    0  501 -0.00000000000E+00 -0.00000000000E+00 -0.47385816578E+02  0.47385816578E+02  0.00000000000E+00 0.  1.
         23    2    1    2    0    0  0.33845018969E+02  0.18368791363E+02  0.12177852068E+03  0.17877429838E+03  0.12508934350E+03 0.  0.
         23    2    1    2    0    0 -0.33845018969E+02 -0.18368791363E+02  0.10890204831E+03  0.14667790377E+03  0.90398304866E+02 0.  0.
          5    1    3    3  502    0  0.49156852430E+02  0.61183980824E+02  0.48262213342E+02  0.92231173075E+02  0.41800000000E+01 0.  1.
         -5    1    3    3    0  502 -0.15311833461E+02 -0.42815189460E+02  0.73516307340E+02  0.86543125304E+02  0.41800000000E+01 0.  1.
        -11    1    4    4    0    0 -0.19606201506E+02  0.36555068778E+02  0.43983147024E+02  0.60458195582E+02  0.00000000000E+00 0.  1.
         11    1    4    4    0    0 -0.14238817462E+02 -0.54923860142E+02  0.64918901285E+02  0.86219708186E+02  0.00000000000E+00 0. -1.
</event>
<event>
 8    1  0.4798744E-006  0.9110883E+02  0.7561462E-02  0.1300189E+00
          2   -1    0    0  501    0  0.00000000000E+00  0.00000000000E+00  0.29770790948E+03  0.29770790948E+03  0.00000000000E+00 0. -1.
         -2   -1    0    0    0  501 -0.00000000000E+00 -0.00000000000E+00 -0.69417262530E+02  0.69417262530E+02  0.00000000000E+00 0.  1.
         23    2    1    2    0    0 -0.27740754013E+02 -0.33612143821E+02  0.19150019976E+02  0.13386531622E+03  0.12511544260E+03 0.  0.
         23    2    1    2    0    0  0.27740754013E+02  0.33612143821E+02  0.20914062698E+03  0.23325985579E+03  0.93653792379E+02 0.  0.
          5    1    3    3  502    0  0.10795181261E+02  0.28005643630E+02  0.47001183596E+02  0.55923480516E+02  0.41800000000E+01 0. -1.
         -5    1    3    3    0  502 -0.38535935275E+02 -0.61617787451E+02 -0.27851163620E+02  0.77941835704E+02  0.41800000000E+01 0. -1.
        -11    1    4    4    0    0  0.17119230807E+02  0.53717458026E+02  0.20155132986E+03  0.20928825082E+03  0.00000000000E+00 0. -1.
         11    1    4    4    0    0  0.10621523206E+02 -0.20105314205E+02  0.75892971131E+01  0.23971604977E+02  0.00000000000E+00 0.  1.
</event>
<event>
 8    1  0.4798744E-006  0.2546500E+03  0.7561462E-02  0.1110401E+00
          2   -1    0    0  501    0  0.00000000000E+00  0.00000000000E+00  0.34124325822E+03  0.34124325822E+03  0.00000000000E+00 0. -1.
         -2   -1    0    0    0  501 -0.00000000000E+00 -0.00000000000E+00 -0.21610169012E+03  0.21610169012E+03  0.00000000000E+00 0.  1.
         23    2    1    2    0    0 -0.13869514643E+03  0.19959789782E+03  0.11089460142E+02  0.27358074340E+03  0.12509109709E+03 0.  0.
         23    2    1    2    0    0  0.13869514643E+03 -0.19959789782E+03  0.11405210796E+03  0.28376420495E+03  0.91861723368E+02 0.  0.
          5    1    3    3  502    0 -0.15414077032E+03  0.18770361897E+03 -0.11825363342E+02  0.24320636765E+03  0.41800000000E+01 0. -1.
         -5    1    3    3    0  502  0.15445623883E+02  0.11894278853E+02  0.22914823484E+02  0.30374375744E+02  0.41800000000E+01 0. -1.
        -11    1    4    4    0    0  0.60015633910E+02 -0.12186300342E+03  0.17530472859E+02  0.13696636593E+03  0.00000000000E+00 0.  1.
         11    1    4    4    0    0  0.78679512523E+02 -0.77734894398E+02  0.96521635099E+02  0.14679783902E+03  0.00000000000E+00 0. -1.
</event>
<event>
 8    1  0.4798744E-006  0.9808576E+02  0.7561462E-02  0.1284374E+00
         -3   -1    0    0    0  501 -0.00000000000E+00  0.00000000000E+00  0.39866666199E+03  0.39866666199E+03  0.00000000000E+00 0.  1.
          3   -1    0    0  501    0  0.00000000000E+00 -0.00000000000E+00 -0.42081559781E+02  0.42081559781E+02  0.00000000000E+00 0. -1.
         23    2    1    2    0    0 -0.32318645672E+02 -0.12225361639E+02  0.30116795517E+03  0.32793776007E+03  0.12508830056E+03 0.  0.
         23    2    1    2    0    0  0.32318645672E+02  0.12225361639E+02  0.55417147044E+02  0.11281046170E+03  0.91984703931E+02 0.  0.
          5    1    3    3  502    0  0.85032053375E+01 -0.61865238634E+02  0.18228115863E+03  0.19272650426E+03  0.41800000000E+01 0.  1.
         -5    1    3    3    0  502 -0.40821851009E+02  0.49639876995E+02  0.11888679654E+03  0.13521125581E+03  0.41800000000E+01 0.  1.
        -11    1    4    4    0    0  0.21891600333E+02 -0.23409548275E+02 -0.13302621627E+02  0.34701712605E+02  0.00000000000E+00 0. -1.
         11    1    4    4    0    0  0.10427045339E+02  0.35634909914E+02  0.68719768671E+02  0.78108749095E+02  0.00000000000E+00 0.  1.
</event>
<event>
 8    1  0.4798744E-006  0.1154304E+03  0.7561462E-02  0.1250832E+00
         -2   -1    0    0    0  501 -0.00000000000E+00  0.00000000000E+00  0.83730031339E+02  0.83730031339E+02  0.00000000000E+00 0.  1.
          2   -1    0    0  501    0  0.00000000000E+00 -0.00000000000E+00 -0.24650494798E+03  0.24650494798E+03  0.00000000000E+00 0. -1.
         23    2    1    2    0    0  0.15539210572E+00  0.87037866663E+02 -0.46499686813E+02  0.15932814326E+03  0.12509045520E+03 0.  0.
         23    2    1    2    0    0 -0.15539210572E+00 -0.87037866663E+02 -0.11627522982E+03  0.17090683605E+03  0.90075541404E+02 0.  0.
          5    1    3    3  502    0  0.46194005176E+02  0.72904429448E+02 -0.64413618443E+02  0.10777536169E+03  0.41800000000E+01 0. -1.
         -5    1    3    3    0  502 -0.46038613070E+02  0.14133437215E+02  0.17913931630E+02  0.51552781568E+02  0.41800000000E+01 0. -1.
        -11    1    4    4    0    0  0.12474724630E+02 -0.81279697182E+02 -0.36560606113E+02  0.89992698859E+02  0.00000000000E+00 0.  1.
         11    1    4    4    0    0 -0.12630116736E+02 -0.57581694807E+01 -0.79714623710E+02  0.80914137193E+02  0.00000000000E+00 0. -1.
</event>
<event>
 8    1  0.4798744E-006  0.1450179E+03  0.7561462E-02  0.1206732E+00
         -2   -1    0    0    0  501 -0.00000000000E+00  0.00000000000E+00  0.10084563924E+03  0.10084563924E+03  0.00000000000E+00 0. -1.
          2   -1    0    0  501    0  0.00000000000E+00 -0.00000000000E+00 -0.35184081441E+03  0.35184081441E+03  0.00000000000E+00 0.  1.
         23    2    1    2    0    0 -0.64909179793E+02  0.10147308095E+03 -0.26106654341E+02  0.17560755833E+03  0.12508584797E+03 0.  0.
         23    2    1    2    0    0  0.64909179793E+02 -0.10147308095E+03 -0.22488852083E+03  0.27707889532E+03  0.10811049742E+03 0.  0.
          5    1    3    3  502    0 -0.83513363574E+02  0.10287651029E+03 -0.52861647545E+02  0.14272310411E+03  0.41800000000E+01 0.  1.
         -5    1    3    3    0  502  0.18604183781E+02 -0.14034293445E+01  0.26754993204E+02  0.32884454221E+02  0.41800000000E+01 0.  1.
        -11    1    4    4    0    0  0.68905546979E+02 -0.46277678768E+02 -0.19972594894E+03  0.21628696825E+03  0.00000000000E+00 0.  1.
         11    1    4    4    0    0 -0.39963671858E+01 -0.55195402181E+02 -0.25162571896E+02  0.60791927071E+02  0.00000000000E+00 0. -1.
</event>
<event>
 8    1  0.4798744E-006  0.1088422E+03  0.7561462E-02  0.1262729E+00
          2   -1    0    0  501    0  0.00000000000E+00  0.00000000000E+00  0.48341876478E+03  0.48341876478E+03  0.00000000000E+00 0. -1.
         -2   -1    0    0    0  501 -0.00000000000E+00 -0.00000000000E+00 -0.35280778347E+02  0.35280778347E+02  0.00000000000E+00 0.  1.
         23    2    1    2    0    0 -0.48410931896E+02  0.35296388022E+02  0.16675352965E+03  0.21689427798E+03  0.12508770857E+03 0.  0.
         23    2    1    2    0    0  0.48410931896E+02 -0.35296388022E+02  0.28138445678E+03  0.30180526514E+03  0.91212675740E+02 0.  0.
          5    1    3    3  502    0  0.29420925257E+02  0.47132536442E+02  0.95822296274E+02  0.11084426777E+03  0.41800000000E+01 0.  1.
         -5    1    3    3    0  502 -0.77831857153E+02 -0.11836148420E+02  0.70931233376E+02  0.10605001021E+03  0.41800000000E+01 0.  1.
        -11    1    4    4    0    0 -0.59409492811E+01 -0.27602525066E+02  0.19706684874E+02  0.34431783240E+02  0.00000000000E+00 0.  1.
         11    1    4    4    0    0  0.54351881177E+02 -0.76938629560E+01  0.26167777191E+03  0.26737348190E+03  0.00000000000E+00 0. -1.
</event>
<event>
 7    1  0.4798744E-006  0.1269987E+03  0.7561462E-02  0.1231978E+00
         -2   -1    0    0    0  501 -0.00000000000E+00  0.00000000000E+00  0.15882633154E+03  0.15882633154E+03  0.00000000000E+00 0.  1.
          2   -1    0    0  501    0  0.00000000000E+00 -0.00000000000E+00 -0.29635952005E+03  0.29635952005E+03  0.00000000000E+00 0. -1.
         23    2    1    2    0    0  0.93061034616E+02 -0.62136402798E+02 -0.20036992728E+03  0.24719757867E+03  0.91854485069E+02 0.  0.
          5    1    1    2  502    0 -0.56221224377E+02  0.34357595802E+02 -0.52076623371E+02  0.84087558899E+02  0.41800000000E+01 0. -1.
         -5    1    1    2    0  502 -0.36839810239E+02  0.27778806996E+02  0.11491336214E+03  0.12390071402E+03  0.41800000000E+01 0.  1.
        -11    1    3    3    0    0 -0.14016736754E+02  0.54340565596E+01 -0.83660909667E+01  0.17204341254E+02  0.00000000000E+00 0.  1.
         11    1    3    3    0    0  0.10707777137E+03 -0.67570459358E+02 -0.19200383632E+03  0.22999323742E+03  0.00000000000E+00 0. -1.
</event>
<event>
 8    1  0.4798744E-006  0.5505802E+02  0.7561462E-02  0.1419825E+00
         -1   -1    0    0    0  501 -0.00000000000E+00  0.00000000000E+00  0.50487938430E+02  0.50487938430E+02  0.00000000000E+00 0.  1.
          1   -1    0    0  501    0  0.00000000000E+00 -0.00000000000E+00 -0.24873473301E+03  0.24873473301E+03  0.00000000000E+00 0. -1.
         23    2    1    2    0    0 -0.13172239599E+02  0.22125502272E+02 -0.99350288184E+02  0.16180775914E+03  0.12509286713E+03 0.  0.
         23    2    1    2    0    0  0.13172239599E+02 -0.22125502272E+02 -0.98896506397E+02  0.13741491230E+03  0.91865626865E+02 0.  0.
          5    1    3    3  502    0 -0.11076122760E+02  0.27271607230E+02  0.24032636821E+02  0.38229060790E+02  0.41800000000E+01 0.  1.
         -5    1    3    3    0  502 -0.20961168395E+01 -0.51461049583E+01 -0.12338292501E+03  0.12357869835E+03  0.41800000000E+01 0.  1.
        -11    1    4    4    0    0  0.17936581951E+02  0.22375405358E+02 -0.86271795810E+02  0.90913159055E+02  0.00000000000E+00 0. -1.
         11    1    4    4    0    0 -0.47643423517E+01 -0.44500907629E+02 -0.12624710586E+02  0.46501753249E+02  0.00000000000E+00 0.  1.
</event>
<event>
 8    1  0.4798744E-006  0.1274048E+03  0.7561462E-02  0.1231358E+00
          1   -1    0    0  501    0  0.00000000000E+00  0.00000000000E+00  0.92541624869E+03  0.92541624869E+03  0.00000000000E+00 0. -1.
         -1   -1    0    0    0  501 -0.00000000000E+00 -0.00000000000E+00 -0.19408590430E+02  0.19408590430E+02  0.00000000000E+00 0.  1.
         23    2    1    2    0    0  0.21072969867E+02 -0.76081608932E+02  0.38919451424E+03  0.41635533905E+03  0.12508763792E+03 0.  0.
         23    2    1    2    0    0 -0.21072969867E+02  0.76081608932E+02  0.51681314402E+03  0.52846950008E+03  0.77147296779E+02 0.  0.
          5    1    3    3  502    0 -0.42683786366E+02  0.42080923963E+01  0.84627643042E+02  0.94968015810E+02  0.41800000000E+01 0. -1.
         -5    1    3    3    0  502  0.63756756232E+02 -0.80289701328E+02  0.30456687120E+03  0.32138732324E+03  0.41800000000E+01 0. -1.
        -11    1    4    4    0    0 -0.30029126740E+02 -0.23904384637E+01  0.18128171850E+03  0.18376758177E+03  0.00000000000E+00 0. -1.
         11    1    4    4    0    0  0.89561568731E+01  0.78472047395E+02  0.33553142552E+03  0.34470191830E+03  0.00000000000E+00 0.  1.
</event>
<event>
 8    1  0.4798744E-006  0.1100019E+03  0.7561462E-02  0.1260566E+00
         -1   -1    0    0    0  501 -0.00000000000E+00  0.00000000000E+00  0.59540897246E+02  0.59540897246E+02  0.00000000000E+00 0.  1.
          1   -1    0    0  501    0  0.00000000000E+00 -0.00000000000E+00 -0.40661402547E+03  0.40661402547E+03  0.00000000000E+00 0. -1.
         23    2    1    2    0    0  0.94746004801E+02  0.53746613430E+02 -0.15751760977E+03  0.22876347548E+03  0.12512164658E+03 0.  0.
         23    2    1    2    0    0 -0.94746004801E+02 -0.53746613430E+02 -0.18955551846E+03  0.23739144724E+03  0.92508922618E+02 0.  0.
          5    1    3    3  502    0  0.15667417258E+02  0.95508292723E+01  0.21203483747E+02  0.28350421979E+02  0.41800000000E+01 0. -1.
         -5    1    3    3    0  502  0.79078587543E+02  0.44195784157E+02 -0.17872109351E+03  0.20041305350E+03  0.41800000000E+01 0. -1.
        -11    1    4    4    0    0 -0.20409804240E+02 -0.20948974315E+02 -0.13822488593E+03  0.14128530966E+03  0.00000000000E+00 0. -1.
         11    1    4    4    0    0 -0.74336200561E+02 -0.32797639115E+02 -0.51330632522E+02  0.96106137580E+02  0.00000000000E+00 0.  1.
</event>
<event>
 8    1  0.4798744E-006  0.1215927E+03  0.7561462E-02  0.1240492E+00
          2   -1    0    0  501    0  0.00000000000E+00  0.00000000000E+00  0.13172938069E+04  0.13172938069E+04  0.00000000000E+00 0. -1.
         -2   -1    0    0    0  501 -0.00000000000E+00 -0.00000000000E+00 -0.11885230524E+02  0.11885230524E+02  0.00000000000E+00 0.  1.
         23    2    1    2    0    0  0.30350548510E+02 -0.54147995919E+02  0.79415798751E+03  0.80634202918E+03  0.12508955843E+03 0.  0.
         23    2    1    2    0    0 -0.30350548510E+02  0.54147995919E+02  0.51125058891E+03  0.52283700829E+03  0.90156593361E+02 0.  0.
          5    1    3    3  502    0 -0.38422437152E+02  0.11698959722E+02  0.33296329916E+03  0.33540301179E+03  0.41800000000E+01 0. -1.
         -5    1    3    3    0  502  0.68772985662E+02 -0.65846955640E+02  0.46119468836E+03  0.47093901738E+03  0.41800000000E+01 0. -1.
        -11    1    4    4    0    0 -0.36343817730E+02 -0.14104292022E+02  0.23531847316E+03  0.23852586432E+03  0.00000000000E+00 0. -1.
         11    1    4    4    0    0  0.59932692201E+01  0.68252287941E+02  0.27593211575E+03  0.28431114397E+03  0.00000000000E+00 0.  1.
</event>
<event>
 8    1  0.4798744E-006  0.1599841E+03  0.7561462E-02  0.1188715E+00
          2   -1    0    0  501    0  0.00000000000E+00  0.00000000000E+00  0.58795644246E+03  0.58795644246E+03  0.00000000000E+00 0. -1.
         -2   -1    0    0    0  501 -0.00000000000E+00 -0.00000000000E+00 -0.44587472489E+02  0.44587472489E+02  0.00000000000E+00 0.  1.
         23    2    1    2    0    0  0.11902772503E+03 -0.91409252403E+01  0.31132238409E+03  0.35611809481E+03  0.12508922723E+03 0.  0.
         23    2    1    2    0    0 -0.11902772503E+03  0.91409252403E+01  0.23204658588E+03  0.27642582014E+03  0.91183661833E+02 0.  0.
          5    1    3    3  502    0  0.13121269662E+03  0.24703199843E+02  0.21393130129E+03  0.25221239840E+03  0.41800000000E+01 0.  1.
         -5    1    3    3    0  502 -0.12184971587E+02 -0.33844125083E+02  0.97391082808E+02  0.10390569641E+03  0.41800000000E+01 0.  1.
        -11    1    4    4    0    0 -0.13432660485E+03  0.54648482714E+01  0.20556956746E+03  0.24562644077E+03  0.00000000000E+00 0. -1.
         11    1    4    4    0    0  0.15298879825E+02  0.36760769689E+01  0.26477018413E+02  0.30799379374E+02  0.00000000000E+00 0.  1.
</event>
<event>
 8    1  0.4798744E-006  0.9848367E+02  0.7561462E-02  0.1283517E+00
          2   -1    0    0  501    0  0.00000000000E+00  0.00000000000E+00  0.64888503101E+03  0.64888503101E+03  0.00000000000E+00 0. -1.
         -2   -1    0    0    0  501 -0.00000000000E+00 -0.00000000000E+00 -0.19198917954E+02  0.19198917954E+02  0.00000000000E+00 0.  1.
         23    2    1    2    0    0 -0.72152835862E+01 -0.55420138359E+01  0.24883460960E+03  0.27865592853E+03  0.12509072442E+03 0.  0.
         23    2    1    2    0    0  0.72152835862E+01  0.55420138359E+01  0.38085150346E+03  0.38942802043E+03  0.80768441730E+02 0.  0.
          5    1    3    3  502    0  0.46114732934E+02  0.28392710770E+02  0.67899165247E+02  0.86951041740E+02  0.41800000000E+01 0. -1.
         -5    1    3    3    0  502 -0.53330016520E+02 -0.33934724605E+02  0.18093544436E+03  0.19170488679E+03  0.41800000000E+01 0. -1.
        -11    1    4    4    0    0  0.23896935309E+02  0.36796175078E+02  0.25218694759E+03  0.25597515222E+03  0.00000000000E+00 0. -1.
         11    1    4    4    0    0 -0.16681651723E+02 -0.31254161242E+02  0.12866455587E+03  0.13345286822E+03  0.00000000000E+00 0.  1.
</event>
<event>
 8    1  0.4798744E-006  0.1400964E+03  0.7561462E-02  0.1213199E+00
         -3   -1    0    0    0  501 -0.00000000000E+00  0.00000000000E+00  0.96732482639E+02  0.96732482639E+02  0.00000000000E+00 0.  1.
          3   -1    0    0  501    0  0.00000000000E+00 -0.00000000000E+00 -0.42164890581E+03  0.42164890581E+03  0.00000000000E+00 0. -1.
         23    2    1    2    0    0 -0.85397824490E+02  0.82782800495E+02 -0.13767667494E+02  0.17315856677E+03  0.12509420487E+03 0.  0.
         23    2    1    2    0    0  0.85397824490E+02 -0.82782800495E+02 -0.31114875568E+03  0.34522282168E+03  0.90661281509E+02 0.  0.
          5    1    3    3  502    0 -0.41862687178E+02  0.87896243357E+02 -0.55794283019E+02  0.11228850605E+03  0.41800000000E+01 0. -1.
         -5    1    3    3    0  502 -0.43535137312E+02 -0.51134428624E+01  0.42026615526E+02  0.60870060713E+02  0.41800000000E+01 0. -1.
        -11    1    4    4    0    0  0.69758820925E+02 -0.95702452494E+02 -0.20159780223E+03  0.23380959427E+03  0.00000000000E+00 0.  1.
         11    1    4    4    0    0  0.15639003565E+02  0.12919651999E+02 -0.10955095345E+03  0.11141322741E+03  0.00000000000E+00 0. -1.
</event>
<event>
 8    1  0.4798744E-006  0.1131878E+03  0.7561462E-02  0.1254778E+00
         -1   -1    0    0    0  501 -0.00000000000E+00  0.00000000000E+00  0.13425594149E+02  0.13425594149E+02  0.00000000000E+00 0.  1.
          1   -1    0    0  501    0  0.00000000000E+00 -0.00000000000E+00 -0.98104601495E+03  0.98104601495E+03  0.00000000000E+00 0. -1.
         23    2    1    2    0    0 -0.34832835776E+02  0.14059380198E+02 -0.54080666993E+03  0.55635489475E+03  0.12509165463E+03 0.  0.
         23    2    1    2    0    0  0.34832835776E+02 -0.14059380198E+02 -0.42681375088E+03  0.43811671435E+03  0.91461931069E+02 0.  0.
          5    1    3    3  502    0  0.17880682235E+02 -0.44829350466E+02 -0.26611379318E+03  0.27048736159E+03  0.41800000000E+01 0.  1.
         -5    1    3    3    0  502 -0.52713518010E+02  0.58888730664E+02 -0.27469287675E+03  0.28586753317E+03  0.41800000000E+01 0.  1.
        -11    1    4    4    0    0  0.15477087352E+02 -0.53046286336E+02 -0.24796916917E+03  0.25405148609E+03  0.00000000000E+00 0. -1.
         11    1    4    4    0    0  0.19355748424E+02  0.38986906138E+02 -0.17884458170E+03  0.18406522825E+03  0.00000000000E+00 0.  1.
</event>
<event>
 8    1  0.4798744E-006  0.9287792E+02  0.7561462E-02  0.1296028E+00
         -3   -1    0    0    0  501 -0.00000000000E+00  0.00000000000E+00  0.91062547331E+02  0.91062547331E+02  0.00000000000E+00 0.  1.
          3   -1    0    0  501    0  0.00000000000E+00 -0.00000000000E+00 -0.13689571724E+03  0.13689571724E+03  0.00000000000E+00 0. -1.
         23    2    1    2    0    0  0.30790250820E+02 -0.28787251333E+01 -0.26868452107E+02  0.13162084538E+03  0.12508319877E+03 0.  0.
         23    2    1    2    0    0 -0.30790250820E+02  0.28787251333E+01 -0.18964717800E+02  0.96337419191E+02  0.89246351249E+02 0.  0.
          5    1    3    3  502    0  0.32149001672E+02  0.38579067014E+02 -0.60010637047E+02  0.78362310322E+02  0.41800000000E+01 0. -1.
         -5    1    3    3    0  502 -0.13587508521E+01 -0.41457792147E+02  0.33142184940E+02  0.53258535055E+02  0.41800000000E+01 0. -1.
        -11    1    4    4    0    0 -0.50780646482E+02 -0.27162610389E+02 -0.56126054542E+01  0.57861755938E+02  0.00000000000E+00 0.  1.
         11    1    4    4    0    0  0.19990395662E+02  0.30041335522E+02 -0.13352112345E+02  0.38475663253E+02  0.00000000000E+00 0. -1.
</event>
<event>
 8    1  0.4798744E-006  0.9960596E+02  0.7561462E-02  0.1281127E+00
         -1   -1    0    0    0  501 -0.00000000000E+00  0.00000000000E+00  0.66916552171E+02  0.66916552171E+02  0.00000000000E+00 0.  1.
          1   -1    0    0  501    0  0.00000000000E+00 -0.00000000000E+00 -0.27272352200E+03  0.27272352200E+03  0.00000000000E+00 0. -1.
         23    2    1    2    0    0 -0.56573183037E+02 -0.18852634052E+02 -0.43351875288E+02  0.14520459902E+03  0.12509613758E+03 0.  0.
         23    2    1    2    0    0  0.56573183037E+02  0.18852634052E+02 -0.16245509454E+03  0.19443547515E+03  0.88642819249E+02 0.  0.
          5    1    3    3  502    0  0.19190465341E+02 -0.18050935201E+02 -0.61626394257E+02  0.67152029685E+02  0.41800000000E+01 0. -1.
         -5    1    3    3    0  502 -0.75763648378E+02 -0.80169885040E+00  0.18274518969E+02  0.78052569337E+02  0.41800000000E+01 0. -1.
        -11    1    4    4    0    0 -0.18828880292E+02  0.80651990081E+01 -0.75762740241E+01  0.21839736633E+02  0.00000000000E+00 0.  1.
         11    1    4    4    0    0  0.75402063329E+02  0.10787435044E+02 -0.15487882052E+03  0.17259573852E+03  0.00000000000E+00 0. -1.
</event>
<event>
 8    1  0.1012855E-005  0.2234394E+03  0.7561462E-02  0.1131344E+00
         -2   -1    0    0    0  501 -0.00000000000E+00  0.00000000000E+00  0.31992175588E+02  0.31992175588E+02  0.00000000000E+00 0.  1.
          2   -1    0    0  501    0  0.00000000000E+00 -0.00000000000E+00 -0.15975724216E+04  0.15975724216E+04  0.00000000000E+00 0. -1.
         23    2    1    2    0    0  0.15890639372E+03  0.11912053398E+03 -0.81843094882E+03  0.85142080567E+03  0.12508887544E+03 0.  0.
         23    2    1    2    0    0 -0.15890639372E+03 -0.11912053398E+03 -0.74714929722E+03  0.77814379154E+03  0.88514091552E+02 0.  0.
          5    1    3    3  502    0  0.79004973321E+01  0.77501229320E+02 -0.27353975093E+03  0.28444740488E+03  0.41800000000E+01 0.  1.
         -5    1    3    3    0  502  0.15100589639E+03  0.41619304664E+02 -0.54489119789E+03  0.56697340078E+03  0.41800000000E+01 0.  1.
        -11    1    4    4    0    0 -0.24465655430E+02 -0.60966718189E+02 -0.31708543907E+03  0.32381890725E+03  0.00000000000E+00 0.  1.
         11    1    4    4    0    0 -0.13444073829E+03 -0.58153815795E+02 -0.43006385815E+03  0.45432488429E+03  0.00000000000E+00 0. -1.
</event>
<event>
 8    1  0.4798744E-006  0.7524057E+02  0.7561462E-02  0.1343128E+00
          1   -1    0    0  501    0  0.00000000000E+00  0.00000000000E+00  0.16623606552E+03  0.16623606552E+03  0.00000000000E+00 0. -1.
         -1   -1    0    0    0  501 -0.00000000000E+00 -0.00000000000E+00 -0.69331552910E+02  0.69331552910E+02  0.00000000000E+00 0.  1.
         23    2    1    2    0    0 -0.13350081423E+02  0.47105746666E+01  0.38889878342E+02  0.12044039203E+03  0.11310637120E+03 0.  0.
         23    2    1    2    0    0  0.13350081423E+02 -0.47105746666E+01  0.58014634269E+02  0.11512722640E+03  0.98428483083E+02 0.  0.
          5    1    3    3  502    0 -0.19907943507E+02  0.57311524051E+02  0.20428523304E+02  0.64153986378E+02  0.41800000000E+01 0. -1.
         -5    1    3    3    0  502  0.65578620841E+01 -0.52600949384E+02  0.18461355038E+02  0.56286405651E+02  0.41800000000E+01 0.  1.
        -11    1    4    4    0    0  0.20295940168E+02  0.81550342678E+01 -0.23620861280E+02  0.32192776500E+02  0.00000000000E+00 0.  1.
         11    1    4    4    0    0 -0.69458587446E+01 -0.12865608934E+02  0.81635495549E+02  0.82934449901E+02  0.00000000000E+00 0. -1.
</event>
<event>
 8    1  0.4798744E-006  0.1260445E+03  0.7561462E-02  0.1233446E+00
         -1   -1    0    0    0  501 -0.00000000000E+00  0.00000000000E+00  0.43721490066E+02  0.43721490066E+02  0.00000000000E+00 0.  1.
          1   -1    0    0  501    0  0.00000000000E+00 -0.00000000000E+00 -0.42931150756E+03  0.42931150756E+03  0.00000000000E+00 0. -1.
         23    2    1    2    0    0 -0.36766814418E+02  0.67552224229E+02 -0.15341942602E+03  0.21236669294E+03  0.12508793047E+03 0.  0.
         23    2    1    2    0    0  0.36766814418E+02 -0.67552224229E+02 -0.23217059147E+03  0.26066630469E+03  0.90158955254E+02 0.  0.
          5    1    3    3  502    0  0.15426051446E+02  0.80424192359E+02 -0.50837948598E+02  0.96477889681E+02  0.41800000000E+01 0. -1.
         -5    1    3    3    0  502 -0.52192865864E+02 -0.12871968129E+02 -0.10258147742E+03  0.11588880326E+03  0.41800000000E+01 0. -1.
        -11    1    4    4    0    0 -0.28175623020E+02 -0.11667555014E+02 -0.40321162763E+02  0.50554858709E+02  0.00000000000E+00 0.  1.
         11    1    4    4    0    0  0.64942437438E+02 -0.55884669215E+02 -0.19184942871E+03  0.21011144598E+03  0.00000000000E+00 0. -1.
</event>
<event>
 8    1  0.4798744E-006  0.1073376E+03  0.7561462E-02  0.1265581E+00
         -2   -1    0    0    0  501 -0.00000000000E+00  0.00000000000E+00  0.18052338623E+03  0.18052338623E+03  0.00000000000E+00 0.  1.
          2   -1    0    0  501    0  0.00000000000E+00 -0.00000000000E+00 -0.10898440783E+03  0.10898440783E+03  0.00000000000E+00 0. -1.
         23    2    1    2    0    0  0.45091398068E+02  0.30456869797E+02  0.11078139596E+03  0.17573125380E+03  0.12509236896E+03 0.  0.
         23    2    1    2    0    0 -0.45091398068E+02 -0.30456869797E+02 -0.39242417564E+02  0.11377654026E+03  0.91892756409E+02 0.  0.
          5    1    3    3  502    0 -0.28819866397E+02  0.46905840294E+01 -0.10512097260E+02  0.31313940450E+02  0.41800000000E+01 0.  1.
         -5    1    3    3    0  502  0.73911264465E+02  0.25766285767E+02  0.12129349322E+03  0.14441731335E+03  0.41800000000E+01 0.  1.
        -11    1    4    4    0    0 -0.62243727119E+02  0.98223539626E+01 -0.22843715392E+02  0.67026826987E+02  0.00000000000E+00 0.  1.
         11    1    4    4    0    0  0.17152329050E+02 -0.40279223759E+02 -0.16398702172E+02  0.46749713276E+02  0.00000000000E+00 0. -1.
</event>
<event>
 8    1  0.4798744E-006  0.9150586E+02  0.7561462E-02  0.1299245E+00
          4   -1    0    0  501    0  0.00000000000E+00  0.00000000000E+00  0.35484379830E+02  0.35484379830E+02  0.00000000000E+00 0. -1.
         -4   -1    0    0    0  501 -0.00000000000E+00 -0.00000000000E+00 -0.38117301989E+03  0.38117301989E+03  0.00000000000E+00 0.  1.
         23    2    1    2    0    0  0.38213030927E+02 -0.13282591131E+02 -0.21470221723E+03  0.25175645712E+03  0.12509040194E+03 0.  0.
         23    2    1    2    0    0 -0.38213030927E+02  0.13282591131E+02 -0.13098642283E+03  0.16490094260E+03  0.91641775108E+02 0.  0.
          5    1    3    3  502    0  0.39696810612E+02 -0.43248125483E+02 -0.32853967106E+02  0.67402467945E+02  0.41800000000E+01 0.  1.
         -5    1    3    3    0  502 -0.14837796847E+01  0.29965534352E+02 -0.18184825012E+03  0.18435398917E+03  0.41800000000E+01 0.  1.
        -11    1    4    4    0    0  0.14293936734E+02 -0.25060005820E+02 -0.16483498866E+02  0.33226890525E+02  0.00000000000E+00 0. -1.
         11    1    4    4    0    0 -0.52506967661E+02  0.38342596951E+02 -0.11450292396E+03  0.13167405207E+03  0.00000000000E+00 0.  1.
</event>
<event>
 8    1  0.4798744E-006  0.9746497E+02  0.7561462E-02  0.1285719E+00
          2   -1    0    0  501    0  0.00000000000E+00  0.00000000000E+00  0.31872246871E+03  0.31872246871E+03  0.00000000000E+00 0. -1.
         -2   -1    0    0    0  501 -0.00000000000E+00 -0.00000000000E+00 -0.61197588822E+02  0.61197588822E+02  0.00000000000E+00 0.  1.
         23    2    1    2    0    0  0.67412922231E+02  0.38103465731E+02  0.84084771746E+02  0.16945014035E+03  0.12508686997E+03 0.  0.
         23    2    1    2    0    0 -0.67412922231E+02 -0.38103465731E+02  0.17344010814E+03  0.21046991719E+03  0.90662774852E+02 0.  0.
          5    1    3    3  502    0 -0.20304370333E+02  0.17874775040E+02  0.73843537399E+02  0.78753510735E+02  0.41800000000E+01 0. -1.
         -5    1    3    3    0  502  0.87717292564E+02  0.20228690691E+02  0.10241234346E+02  0.90696629611E+02  0.41800000000E+01 0. -1.
        -11    1    4    4    0    0 -0.14415240299E+02 -0.85522966503E+01 -0.84173727180E+01  0.18756148174E+02  0.00000000000E+00 0.  1.
         11    1    4    4    0    0 -0.52997681932E+02 -0.29551169081E+02  0.18185748086E+03  0.19171376901E+03  0.00000000000E+00 0. -1.
</event>
<event>
 8    1  0.4798744E-006  0.1123560E+03  0.7561462E-02  0.1256268E+00
          1   -1    0    0  501    0  0.00000000000E+00  0.00000000000E+00  0.28090540724E+03  0.28090540724E+03  0.00000000000E+00 0. -1.
         -1   -1    0    0    0  501 -0.00000000000E+00 -0.00000000000E+00 -0.60596295243E+02  0.60596295243E+02  0.00000000000E+00 0.  1.
         23    2    1    2    0    0 -0.69974157842E+02 -0.15958329953E+02  0.11465070679E+03  0.18423672697E+03  0.12508931184E+03 0.  0.
         23    2    1    2    0    0  0.69974157842E+02  0.15958329953E+02  0.10565840520E+03  0.15726497551E+03  0.91747059200E+02 0.  0.
          5    1    3    3  502    0 -0.87924408751E+02  0.22463822014E+02  0.42166369449E+02  0.10015388193E+03  0.41800000000E+01 0.  1.
         -5    1    3    3    0  502  0.17950250909E+02 -0.38422151967E+02  0.72484337344E+02  0.84082845037E+02  0.41800000000E+01 0.  1.
        -11    1    4    4    0    0  0.43645444373E+02 -0.18906044223E+02  0.53612521246E+01  0.47865502682E+02  0.00000000000E+00 0.  1.
         11    1    4    4    0    0  0.26328713469E+02  0.34864374176E+02  0.10029715308E+03  0.10939947283E+03  0.00000000000E+00 0. -1.
</event>
<event>
 8    1  0.4798744E-006  0.1460148E+03  0.7561462E-02  0.1205457E+00
         -4   -1    0    0    0  501 -0.00000000000E+00  0.00000000000E+00  0.16285413307E+04  0.16285413307E+04  0.00000000000E+00 0.  1.
          4   -1    0    0  501    0  0.00000000000E+00 -0.00000000000E+00 -0.15293785015E+02  0.15293785015E+02  0.00000000000E+00 0. -1.
         23    2    1    2    0    0 -0.10822038644E+03  0.27636970692E+02  0.10000238608E+04  0.10139842143E+04  0.12506322590E+03 0.  0.
         23    2    1    2    0    0  0.10822038644E+03 -0.27636970692E+02  0.61322368489E+03  0.62985090143E+03  0.90517490748E+02 0.  0.
          5    1    3    3  502    0 -0.28420869586E+01 -0.30009597389E+02  0.44778444819E+03  0.44881737693E+03  0.41800000000E+01 0. -1.
         -5    1    3    3    0  502 -0.10537829948E+03  0.57646568081E+02  0.55223941265E+03  0.56516683740E+03  0.41800000000E+01 0. -1.
        -11    1    4    4    0    0  0.13534501362E+02 -0.43363016578E+02  0.14738570564E+03  0.15422736515E+03  0.00000000000E+00 0. -1.
         11    1    4    4    0    0  0.94685885075E+02  0.15726045886E+02  0.46583797925E+03  0.47562353628E+03  0.00000000000E+00 0.  1.
</event>
<event>
 8    1  0.4798744E-006  0.1186835E+03  0.7561462E-02  0.1245285E+00
          2   -1    0    0  501    0  0.00000000000E+00  0.00000000000E+00  0.55277861211E+03  0.55277861211E+03  0.00000000000E+00 0.  1.
         -2   -1    0    0    0  501 -0.00000000000E+00 -0.00000000000E+00 -0.38798079757E+02  0.38798079757E+02  0.00000000000E+00 0. -1.
         23    2    1    2    0    0  0.46070994678E+02 -0.57381799656E+02  0.14822690524E+03  0.20744842018E+03  0.12509366138E+03 0.  0.
         23    2    1    2    0    0 -0.46070994678E+02  0.57381799656E+02  0.36575362712E+03  0.38412827169E+03  0.91452752162E+02 0.  0.
          5    1    3    3  502    0 -0.39949689053E+02 -0.34100763726E+02  0.34820109114E+02  0.63156568469E+02  0.41800000000E+01 0.  1.
         -5    1    3    3    0  502  0.86020683731E+02 -0.23281035930E+02  0.11340679612E+03  0.14429185171E+03  0.41800000000E+01 0.  1.
        -11    1    4    4    0    0 -0.61029447113E+02  0.42553617169E+02  0.35001501136E+03  0.35783503451E+03  0.00000000000E+00 0.  1.
         11    1    4    4    0    0  0.14958452436E+02  0.14828182487E+02  0.15738615762E+02  0.26293237177E+02  0.00000000000E+00 0. -1.
</event>
<event>
 8    1  0.4798744E-006  0.8295667E+02  0.7561462E-02  0.1320864E+00
         -3   -1    0    0    0  501 -0.00000000000E+00  0.00000000000E+00  0.57868061250E+02  0.57868061250E+02  0.00000000000E+00 0.  1.
          3   -1    0    0  501    0  0.00000000000E+00 -0.00000000000E+00 -0.23543076081E+03  0.23543076081E+03  0.00000000000E+00 0. -1.
         23    2    1    2    0    0 -0.21450019603E+02  0.33620349736E+01 -0.70878444475E+02  0.14540496384E+03  0.12508973977E+03 0.  0.
         23    2    1    2    0    0  0.21450019603E+02 -0.33620349736E+01 -0.10668425509E+03  0.14789385823E+03  0.10009823374E+03 0.  0.
          5    1    3    3  502    0 -0.10011186300E+02  0.49241307417E+02  0.10209021664E+02  0.51445376183E+02  0.41800000000E+01 0. -1.
         -5    1    3    3    0  502 -0.11438833303E+02 -0.45879272443E+02 -0.81087466139E+02  0.93959587654E+02  0.41800000000E+01 0. -1.
        -11    1    4    4    0    0  0.41276197607E+02  0.11951160807E+02 -0.51080552663E+01  0.43274091119E+02  0.00000000000E+00 0.  1.
         11    1    4    4    0    0 -0.19826178004E+02 -0.15313195781E+02 -0.10157619982E+03  0.10461976711E+03  0.00000000000E+00 0. -1.
</event>
<event>
 8    1  0.4798744E-006  0.6607269E+02  0.7561462E-02  0.1373981E+00
         -1   -1    0    0    0  501 -0.00000000000E+00  0.00000000000E+00  0.12027068923E+03  0.12027068923E+03  0.00000000000E+00 0.  1.
          1   -1    0    0  501    0  0.00000000000E+00 -0.00000000000E+00 -0.12526267239E+03  0.12526267239E+03  0.00000000000E+00 0. -1.
         23    2    1    2    0    0 -0.27580541663E+02 -0.15680977348E+01  0.80884125420E+01  0.12835859983E+03  0.12508941811E+03 0.  0.
         23    2    1    2    0    0  0.27580541663E+02  0.15680977348E+01 -0.13080395697E+02  0.11717476180E+03  0.11311800405E+03 0.  0.
          5    1    3    3  502    0 -0.93516468318E+01  0.52535996520E+01  0.66064460050E+02  0.67059964878E+02  0.41800000000E+01 0. -1.
         -5    1    3    3    0  502 -0.18228894832E+02 -0.68216973868E+01 -0.57976047508E+02  0.61298634949E+02  0.41800000000E+01 0. -1.
        -11    1    4    4    0    0  0.12448213379E+02  0.49198896190E+02  0.22816157590E+02  0.55642308092E+02  0.00000000000E+00 0.  1.
         11    1    4    4    0    0  0.15132328284E+02 -0.47630798455E+02 -0.35896553287E+02  0.61532453703E+02  0.00000000000E+00 0. -1.
</event>
<event>
 8    1  0.4798744E-006  0.1043812E+03  0.7561462E-02  0.1271344E+00
         -2   -1    0    0    0  501 -0.00000000000E+00  0.00000000000E+00  0.12156740700E+03  0.12156740700E+03  0.00000000000E+00 0.  1.
          2   -1    0    0  501    0  0.00000000000E+00 -0.00000000000E+00 -0.12730493543E+03  0.12730493543E+03  0.00000000000E+00 0. -1.
         23    2    1    2    0    0  0.22278279378E+02 -0.11776667930E+02  0.52302606635E+02  0.13790302017E+03  0.12508664466E+03 0.  0.
         23    2    1    2    0    0 -0.22278279378E+02  0.11776667930E+02 -0.58040135058E+02  0.11096932225E+03  0.91162062090E+02 0.  0.
          5    1    3    3  502    0 -0.31802732066E+02 -0.46517757136E+02  0.26389102603E+01  0.56566348151E+02  0.41800000000E+01 0.  1.
         -5    1    3    3    0  502  0.54081011444E+02  0.34741089206E+02  0.49663696375E+02  0.81336672022E+02  0.41800000000E+01 0.  1.
        -11    1    4    4    0    0  0.31989530524E+02  0.10114353061E+02 -0.43174227531E+02  0.54677638243E+02  0.00000000000E+00 0. -1.
         11    1    4    4    0    0 -0.54267809902E+02  0.16623148688E+01 -0.14865907527E+02  0.56291684011E+02  0.00000000000E+00 0.  1.
</event>
<event>
 8    1  0.4798744E-006  0.1074499E+03  0.7561462E-02  0.1265366E+00
          2   -1    0    0  501    0  0.00000000000E+00  0.00000000000E+00  0.80920434965E+02  0.80920434965E+02  0.00000000000E+00 0.  1.
         -2   -1    0    0    0  501 -0.00000000000E+00 -0.00000000000E+00 -0.18116010041E+03  0.18116010041E+03  0.00000000000E+00 0. -1.
         23    2    1    2    0    0 -0.43944125659E+02 -0.13106853673E+02 -0.86386690884E+02  0.15878411686E+03  0.12508740788E+03 0.  0.
         23    2    1    2    0    0  0.43944125659E+02  0.13106853673E+02 -0.13852974558E+02  0.10329641852E+03  0.91517044210E+02 0.  0.
          5    1    3    3  502    0  0.33542144996E+02 -0.85796063301E+01  0.87262158385E+01  0.35948635281E+02  0.41800000000E+01 0. -1.
         -5    1    3    3    0  502 -0.77486270655E+02 -0.45272473425E+01 -0.95112906723E+02  0.12283548157E+03  0.41800000000E+01 0. -1.
        -11    1    4    4    0    0  0.25842816897E+02 -0.39196157488E+02 -0.44861141367E+01  0.47162645887E+02  0.00000000000E+00 0.  1.
         11    1    4    4    0    0  0.18101308762E+02  0.52303011161E+02 -0.93668604210E+01  0.56133772629E+02  0.00000000000E+00 0. -1.
</event>
<event>
 8    1  0.4798744E-006  0.1842915E+03  0.7561462E-02  0.1163713E+00
          1   -1    0    0  501    0  0.00000000000E+00  0.00000000000E+00  0.82230852415E+03  0.82230852415E+03  0.00000000000E+00 0. -1.
         -1   -1    0    0    0  501 -0.00000000000E+00 -0.00000000000E+00 -0.46701531168E+02  0.46701531168E+02  0.00000000000E+00 0.  1.
         23    2    1    2    0    0 -0.10035956518E+03 -0.11815279261E+03  0.51423682753E+03  0.55146928245E+03  0.12508688970E+03 0.  0.
         23    2    1    2    0    0  0.10035956518E+03  0.11815279261E+03  0.26137016545E+03  0.31754077287E+03  0.92117611357E+02 0.  0.
          5    1    3    3  502    0 -0.72139387308E+01  0.25571513295E+02  0.90430774997E+02  0.94345856670E+02  0.41800000000E+01 0. -1.
         -5    1    3    3    0  502 -0.93145626448E+02 -0.14372430590E+03  0.42380605253E+03  0.45712342578E+03  0.41800000000E+01 0. -1.
        -11    1    4    4    0    0 -0.59900943413E+01  0.34619755462E+02  0.10543028289E+03  0.11113034351E+03  0.00000000000E+00 0. -1.
         11    1    4    4    0    0  0.10634965952E+03  0.83533037143E+02  0.15593988256E+03  0.20641042936E+03  0.00000000000E+00 0.  1.
</event>
<event>
 8    1  0.4798744E-006  0.6870483E+02  0.7561462E-02  0.1364554E+00
         -2   -1    0    0    0  501 -0.00000000000E+00  0.00000000000E+00  0.11052984598E+03  0.11052984598E+03  0.00000000000E+00 0.  1.
          2   -1    0    0  501    0  0.00000000000E+00 -0.00000000000E+00 -0.10963450970E+03  0.10963450970E+03  0.00000000000E+00 0. -1.
         23    2    1    2    0    0 -0.22137623393E+02 -0.93462212660E+01  0.50930339629E+01  0.12747787981E+03  0.12508894685E+03 0.  0.
         23    2    1    2    0    0  0.22137623393E+02  0.93462212660E+01 -0.41976976785E+01  0.92686475873E+02  0.89418879005E+02 0.  0.
          5    1    3    3  502    0  0.15435833734E+02 -0.16177330469E+01 -0.54312030618E+02  0.56640542839E+02  0.41800000000E+01 0. -1.
         -5    1    3    3    0  502 -0.37573457127E+02 -0.77284882191E+01  0.59405064581E+02  0.70837336966E+02  0.41800000000E+01 0. -1.
        -11    1    4    4    0    0  0.36361866923E+02  0.36859420804E+02  0.17740456195E+02  0.54731399161E+02  0.00000000000E+00 0. -1.
         11    1    4    4    0    0 -0.14224243530E+02 -0.27513199538E+02 -0.21938153874E+02  0.37955076712E+02  0.00000000000E+00 0.  1.
</event>
<event>
 8    1  0.4798744E-006  0.1565928E+03  0.7561462E-02  0.1192598E+00
         -1   -1    0    0    0  501 -0.00000000000E+00  0.00000000000E+00  0.34635395364E+02  0.34635395364E+02  0.00000000000E+00 0.  1.
          1   -1    0    0  501    0  0.00000000000E+00 -0.00000000000E+00 -0.82909217386E+03  0.82909217386E+03  0.00000000000E+00 0. -1.
         23    2    1    2    0    0 -0.83344148355E+02 -0.10010680973E+03 -0.44180205938E+03  0.47728997178E+03  0.12509611134E+03 0.  0.
         23    2    1    2    0    0  0.83344148355E+02  0.10010680973E+03 -0.35265471912E+03  0.38643759744E+03  0.89448562778E+02 0.  0.
          5    1    3    3  502    0  0.14007113815E+02  0.47204245762E+01 -0.16465668531E+03  0.16537163621E+03  0.41800000000E+01 0. -1.
         -5    1    3    3    0  502 -0.97351262170E+02 -0.10482723430E+03 -0.27714537407E+03  0.31191833557E+03  0.41800000000E+01 0. -1.
        -11    1    4    4    0    0 -0.11878655025E+02  0.40866492814E+02 -0.64977711311E+02  0.77674163320E+02  0.00000000000E+00 0.  1.
         11    1    4    4    0    0  0.95222803380E+02  0.59240316913E+02 -0.28767700781E+03  0.30876343412E+03  0.00000000000E+00 0. -1.
</event>
<event>
 8    1  0.4798744E-006  0.7953234E+02  0.7561462E-02  0.1330384E+00
          2   -1    0    0  501    0  0.00000000000E+00  0.00000000000E+00  0.29522956424E+03  0.29522956424E+03  0.00000000000E+00 0. -1.
         -2   -1    0    0    0  501 -0.00000000000E+00 -0.00000000000E+00 -0.41789767226E+02  0.41789767226E+02  0.00000000000E+00 0.  1.
         23    2    1    2    0    0  0.72375434118E+01 -0.23430300099E+02  0.13704128042E+03  0.18716232407E+03  0.12509221404E+03 0.  0.
         23    2    1    2    0    0 -0.72375434118E+01  0.23430300099E+02  0.11639851659E+03  0.14985700740E+03  0.91143551626E+02 0.  0.
          5    1    3    3  502    0  0.18290885264E+02  0.26064549078E+02 -0.83000453622E+01  0.33170474151E+02  0.41800000000E+01 0.  1.
         -5    1    3    3    0  502 -0.11053341852E+02 -0.49494849178E+02  0.14534132578E+03  0.15399184992E+03  0.41800000000E+01 0.  1.
        -11    1    4    4    0    0 -0.38686511288E+02  0.22170957335E+02  0.20783707664E+02  0.49195121801E+02  0.00000000000E+00 0.  1.
         11    1    4    4    0    0  0.31448967876E+02  0.12593427645E+01  0.95614808931E+02  0.10066188560E+03  0.00000000000E+00 0. -1.
</event>
<event>
 8    1  0.4798744E-006  0.1075636E+03  0.7561462E-02  0.1265149E+00
         -2   -1    0    0    0  501 -0.00000000000E+00  0.00000000000E+00  0.19705734417E+03  0.19705734417E+03  0.00000000000E+00 0.  1.
          2   -1    0    0  501    0  0.00000000000E+00 -0.00000000000E+00 -0.83282827586E+02  0.83282827586E+02  0.00000000000E+00 0. -1.
         23    2    1    2    0    0 -0.19598321256E+02  0.10613197387E+02  0.12403816957E+03  0.17756603850E+03  0.12508995308E+03 0.  0.
         23    2    1    2    0    0  0.19598321256E+02 -0.10613197387E+02 -0.10263652990E+02  0.10277413326E+03  0.99802032740E+02 0.  0.
          5    1    3    3  502    0 -0.27761144519E+02  0.65468235912E+02  0.74691517901E+02  0.10321369243E+03  0.41800000000E+01 0. -1.
         -5    1    3    3    0  502  0.81628232623E+01 -0.54855038524E+02  0.49346651673E+02  0.74352346073E+02  0.41800000000E+01 0. -1.
        -11    1    4    4    0    0  0.25147699592E+02  0.34572948494E+02 -0.30940284487E+02  0.52773068572E+02  0.00000000000E+00 0. -1.
         11    1    4    4    0    0 -0.55493783360E+01 -0.45186145881E+02  0.20676631497E+02  0.50001064684E+02  0.00000000000E+00 0.  1.
</event>
<event>
 8    1  0.4798744E-006  0.1539463E+03  0.7561462E-02  0.1195706E+00
         -1   -1    0    0    0  501 -0.00000000000E+00  0.00000000000E+00  0.38888309973E+02  0.38888309973E+02  0.00000000000E+00 0.  1.
          1   -1    0    0  501    0  0.00000000000E+00 -0.00000000000E+00 -0.61709484468E+03  0.61709484468E+03  0.00000000000E+00 0. -1.
         23    2    1    2    0    0  0.10871163873E+03  0.20181638969E+02 -0.31852840661E+03  0.35962877017E+03  0.12508791936E+03 0.  0.
         23    2    1    2    0    0 -0.10871163873E+03 -0.20181638969E+02 -0.25967812810E+03  0.29635438449E+03  0.90375173830E+02 0.  0.
          5    1    3    3  502    0  0.12763812552E+03  0.45006417528E+02 -0.26181167680E+03  0.29475395708E+03  0.41800000000E+01 0. -1.
         -5    1    3    3    0  502 -0.18926486796E+02 -0.24824778560E+02 -0.56716729802E+02  0.64874813082E+02  0.41800000000E+01 0. -1.
        -11    1    4    4    0    0 -0.36569503241E+02 -0.50823135430E+02 -0.13907461036E+03  0.15251907064E+03  0.00000000000E+00 0.  1.
         11    1    4    4    0    0 -0.72142135486E+02  0.30641496462E+02 -0.12060351774E+03  0.14383531385E+03  0.00000000000E+00 0. -1.
</event>
<event>
 8    1  0.4798744E-006  0.8797254E+02  0.7561462E-02  0.1307837E+00
          1   -1    0    0  501    0  0.00000000000E+00  0.00000000000E+00  0.15785798388E+03  0.15785798388E+03  0.00000000000E+00 0. -1.
         -1   -1    0    0    0  501 -0.00000000000E+00 -0.00000000000E+00 -0.78755231086E+02  0.78755231086E+02  0.00000000000E+00 0.  1.
         23    2    1    2    0    0 -0.10447587346E+02 -0.23589079474E+02  0.39664776313E+02  0.13372686185E+03  0.12507590634E+03 0.  0.
         23    2    1    2    0    0  0.10447587346E+02  0.23589079474E+02  0.39437976484E+02  0.10288635312E+03  0.91458465535E+02 0.  0.
          5    1    3    3  502    0  0.83863595294E+01 -0.73172937185E+02  0.15944175128E+02  0.75473829126E+02  0.41800000000E+01 0. -1.
         -5    1    3    3    0  502 -0.18833946876E+02  0.49583857711E+02  0.23720601185E+02  0.58253032719E+02  0.41800000000E+01 0. -1.
        -11    1    4    4    0    0  0.26550866814E+02  0.12039801269E+02  0.64590691256E+02  0.70865102413E+02  0.00000000000E+00 0. -1.
         11    1    4    4    0    0 -0.16103279467E+02  0.11549278205E+02 -0.25152714772E+02  0.32021250710E+02  0.00000000000E+00 0.  1.
</event>
<event>
 8    1  0.4798744E-006  0.7566743E+02  0.7561462E-02  0.1341817E+00
         -2   -1    0    0    0  501 -0.00000000000E+00  0.00000000000E+00  0.28090105218E+02  0.28090105218E+02  0.00000000000E+00 0.  1.
          2   -1    0    0  501    0  0.00000000000E+00 -0.00000000000E+00 -0.56271869124E+03  0.56271869124E+03  0.00000000000E+00 0. -1.
         23    2    1    2    0    0  0.60259981724E+02  0.13476061092E+02 -0.27745885343E+03  0.31055029899E+03  0.12508078684E+03 0.  0.
         23    2    1    2    0    0 -0.60259981724E+02 -0.13476061092E+02 -0.25716973258E+03  0.28025849746E+03  0.92712913988E+02 0.  0.
          5    1    3    3  502    0  0.46416705231E+02 -0.20556790670E+02 -0.26742878747E+03  0.27223651654E+03  0.41800000000E+01 0.  1.
         -5    1    3    3    0  502  0.13843276493E+02  0.34032851761E+02 -0.10030065960E+02  0.38313782458E+02  0.41800000000E+01 0.  1.
        -11    1    4    4    0    0 -0.43795707167E+02 -0.16271022876E+02 -0.25925305567E+03  0.26342922584E+03  0.00000000000E+00 0. -1.
         11    1    4    4    0    0 -0.16464274557E+02  0.27949617846E+01  0.20833230883E+01  0.16829271617E+02  0.00000000000E+00 0.  1.
</event>
<event>
 6    1  0.4798744E-006  0.1258865E+03  0.7561462E-02  0.1233690E+00
          2   -1    0    0  501    0  0.00000000000E+00  0.00000000000E+00  0.84187402165E+03  0.84187402165E+03  0.00000000000E+00 0. -1.
         -2   -1    0    0    0  501 -0.00000000000E+00 -0.00000000000E+00 -0.29873747839E+02  0.29873747839E+02  0.00000000000E+00 0.  1.
          5    1    1    2  502    0 -0.10766816862E+02  0.55950031890E+02  0.29023214490E+03  0.29580145494E+03  0.41800000000E+01 0. -1.
         -5    1    1    2    0  502  0.10168685265E+02 -0.65459646471E+02  0.55318008627E+02  0.86405566688E+02  0.41800000000E+01 0.  1.
        -11    1    1    2    0    0  0.62286097056E+02  0.20570575705E+02  0.36068971758E+03  0.36660575397E+03  0.00000000000E+00 0.  1.
         11    1    1    2    0    0 -0.61687965460E+02 -0.11060961124E+02  0.10576040270E+03  0.12293499389E+03  0.00000000000E+00 0. -1.
</event>
<event>
 8    1  0.4798744E-006  0.8103309E+02  0.7561462E-02  0.1326145E+00
         -1   -1    0    0    0  501 -0.00000000000E+00  0.00000000000E+00  0.26261167984E+03  0.26261167984E+03  0.00000000000E+00 0.  1.
          1   -1    0    0  501    0  0.00000000000E+00 -0.00000000000E+00 -0.59406312148E+02  0.59406312148E+02  0.00000000000E+00 0. -1.
         23    2    1    2    0    0  0.56252695629E+02  0.29692579784E+02  0.12436200078E+03  0.18750868263E+03  0.12509030244E+03 0.  0.
         23    2    1    2    0    0 -0.56252695629E+02 -0.29692579784E+02  0.78843366919E+02  0.13450930936E+03  0.88489901896E+02 0.  0.
          5    1    3    3  502    0  0.46378446762E+02  0.28472559426E+02  0.15003770286E+03  0.15965723173E+03  0.41800000000E+01 0. -1.
         -5    1    3    3    0  502  0.98742488661E+01  0.12200203579E+01 -0.25675702078E+02  0.27851450906E+02  0.41800000000E+01 0. -1.
        -11    1    4    4    0    0 -0.56122185229E+02 -0.50731954461E+02  0.83795830756E+02  0.11289451772E+03  0.00000000000E+00 0.  1.
         11    1    4    4    0    0 -0.13051039983E+00  0.21039374676E+02 -0.49524638368E+01  0.21614791644E+02  0.00000000000E+00 0. -1.
</event>
<event>
 8    1  0.4798744E-006  0.1171658E+03  0.7561462E-02  0.1247847E+00
          2   -1    0    0  501    0  0.00000000000E+00  0.00000000000E+00  0.56235603024E+03  0.56235603024E+03  0.00000000000E+00 0. -1.
         -2   -1    0    0    0  501 -0.00000000000E+00 -0.00000000000E+00 -0.26633168200E+02  0.26633168200E+02  0.00000000000E+00 0.  1.
         23    2    1    2    0    0 -0.39079038912E+02  0.42647372874E+02  0.33111024886E+03  0.35864432548E+03  0.12508311479E+03 0.  0.
         23    2    1    2    0    0  0.39079038912E+02 -0.42647372874E+02  0.20461261317E+03  0.23034487295E+03  0.88580298767E+02 0.  0.
          5    1    3    3  502    0  0.22862418232E+02 -0.32442014828E+02  0.11017105093E+03  0.11717639420E+03  0.41800000000E+01 0. -1.
         -5    1    3    3    0  502 -0.61941457144E+02  0.75089387702E+02  0.22093919793E+03  0.24146793129E+03  0.41800000000E+01 0. -1.
        -11    1    4    4    0    0 -0.15019110151E+02 -0.40116992854E+02  0.46542948952E+02  0.63254983065E+02  0.00000000000E+00 0.  1.
         11    1    4    4    0    0  0.54098149063E+02 -0.25303800201E+01  0.15806966422E+03  0.16708988989E+03  0.00000000000E+00 0. -1.
</event>
<event>
 8    1  0.4798744E-006  0.1425864E+03  0.7561462E-02  0.1209890E+00
         -2   -1    0    0    0  501 -0.00000000000E+00  0.00000000000E+00  0.41424905945E+02  0.41424905945E+02  0.00000000000E+00 0.  1.
          2   -1    0    0  501    0  0.00000000000E+00 -0.00000000000E+00 -0.60025168491E+03  0.60025168491E+03  0.00000000000E+00 0. -1.
         23    2    1    2    0    0 -0.34130560176E+02  0.90755066382E+02 -0.18096992339E+03  0.24041260734E+03  0.12508689533E+03 0.  0.
         23    2    1    2    0    0  0.34130560176E+02 -0.90755066382E+02 -0.37785685557E+03  0.40126398351E+03  0.93997893338E+02 0.  0.
          5    1    3    3  502    0 -0.47302017794E+02 -0.10197104998E+02 -0.26401001888E+02  0.55280621726E+02  0.41800000000E+01 0. -1.
         -5    1    3    3    0  502  0.13171457618E+02  0.10095217138E+03 -0.15456892151E+03  0.18513198561E+03  0.41800000000E+01 0. -1.
        -11    1    4    4    0    0  0.62243830091E+02 -0.32940093183E+02 -0.21157539816E+03  0.22298765264E+03  0.00000000000E+00 0.  1.
         11    1    4    4    0    0 -0.28113269915E+02 -0.57814973199E+02 -0.16628145741E+03  0.17827633087E+03  0.00000000000E+00 0. -1.
</event>
<event>
 8    1  0.4798744E-006  0.1099587E+03  0.7561462E-02  0.1260646E+00
         -4   -1    0    0    0  501 -0.00000000000E+00  0.00000000000E+00  0.19706131193E+03  0.19706131193E+03  0.00000000000E+00 0.  1.
          4   -1    0    0  501    0  0.00000000000E+00 -0.00000000000E+00 -0.68630337300E+02  0.68630337300E+02  0.00000000000E+00 0. -1.
         23    2    1    2    0    0 -0.15931787580E+02  0.39642247494E+02  0.67920755535E+02  0.14861234431E+03  0.12508824968E+03 0.  0.
         23    2    1    2    0    0  0.15931787580E+02 -0.39642247494E+02  0.60510219098E+02  0.11707930492E+03  0.90668337274E+02 0.  0.
          5    1    3    3  502    0 -0.67151929064E+02  0.17912530670E+02  0.60664920743E+02  0.92346875100E+02  0.41800000000E+01 0.  1.
         -5    1    3    3    0  502  0.51220141484E+02  0.21729716825E+02  0.72558347917E+01  0.56265469211E+02  0.41800000000E+01 0.  1.
        -11    1    4    4    0    0 -0.20993132092E+02 -0.51580783900E+02  0.15822389975E+02  0.57893323340E+02  0.00000000000E+00 0. -1.
         11    1    4    4    0    0  0.36924919671E+02  0.11938536406E+02  0.44687829123E+02  0.59185981583E+02  0.00000000000E+00 0.  1.
</event>
<event>
 8    1  0.4798744E-006  0.1340782E+03  0.7561462E-02  0.1221527E+00
         -2   -1    0    0    0  501 -0.00000000000E+00  0.00000000000E+00  0.14569539062E+02  0.14569539062E+02  0.00000000000E+00 0.  1.
          2   -1    0    0  501    0  0.00000000000E+00 -0.00000000000E+00 -0.13825775668E+04  0.13825775668E+04  0.00000000000E+00 0. -1.
         23    2    1    2    0    0  0.28089105787E+02 -0.87796579864E+02 -0.77927636434E+03  0.79461701138E+03  0.12508919000E+03 0.  0.
         23    2    1    2    0    0 -0.28089105787E+02  0.87796579864E+02 -0.58873166339E+03  0.60253009448E+03  0.89108394491E+02 0.  0.
          5    1    3    3  502    0 -0.68825292589E+01  0.22648182392E+02 -0.42929416942E+02  0.49200778588E+02  0.41800000000E+01 0. -1.
         -5    1    3    3    0  502  0.34971635046E+02 -0.11044476226E+03 -0.73634694739E+03  0.74541623279E+03  0.41800000000E+01 0. -1.
        -11    1    4    4    0    0  0.35622200832E+01 -0.17698689414E+02 -0.79829114321E+02  0.81845100722E+02  0.00000000000E+00 0. -1.
         11    1    4    4    0    0 -0.31651325871E+02  0.10549526928E+03 -0.50890254907E+03  0.52068499375E+03  0.00000000000E+00 0.  1.
</event>
<event>
 8    1  0.4798744E-006  0.8863812E+02  0.7561462E-02  0.1306184E+00
         -1   -1    0    0    0  501 -0.00000000000E+00  0.00000000000E+00  0.61801107539E+02  0.61801107539E+02  0.00000000000E+00 0.  1.
          1   -1    0    0  501    0  0.00000000000E+00 -0.00000000000E+00 -0.23630920345E+03  0.23630920345E+03  0.00000000000E+00 0. -1.
         23    2    1    2    0    0 -0.95407663169E+01  0.22934127194E+02 -0.63273768143E+02  0.14236670866E+03  0.12509080536E+03 0.  0.
         23    2    1    2    0    0  0.95407663169E+01 -0.22934127194E+02 -0.11123432776E+03  0.15574360233E+03  0.10614138487E+03 0.  0.
          5    1    3    3  502    0 -0.14328528095E+01  0.73189611775E+02 -0.21577551368E+02  0.76431900813E+02  0.41800000000E+01 0. -1.
         -5    1    3    3    0  502 -0.81079135074E+01 -0.50255484581E+02 -0.41696216776E+02  0.65934807843E+02  0.41800000000E+01 0. -1.
        -11    1    4    4    0    0  0.26960737280E+02 -0.41842751089E+01  0.12053437656E+02  0.29827418128E+02  0.00000000000E+00 0.  1.
         11    1    4    4    0    0 -0.17419970963E+02 -0.18749852085E+02 -0.12328776542E+03  0.12591618420E+03  0.00000000000E+00 0. -1.
</event>
<event>
 8    1  0.4798744E-006  0.1372184E+03  0.7561462E-02  0.1217122E+00
         -1   -1    0    0    0  501 -0.00000000000E+00  0.00000000000E+00  0.43300116878E+03  0.43300116878E+03  0.00000000000E+00 0.  1.
          1   -1    0    0  501    0  0.00000000000E+00 -0.00000000000E+00 -0.55238536731E+02  0.55238536731E+02  0.00000000000E+00 0. -1.
         23    2    1    2    0    0 -0.46887394453E+02  0.75962953448E+02  0.28218813001E+03  0.32131555055E+03  0.12507895206E+03 0.  0.
         23    2    1    2    0    0  0.46887394453E+02 -0.75962953448E+02  0.95574502041E+02  0.16692415497E+03  0.10373229977E+03 0.  0.
          5    1    3    3  502    0 -0.29822780511E+02 -0.24587914163E+02  0.14619822281E+03  0.15127906832E+03  0.41800000000E+01 0. -1.
         -5    1    3    3    0  502 -0.17064613942E+02  0.10055086761E+03  0.13598990720E+03  0.17003648222E+03  0.41800000000E+01 0. -1.
        -11    1    4    4    0    0 -0.51967968383E+01 -0.80992335468E+02  0.75599812215E+02  0.11091481736E+03  0.00000000000E+00 0.  1.
         11    1    4    4    0    0  0.52084191291E+02  0.50293820203E+01  0.19974689826E+02  0.56009337611E+02  0.00000000000E+00 0. -1.
</event>
<event>
 8    1  0.4798744E-006  0.1136744E+03  0.7561462E-02  0.1253913E+00
          3   -1    0    0  501    0  0.00000000000E+00  0.00000000000E+00  0.15075697801E+02  0.15075697801E+02  0.00000000000E+00 0. -1.
         -3   -1    0    0    0  501 -0.00000000000E+00 -0.00000000000E+00 -0.11495507052E+04  0.11495507052E+04  0.00000000000E+00 0.  1.
         23    2    1    2    0    0 -0.38800723239E+02 -0.55347316983E+01 -0.87770911580E+03  0.88744586261E+03  0.12510290850E+03 0.  0.
         23    2    1    2    0    0  0.38800723239E+02  0.55347316983E+01 -0.25676589156E+03  0.27718054036E+03  0.96768794074E+02 0.  0.
          5    1    3    3  502    0  0.45914393287E+02 -0.25424799396E+01 -0.29726766750E+03  0.30083240227E+03  0.41800000000E+01 0.  1.
         -5    1    3    3    0  502 -0.84715116526E+02 -0.29922517586E+01 -0.58044144831E+03  0.58661346034E+03  0.41800000000E+01 0.  1.
        -11    1    4    4    0    0 -0.27406932934E+02  0.11719720339E+02 -0.13688180817E+03  0.14008968993E+03  0.00000000000E+00 0.  1.
         11    1    4    4    0    0  0.66207656173E+02 -0.61849886409E+01 -0.11988408339E+03  0.13709085043E+03  0.00000000000E+00 0. -1.
</event>
<event>
 8    1  0.4798744E-006  0.1223257E+03  0.7561462E-02  0.1239309E+00
         -2   -1    0    0    0  501 -0.00000000000E+00  0.00000000000E+00  0.68293278954E+02  0.68293278954E+02  0.00000000000E+00 0.  1.
          2   -1    0    0  501    0  0.00000000000E+00 -0.00000000000E+00 -0.22472205842E+03  0.22472205842E+03  0.00000000000E+00 0. -1.
         23    2    1    2    0    0  0.38138322554E+02  0.45206127737E+02 -0.68569717727E+02  0.15442512374E+03  0.12508871660E+03 0.  0.
         23    2    1    2    0    0 -0.38138322554E+02 -0.45206127737E+02 -0.87859061736E+02  0.13859021363E+03  0.89386279442E+02 0.  0.
          5    1    3    3  502    0  0.83989029201E+02  0.29393984058E+02 -0.37359578470E+02  0.96599036374E+02  0.41800000000E+01 0.  1.
         -5    1    3    3    0  502 -0.45850706648E+02  0.15812143679E+02 -0.31210139258E+02  0.57826087368E+02  0.41800000000E+01 0.  1.
        -11    1    4    4    0    0  0.23761428047E+02  0.81978012637E+01 -0.16437537756E+02  0.30033349062E+02  0.00000000000E+00 0.  1.
         11    1    4    4    0    0 -0.61899750600E+02 -0.53403929000E+02 -0.71421523979E+02  0.10855686457E+03  0.00000000000E+00 0. -1.
</event>
<event>
 8    1  0.4798744E-006  0.8430050E+02  0.7561462E-02  0.1317272E+00
          2   -1    0    0  501    0  0.00000000000E+00  0.00000000000E+00  0.74896425087E+02  0.74896425087E+02  0.00000000000E+00 0. -1.
         -2   -1    0    0    0  501 -0.00000000000E+00 -0.00000000000E+00 -0.18139329047E+03  0.18139329047E+03  0.00000000000E+00 0.  1.
         23    2    1    2    0    0  0.28766879411E+02  0.19645636014E+02 -0.94247350769E+02  0.16044444564E+03  0.12508546136E+03 0.  0.
         23    2    1    2    0    0 -0.28766879411E+02 -0.19645636014E+02 -0.12249514617E+02  0.95845269919E+02  0.88446485471E+02 0.  0.
          5    1    3    3  502    0  0.54047759877E+02  0.30183519086E+02  0.16986860089E+00  0.62046002510E+02  0.41800000000E+01 0. -1.
         -5    1    3    3    0  502 -0.25280880466E+02 -0.10537883072E+02 -0.94417219370E+02  0.98398443129E+02  0.41800000000E+01 0. -1.
        -11    1    4    4    0    0 -0.21992955545E+01  0.25968627774E+02 -0.30383974086E+02  0.40029893963E+02  0.00000000000E+00 0.  1.
         11    1    4    4    0    0 -0.26567583857E+02 -0.45614263788E+02  0.18134459469E+02  0.55815375956E+02  0.00000000000E+00 0. -1.
</event>
<event>
 8    1  0.4798744E-006  0.1457932E+03  0.7561462E-02  0.1205740E+00
          2   -1    0    0  501    0  0.00000000000E+00  0.00000000000E+00  0.24872695423E+03  0.24872695423E+03  0.00000000000E+00 0. -1.
         -2   -1    0    0    0  501 -0.00000000000E+00 -0.00000000000E+00 -0.10574939481E+03  0.10574939481E+03  0.00000000000E+00 0.  1.
         23    2    1    2    0    0  0.11047337407E+03  0.45164418616E+02  0.69006926649E+02  0.18616671659E+03  0.12510755113E+03 0.  0.
         23    2    1    2    0    0 -0.11047337407E+03 -0.45164418616E+02  0.73970632775E+02  0.16830963245E+03  0.92802407163E+02 0.  0.
          5    1    3    3  502    0  0.73393265819E+02  0.66868089364E+02 -0.60742962441E+01  0.99560445548E+02  0.41800000000E+01 0. -1.
         -5    1    3    3    0  502  0.37080108254E+02 -0.21703670748E+02  0.75081222893E+02  0.86606271038E+02  0.41800000000E+01 0. -1.
        -11    1    4    4    0    0 -0.73180232114E+02  0.18299567326E+02  0.23317176607E+02  0.78955121819E+02  0.00000000000E+00 0.  1.
         11    1    4    4    0    0 -0.37293141959E+02 -0.63463985942E+02  0.50653456168E+02  0.89354510633E+02  0.00000000000E+00 0. -1.
</event>
<event>
 8    1  0.4798744E-006  0.9180905E+02  0.7561462E-02  0.1298529E+00
          3   -1    0    0  501    0  0.00000000000E+00  0.00000000000E+00  0.96550792922E+02  0.96550792922E+02  0.00000000000E+00 0. -1.
         -3   -1    0    0    0  501 -0.00000000000E+00 -0.00000000000E+00 -0.17210398167E+03  0.17210398167E+03  0.00000000000E+00 0.  1.
         23    2    1    2    0    0  0.36778932613E-01  0.30742596161E+02 -0.10584136868E+03  0.16671865591E+03  0.12509039264E+03 0.  0.
         23    2    1    2    0    0 -0.36778932613E-01 -0.30742596161E+02  0.30288179937E+02  0.10193611868E+03  0.92349823371E+02 0.  0.
          5    1    3    3  502    0  0.25187277758E+01 -0.28543137227E+02 -0.10318874636E+03  0.10717483122E+03  0.41800000000E+01 0.  1.
         -5    1    3    3    0  502 -0.24819488432E+01  0.59285733387E+02 -0.26526223259E+01  0.59543824688E+02  0.41800000000E+01 0.  1.
        -11    1    4    4    0    0  0.44761815395E+02 -0.10289142094E+02  0.25302166667E+02  0.52437450363E+02  0.00000000000E+00 0.  1.
         11    1    4    4    0    0 -0.44798594328E+02 -0.20453454066E+02  0.49860132702E+01  0.49498668319E+02  0.00000000000E+00 0. -1.
</event>
<event>
 8    1  0.4798744E-006  0.8764802E+02  0.7561462E-02  0.1308649E+00
         -2   -1    0    0    0  501 -0.00000000000E+00  0.00000000000E+00  0.24956348186E+03  0.24956348186E+03  0.00000000000E+00 0.  1.
          2   -1    0    0  501    0  0.00000000000E+00 -0.00000000000E+00 -0.59095442258E+02  0.59095442258E+02  0.00000000000E+00 0. -1.
         23    2    1    2    0    0 -0.30832123567E+01  0.48721644771E+02  0.14402279624E+03  0.19691034794E+03  0.12509122441E+03 0.  0.
         23    2    1    2    0    0  0.30832123567E+01 -0.48721644771E+02  0.46445243366E+02  0.11174857618E+03  0.89147511345E+02 0.  0.
          5    1    3    3  502    0 -0.62491751707E+01 -0.33227823368E+02  0.36235566324E+01  0.34259932848E+02  0.41800000000E+01 0.  1.
         -5    1    3    3    0  502  0.31659628141E+01  0.81949468138E+02  0.14039923961E+03  0.16265041510E+03  0.41800000000E+01 0.  1.
        -11    1    4    4    0    0  0.17420520125E+02 -0.17193968727E+02  0.67098519895E+02  0.71423514714E+02  0.00000000000E+00 0.  1.
         11    1    4    4    0    0 -0.14337307769E+02 -0.31527676044E+02 -0.20653276528E+02  0.40325061465E+02  0.00000000000E+00 0. -1.
</event>
<event>
 8    1  0.4798744E-006  0.2420365E+03  0.7561462E-02  0.1118444E+00
          2   -1    0    0  501    0  0.00000000000E+00  0.00000000000E+00  0.46507511940E+03  0.46507511940E+03  0.00000000000E+00 0. -1.
         -2   -1    0    0    0  501 -0.00000000000E+00 -0.00000000000E+00 -0.16035787030E+03  0.16035787030E+03  0.00000000000E+00 0.  1.
         23    2    1    2    0    0  0.21001930832E+03 -0.76553144152E+02  0.26126106653E+02  0.25748678025E+03  0.12509346429E+03 0.  0.
         23    2    1    2    0    0 -0.21001930832E+03  0.76553144152E+02  0.27859114245E+03  0.36794620945E+03  0.88333994859E+02 0.  0.
          5    1    3    3  502    0  0.39661614666E+02  0.30765678919E+02  0.24690436513E+02  0.56095104354E+02  0.41800000000E+01 0.  1.
         -5    1    3    3    0  502  0.17035769366E+03 -0.10731882307E+03  0.14356701399E+01  0.20139167590E+03  0.41800000000E+01 0.  1.
        -11    1    4    4    0    0 -0.10591378389E+03  0.72082929354E+02  0.10574167997E+03  0.16611737178E+03  0.00000000000E+00 0.  1.
         11    1    4    4    0    0 -0.10410552443E+03  0.44702147979E+01  0.17284946248E+03  0.20182883767E+03  0.00000000000E+00 0. -1.
</event>
<event>
 8    1  0.4798744E-006  0.1024719E+03  0.7561462E-02  0.1275182E+00
          2   -1    0    0  501    0  0.00000000000E+00  0.00000000000E+00  0.18026445509E+02  0.18026445509E+02  0.00000000000E+00 0. -1.
         -2   -1    0    0    0  501 -0.00000000000E+00 -0.00000000000E+00 -0.89286781861E+03  0.89286781861E+03  0.00000000000E+00 0.  1.
         23    2    1    2    0    0  0.11508962965E+02 -0.56926981905E+02 -0.59827681519E+03  0.61396746936E+03  0.12509104018E+03 0.  0.
         23    2    1    2    0    0 -0.11508962965E+02  0.56926981905E+02 -0.27656455791E+03  0.29692679476E+03  0.91128641267E+02 0.  0.
          5    1    3    3  502    0  0.13684336642E+02  0.37869090895E+02 -0.12955140298E+03  0.13572902243E+03  0.41800000000E+01 0.  1.
         -5    1    3    3    0  502 -0.21753736767E+01 -0.94796072800E+02 -0.46872541221E+03  0.47823844693E+03  0.41800000000E+01 0.  1.
        -11    1    4    4    0    0  0.39277380161E+01  0.53617498387E+02 -0.27593853840E+03  0.28112691126E+03  0.00000000000E+00 0.  1.
         11    1    4    4    0    0 -0.15436700981E+02  0.33094835187E+01 -0.62601950970E+00  0.15799883505E+02  0.00000000000E+00 0. -1.
</event>
<event>
 8    1  0.4798744E-006  0.1030623E+03  0.7561462E-02  0.1273985E+00
         -1   -1    0    0    0  501 -0.00000000000E+00  0.00000000000E+00  0.16270889389E+02  0.16270889389E+02  0.00000000000E+00 0.  1.
          1   -1    0    0  501    0  0.00000000000E+00 -0.00000000000E+00 -0.88698589786E+03  0.88698589786E+03  0.00000000000E+00 0. -1.
         23    2    1    2    0    0 -0.19788891595E+02 -0.44754716985E+02 -0.60489881590E+03  0.61963186457E+03  0.12508591122E+03 0.  0.
         23    2    1    2    0    0  0.19788891595E+02  0.44754716985E+02 -0.26581619257E+03  0.28362492268E+03  0.85966642427E+02 0.  0.
          5    1    3    3  502    0 -0.70564514051E+02 -0.30497290439E+02 -0.27729041676E+03  0.28777922614E+03  0.41800000000E+01 0.  1.
         -5    1    3    3    0  502  0.50775622456E+02 -0.14257426545E+02 -0.32760839914E+03  0.33185263843E+03  0.41800000000E+01 0.  1.
        -11    1    4    4    0    0  0.40364363740E+02  0.23764043373E+02 -0.23992529381E+03  0.24445481837E+03  0.00000000000E+00 0. -1.
         11    1    4    4    0    0 -0.20575472145E+02  0.20990673612E+02 -0.25890898762E+02  0.39170104306E+02  0.00000000000E+00 0.  1.
</event>
<event>
 8    1  0.4798744E-006  0.1081992E+03  0.7561462E-02  0.1263941E+00
          1   -1    0    0  501    0  0.00000000000E+00  0.00000000000E+00  0.70406197102E+03  0.70406197102E+03  0.00000000000E+00 0. -1.
         -1   -1    0    0    0  501 -0.00000000000E+00 -0.00000000000E+00 -0.17057662844E+02  0.17057662844E+02  0.00000000000E+00 0.  1.
         23    2    1    2    0    0 -0.17053058110E+02 -0.64727949859E+01  0.40235403032E+03  0.42174605474E+03  0.12509302582E+03 0.  0.
         23    2    1    2    0    0  0.17053058110E+02  0.64727949859E+01  0.28465027785E+03  0.29937357912E+03  0.90917849334E+02 0.  0.
          5    1    3    3  502    0 -0.38825001414E+02 -0.57939093552E+02  0.24187108542E+03  0.25176062770E+03  0.41800000000E+01 0.  1.
         -5    1    3    3    0  502  0.21771943304E+02  0.51466298566E+02  0.16048294490E+03  0.16998542705E+03  0.41800000000E+01 0.  1.
        -11    1    4    4    0    0 -0.36525005762E+02  0.52344276303E+01  0.85160595617E+02  0.92810572266E+02  0.00000000000E+00 0. -1.
         11    1    4    4    0    0  0.53578063871E+02  0.12383673556E+01  0.19948968224E+03  0.20656300685E+03  0.00000000000E+00 0.  1.
</event>
<event>
 8    1  0.4798744E-006  0.7073017E+02  0.7561462E-02  0.1357628E+00
         -1   -1    0    0    0  501 -0.00000000000E+00  0.00000000000E+00  0.19348306688E+03  0.19348306688E+03  0.00000000000E+00 0.  1.
          1   -1    0    0  501    0  0.00000000000E+00 -0.00000000000E+00 -0.97495279398E+02  0.97495279398E+02  0.00000000000E+00 0. -1.
         23    2    1    2    0    0  0.14470387693E+02 -0.41047831456E+01  0.13908477162E+03  0.18767164477E+03  0.12509928533E+03 0.  0.
         23    2    1    2    0    0 -0.14470387693E+02  0.41047831456E+01 -0.43096984130E+02  0.10330670151E+03  0.92675148618E+02 0.  0.
          5    1    3    3  502    0  0.51325650848E+02 -0.48504220439E+01  0.91274556238E+01  0.52522679627E+02  0.41800000000E+01 0.  1.
         -5    1    3    3    0  502 -0.36855263155E+02  0.74563889830E+00  0.12995731599E+03  0.13514896514E+03  0.41800000000E+01 0.  1.
        -11    1    4    4    0    0 -0.12524316839E+02  0.26945692648E+02  0.20237593542E+02  0.35951203832E+02  0.00000000000E+00 0.  1.
         11    1    4    4    0    0 -0.19460708538E+01 -0.22840909502E+02 -0.63334577673E+02  0.67355497679E+02  0.00000000000E+00 0. -1.
</event>
<event>
 8    1  0.4798744E-006  0.8023186E+02  0.7561462E-02  0.1328395E+00
         -1   -1    0    0    0  501 -0.00000000000E+00  0.00000000000E+00  0.21357223640E+03  0.21357223640E+03  0.00000000000E+00 0.  1.
          1   -1    0    0  501    0  0.00000000000E+00 -0.00000000000E+00 -0.17017491821E+03  0.17017491821E+03  0.00000000000E+00 0. -1.
         23    2    1    2    0    0  0.33863302713E+02 -0.45830729647E+02  0.16939465199E+03  0.21814765242E+03  0.12508665430E+03 0.  0.
         23    2    1    2    0    0 -0.33863302713E+02  0.45830729647E+02 -0.12599733379E+03  0.16559950219E+03  0.91108111341E+02 0.  0.
          5    1    3    3  502    0  0.42010602706E+02 -0.21312902963E+02  0.18274639003E+03  0.18876664441E+03  0.41800000000E+01 0.  1.
         -5    1    3    3    0  502 -0.81472999931E+01 -0.24517826684E+02 -0.13351738049E+02  0.29381008005E+02  0.41800000000E+01 0.  1.
        -11    1    4    4    0    0  0.19016904436E+02  0.21757782272E+02 -0.95911795152E+02  0.10017043572E+03  0.00000000000E+00 0. -1.
         11    1    4    4    0    0 -0.52880207149E+02  0.24072947375E+02 -0.30085538642E+02  0.65429066468E+02  0.00000000000E+00 0.  1.
</event>
<event>
 8    1  0.4798744E-006  0.1137197E+03  0.7561462E-02  0.1253833E+00
         -2   -1    0    0    0  501 -0.00000000000E+00  0.00000000000E+00  0.30055643529E+02  0.30055643529E+02  0.00000000000E+00 0.  1.
          2   -1    0    0  501    0  0.00000000000E+00 -0.00000000000E+00 -0.70210558548E+03  0.70210558548E+03  0.00000000000E+00 0. -1.
         23    2    1    2    0    0 -0.15992892690E+02 -0.94223318522E+02 -0.33324522076E+03  0.36855718353E+03  0.12509282154E+03 0.  0.
         23    2    1    2    0    0  0.15992892690E+02  0.94223318522E+02 -0.33880472119E+03  0.36360404548E+03  0.91024482522E+02 0.  0.
          5    1    3    3  502    0  0.10871960867E+02 -0.15958610897E+02  0.49443310581E+01  0.20366531478E+02  0.41800000000E+01 0.  1.
         -5    1    3    3    0  502 -0.26864853557E+02 -0.78264707625E+02 -0.33818955182E+03  0.34819065205E+03  0.41800000000E+01 0.  1.
        -11    1    4    4    0    0 -0.21519980520E+02  0.82896027630E+02 -0.17054289489E+03  0.19083956601E+03  0.00000000000E+00 0.  1.
         11    1    4    4    0    0  0.37512873210E+02  0.11327290891E+02 -0.16826182631E+03  0.17276447947E+03  0.00000000000E+00 0. -1.
</event>
<event>
 7    1  0.4798744E-006  0.8567876E+02  0.7561462E-02  0.1313667E+00
          1   -1    0    0  501    0  0.00000000000E+00  0.00000000000E+00  0.43534178701E+03  0.43534178701E+03  0.00000000000E+00 0. -1.
         -1   -1    0    0    0  501 -0.00000000000E+00 -0.00000000000E+00 -0.68207744709E+02  0.68207744709E+02  0.00000000000E+00 0.  1.
         23    2    1    2    0    0  0.35592477796E+02  0.21452909100E+02  0.19560187588E+03  0.21981233857E+03  0.91270578796E+02 0.  0.
          5    1    1    2  502    0 -0.15300277261E+02  0.23898640454E+02  0.21541515564E+03  0.21731637117E+03  0.41800000000E+01 0. -1.
         -5    1    1    2    0  502 -0.20292200535E+02 -0.45351549555E+02 -0.43882989221E+02  0.66420821980E+02  0.41800000000E+01 0.  1.
        -11    1    3    3    0    0 -0.27218194023E+02  0.32008467196E+01  0.10202430448E+03  0.10564106308E+03  0.00000000000E+00 0.  1.
         11    1    3    3    0    0  0.62810671819E+02  0.18252062381E+02  0.93577571403E+02  0.11417127548E+03  0.00000000000E+00 0. -1.
</event>
<event>
 8    1  0.4798744E-006  0.1994584E+03  0.7561462E-02  0.1150197E+00
          2   -1    0    0  501    0  0.00000000000E+00  0.00000000000E+00  0.97797513664E+03  0.97797513664E+03  0.00000000000E+00 0. -1.
         -2   -1    0    0    0  501 -0.00000000000E+00 -0.00000000000E+00 -0.43099875953E+02  0.43099875953E+02  0.00000000000E+00 0.  1.
         23    2    1    2    0    0 -0.14722519090E+03 -0.91542560231E+02  0.46993348055E+03  0.51627591616E+03  0.12509215922E+03 0.  0.
         23    2    1    2    0    0  0.14722519090E+03  0.91542560231E+02  0.46494178014E+03  0.50479909643E+03  0.92714463127E+02 0.  0.
          5    1    3    3  502    0 -0.15040978500E+02 -0.78855052906E+02  0.15965861206E+03  0.17875316838E+03  0.41800000000E+01 0. -1.
         -5    1    3    3    0  502 -0.13218421240E+03 -0.12687507325E+02  0.31027486849E+03  0.33752274778E+03  0.41800000000E+01 0. -1.
        -11    1    4    4    0    0  0.54059913357E+02  0.72742221718E+02  0.14459563791E+03  0.17065111648E+03  0.00000000000E+00 0.  1.
         11    1    4    4    0    0  0.93165277541E+02  0.18800338512E+02  0.32034614223E+03  0.33414797995E+03  0.00000000000E+00 0. -1.
</event>
<event>
 8    1  0.4798744E-006  0.1185388E+03  0.7561462E-02  0.1245527E+00
         -2   -1    0    0    0  501 -0.00000000000E+00  0.00000000000E+00  0.17884104946E+02  0.17884104946E+02  0.00000000000E+00 0.  1.
          2   -1    0    0  501    0  0.00000000000E+00 -0.00000000000E+00 -0.11465959111E+04  0.11465959111E+04  0.00000000000E+00 0. -1.
         23    2    1    2    0    0  0.18371312470E+02  0.90909229995E+02 -0.66382834959E+03  0.68184828681E+03  0.12508803015E+03 0.  0.
         23    2    1    2    0    0 -0.18371312470E+02 -0.90909229995E+02 -0.46488345657E+03  0.48263172924E+03  0.90635338904E+02 0.  0.
          5    1    3    3  502    0  0.28808453851E+02  0.91658657683E+02 -0.24989349760E+03  0.26776009614E+03  0.41800000000E+01 0. -1.
         -5    1    3    3    0  502 -0.10437141381E+02 -0.74942768770E+00 -0.41393485198E+03  0.41408819067E+03  0.41800000000E+01 0. -1.
        -11    1    4    4    0    0  0.33040660308E+02 -0.63005170912E+02 -0.24913977010E+03  0.25909836325E+03  0.00000000000E+00 0.  1.
         11    1    4    4    0    0 -0.51411972778E+02 -0.27904059083E+02 -0.21574368648E+03  0.22353336599E+03  0.00000000000E+00 0. -1.
</event>
<event>
 8    1  0.4798744E-006  0.1242352E+03  0.7561462E-02  0.1236269E+00
         -4   -1    0    0    0  501 -0.00000000000E+00  0.00000000000E+00  0.10813334999E+04  0.10813334999E+04  0.00000000000E+00 0.  1.
          4   -1    0    0  501    0  0.00000000000E+00 -0.00000000000E+00 -0.15839303169E+02  0.15839303169E+02  0.00000000000E+00 0. -1.
         23    2    1    2    0    0 -0.68353519880E+02 -0.84427081826E+01  0.69657018482E+03  0.71105663567E+03  0.12509210109E+03 0.  0.
         23    2    1    2    0    0  0.68353519880E+02  0.84427081826E+01  0.36892401187E+03  0.38611616736E+03  0.90759490728E+02 0.  0.
          5    1    3    3  502    0 -0.25291325977E+02  0.57368836433E+02  0.35556399171E+03  0.36107348167E+03  0.41800000000E+01 0.  1.
         -5    1    3    3    0  502 -0.43062193904E+02 -0.65811544615E+02  0.34100619310E+03  0.34998315400E+03  0.41800000000E+01 0.  1.
        -11    1    4    4    0    0  0.41699355256E+02 -0.35975934225E+02  0.12256693527E+03  0.13437171463E+03  0.00000000000E+00 0.  1.
         11    1    4    4    0    0  0.26654164625E+02  0.44418642407E+02  0.24635707660E+03  0.25174445272E+03  0.00000000000E+00 0. -1.
</event>
<event>
 8    1  0.4798744E-006  0.1190432E+03  0.7561462E-02  0.1244684E+00
          1   -1    0    0  501    0  0.00000000000E+00  0.00000000000E+00  0.10586906679E+03  0.10586906679E+03  0.00000000000E+00 0. -1.
         -1   -1    0    0    0  501 -0.00000000000E+00 -0.00000000000E+00 -0.17926964370E+03  0.17926964370E+03  0.00000000000E+00 0.  1.
         23    2    1    2    0    0  0.13174849023E+02 -0.73178430507E+02 -0.89115484389E+02  0.17063743096E+03  0.12508758510E+03 0.  0.
         23    2    1    2    0    0 -0.13174849023E+02  0.73178430507E+02  0.15714907480E+02  0.11450127954E+03  0.85644178788E+02 0.  0.
          5    1    3    3  502    0  0.12792912583E+02  0.28068154386E+02 -0.55929289715E+02  0.64008106916E+02  0.41800000000E+01 0.  1.
         -5    1    3    3    0  502  0.38193643925E+00 -0.10124658489E+03 -0.33186194675E+02  0.10662932404E+03  0.41800000000E+01 0.  1.
        -11    1    4    4    0    0 -0.44335993332E+02  0.35975313209E+02 -0.12385460381E+02  0.58423480674E+02  0.00000000000E+00 0.  1.
         11    1    4    4    0    0  0.31161144310E+02  0.37203117297E+02  0.28100367861E+02  0.56077798862E+02  0.00000000000E+00 0. -1.
</event>
<event>
 8    1  0.4798744E-006  0.1290957E+03  0.7561462E-02  0.1228804E+00
         -1   -1    0    0    0  501 -0.00000000000E+00  0.00000000000E+00  0.34717848238E+02  0.34717848238E+02  0.00000000000E+00 0.  1.
          1   -1    0    0  501    0  0.00000000000E+00 -0.00000000000E+00 -0.52900525719E+03  0.52900525719E+03  0.00000000000E+00 0. -1.
         23    2    1    2    0    0 -0.23104595645E+02  0.71135937620E+02 -0.23116374606E+03  0.27327358813E+03  0.12509049729E+03 0.  0.
         23    2    1    2    0    0  0.23104595645E+02 -0.71135937620E+02 -0.26312366289E+03  0.29044951730E+03  0.97635629602E+02 0.  0.
          5    1    3    3  502    0 -0.57155396502E+02  0.10155061013E+01 -0.50206751288E+02  0.76196856083E+02  0.41800000000E+01 0. -1.
         -5    1    3    3    0  502  0.34050800857E+02  0.70120431519E+02 -0.18095699477E+03  0.19707673204E+03  0.41800000000E+01 0. -1.
        -11    1    4    4    0    0  0.52039436122E+01  0.24738686709E+02 -0.48036575731E+02  0.54282559419E+02  0.00000000000E+00 0.  1.
         11    1    4    4    0    0  0.17900652033E+02 -0.95874624328E+02 -0.21508708716E+03  0.23616695788E+03  0.00000000000E+00 0. -1.
</event>
<event>
 8    1  0.4798744E-006  0.1385769E+03  0.7561462E-02  0.1215257E+00
         -2   -1    0    0    0  501 -0.00000000000E+00  0.00000000000E+00  0.10743152098E+03  0.10743152098E+03  0.00000000000E+00 0.  1.
          2   -1    0    0  501    0  0.00000000000E+00 -0.00000000000E+00 -0.20417048873E+03  0.20417048873E+03  0.00000000000E+00 0. -1.
         23    2    1    2    0    0 -0.39999128617E+02  0.87000364691E+02 -0.23801351119E+02  0.15931799701E+03  0.12508687425E+03 0.  0.
         23    2    1    2    0    0  0.39999128617E+02 -0.87000364691E+02 -0.72937616630E+02  0.15228401269E+03  0.93281996421E+02 0.  0.
          5    1    3    3  502    0 -0.57802457246E+02  0.11199633433E+03 -0.23896210704E+02  0.12834642283E+03  0.41800000000E+01 0.  1.
         -5    1    3    3    0  502  0.17803328629E+02 -0.24995969643E+02  0.94859584516E-01  0.30971574177E+02  0.41800000000E+01 0.  1.
        -11    1    4    4    0    0  0.55078732304E+02 -0.33434915027E+02 -0.52324042937E+01  0.64644708598E+02  0.00000000000E+00 0.  1.
         11    1    4    4    0    0 -0.15079603687E+02 -0.53565449663E+02 -0.67705212336E+02  0.87639304096E+02  0.00000000000E+00 0. -1.
</event>
<event>
 8    1  0.4798744E-006  0.1385602E+03  0.7561462E-02  0.1215280E+00
          1   -1    0    0  501    0  0.00000000000E+00  0.00000000000E+00  0.34036573200E+03  0.34036573200E+03  0.00000000000E+00 0. -1.
         -1   -1    0    0    0  501 -0.00000000000E+00 -0.00000000000E+00 -0.66742182101E+02  0.66742182101E+02  0.00000000000E+00 0.  1.
         23    2    1    2    0    0 -0.10201782965E+03  0.17263342957E+02  0.15678432501E+03  0.22556844990E+03  0.12487650077E+03 0.  0.
         23    2    1    2    0    0  0.10201782965E+03 -0.17263342957E+02  0.11683922488E+03  0.18153946420E+03  0.92733553861E+02 0.  0.
          5    1    3    3  502    0 -0.11286818394E+03 -0.26981624690E+02  0.11853726164E+03  0.16593911478E+03  0.41800000000E+01 0.  1.
         -5    1    3    3    0  502  0.10850354290E+02  0.44244967646E+02  0.38247063374E+02  0.59629335121E+02  0.41800000000E+01 0.  1.
        -11    1    4    4    0    0  0.77610497573E+02 -0.34940407903E+02  0.31031380087E+02  0.90593421329E+02  0.00000000000E+00 0.  1.
         11    1    4    4    0    0  0.24407332081E+02  0.17677064946E+02  0.85807844797E+02  0.90946042867E+02  0.00000000000E+00 0. -1.
</event>
<event>
 8    1  0.4798744E-006  0.1181966E+03  0.7561462E-02  0.1246102E+00
          1   -1    0    0  501    0  0.00000000000E+00  0.00000000000E+00  0.52948754934E+03  0.52948754934E+03  0.00000000000E+00 0. -1.
         -1   -1    0    0    0  501 -0.00000000000E+00 -0.00000000000E+00 -0.33068840036E+02  0.33068840036E+02  0.00000000000E+00 0.  1.
         23    2    1    2    0    0  0.61820737767E+02  0.33916637478E+01  0.18187843881E+03  0.22925340073E+03  0.12507616975E+03 0.  0.
         23    2    1    2    0    0 -0.61820737767E+02 -0.33916637478E+01  0.31454027049E+03  0.33330298865E+03  0.91224960835E+02 0.  0.
          5    1    3    3  502    0 -0.21488624570E+02  0.31709372738E+02  0.16579910426E+02  0.41947719069E+02  0.41800000000E+01 0. -1.
         -5    1    3    3    0  502  0.83309362337E+02 -0.28317708990E+02  0.16529852838E+03  0.18730568166E+03  0.41800000000E+01 0. -1.
        -11    1    4    4    0    0 -0.17423164325E+02 -0.45413180840E+02  0.12410213609E+03  0.13329390021E+03  0.00000000000E+00 0. -1.
         11    1    4    4    0    0 -0.44397573442E+02  0.42021517092E+02  0.19043813440E+03  0.20000908844E+03  0.00000000000E+00 0.  1.
</event>
<event>
 8    1  0.4798744E-006  0.1129888E+03  0.7561462E-02  0.1255133E+00
         -2   -1    0    0    0  501 -0.00000000000E+00  0.00000000000E+00  0.25703041911E+02  0.25703041911E+02  0.00000000000E+00 0.  1.
          2   -1    0    0  501    0  0.00000000000E+00 -0.00000000000E+00 -0.69032991869E+03  0.69032991869E+03  0.00000000000E+00 0. -1.
         23    2    1    2    0    0  0.10726843239E+02 -0.54367445890E+02 -0.21698275249E+03  0.25651413108E+03  0.12508836968E+03 0.  0.
         23    2    1    2    0    0 -0.10726843239E+02  0.54367445890E+02 -0.44764412429E+03  0.45951882952E+03  0.87757668232E+02 0.  0.
          5    1    3    3  502    0  0.47921807913E+02  0.14041912327E+02 -0.43682271648E+02  0.66477727336E+02  0.41800000000E+01 0. -1.
         -5    1    3    3    0  502 -0.37194964674E+02 -0.68409358217E+02 -0.17330048084E+03  0.19003640374E+03  0.41800000000E+01 0. -1.
        -11    1    4    4    0    0 -0.46063304021E+02  0.30976335453E+02 -0.32629720441E+03  0.33098523674E+03  0.00000000000E+00 0. -1.
         11    1    4    4    0    0  0.35336460781E+02  0.23391110437E+02 -0.12134691988E+03  0.12853359278E+03  0.00000000000E+00 0.  1.
</event>
<event>
 7    1  0.4798744E-006  0.1590762E+03  0.7561462E-02  0.1189744E+00
         -1   -1    0    0    0  501 -0.00000000000E+00  0.00000000000E+00  0.31180726533E+03  0.31180726533E+03  0.00000000000E+00 0.  1.
          1   -1    0    0  501    0  0.00000000000E+00 -0.00000000000E+00 -0.29864592375E+03  0.29864592375E+03  0.00000000000E+00 0. -1.
         23    2    1    2    0    0 -0.66572446940E+02  0.66052541866E+02  0.14222962296E+03  0.21135412403E+03  0.12508585498E+03 0.  0.
          5    1    3    3  502    0 -0.28568835274E+02 -0.25529920406E+02  0.76379204790E+00  0.38548812733E+02  0.41800000000E+01 0.  1.
         -5    1    3    3    0  502 -0.38003611666E+02  0.91582462272E+02  0.14146583092E+03  0.17280531130E+03  0.41800000000E+01 0.  1.
        -11    1    1    2    0    0  0.11177061175E+03 -0.15968901252E+02  0.10580245783E+03  0.15473149499E+03  0.00000000000E+00 0.  1.
         11    1    1    2    0    0 -0.45198164806E+02 -0.50083640614E+02 -0.23487073922E+03  0.24436757007E+03  0.00000000000E+00 0. -1.
</event>
<event>
 8    1  0.4798744E-006  0.8981570E+02  0.7561462E-02  0.1303299E+00
         -2   -1    0    0    0  501 -0.00000000000E+00  0.00000000000E+00  0.65544786289E+03  0.65544786289E+03  0.00000000000E+00 0.  1.
          2   -1    0    0  501    0  0.00000000000E+00 -0.00000000000E+00 -0.30687761816E+02  0.30687761816E+02  0.00000000000E+00 0. -1.
         23    2    1    2    0    0 -0.19199110668E+02 -0.80810859046E+02  0.24934537330E+03  0.29107069621E+03  0.12510009679E+03 0.  0.
         23    2    1    2    0    0  0.19199110668E+02  0.80810859046E+02  0.37541472778E+03  0.39506492850E+03  0.90780389443E+02 0.  0.
          5    1    3    3  502    0 -0.14311314812E+02 -0.47600005629E+01 -0.11414420061E+02  0.19370924664E+02  0.41800000000E+01 0. -1.
         -5    1    3    3    0  502 -0.48877958558E+01 -0.76050858483E+02  0.26075979336E+03  0.27169977155E+03  0.41800000000E+01 0. -1.
        -11    1    4    4    0    0  0.26511942318E+02  0.59872878358E+02  0.36452120465E+03  0.37035571184E+03  0.00000000000E+00 0.  1.
         11    1    4    4    0    0 -0.73128316504E+01  0.20937980688E+02  0.10893523126E+02  0.24709216664E+02  0.00000000000E+00 0. -1.
</event>
<event>
 8    1  0.4798744E-006  0.3126989E+03  0.7561462E-02  0.1079059E+00
         -2   -1    0    0    0  501 -0.00000000000E+00  0.00000000000E+00  0.19781729123E+03  0.19781729123E+03  0.00000000000E+00 0.  1.
          2   -1    0    0  501    0  0.00000000000E+00 -0.00000000000E+00 -0.57069873779E+03  0.57069873779E+03  0.00000000000E+00 0. -1.
         23    2    1    2    0    0  0.29195272620E+01  0.30241107253E+03 -0.70011614947E+02  0.33467819488E+03  0.12508751926E+03 0.  0.
         23    2    1    2    0    0 -0.29195272620E+01 -0.30241107253E+03 -0.30286983162E+03  0.43383783413E+03  0.70881245723E+02 0.  0.
          5    1    3    3  502    0  0.46170119186E+02  0.25024635407E+03 -0.31023076110E+02  0.25638802874E+03  0.41800000000E+01 0.  1.
         -5    1    3    3    0  502 -0.43250591924E+02  0.52164718458E+02 -0.38988538837E+02  0.78290166140E+02  0.41800000000E+01 0.  1.
        -11    1    4    4    0    0  0.78832995070E+01 -0.10489464624E+03 -0.15296294961E+03  0.18564131322E+03  0.00000000000E+00 0. -1.
         11    1    4    4    0    0 -0.10802826769E+02 -0.19751642629E+03 -0.14990688200E+03  0.24819652091E+03  0.00000000000E+00 0.  1.
</event>
<event>
 8    1  0.4798744E-006  0.1210419E+03  0.7561462E-02  0.1241388E+00
         -3   -1    0    0    0  501 -0.00000000000E+00  0.00000000000E+00  0.94871784719E+02  0.94871784719E+02  0.00000000000E+00 0.  1.
          3   -1    0    0  501    0  0.00000000000E+00 -0.00000000000E+00 -0.16345634363E+03  0.16345634363E+03  0.00000000000E+00 0. -1.
         23    2    1    2    0    0  0.44764778958E+02  0.31891030877E+02 -0.11683168679E+02  0.13712873466E+03  0.12508745003E+03 0.  0.
         23    2    1    2    0    0 -0.44764778958E+02 -0.31891030877E+02 -0.56901390231E+02  0.12119939368E+03  0.91818307182E+02 0.  0.
          5    1    3    3  502    0  0.79099276448E+02 -0.11851964560E+02  0.29237283689E+00  0.80091962645E+02  0.41800000000E+01 0.  1.
         -5    1    3    3    0  502 -0.34334497490E+02  0.43742995437E+02 -0.11975541516E+02  0.57036772018E+02  0.41800000000E+01 0.  1.
        -11    1    4    4    0    0 -0.42346875790E+02  0.25072107816E+02 -0.33698270311E+02  0.59644294794E+02  0.00000000000E+00 0. -1.
         11    1    4    4    0    0 -0.24179031678E+01 -0.56963138692E+02 -0.23203119920E+02  0.61555098891E+02  0.00000000000E+00 0.  1.
</event>
<event>
 8    1  0.4798744E-006  0.1321972E+03  0.7561462E-02  0.1224231E+00
          1   -1    0    0  501    0  0.00000000000E+00  0.00000000000E+00  0.21489668994E+03  0.21489668994E+03  0.00000000000E+00 0. -1.
         -1   -1    0    0    0  501 -0.00000000000E+00 -0.00000000000E+00 -0.84587047326E+02  0.84587047326E+02  0.00000000000E+00 0.  1.
         23    2    1    2    0    0 -0.73623507932E+01  0.66178612062E+02  0.52231837126E+02  0.15102965884E+03  0.12509188677E+03 0.  0.
         23    2    1    2    0    0  0.73623507932E+01 -0.66178612062E+02  0.78077805492E+02  0.14845407843E+03  0.10727840785E+03 0.  0.
          5    1    3    3  502    0  0.81413916017E+01  0.10052041193E+03  0.51024643287E+02  0.11310005347E+03  0.41800000000E+01 0.  1.
         -5    1    3    3    0  502 -0.15503742395E+02 -0.34341799868E+02  0.12071938392E+01  0.37929605368E+02  0.41800000000E+01 0.  1.
        -11    1    4    4    0    0  0.36319642328E+02  0.15048232936E+02  0.17287229877E+02  0.42946641896E+02  0.00000000000E+00 0.  1.
         11    1    4    4    0    0 -0.28957291535E+02 -0.81226844998E+02  0.60790575614E+02  0.10550743654E+03  0.00000000000E+00 0. -1.
</event>
<event>
 8    1  0.4798744E-006  0.9451953E+02  0.7561462E-02  0.1292262E+00
          1   -1    0    0  501    0  0.00000000000E+00  0.00000000000E+00  0.64416033880E+03  0.64416033880E+03  0.00000000000E+00 0. -1.
         -1   -1    0    0    0  501 -0.00000000000E+00 -0.00000000000E+00 -0.22820754105E+02  0.22820754105E+02  0.00000000000E+00 0.  1.
         23    2    1    2    0    0 -0.17471170390E+02 -0.94679936236E+01  0.21110034858E+03  0.24618282208E+03  0.12509092701E+03 0.  0.
         23    2    1    2    0    0  0.17471170390E+02  0.94679936236E+01  0.41023923612E+03  0.42079827082E+03  0.91542717794E+02 0.  0.
          5    1    3    3  502    0  0.34262684921E+02 -0.23370967974E+02  0.17856946587E+03  0.18337028185E+03  0.41800000000E+01 0.  1.
         -5    1    3    3    0  502 -0.51733855311E+02  0.13902974351E+02  0.32530882703E+02  0.62812540234E+02  0.41800000000E+01 0.  1.
        -11    1    4    4    0    0  0.29847645594E+02  0.46120678374E+02  0.23374440842E+03  0.24011340527E+03  0.00000000000E+00 0.  1.
         11    1    4    4    0    0 -0.12376475205E+02 -0.36652684750E+02  0.17649482770E+03  0.18068486556E+03  0.00000000000E+00 0. -1.
</event>
<event>
 8    1  0.4798744E-006  0.1165678E+03  0.7561462E-02  0.1248869E+00
         -1   -1    0    0    0  501 -0.00000000000E+00  0.00000000000E+00  0.22690422918E+02  0.22690422918E+02  0.00000000000E+00 0.  1.
          1   -1    0    0  501    0  0.00000000000E+00 -0.00000000000E+00 -0.86656523503E+03  0.86656523503E+03  0.00000000000E+00 0. -1.
         23    2    1    2    0    0 -0.28553006674E+02 -0.77490574961E+02 -0.36081918520E+03  0.39071467725E+03  0.12508961273E+03 0.  0.
         23    2    1    2    0    0  0.28553006674E+02  0.77490574961E+02 -0.48305562691E+03  0.49854098070E+03  0.91544018622E+02 0.  0.
          5    1    3    3  502    0 -0.43974546611E+02 -0.84809239129E+02 -0.36067910685E+03  0.37313973028E+03  0.41800000000E+01 0. -1.
         -5    1    3    3    0  502  0.15421539937E+02  0.73186641679E+01 -0.14007834947E+00  0.17574946975E+02  0.41800000000E+01 0. -1.
        -11    1    4    4    0    0  0.38503936980E+02  0.93483128298E+02 -0.44130670443E+03  0.45273972193E+03  0.00000000000E+00 0. -1.
         11    1    4    4    0    0 -0.99509303056E+01 -0.15992553337E+02 -0.41748922485E+02  0.45801258770E+02  0.00000000000E+00 0.  1.
</event>
<event>
 8    1  0.4798744E-006  0.1704587E+03  0.7561462E-02  0.1177370E+00
         -2   -1    0    0    0  501 -0.00000000000E+00  0.00000000000E+00  0.26926099353E+02  0.26926099353E+02  0.00000000000E+00 0.  1.
          2   -1    0    0  501    0  0.00000000000E+00 -0.00000000000E+00 -0.11734293675E+04  0.11734293675E+04  0.00000000000E+00 0. -1.
         23    2    1    2    0    0 -0.12338688964E+03  0.47152798579E+02 -0.44307610640E+03  0.47896992349E+03  0.12509212843E+03 0.  0.
         23    2    1    2    0    0  0.12338688964E+03 -0.47152798579E+02 -0.70342716171E+03  0.72138554333E+03  0.90219838971E+02 0.  0.
          5    1    3    3  502    0  0.11924651215E+02 -0.25326646529E+02 -0.64567934400E+02  0.70499126829E+02  0.41800000000E+01 0. -1.
         -5    1    3    3    0  502 -0.13531154085E+03  0.72479445108E+02 -0.37850817200E+03  0.40847079666E+03  0.41800000000E+01 0. -1.
        -11    1    4    4    0    0  0.12297214515E+03 -0.66434240185E+02 -0.64032540703E+03  0.65540238300E+03  0.00000000000E+00 0.  1.
         11    1    4    4    0    0  0.41474448578E+00  0.19281441607E+02 -0.63101754674E+02  0.65983160324E+02  0.00000000000E+00 0. -1.
</event>
<event>
 8    1  0.4798744E-006  0.1650813E+03  0.7561462E-02  0.1183077E+00
          2   -1    0    0  501    0  0.00000000000E+00  0.00000000000E+00  0.46371846792E+02  0.46371846792E+02  0.00000000000E+00 0. -1.
         -2   -1    0    0    0  501 -0.00000000000E+00 -0.00000000000E+00 -0.66161200068E+03  0.66161200068E+03  0.00000000000E+00 0.  1.
         23    2    1    2    0    0 -0.92394434687E+02  0.97631108527E+02 -0.39077702548E+03  0.43176901750E+03  0.12509690609E+03 0.  0.
         23    2    1    2    0    0  0.92394434687E+02 -0.97631108527E+02 -0.22446312841E+03  0.27621482998E+03  0.88557164421E+02 0.  0.
          5    1    3    3  502    0 -0.97407057840E+02  0.30480864430E+02 -0.31068954049E+03  0.32705149592E+03  0.41800000000E+01 0. -1.
         -5    1    3    3    0  502  0.50126231535E+01  0.67150244097E+02 -0.80087484988E+02  0.10471752158E+03  0.41800000000E+01 0. -1.
        -11    1    4    4    0    0  0.10291110500E+03 -0.55099803430E+02 -0.17186173688E+03  0.20775740774E+03  0.00000000000E+00 0.  1.
         11    1    4    4    0    0 -0.10516670310E+02 -0.42531305098E+02 -0.52601391532E+02  0.68457422233E+02  0.00000000000E+00 0. -1.
</event>
<event>
 8    1  0.4798744E-006  0.8683331E+02  0.7561462E-02  0.1310707E+00
         -1   -1    0    0    0  501 -0.00000000000E+00  0.00000000000E+00  0.18553488141E+03  0.18553488141E+03  0.00000000000E+00 0.  1.
          1   -1    0    0  501    0  0.00000000000E+00 -0.00000000000E+00 -0.21107557214E+03  0.21107557214E+03  0.00000000000E+00 0. -1.
         23    2    1    2    0    0  0.38752849121E+01  0.43938082302E+02  0.14565795853E+03  0.19700203012E+03  0.12509191052E+03 0.  0.
         23    2    1    2    0    0 -0.38752849121E+01 -0.43938082302E+02 -0.17119864926E+03  0.19960842343E+03  0.92676708445E+02 0.  0.
          5    1    3    3  502    0  0.32788283838E+02  0.19787283615E+01 -0.88330169557E+01  0.34270709235E+02  0.41800000000E+01 0. -1.
         -5    1    3    3    0  502 -0.28912998925E+02  0.41959353941E+02  0.15449097548E+03  0.16273132088E+03  0.41800000000E+01 0. -1.
        -11    1    4    4    0    0  0.10924588559E+02  0.20543741960E+02 -0.98934059114E+02  0.10163336077E+03  0.00000000000E+00 0. -1.
         11    1    4    4    0    0 -0.14799873471E+02 -0.64481824262E+02 -0.72264590143E+02  0.97975062661E+02  0.00000000000E+00 0.  1.
</event>
<event>
 8    1  0.4798744E-006  0.1021366E+03  0.7561462E-02  0.1275866E+00
         -2   -1    0    0    0  501 -0.00000000000E+00  0.00000000000E+00  0.12087861481E+03  0.12087861481E+03  0.00000000000E+00 0.  1.
          2   -1    0    0  501    0  0.00000000000E+00 -0.00000000000E+00 -0.15262208365E+03  0.15262208365E+03  0.00000000000E+00 0. -1.
         23    2    1    2    0    0 -0.19526021535E+02 -0.43715568472E+02  0.50677451193E+02  0.14320479047E+03  0.12508833483E+03 0.  0.
         23    2    1    2    0    0  0.19526021535E+02  0.43715568472E+02 -0.82420920028E+02  0.13029590799E+03  0.88834110213E+02 0.  0.
          5    1    3    3  502    0  0.31324822321E+02  0.18897141694E+02  0.50421799919E+02  0.62435380712E+02  0.41800000000E+01 0.  1.
         -5    1    3    3    0  502 -0.50850843856E+02 -0.62612710166E+02  0.25565127462E+00  0.80769409758E+02  0.41800000000E+01 0.  1.
        -11    1    4    4    0    0 -0.27187428122E+02  0.22878268017E+02 -0.27766389727E+01  0.35641003344E+02  0.00000000000E+00 0.  1.
         11    1    4    4    0    0  0.46713449658E+02  0.20837300455E+02 -0.79644281056E+02  0.94654904649E+02  0.00000000000E+00 0. -1.
</event>
<event>
 8    1  0.4798744E-006  0.1183162E+03  0.7561462E-02  0.1245901E+00
          2   -1    0    0  501    0  0.00000000000E+00  0.00000000000E+00  0.31553145068E+03  0.31553145068E+03  0.00000000000E+00 0. -1.
         -2   -1    0    0    0  501 -0.00000000000E+00 -0.00000000000E+00 -0.66371254506E+02  0.66371254506E+02  0.00000000000E+00 0.  1.
         23    2    1    2    0    0 -0.72140004599E+01  0.85544514975E+02  0.80509402792E+02  0.17173709346E+03  0.12506781955E+03 0.  0.
         23    2    1    2    0    0  0.72140004599E+01 -0.85544514975E+02  0.16865079339E+03  0.21016561173E+03  0.91414377417E+02 0.  0.
          5    1    3    3  502    0  0.28103814342E+02  0.14107657930E+02 -0.24332730626E+02  0.39980052183E+02  0.41800000000E+01 0. -1.
         -5    1    3    3    0  502 -0.35317814802E+02  0.71436857044E+02  0.10484213342E+03  0.13175704128E+03  0.41800000000E+01 0. -1.
        -11    1    4    4    0    0 -0.19926273396E+02 -0.94462996676E+02  0.13598332738E+03  0.16676864045E+03  0.00000000000E+00 0.  1.
         11    1    4    4    0    0  0.27140273856E+02  0.89184817010E+01  0.32667466004E+02  0.43396971276E+02  0.00000000000E+00 0. -1.
</event>
<event>
 8    1  0.4798744E-006  0.1450819E+03  0.7561462E-02  0.1206650E+00
         -3   -1    0    0    0  501 -0.00000000000E+00  0.00000000000E+00  0.17059927304E+03  0.17059927304E+03  0.00000000000E+00 0.  1.
          3   -1    0    0  501    0  0.00000000000E+00 -0.00000000000E+00 -0.13465967605E+03  0.13465967605E+03  0.00000000000E+00 0. -1.
         23    2    1    2    0    0  0.18817052377E+02 -0.10384462530E+03  0.22298109264E+02  0.16517240646E+03  0.12508769130E+03 0.  0.
         23    2    1    2    0    0 -0.18817052377E+02  0.10384462530E+03  0.13641487725E+02  0.14008654263E+03  0.91106320164E+02 0.  0.
          5    1    3    3  502    0 -0.52625039057E+02 -0.54399222348E+02  0.18888465630E+02  0.78121166541E+02  0.41800000000E+01 0.  1.
         -5    1    3    3    0  502  0.71442091434E+02 -0.49445402956E+02  0.34096436341E+01  0.87051239920E+02  0.41800000000E+01 0.  1.
        -11    1    4    4    0    0 -0.72371860929E+01  0.11261651209E+03  0.31406870415E+02  0.11713772734E+03  0.00000000000E+00 0.  1.
         11    1    4    4    0    0 -0.11579866284E+02 -0.87718867857E+01 -0.17765382690E+02  0.22948815286E+02  0.00000000000E+00 0. -1.
</event>
<event>
 8    1  0.4798744E-006  0.8125688E+02  0.7561462E-02  0.1325522E+00
          1   -1    0    0  501    0  0.00000000000E+00  0.00000000000E+00  0.10181485993E+03  0.10181485993E+03  0.00000000000E+00 0. -1.
         -1   -1    0    0    0  501 -0.00000000000E+00 -0.00000000000E+00 -0.12073387080E+03  0.12073387080E+03  0.00000000000E+00 0.  1.
         23    2    1    2    0    0 -0.97064555151E+01 -0.23733226348E+02 -0.18168010962E+02  0.12897542912E+03  0.12508838228E+03 0.  0.
         23    2    1    2    0    0  0.97064555151E+01  0.23733226348E+02 -0.75099991375E+00  0.93573301614E+02  0.89988429603E+02 0.  0.
          5    1    3    3  502    0  0.92148838438E+01 -0.53665034422E+02  0.35068620813E+02  0.64900928880E+02  0.41800000000E+01 0.  1.
         -5    1    3    3    0  502 -0.18921339359E+02  0.29931808074E+02 -0.53236631776E+02  0.64074500236E+02  0.41800000000E+01 0.  1.
        -11    1    4    4    0    0 -0.22826242928E+02 -0.10407969892E+02 -0.29200557189E+02  0.38497217349E+02  0.00000000000E+00 0. -1.
         11    1    4    4    0    0  0.32532698443E+02  0.34141196240E+02  0.28449557275E+02  0.55076084264E+02  0.00000000000E+00 0.  1.
</event>
<event>
 8    1  0.4798744E-006  0.1421975E+03  0.7561462E-02  0.1210402E+00
         -4   -1    0    0    0  501 -0.00000000000E+00  0.00000000000E+00  0.23026807105E+03  0.23026807105E+03  0.00000000000E+00 0.  1.
          4   -1    0    0  501    0  0.00000000000E+00 -0.00000000000E+00 -0.94274935714E+02  0.94274935714E+02  0.00000000000E+00 0. -1.
         23    2    1    2    0    0  0.25048701966E+02 -0.97490858955E+02  0.72352455870E+02  0.17611219364E+03  0.12509485132E+03 0.  0.
         23    2    1    2    0    0 -0.25048701966E+02  0.97490858955E+02  0.63640679470E+02  0.14843081313E+03  0.88598336067E+02 0.  0.
          5    1    3    3  502    0  0.81540369406E+01 -0.12503086721E+03  0.69667557572E+02  0.14342331418E+03  0.41800000000E+01 0.  1.
         -5    1    3    3    0  502  0.16894665025E+02  0.27540008254E+02  0.26848982977E+01  0.32688879452E+02  0.41800000000E+01 0.  1.
        -11    1    4    4    0    0 -0.48850447227E+02  0.36502266505E+02  0.55503336877E+02  0.82458486881E+02  0.00000000000E+00 0.  1.
         11    1    4    4    0    0  0.23801745261E+02  0.60988592450E+02  0.81373425930E+01  0.65972326251E+02  0.00000000000E+00 0. -1.
</event>
<event>
 8    1  0.4798744E-006  0.8211276E+02  0.7561462E-02  0.1323160E+00
          2   -1    0    0  501    0  0.00000000000E+00  0.00000000000E+00  0.74164249564E+02  0.74164249564E+02  0.00000000000E+00 0. -1.
         -2   -1    0    0    0  501 -0.00000000000E+00 -0.00000000000E+00 -0.21725511216E+03  0.21725511216E+03  0.00000000000E+00 0.  1.
         23    2    1    2    0    0 -0.40375381266E+02 -0.49910889376E+02 -0.61269567380E+02  0.15337135505E+03  0.12509014499E+03 0.  0.
         23    2    1    2    0    0  0.40375381266E+02  0.49910889376E+02 -0.81821295218E+02  0.13804800667E+03  0.90781383032E+02 0.  0.
          5    1    3    3  502    0 -0.16665832091E+02  0.19723464797E+02 -0.74102090484E+02  0.78583441240E+02  0.41800000000E+01 0. -1.
         -5    1    3    3    0  502 -0.23709549174E+02 -0.69634354173E+02  0.12832523104E+02  0.74787913812E+02  0.41800000000E+01 0. -1.
        -11    1    4    4    0    0  0.34838631663E+02  0.40070896677E+02 -0.10196146035E+03  0.11495889010E+03  0.00000000000E+00 0.  1.
         11    1    4    4    0    0  0.55367496021E+01  0.98399926982E+01  0.20140165134E+02  0.23089116572E+02  0.00000000000E+00 0. -1.
</event>
<event>
 8    1  0.4798744E-006  0.1143017E+03  0.7561462E-02  0.1252805E+00
          4   -1    0    0  501    0  0.00000000000E+00  0.00000000000E+00  0.59778430572E+03  0.59778430572E+03  0.00000000000E+00 0. -1.
         -4   -1    0    0    0  501 -0.00000000000E+00 -0.00000000000E+00 -0.30824582192E+02  0.30824582192E+02  0.00000000000E+00 0.  1.
         23    2    1    2    0    0  0.71700893817E+01 -0.68480376975E+02  0.23016569953E+03  0.27086569127E+03  0.12510396180E+03 0.  0.
         23    2    1    2    0    0 -0.71700893817E+01  0.68480376975E+02  0.33679402400E+03  0.35774319664E+03  0.99040435820E+02 0.  0.
          5    1    3    3  502    0 -0.32507229996E+02 -0.58256484750E+02  0.21785530205E+03  0.22787922909E+03  0.41800000000E+01 0. -1.
         -5    1    3    3    0  502  0.39677319378E+02 -0.10223892225E+02  0.12310397478E+02  0.42986462187E+02  0.41800000000E+01 0. -1.
        -11    1    4    4    0    0  0.42603664288E+02  0.53908832198E+02  0.18685061078E+03  0.19908386461E+03  0.00000000000E+00 0.  1.
         11    1    4    4    0    0 -0.49773753670E+02  0.14571544777E+02  0.14994341322E+03  0.15865933203E+03  0.00000000000E+00 0. -1.
</event>
<event>
 8    1  0.4798744E-006  0.8160389E+02  0.7561462E-02  0.1324560E+00
          1   -1    0    0  501    0  0.00000000000E+00  0.00000000000E+00  0.17413244318E+03  0.17413244318E+03  0.00000000000E+00 0. -1.
         -1   -1    0    0    0  501 -0.00000000000E+00 -0.00000000000E+00 -0.13181063093E+03  0.13181063093E+03  0.00000000000E+00 0.  1.
         23    2    1    2    0    0 -0.11277653271E+02 -0.23669453543E+01 -0.82820163217E+02  0.15047203915E+03  0.12509942940E+03 0.  0.
         23    2    1    2    0    0  0.11277653271E+02  0.23669453543E+01  0.12514197547E+03  0.15547103496E+03  0.91531091950E+02 0.  0.
          5    1    3    3  502    0  0.34185907066E+02  0.38043094920E+02 -0.72207065732E+02  0.88584908730E+02  0.41800000000E+01 0.  1.
         -5    1    3    3    0  502 -0.45463560337E+02 -0.40410040275E+02 -0.10613097484E+02  0.61887130421E+02  0.41800000000E+01 0.  1.
        -11    1    4    4    0    0 -0.19067578755E+02 -0.49623897308E+01 -0.60541777897E+01  0.20611912579E+02  0.00000000000E+00 0.  1.
         11    1    4    4    0    0  0.30345232027E+02  0.73293350851E+01  0.13119615326E+03  0.13485912238E+03  0.00000000000E+00 0. -1.
</event>
<event>
 8    1  0.4798744E-006  0.2231938E+03  0.7561462E-02  0.1131524E+00
         -1   -1    0    0    0  501 -0.00000000000E+00  0.00000000000E+00  0.11543479928E+03  0.11543479928E+03  0.00000000000E+00 0.  1.
          1   -1    0    0  501    0  0.00000000000E+00 -0.00000000000E+00 -0.64750558733E+03  0.64750558733E+03  0.00000000000E+00 0. -1.
         23    2    1    2    0    0  0.20839926152E+03  0.50754476464E+02 -0.91476369802E+02  0.26461491575E+03  0.12508740273E+03 0.  0.
         23    2    1    2    0    0 -0.20839926152E+03 -0.50754476464E+02 -0.44059441824E+03  0.49832547086E+03  0.90545924488E+02 0.  0.
          5    1    3    3  502    0  0.11441195445E+03  0.15634687691E+02 -0.11332139005E+03  0.16184482884E+03  0.41800000000E+01 0.  1.
         -5    1    3    3    0  502  0.93987307069E+02  0.35119788773E+02  0.21845020245E+02  0.10277008691E+03  0.41800000000E+01 0.  1.
        -11    1    4    4    0    0 -0.65784817303E+02  0.23212701467E+02 -0.16806008956E+03  0.18196336280E+03  0.00000000000E+00 0.  1.
         11    1    4    4    0    0 -0.14261444421E+03 -0.73967177931E+02 -0.27253432868E+03  0.31636210806E+03  0.00000000000E+00 0. -1.
</event>
<event>
 8    1  0.4798744E-006  0.5978494E+02  0.7561462E-02  0.1398736E+00
          1   -1    0    0  501    0  0.00000000000E+00  0.00000000000E+00  0.12636206640E+03  0.12636206640E+03  0.00000000000E+00 0. -1.
         -1   -1    0    0    0  501 -0.00000000000E+00 -0.00000000000E+00 -0.11880146209E+03  0.11880146209E+03  0.00000000000E+00 0.  1.
         23    2    1    2    0    0  0.20007231606E+02 -0.34182130492E+02 -0.36006424638E+02  0.13606132657E+03  0.12509002603E+03 0.  0.
         23    2    1    2    0    0 -0.20007231606E+02  0.34182130492E+02  0.43567028951E+02  0.10910220192E+03  0.91850406049E+02 0.  0.
          5    1    3    3  502    0  0.13886115881E+02 -0.13899614484E+02  0.46564993980E+02  0.50712863865E+02  0.41800000000E+01 0. -1.
         -5    1    3    3    0  502  0.61211157252E+01 -0.20282516008E+02 -0.82571418618E+02  0.85348462704E+02  0.41800000000E+01 0. -1.
        -11    1    4    4    0    0 -0.44590472339E+02  0.16248029610E+02 -0.90556676613E+01  0.48314736948E+02  0.00000000000E+00 0.  1.
         11    1    4    4    0    0  0.24583240732E+02  0.17934100882E+02  0.52622696612E+02  0.60787464975E+02  0.00000000000E+00 0. -1.
</event>
<event>
 7    1  0.4798744E-006  0.1288532E+03  0.7561462E-02  0.1229167E+00
          1   -1    0    0  501    0  0.00000000000E+00  0.00000000000E+00  0.62152030854E+02  0.62152030854E+02  0.00000000000E+00 0. -1.
         -1   -1    0    0    0  501 -0.00000000000E+00 -0.00000000000E+00 -0.32586724749E+03  0.32586724749E+03  0.00000000000E+00 0.  1.
         23    2    1    2    0    0  0.19942416115E+02  0.54171829624E+00 -0.67709734792E+02  0.11440291667E+03  0.90030137942E+02 0.  0.
          5    1    1    2  502    0  0.66567434757E+02  0.55859428087E+02 -0.10003424979E+03  0.13257383832E+03  0.41800000000E+01 0. -1.
         -5    1    1    2    0  502 -0.86509850872E+02 -0.56401146383E+02 -0.95971232050E+02  0.14104252335E+03  0.41800000000E+01 0.  1.
        -11    1    3    3    0    0 -0.85723383500E+01 -0.26621933242E+02 -0.69565409385E+02  0.74977053138E+02  0.00000000000E+00 0.  1.
         11    1    3    3    0    0  0.28514754465E+02  0.27163651538E+02  0.18556745927E+01  0.39425863532E+02  0.00000000000E+00 0. -1.
</event>
<event>
 8    1  0.4798744E-006  0.1064664E+03  0.7561462E-02  0.1267257E+00
         -2   -1    0    0    0  501 -0.00000000000E+00  0.00000000000E+00  0.50185342020E+02  0.50185342020E+02  0.00000000000E+00 0.  1.
          2   -1    0    0  501    0  0.00000000000E+00 -0.00000000000E+00 -0.24711748775E+03  0.24711748775E+03  0.00000000000E+00 0. -1.
         23    2    1    2    0    0 -0.72108665174E+00 -0.25870563322E+02 -0.10481639252E+03  0.16523805928E+03  0.12508930442E+03 0.  0.
         23    2    1    2    0    0  0.72108665174E+00  0.25870563322E+02 -0.92115753210E+02  0.13206477050E+03  0.91027389309E+02 0.  0.
          5    1    3    3  502    0 -0.26217650015E+02  0.43127034524E+02 -0.24536773437E+02  0.56274611770E+02  0.41800000000E+01 0. -1.
         -5    1    3    3    0  502  0.25496563363E+02 -0.68997597846E+02 -0.80279619087E+02  0.10896344751E+03  0.41800000000E+01 0. -1.
        -11    1    4    4    0    0 -0.32965810995E+02  0.40214077885E+02 -0.75940826523E+02  0.92037632997E+02  0.00000000000E+00 0. -1.
         11    1    4    4    0    0  0.33686897647E+02 -0.14343514563E+02 -0.16174926687E+02  0.40027137500E+02  0.00000000000E+00 0.  1.
</event>
<event>
 8    1  0.4798744E-006  0.8489694E+02  0.7561462E-02  0.1315702E+00
          1   -1    0    0  501    0  0.00000000000E+00  0.00000000000E+00  0.17223153530E+03  0.17223153530E+03  0.00000000000E+00 0. -1.
         -1   -1    0    0    0  501 -0.00000000000E+00 -0.00000000000E+00 -0.61398265752E+02  0.61398265752E+02  0.00000000000E+00 0.  1.
         23    2    1    2    0    0  0.69751643660E+01 -0.52429512075E+01  0.34710804736E+02  0.11632629031E+03  0.11068344229E+03 0.  0.
         23    2    1    2    0    0 -0.69751643660E+01  0.52429512075E+01  0.76122464814E+02  0.11730351074E+03  0.88821970971E+02 0.  0.
          5    1    3    3  502    0  0.19007353931E+02  0.39700008205E+02  0.50403799988E+02  0.67047636857E+02  0.41800000000E+01 0. -1.
         -5    1    3    3    0  502 -0.12032189565E+02 -0.44942959412E+02 -0.15692995252E+02  0.49278653456E+02  0.41800000000E+01 0.  1.
        -11    1    4    4    0    0  0.23924111661E+02 -0.25718111870E+02  0.74868261233E+01  0.35914300249E+02  0.00000000000E+00 0.  1.
         11    1    4    4    0    0 -0.30899276027E+02  0.30961063078E+02  0.68635638690E+02  0.81389210491E+02  0.00000000000E+00 0. -1.
</event>
<event>
 8    1  0.4798744E-006  0.2844962E+03  0.7561462E-02  0.1093258E+00
         -2   -1    0    0    0  501 -0.00000000000E+00  0.00000000000E+00  0.15728420608E+03  0.15728420608E+03  0.00000000000E+00 0.  1.
          2   -1    0    0  501    0  0.00000000000E+00 -0.00000000000E+00 -0.56668796240E+03  0.56668796240E+03  0.00000000000E+00 0. -1.
         23    2    1    2    0    0  0.26271613538E+03  0.67094990560E+02 -0.28195437383E+03  0.41069047378E+03  0.12508753250E+03 0.  0.
         23    2    1    2    0    0 -0.26271613538E+03 -0.67094990560E+02 -0.12744938250E+03  0.31328169471E+03  0.91545450968E+02 0.  0.
          5    1    3    3  502    0  0.12028049237E+03  0.74516676000E+02 -0.20339281944E+03  0.24780283140E+03  0.41800000000E+01 0. -1.
         -5    1    3    3    0  502  0.14243564301E+03 -0.74216854400E+01 -0.78561554383E+02  0.16288764238E+03  0.41800000000E+01 0. -1.
        -11    1    4    4    0    0 -0.93192851275E+02 -0.67760903033E+02 -0.36299706480E+02  0.12080610994E+03  0.00000000000E+00 0.  1.
         11    1    4    4    0    0 -0.16952328410E+03  0.66591247324E+00 -0.91149676021E+02  0.19247558476E+03  0.00000000000E+00 0. -1.
</event>
<event>
 8    1  0.4798744E-006  0.7347489E+02  0.7561462E-02  0.1348660E+00
          2   -1    0    0  501    0  0.00000000000E+00  0.00000000000E+00  0.39371223135E+03  0.39371223135E+03  0.00000000000E+00 0. -1.
         -2   -1    0    0    0  501 -0.00000000000E+00 -0.00000000000E+00 -0.10876987226E+03  0.10876987226E+03  0.00000000000E+00 0.  1.
         23    2    1    2    0    0 -0.16759055672E+02 -0.47411583285E+02 -0.55864834074E+02  0.14640851818E+03  0.12564175394E+03 0.  0.
         23    2    1    2    0    0  0.16759055672E+02  0.47411583285E+02  0.34080719316E+03  0.35607358542E+03  0.90056266570E+02 0.  0.
          5    1    3    3  502    0 -0.26000314455E+02 -0.48933882229E+02  0.27787233612E+02  0.62130056603E+02  0.41800000000E+01 0. -1.
         -5    1    3    3    0  502  0.92412587826E+01  0.15222989433E+01 -0.83652067686E+02  0.84278461579E+02  0.41800000000E+01 0.  1.
        -11    1    4    4    0    0  0.28367917567E+02 -0.37922932311E+01  0.32405633981E+02  0.43234770137E+02  0.00000000000E+00 0.  1.
         11    1    4    4    0    0 -0.11608861895E+02  0.51203876516E+02  0.30840155918E+03  0.31283881529E+03  0.00000000000E+00 0. -1.
</event>
<event>
 8    1  0.4798744E-006  0.1149709E+03  0.7561462E-02  0.1251632E+00
         -1   -1    0    0    0  501 -0.00000000000E+00  0.00000000000E+00  0.41992736818E+02  0.41992736818E+02  0.00000000000E+00 0.  1.
          1   -1    0    0  501    0  0.00000000000E+00 -0.00000000000E+00 -0.45413803225E+03  0.45413803225E+03  0.00000000000E+00 0. -1.
         23    2    1    2    0    0 -0.45826829521E+02  0.66821186960E+02 -0.23582176474E+03  0.27897035539E+03  0.12508950848E+03 0.  0.
         23    2    1    2    0    0  0.45826829521E+02 -0.66821186960E+02 -0.17632353070E+03  0.21716041368E+03  0.97485837234E+02 0.  0.
          5    1    3    3  502    0 -0.89608247286E+01 -0.14529354768E+02 -0.16219825800E+03  0.16314761974E+03  0.41800000000E+01 0.  1.
         -5    1    3    3    0  502 -0.36866004793E+02  0.81350541729E+02 -0.73623506740E+02  0.11582273565E+03  0.41800000000E+01 0.  1.
        -11    1    4    4    0    0  0.38215175228E+01 -0.79099799284E+02 -0.13742029671E+03  0.15860554906E+03  0.00000000000E+00 0. -1.
         11    1    4    4    0    0  0.42005311998E+02  0.12278612323E+02 -0.38903233987E+02  0.58554864626E+02  0.00000000000E+00 0.  1.
</event>
<event>
 7    1  0.4798744E-006  0.1565397E+03  0.7561462E-02  0.1192660E+00
         -1   -1    0    0    0  501 -0.00000000000E+00  0.00000000000E+00  0.10942831386E+03  0.10942831386E+03  0.00000000000E+00 0.  1.
          1   -1    0    0  501    0  0.00000000000E+00 -0.00000000000E+00 -0.36665846297E+03  0.36665846297E+03  0.00000000000E+00 0. -1.
         23    2    1    2    0    0 -0.13657516947E+03 -0.35205607588E+02 -0.17466268363E+03  0.24199152944E+03  0.90336236062E+02 0.  0.
          5    1    1    2  502    0  0.28212341227E+02 -0.11599386223E+02 -0.10882688709E+03  0.11309838952E+03  0.41800000000E+01 0. -1.
         -5    1    1    2    0  502  0.10836282824E+03  0.46804993811E+02  0.26259421614E+02  0.12099685787E+03  0.41800000000E+01 0.  1.
        -11    1    3    3    0    0  0.78968306314E-01  0.17655568933E+02 -0.36762303435E+02  0.40782254770E+02  0.00000000000E+00 0.  1.
         11    1    3    3    0    0 -0.13665413778E+03 -0.52861176520E+02 -0.13790038020E+03  0.20120927467E+03  0.00000000000E+00 0. -1.
</event>
<event>
 8    1  0.4798744E-006  0.1252408E+03  0.7561462E-02  0.1234693E+00
         -1   -1    0    0    0  501 -0.00000000000E+00  0.00000000000E+00  0.16062469361E+03  0.16062469361E+03  0.00000000000E+00 0.  1.
          1   -1    0    0  501    0  0.00000000000E+00 -0.00000000000E+00 -0.10267549464E+03  0.10267549464E+03  0.00000000000E+00 0. -1.
         23    2    1    2    0    0 -0.14964466895E+01  0.66574134810E+02  0.11560682232E+02  0.14218027823E+03  0.12508887787E+03 0.  0.
         23    2    1    2    0    0  0.14964466895E+01 -0.66574134810E+02  0.46388516736E+02  0.12111991002E+03  0.89909862302E+02 0.  0.
          5    1    3    3  502    0  0.45113972897E+02 -0.12485750812E+02  0.17421969586E+02  0.50121471927E+02  0.41800000000E+01 0. -1.
         -5    1    3    3    0  502 -0.46610419587E+02  0.79059885622E+02 -0.58612873546E+01  0.92058806303E+02  0.41800000000E+01 0. -1.
        -11    1    4    4    0    0  0.37918637387E+02 -0.64884712164E+02  0.27243339957E+02  0.79937778965E+02  0.00000000000E+00 0. -1.
         11    1    4    4    0    0 -0.36422190697E+02 -0.16894226456E+01  0.19145176779E+02  0.41182131052E+02  0.00000000000E+00 0.  1.
</event>
<event>
 8    1  0.4798744E-006  0.9297120E+02  0.7561462E-02  0.1295812E+00
         -4   -1    0    0    0  501 -0.00000000000E+00  0.00000000000E+00  0.84375378122E+02  0.84375378122E+02  0.00000000000E+00 0. -1.
          4   -1    0    0  501    0  0.00000000000E+00 -0.00000000000E+00 -0.14526918907E+03  0.14526918907E+03  0.00000000000E+00 0.  1.
         23    2    1    2    0    0 -0.15580230086E+02  0.17161071074E+02 -0.23041929337E+02  0.12928878194E+03  0.12508961867E+03 0.  0.
         23    2    1    2    0    0  0.15580230086E+02 -0.17161071074E+02 -0.37851881609E+02  0.10035578525E+03  0.90007070618E+02 0.  0.
          5    1    3    3  502    0 -0.66729788963E+02 -0.30700994949E+01  0.55402867125E+01  0.67159939122E+02  0.41800000000E+01 0.  1.
         -5    1    3    3    0  502  0.51149558877E+02  0.20231170569E+02 -0.28582216049E+02  0.62128842820E+02  0.41800000000E+01 0.  1.
        -11    1    4    4    0    0  0.38529791756E+02 -0.99932550239E+01 -0.57067129240E+02  0.69577778338E+02  0.00000000000E+00 0.  1.
         11    1    4    4    0    0 -0.22949561670E+02 -0.71678160506E+01  0.19215247631E+02  0.30778006909E+02  0.00000000000E+00 0. -1.
</event>
<event>
 8    1  0.4798744E-006  0.7380787E+02  0.7561462E-02  0.1347603E+00
         -1   -1    0    0    0  501 -0.00000000000E+00  0.00000000000E+00  0.86435172158E+03  0.86435172158E+03  0.00000000000E+00 0.  1.
          1   -1    0    0  501    0  0.00000000000E+00 -0.00000000000E+00 -0.26134043563E+02  0.26134043563E+02  0.00000000000E+00 0. -1.
         23    2    1    2    0    0 -0.33335271801E+01  0.39604110592E+01  0.74173533711E+03  0.75222765203E+03  0.12509329673E+03 0.  0.
         23    2    1    2    0    0  0.33335271801E+01 -0.39604110592E+01  0.96482340905E+02  0.13825811312E+03  0.98892196244E+02 0.  0.
          5    1    3    3  502    0 -0.89469181426E+01  0.52798372241E+02  0.16806954105E+03  0.17644420785E+03  0.41800000000E+01 0. -1.
         -5    1    3    3    0  502  0.56133909625E+01 -0.48837961181E+02  0.57366579607E+03  0.57578344418E+03  0.41800000000E+01 0. -1.
        -11    1    4    4    0    0  0.41933401046E+01  0.20077952513E+02 -0.14229292524E+02  0.24963594374E+02  0.00000000000E+00 0. -1.
         11    1    4    4    0    0 -0.85981292449E+00 -0.24038363572E+02  0.11071163343E+03  0.11329451875E+03  0.00000000000E+00 0.  1.
</event>
<event>
 8    1  0.4798744E-006  0.9065887E+02  0.7561462E-02  0.1301264E+00
         -3   -1    0    0    0  501 -0.00000000000E+00  0.00000000000E+00  0.35268770727E+03  0.35268770727E+03  0.00000000000E+00 0.  1.
          3   -1    0    0  501    0  0.00000000000E+00 -0.00000000000E+00 -0.39347436998E+02  0.39347436998E+02  0.00000000000E+00 0. -1.
         23    2    1    2    0    0  0.22628901575E+02 -0.33593216038E+02  0.21050341156E+03  0.24819306061E+03  0.12509011834E+03 0.  0.
         23    2    1    2    0    0 -0.22628901575E+02  0.33593216038E+02  0.10283685872E+03  0.14384208366E+03  0.92057341757E+02 0.  0.
          5    1    3    3  502    0  0.60346663637E+02 -0.58406600135E+02  0.11488839718E+03  0.14237228297E+03  0.41800000000E+01 0.  1.
         -5    1    3    3    0  502 -0.37717762062E+02  0.24813384097E+02  0.95615014379E+02  0.10582077764E+03  0.41800000000E+01 0.  1.
        -11    1    4    4    0    0 -0.27588613671E+02  0.12618841542E+02  0.11510941335E+03  0.11904009328E+03  0.00000000000E+00 0.  1.
         11    1    4    4    0    0  0.49597120961E+01  0.20974374496E+02 -0.12272554636E+02  0.24801990381E+02  0.00000000000E+00 0. -1.
</event>
<event>
 8    1  0.4798744E-006  0.1176437E+03  0.7561462E-02  0.1247036E+00
         -1   -1    0    0    0  501 -0.00000000000E+00  0.00000000000E+00  0.77949404253E+02  0.77949404253E+02  0.00000000000E+00 0.  1.
          1   -1    0    0  501    0  0.00000000000E+00 -0.00000000000E+00 -0.29081885094E+03  0.29081885094E+03  0.00000000000E+00 0. -1.
         23    2    1    2    0    0 -0.23872114248E+02  0.61781339702E+02 -0.16328286244E+02  0.14248443366E+03  0.12509352153E+03 0.  0.
         23    2    1    2    0    0  0.23872114248E+02 -0.61781339702E+02 -0.19654116045E+03  0.22628382154E+03  0.90493802909E+02 0.  0.
          5    1    3    3  502    0 -0.21651613196E+02 -0.34850219128E+02  0.95577033289E+01  0.42333818870E+02  0.41800000000E+01 0. -1.
         -5    1    3    3    0  502 -0.22205010521E+01  0.96631558829E+02 -0.25885989573E+02  0.10015061479E+03  0.41800000000E+01 0. -1.
        -11    1    4    4    0    0  0.49160173714E+02 -0.46975130520E+02 -0.74889187416E+02  0.10115224149E+03  0.00000000000E+00 0.  1.
         11    1    4    4    0    0 -0.25288059467E+02 -0.14806209181E+02 -0.12165197303E+03  0.12513158004E+03  0.00000000000E+00 0. -1.
</event>
<event>
 8    1  0.4798744E-006  0.1119118E+03  0.7561462E-02  0.1257070E+00
         -1   -1    0    0    0  501 -0.00000000000E+00  0.00000000000E+00  0.46575004600E+03  0.46575004600E+03  0.00000000000E+00 0.  1.
          1   -1    0    0  501    0  0.00000000000E+00 -0.00000000000E+00 -0.35233914182E+02  0.35233914182E+02  0.00000000000E+00 0. -1.
         23    2    1    2    0    0 -0.51117052148E+02 -0.48396724471E+01  0.32441543260E+03  0.35146841662E+03  0.12509316338E+03 0.  0.
         23    2    1    2    0    0  0.51117052148E+02  0.48396724471E+01  0.10610069922E+03  0.14951554356E+03  0.91984585350E+02 0.  0.
          5    1    3    3  502    0  0.26712615935E+02  0.27667570493E+02  0.18055477922E+03  0.18465253588E+03  0.41800000000E+01 0.  1.
         -5    1    3    3    0  502 -0.77829668083E+02 -0.32507242940E+02  0.14386065338E+03  0.16681588074E+03  0.41800000000E+01 0.  1.
        -11    1    4    4    0    0 -0.20691045666E+01  0.37971466210E+02  0.62562092004E+02  0.73212900473E+02  0.00000000000E+00 0. -1.
         11    1    4    4    0    0  0.53186156715E+02 -0.33131793763E+02  0.43538607217E+02  0.76302643089E+02  0.00000000000E+00 0.  1.
</event>
<event>
 8    1  0.4798744E-006  0.1121646E+03  0.7561462E-02  0.1256613E+00
          2   -1    0    0  501    0  0.00000000000E+00  0.00000000000E+00  0.68406379402E+02  0.68406379402E+02  0.00000000000E+00 0. -1.
         -2   -1    0    0    0  501 -0.00000000000E+00 -0.00000000000E+00 -0.19496404206E+03  0.19496404206E+03  0.00000000000E+00 0.  1.
         23    2    1    2    0    0  0.30939015697E+02 -0.21500421308E+02 -0.87649027905E+02  0.15732024531E+03  0.12509123344E+03 0.  0.
         23    2    1    2    0    0 -0.30939015697E+02  0.21500421308E+02 -0.38908634753E+02  0.10605017615E+03  0.91177119908E+02 0.  0.
          5    1    3    3  502    0  0.71993885395E+02  0.11278210670E+02 -0.71558467704E+02  0.10221743623E+03  0.41800000000E+01 0. -1.
         -5    1    3    3    0  502 -0.41054869698E+02 -0.32778631978E+02 -0.16090560200E+02  0.55102809074E+02  0.41800000000E+01 0. -1.
        -11    1    4    4    0    0 -0.66882689194E+01  0.56037650411E+02 -0.23275061956E+02  0.61046537279E+02  0.00000000000E+00 0.  1.
         11    1    4    4    0    0 -0.24250746778E+02 -0.34537229103E+02 -0.15633572797E+02  0.45003638872E+02  0.00000000000E+00 0. -1.
</event>
<event>
 8    1  0.7874547E-006  0.4201753E+03  0.7561462E-02  0.1037009E+00
          2   -1    0    0  501    0  0.00000000000E+00  0.00000000000E+00  0.18364498617E+04  0.18364498617E+04  0.00000000000E+00 0. -1.
         -2   -1    0    0    0  501 -0.00000000000E+00 -0.00000000000E+00 -0.10109660320E+03  0.10109660320E+03  0.00000000000E+00 0.  1.
         23    2    1    2    0    0  0.41172352808E+03 -0.12331801571E+02  0.10198681172E+04  0.11069994998E+04  0.12509428133E+03 0.  0.
         23    2    1    2    0    0 -0.41172352808E+03  0.12331801571E+02  0.71548514129E+03  0.83054696507E+03  0.90669382261E+02 0.  0.
          5    1    3    3  502    0  0.35252796240E+03  0.27593615650E+02  0.77438279661E+03  0.85130697166E+03  0.41800000000E+01 0. -1.
         -5    1    3    3    0  502  0.59195565677E+02 -0.39925417221E+02  0.24548532059E+03  0.25569252817E+03  0.41800000000E+01 0. -1.
        -11    1    4    4    0    0 -0.20744544041E+03 -0.19872483011E+02  0.28604467602E+03  0.35390688465E+03  0.00000000000E+00 0.  1.
         11    1    4    4    0    0 -0.20427808767E+03  0.32204284582E+02  0.42944046527E+03  0.47664008042E+03  0.00000000000E+00 0. -1.
</event>
<event>
 8    1  0.4798744E-006  0.8562582E+02  0.7561462E-02  0.1313804E+00
          2   -1    0    0  501    0  0.00000000000E+00  0.00000000000E+00  0.21893830601E+03  0.21893830601E+03  0.00000000000E+00 0. -1.
         -2   -1    0    0    0  501 -0.00000000000E+00 -0.00000000000E+00 -0.64741488114E+02  0.64741488114E+02  0.00000000000E+00 0.  1.
         23    2    1    2    0    0 -0.27667274540E+02 -0.28236025149E+02  0.53260638323E+02  0.14158969413E+03  0.12509274437E+03 0.  0.
         23    2    1    2    0    0  0.27667274540E+02  0.28236025149E+02  0.10093617957E+03  0.14209009999E+03  0.91862576561E+02 0.  0.
          5    1    3    3  502    0  0.46843958252E+02 -0.41706287083E+01  0.75374009220E+00  0.47220663831E+02  0.41800000000E+01 0.  1.
         -5    1    3    3    0  502 -0.74511232792E+02 -0.24065396440E+02  0.52506898231E+02  0.94369030300E+02  0.41800000000E+01 0.  1.
        -11    1    4    4    0    0  0.29605380129E+02  0.16829833970E+02  0.11724704668E+03  0.12209255423E+03  0.00000000000E+00 0. -1.
         11    1    4    4    0    0 -0.19381055893E+01  0.11406191179E+02 -0.16310867109E+02  0.19997545758E+02  0.00000000000E+00 0.  1.
</event>
<event>
 8    1  0.4798744E-006  0.1010855E+03  0.7561462E-02  0.1278030E+00
          1   -1    0    0  501    0  0.00000000000E+00  0.00000000000E+00  0.65932597213E+02  0.65932597213E+02  0.00000000000E+00 0. -1.
         -1   -1    0    0    0  501 -0.00000000000E+00 -0.00000000000E+00 -0.25490764839E+03  0.25490764839E+03  0.00000000000E+00 0.  1.
         23    2    1    2    0    0 -0.12999186123E+02 -0.28272110014E+02 -0.18422423779E+03  0.22484239828E+03  0.12508894128E+03 0.  0.
         23    2    1    2    0    0  0.12999186123E+02  0.28272110014E+02 -0.47508133916E+01  0.95997847325E+02  0.90690271908E+02 0.  0.
          5    1    3    3  502    0  0.13987859383E+02  0.46599474636E+02 -0.61834516807E+02  0.78791821373E+02  0.41800000000E+01 0.  1.
         -5    1    3    3    0  502 -0.26987045506E+02 -0.74871584650E+02 -0.12238972098E+03  0.14605057691E+03  0.41800000000E+01 0.  1.
        -11    1    4    4    0    0  0.19475576007E+02 -0.18238605269E+02  0.28052656347E+02  0.38715582277E+02  0.00000000000E+00 0. -1.
         11    1    4    4    0    0 -0.64763898836E+01  0.46510715284E+02 -0.32803469739E+02  0.57282265048E+02  0.00000000000E+00 0.  1.
</event>
<event>
 8    1  0.4798744E-006  0.2824744E+03  0.7561462E-02  0.1094345E+00
         -2   -1    0    0    0  501 -0.00000000000E+00  0.00000000000E+00  0.92339946827E+02  0.92339946827E+02  0.00000000000E+00 0.  1.
          2   -1    0    0  501    0  0.00000000000E+00 -0.00000000000E+00 -0.94321428695E+03  0.94321428695E+03  0.00000000000E+00 0. -1.
         23    2    1    2    0    0 -0.22621932581E+03 -0.14639990133E+03 -0.34153487422E+03  0.45265809903E+03  0.12508065330E+03 0.  0.
         23    2    1    2    0    0  0.22621932581E+03  0.14639990133E+03 -0.50933946590E+03  0.58289613475E+03  0.87938034406E+02 0.  0.
          5    1    3    3  502    0 -0.68164028292E+02 -0.11186878548E+03 -0.19091584232E+03  0.23157567050E+03  0.41800000000E+01 0. -1.
         -5    1    3    3    0  502 -0.15805529752E+03 -0.34531115854E+02 -0.15061903189E+03  0.22108242853E+03  0.41800000000E+01 0. -1.
        -11    1    4    4    0    0  0.22724907341E+02  0.29920822104E+02 -0.26014496513E+02  0.45699354895E+02  0.00000000000E+00 0.  1.
         11    1    4    4    0    0  0.20349441847E+03  0.11647907923E+03 -0.48332496939E+03  0.53719677985E+03  0.00000000000E+00 0. -1.
</event>
<event>
 8    1  0.4798744E-006  0.2008616E+03  0.7561462E-02  0.1149014E+00
          2   -1    0    0  501    0  0.00000000000E+00  0.00000000000E+00  0.55374798044E+02  0.55374798044E+02  0.00000000000E+00 0. -1.
         -2   -1    0    0    0  501 -0.00000000000E+00 -0.00000000000E+00 -0.79125877818E+03  0.79125877818E+03  0.00000000000E+00 0.  1.
         23    2    1    2    0    0 -0.45900180172E+02  0.16616656378E+03 -0.28055099943E+03  0.35224243097E+03  0.12509082074E+03 0.  0.
         23    2    1    2    0    0  0.45900180172E+02 -0.16616656378E+03 -0.45533298071E+03  0.49439114526E+03  0.85885550181E+02 0.  0.
          5    1    3    3  502    0  0.36200358523E+02  0.98058878365E+02 -0.11715100386E+03  0.15705998755E+03  0.41800000000E+01 0. -1.
         -5    1    3    3    0  502 -0.82100538694E+02  0.68107685418E+02 -0.16339999557E+03  0.19518244342E+03  0.41800000000E+01 0. -1.
        -11    1    4    4    0    0 -0.20574430053E+02 -0.15764161656E+02 -0.39703049536E+02  0.47414640220E+02  0.00000000000E+00 0.  1.
         11    1    4    4    0    0  0.66474610225E+02 -0.15040240213E+03 -0.41562993117E+03  0.44697650504E+03  0.00000000000E+00 0. -1.
</event>
<event>
 8    1  0.4798744E-006  0.9249743E+02  0.7561462E-02  0.1296914E+00
         -2   -1    0    0    0  501 -0.00000000000E+00  0.00000000000E+00  0.31301373593E+02  0.31301373593E+02  0.00000000000E+00 0.  1.
          2   -1    0    0  501    0  0.00000000000E+00 -0.00000000000E+00 -0.42363186302E+03  0.42363186302E+03  0.00000000000E+00 0. -1.
         23    2    1    2    0    0 -0.32095255374E+02 -0.22615606494E+02 -0.19854750430E+03  0.23792934963E+03  0.12509073857E+03 0.  0.
         23    2    1    2    0    0  0.32095255374E+02  0.22615606494E+02 -0.19378298513E+03  0.21700388699E+03  0.89427459805E+02 0.  0.
          5    1    3    3  502    0 -0.36560154663E+01  0.40244894210E+02 -0.14474134198E+03  0.15033478119E+03  0.41800000000E+01 0. -1.
         -5    1    3    3    0  502 -0.28439239908E+02 -0.62860500703E+02 -0.53806162320E+02  0.87594568432E+02  0.41800000000E+01 0. -1.
        -11    1    4    4    0    0  0.11846272966E+02 -0.22704790249E+02 -0.11481682110E+02  0.28065471803E+02  0.00000000000E+00 0.  1.
         11    1    4    4    0    0  0.20248982409E+02  0.45320396743E+02 -0.18230130302E+03  0.18893841519E+03  0.00000000000E+00 0. -1.
</event>
<event>
 8    1  0.4798744E-006  0.1609068E+03  0.7561462E-02  0.1187677E+00
         -1   -1    0    0    0  501 -0.00000000000E+00  0.00000000000E+00  0.13799644444E+04  0.13799644444E+04  0.00000000000E+00 0.  1.
          1   -1    0    0  501    0  0.00000000000E+00 -0.00000000000E+00 -0.40465264554E+02  0.40465264554E+02  0.00000000000E+00 0. -1.
         23    2    1    2    0    0 -0.13783580571E+03 -0.38947048378E+02  0.11523788618E+04  0.11679637760E+04  0.12508700618E+03 0.  0.
         23    2    1    2    0    0  0.13783580571E+03  0.38947048378E+02  0.18712031812E+03  0.25246593299E+03  0.90606026016E+02 0.  0.
          5    1    3    3  502    0 -0.53345217197E+01 -0.43056375670E+02  0.13220941058E+03  0.13920886917E+03  0.41800000000E+01 0. -1.
         -5    1    3    3    0  502 -0.13250128399E+03  0.41093272914E+01  0.10201694512E+04  0.10287549068E+04  0.41800000000E+01 0. -1.
        -11    1    4    4    0    0  0.43224206091E+02  0.25081403229E+02  0.96837551667E+01  0.50903672699E+02  0.00000000000E+00 0. -1.
         11    1    4    4    0    0  0.94611599622E+02  0.13865645150E+02  0.17743656296E+03  0.20156226029E+03  0.00000000000E+00 0.  1.
</event>
<event>
 8    1  0.4798744E-006  0.1542335E+03  0.7561462E-02  0.1195365E+00
          2   -1    0    0  501    0  0.00000000000E+00  0.00000000000E+00  0.54915000782E+03  0.54915000782E+03  0.00000000000E+00 0. -1.
         -2   -1    0    0    0  501 -0.00000000000E+00 -0.00000000000E+00 -0.45803448418E+02  0.45803448418E+02  0.00000000000E+00 0.  1.
         23    2    1    2    0    0 -0.11038034627E+03 -0.96594465214E+01  0.20308939684E+03  0.26300163357E+03  0.12508968943E+03 0.  0.
         23    2    1    2    0    0  0.11038034627E+03  0.96594465214E+01  0.30025716256E+03  0.33195182267E+03  0.88093831541E+02 0.  0.
          5    1    3    3  502    0 -0.87282091273E+02  0.51606700185E+02  0.12168149174E+03  0.15844643509E+03  0.41800000000E+01 0. -1.
         -5    1    3    3    0  502 -0.23098254992E+02 -0.61266146706E+02  0.81407905098E+02  0.10455519848E+03  0.41800000000E+01 0. -1.
        -11    1    4    4    0    0  0.38350854430E+02 -0.38804995152E+02  0.12410426713E+03  0.13556727040E+03  0.00000000000E+00 0.  1.
         11    1    4    4    0    0  0.72029491835E+02  0.48464441673E+02  0.17615289543E+03  0.19638455227E+03  0.00000000000E+00 0. -1.
</event>
<event>
 8    1  0.4798744E-006  0.1546795E+03  0.7561462E-02  0.1194838E+00
         -2   -1    0    0    0  501 -0.00000000000E+00  0.00000000000E+00  0.61283006384E+02  0.61283006384E+02  0.00000000000E+00 0.  1.
          2   -1    0    0  501    0  0.00000000000E+00 -0.00000000000E+00 -0.50525529805E+03  0.50525529805E+03  0.00000000000E+00 0. -1.
         23    2    1    2    0    0 -0.31959221614E+02  0.12338868686E+03 -0.14768236420E+03  0.23174108574E+03  0.12509072801E+03 0.  0.
         23    2    1    2    0    0  0.31959221614E+02 -0.12338868686E+03 -0.29628992747E+03  0.33479721869E+03  0.89751304363E+02 0.  0.
          5    1    3    3  502    0  0.21506366446E+02 -0.13064661262E+02 -0.28726358871E+01  0.25669702151E+02  0.41800000000E+01 0. -1.
         -5    1    3    3    0  502 -0.53465588059E+02  0.13645334812E+03 -0.14480972831E+03  0.20607138359E+03  0.41800000000E+01 0. -1.
        -11    1    4    4    0    0  0.14170887632E+01 -0.96601973402E+02 -0.26908922776E+03  0.28590726102E+03  0.00000000000E+00 0. -1.
         11    1    4    4    0    0  0.30542132850E+02 -0.26786713459E+02 -0.27200699706E+02  0.48889957675E+02  0.00000000000E+00 0.  1.
</event>
<event>
 8    1  0.4798744E-006  0.8134160E+02  0.7561462E-02  0.1325287E+00
         -2   -1    0    0    0  501 -0.00000000000E+00  0.00000000000E+00  0.75494642948E+02  0.75494642948E+02  0.00000000000E+00 0.  1.
          2   -1    0    0  501    0  0.00000000000E+00 -0.00000000000E+00 -0.16410689055E+03  0.16410689055E+03  0.00000000000E+00 0. -1.
         23    2    1    2    0    0  0.97398961262E+01  0.18305092278E+02 -0.48307598709E+02  0.13568261034E+03  0.12508478995E+03 0.  0.
         23    2    1    2    0    0 -0.97398961262E+01 -0.18305092278E+02 -0.40304648895E+02  0.10391892316E+03  0.93513292575E+02 0.  0.
          5    1    3    3  502    0  0.38656059471E+02  0.59298157143E+02 -0.47479230110E+02  0.85336463872E+02  0.41800000000E+01 0. -1.
         -5    1    3    3    0  502 -0.28916163345E+02 -0.40993064865E+02 -0.82836859938E+00  0.50346146468E+02  0.41800000000E+01 0. -1.
        -11    1    4    4    0    0 -0.22569111370E+02 -0.17539486237E+02  0.24626049087E+02  0.37728512549E+02  0.00000000000E+00 0.  1.
         11    1    4    4    0    0  0.12829215244E+02 -0.76560604060E+00 -0.64930697982E+02  0.66190410611E+02  0.00000000000E+00 0. -1.
</event>
<event>
 8    1  0.4798744E-006  0.1412864E+03  0.7561462E-02  0.1211608E+00
         -2   -1    0    0    0  501 -0.00000000000E+00  0.00000000000E+00  0.24980131199E+03  0.24980131199E+03  0.00000000000E+00 0.  1.
          2   -1    0    0  501    0  0.00000000000E+00 -0.00000000000E+00 -0.24996681137E+03  0.24996681137E+03  0.00000000000E+00 0. -1.
         23    2    1    2    0    0 -0.58634302242E+02 -0.83281485743E+02  0.20022370452E+03  0.25712069367E+03  0.12509089493E+03 0.  0.
         23    2    1    2    0    0  0.58634302242E+02  0.83281485743E+02 -0.20038920390E+03  0.24264742969E+03  0.91368237519E+02 0.  0.
          5    1    3    3  502    0  0.98636137255E+01  0.20916603794E+02  0.29240999991E+01  0.23681595191E+02  0.41800000000E+01 0. -1.
         -5    1    3    3    0  502 -0.68497915968E+02 -0.10419808954E+03  0.19729960453E+03  0.23343909848E+03  0.41800000000E+01 0. -1.
        -11    1    4    4    0    0 -0.22393201760E+02  0.29572369320E+02 -0.36154675649E+02  0.51799045199E+02  0.00000000000E+00 0.  1.
         11    1    4    4    0    0  0.81027504003E+02  0.53709116423E+02 -0.16423452825E+03  0.19084838449E+03  0.00000000000E+00 0. -1.
</event>
<event>
 8    1  0.4798744E-006  0.1015689E+03  0.7561462E-02  0.1277031E+00
         -1   -1    0    0    0  501 -0.00000000000E+00  0.00000000000E+00  0.32792374830E+03  0.32792374830E+03  0.00000000000E+00 0.  1.
          1   -1    0    0  501    0  0.00000000000E+00 -0.00000000000E+00 -0.49728679403E+02  0.49728679403E+02  0.00000000000E+00 0. -1.
         23    2    1    2    0    0  0.20223654488E+02  0.30500526955E+02  0.23910451970E+03  0.27231938343E+03  0.12509035497E+03 0.  0.
         23    2    1    2    0    0 -0.20223654488E+02 -0.30500526955E+02  0.39090549194E+02  0.10533304427E+03  0.90706674690E+02 0.  0.
          5    1    3    3  502    0 -0.30656864772E+02  0.53933112606E+02  0.67585463508E+02  0.91836219818E+02  0.41800000000E+01 0.  1.
         -5    1    3    3    0  502  0.50880519259E+02 -0.23432585651E+02  0.17151905619E+03  0.18048316361E+03  0.41800000000E+01 0.  1.
        -11    1    4    4    0    0 -0.13622125680E+02  0.25226934396E+02 -0.10412379294E+02  0.30502101069E+02  0.00000000000E+00 0.  1.
         11    1    4    4    0    0 -0.66015288075E+01 -0.55727461351E+02  0.49502928488E+02  0.74830943200E+02  0.00000000000E+00 0. -1.
</event>
<event>
 8    1  0.4798744E-006  0.1277777E+03  0.7561462E-02  0.1230791E+00
         -1   -1    0    0    0  501 -0.00000000000E+00  0.00000000000E+00  0.92846214959E+02  0.92846214959E+02  0.00000000000E+00 0.  1.
          1   -1    0    0  501    0  0.00000000000E+00 -0.00000000000E+00 -0.30305675117E+03  0.30305675117E+03  0.00000000000E+00 0. -1.
         23    2    1    2    0    0  0.67688552438E+02 -0.96377811913E+02 -0.17109567574E+03  0.24247016216E+03  0.12509047335E+03 0.  0.
         23    2    1    2    0    0 -0.67688552438E+02  0.96377811913E+02 -0.39114860469E+02  0.15343280396E+03  0.90228766263E+02 0.  0.
          5    1    3    3  502    0  0.12772528822E+02 -0.12378404121E+02  0.19688356259E+02  0.26860121989E+02  0.41800000000E+01 0.  1.
         -5    1    3    3    0  502  0.54916023616E+02 -0.83999407792E+02 -0.19078403200E+03  0.21561004018E+03  0.41800000000E+01 0.  1.
        -11    1    4    4    0    0 -0.63291045990E+02  0.29519292503E+02  0.97365147794E+01  0.70512019205E+02  0.00000000000E+00 0.  1.
         11    1    4    4    0    0 -0.43975064483E+01  0.66858519411E+02 -0.48851375249E+02  0.82920784755E+02  0.00000000000E+00 0. -1.
</event>
<event>
 8    1  0.4798744E-006  0.1568033E+03  0.7561462E-02  0.1192354E+00
          2   -1    0    0  501    0  0.00000000000E+00  0.00000000000E+00  0.61361353368E+03  0.61361353368E+03  0.00000000000E+00 0. -1.
         -2   -1    0    0    0  501 -0.00000000000E+00 -0.00000000000E+00 -0.44793114395E+02  0.44793114395E+02  0.00000000000E+00 0.  1.
         23    2    1    2    0    0 -0.10371232647E+03  0.68560117303E+02  0.31745847641E+03  0.36316070184E+03  0.12509626200E+03 0.  0.
         23    2    1    2    0    0  0.10371232647E+03 -0.68560117303E+02  0.25136194287E+03  0.29524594624E+03  0.92361280302E+02 0.  0.
          5    1    3    3  502    0 -0.10426625337E+03  0.89617321135E+02  0.19380590276E+03  0.23765713998E+03  0.41800000000E+01 0. -1.
         -5    1    3    3    0  502  0.55392689351E+00 -0.21057203832E+02  0.12365257366E+03  0.12550356186E+03  0.41800000000E+01 0. -1.
        -11    1    4    4    0    0 -0.90045132557E+01 -0.36210881596E+02  0.68761326661E+02  0.78233172306E+02  0.00000000000E+00 0. -1.
         11    1    4    4    0    0  0.11271683973E+03 -0.32349235707E+02  0.18260061621E+03  0.21701277393E+03  0.00000000000E+00 0.  1.
</event>
<event>
 8    1  0.4798744E-006  0.1137234E+03  0.7561462E-02  0.1253826E+00
         -3   -1    0    0    0  501 -0.00000000000E+00  0.00000000000E+00  0.16828582156E+04  0.16828582156E+04  0.00000000000E+00 0.  1.
          3   -1    0    0  501    0  0.00000000000E+00 -0.00000000000E+00 -0.19192694159E+02  0.19192694159E+02  0.00000000000E+00 0. -1.
         23    2    1    2    0    0 -0.14331517679E+02  0.35403705235E+02  0.15238699662E+04  0.15290701290E+04  0.12007069077E+03 0.  0.
         23    2    1    2    0    0  0.14331517679E+02 -0.35403705235E+02  0.13979555518E+03  0.17298078069E+03  0.94449661184E+02 0.  0.
          5    1    3    3  502    0 -0.56016699326E+02 -0.17006038519E+02  0.66689164384E+03  0.66946920241E+03  0.41800000000E+01 0. -1.
         -5    1    3    3    0  502  0.41685181646E+02  0.52409743754E+02  0.85697832238E+03  0.85960092662E+03  0.41800000000E+01 0.  1.
        -11    1    4    4    0    0  0.23896147650E+02  0.28415864531E+02  0.45667877670E+02  0.58856115063E+02  0.00000000000E+00 0.  1.
         11    1    4    4    0    0 -0.95646299701E+01 -0.63819569766E+02  0.94127677508E+02  0.11412466563E+03  0.00000000000E+00 0. -1.
</event>
<event>
 8    1  0.4798744E-006  0.1623422E+03  0.7561462E-02  0.1186078E+00
          2   -1    0    0  501    0  0.00000000000E+00  0.00000000000E+00  0.71284706615E+03  0.71284706615E+03  0.00000000000E+00 0. -1.
         -2   -1    0    0    0  501 -0.00000000000E+00 -0.00000000000E+00 -0.49223566646E+02  0.49223566646E+02  0.00000000000E+00 0.  1.
         23    2    1    2    0    0 -0.69262453098E+02 -0.11360297756E+03  0.20312324903E+03  0.27314812311E+03  0.12509164218E+03 0.  0.
         23    2    1    2    0    0  0.69262453098E+02  0.11360297756E+03  0.46050025047E+03  0.48892250969E+03  0.96342181171E+02 0.  0.
          5    1    3    3  502    0 -0.20811846160E+02  0.26550741155E+02  0.43932392477E+02  0.55548198037E+02  0.41800000000E+01 0.  1.
         -5    1    3    3    0  502 -0.48450606938E+02 -0.14015371871E+03  0.15919085656E+03  0.21759992507E+03  0.41800000000E+01 0.  1.
        -11    1    4    4    0    0  0.67053608764E+02  0.64019807594E+02  0.40032627917E+03  0.41092073689E+03  0.00000000000E+00 0. -1.
         11    1    4    4    0    0  0.22088443346E+01  0.49583169964E+02  0.60173971306E+02  0.78001772798E+02  0.00000000000E+00 0.  1.
</event>
<event>
 8    1  0.4798744E-006  0.1185813E+03  0.7561462E-02  0.1245456E+00
         -1   -1    0    0    0  501 -0.00000000000E+00  0.00000000000E+00  0.17191504983E+03  0.17191504983E+03  0.00000000000E+00 0.  1.
          1   -1    0    0  501    0  0.00000000000E+00 -0.00000000000E+00 -0.97283669576E+02  0.97283669576E+02  0.00000000000E+00 0. -1.
         23    2    1    2    0    0 -0.17667079020E+01  0.72204040503E+02  0.33494248486E+02  0.14827432298E+03  0.12508743122E+03 0.  0.
         23    2    1    2    0    0  0.17667079020E+01 -0.72204040503E+02  0.41137131772E+02  0.12092439644E+03  0.87828818284E+02 0.  0.
          5    1    3    3  502    0 -0.68717971542E+01  0.97248391877E+02  0.57246259263E+02  0.11313300985E+03  0.41800000000E+01 0.  1.
         -5    1    3    3    0  502  0.51050892521E+01 -0.25044351374E+02 -0.23752010777E+02  0.35141313122E+02  0.41800000000E+01 0.  1.
        -11    1    4    4    0    0  0.38755074724E+02 -0.79780232442E+01  0.13024485171E+02  0.41656234656E+02  0.00000000000E+00 0.  1.
         11    1    4    4    0    0 -0.36988366822E+02 -0.64226017258E+02  0.28112646601E+02  0.79268161780E+02  0.00000000000E+00 0. -1.
</event>
<event>
 6    1  0.4798744E-006  0.1559918E+03  0.7561462E-02  0.1193298E+00
         -2   -1    0    0    0  501 -0.00000000000E+00  0.00000000000E+00  0.57605241478E+03  0.57605241478E+03  0.00000000000E+00 0.  1.
          2   -1    0    0  501    0  0.00000000000E+00 -0.00000000000E+00 -0.60227376037E+02  0.60227376037E+02  0.00000000000E+00 0. -1.
          5    1    1    2  502    0 -0.70709622060E+02  0.82586089105E+02  0.17247195301E+03  0.20392243560E+03  0.41800000000E+01 0. -1.
         -5    1    1    2    0  502 -0.30578639166E+01 -0.37425945208E+02  0.21856987479E+03  0.22181143900E+03  0.41800000000E+01 0.  1.
        -11    1    1    2    0    0  0.11605611027E+03 -0.25796938666E+02  0.67344526532E+02  0.13663743275E+03  0.00000000000E+00 0.  1.
         11    1    1    2    0    0 -0.42288624291E+02 -0.19363205231E+02  0.57438684412E+02  0.73908483466E+02  0.00000000000E+00 0. -1.
</event>
<event>
 8    1  0.4798744E-006  0.2080432E+03  0.7561462E-02  0.1143125E+00
          1   -1    0    0  501    0  0.00000000000E+00  0.00000000000E+00  0.20101405944E+03  0.20101405944E+03  0.00000000000E+00 0. -1.
         -1   -1    0    0    0  501 -0.00000000000E+00 -0.00000000000E+00 -0.22689209546E+03  0.22689209546E+03  0.00000000000E+00 0.  1.
         23    2    1    2    0    0  0.14332180038E+03 -0.10998029413E+03 -0.46405554632E+02  0.22458581375E+03  0.12509399936E+03 0.  0.
         23    2    1    2    0    0 -0.14332180038E+03  0.10998029413E+03  0.20527518609E+02  0.20332034115E+03  0.90999882109E+02 0.  0.
          5    1    3    3  502    0  0.39102505967E+02 -0.10841349496E+03 -0.27728806307E+02  0.11861218724E+03  0.41800000000E+01 0.  1.
         -5    1    3    3    0  502  0.10421929442E+03 -0.15667991658E+01 -0.18676748325E+02  0.10597362651E+03  0.41800000000E+01 0.  1.
        -11    1    4    4    0    0 -0.10311571955E+03  0.11664823090E+03 -0.40209856426E+01  0.15574283199E+03  0.00000000000E+00 0. -1.
         11    1    4    4    0    0 -0.40206080832E+02 -0.66679367761E+01  0.24548504252E+02  0.47577509158E+02  0.00000000000E+00 0.  1.
</event>
<event>
 8    1  0.4798744E-006  0.1365708E+03  0.7561462E-02  0.1218019E+00
         -3   -1    0    0    0  501 -0.00000000000E+00  0.00000000000E+00  0.21602811106E+02  0.21602811106E+02  0.00000000000E+00 0.  1.
          3   -1    0    0  501    0  0.00000000000E+00 -0.00000000000E+00 -0.88445308423E+03  0.88445308423E+03  0.00000000000E+00 0. -1.
         23    2    1    2    0    0  0.83509096960E+02 -0.13518561812E+02 -0.51147919698E+03  0.53330497041E+03  0.12508677679E+03 0.  0.
         23    2    1    2    0    0 -0.83509096960E+02  0.13518561812E+02 -0.35137107614E+03  0.37275092493E+03  0.91241975522E+02 0.  0.
          5    1    3    3  502    0  0.84620060321E+02 -0.58871048342E+02 -0.30916125005E+03  0.32592101171E+03  0.41800000000E+01 0.  1.
         -5    1    3    3    0  502 -0.11109633609E+01  0.45352486530E+02 -0.20231794693E+03  0.20738395870E+03  0.41800000000E+01 0.  1.
        -11    1    4    4    0    0  0.12772882167E+02  0.24378534862E+02 -0.79769724791E+02  0.84384053435E+02  0.00000000000E+00 0. -1.
         11    1    4    4    0    0 -0.96281979127E+02 -0.10859973050E+02 -0.27160135135E+03  0.28836687149E+03  0.00000000000E+00 0.  1.
</event>
<event>
 8    1  0.4798744E-006  0.9275635E+02  0.7561462E-02  0.1296311E+00
         -1   -1    0    0    0  501 -0.00000000000E+00  0.00000000000E+00  0.35060395184E+03  0.35060395184E+03  0.00000000000E+00 0.  1.
          1   -1    0    0  501    0  0.00000000000E+00 -0.00000000000E+00 -0.43853535100E+02  0.43853535100E+02  0.00000000000E+00 0. -1.
         23    2    1    2    0    0  0.22087251974E+02  0.52161814535E+02  0.21448634718E+03  0.25467860038E+03  0.12509234497E+03 0.  0.
         23    2    1    2    0    0 -0.22087251974E+02 -0.52161814535E+02  0.92264069567E+02  0.13977888657E+03  0.88412538709E+02 0.  0.
          5    1    3    3  502    0  0.47679410952E+02  0.10302511186E+02  0.19609702365E+03  0.20211626122E+03  0.41800000000E+01 0. -1.
         -5    1    3    3    0  502 -0.25592158979E+02  0.41859303349E+02  0.18389323529E+02  0.52562339159E+02  0.41800000000E+01 0. -1.
        -11    1    4    4    0    0  0.15601023961E+02 -0.46693289098E+02  0.88806377867E+02  0.10153929262E+03  0.00000000000E+00 0.  1.
         11    1    4    4    0    0 -0.37688275935E+02 -0.54685254379E+01  0.34576916996E+01  0.38239593948E+02  0.00000000000E+00 0. -1.
</event>
<event>
 8    1  0.4798744E-006  0.1384251E+03  0.7561462E-02  0.1215464E+00
         -1   -1    0    0    0  501 -0.00000000000E+00  0.00000000000E+00  0.17700511871E+03  0.17700511871E+03  0.00000000000E+00 0. -1.
          1   -1    0    0  501    0  0.00000000000E+00 -0.00000000000E+00 -0.18471722792E+03  0.18471722792E+03  0.00000000000E+00 0.  1.
         23    2    1    2    0    0 -0.13762289750E+03  0.65071733216E+01  0.56589562069E+02  0.19450428821E+03  0.12508850616E+03 0.  0.
         23    2    1    2    0    0  0.13762289750E+03 -0.65071733216E+01 -0.64301671278E+02  0.16721805843E+03  0.69604374234E+02 0.  0.
          5    1    3    3  502    0 -0.10525980992E+03 -0.17931171042E+01  0.96093053835E+02  0.14259800226E+03  0.41800000000E+01 0. -1.
         -5    1    3    3    0  502 -0.32363087583E+02  0.83002904258E+01 -0.39503491766E+02  0.51906285947E+02  0.41800000000E+01 0. -1.
        -11    1    4    4    0    0  0.27972680073E+02  0.86365108971E-01 -0.48844855978E+02  0.56287638474E+02  0.00000000000E+00 0.  1.
         11    1    4    4    0    0  0.10965021743E+03 -0.65935384306E+01 -0.15456815300E+02  0.11093041995E+03  0.00000000000E+00 0. -1.
</event>
<event>
 8    1  0.4798744E-006  0.8752548E+02  0.7561462E-02  0.1308957E+00
          1   -1    0    0  501    0  0.00000000000E+00  0.00000000000E+00  0.24246391240E+03  0.24246391240E+03  0.00000000000E+00 0. -1.
         -1   -1    0    0    0  501 -0.00000000000E+00 -0.00000000000E+00 -0.63671237703E+02  0.63671237703E+02  0.00000000000E+00 0.  1.
         23    2    1    2    0    0 -0.33891612993E+02 -0.30771684549E+02  0.48098532012E+02  0.14162140433E+03  0.12509042882E+03 0.  0.
         23    2    1    2    0    0  0.33891612993E+02  0.30771684549E+02  0.13069414268E+03  0.16451374577E+03  0.88815964868E+02 0.  0.
          5    1    3    3  502    0 -0.55213216994E+02 -0.54115358302E+02  0.68820985941E+02  0.10358943885E+03  0.41800000000E+01 0. -1.
         -5    1    3    3    0  502  0.21321604001E+02  0.23343673753E+02 -0.20722453929E+02  0.38031965481E+02  0.41800000000E+01 0. -1.
        -11    1    4    4    0    0  0.17795102729E+02  0.42331165426E+02  0.16780902204E+02  0.48889589139E+02  0.00000000000E+00 0.  1.
         11    1    4    4    0    0  0.16096510264E+02 -0.11559480877E+02  0.11391324048E+03  0.11562415663E+03  0.00000000000E+00 0. -1.
</event>
<event>
 8    1  0.4798744E-006  0.9615922E+02  0.7561462E-02  0.1288586E+00
          1   -1    0    0  501    0  0.00000000000E+00  0.00000000000E+00  0.12329561060E+03  0.12329561060E+03  0.00000000000E+00 0. -1.
         -1   -1    0    0    0  501 -0.00000000000E+00 -0.00000000000E+00 -0.10516972517E+03  0.10516972517E+03  0.00000000000E+00 0.  1.
         23    2    1    2    0    0  0.36283012100E+01  0.36028197291E+02  0.12006229704E+02  0.13077230472E+03  0.12508417390E+03 0.  0.
         23    2    1    2    0    0 -0.36283012100E+01 -0.36028197291E+02  0.61196557202E+01  0.97693031057E+02  0.90527799936E+02 0.  0.
          5    1    3    3  502    0  0.51597589410E+02 -0.15852609297E+02 -0.13042661806E+02  0.55688417839E+02  0.41800000000E+01 0. -1.
         -5    1    3    3    0  502 -0.47969288200E+02  0.51880806588E+02  0.25048891510E+02  0.75083886877E+02  0.41800000000E+01 0. -1.
        -11    1    4    4    0    0 -0.25664473160E+02 -0.37353533570E+02 -0.30715978552E+02  0.54748725932E+02  0.00000000000E+00 0.  1.
         11    1    4    4    0    0  0.22036171950E+02  0.13253362792E+01  0.36835634272E+02  0.42944305125E+02  0.00000000000E+00 0. -1.
</event>
<event>
 7    1  0.4798744E-006  0.1646893E+03  0.7561462E-02  0.1183502E+00
         -4   -1    0    0    0  501 -0.00000000000E+00  0.00000000000E+00  0.54183758416E+03  0.54183758416E+03  0.00000000000E+00 0.  1.
          4   -1    0    0  501    0  0.00000000000E+00 -0.00000000000E+00 -0.83562811628E+02  0.83562811628E+02  0.00000000000E+00 0. -1.
         23    2    1    2    0    0  0.33208755395E+02 -0.11987290302E+03  0.69666039028E+02  0.16955740233E+03  0.91782467717E+02 0.  0.
          5    1    1    2  502    0 -0.59968673676E+02  0.45748888972E+01  0.12557407279E+02  0.61581915434E+02  0.41800000000E+01 0. -1.
         -5    1    1    2    0  502  0.26759918282E+02  0.11529801412E+03  0.37605132623E+03  0.39426107803E+03  0.41800000000E+01 0.  1.
        -11    1    3    3    0    0  0.83586392220E+01 -0.12500119239E+03  0.71268403219E+02  0.14413309907E+03  0.00000000000E+00 0. -1.
         11    1    3    3    0    0  0.24850116173E+02  0.51282893750E+01 -0.16023641915E+01  0.25424303269E+02  0.00000000000E+00 0.  1.
</event>
<event>
 8    1  0.4798744E-006  0.5959534E+02  0.7561462E-02  0.1399538E+00
          1   -1    0    0  501    0  0.00000000000E+00  0.00000000000E+00  0.59365062064E+02  0.59365062064E+02  0.00000000000E+00 0. -1.
         -1   -1    0    0    0  501 -0.00000000000E+00 -0.00000000000E+00 -0.24650466727E+03  0.24650466727E+03  0.00000000000E+00 0.  1.
         23    2    1    2    0    0 -0.23689430365E+02  0.18555170807E+02 -0.15740123208E+03  0.20329375681E+03  0.12509084788E+03 0.  0.
         23    2    1    2    0    0  0.23689430365E+02 -0.18555170807E+02 -0.29738373124E+02  0.10257597252E+03  0.93445041751E+02 0.  0.
          5    1    3    3  502    0 -0.22817033146E+02  0.17700456668E+02  0.13631357337E+02  0.32205736612E+02  0.41800000000E+01 0.  1.
         -5    1    3    3    0  502 -0.87239721899E+00  0.85471413886E+00 -0.17103258941E+03  0.17108802020E+03  0.41800000000E+01 0.  1.
        -11    1    4    4    0    0 -0.14452120625E+02 -0.39558010605E+02  0.10373558251E+02  0.43374078715E+02  0.00000000000E+00 0. -1.
         11    1    4    4    0    0  0.38141550990E+02  0.21002839798E+02 -0.40111931376E+02  0.59201893806E+02  0.00000000000E+00 0.  1.
</event>
<event>
 8    1  0.4798744E-006  0.2126716E+03  0.7561462E-02  0.1139468E+00
         -1   -1    0    0    0  501 -0.00000000000E+00  0.00000000000E+00  0.75120155326E+02  0.75120155326E+02  0.00000000000E+00 0.  1.
          1   -1    0    0  501    0  0.00000000000E+00 -0.00000000000E+00 -0.76040874891E+03  0.76040874891E+03  0.00000000000E+00 0. -1.
         23    2    1    2    0    0  0.13936165493E+03  0.13795366710E+03 -0.20913393744E+03  0.31279073786E+03  0.12509259280E+03 0.  0.
         23    2    1    2    0    0 -0.13936165493E+03 -0.13795366710E+03 -0.47615465614E+03  0.52273816637E+03  0.89883529525E+02 0.  0.
          5    1    3    3  502    0  0.30106021592E+02  0.11288583682E+03 -0.13375394067E+03  0.17764338922E+03  0.41800000000E+01 0.  1.
         -5    1    3    3    0  502  0.10925563334E+03  0.25067830286E+02 -0.75379996766E+02  0.13514734864E+03  0.41800000000E+01 0.  1.
        -11    1    4    4    0    0 -0.36374706249E+02 -0.31066887471E+02 -0.41123322883E+02  0.63082473293E+02  0.00000000000E+00 0.  1.
         11    1    4    4    0    0 -0.10298694868E+03 -0.10688677963E+03 -0.43503133326E+03  0.45965569308E+03  0.00000000000E+00 0. -1.
</event>
<event>
 8    1  0.4798744E-006  0.1001200E+03  0.7561462E-02  0.1280044E+00
          1   -1    0    0  501    0  0.00000000000E+00  0.00000000000E+00  0.76536932788E+02  0.76536932788E+02  0.00000000000E+00 0. -1.
         -1   -1    0    0    0  501 -0.00000000000E+00 -0.00000000000E+00 -0.16947592544E+03  0.16947592544E+03  0.00000000000E+00 0.  1.
         23    2    1    2    0    0  0.95125744423E+01  0.36821097877E+01 -0.87338551160E+02  0.15290281333E+03  0.12508877168E+03 0.  0.
         23    2    1    2    0    0 -0.95125744423E+01 -0.36821097877E+01 -0.56004414966E+01  0.93110044900E+02  0.92380022252E+02 0.  0.
          5    1    3    3  502    0 -0.13217868672E+02 -0.51036946985E+02 -0.75746999891E+02  0.92382695361E+02  0.41800000000E+01 0. -1.
         -5    1    3    3    0  502  0.22730443115E+02  0.54719056773E+02 -0.11591551269E+02  0.60520117970E+02  0.41800000000E+01 0. -1.
        -11    1    4    4    0    0 -0.39280002151E+02  0.25045397314E+02  0.12072960138E+02  0.48124285575E+02  0.00000000000E+00 0. -1.
         11    1    4    4    0    0  0.29767427709E+02 -0.28727507102E+02 -0.17673401635E+02  0.44985759325E+02  0.00000000000E+00 0.  1.
</event>
<event>
 8    1  0.4798744E-006  0.1038848E+03  0.7561462E-02  0.1272333E+00
         -2   -1    0    0    0  501 -0.00000000000E+00  0.00000000000E+00  0.85885403043E+02  0.85885403043E+02  0.00000000000E+00 0.  1.
          2   -1    0    0  501    0  0.00000000000E+00 -0.00000000000E+00 -0.19865708472E+03  0.19865708472E+03  0.00000000000E+00 0. -1.
         23    2    1    2    0    0 -0.18864480360E+02  0.63511618814E+02 -0.23925813496E+02  0.14355615069E+03  0.12508528893E+03 0.  0.
         23    2    1    2    0    0  0.18864480360E+02 -0.63511618814E+02 -0.88845868183E+02  0.14098633707E+03  0.87143356629E+02 0.  0.
          5    1    3    3  502    0 -0.29058720953E+02 -0.32880287069E+02 -0.22029128881E+01  0.44134428357E+02  0.41800000000E+01 0. -1.
         -5    1    3    3    0  502  0.10194240593E+02  0.96391905884E+02 -0.21722900608E+02  0.99421722335E+02  0.41800000000E+01 0. -1.
        -11    1    4    4    0    0  0.12037286766E+02 -0.27524231325E+02  0.13015190982E+02  0.32739498760E+02  0.00000000000E+00 0.  1.
         11    1    4    4    0    0  0.68271935934E+01 -0.35987387489E+02 -0.10186105917E+03  0.10824683831E+03  0.00000000000E+00 0. -1.
</event>
<event>
 8    1  0.4798744E-006  0.2038390E+03  0.7561462E-02  0.1146540E+00
         -2   -1    0    0    0  501 -0.00000000000E+00  0.00000000000E+00  0.12704674488E+03  0.12704674488E+03  0.00000000000E+00 0.  1.
          2   -1    0    0  501    0  0.00000000000E+00 -0.00000000000E+00 -0.39222304721E+03  0.39222304721E+03  0.00000000000E+00 0. -1.
         23    2    1    2    0    0 -0.13920607207E+03  0.11718427169E+03 -0.53704604095E+02  0.22724780812E+03  0.12508756038E+03 0.  0.
         23    2    1    2    0    0  0.13920607207E+03 -0.11718427169E+03 -0.21147169824E+03  0.29202198397E+03  0.86290648005E+02 0.  0.
          5    1    3    3  502    0 -0.11533613520E+03  0.16430389902E+02 -0.20010736114E+02  0.11828052991E+03  0.41800000000E+01 0. -1.
         -5    1    3    3    0  502 -0.23869936870E+02  0.10075388179E+03 -0.33693867981E+02  0.10896727821E+03  0.41800000000E+01 0. -1.
        -11    1    4    4    0    0  0.81818249700E+02 -0.96398391386E+02 -0.18813796880E+03  0.22667768119E+03  0.00000000000E+00 0. -1.
         11    1    4    4    0    0  0.57387822371E+02 -0.20785880303E+02 -0.23333729443E+02  0.65344302783E+02  0.00000000000E+00 0.  1.
</event>
<event>
 7    1  0.4798744E-006  0.1908218E+03  0.7561462E-02  0.1157722E+00
          4   -1    0    0  501    0  0.00000000000E+00  0.00000000000E+00  0.13411482608E+04  0.13411482608E+04  0.00000000000E+00 0. -1.
         -4   -1    0    0    0  501 -0.00000000000E+00 -0.00000000000E+00 -0.32617865393E+02  0.32617865393E+02  0.00000000000E+00 0.  1.
         23    2    1    2    0    0  0.11997610806E+03  0.89008733011E+02  0.77837953215E+03  0.79772180817E+03  0.90380120086E+02 0.  0.
          5    1    1    2  502    0 -0.15231738902E+03 -0.59775913960E+02  0.49005379070E+03  0.51666617566E+03  0.41800000000E+01 0. -1.
         -5    1    1    2    0  502  0.32341280963E+02 -0.29232819051E+02  0.40097072583E+02  0.59378142391E+02  0.41800000000E+01 0.  1.
        -11    1    3    3    0    0  0.92268549065E+01  0.58597816314E+02  0.23913105084E+03  0.24637877020E+03  0.00000000000E+00 0. -1.
         11    1    3    3    0    0  0.11074925315E+03  0.30410916697E+02  0.53924848130E+03  0.55134303797E+03  0.00000000000E+00 0.  1.
</event>
<event>
 8    1  0.4798744E-006  0.7829099E+02  0.7561462E-02  0.1333973E+00
          3   -1    0    0  501    0  0.00000000000E+00  0.00000000000E+00  0.89408054102E+02  0.89408054102E+02  0.00000000000E+00 0. -1.
         -3   -1    0    0    0  501 -0.00000000000E+00 -0.00000000000E+00 -0.16482188342E+03  0.16482188342E+03  0.00000000000E+00 0.  1.
         23    2    1    2    0    0  0.39332295631E+02 -0.12229209691E+02 -0.78799908058E+02  0.15346983229E+03  0.12508789256E+03 0.  0.
         23    2    1    2    0    0 -0.39332295631E+02  0.12229209691E+02  0.33860787351E+01  0.10076010523E+03  0.91894233923E+02 0.  0.
          5    1    3    3  502    0  0.53835142627E+02  0.35912947391E+02 -0.80025216704E+02  0.10300228192E+03  0.41800000000E+01 0. -1.
         -5    1    3    3    0  502 -0.14502846995E+02 -0.48142157082E+02  0.12253086457E+01  0.50467550374E+02  0.41800000000E+01 0. -1.
        -11    1    4    4    0    0 -0.13579093905E+02  0.55905543734E+01  0.47241223629E+02  0.49470994526E+02  0.00000000000E+00 0. -1.
         11    1    4    4    0    0 -0.25753201726E+02  0.66386553177E+01 -0.43855144894E+02  0.51289110708E+02  0.00000000000E+00 0.  1.
</event>
<event>
 7    1  0.4798744E-006  0.1473078E+03  0.7561462E-02  0.1203821E+00
          1   -1    0    0  501    0  0.00000000000E+00  0.00000000000E+00  0.32929778747E+03  0.32929778747E+03  0.00000000000E+00 0. -1.
         -1   -1    0    0    0  501 -0.00000000000E+00 -0.00000000000E+00 -0.13004713786E+03  0.13004713786E+03  0.00000000000E+00 0.  1.
         23    2    1    2    0    0  0.85559445862E+02  0.85304388477E+02 -0.49483433940E+02  0.18081472736E+03  0.12509235759E+03 0.  0.
          5    1    3    3  502    0 -0.23676987392E+02  0.55486292999E+02 -0.20563600165E+02  0.63872235709E+02  0.41800000000E+01 0.  1.
         -5    1    3    3    0  502  0.10923643325E+03  0.29818095478E+02 -0.28919833775E+02  0.11694249165E+03  0.41800000000E+01 0.  1.
        -11    1    1    2    0    0 -0.39129903912E+02 -0.40345394496E+02  0.79380230803E+02  0.97263154790E+02  0.00000000000E+00 0. -1.
         11    1    1    2    0    0 -0.46429541950E+02 -0.44958993981E+02  0.16935385274E+03  0.18126704318E+03  0.00000000000E+00 0.  1.
</event>
<event>
 8    1  0.4798744E-006  0.1201404E+03  0.7561462E-02  0.1242866E+00
          3   -1    0    0  501    0  0.00000000000E+00  0.00000000000E+00  0.22157986833E+02  0.22157986833E+02  0.00000000000E+00 0. -1.
         -3   -1    0    0    0  501 -0.00000000000E+00 -0.00000000000E+00 -0.11566407439E+04  0.11566407439E+04  0.00000000000E+00 0.  1.
         23    2    1    2    0    0  0.14068213829E+02  0.10186856418E+03 -0.81696883361E+03  0.83286361375E+03  0.12509438442E+03 0.  0.
         23    2    1    2    0    0 -0.14068213829E+02 -0.10186856418E+03 -0.31751392347E+03  0.34593511699E+03  0.90999420677E+02 0.  0.
          5    1    3    3  502    0 -0.57301720407E+01  0.36090799214E+02 -0.46316216773E+02  0.59144272721E+02  0.41800000000E+01 0. -1.
         -5    1    3    3    0  502  0.19798385870E+02  0.65777764966E+02 -0.77065261683E+03  0.77371934103E+03  0.41800000000E+01 0. -1.
        -11    1    4    4    0    0  0.27138015800E+02 -0.26770251602E+01 -0.95279564631E+02  0.99105165363E+02  0.00000000000E+00 0.  1.
         11    1    4    4    0    0 -0.41206229630E+02 -0.99191539020E+02 -0.22223435883E+03  0.24682995163E+03  0.00000000000E+00 0. -1.
</event>
<event>
 8    1  0.4798744E-006  0.1328199E+03  0.7561462E-02  0.1223331E+00
         -1   -1    0    0    0  501 -0.00000000000E+00  0.00000000000E+00  0.40823109155E+03  0.40823109155E+03  0.00000000000E+00 0.  1.
          1   -1    0    0  501    0  0.00000000000E+00 -0.00000000000E+00 -0.56805193119E+02  0.56805193119E+02  0.00000000000E+00 0. -1.
         23    2    1    2    0    0 -0.98422836712E+02  0.42012841842E+02  0.18308174512E+03  0.24620909718E+03  0.12509140847E+03 0.  0.
         23    2    1    2    0    0  0.98422836712E+02 -0.42012841842E+02  0.16834415331E+03  0.21882718749E+03  0.89963605776E+02 0.  0.
          5    1    3    3  502    0 -0.97873291617E+02 -0.65930666529E+00  0.17780376219E+03  0.20300558156E+03  0.41800000000E+01 0.  1.
         -5    1    3    3    0  502 -0.54954509560E+00  0.42672148508E+02  0.52779829331E+01  0.43203515620E+02  0.41800000000E+01 0.  1.
        -11    1    4    4    0    0  0.64909178551E+02 -0.58557988484E+02  0.65013730705E+02  0.10894505338E+03  0.00000000000E+00 0. -1.
         11    1    4    4    0    0  0.33513658161E+02  0.16545146642E+02  0.10333042260E+03  0.10988213411E+03  0.00000000000E+00 0.  1.
</event>
<event>
 8    1  0.4798744E-006  0.8367183E+02  0.7561462E-02  0.1318943E+00
         -2   -1    0    0    0  501 -0.00000000000E+00  0.00000000000E+00  0.14892830816E+03  0.14892830816E+03  0.00000000000E+00 0.  1.
          2   -1    0    0  501    0  0.00000000000E+00 -0.00000000000E+00 -0.82877462562E+02  0.82877462562E+02  0.00000000000E+00 0. -1.
         23    2    1    2    0    0 -0.13465570946E+02 -0.14188003560E+02  0.46183250880E+02  0.13477012175E+03  0.12508985574E+03 0.  0.
         23    2    1    2    0    0  0.13465570946E+02  0.14188003560E+02  0.19867594717E+02  0.97035648966E+02  0.92943933662E+02 0.  0.
          5    1    3    3  502    0 -0.55195036017E+02 -0.26222573701E+02 -0.11626059230E+02  0.62343829090E+02  0.41800000000E+01 0. -1.
         -5    1    3    3    0  502  0.41729465071E+02  0.12034570141E+02  0.57809310110E+02  0.72426292663E+02  0.41800000000E+01 0. -1.
        -11    1    4    4    0    0 -0.12540417423E+02 -0.17462213687E+02  0.44369195162E+02  0.49303310795E+02  0.00000000000E+00 0.  1.
         11    1    4    4    0    0  0.26005988369E+02  0.31650217247E+02 -0.24501600446E+02  0.47732338171E+02  0.00000000000E+00 0. -1.
</event>
<event>
 8    1  0.4798744E-006  0.1034964E+03  0.7561462E-02  0.1273111E+00
          1   -1    0    0  501    0  0.00000000000E+00  0.00000000000E+00  0.10380015030E+04  0.10380015030E+04  0.00000000000E+00 0. -1.
         -1   -1    0    0    0  501 -0.00000000000E+00 -0.00000000000E+00 -0.14965075991E+02  0.14965075991E+02  0.00000000000E+00 0.  1.
         23    2    1    2    0    0  0.46543600374E+02  0.37221599789E+02  0.63940118033E+03  0.65424212499E+03  0.12508850657E+03 0.  0.
         23    2    1    2    0    0 -0.46543600374E+02 -0.37221599789E+02  0.38363524663E+03  0.39872445395E+03  0.90848409433E+02 0.  0.
          5    1    3    3  502    0  0.66402874854E+02  0.41993600308E+02  0.20872163984E+03  0.22305828743E+03  0.41800000000E+01 0.  1.
         -5    1    3    3    0  502 -0.19859274481E+02 -0.47720005192E+01  0.43067954049E+03  0.43118383756E+03  0.41800000000E+01 0.  1.
        -11    1    4    4    0    0  0.17399336571E+01 -0.55730068470E+02  0.16954188667E+03  0.17847498210E+03  0.00000000000E+00 0.  1.
         11    1    4    4    0    0 -0.48283534031E+02  0.18508468681E+02  0.21409335997E+03  0.22024947186E+03  0.00000000000E+00 0. -1.
</event>
<event>
 8    1  0.4798744E-006  0.7867193E+02  0.7561462E-02  0.1332863E+00
          1   -1    0    0  501    0  0.00000000000E+00  0.00000000000E+00  0.10211895083E+03  0.10211895083E+03  0.00000000000E+00 0. -1.
         -1   -1    0    0    0  501 -0.00000000000E+00 -0.00000000000E+00 -0.11725050748E+03  0.11725050748E+03  0.00000000000E+00 0.  1.
         23    2    1    2    0    0  0.16459067716E+01  0.81351877788E+00 -0.28978272655E+02  0.12842193563E+03  0.12509629268E+03 0.  0.
         23    2    1    2    0    0 -0.16459067716E+01 -0.81351877788E+00  0.13846716003E+02  0.90947522679E+02  0.89868512369E+02 0.  0.
          5    1    3    3  502    0  0.37142954967E+02 -0.20133607886E+02  0.33069563158E+02  0.53814771927E+02  0.41800000000E+01 0. -1.
         -5    1    3    3    0  502 -0.35497048195E+02  0.20947126664E+02 -0.62047835813E+02  0.74607163698E+02  0.41800000000E+01 0. -1.
        -11    1    4    4    0    0 -0.21501149558E+02 -0.30760069533E+02 -0.19177455166E+02  0.42145653354E+02  0.00000000000E+00 0.  1.
         11    1    4    4    0    0  0.19855242786E+02  0.29946550755E+02  0.33024171169E+02  0.48801869325E+02  0.00000000000E+00 0. -1.
</event>
<event>
 8    1  0.4798744E-006  0.1491510E+03  0.7561462E-02  0.1201520E+00
         -2   -1    0    0    0  501 -0.00000000000E+00  0.00000000000E+00  0.73808141658E+02  0.73808141658E+02  0.00000000000E+00 0.  1.
          2   -1    0    0  501    0  0.00000000000E+00 -0.00000000000E+00 -0.65947261999E+03  0.65947261999E+03  0.00000000000E+00 0. -1.
         23    2    1    2    0    0  0.18893801441E+02 -0.11080569749E+03 -0.45848646520E+02  0.17431175028E+03  0.12509040559E+03 0.  0.
         23    2    1    2    0    0 -0.18893801441E+02  0.11080569749E+03 -0.53981583181E+03  0.55896901136E+03  0.91707933464E+02 0.  0.
          5    1    3    3  502    0  0.63035862581E+02 -0.82419551239E+02 -0.59818182030E+02  0.11984235353E+03  0.41800000000E+01 0. -1.
         -5    1    3    3    0  502 -0.44142061139E+02 -0.28386146252E+02  0.13969535511E+02  0.54469396757E+02  0.41800000000E+01 0. -1.
        -11    1    4    4    0    0  0.33252471119E+02  0.25819976206E+02 -0.11105168892E+03  0.11876394915E+03  0.00000000000E+00 0.  1.
         11    1    4    4    0    0 -0.52146272560E+02  0.84985721285E+02 -0.42876414289E+03  0.44020506221E+03  0.00000000000E+00 0. -1.
</event>
<event>
 8    1  0.4798744E-006  0.8812324E+02  0.7561462E-02  0.1307461E+00
         -3   -1    0    0    0  501 -0.00000000000E+00  0.00000000000E+00  0.63359347490E+03  0.63359347490E+03  0.00000000000E+00 0.  1.
          3   -1    0    0  501    0  0.00000000000E+00 -0.00000000000E+00 -0.19814456475E+02  0.19814456475E+02  0.00000000000E+00 0. -1.
         23    2    1    2    0    0 -0.23037420812E+02  0.15569158819E+02  0.38661593559E+03  0.40729829923E+03  0.12508757507E+03 0.  0.
         23    2    1    2    0    0  0.23037420812E+02 -0.15569158819E+02  0.22716308283E+03  0.24610963214E+03  0.90519408799E+02 0.  0.
          5    1    3    3  502    0 -0.43945124581E+02 -0.35076245629E+02  0.94364091514E+02  0.10992529804E+03  0.41800000000E+01 0. -1.
         -5    1    3    3    0  502  0.20907703769E+02  0.50645404449E+02  0.29225184408E+03  0.29737300119E+03  0.41800000000E+01 0. -1.
        -11    1    4    4    0    0  0.31133771457E+02 -0.33198863840E+02  0.22117094951E+03  0.22580537016E+03  0.00000000000E+00 0.  1.
         11    1    4    4    0    0 -0.80963506452E+01  0.17629705021E+02  0.59921333142E+01  0.20304261980E+02  0.00000000000E+00 0. -1.
</event>
<event>
 8    1  0.4798744E-006  0.8562942E+02  0.7561462E-02  0.1313795E+00
          2   -1    0    0  501    0  0.00000000000E+00  0.00000000000E+00  0.43710470528E+03  0.43710470528E+03  0.00000000000E+00 0. -1.
         -2   -1    0    0    0  501 -0.00000000000E+00 -0.00000000000E+00 -0.35453859927E+02  0.35453859927E+02  0.00000000000E+00 0.  1.
         23    2    1    2    0    0  0.58256298639E+02 -0.30337517612E+02  0.20885924140E+03  0.25215810798E+03  0.12508943758E+03 0.  0.
         23    2    1    2    0    0 -0.58256298639E+02  0.30337517612E+02  0.19279160396E+03  0.22040045723E+03  0.84223498425E+02 0.  0.
          5    1    3    3  502    0  0.49729326734E+02 -0.14794640328E+02  0.10670292570E+02  0.53133933258E+02  0.41800000000E+01 0.  1.
         -5    1    3    3    0  502  0.85269719052E+01 -0.15542877284E+02  0.19818894883E+03  0.19902417472E+03  0.41800000000E+01 0.  1.
        -11    1    4    4    0    0 -0.16741173093E+02  0.51672333056E+02  0.67144736818E+02  0.86363838279E+02  0.00000000000E+00 0.  1.
         11    1    4    4    0    0 -0.41515125547E+02 -0.21334815444E+02  0.12564686714E+03  0.13403661895E+03  0.00000000000E+00 0. -1.
</event>
<event>
 8    1  0.4798744E-006  0.8687548E+02  0.7561462E-02  0.1310600E+00
          1   -1    0    0  501    0  0.00000000000E+00  0.00000000000E+00  0.16732658817E+03  0.16732658817E+03  0.00000000000E+00 0. -1.
         -1   -1    0    0    0  501 -0.00000000000E+00 -0.00000000000E+00 -0.81901593949E+02  0.81901593949E+02  0.00000000000E+00 0.  1.
         23    2    1    2    0    0  0.25901256134E+01  0.45505756952E+02  0.46010216418E+02  0.14086080292E+03  0.12508934054E+03 0.  0.
         23    2    1    2    0    0 -0.25901256134E+01 -0.45505756952E+02  0.39414777806E+02  0.10836737920E+03  0.90069314973E+02 0.  0.
          5    1    3    3  502    0  0.40341514848E+02  0.18956950312E+02  0.74170565465E+02  0.86634571429E+02  0.41800000000E+01 0. -1.
         -5    1    3    3    0  502 -0.37751389234E+02  0.26548806639E+02 -0.28160349047E+02  0.54226231489E+02  0.41800000000E+01 0. -1.
        -11    1    4    4    0    0 -0.11196011838E+02 -0.62551684294E+02  0.54748472984E+02  0.83877644121E+02  0.00000000000E+00 0. -1.
         11    1    4    4    0    0  0.86058862244E+01  0.17045927343E+02 -0.15333695178E+02  0.24489735084E+02  0.00000000000E+00 0.  1.
</event>
<event>
 8    1  0.4798744E-006  0.6691563E+02  0.7561462E-02  0.1370907E+00
          2   -1    0    0  501    0  0.00000000000E+00  0.00000000000E+00  0.12088380870E+03  0.12088380870E+03  0.00000000000E+00 0. -1.
         -2   -1    0    0    0  501 -0.00000000000E+00 -0.00000000000E+00 -0.10002060886E+03  0.10002060886E+03  0.00000000000E+00 0.  1.
         23    2    1    2    0    0 -0.44076701832E+01  0.14879149614E+02 -0.13669358542E+01  0.12605356959E+03  0.12508723853E+03 0.  0.
         23    2    1    2    0    0  0.44076701832E+01 -0.14879149614E+02  0.22230135698E+02  0.94850847966E+02  0.90893826946E+02 0.  0.
          5    1    3    3  502    0  0.14857913637E+02 -0.90169722922E+01 -0.58441319032E+02  0.61114020954E+02  0.41800000000E+01 0.  1.
         -5    1    3    3    0  502 -0.19265583821E+02  0.23896121906E+02  0.57074383178E+02  0.64939548637E+02  0.41800000000E+01 0.  1.
        -11    1    4    4    0    0  0.52488585688E+01 -0.49785202903E+02 -0.53633039377E+01  0.50347611398E+02  0.00000000000E+00 0.  1.
         11    1    4    4    0    0 -0.84118838560E+00  0.34906053289E+02  0.27593439636E+02  0.44503236568E+02  0.00000000000E+00 0. -1.
</event>
<event>
 8    1  0.4798744E-006  0.1982646E+03  0.7561462E-02  0.1151211E+00
         -2   -1    0    0    0  501 -0.00000000000E+00  0.00000000000E+00  0.39528728961E+02  0.39528728961E+02  0.00000000000E+00 0.  1.
          2   -1    0    0  501    0  0.00000000000E+00 -0.00000000000E+00 -0.12608445301E+04  0.12608445301E+04  0.00000000000E+00 0. -1.
         23    2    1    2    0    0 -0.24427058755E+02 -0.16866862183E+03 -0.36140615367E+03  0.41869820040E+03  0.12509192586E+03 0.  0.
         23    2    1    2    0    0  0.24427058755E+02  0.16866862183E+03 -0.85990964749E+03  0.88167505868E+03  0.94130346158E+02 0.  0.
          5    1    3    3  502    0  0.35746742473E+02 -0.12355520306E+03 -0.27783368771E+03  0.30619070565E+03  0.41800000000E+01 0.  1.
         -5    1    3    3    0  502 -0.60173801228E+02 -0.45113418774E+02 -0.83572465963E+02  0.11250749475E+03  0.41800000000E+01 0.  1.
        -11    1    4    4    0    0 -0.27994407606E+02  0.11145942340E+03 -0.44690220964E+03  0.46144173512E+03  0.00000000000E+00 0.  1.
         11    1    4    4    0    0  0.52421466361E+02  0.57209198433E+02 -0.41300743784E+03  0.42023332357E+03  0.00000000000E+00 0. -1.
</event>
<event>
 8    1  0.4798744E-006  0.1282554E+03  0.7561462E-02  0.1230068E+00
          2   -1    0    0  501    0  0.00000000000E+00  0.00000000000E+00  0.61777906910E+03  0.61777906910E+03  0.00000000000E+00 0. -1.
         -2   -1    0    0    0  501 -0.00000000000E+00 -0.00000000000E+00 -0.28736264186E+02  0.28736264186E+02  0.00000000000E+00 0.  1.
         23    2    1    2    0    0 -0.60488776330E+01  0.79761017375E+02  0.28459909064E+03  0.31890594343E+03  0.11960748115E+03 0.  0.
         23    2    1    2    0    0  0.60488776330E+01 -0.79761017375E+02  0.30444371427E+03  0.32760938986E+03  0.90793878371E+02 0.  0.
          5    1    3    3  502    0 -0.60195433692E+02  0.27217978152E+02  0.10589437841E+03  0.12488154528E+03  0.41800000000E+01 0. -1.
         -5    1    3    3    0  502  0.54146556059E+02  0.52543039224E+02  0.17870471223E+03  0.19402439815E+03  0.41800000000E+01 0.  1.
        -11    1    4    4    0    0  0.29295262584E+02 -0.85857726327E+02  0.18840480510E+03  0.20910794381E+03  0.00000000000E+00 0.  1.
         11    1    4    4    0    0 -0.23246384951E+02  0.60967089521E+01  0.11603890917E+03  0.11850144604E+03  0.00000000000E+00 0. -1.
</event>
<event>
 8    1  0.5812354E-006  0.1142355E+03  0.7561462E-02  0.1252921E+00
          1   -1    0    0  501    0  0.00000000000E+00  0.00000000000E+00  0.94050812371E+02  0.94050812371E+02  0.00000000000E+00 0. -1.
         -1   -1    0    0    0  501 -0.00000000000E+00 -0.00000000000E+00 -0.29287357461E+03  0.29287357461E+03  0.00000000000E+00 0.  1.
         23    2    1    2    0    0  0.91210497543E+02  0.66913900222E+02 -0.16898560278E+03  0.23874743955E+03  0.12508949214E+03 0.  0.
         23    2    1    2    0    0 -0.91210497543E+02 -0.66913900222E+02 -0.29837159458E+02  0.14817694742E+03  0.90935838690E+02 0.  0.
          5    1    3    3  502    0  0.47096024972E+02  0.21652590229E+02 -0.16750165683E+03  0.17538856198E+03  0.41800000000E+01 0.  1.
         -5    1    3    3    0  502  0.44114472571E+02  0.45261309993E+02 -0.14839459499E+01  0.63358877579E+02  0.41800000000E+01 0.  1.
        -11    1    4    4    0    0 -0.35117104778E+02 -0.25247090637E+02 -0.58414587517E+02  0.72683496534E+02  0.00000000000E+00 0.  1.
         11    1    4    4    0    0 -0.56093392765E+02 -0.41666809585E+02  0.28577428058E+02  0.75493450890E+02  0.00000000000E+00 0. -1.
</event>
<event>
 8    1  0.4798744E-006  0.1219855E+03  0.7561462E-02  0.1239857E+00
         -1   -1    0    0    0  501 -0.00000000000E+00  0.00000000000E+00  0.91524811057E+02  0.91524811057E+02  0.00000000000E+00 0.  1.
          1   -1    0    0  501    0  0.00000000000E+00 -0.00000000000E+00 -0.17023755888E+03  0.17023755888E+03  0.00000000000E+00 0. -1.
         23    2    1    2    0    0  0.53597856841E+02 -0.23523688790E+02 -0.25102100091E+02  0.14037065324E+03  0.12509080969E+03 0.  0.
         23    2    1    2    0    0 -0.53597856841E+02  0.23523688790E+02 -0.53610647731E+02  0.12139171670E+03  0.91846356166E+02 0.  0.
          5    1    3    3  502    0  0.97222367867E+01 -0.71384604462E+02 -0.21092483679E+02  0.75184100115E+02  0.41800000000E+01 0.  1.
         -5    1    3    3    0  502  0.43875620054E+02  0.47860915672E+02 -0.40096164119E+01  0.65186553121E+02  0.41800000000E+01 0.  1.
        -11    1    4    4    0    0 -0.72673362872E+02 -0.45344810190E+01 -0.24926810570E+02  0.76963141012E+02  0.00000000000E+00 0.  1.
         11    1    4    4    0    0  0.19075506031E+02  0.28058169809E+02 -0.28683837161E+02  0.44428575688E+02  0.00000000000E+00 0. -1.
</event>
<event>
 8    1  0.4798744E-006  0.8158792E+02  0.7561462E-02  0.1324605E+00
          3   -1    0    0  501    0  0.00000000000E+00  0.00000000000E+00  0.29962366123E+03  0.29962366123E+03  0.00000000000E+00 0. -1.
         -3   -1    0    0    0  501 -0.00000000000E+00 -0.00000000000E+00 -0.43592688435E+02  0.43592688435E+02  0.00000000000E+00 0.  1.
         23    2    1    2    0    0  0.25004999100E+02 -0.13460098323E+02  0.10898671417E+03  0.16832044925E+03  0.12508895052E+03 0.  0.
         23    2    1    2    0    0 -0.25004999100E+02  0.13460098323E+02  0.14704425863E+03  0.17489590042E+03  0.90333480840E+02 0.  0.
          5    1    3    3  502    0  0.12096992222E+02 -0.42862144170E+02  0.12458906488E+03  0.13237601033E+03  0.41800000000E+01 0. -1.
         -5    1    3    3    0  502  0.12908006878E+02  0.29402045847E+02 -0.15602350709E+02  0.35944438919E+02  0.41800000000E+01 0. -1.
        -11    1    4    4    0    0  0.29998210239E+02  0.45088855081E+01  0.20465615459E+02  0.36593224540E+02  0.00000000000E+00 0.  1.
         11    1    4    4    0    0 -0.55003209340E+02  0.89512128144E+01  0.12657864317E+03  0.13830267588E+03  0.00000000000E+00 0. -1.
</event>
<event>
 8    1  0.4798744E-006  0.1185884E+03  0.7561462E-02  0.1245444E+00
          2   -1    0    0  501    0  0.00000000000E+00  0.00000000000E+00  0.60839313389E+03  0.60839313389E+03  0.00000000000E+00 0. -1.
         -2   -1    0    0    0  501 -0.00000000000E+00 -0.00000000000E+00 -0.49563863460E+02  0.49563863460E+02  0.00000000000E+00 0.  1.
         23    2    1    2    0    0  0.86175211870E+02  0.11101538829E+02  0.99937268233E+02  0.18216460763E+03  0.12508827037E+03 0.  0.
         23    2    1    2    0    0 -0.86175211870E+02 -0.11101538829E+02  0.45889200220E+03  0.47579238973E+03  0.90813639580E+02 0.  0.
          5    1    3    3  502    0  0.86028085077E+02 -0.17856781266E+02  0.11845190733E+03  0.14753990243E+03  0.41800000000E+01 0. -1.
         -5    1    3    3    0  502  0.14712679236E+00  0.28958320095E+02 -0.18514639096E+02  0.34624705196E+02  0.41800000000E+01 0. -1.
        -11    1    4    4    0    0 -0.36986390444E+02  0.36172139960E+02  0.13033366806E+03  0.14022582436E+03  0.00000000000E+00 0.  1.
         11    1    4    4    0    0 -0.49188821425E+02 -0.47273678789E+02  0.32855833414E+03  0.33556656537E+03  0.00000000000E+00 0. -1.
</event>
<event>
 8    1  0.4798744E-006  0.1235771E+03  0.7561462E-02  0.1237310E+00
          1   -1    0    0  501    0  0.00000000000E+00  0.00000000000E+00  0.42444710709E+03  0.42444710709E+03  0.00000000000E+00 0. -1.
         -1   -1    0    0    0  501 -0.00000000000E+00 -0.00000000000E+00 -0.54438742986E+02  0.54438742986E+02  0.00000000000E+00 0.  1.
         23    2    1    2    0    0 -0.10782838872E+02 -0.95668704992E+02  0.13568566498E+03  0.20815077441E+03  0.12508946590E+03 0.  0.
         23    2    1    2    0    0  0.10782838872E+02  0.95668704992E+02  0.23432269913E+03  0.27073507566E+03  0.95506979531E+02 0.  0.
          5    1    3    3  502    0  0.51455746536E+02 -0.38418886845E+02  0.25566310221E+02  0.69244590665E+02  0.41800000000E+01 0.  1.
         -5    1    3    3    0  502 -0.62238585408E+02 -0.57249818147E+02  0.11011935475E+03  0.13890618375E+03  0.41800000000E+01 0.  1.
        -11    1    4    4    0    0 -0.46381326504E+01  0.43147816607E+02  0.16971154000E+02  0.46596849899E+02  0.00000000000E+00 0.  1.
         11    1    4    4    0    0  0.15420971523E+02  0.52520888386E+02  0.21735154513E+03  0.22413822577E+03  0.00000000000E+00 0. -1.
</event>
<event>
 8    1  0.4798744E-006  0.1161592E+03  0.7561462E-02  0.1249571E+00
          1   -1    0    0  501    0  0.00000000000E+00  0.00000000000E+00  0.47108685127E+03  0.47108685127E+03  0.00000000000E+00 0. -1.
         -1   -1    0    0    0  501 -0.00000000000E+00 -0.00000000000E+00 -0.35503881331E+02  0.35503881331E+02  0.00000000000E+00 0.  1.
         23    2    1    2    0    0 -0.62784579574E+02 -0.23995611846E+01  0.17641036550E+03  0.22520278499E+03  0.12509203006E+03 0.  0.
         23    2    1    2    0    0  0.62784579574E+02  0.23995611846E+01  0.25917260445E+03  0.28138794762E+03  0.89783499836E+02 0.  0.
          5    1    3    3  502    0 -0.67053796077E+02 -0.44875791245E+02  0.58545311000E+02  0.99775117380E+02  0.41800000000E+01 0.  1.
         -5    1    3    3    0  502  0.42692165028E+01  0.42476230060E+02  0.11786505450E+03  0.12542766761E+03  0.41800000000E+01 0.  1.
        -11    1    4    4    0    0 -0.19708695519E+01  0.35741518466E+02  0.10359665830E+03  0.10960660600E+03  0.00000000000E+00 0. -1.
         11    1    4    4    0    0  0.64755449126E+02 -0.33341957281E+02  0.15557594615E+03  0.17178134161E+03  0.00000000000E+00 0.  1.
</event>
<event>
 8    1  0.4798744E-006  0.1203253E+03  0.7561462E-02  0.1242561E+00
         -4   -1    0    0    0  501 -0.00000000000E+00  0.00000000000E+00  0.26150410796E+03  0.26150410796E+03  0.00000000000E+00 0.  1.
          4   -1    0    0  501    0  0.00000000000E+00 -0.00000000000E+00 -0.69312706731E+02  0.69312706731E+02  0.00000000000E+00 0. -1.
         23    2    1    2    0    0  0.41644081895E+02  0.32582354349E+02  0.17897100709E+03  0.22466304202E+03  0.12508805578E+03 0.  0.
         23    2    1    2    0    0 -0.41644081895E+02 -0.32582354349E+02  0.13220394134E+02  0.10615377267E+03  0.91093387569E+02 0.  0.
          5    1    3    3  502    0  0.85851314696E+02  0.12939046787E+02  0.12218746441E+03  0.14995037855E+03  0.41800000000E+01 0.  1.
         -5    1    3    3    0  502 -0.44207232801E+02  0.19643307561E+02  0.56783542678E+02  0.74712663471E+02  0.41800000000E+01 0.  1.
        -11    1    4    4    0    0  0.19030656134E+02  0.17988991029E+02  0.57800301979E+01  0.26817502125E+02  0.00000000000E+00 0.  1.
         11    1    4    4    0    0 -0.60674738029E+02 -0.50571345377E+02  0.74403639356E+01  0.79336270543E+02  0.00000000000E+00 0. -1.
</event>
<event>
 8    1  0.4798744E-006  0.1140327E+03  0.7561462E-02  0.1253279E+00
          2   -1    0    0  501    0  0.00000000000E+00  0.00000000000E+00  0.11773947397E+03  0.11773947397E+03  0.00000000000E+00 0. -1.
         -2   -1    0    0    0  501 -0.00000000000E+00 -0.00000000000E+00 -0.16357174035E+03  0.16357174035E+03  0.00000000000E+00 0.  1.
         23    2    1    2    0    0  0.72802740018E+02  0.16022068467E+02 -0.58447699839E+02  0.15690424862E+03  0.12508342811E+03 0.  0.
         23    2    1    2    0    0 -0.72802740018E+02 -0.16022068467E+02  0.12615433459E+02  0.12440696569E+03  0.98797764748E+02 0.  0.
          5    1    3    3  502    0  0.68160058131E+02 -0.46430323875E+02 -0.28459491360E+02  0.87344052734E+02  0.41800000000E+01 0.  1.
         -5    1    3    3    0  502  0.46426818876E+01  0.62452392342E+02 -0.29988208479E+02  0.69560195889E+02  0.41800000000E+01 0.  1.
        -11    1    4    4    0    0 -0.21212683938E+02 -0.22270948892E+02 -0.39997918836E+02  0.50455987114E+02  0.00000000000E+00 0.  1.
         11    1    4    4    0    0 -0.51590056080E+02  0.62488804252E+01  0.52613352295E+02  0.73950978578E+02  0.00000000000E+00 0. -1.
</event>
<event>
 8    1  0.4798744E-006  0.1004179E+03  0.7561462E-02  0.1279420E+00
         -2   -1    0    0    0  501 -0.00000000000E+00  0.00000000000E+00  0.45755142783E+03  0.45755142783E+03  0.00000000000E+00 0.  1.
          2   -1    0    0  501    0  0.00000000000E+00 -0.00000000000E+00 -0.50453770156E+02  0.50453770156E+02  0.00000000000E+00 0. -1.
         23    2    1    2    0    0 -0.35500484573E+02  0.38061885286E+02  0.37329632250E+03  0.39816515796E+03  0.12836026297E+03 0.  0.
         23    2    1    2    0    0  0.35500484573E+02 -0.38061885286E+02  0.33801335175E+02  0.10984004002E+03  0.90627328195E+02 0.  0.
          5    1    3    3  502    0 -0.62028963741E+02  0.29932749397E+02  0.89623222256E+02  0.11310771944E+03  0.41800000000E+01 0. -1.
         -5    1    3    3    0  502  0.26528479168E+02  0.81291358891E+01  0.28367310024E+03  0.28505743852E+03  0.41800000000E+01 0.  1.
        -11    1    4    4    0    0 -0.29808149603E+02 -0.38688684268E+01  0.15790814119E+02  0.33953552630E+02  0.00000000000E+00 0.  1.
         11    1    4    4    0    0  0.65308634175E+02 -0.34193016859E+02  0.18010521056E+02  0.75886487391E+02  0.00000000000E+00 0. -1.
</event>
<event>
 8    1  0.4798744E-006  0.1102515E+03  0.7561462E-02  0.1260105E+00
          2   -1    0    0  501    0  0.00000000000E+00  0.00000000000E+00  0.80101515972E+03  0.80101515972E+03  0.00000000000E+00 0. -1.
         -2   -1    0    0    0  501 -0.00000000000E+00 -0.00000000000E+00 -0.16418737982E+02  0.16418737982E+02  0.00000000000E+00 0.  1.
         23    2    1    2    0    0 -0.33653775404E+02  0.29735414687E+02  0.37814204574E+03  0.40081892647E+03  0.12509050156E+03 0.  0.
         23    2    1    2    0    0  0.33653775404E+02 -0.29735414687E+02  0.40645437600E+03  0.41661497122E+03  0.79662431511E+02 0.  0.
          5    1    3    3  502    0 -0.76114225356E+01 -0.48678537971E+02  0.16228199905E+03  0.16964802807E+03  0.41800000000E+01 0.  1.
         -5    1    3    3    0  502 -0.26042352868E+02  0.78413952657E+02  0.21586004669E+03  0.23117089841E+03  0.41800000000E+01 0.  1.
        -11    1    4    4    0    0  0.17581462534E+02  0.25401923606E+02  0.94606261059E+02  0.99522410438E+02  0.00000000000E+00 0.  1.
         11    1    4    4    0    0  0.16072312870E+02 -0.55137338292E+02  0.31184811494E+03  0.31709256079E+03  0.00000000000E+00 0. -1.
</event>
<event>
 7    1  0.4798744E-006  0.7179198E+02  0.7561462E-02  0.1354103E+00
          1   -1    0    0  501    0  0.00000000000E+00  0.00000000000E+00  0.62964866813E+02  0.62964866813E+02  0.00000000000E+00 0. -1.
         -1   -1    0    0    0  501 -0.00000000000E+00 -0.00000000000E+00 -0.44968119550E+03  0.44968119550E+03  0.00000000000E+00 0.  1.
         23    2    1    2    0    0 -0.99765383540E+01 -0.39582374240E+02 -0.10104151190E+02  0.99778138061E+02  0.90483629987E+02 0.  0.
          5    1    1    2  502    0  0.17923821791E+02  0.27818103563E+01  0.12173555967E+02  0.22241171761E+02  0.41800000000E+01 0. -1.
         -5    1    1    2    0  502 -0.79472834366E+01  0.36800563884E+02 -0.38878573346E+03  0.39062675249E+03  0.41800000000E+01 0.  1.
        -11    1    3    3    0    0  0.16061056599E+02 -0.54681237117E+02  0.16791573652E+02  0.59413400655E+02  0.00000000000E+00 0. -1.
         11    1    3    3    0    0 -0.26037594953E+02  0.15098862877E+02 -0.26895724841E+02  0.40364737406E+02  0.00000000000E+00 0.  1.
</event>
<event>
 8    1  0.8459832E-006  0.1550525E+03  0.7561462E-02  0.1194398E+00
          2   -1    0    0  501    0  0.00000000000E+00  0.00000000000E+00  0.59150720526E+03  0.59150720526E+03  0.00000000000E+00 0. -1.
         -2   -1    0    0    0  501 -0.00000000000E+00 -0.00000000000E+00 -0.54509664919E+02  0.54509664919E+02  0.00000000000E+00 0.  1.
         23    2    1    2    0    0  0.57440760472E+00  0.13722241309E+03  0.19933669900E+03  0.27242033708E+03  0.12508956746E+03 0.  0.
         23    2    1    2    0    0 -0.57440760472E+00 -0.13722241309E+03  0.33766084134E+03  0.37359653310E+03  0.82031732712E+02 0.  0.
          5    1    3    3  502    0  0.35883542384E+02  0.85468121586E+02  0.39787800067E+02  0.10096023898E+03  0.41800000000E+01 0.  1.
         -5    1    3    3    0  502 -0.35309134779E+02  0.51754291503E+02  0.15954889894E+03  0.17146009810E+03  0.41800000000E+01 0.  1.
        -11    1    4    4    0    0 -0.34099429370E+02 -0.45446142537E+02  0.17341487369E+03  0.18248518124E+03  0.00000000000E+00 0.  1.
         11    1    4    4    0    0  0.33525021765E+02 -0.91776270552E+02  0.16424596765E+03  0.19111135186E+03  0.00000000000E+00 0. -1.
</event>
<event>
 8    1  0.4798744E-006  0.1418710E+03  0.7561462E-02  0.1210833E+00
         -1   -1    0    0    0  501 -0.00000000000E+00  0.00000000000E+00  0.29867391154E+03  0.29867391154E+03  0.00000000000E+00 0.  1.
          1   -1    0    0  501    0  0.00000000000E+00 -0.00000000000E+00 -0.10298108411E+03  0.10298108411E+03  0.00000000000E+00 0. -1.
         23    2    1    2    0    0  0.10854308518E+03 -0.29245722612E+01  0.20043357839E+03  0.26002265981E+03  0.12509200535E+03 0.  0.
         23    2    1    2    0    0 -0.10854308518E+03  0.29245722612E+01 -0.47407509646E+01  0.14163233585E+03  0.90813486748E+02 0.  0.
          5    1    3    3  502    0  0.72685960420E+02  0.42432870178E+02  0.48096604131E+02  0.97028619710E+02  0.41800000000E+01 0.  1.
         -5    1    3    3    0  502  0.35857124759E+02 -0.45357442439E+02  0.15233697426E+03  0.16299404010E+03  0.41800000000E+01 0.  1.
        -11    1    4    4    0    0 -0.87737258844E+02 -0.37984855602E+02 -0.49622809948E+01  0.95735573729E+02  0.00000000000E+00 0. -1.
         11    1    4    4    0    0 -0.20805826335E+02  0.40909427863E+02  0.22153003010E+00  0.45896762120E+02  0.00000000000E+00 0.  1.
</event>
<event>
 8    1  0.4798744E-006  0.1066347E+03  0.7561462E-02  0.1266932E+00
         -1   -1    0    0    0  501 -0.00000000000E+00  0.00000000000E+00  0.10864102636E+03  0.10864102636E+03  0.00000000000E+00 0.  1.
          1   -1    0    0  501    0  0.00000000000E+00 -0.00000000000E+00 -0.12731390159E+03  0.12731390159E+03  0.00000000000E+00 0. -1.
         23    2    1    2    0    0 -0.44643526145E+01 -0.46497538289E+02 -0.14128717934E+02  0.13426411777E+03  0.12508109824E+03 0.  0.
         23    2    1    2    0    0  0.44643526145E+01  0.46497538289E+02 -0.45441572956E+01  0.10169081019E+03  0.90213191942E+02 0.  0.
          5    1    3    3  502    0 -0.35414366997E+01 -0.79613729939E+02  0.24237772804E+02  0.83401617486E+02  0.41800000000E+01 0.  1.
         -5    1    3    3    0  502 -0.92291591478E+00  0.33116191650E+02 -0.38366490739E+02  0.50862500280E+02  0.41800000000E+01 0.  1.
        -11    1    4    4    0    0  0.31055217347E+02 -0.13945043030E+02 -0.98666027622E+01  0.35443484587E+02  0.00000000000E+00 0.  1.
         11    1    4    4    0    0 -0.26590864733E+02  0.60442581320E+02  0.53224454667E+01  0.66247325603E+02  0.00000000000E+00 0. -1.
</event>
<event>
 8    1  0.4798744E-006  0.1566777E+03  0.7561462E-02  0.1192500E+00
          1   -1    0    0  501    0  0.00000000000E+00  0.00000000000E+00  0.74486267391E+02  0.74486267391E+02  0.00000000000E+00 0. -1.
         -1   -1    0    0    0  501 -0.00000000000E+00 -0.00000000000E+00 -0.39666682824E+03  0.39666682824E+03  0.00000000000E+00 0.  1.
         23    2    1    2    0    0  0.12501791791E+03 -0.38313685730E+02 -0.17433715374E+03  0.25126838505E+03  0.12507973392E+03 0.  0.
         23    2    1    2    0    0 -0.12501791791E+03  0.38313685730E+02 -0.14784340711E+03  0.21988471059E+03  0.96923653510E+02 0.  0.
          5    1    3    3  502    0 -0.14067874025E+02 -0.30416085664E+02 -0.68130230658E+02  0.76041068352E+02  0.41800000000E+01 0. -1.
         -5    1    3    3    0  502  0.13908579194E+03 -0.78976000666E+01 -0.10620692308E+03  0.17522731669E+03  0.41800000000E+01 0. -1.
        -11    1    4    4    0    0 -0.46950853583E+02  0.40658903422E+02 -0.12322811083E+03  0.13799527665E+03  0.00000000000E+00 0.  1.
         11    1    4    4    0    0 -0.78067064329E+02 -0.23452176920E+01 -0.24615296283E+02  0.81889433935E+02  0.00000000000E+00 0. -1.
</event>
<event>
 8    1  0.4798744E-006  0.8482374E+02  0.7561462E-02  0.1315894E+00
         -1   -1    0    0    0  501 -0.00000000000E+00  0.00000000000E+00  0.89143014025E+02  0.89143014025E+02  0.00000000000E+00 0.  1.
          1   -1    0    0  501    0  0.00000000000E+00 -0.00000000000E+00 -0.16420657075E+03  0.16420657075E+03  0.00000000000E+00 0. -1.
         23    2    1    2    0    0 -0.31841955349E+02  0.14393861275E+02 -0.21816908556E+02  0.13169941889E+03  0.12509063144E+03 0.  0.
         23    2    1    2    0    0  0.31841955349E+02 -0.14393861275E+02 -0.53246648167E+02  0.12165016588E+03  0.10364585836E+03 0.  0.
          5    1    3    3  502    0 -0.72423522052E+02 -0.14107107603E+02  0.69304726428E+01  0.74227224671E+02  0.41800000000E+01 0.  1.
         -5    1    3    3    0  502  0.40581566702E+02  0.28500968879E+02 -0.28747381199E+02  0.57472194223E+02  0.41800000000E+01 0.  1.
        -11    1    4    4    0    0  0.35607171223E+01 -0.17194269799E+02  0.29405142592E+02  0.34248854451E+02  0.00000000000E+00 0.  1.
         11    1    4    4    0    0  0.28281238227E+02  0.28004085241E+01 -0.82651790759E+02  0.87401311427E+02  0.00000000000E+00 0. -1.
</event>
<event>
 8    1  0.4798744E-006  0.6394003E+02  0.7561462E-02  0.1382004E+00
          2   -1    0    0  501    0  0.00000000000E+00  0.00000000000E+00  0.98126626657E+02  0.98126626657E+02  0.00000000000E+00 0.  1.
         -2   -1    0    0    0  501 -0.00000000000E+00 -0.00000000000E+00 -0.15272754465E+03  0.15272754465E+03  0.00000000000E+00 0. -1.
         23    2    1    2    0    0  0.21601413993E+02  0.27960447776E+02 -0.77898314669E+02  0.15154441017E+03  0.12509657509E+03 0.  0.
         23    2    1    2    0    0 -0.21601413993E+02 -0.27960447776E+02  0.23297396672E+02  0.99309761138E+02  0.89840148260E+02 0.  0.
          5    1    3    3  502    0  0.55168638182E+01  0.10641647098E+02  0.34421910999E+02  0.36688156075E+02  0.41800000000E+01 0. -1.
         -5    1    3    3    0  502  0.16084550175E+02  0.17318800678E+02 -0.11232022567E+03  0.11485625410E+03  0.41800000000E+01 0. -1.
        -11    1    4    4    0    0 -0.27725523613E+01  0.30057987121E+02 -0.73186896502E+01  0.31060148979E+02  0.00000000000E+00 0. -1.
         11    1    4    4    0    0 -0.18828861631E+02 -0.58018434897E+02  0.30616086322E+02  0.68249612160E+02  0.00000000000E+00 0.  1.
</event>
<event>
 8    1  0.4798744E-006  0.7591756E+02  0.7561462E-02  0.1341053E+00
         -3   -1    0    0    0  501 -0.00000000000E+00  0.00000000000E+00  0.33752193596E+03  0.33752193596E+03  0.00000000000E+00 0.  1.
          3   -1    0    0  501    0  0.00000000000E+00 -0.00000000000E+00 -0.38478279777E+02  0.38478279777E+02  0.00000000000E+00 0. -1.
         23    2    1    2    0    0 -0.65889887381E+01 -0.17017905382E+02  0.21847056639E+03  0.25241183073E+03  0.12509724234E+03 0.  0.
         23    2    1    2    0    0  0.65889887381E+01  0.17017905382E+02  0.80573089792E+02  0.12358838500E+03  0.91918671834E+02 0.  0.
          5    1    3    3  502    0  0.29280165390E+02 -0.38515869829E+02  0.20119570334E+03  0.20697338901E+03  0.41800000000E+01 0.  1.
         -5    1    3    3    0  502 -0.35869154128E+02  0.21497964448E+02  0.17274863044E+02  0.45438441726E+02  0.41800000000E+01 0.  1.
        -11    1    4    4    0    0  0.27439048456E+02 -0.80931832840E+01 -0.75733986747E+01  0.29593197923E+02  0.00000000000E+00 0. -1.
         11    1    4    4    0    0 -0.20850059718E+02  0.25111088666E+02  0.88146488467E+02  0.93995187075E+02  0.00000000000E+00 0.  1.
</event>
<event>
 8    1  0.4798744E-006  0.1205702E+03  0.7561462E-02  0.1242159E+00
         -1   -1    0    0    0  501 -0.00000000000E+00  0.00000000000E+00  0.13606685106E+02  0.13606685106E+02  0.00000000000E+00 0.  1.
          1   -1    0    0  501    0  0.00000000000E+00 -0.00000000000E+00 -0.11545725148E+04  0.11545725148E+04  0.00000000000E+00 0. -1.
         23    2    1    2    0    0  0.55706946650E+02 -0.18560497584E+02 -0.53469196576E+03  0.55225995368E+03  0.12509117562E+03 0.  0.
         23    2    1    2    0    0 -0.55706946650E+02  0.18560497584E+02 -0.60627386397E+03  0.61591924626E+03  0.91327782212E+02 0.  0.
          5    1    3    3  502    0 -0.30747209229E+02  0.21098590228E+02 -0.90346385611E+02  0.97828846349E+02  0.41800000000E+01 0.  1.
         -5    1    3    3    0  502  0.86454155878E+02 -0.39659087812E+02 -0.44434558015E+03  0.45443110734E+03  0.41800000000E+01 0.  1.
        -11    1    4    4    0    0  0.14199111617E+02  0.33975262505E+02 -0.19007784814E+03  0.19361178060E+03  0.00000000000E+00 0.  1.
         11    1    4    4    0    0 -0.69906058267E+02 -0.15414764921E+02 -0.41619601583E+03  0.42230746566E+03  0.00000000000E+00 0. -1.
</event>
<event>
 8    1  0.4798744E-006  0.1305447E+03  0.7561462E-02  0.1226650E+00
          1   -1    0    0  501    0  0.00000000000E+00  0.00000000000E+00  0.41151075887E+02  0.41151075887E+02  0.00000000000E+00 0. -1.
         -1   -1    0    0    0  501 -0.00000000000E+00 -0.00000000000E+00 -0.76287917307E+03  0.76287917307E+03  0.00000000000E+00 0.  1.
         23    2    1    2    0    0 -0.11663284962E+02 -0.89761698075E+02 -0.62566659498E+03  0.64443751353E+03  0.12509127118E+03 0.  0.
         23    2    1    2    0    0  0.11663284962E+02  0.89761698075E+02 -0.96061502207E+02  0.15959273542E+03  0.89715295998E+02 0.  0.
          5    1    3    3  502    0 -0.41277492472E+02 -0.10564212497E+03 -0.54925539646E+03  0.56085920951E+03  0.41800000000E+01 0. -1.
         -5    1    3    3    0  502  0.29614207510E+02  0.15880426895E+02 -0.76411198520E+02  0.83578304027E+02  0.41800000000E+01 0. -1.
        -11    1    4    4    0    0  0.33087600368E+02  0.15684170389E+02 -0.26806139068E+00  0.36617678187E+02  0.00000000000E+00 0. -1.
         11    1    4    4    0    0 -0.21424315406E+02  0.74077527686E+02 -0.95793440816E+02  0.12297505724E+03  0.00000000000E+00 0.  1.
</event>
<event>
 8    1  0.4798744E-006  0.1128093E+03  0.7561462E-02  0.1255454E+00
          2   -1    0    0  501    0  0.00000000000E+00  0.00000000000E+00  0.41416717506E+02  0.41416717506E+02  0.00000000000E+00 0. -1.
         -2   -1    0    0    0  501 -0.00000000000E+00 -0.00000000000E+00 -0.44704521523E+03  0.44704521523E+03  0.00000000000E+00 0.  1.
         23    2    1    2    0    0  0.54870065050E+02 -0.52746071265E+02 -0.27486012379E+03  0.31143024206E+03  0.12509131045E+03 0.  0.
         23    2    1    2    0    0 -0.54870065050E+02  0.52746071265E+02 -0.13076837394E+03  0.17703169068E+03  0.91907452415E+02 0.  0.
          5    1    3    3  502    0  0.17619225803E+02 -0.72001861909E+02 -0.69186408511E+02  0.10148367730E+03  0.41800000000E+01 0.  1.
         -5    1    3    3    0  502  0.37250839247E+02  0.19255790644E+02 -0.20567371528E+03  0.20994656476E+03  0.41800000000E+01 0.  1.
        -11    1    4    4    0    0  0.12687129642E+02 -0.10668167209E+02 -0.54678380846E+02  0.57135788977E+02  0.00000000000E+00 0.  1.
         11    1    4    4    0    0 -0.67557194692E+02  0.63414238473E+02 -0.76089993094E+02  0.11989590170E+03  0.00000000000E+00 0. -1.
</event>
<event>
 8    1  0.4798744E-006  0.8763341E+02  0.7561462E-02  0.1308686E+00
          1   -1    0    0  501    0  0.00000000000E+00  0.00000000000E+00  0.16923468424E+03  0.16923468424E+03  0.00000000000E+00 0. -1.
         -1   -1    0    0    0  501 -0.00000000000E+00 -0.00000000000E+00 -0.77546531438E+02  0.77546531438E+02  0.00000000000E+00 0.  1.
         23    2    1    2    0    0  0.21356520202E+02 -0.20040454827E+02  0.75278115192E+02  0.14890060512E+03  0.12508746858E+03 0.  0.
         23    2    1    2    0    0 -0.21356520202E+02  0.20040454827E+02  0.16410037613E+02  0.97880610556E+02  0.91943481572E+02 0.  0.
          5    1    3    3  502    0 -0.30438318729E+02  0.22860117444E+02 -0.10605809770E+02  0.39737033325E+02  0.41800000000E+01 0.  1.
         -5    1    3    3    0  502  0.51794838931E+02 -0.42900572271E+02  0.85883924962E+02  0.10916357180E+03  0.41800000000E+01 0.  1.
        -11    1    4    4    0    0  0.15791349639E+02  0.27486967838E+02 -0.26009659529E+02  0.41004908403E+02  0.00000000000E+00 0.  1.
         11    1    4    4    0    0 -0.37147869841E+02 -0.74465130108E+01  0.42419697142E+02  0.56875702153E+02  0.00000000000E+00 0. -1.
</event>
<event>
 8    1  0.4798744E-006  0.9874388E+02  0.7561462E-02  0.1282960E+00
         -2   -1    0    0    0  501 -0.00000000000E+00  0.00000000000E+00  0.12538738977E+03  0.12538738977E+03  0.00000000000E+00 0.  1.
          2   -1    0    0  501    0  0.00000000000E+00 -0.00000000000E+00 -0.11857559079E+03  0.11857559079E+03  0.00000000000E+00 0. -1.
         23    2    1    2    0    0  0.42841980928E+02 -0.34898481036E+02  0.21717258690E+01  0.13676591626E+03  0.12508741003E+03 0.  0.
         23    2    1    2    0    0 -0.42841980928E+02  0.34898481036E+02  0.46400731040E+01  0.10719706430E+03  0.91740618093E+02 0.  0.
          5    1    3    3  502    0  0.78402191572E+02 -0.44565880616E+01  0.27585368388E+02  0.83337805164E+02  0.41800000000E+01 0. -1.
         -5    1    3    3    0  502 -0.35560210644E+02 -0.30441892974E+02 -0.25413642519E+02  0.53428111093E+02  0.41800000000E+01 0. -1.
        -11    1    4    4    0    0 -0.12297025345E+02 -0.11145649708E+02  0.38824468019E+02  0.42222999144E+02  0.00000000000E+00 0.  1.
         11    1    4    4    0    0 -0.30544955583E+02  0.46044130743E+02 -0.34184394915E+02  0.64974065158E+02  0.00000000000E+00 0. -1.
</event>
<event>
 8    1  0.4798744E-006  0.1469127E+03  0.7561462E-02  0.1204319E+00
          2   -1    0    0  501    0  0.00000000000E+00  0.00000000000E+00  0.42582171759E+03  0.42582171759E+03  0.00000000000E+00 0. -1.
         -2   -1    0    0    0  501 -0.00000000000E+00 -0.00000000000E+00 -0.57202587947E+02  0.57202587947E+02  0.00000000000E+00 0.  1.
         23    2    1    2    0    0 -0.80714030415E+02 -0.63456370754E+02  0.12964139764E+03  0.20734917908E+03  0.12508127114E+03 0.  0.
         23    2    1    2    0    0  0.80714030415E+02  0.63456370754E+02  0.23897773200E+03  0.27567512645E+03  0.91350715684E+02 0.  0.
          5    1    3    3  502    0 -0.11144874961E+03 -0.55297958764E+02  0.12216935696E+03  0.17441763733E+03  0.41800000000E+01 0.  1.
         -5    1    3    3    0  502  0.30734719193E+02 -0.81584119902E+01  0.74720406766E+01  0.32931541749E+02  0.41800000000E+01 0.  1.
        -11    1    4    4    0    0  0.78309091718E+02  0.85010354182E+02  0.20586722897E+03  0.23609402815E+03  0.00000000000E+00 0. -1.
         11    1    4    4    0    0  0.24049386965E+01 -0.21553983428E+02  0.33110503028E+02  0.39581098298E+02  0.00000000000E+00 0.  1.
</event>
<event>
 8    1  0.4798744E-006  0.1184318E+03  0.7561462E-02  0.1245707E+00
         -4   -1    0    0    0  501 -0.00000000000E+00  0.00000000000E+00  0.62902269870E+02  0.62902269870E+02  0.00000000000E+00 0.  1.
          4   -1    0    0  501    0  0.00000000000E+00 -0.00000000000E+00 -0.24024586311E+03  0.24024586311E+03  0.00000000000E+00 0. -1.
         23    2    1    2    0    0 -0.11183076792E+02  0.50351836986E+02 -0.11710744023E+03  0.17894655321E+03  0.12508935868E+03 0.  0.
         23    2    1    2    0    0  0.11183076792E+02 -0.50351836986E+02 -0.60236153010E+02  0.12420157977E+03  0.95589066281E+02 0.  0.
          5    1    3    3  502    0 -0.45131971682E+02  0.77543410414E+02 -0.91889889727E+02  0.12849552366E+03  0.41800000000E+01 0.  1.
         -5    1    3    3    0  502  0.33948894890E+02 -0.27191573429E+02 -0.25217550502E+02  0.50451029554E+02  0.41800000000E+01 0.  1.
        -11    1    4    4    0    0  0.50542967737E+02 -0.23770048506E+02 -0.13274035596E+02  0.57409117871E+02  0.00000000000E+00 0.  1.
         11    1    4    4    0    0 -0.39359890946E+02 -0.26581788479E+02 -0.46962117414E+02  0.66792461895E+02  0.00000000000E+00 0. -1.
</event>
<event>
 8    1  0.4798744E-006  0.1090646E+03  0.7561462E-02  0.1262312E+00
          1   -1    0    0  501    0  0.00000000000E+00  0.00000000000E+00  0.11294114534E+03  0.11294114534E+03  0.00000000000E+00 0. -1.
         -1   -1    0    0    0  501 -0.00000000000E+00 -0.00000000000E+00 -0.12412252011E+03  0.12412252011E+03  0.00000000000E+00 0.  1.
         23    2    1    2    0    0  0.48785851887E+02  0.22345983080E+02 -0.30191229544E+02  0.13488879273E+03  0.12001697280E+03 0.  0.
         23    2    1    2    0    0 -0.48785851887E+02 -0.22345983080E+02  0.19009854777E+02  0.10217487272E+03  0.84846495110E+02 0.  0.
          5    1    3    3  502    0  0.66760710666E+02 -0.31399750269E+02 -0.24159600613E+02  0.77743781149E+02  0.41800000000E+01 0. -1.
         -5    1    3    3    0  502 -0.17974858779E+02  0.53745733349E+02 -0.60316289318E+01  0.57145011584E+02  0.41800000000E+01 0.  1.
        -11    1    4    4    0    0  0.10071426965E+02 -0.26555490834E+02  0.30912573402E+02  0.41978743774E+02  0.00000000000E+00 0. -1.
         11    1    4    4    0    0 -0.58857278851E+02  0.42095077538E+01 -0.11902718625E+02  0.60196128945E+02  0.00000000000E+00 0.  1.
</event>
<event>
 8    1  0.4798744E-006  0.1339938E+03  0.7561462E-02  0.1221647E+00
          2   -1    0    0  501    0  0.00000000000E+00  0.00000000000E+00  0.35867985926E+02  0.35867985926E+02  0.00000000000E+00 0. -1.
         -2   -1    0    0    0  501 -0.00000000000E+00 -0.00000000000E+00 -0.57924441536E+03  0.57924441536E+03  0.00000000000E+00 0.  1.
         23    2    1    2    0    0  0.51278657192E+02 -0.74781506818E+02 -0.35639710469E+03  0.38844437386E+03  0.12509340871E+03 0.  0.
         23    2    1    2    0    0 -0.51278657192E+02  0.74781506818E+02 -0.18697932475E+03  0.22666802743E+03  0.90528185294E+02 0.  0.
          5    1    3    3  502    0 -0.35363135148E+02 -0.80321166880E+01 -0.42568434551E+02  0.56076824501E+02  0.41800000000E+01 0.  1.
         -5    1    3    3    0  502  0.86641792339E+02 -0.66749390130E+02 -0.31382867014E+03  0.33236754936E+03  0.41800000000E+01 0.  1.
        -11    1    4    4    0    0 -0.38813812563E+01  0.74532665914E+02 -0.78659318581E+02  0.10843187635E+03  0.00000000000E+00 0. -1.
         11    1    4    4    0    0 -0.47397275935E+02  0.24884090411E+00 -0.10832000617E+03  0.11823615109E+03  0.00000000000E+00 0.  1.
</event>
<event>
 8    1  0.4798744E-006  0.1287939E+03  0.7561462E-02  0.1229256E+00
          1   -1    0    0  501    0  0.00000000000E+00  0.00000000000E+00  0.40836786481E+02  0.40836786481E+02  0.00000000000E+00 0. -1.
         -1   -1    0    0    0  501 -0.00000000000E+00 -0.00000000000E+00 -0.66619247139E+03  0.66619247139E+03  0.00000000000E+00 0.  1.
         23    2    1    2    0    0 -0.77304232783E+02 -0.61702664903E+02 -0.53368879460E+03  0.55700681028E+03  0.12509873680E+03 0.  0.
         23    2    1    2    0    0  0.77304232783E+02  0.61702664903E+02 -0.91666890310E+02  0.15002244760E+03  0.65732432951E+02 0.  0.
          5    1    3    3  502    0 -0.94354416989E+02 -0.86358896932E+02 -0.45638635078E+03  0.47399007233E+03  0.41800000000E+01 0. -1.
         -5    1    3    3    0  502  0.17050184205E+02  0.24656232029E+02 -0.77302443819E+02  0.83016737949E+02  0.41800000000E+01 0. -1.
        -11    1    4    4    0    0  0.53793130415E+02  0.48214927720E+02 -0.98423004386E+02  0.12208795161E+03  0.00000000000E+00 0.  1.
         11    1    4    4    0    0  0.23511102368E+02  0.13487737182E+02  0.67561140764E+01  0.27934495991E+02  0.00000000000E+00 0. -1.
</event>
<event>
 8    1  0.4798744E-006  0.1113345E+03  0.7561462E-02  0.1258118E+00
         -2   -1    0    0    0  501 -0.00000000000E+00  0.00000000000E+00  0.62407190252E+03  0.62407190252E+03  0.00000000000E+00 0.  1.
          2   -1    0    0  501    0  0.00000000000E+00 -0.00000000000E+00 -0.23423648445E+02  0.23423648445E+02  0.00000000000E+00 0. -1.
         23    2    1    2    0    0 -0.20541346410E+02 -0.49250654916E+02  0.32080592780E+03  0.34844042184E+03  0.12508681121E+03 0.  0.
         23    2    1    2    0    0  0.20541346410E+02  0.49250654916E+02  0.27984232627E+03  0.29905512912E+03  0.90965206308E+02 0.  0.
          5    1    3    3  502    0  0.28315474071E+02  0.20955738770E+02  0.34050970422E+02  0.49171638634E+02  0.41800000000E+01 0. -1.
         -5    1    3    3    0  502 -0.48856820481E+02 -0.70206393686E+02  0.28675495738E+03  0.29926878321E+03  0.41800000000E+01 0. -1.
        -11    1    4    4    0    0  0.50661503141E+01  0.73020772489E+02  0.23367682345E+03  0.24487253197E+03  0.00000000000E+00 0. -1.
         11    1    4    4    0    0  0.15475196096E+02 -0.23770117574E+02  0.46165502822E+02  0.54182597155E+02  0.00000000000E+00 0.  1.
</event>
<event>
 8    1  0.4798744E-006  0.1120841E+03  0.7561462E-02  0.1256758E+00
         -2   -1    0    0    0  501 -0.00000000000E+00  0.00000000000E+00  0.19843653363E+03  0.19843653363E+03  0.00000000000E+00 0. -1.
          2   -1    0    0  501    0  0.00000000000E+00 -0.00000000000E+00 -0.89798905898E+02  0.89798905898E+02  0.00000000000E+00 0.  1.
         23    2    1    2    0    0 -0.26272327648E+02  0.68978572044E+02  0.87796382418E+02  0.16971641227E+03  0.12508867746E+03 0.  0.
         23    2    1    2    0    0  0.26272327648E+02 -0.68978572044E+02  0.20841245313E+02  0.11851902725E+03  0.90355540580E+02 0.  0.
          5    1    3    3  502    0 -0.28857990346E+02 -0.32476195653E+02  0.27782225098E+02  0.51737909915E+02  0.41800000000E+01 0.  1.
         -5    1    3    3    0  502  0.25856626976E+01  0.10145476770E+03  0.60014157320E+02  0.11797850236E+03  0.41800000000E+01 0.  1.
        -11    1    4    4    0    0  0.74955261762E+01 -0.55079694342E+02  0.54302828616E+02  0.77709412796E+02  0.00000000000E+00 0. -1.
         11    1    4    4    0    0  0.18776801472E+02 -0.13898877703E+02 -0.33461583304E+02  0.40809614457E+02  0.00000000000E+00 0.  1.
</event>
<event>
 8    1  0.4798744E-006  0.1519923E+03  0.7561462E-02  0.1198046E+00
          2   -1    0    0  501    0  0.00000000000E+00  0.00000000000E+00  0.11814467068E+03  0.11814467068E+03  0.00000000000E+00 0. -1.
         -2   -1    0    0    0  501 -0.00000000000E+00 -0.00000000000E+00 -0.20367422748E+03  0.20367422748E+03  0.00000000000E+00 0.  1.
         23    2    1    2    0    0  0.43671351125E+02 -0.10077051292E+03 -0.52639895873E+02  0.17458738633E+03  0.12509162100E+03 0.  0.
         23    2    1    2    0    0 -0.43671351125E+02  0.10077051292E+03 -0.32889660929E+02  0.14723151183E+03  0.92376972765E+02 0.  0.
          5    1    3    3  502    0  0.21934626981E+02  0.25349101759E+02  0.50279365492E+01  0.34153438579E+02  0.41800000000E+01 0. -1.
         -5    1    3    3    0  502  0.21736724144E+02 -0.12611961468E+03 -0.57667832422E+02  0.14043394775E+03  0.41800000000E+01 0. -1.
        -11    1    4    4    0    0 -0.67161328012E+02  0.42884034166E+02 -0.83792421603E+01  0.80124253917E+02  0.00000000000E+00 0. -1.
         11    1    4    4    0    0  0.23489976886E+02  0.57886478756E+02 -0.24510418768E+02  0.67107257917E+02  0.00000000000E+00 0.  1.
</event>
<event>
 8    1  0.4798744E-006  0.1049591E+03  0.7561462E-02  0.1270200E+00
         -1   -1    0    0    0  501 -0.00000000000E+00  0.00000000000E+00  0.36665767768E+02  0.36665767768E+02  0.00000000000E+00 0.  1.
          1   -1    0    0  501    0  0.00000000000E+00 -0.00000000000E+00 -0.48023694872E+03  0.48023694872E+03  0.00000000000E+00 0. -1.
         23    2    1    2    0    0  0.31536484554E+02  0.42589129171E+02 -0.11507788378E+03  0.17070499673E+03  0.11440669906E+03 0.  0.
         23    2    1    2    0    0 -0.31536484554E+02 -0.42589129171E+02 -0.32849329717E+03  0.34619771976E+03  0.95585726457E+02 0.  0.
          5    1    3    3  502    0  0.40640820432E+02 -0.14450055970E+02 -0.10272265206E+03  0.11148944367E+03  0.41800000000E+01 0. -1.
         -5    1    3    3    0  502 -0.91043358783E+01  0.57039185141E+02 -0.12355231724E+02  0.59215553060E+02  0.41800000000E+01 0.  1.
        -11    1    4    4    0    0  0.28578194333E+02  0.84608742598E+01 -0.10742415890E+03  0.11148205909E+03  0.00000000000E+00 0.  1.
         11    1    4    4    0    0 -0.60114678887E+02 -0.51050003431E+02 -0.22106913827E+03  0.23471566067E+03  0.00000000000E+00 0. -1.
</event>
<event>
 7    1  0.4798744E-006  0.2766216E+03  0.7561462E-02  0.1097549E+00
          2   -1    0    0  501    0  0.00000000000E+00  0.00000000000E+00  0.12968686615E+04  0.12968686615E+04  0.00000000000E+00 0. -1.
         -2   -1    0    0    0  501 -0.00000000000E+00 -0.00000000000E+00 -0.88814056879E+02  0.88814056879E+02  0.00000000000E+00 0.  1.
         23    2    1    2    0    0  0.22322677703E+02  0.96613508525E+02  0.54989498576E+03  0.56607415570E+03  0.90680661755E+02 0.  0.
          5    1    1    2  502    0 -0.35921241700E+02  0.16030501716E+03  0.47809620461E+03  0.50555067738E+03  0.41800000000E+01 0. -1.
         -5    1    1    2    0  502  0.13598563997E+02 -0.25691852568E+03  0.18006341428E+03  0.31405788534E+03  0.41800000000E+01 0.  1.
        -11    1    3    3    0    0 -0.32909140987E+02  0.25948169939E+02  0.12573148882E+03  0.13253198242E+03  0.00000000000E+00 0.  1.
         11    1    3    3    0    0  0.55231818690E+02  0.70665338586E+02  0.42416349694E+03  0.43354217327E+03  0.00000000000E+00 0. -1.
</event>
<event>
 8    1  0.4798744E-006  0.9794629E+02  0.7561462E-02  0.1284675E+00
          1   -1    0    0  501    0  0.00000000000E+00  0.00000000000E+00  0.37772573789E+03  0.37772573789E+03  0.00000000000E+00 0. -1.
         -1   -1    0    0    0  501 -0.00000000000E+00 -0.00000000000E+00 -0.39349083426E+02  0.39349083426E+02  0.00000000000E+00 0.  1.
         23    2    1    2    0    0  0.46278984472E+02 -0.22911129569E+02  0.15123030313E+03  0.20294060500E+03  0.12509044853E+03 0.  0.
         23    2    1    2    0    0 -0.46278984472E+02  0.22911129569E+02  0.18714635133E+03  0.21413421631E+03  0.90349551829E+02 0.  0.
          5    1    3    3  502    0  0.81188066565E+02  0.12060781693E+02  0.70924354773E+02  0.10855736321E+03  0.41800000000E+01 0.  1.
         -5    1    3    3    0  502 -0.34909082092E+02 -0.34971911262E+02  0.80305948353E+02  0.94383241790E+02  0.41800000000E+01 0.  1.
        -11    1    4    4    0    0 -0.37816571258E+02 -0.19386281720E+01  0.18381241931E+03  0.18767220581E+03  0.00000000000E+00 0. -1.
         11    1    4    4    0    0 -0.84624132142E+01  0.24849757741E+02  0.33339320276E+01  0.26462010505E+02  0.00000000000E+00 0.  1.
</event>
<event>
 7    1  0.4798744E-006  0.1052429E+03  0.7561462E-02  0.1269642E+00
         -2   -1    0    0    0  501 -0.00000000000E+00  0.00000000000E+00  0.86216348433E+02  0.86216348433E+02  0.00000000000E+00 0.  1.
          2   -1    0    0  501    0  0.00000000000E+00 -0.00000000000E+00 -0.42869702122E+03  0.42869702122E+03  0.00000000000E+00 0. -1.
         23    2    1    2    0    0  0.27604627030E+01  0.67484502115E+01 -0.36611585674E+03  0.37727774210E+03  0.90799297315E+02 0.  0.
          5    1    1    2  502    0  0.57650553426E+02 -0.23507418613E+02 -0.14600175696E+02  0.64084495554E+02  0.41800000000E+01 0. -1.
         -5    1    1    2    0  502 -0.60411016129E+02  0.16758968401E+02  0.38235359645E+02  0.73551132002E+02  0.41800000000E+01 0.  1.
        -11    1    3    3    0    0  0.43871330115E+02  0.39588915321E+01 -0.12200192363E+03  0.12971058475E+03  0.00000000000E+00 0. -1.
         11    1    3    3    0    0 -0.41110867412E+02  0.27895586794E+01 -0.24411393311E+03  0.24756715734E+03  0.00000000000E+00 0.  1.
</event>
<event>
 7    1  0.4798744E-006  0.1165431E+03  0.7561462E-02  0.1248911E+00
         -2   -1    0    0    0  501 -0.00000000000E+00  0.00000000000E+00  0.18204378016E+03  0.18204378016E+03  0.00000000000E+00 0.  1.
          2   -1    0    0  501    0  0.00000000000E+00 -0.00000000000E+00 -0.21428467939E+03  0.21428467939E+03  0.00000000000E+00 0. -1.
         23    2    1    2    0    0  0.82513325408E+01 -0.17923263021E+02 -0.15107767962E+03  0.17755938924E+03  0.91178635552E+02 0.  0.
          5    1    1    2  502    0 -0.22660406686E+02  0.93311224255E+02  0.28699901395E+02  0.10030770331E+03  0.41800000000E+01 0. -1.
         -5    1    1    2    0  502  0.14409074145E+02 -0.75387961233E+02  0.90136879001E+02  0.11846136701E+03  0.41800000000E+01 0.  1.
        -11    1    3    3    0    0  0.23258841913E+02  0.12337012112E+02 -0.39726051089E+01  0.26626249949E+02  0.00000000000E+00 0. -1.
         11    1    3    3    0    0 -0.15007509372E+02 -0.30260275133E+02 -0.14710507451E+03  0.15093313929E+03  0.00000000000E+00 0.  1.
</event>
<event>
 8    1  0.4798744E-006  0.1821052E+03  0.7561462E-02  0.1165781E+00
          1   -1    0    0  501    0  0.00000000000E+00  0.00000000000E+00  0.14529919314E+03  0.14529919314E+03  0.00000000000E+00 0. -1.
         -1   -1    0    0    0  501 -0.00000000000E+00 -0.00000000000E+00 -0.29254265652E+03  0.29254265652E+03  0.00000000000E+00 0.  1.
         23    2    1    2    0    0 -0.16676993586E+03  0.22348655692E+02 -0.12636283836E+03  0.24479830615E+03  0.12508784856E+03 0.  0.
         23    2    1    2    0    0  0.16676993586E+03 -0.22348655692E+02 -0.20880625022E+02  0.19304354352E+03  0.92293744508E+02 0.  0.
          5    1    3    3  502    0 -0.16444794082E+03  0.15676104442E+02 -0.14788901716E+03  0.22176000380E+03  0.41800000000E+01 0. -1.
         -5    1    3    3    0  502 -0.23219950376E+01  0.66725512500E+01  0.21526178802E+02  0.23038302345E+02  0.41800000000E+01 0. -1.
        -11    1    4    4    0    0  0.12157519868E+03  0.26263555749E+02 -0.23659205058E+02  0.12660987828E+03  0.00000000000E+00 0.  1.
         11    1    4    4    0    0  0.45194737182E+02 -0.48612211441E+02  0.27785800362E+01  0.66433665239E+02  0.00000000000E+00 0. -1.
</event>
<event>
 8    1  0.4798744E-006  0.8937621E+02  0.7561462E-02  0.1304369E+00
          1   -1    0    0  501    0  0.00000000000E+00  0.00000000000E+00  0.57037638706E+02  0.57037638706E+02  0.00000000000E+00 0. -1.
         -1   -1    0    0    0  501 -0.00000000000E+00 -0.00000000000E+00 -0.24541439091E+03  0.24541439091E+03  0.00000000000E+00 0.  1.
         23    2    1    2    0    0  0.71502928921E+01 -0.45861862415E+02 -0.11849607338E+03  0.17844740132E+03  0.12509084107E+03 0.  0.
         23    2    1    2    0    0 -0.71502928921E+01  0.45861862415E+02 -0.69880678829E+02  0.12400462830E+03  0.91320323327E+02 0.  0.
          5    1    3    3  502    0 -0.14520786158E+02  0.35887389007E+02 -0.88864666733E+01  0.39939950054E+02  0.41800000000E+01 0.  1.
         -5    1    3    3    0  502  0.21671079050E+02 -0.81749251421E+02 -0.10960960670E+03  0.13850745127E+03  0.41800000000E+01 0.  1.
        -11    1    4    4    0    0 -0.13590805849E+02  0.61687796439E+01 -0.80935799846E+02  0.82300471096E+02  0.00000000000E+00 0.  1.
         11    1    4    4    0    0  0.64405129572E+01  0.39693082771E+02  0.11055121017E+02  0.41704157199E+02  0.00000000000E+00 0. -1.
</event>
<event>
 7    1  0.4798744E-006  0.1516179E+03  0.7561462E-02  0.1198499E+00
         -3   -1    0    0    0  501 -0.00000000000E+00  0.00000000000E+00  0.26543190414E+03  0.26543190414E+03  0.00000000000E+00 0.  1.
          3   -1    0    0  501    0  0.00000000000E+00 -0.00000000000E+00 -0.14601786611E+03  0.14601786611E+03  0.00000000000E+00 0. -1.
         23    2    1    2    0    0 -0.56950868330E+01 -0.14416068189E+03  0.96061519396E+02  0.21375415197E+03  0.12509310836E+03 0.  0.
          5    1    3    3  502    0  0.11366081194E+02 -0.60839911452E+02  0.11113709415E+03  0.12727768353E+03  0.41800000000E+01 0. -1.
         -5    1    3    3    0  502 -0.17061168027E+02 -0.83320770440E+02 -0.15075574756E+02  0.86476468449E+02  0.41800000000E+01 0. -1.
        -11    1    1    2    0    0 -0.26008253446E+02  0.85528454206E+02  0.72321308414E+02  0.11498659651E+03  0.00000000000E+00 0.  1.
         11    1    1    2    0    0  0.31703340279E+02  0.58632227686E+02 -0.48968789784E+02  0.82709021764E+02  0.00000000000E+00 0. -1.
</event>
<event>
 8    1  0.4798744E-006  0.1315461E+03  0.7561462E-02  0.1225179E+00
         -1   -1    0    0    0  501 -0.00000000000E+00  0.00000000000E+00  0.22133547303E+02  0.22133547303E+02  0.00000000000E+00 0.  1.
          1   -1    0    0  501    0  0.00000000000E+00 -0.00000000000E+00 -0.84176418473E+03  0.84176418473E+03  0.00000000000E+00 0. -1.
         23    2    1    2    0    0  0.24566210247E+02  0.76449338032E+02 -0.39312225469E+03  0.42028072254E+03  0.12507109433E+03 0.  0.
         23    2    1    2    0    0 -0.24566210247E+02 -0.76449338032E+02 -0.42650838273E+03  0.44361700949E+03  0.91862128173E+02 0.  0.
          5    1    3    3  502    0 -0.15593850956E+02 -0.29622425337E+02 -0.67817776157E+02  0.75745491175E+02  0.41800000000E+01 0.  1.
         -5    1    3    3    0  502  0.40160061204E+02  0.10607176337E+03 -0.32530447853E+03  0.34453523137E+03  0.41800000000E+01 0.  1.
        -11    1    4    4    0    0 -0.50936688988E+02 -0.22248166716E+02 -0.13597657500E+03  0.14689845526E+03  0.00000000000E+00 0.  1.
         11    1    4    4    0    0  0.26370478741E+02 -0.54201171316E+02 -0.29053180773E+03  0.29671855423E+03  0.00000000000E+00 0. -1.
</event>
<event>
 8    1  0.4798744E-006  0.1188300E+03  0.7561462E-02  0.1245040E+00
         -2   -1    0    0    0  501 -0.00000000000E+00  0.00000000000E+00  0.23488206604E+03  0.23488206604E+03  0.00000000000E+00 0.  1.
          2   -1    0    0  501    0  0.00000000000E+00 -0.00000000000E+00 -0.69548323170E+02  0.69548323170E+02  0.00000000000E+00 0. -1.
         23    2    1    2    0    0 -0.30080033386E+02  0.38574762047E+02  0.14548741015E+03  0.19800820608E+03  0.12509133659E+03 0.  0.
         23    2    1    2    0    0  0.30080033386E+02 -0.38574762047E+02  0.19846332722E+02  0.10642218312E+03  0.92406620234E+02 0.  0.
          5    1    3    3  502    0 -0.63794054521E+02 -0.18941840551E+02  0.61639845503E+02  0.90804282219E+02  0.41800000000E+01 0.  1.
         -5    1    3    3    0  502  0.33714021136E+02  0.57516602597E+02  0.83847564643E+02  0.10720392386E+03  0.41800000000E+01 0.  1.
        -11    1    4    4    0    0 -0.68917238163E+01  0.27563085200E+02  0.94504523685E+01  0.29942120381E+02  0.00000000000E+00 0.  1.
         11    1    4    4    0    0  0.36971757202E+02 -0.66137847247E+02  0.10395880354E+02  0.76480062744E+02  0.00000000000E+00 0. -1.
</event>
<event>
 8    1  0.4798744E-006  0.2733584E+03  0.7561462E-02  0.1099373E+00
          1   -1    0    0  501    0  0.00000000000E+00  0.00000000000E+00  0.85539208821E+03  0.85539208821E+03  0.00000000000E+00 0. -1.
         -1   -1    0    0    0  501 -0.00000000000E+00 -0.00000000000E+00 -0.22394047521E+03  0.22394047521E+03  0.00000000000E+00 0.  1.
         23    2    1    2    0    0 -0.20252955632E+03 -0.16582745181E+03 -0.91629453059E+02  0.30513780869E+03  0.12726413742E+03 0.  0.
         23    2    1    2    0    0  0.20252955632E+03  0.16582745181E+03  0.72308106605E+03  0.77419475472E+03  0.89522763586E+02 0.  0.
          5    1    3    3  502    0 -0.10137442547E+03 -0.29087801175E+02 -0.83884220957E+02  0.13482176843E+03  0.41800000000E+01 0. -1.
         -5    1    3    3    0  502 -0.10115513085E+03 -0.13673965063E+03 -0.77452321019E+01  0.17031604026E+03  0.41800000000E+01 0.  1.
        -11    1    4    4    0    0  0.88188597752E+02  0.29261360971E+02  0.32627390135E+03  0.33924639235E+03  0.00000000000E+00 0. -1.
         11    1    4    4    0    0  0.11434095856E+03  0.13656609084E+03  0.39680716470E+03  0.43494836237E+03  0.00000000000E+00 0.  1.
</event>
<event>
 8    1  0.4798744E-006  0.1463011E+03  0.7561462E-02  0.1205093E+00
          1   -1    0    0  501    0  0.00000000000E+00  0.00000000000E+00  0.16435787931E+03  0.16435787931E+03  0.00000000000E+00 0. -1.
         -1   -1    0    0    0  501 -0.00000000000E+00 -0.00000000000E+00 -0.24015404028E+03  0.24015404028E+03  0.00000000000E+00 0.  1.
         23    2    1    2    0    0 -0.92365994721E+02  0.54901121336E+02 -0.17564345699E+03  0.24092388451E+03  0.12509230208E+03 0.  0.
         23    2    1    2    0    0  0.92365994721E+02 -0.54901121336E+02  0.99847296021E+02  0.16358803508E+03  0.72428948602E+02 0.  0.
          5    1    3    3  502    0 -0.34577530595E+02  0.90265948233E+02 -0.10999521936E+03  0.14649221042E+03  0.41800000000E+01 0.  1.
         -5    1    3    3    0  502 -0.57788464126E+02 -0.35364826897E+02 -0.65648237631E+02  0.94431674091E+02  0.41800000000E+01 0.  1.
        -11    1    4    4    0    0  0.72257204183E+01 -0.41085629715E+02  0.20899617167E+02  0.46658696964E+02  0.00000000000E+00 0.  1.
         11    1    4    4    0    0  0.85140274303E+02 -0.13815491621E+02  0.78947678854E+02  0.11692933812E+03  0.00000000000E+00 0. -1.
</event>
<event>
 8    1  0.4798744E-006  0.1183893E+03  0.7561462E-02  0.1245778E+00
         -1   -1    0    0    0  501 -0.00000000000E+00  0.00000000000E+00  0.13818156296E+03  0.13818156296E+03  0.00000000000E+00 0. -1.
          1   -1    0    0  501    0  0.00000000000E+00 -0.00000000000E+00 -0.18716196034E+03  0.18716196034E+03  0.00000000000E+00 0.  1.
         23    2    1    2    0    0 -0.76640462256E+02 -0.14586207815E+02  0.61964046206E+02  0.15992596878E+03  0.12510097743E+03 0.  0.
         23    2    1    2    0    0  0.76640462256E+02  0.14586207815E+02 -0.11094444359E+03  0.16541755452E+03  0.94698362540E+02 0.  0.
          5    1    3    3  502    0 -0.95035848353E+02 -0.33237736368E+02  0.79306206760E+02  0.12823223628E+03  0.41800000000E+01 0. -1.
         -5    1    3    3    0  502  0.18395386097E+02  0.18651528552E+02 -0.17342160553E+02  0.31693732498E+02  0.41800000000E+01 0. -1.
        -11    1    4    4    0    0  0.18147483197E+02  0.41350740971E+02 -0.84617251902E+02  0.95912951391E+02  0.00000000000E+00 0.  1.
         11    1    4    4    0    0  0.58492979059E+02 -0.26764533155E+02 -0.26327191686E+02  0.69504603130E+02  0.00000000000E+00 0. -1.
</event>
<event>
 8    1  0.4798744E-006  0.9366288E+02  0.7561462E-02  0.1294216E+00
          1   -1    0    0  501    0  0.00000000000E+00  0.00000000000E+00  0.33308854262E+02  0.33308854262E+02  0.00000000000E+00 0. -1.
         -1   -1    0    0    0  501 -0.00000000000E+00 -0.00000000000E+00 -0.39142554528E+03  0.39142554528E+03  0.00000000000E+00 0.  1.
         23    2    1    2    0    0 -0.26028230894E+02  0.75164953503E+01 -0.24767514623E+03  0.27879393041E+03  0.12509640709E+03 0.  0.
         23    2    1    2    0    0  0.26028230894E+02 -0.75164953503E+01 -0.11044154479E+03  0.14594046913E+03  0.91473051826E+02 0.  0.
          5    1    3    3  502    0 -0.38355626176E+02 -0.46520101587E+02 -0.18692758263E+03  0.19645525562E+03  0.41800000000E+01 0.  1.
         -5    1    3    3    0  502  0.12327395282E+02  0.54036596937E+02 -0.60747563599E+02  0.82338674790E+02  0.41800000000E+01 0.  1.
        -11    1    4    4    0    0  0.41547403128E+02 -0.24553081859E+02 -0.19376540016E+02  0.52004719386E+02  0.00000000000E+00 0. -1.
         11    1    4    4    0    0 -0.15519172234E+02  0.17036586509E+02 -0.91065004771E+02  0.93935749748E+02  0.00000000000E+00 0.  1.
</event>
<event>
 8    1  0.4798744E-006  0.1187781E+03  0.7561462E-02  0.1245126E+00
          2   -1    0    0  501    0  0.00000000000E+00  0.00000000000E+00  0.64118542985E+03  0.64118542985E+03  0.00000000000E+00 0. -1.
         -2   -1    0    0    0  501 -0.00000000000E+00 -0.00000000000E+00 -0.25829977537E+02  0.25829977537E+02  0.00000000000E+00 0.  1.
         23    2    1    2    0    0 -0.13461361293E+02  0.61965249734E+02  0.35311957931E+03  0.37994980038E+03  0.12509001995E+03 0.  0.
         23    2    1    2    0    0  0.13461361293E+02 -0.61965249734E+02  0.26223587300E+03  0.28706560701E+03  0.98071959373E+02 0.  0.
          5    1    3    3  502    0 -0.17017115780E+02  0.90994613909E+02  0.32902937202E+03  0.34182949264E+03  0.41800000000E+01 0. -1.
         -5    1    3    3    0  502  0.35557544869E+01 -0.29029364175E+02  0.24090207293E+02  0.38120307735E+02  0.41800000000E+01 0. -1.
        -11    1    4    4    0    0  0.55320913199E+02 -0.32572815750E+02  0.12325971013E+03  0.13897606954E+03  0.00000000000E+00 0. -1.
         11    1    4    4    0    0 -0.41859551906E+02 -0.29392433984E+02  0.13897616287E+03  0.14808953746E+03  0.00000000000E+00 0.  1.
</event>
<event>
 8    1  0.4798744E-006  0.1015127E+03  0.7561462E-02  0.1277147E+00
          3   -1    0    0  501    0  0.00000000000E+00  0.00000000000E+00  0.29625642786E+02  0.29625642786E+02  0.00000000000E+00 0. -1.
         -3   -1    0    0    0  501 -0.00000000000E+00 -0.00000000000E+00 -0.51585362473E+03  0.51585362473E+03  0.00000000000E+00 0.  1.
         23    2    1    2    0    0 -0.43364864811E+02 -0.67399026737E+01 -0.35761278013E+03  0.38139599099E+03  0.12510021437E+03 0.  0.
         23    2    1    2    0    0  0.43364864811E+02  0.67399026737E+01 -0.12861520181E+03  0.16408327653E+03  0.91953867303E+02 0.  0.
          5    1    3    3  502    0  0.34427233069E+02 -0.94558691868E+01 -0.37568457650E+02  0.51995281027E+02  0.41800000000E+01 0. -1.
         -5    1    3    3    0  502 -0.77792097880E+02  0.27159665132E+01 -0.32004432248E+03  0.32940070996E+03  0.41800000000E+01 0. -1.
        -11    1    4    4    0    0  0.36382869468E+02 -0.32794462148E+02 -0.10879123304E+03  0.11930935556E+03  0.00000000000E+00 0.  1.
         11    1    4    4    0    0  0.69819953433E+01  0.39534364822E+02 -0.19823968764E+02  0.44773920963E+02  0.00000000000E+00 0. -1.
</event>
<event>
 8    1  0.4798744E-006  0.7162698E+02  0.7561462E-02  0.1354646E+00
          2   -1    0    0  501    0  0.00000000000E+00  0.00000000000E+00  0.22909804336E+03  0.22909804336E+03  0.00000000000E+00 0. -1.
         -2   -1    0    0    0  501 -0.00000000000E+00 -0.00000000000E+00 -0.93126730835E+02  0.93126730835E+02  0.00000000000E+00 0.  1.
         23    2    1    2    0    0  0.70319943329E+02  0.17825391069E+01 -0.72053692289E+00  0.14351833664E+03  0.12509565102E+03 0.  0.
         23    2    1    2    0    0 -0.70319943329E+02 -0.17825391069E+01  0.13669184945E+03  0.17870643756E+03  0.91122210475E+02 0.  0.
          5    1    3    3  502    0  0.48445884802E+02 -0.45814160336E+01 -0.61465382523E+02  0.78507698832E+02  0.41800000000E+01 0.  1.
         -5    1    3    3    0  502  0.21874058527E+02  0.63639551405E+01  0.60744845600E+02  0.65010637810E+02  0.41800000000E+01 0.  1.
        -11    1    4    4    0    0 -0.34490580228E+02 -0.65476155504E+01 -0.22126874068E+01  0.35176233161E+02  0.00000000000E+00 0.  1.
         11    1    4    4    0    0 -0.35829363101E+02  0.47650764434E+01  0.13890453686E+03  0.14353020439E+03  0.00000000000E+00 0. -1.
</event>
<event>
 8    1  0.4798744E-006  0.9196539E+02  0.7561462E-02  0.1298161E+00
          1   -1    0    0  501    0  0.00000000000E+00  0.00000000000E+00  0.33940230601E+03  0.33940230601E+03  0.00000000000E+00 0. -1.
         -1   -1    0    0    0  501 -0.00000000000E+00 -0.00000000000E+00 -0.49771497020E+02  0.49771497020E+02  0.00000000000E+00 0.  1.
         23    2    1    2    0    0  0.41387418885E+02  0.57230681828E+02  0.16392093901E+03  0.21795751844E+03  0.12508851352E+03 0.  0.
         23    2    1    2    0    0 -0.41387418885E+02 -0.57230681828E+02  0.12570986999E+03  0.17121628460E+03  0.92324294280E+02 0.  0.
          5    1    3    3  502    0  0.20353994682E+02  0.75629230249E+02  0.34842633066E+02  0.85822765316E+02  0.41800000000E+01 0.  1.
         -5    1    3    3    0  502  0.21033424203E+02 -0.18398548420E+02  0.12907830594E+03  0.13213475312E+03  0.41800000000E+01 0.  1.
        -11    1    4    4    0    0 -0.32144355481E+02 -0.17799772497E+02 -0.24346259263E+01  0.36824161819E+02  0.00000000000E+00 0.  1.
         11    1    4    4    0    0 -0.92430634035E+01 -0.39430909332E+02  0.12814449591E+03  0.13439212278E+03  0.00000000000E+00 0. -1.
</event>
<event>
 8    1  0.4798744E-006  0.1365435E+03  0.7561462E-02  0.1218057E+00
          2   -1    0    0  501    0  0.00000000000E+00  0.00000000000E+00  0.70808674406E+03  0.70808674406E+03  0.00000000000E+00 0. -1.
         -2   -1    0    0    0  501 -0.00000000000E+00 -0.00000000000E+00 -0.34034828045E+02  0.34034828045E+02  0.00000000000E+00 0.  1.
         23    2    1    2    0    0 -0.99891890462E+02  0.22184104554E+01  0.25128776186E+03  0.29793425060E+03  0.12504386149E+03 0.  0.
         23    2    1    2    0    0  0.99891890462E+02 -0.22184104554E+01  0.42276415415E+03  0.44418732150E+03  0.92679746552E+02 0.  0.
          5    1    3    3  502    0  0.23638809993E+02 -0.23687573900E+02  0.50021529817E+02  0.60328437245E+02  0.41800000000E+01 0. -1.
         -5    1    3    3    0  502 -0.12353070046E+03  0.25905984355E+02  0.20126623204E+03  0.23760581336E+03  0.41800000000E+01 0. -1.
        -11    1    4    4    0    0  0.82761723915E+01  0.17502802326E+02  0.11799783298E+02  0.22673288350E+02  0.00000000000E+00 0.  1.
         11    1    4    4    0    0  0.91615718071E+02 -0.19721212782E+02  0.41096437085E+03  0.42151403315E+03  0.00000000000E+00 0. -1.
</event>
<event>
 8    1  0.4798744E-006  0.1064304E+03  0.7561462E-02  0.1267327E+00
          1   -1    0    0  501    0  0.00000000000E+00  0.00000000000E+00  0.73097403342E+03  0.73097403342E+03  0.00000000000E+00 0. -1.
         -1   -1    0    0    0  501 -0.00000000000E+00 -0.00000000000E+00 -0.20143425716E+02  0.20143425716E+02  0.00000000000E+00 0.  1.
         23    2    1    2    0    0 -0.76249115197E+01 -0.45184704033E+02  0.33338939172E+03  0.35902014846E+03  0.12508870348E+03 0.  0.
         23    2    1    2    0    0  0.76249115197E+01  0.45184704033E+02  0.37744121598E+03  0.39209731067E+03  0.95805181265E+02 0.  0.
          5    1    3    3  502    0 -0.41962182209E+02 -0.58957874213E+02  0.30120920845E+03  0.30980851396E+03  0.41800000000E+01 0. -1.
         -5    1    3    3    0  502  0.34337270690E+02  0.13773170180E+02  0.32180183265E+02  0.49211634501E+02  0.41800000000E+01 0. -1.
        -11    1    4    4    0    0  0.13011934664E+02 -0.27413243668E+02  0.72640786697E+02  0.78724076774E+02  0.00000000000E+00 0.  1.
         11    1    4    4    0    0 -0.53870231441E+01  0.72597947700E+02  0.30480042928E+03  0.31337323389E+03  0.00000000000E+00 0. -1.
</event>
<event>
 8    1  0.4798744E-006  0.8065959E+02  0.7561462E-02  0.1327190E+00
          1   -1    0    0  501    0  0.00000000000E+00  0.00000000000E+00  0.10340856272E+03  0.10340856272E+03  0.00000000000E+00 0. -1.
         -1   -1    0    0    0  501 -0.00000000000E+00 -0.00000000000E+00 -0.12867255089E+03  0.12867255089E+03  0.00000000000E+00 0.  1.
         23    2    1    2    0    0 -0.11995618930E+02  0.38498784610E+02 -0.11369008155E+02  0.13191876245E+03  0.12508898533E+03 0.  0.
         23    2    1    2    0    0  0.11995618930E+02 -0.38498784610E+02 -0.13894980007E+02  0.10016235116E+03  0.90627671440E+02 0.  0.
          5    1    3    3  502    0 -0.23589542657E+02 -0.12249803996E+01 -0.61950803485E+02  0.66432985423E+02  0.41800000000E+01 0. -1.
         -5    1    3    3    0  502  0.11593923727E+02  0.39723765010E+02  0.50581795331E+02  0.65485777027E+02  0.41800000000E+01 0. -1.
        -11    1    4    4    0    0  0.29311231187E+02 -0.60804909467E+02 -0.21633637612E+02  0.70882999127E+02  0.00000000000E+00 0.  1.
         11    1    4    4    0    0 -0.17315612257E+02  0.22306124856E+02  0.77386576048E+01  0.29279352033E+02  0.00000000000E+00 0. -1.
</event>
<event>
 8    1  0.4798744E-006  0.1063026E+03  0.7561462E-02  0.1267574E+00
         -2   -1    0    0    0  501 -0.00000000000E+00  0.00000000000E+00  0.27275739158E+03  0.27275739158E+03  0.00000000000E+00 0.  1.
          2   -1    0    0  501    0  0.00000000000E+00 -0.00000000000E+00 -0.44879106852E+02  0.44879106852E+02  0.00000000000E+00 0. -1.
         23    2    1    2    0    0 -0.81837225527E+01  0.19527290413E+02  0.14416184414E+03  0.19203842179E+03  0.12509128567E+03 0.  0.
         23    2    1    2    0    0  0.81837225527E+01 -0.19527290413E+02  0.83716440588E+02  0.12559807665E+03  0.91203870789E+02 0.  0.
          5    1    3    3  502    0  0.52943695802E+02 -0.42051854287E+01  0.32285159559E+02  0.62293839482E+02  0.41800000000E+01 0.  1.
         -5    1    3    3    0  502 -0.61127418355E+02  0.23732475842E+02  0.11187668459E+03  0.12974458231E+03  0.41800000000E+01 0.  1.
        -11    1    4    4    0    0 -0.17015896968E+02 -0.50735376592E+02  0.47237407287E+02  0.71379211503E+02  0.00000000000E+00 0. -1.
         11    1    4    4    0    0  0.25199619521E+02  0.31208086179E+02  0.36479033301E+02  0.54218865144E+02  0.00000000000E+00 0.  1.
</event>
<event>
 8    1  0.4798744E-006  0.1201431E+03  0.7561462E-02  0.1242861E+00
          2   -1    0    0  501    0  0.00000000000E+00  0.00000000000E+00  0.19748527180E+03  0.19748527180E+03  0.00000000000E+00 0. -1.
         -2   -1    0    0    0  501 -0.00000000000E+00 -0.00000000000E+00 -0.98071606613E+02  0.98071606613E+02  0.00000000000E+00 0.  1.
         23    2    1    2    0    0 -0.87450543100E+02 -0.14213483255E+01  0.47334025562E+02  0.15980524015E+03  0.12509031571E+03 0.  0.
         23    2    1    2    0    0  0.87450543100E+02  0.14213483255E+01  0.52079639624E+02  0.13575163826E+03  0.89814256706E+02 0.  0.
          5    1    3    3  502    0 -0.11368380067E+03 -0.15081952966E+02  0.57364724460E+02  0.12829519029E+03  0.41800000000E+01 0.  1.
         -5    1    3    3    0  502  0.26233257568E+02  0.13660604640E+02 -0.10030698898E+02  0.31510049859E+02  0.41800000000E+01 0.  1.
        -11    1    4    4    0    0  0.53629023607E+02 -0.18108800461E+02 -0.14617698215E+02  0.58460909404E+02  0.00000000000E+00 0.  1.
         11    1    4    4    0    0  0.33821519492E+02  0.19530148786E+02  0.66697337840E+02  0.77290728857E+02  0.00000000000E+00 0. -1.
</event>
<event>
 8    1  0.4798744E-006  0.1307051E+03  0.7561462E-02  0.1226413E+00
         -1   -1    0    0    0  501 -0.00000000000E+00  0.00000000000E+00  0.24341999617E+03  0.24341999617E+03  0.00000000000E+00 0.  1.
          1   -1    0    0  501    0  0.00000000000E+00 -0.00000000000E+00 -0.72646975784E+02  0.72646975784E+02  0.00000000000E+00 0. -1.
         23    2    1    2    0    0 -0.73282162063E+02 -0.14355662572E+02  0.11762559928E+03  0.18724337108E+03  0.12509171869E+03 0.  0.
         23    2    1    2    0    0  0.73282162063E+02  0.14355662572E+02  0.53147421103E+02  0.12882360087E+03  0.90523540839E+02 0.  0.
          5    1    3    3  502    0 -0.39234515588E+02 -0.69163257747E+02  0.77684708976E+02  0.11124428005E+03  0.41800000000E+01 0. -1.
         -5    1    3    3    0  502 -0.34047646475E+02  0.54807595175E+02  0.39940890305E+02  0.75999091032E+02  0.41800000000E+01 0. -1.
        -11    1    4    4    0    0 -0.13298640108E+02 -0.19967130246E+02  0.14152918457E+02  0.27853998274E+02  0.00000000000E+00 0. -1.
         11    1    4    4    0    0  0.86580802170E+02  0.34322792818E+02  0.38994502646E+02  0.10096960259E+03  0.00000000000E+00 0.  1.
</event>
<event>
 8    1  0.4798744E-006  0.1070550E+03  0.7561462E-02  0.1266123E+00
          1   -1    0    0  501    0  0.00000000000E+00  0.00000000000E+00  0.44125215741E+03  0.44125215741E+03  0.00000000000E+00 0. -1.
         -1   -1    0    0    0  501 -0.00000000000E+00 -0.00000000000E+00 -0.28594323768E+02  0.28594323768E+02  0.00000000000E+00 0.  1.
         23    2    1    2    0    0  0.33867441278E+01  0.21326120058E+02  0.22707660945E+03  0.26172400411E+03  0.12833313809E+03 0.  0.
         23    2    1    2    0    0 -0.33867441278E+01 -0.21326120058E+02  0.18558122419E+03  0.20812247707E+03  0.91696789793E+02 0.  0.
          5    1    3    3  502    0  0.44122740540E+02 -0.33304916429E+02  0.62485994232E+02  0.83534457359E+02  0.41800000000E+01 0. -1.
         -5    1    3    3    0  502 -0.40735996413E+02  0.54631036488E+02  0.16459061522E+03  0.17818954675E+03  0.41800000000E+01 0.  1.
        -11    1    4    4    0    0 -0.38420627633E+02 -0.35776875521E+02  0.13552845464E+03  0.14534129306E+03  0.00000000000E+00 0. -1.
         11    1    4    4    0    0  0.35033883505E+02  0.14450755463E+02  0.50052769545E+02  0.62781184012E+02  0.00000000000E+00 0.  1.
</event>
<event>
 8    1  0.4798744E-006  0.1178906E+03  0.7561462E-02  0.1246618E+00
         -1   -1    0    0    0  501 -0.00000000000E+00  0.00000000000E+00  0.15474679350E+02  0.15474679350E+02  0.00000000000E+00 0.  1.
          1   -1    0    0  501    0  0.00000000000E+00 -0.00000000000E+00 -0.96718874667E+03  0.96718874667E+03  0.00000000000E+00 0. -1.
         23    2    1    2    0    0  0.56452500248E+02  0.18737803173E+01 -0.53250552563E+03  0.54990796698E+03  0.12508493711E+03 0.  0.
         23    2    1    2    0    0 -0.56452500248E+02 -0.18737803173E+01 -0.41920854170E+03  0.43275545904E+03  0.91384298761E+02 0.  0.
          5    1    3    3  502    0 -0.25606827540E+02 -0.36120116760E+02 -0.22507404988E+03  0.22942574568E+03  0.41800000000E+01 0. -1.
         -5    1    3    3    0  502  0.82059327788E+02  0.37993897077E+02 -0.30743147575E+03  0.32048222130E+03  0.41800000000E+01 0. -1.
        -11    1    4    4    0    0 -0.43263515003E+02 -0.40932235640E+02 -0.31699497224E+03  0.32254145791E+03  0.00000000000E+00 0.  1.
         11    1    4    4    0    0 -0.13188985246E+02  0.39058455323E+02 -0.10221356945E+03  0.11021400113E+03  0.00000000000E+00 0. -1.
</event>
<event>
 8    1  0.4798744E-006  0.1130568E+03  0.7561462E-02  0.1255012E+00
         -2   -1    0    0    0  501 -0.00000000000E+00  0.00000000000E+00  0.29706799679E+03  0.29706799679E+03  0.00000000000E+00 0. -1.
          2   -1    0    0  501    0  0.00000000000E+00 -0.00000000000E+00 -0.57861025106E+02  0.57861025106E+02  0.00000000000E+00 0.  1.
         23    2    1    2    0    0  0.40218381912E+02 -0.60247657286E+02  0.12234948944E+03  0.18937872845E+03  0.12509039440E+03 0.  0.
         23    2    1    2    0    0 -0.40218381912E+02  0.60247657286E+02  0.11685748224E+03  0.16555029344E+03  0.92216755809E+02 0.  0.
          5    1    3    3  502    0 -0.30347280644E+02 -0.58278177838E+02  0.28187914864E+02  0.71619371674E+02  0.41800000000E+01 0. -1.
         -5    1    3    3    0  502  0.70565662556E+02 -0.19694794479E+01  0.94161574578E+02  0.11775935678E+03  0.41800000000E+01 0. -1.
        -11    1    4    4    0    0 -0.47224965941E+02  0.24638616814E+02  0.11776073056E+03  0.12924723792E+03  0.00000000000E+00 0. -1.
         11    1    4    4    0    0  0.70065840283E+01  0.35609040472E+02 -0.90324832255E+00  0.36303055527E+02  0.00000000000E+00 0.  1.
</event>
<event>
 8    1  0.4798744E-006  0.1523667E+03  0.7561462E-02  0.1197595E+00
          2   -1    0    0  501    0  0.00000000000E+00  0.00000000000E+00  0.60228054636E+03  0.60228054636E+03  0.00000000000E+00 0. -1.
         -2   -1    0    0    0  501 -0.00000000000E+00 -0.00000000000E+00 -0.45907767134E+02  0.45907767134E+02  0.00000000000E+00 0.  1.
         23    2    1    2    0    0  0.64803457701E+02  0.10468955127E+03  0.24808316844E+03  0.30389535693E+03  0.12509092383E+03 0.  0.
         23    2    1    2    0    0 -0.64803457701E+02 -0.10468955127E+03  0.30828961078E+03  0.34429295656E+03  0.91300413712E+02 0.  0.
          5    1    3    3  502    0  0.90332552371E+02  0.85176853882E+02  0.12351318335E+03  0.17518003687E+03  0.41800000000E+01 0. -1.
         -5    1    3    3    0  502 -0.25529094670E+02  0.19512697392E+02  0.12456998509E+03  0.12871532006E+03  0.41800000000E+01 0. -1.
        -11    1    4    4    0    0 -0.81692240339E+02 -0.63129594850E+02  0.25189607415E+03  0.27223262121E+03  0.00000000000E+00 0. -1.
         11    1    4    4    0    0  0.16888782638E+02 -0.41559956424E+02  0.56393536626E+02  0.72060335346E+02  0.00000000000E+00 0.  1.
</event>
<event>
 8    1  0.4798744E-006  0.1007452E+03  0.7561462E-02  0.1278737E+00
          2   -1    0    0  501    0  0.00000000000E+00  0.00000000000E+00  0.39023424923E+02  0.39023424923E+02  0.00000000000E+00 0. -1.
         -2   -1    0    0    0  501 -0.00000000000E+00 -0.00000000000E+00 -0.31207141437E+03  0.31207141437E+03  0.00000000000E+00 0.  1.
         23    2    1    2    0    0  0.13352562803E+02 -0.24004807171E+01 -0.18143052853E+03  0.22077014227E+03  0.12505345174E+03 0.  0.
         23    2    1    2    0    0 -0.13352562803E+02  0.24004807171E+01 -0.91617460914E+02  0.13032469703E+03  0.91688135925E+02 0.  0.
          5    1    3    3  502    0 -0.71850932990E+01  0.57682828580E+02 -0.11413385962E+03  0.12815203702E+03  0.41800000000E+01 0. -1.
         -5    1    3    3    0  502  0.20537656102E+02 -0.60083309297E+02 -0.67296668907E+02  0.92618105251E+02  0.41800000000E+01 0. -1.
        -11    1    4    4    0    0 -0.17171182468E+02 -0.36580536211E+02 -0.79741432445E+02  0.89396203417E+02  0.00000000000E+00 0.  1.
         11    1    4    4    0    0  0.38186196654E+01  0.38981016928E+02 -0.11876028468E+02  0.40928493609E+02  0.00000000000E+00 0. -1.
</event>
<event>
 8    1  0.4798744E-006  0.1232967E+03  0.7561462E-02  0.1237756E+00
          2   -1    0    0  501    0  0.00000000000E+00  0.00000000000E+00  0.43972005316E+03  0.43972005316E+03  0.00000000000E+00 0.  1.
         -2   -1    0    0    0  501 -0.00000000000E+00 -0.00000000000E+00 -0.57385800980E+02  0.57385800980E+02  0.00000000000E+00 0. -1.
         23    2    1    2    0    0  0.83248190402E+02  0.27021436528E+02  0.86609410787E+02  0.17552680810E+03  0.12509217037E+03 0.  0.
         23    2    1    2    0    0 -0.83248190402E+02 -0.27021436528E+02  0.29572484139E+03  0.32157904603E+03  0.91101491729E+02 0.  0.
          5    1    3    3  502    0  0.53400609002E+02 -0.34885094775E+02  0.85386566216E+02  0.10666270655E+03  0.41800000000E+01 0.  1.
         -5    1    3    3    0  502  0.29847581400E+02  0.61906531303E+02  0.12228445707E+01  0.68864101550E+02  0.41800000000E+01 0.  1.
        -11    1    4    4    0    0 -0.31994006894E+02 -0.48616861861E+02  0.80825159533E+02  0.99598805956E+02  0.00000000000E+00 0. -1.
         11    1    4    4    0    0 -0.51254183509E+02  0.21595425333E+02  0.21489968186E+03  0.22198024008E+03  0.00000000000E+00 0.  1.
</event>
<event>
 8    1  0.4798744E-006  0.1462770E+03  0.7561462E-02  0.1205124E+00
         -1   -1    0    0    0  501 -0.00000000000E+00  0.00000000000E+00  0.51404472429E+02  0.51404472429E+02  0.00000000000E+00 0.  1.
          1   -1    0    0  501    0  0.00000000000E+00 -0.00000000000E+00 -0.55930845819E+03  0.55930845819E+03  0.00000000000E+00 0. -1.
         23    2    1    2    0    0  0.41522220710E+02 -0.96201509529E+02 -0.13159094350E+03  0.20962445096E+03  0.12508960301E+03 0.  0.
         23    2    1    2    0    0 -0.41522220710E+02  0.96201509529E+02 -0.37631304225E+03  0.40108847965E+03  0.91003502629E+02 0.  0.
          5    1    3    3  502    0  0.62403053836E+02 -0.69314408232E+01 -0.87580783783E+02  0.10784271922E+03  0.41800000000E+01 0.  1.
         -5    1    3    3    0  502 -0.20880833126E+02 -0.89270068706E+02 -0.44010159719E+02  0.10178173175E+03  0.41800000000E+01 0.  1.
        -11    1    4    4    0    0 -0.48222110547E+02  0.73849219966E+01 -0.11173954321E+03  0.12192470847E+03  0.00000000000E+00 0. -1.
         11    1    4    4    0    0  0.66998898368E+01  0.88816587532E+02 -0.26457349905E+03  0.27916377118E+03  0.00000000000E+00 0.  1.
</event>
<event>
 8    1  0.4798744E-006  0.1083158E+03  0.7561462E-02  0.1263721E+00
         -2   -1    0    0    0  501 -0.00000000000E+00  0.00000000000E+00  0.15804242067E+03  0.15804242067E+03  0.00000000000E+00 0. -1.
          2   -1    0    0  501    0  0.00000000000E+00 -0.00000000000E+00 -0.11471154412E+03  0.11471154412E+03  0.00000000000E+00 0.  1.
         23    2    1    2    0    0  0.69824051218E+02  0.23327434323E+02  0.57380217613E+02  0.15607601563E+03  0.12509063099E+03 0.  0.
         23    2    1    2    0    0 -0.69824051218E+02 -0.23327434323E+02 -0.14049341063E+02  0.11667794916E+03  0.89424786924E+02 0.  0.
          5    1    3    3  502    0 -0.67280100878E+01  0.57240857258E+02  0.40488788931E+02  0.70559168706E+02  0.41800000000E+01 0. -1.
         -5    1    3    3    0  502  0.76552061306E+02 -0.33913422936E+02  0.16891428682E+02  0.85516846926E+02  0.41800000000E+01 0. -1.
        -11    1    4    4    0    0 -0.29376879012E+02 -0.24050076076E+01 -0.50416378735E+02  0.58400311017E+02  0.00000000000E+00 0.  1.
         11    1    4    4    0    0 -0.40447172206E+02 -0.20922426715E+02  0.36367037672E+02  0.58277638148E+02  0.00000000000E+00 0. -1.
</event>
<event>
 8    1  0.4798744E-006  0.9839879E+02  0.7561462E-02  0.1283700E+00
          3   -1    0    0  501    0  0.00000000000E+00  0.00000000000E+00  0.86483073107E+02  0.86483073107E+02  0.00000000000E+00 0. -1.
         -3   -1    0    0    0  501 -0.00000000000E+00 -0.00000000000E+00 -0.27197661751E+03  0.27197661751E+03  0.00000000000E+00 0.  1.
         23    2    1    2    0    0  0.83177193732E+02 -0.30751756186E+02 -0.16981711985E+03  0.22879954710E+03  0.12508901827E+03 0.  0.
         23    2    1    2    0    0 -0.83177193732E+02  0.30751756186E+02 -0.15676424556E+02  0.12966014352E+03  0.93283902500E+02 0.  0.
          5    1    3    3  502    0  0.84850373579E+02 -0.25787113955E+02 -0.37603334939E+02  0.96415996293E+02  0.41800000000E+01 0.  1.
         -5    1    3    3    0  502 -0.16731798466E+01 -0.49646422305E+01 -0.13221378491E+03  0.13238355080E+03  0.41800000000E+01 0.  1.
        -11    1    4    4    0    0 -0.54853210353E+02  0.43737308993E+02  0.28396834421E+02  0.75684919826E+02  0.00000000000E+00 0.  1.
         11    1    4    4    0    0 -0.28323983379E+02 -0.12985552807E+02 -0.44073258977E+02  0.53975223696E+02  0.00000000000E+00 0. -1.
</event>
<event>
 7    1  0.4798744E-006  0.1540984E+03  0.7561462E-02  0.1195525E+00
          1   -1    0    0  501    0  0.00000000000E+00  0.00000000000E+00  0.70163223008E+03  0.70163223008E+03  0.00000000000E+00 0. -1.
         -1   -1    0    0    0  501 -0.00000000000E+00 -0.00000000000E+00 -0.41149711863E+02  0.41149711863E+02  0.00000000000E+00 0.  1.
         23    2    1    2    0    0 -0.21699625778E+02  0.62891295273E+02  0.18460338396E+03  0.22926197436E+03  0.11855992046E+03 0.  0.
          5    1    3    3  502    0  0.14003225142E+02  0.86695961778E+02  0.92775356376E+02  0.12781634971E+03  0.41800000000E+01 0. -1.
         -5    1    3    3    0  502 -0.35702850920E+02 -0.23804666505E+02  0.91828027581E+02  0.10144562465E+03  0.41800000000E+01 0.  1.
        -11    1    1    2    0    0 -0.57506018029E+02 -0.77618959895E+02  0.15463929039E+03  0.18233199165E+03  0.00000000000E+00 0.  1.
         11    1    1    2    0    0  0.79205643806E+02  0.14727664622E+02  0.32123984386E+03  0.33118797593E+03  0.00000000000E+00 0. -1.
</event>
<event>
 8    1  0.4798744E-006  0.8994306E+02  0.7561462E-02  0.1302990E+00
          1   -1    0    0  501    0  0.00000000000E+00  0.00000000000E+00  0.16150400937E+02  0.16150400937E+02  0.00000000000E+00 0. -1.
         -1   -1    0    0    0  501 -0.00000000000E+00 -0.00000000000E+00 -0.11022738078E+04  0.11022738078E+04  0.00000000000E+00 0.  1.
         23    2    1    2    0    0 -0.86727295326E+01  0.45428913530E+02 -0.85616112017E+03  0.86648635900E+03  0.12509094384E+03 0.  0.
         23    2    1    2    0    0  0.86727295326E+01 -0.45428913530E+02 -0.22996228674E+03  0.25193784978E+03  0.91929453421E+02 0.  0.
          5    1    3    3  502    0 -0.19104956909E+02 -0.24499623185E+02 -0.59697241222E+03  0.59779491823E+03  0.41800000000E+01 0. -1.
         -5    1    3    3    0  502  0.10432227376E+02  0.69928536715E+02 -0.25918870795E+03  0.26869144077E+03  0.41800000000E+01 0. -1.
        -11    1    4    4    0    0  0.35707116115E+02 -0.29630479880E+02 -0.46026714498E+02  0.65356116214E+02  0.00000000000E+00 0. -1.
         11    1    4    4    0    0 -0.27034386582E+02 -0.15798433650E+02 -0.18393557224E+03  0.18658173357E+03  0.00000000000E+00 0.  1.
</event>
<event>
 8    1  0.4798744E-006  0.1498195E+03  0.7561462E-02  0.1200695E+00
          1   -1    0    0  501    0  0.00000000000E+00  0.00000000000E+00  0.47919321481E+03  0.47919321481E+03  0.00000000000E+00 0. -1.
         -1   -1    0    0    0  501 -0.00000000000E+00 -0.00000000000E+00 -0.64345747360E+02  0.64345747360E+02  0.00000000000E+00 0.  1.
         23    2    1    2    0    0  0.69267725195E+02  0.11044624687E+03  0.15014300566E+03  0.23492227666E+03  0.12509661355E+03 0.  0.
         23    2    1    2    0    0 -0.69267725195E+02 -0.11044624687E+03  0.26470446179E+03  0.30861668551E+03  0.90440119854E+02 0.  0.
          5    1    3    3  502    0  0.18593956709E+01  0.10058216487E+03  0.46696990111E+02  0.11098788460E+03  0.41800000000E+01 0. -1.
         -5    1    3    3    0  502  0.67408329524E+02  0.98640820011E+01  0.10344601555E+03  0.12393439206E+03  0.41800000000E+01 0. -1.
        -11    1    4    4    0    0 -0.23954095074E+02 -0.46735611228E+02  0.20105853580E+03  0.20780411653E+03  0.00000000000E+00 0. -1.
         11    1    4    4    0    0 -0.45313630121E+02 -0.63710635646E+02  0.63645925992E+02  0.10081256898E+03  0.00000000000E+00 0.  1.
</event>
<event>
 7    1  0.4798744E-006  0.8622476E+02  0.7561462E-02  0.1312260E+00
         -2   -1    0    0    0  501 -0.00000000000E+00  0.00000000000E+00  0.52772133216E+02  0.52772133216E+02  0.00000000000E+00 0.  1.
          2   -1    0    0  501    0  0.00000000000E+00 -0.00000000000E+00 -0.64676848966E+03  0.64676848966E+03  0.00000000000E+00 0. -1.
         23    2    1    2    0    0 -0.36462534498E+01  0.99677843545E+00 -0.28045409382E+03  0.29521069769E+03  0.92090002478E+02 0.  0.
          5    1    1    2  502    0  0.41209777274E+02  0.60496355713E+01 -0.34931535204E+03  0.35181462647E+03  0.41800000000E+01 0. -1.
         -5    1    1    2    0  502 -0.37563523825E+02 -0.70464140068E+01  0.35773089415E+02  0.52515298712E+02  0.41800000000E+01 0.  1.
        -11    1    3    3    0    0  0.43888609546E+02 -0.52386009461E+01 -0.13107858620E+03  0.13833021633E+03  0.00000000000E+00 0.  1.
         11    1    3    3    0    0 -0.47534862996E+02  0.62353793816E+01 -0.14937550762E+03  0.15688048136E+03  0.00000000000E+00 0. -1.
</event>
<event>
 8    1  0.4798744E-006  0.5862764E+02  0.7561462E-02  0.1403683E+00
         -1   -1    0    0    0  501 -0.00000000000E+00  0.00000000000E+00  0.21822823749E+03  0.21822823749E+03  0.00000000000E+00 0.  1.
          1   -1    0    0  501    0  0.00000000000E+00 -0.00000000000E+00 -0.62349681392E+02  0.62349681392E+02  0.00000000000E+00 0. -1.
         23    2    1    2    0    0 -0.85883823535E+01  0.11033655573E+01  0.13927913301E+03  0.18739966965E+03  0.12507990073E+03 0.  0.
         23    2    1    2    0    0  0.85883823535E+01 -0.11033655573E+01  0.16599423094E+02  0.93178249234E+02  0.91277968625E+02 0.  0.
          5    1    3    3  502    0 -0.93512614584E+01  0.21573649215E+02 -0.17262889697E+02  0.29467748336E+02  0.41800000000E+01 0. -1.
         -5    1    3    3    0  502  0.76287910488E+00 -0.20470283657E+02  0.15654202270E+03  0.15793192131E+03  0.41800000000E+01 0. -1.
        -11    1    4    4    0    0 -0.28475747845E+02  0.14849857251E+02 -0.20716320303E+02  0.38217174184E+02  0.00000000000E+00 0.  1.
         11    1    4    4    0    0  0.37064130199E+02 -0.15953222808E+02  0.37315743397E+02  0.54961075050E+02  0.00000000000E+00 0. -1.
</event>
<event>
 8    1  0.4798744E-006  0.1233530E+03  0.7561462E-02  0.1237666E+00
          2   -1    0    0  501    0  0.00000000000E+00  0.00000000000E+00  0.33450403951E+03  0.33450403951E+03  0.00000000000E+00 0. -1.
         -2   -1    0    0    0  501 -0.00000000000E+00 -0.00000000000E+00 -0.54071389088E+02  0.54071389088E+02  0.00000000000E+00 0.  1.
         23    2    1    2    0    0  0.14200251620E+02  0.78515038550E+02  0.13930745486E+03  0.20352121957E+03  0.12509221163E+03 0.  0.
         23    2    1    2    0    0 -0.14200251620E+02 -0.78515038550E+02  0.14112519556E+03  0.18505420902E+03  0.89232735202E+02 0.  0.
          5    1    3    3  502    0 -0.37066679089E+02  0.87832259885E+02  0.80554838596E+02  0.12487993833E+03  0.41800000000E+01 0.  1.
         -5    1    3    3    0  502  0.51266930709E+02 -0.93172213353E+01  0.58752616266E+02  0.78641281245E+02  0.41800000000E+01 0.  1.
        -11    1    4    4    0    0  0.15143110061E+02  0.47634577437E-01  0.79637545603E+02  0.81064509627E+02  0.00000000000E+00 0. -1.
         11    1    4    4    0    0 -0.29343361681E+02 -0.78562673127E+02  0.61487649954E+02  0.10398969940E+03  0.00000000000E+00 0.  1.
</event>
<event>
 8    1  0.4798744E-006  0.1061103E+03  0.7561462E-02  0.1267947E+00
          2   -1    0    0  501    0  0.00000000000E+00  0.00000000000E+00  0.19678695146E+03  0.19678695146E+03  0.00000000000E+00 0. -1.
         -2   -1    0    0    0  501 -0.00000000000E+00 -0.00000000000E+00 -0.86119244815E+02  0.86119244815E+02  0.00000000000E+00 0.  1.
         23    2    1    2    0    0  0.39004997910E+02  0.37300395985E+01 -0.40421504085E+01  0.13114449452E+03  0.12508891400E+03 0.  0.
         23    2    1    2    0    0 -0.39004997910E+02 -0.37300395985E+01  0.11470985705E+03  0.15176170175E+03  0.91312429367E+02 0.  0.
          5    1    3    3  502    0  0.75911579810E+02 -0.56634715399E+01 -0.33046895723E+02  0.83091591488E+02  0.41800000000E+01 0. -1.
         -5    1    3    3    0  502 -0.36906581899E+02  0.93935111384E+01  0.29004745314E+02  0.48052903031E+02  0.41800000000E+01 0. -1.
        -11    1    4    4    0    0 -0.22285457373E+02  0.42785984815E+02  0.70626948399E+02  0.85530391950E+02  0.00000000000E+00 0. -1.
         11    1    4    4    0    0 -0.16719540537E+02 -0.46516024414E+02  0.44082908652E+02  0.66231309803E+02  0.00000000000E+00 0.  1.
</event>
<event>
 8    1  0.4798744E-006  0.2076199E+03  0.7561462E-02  0.1143465E+00
         -2   -1    0    0    0  501 -0.00000000000E+00  0.00000000000E+00  0.59756977568E+02  0.59756977568E+02  0.00000000000E+00 0.  1.
          2   -1    0    0  501    0  0.00000000000E+00 -0.00000000000E+00 -0.96998199757E+03  0.96998199757E+03  0.00000000000E+00 0. -1.
         23    2    1    2    0    0 -0.15894885578E+03  0.10042704354E+03 -0.25021030918E+03  0.33704965589E+03  0.12508773677E+03 0.  0.
         23    2    1    2    0    0  0.15894885578E+03 -0.10042704354E+03 -0.66001471082E+03  0.69268931924E+03  0.94067766323E+02 0.  0.
          5    1    3    3  502    0 -0.16662123724E+03  0.60590446508E+02 -0.23292391271E+03  0.29275392468E+03  0.41800000000E+01 0. -1.
         -5    1    3    3    0  502  0.76723814567E+01  0.39836597035E+02 -0.17286396471E+02  0.44295731211E+02  0.41800000000E+01 0. -1.
        -11    1    4    4    0    0  0.66354183372E+02 -0.76908267522E+02 -0.45930437953E+03  0.47040224524E+03  0.00000000000E+00 0. -1.
         11    1    4    4    0    0  0.92594672410E+02 -0.23518776021E+02 -0.20071033129E+03  0.22228707400E+03  0.00000000000E+00 0.  1.
</event>
<event>
 8    1  0.4798744E-006  0.1164753E+03  0.7561462E-02  0.1249028E+00
          2   -1    0    0  501    0  0.00000000000E+00  0.00000000000E+00  0.77591941387E+02  0.77591941387E+02  0.00000000000E+00 0. -1.
         -2   -1    0    0    0  501 -0.00000000000E+00 -0.00000000000E+00 -0.22116783189E+03  0.22116783189E+03  0.00000000000E+00 0.  1.
         23    2    1    2    0    0  0.66947902807E+02  0.32516070543E+02 -0.94553606311E+02  0.17357250316E+03  0.12509081842E+03 0.  0.
         23    2    1    2    0    0 -0.66947902807E+02 -0.32516070543E+02 -0.49022284194E+02  0.12518727012E+03  0.87916731736E+02 0.  0.
          5    1    3    3  502    0  0.87902220253E+02  0.13197775453E+02 -0.10951784300E+03  0.14111205454E+03  0.41800000000E+01 0. -1.
         -5    1    3    3    0  502 -0.20954317446E+02  0.19318295089E+02  0.14964236685E+02  0.32460448616E+02  0.41800000000E+01 0. -1.
        -11    1    4    4    0    0 -0.50116935565E+02  0.24447194053E+02 -0.25169873670E+02  0.61179204539E+02  0.00000000000E+00 0.  1.
         11    1    4    4    0    0 -0.16830967241E+02 -0.56963264596E+02 -0.23852410524E+02  0.64008065582E+02  0.00000000000E+00 0. -1.
</event>
<event>
 8    1  0.4798744E-006  0.6124928E+02  0.7561462E-02  0.1392663E+00
         -2   -1    0    0    0  501 -0.00000000000E+00  0.00000000000E+00  0.39125263292E+02  0.39125263292E+02  0.00000000000E+00 0.  1.
          2   -1    0    0  501    0  0.00000000000E+00 -0.00000000000E+00 -0.38546089803E+03  0.38546089803E+03  0.00000000000E+00 0. -1.
         23    2    1    2    0    0  0.50605756358E+02 -0.26289336976E+02 -0.18106958745E+03  0.22734558324E+03  0.12509095453E+03 0.  0.
         23    2    1    2    0    0 -0.50605756358E+02  0.26289336976E+02 -0.16526604728E+03  0.19724057808E+03  0.91317618455E+02 0.  0.
          5    1    3    3  502    0  0.54156875714E+02 -0.22452691898E+02 -0.19937330489E+03  0.20785638711E+03  0.41800000000E+01 0. -1.
         -5    1    3    3    0  502 -0.35511193550E+01 -0.38366450773E+01  0.18303717433E+02  0.19489196135E+02  0.41800000000E+01 0. -1.
        -11    1    4    4    0    0 -0.32670454679E+02  0.17265738754E+02 -0.17210741711E+03  0.17602962071E+03  0.00000000000E+00 0. -1.
         11    1    4    4    0    0 -0.17935301679E+02  0.90235982220E+01  0.68413698276E+01  0.21210957364E+02  0.00000000000E+00 0.  1.
</event>
<event>
 8    1  0.4798744E-006  0.1662599E+03  0.7561462E-02  0.1181805E+00
          3   -1    0    0  501    0  0.00000000000E+00  0.00000000000E+00  0.25064127532E+03  0.25064127532E+03  0.00000000000E+00 0. -1.
         -3   -1    0    0    0  501 -0.00000000000E+00 -0.00000000000E+00 -0.11331818836E+03  0.11331818836E+03  0.00000000000E+00 0.  1.
         23    2    1    2    0    0 -0.16808437138E+02  0.12701754757E+03  0.68112745059E+02  0.19157993793E+03  0.12509015000E+03 0.  0.
         23    2    1    2    0    0  0.16808437138E+02 -0.12701754757E+03  0.69210341897E+02  0.17237952575E+03  0.92242335849E+02 0.  0.
          5    1    3    3  502    0  0.31937691228E+02 -0.88789634004E+01  0.21828776420E+02  0.39910148985E+02  0.41800000000E+01 0.  1.
         -5    1    3    3    0  502 -0.48746128366E+02  0.13589651097E+03  0.46283968639E+02  0.15166978894E+03  0.41800000000E+01 0.  1.
        -11    1    4    4    0    0 -0.26759497476E+01 -0.13396161915E+03  0.46909463444E+02  0.14196257912E+03  0.00000000000E+00 0.  1.
         11    1    4    4    0    0  0.19484386885E+02  0.69440715743E+01  0.22300878453E+02  0.30416946627E+02  0.00000000000E+00 0. -1.
</event>
<event>
 8    1  0.4798744E-006  0.9032907E+02  0.7561462E-02  0.1302057E+00
         -2   -1    0    0    0  501 -0.00000000000E+00  0.00000000000E+00  0.16245549054E+03  0.16245549054E+03  0.00000000000E+00 0.  1.
          2   -1    0    0  501    0  0.00000000000E+00 -0.00000000000E+00 -0.77224377663E+02  0.77224377663E+02  0.00000000000E+00 0. -1.
         23    2    1    2    0    0  0.11618236352E+02 -0.29025459258E+02  0.51678879976E+02  0.13890242279E+03  0.12508283544E+03 0.  0.
         23    2    1    2    0    0 -0.11618236352E+02  0.29025459258E+02  0.33552232906E+02  0.10077744542E+03  0.89737843024E+02 0.  0.
          5    1    3    3  502    0  0.41131718319E+02  0.16155443729E+02 -0.20327045572E+02  0.48820874589E+02  0.41800000000E+01 0. -1.
         -5    1    3    3    0  502 -0.29513481967E+02 -0.45180902987E+02  0.72005925548E+02  0.90081548202E+02  0.41800000000E+01 0. -1.
        -11    1    4    4    0    0  0.32634755814E+01 -0.25456281945E+02  0.36040897011E+02  0.44244986390E+02  0.00000000000E+00 0.  1.
         11    1    4    4    0    0 -0.14881711933E+02  0.54481741203E+02 -0.24886641048E+01  0.56532459027E+02  0.00000000000E+00 0. -1.
</event>
<event>
 8    1  0.4798744E-006  0.9007141E+02  0.7561462E-02  0.1302679E+00
         -2   -1    0    0    0  501 -0.00000000000E+00  0.00000000000E+00  0.60256478531E+02  0.60256478531E+02  0.00000000000E+00 0.  1.
          2   -1    0    0  501    0  0.00000000000E+00 -0.00000000000E+00 -0.23954530701E+03  0.23954530701E+03  0.00000000000E+00 0. -1.
         23    2    1    2    0    0  0.26512745977E+02  0.23339611393E+02 -0.53546645048E+02  0.14057773047E+03  0.12508873630E+03 0.  0.
         23    2    1    2    0    0 -0.26512745977E+02 -0.23339611393E+02 -0.12574218343E+03  0.15922405507E+03  0.91068874265E+02 0.  0.
          5    1    3    3  502    0  0.70546667649E+02  0.39738379041E+02 -0.22631146527E+02  0.84176079015E+02  0.41800000000E+01 0. -1.
         -5    1    3    3    0  502 -0.44033921671E+02 -0.16398767648E+02 -0.30915498521E+02  0.56401651455E+02  0.41800000000E+01 0. -1.
        -11    1    4    4    0    0 -0.24742859235E+01 -0.27401436823E+02  0.34711005620E+01  0.27731018191E+02  0.00000000000E+00 0.  1.
         11    1    4    4    0    0 -0.24038460054E+02  0.40618254299E+01 -0.12921328399E+03  0.13149303688E+03  0.00000000000E+00 0. -1.
</event>
<event>
 8    1  0.7918824E-006  0.2020396E+03  0.7561462E-02  0.1148030E+00
          1   -1    0    0  501    0  0.00000000000E+00  0.00000000000E+00  0.13956067448E+04  0.13956067448E+04  0.00000000000E+00 0. -1.
         -1   -1    0    0    0  501 -0.00000000000E+00 -0.00000000000E+00 -0.33487027571E+02  0.33487027571E+02  0.00000000000E+00 0.  1.
         23    2    1    2    0    0  0.90923010315E+02  0.16250190311E+03  0.66169694925E+03  0.69868740071E+03  0.12508944377E+03 0.  0.
         23    2    1    2    0    0 -0.90923010315E+02 -0.16250190311E+03  0.70042276798E+03  0.73040637166E+03  0.90705851780E+02 0.  0.
          5    1    3    3  502    0 -0.88469861513E+01  0.63327156572E+01  0.21151884102E+03  0.21183971525E+03  0.41800000000E+01 0.  1.
         -5    1    3    3    0  502  0.99769996466E+02  0.15616918745E+03  0.45017810823E+03  0.48684768545E+03  0.41800000000E+01 0.  1.
        -11    1    4    4    0    0 -0.39083119803E+02 -0.14822144474E+03  0.52663269111E+03  0.54848799283E+03  0.00000000000E+00 0. -1.
         11    1    4    4    0    0 -0.51839890512E+02 -0.14280458369E+02  0.17379007686E+03  0.18191837883E+03  0.00000000000E+00 0.  1.
</event>
<event>
 8    1  0.4798744E-006  0.9877929E+02  0.7561462E-02  0.1282884E+00
          1   -1    0    0  501    0  0.00000000000E+00  0.00000000000E+00  0.70151037776E+03  0.70151037776E+03  0.00000000000E+00 0. -1.
         -1   -1    0    0    0  501 -0.00000000000E+00 -0.00000000000E+00 -0.21516446567E+02  0.21516446567E+02  0.00000000000E+00 0.  1.
         23    2    1    2    0    0  0.64603837660E+02 -0.65775418960E+01  0.40611274361E+03  0.42726450951E+03  0.11580362977E+03 0.  0.
         23    2    1    2    0    0 -0.64603837660E+02  0.65775418960E+01  0.27388118758E+03  0.29576231482E+03  0.90815868964E+02 0.  0.
          5    1    3    3  502    0  0.53831665554E+01 -0.35763706848E+02  0.30012621694E+03  0.30232637944E+03  0.41800000000E+01 0. -1.
         -5    1    3    3    0  502  0.59220671104E+02  0.29186164952E+02  0.10598652667E+03  0.12493813007E+03  0.41800000000E+01 0.  1.
        -11    1    4    4    0    0 -0.35520740444E+02 -0.31230132925E+02  0.21420892534E+03  0.21936842959E+03  0.00000000000E+00 0. -1.
         11    1    4    4    0    0 -0.29083097215E+02  0.37807674821E+02  0.59672262239E+02  0.76393885224E+02  0.00000000000E+00 0.  1.
</event>
<event>
 8    1  0.4798744E-006  0.1565774E+03  0.7561462E-02  0.1192616E+00
         -2   -1    0    0    0  501 -0.00000000000E+00  0.00000000000E+00  0.51226707556E+02  0.51226707556E+02  0.00000000000E+00 0.  1.
          2   -1    0    0  501    0  0.00000000000E+00 -0.00000000000E+00 -0.70256985175E+03  0.70256985175E+03  0.00000000000E+00 0. -1.
         23    2    1    2    0    0 -0.29102178101E+02 -0.11337788901E+03 -0.13871810993E+03  0.22043795116E+03  0.12509473930E+03 0.  0.
         23    2    1    2    0    0  0.29102178101E+02  0.11337788901E+03 -0.51262503426E+03  0.53335860814E+03  0.89361606107E+02 0.  0.
          5    1    3    3  502    0 -0.63518913632E+02 -0.11562139928E+03 -0.12853860743E+03  0.18423519306E+03  0.41800000000E+01 0. -1.
         -5    1    3    3    0  502  0.34416735532E+02  0.22435102722E+01 -0.10179502506E+02  0.36202758103E+02  0.41800000000E+01 0. -1.
        -11    1    4    4    0    0 -0.28496049706E+02  0.65847195555E+02 -0.27966155174E+03  0.28871865463E+03  0.00000000000E+00 0.  1.
         11    1    4    4    0    0  0.57598227807E+02  0.47530693457E+02 -0.23296348252E+03  0.24463995351E+03  0.00000000000E+00 0. -1.
</event>
<event>
 8    1  0.4798744E-006  0.1764550E+03  0.7561462E-02  0.1171279E+00
          4   -1    0    0  501    0  0.00000000000E+00  0.00000000000E+00  0.16211059960E+03  0.16211059960E+03  0.00000000000E+00 0.  1.
         -4   -1    0    0    0  501 -0.00000000000E+00 -0.00000000000E+00 -0.23169039324E+03  0.23169039324E+03  0.00000000000E+00 0. -1.
         23    2    1    2    0    0  0.40624852948E+02 -0.15454234587E+03 -0.64092827736E+02  0.21281045472E+03  0.12508670484E+03 0.  0.
         23    2    1    2    0    0 -0.40624852948E+02  0.15454234587E+03 -0.54869659044E+01  0.18099053811E+03  0.84815993463E+02 0.  0.
          5    1    3    3  502    0  0.51909911730E+02 -0.15645135494E+03 -0.18861379427E+02  0.16596653107E+03  0.41800000000E+01 0. -1.
         -5    1    3    3    0  502 -0.11285058782E+02  0.19090090720E+01 -0.45231448309E+02  0.46843923656E+02  0.41800000000E+01 0. -1.
        -11    1    4    4    0    0 -0.44492361214E+02  0.36011116642E+02 -0.21859121896E+02  0.61271461042E+02  0.00000000000E+00 0.  1.
         11    1    4    4    0    0  0.38675082656E+01  0.11853122923E+03  0.16372155992E+02  0.11971907707E+03  0.00000000000E+00 0. -1.
</event>
<event>
 8    1  0.4798744E-006  0.1515594E+03  0.7561462E-02  0.1198570E+00
          1   -1    0    0  501    0  0.00000000000E+00  0.00000000000E+00  0.71543405898E+02  0.71543405898E+02  0.00000000000E+00 0. -1.
         -1   -1    0    0    0  501 -0.00000000000E+00 -0.00000000000E+00 -0.43885738657E+03  0.43885738657E+03  0.00000000000E+00 0.  1.
         23    2    1    2    0    0 -0.43911103005E+02 -0.94170762587E+02 -0.32188572687E+03  0.36063093911E+03  0.12509170872E+03 0.  0.
         23    2    1    2    0    0  0.43911103005E+02  0.94170762587E+02 -0.45428253808E+02  0.14976985336E+03  0.97831310109E+02 0.  0.
          5    1    3    3  502    0 -0.36757448050E+02 -0.12429325541E+03 -0.27801643948E+03  0.30677440628E+03  0.41800000000E+01 0. -1.
         -5    1    3    3    0  502 -0.71536549545E+01  0.30122492821E+02 -0.43869287388E+02  0.53856532834E+02  0.41800000000E+01 0. -1.
        -11    1    4    4    0    0  0.72873523455E+02  0.46591189425E+02 -0.33822971300E+02  0.92872400315E+02  0.00000000000E+00 0. -1.
         11    1    4    4    0    0 -0.28962420451E+02  0.47579573162E+02 -0.11605282508E+02  0.56897453043E+02  0.00000000000E+00 0.  1.
</event>
<event>
 8    1  0.4798744E-006  0.1037903E+03  0.7561462E-02  0.1272522E+00
          1   -1    0    0  501    0  0.00000000000E+00  0.00000000000E+00  0.42804089318E+02  0.42804089318E+02  0.00000000000E+00 0. -1.
         -1   -1    0    0    0  501 -0.00000000000E+00 -0.00000000000E+00 -0.31303532747E+03  0.31303532747E+03  0.00000000000E+00 0.  1.
         23    2    1    2    0    0 -0.24298011683E+02 -0.77537762664E+01 -0.21760810161E+03  0.25229166977E+03  0.12508911355E+03 0.  0.
         23    2    1    2    0    0  0.24298011683E+02  0.77537762664E+01 -0.52623136538E+02  0.10354774702E+03  0.85454239187E+02 0.  0.
          5    1    3    3  502    0  0.41957579562E+00 -0.63277227194E+02 -0.13947741115E+03  0.15321750601E+03  0.41800000000E+01 0.  1.
         -5    1    3    3    0  502 -0.24717587478E+02  0.55523450927E+02 -0.78130690459E+02  0.99074163762E+02  0.41800000000E+01 0.  1.
        -11    1    4    4    0    0  0.37245169748E+02  0.36231599092E+02 -0.13939825177E+02  0.53798235735E+02  0.00000000000E+00 0. -1.
         11    1    4    4    0    0 -0.12947158065E+02 -0.28477822825E+02 -0.38683311362E+02  0.49749511282E+02  0.00000000000E+00 0.  1.
</event>
<event>
 8    1  0.4798744E-006  0.1120111E+03  0.7561462E-02  0.1256890E+00
         -1   -1    0    0    0  501 -0.00000000000E+00  0.00000000000E+00  0.17426883486E+02  0.17426883486E+02  0.00000000000E+00 0.  1.
          1   -1    0    0  501    0  0.00000000000E+00 -0.00000000000E+00 -0.81493775548E+03  0.81493775548E+03  0.00000000000E+00 0. -1.
         23    2    1    2    0    0 -0.32901744120E+02 -0.35938042563E+02 -0.40891783349E+03  0.43039060381E+03  0.12509280408E+03 0.  0.
         23    2    1    2    0    0  0.32901744120E+02  0.35938042563E+02 -0.38859303850E+03  0.40197403515E+03  0.90578737548E+02 0.  0.
          5    1    3    3  502    0 -0.69802513649E+02 -0.48329863321E+02 -0.19210256838E+03  0.21006912143E+03  0.41800000000E+01 0.  1.
         -5    1    3    3    0  502  0.36900769529E+02  0.12391820759E+02 -0.21681526511E+03  0.22032148238E+03  0.41800000000E+01 0.  1.
        -11    1    4    4    0    0  0.51210587870E+02  0.53809827231E+02 -0.24129355854E+03  0.25246901435E+03  0.00000000000E+00 0. -1.
         11    1    4    4    0    0 -0.18308843750E+02 -0.17871784669E+02 -0.14729947997E+03  0.14950502080E+03  0.00000000000E+00 0.  1.
</event>
<event>
 8    1  0.4798744E-006  0.1127767E+03  0.7561462E-02  0.1255513E+00
          2   -1    0    0  501    0  0.00000000000E+00  0.00000000000E+00  0.26613080061E+02  0.26613080061E+02  0.00000000000E+00 0. -1.
         -2   -1    0    0    0  501 -0.00000000000E+00 -0.00000000000E+00 -0.61936359150E+03  0.61936359150E+03  0.00000000000E+00 0.  1.
         23    2    1    2    0    0 -0.28758065631E+02  0.34784323185E+02 -0.45297393835E+03  0.47209198462E+03  0.12509387532E+03 0.  0.
         23    2    1    2    0    0  0.28758065631E+02 -0.34784323185E+02 -0.13977657309E+03  0.17388468694E+03  0.93066742120E+02 0.  0.
          5    1    3    3  502    0 -0.54023754045E+02 -0.23129939479E+02 -0.12667538920E+03  0.13970571473E+03  0.41800000000E+01 0. -1.
         -5    1    3    3    0  502  0.25265688413E+02  0.57914262664E+02 -0.32629854915E+03  0.33238626989E+03  0.41800000000E+01 0. -1.
        -11    1    4    4    0    0  0.62041238927E+02 -0.12578988402E+02 -0.89668757973E+02  0.10976261856E+03  0.00000000000E+00 0. -1.
         11    1    4    4    0    0 -0.33283173295E+02 -0.22205334783E+02 -0.50107815121E+02  0.64122068382E+02  0.00000000000E+00 0.  1.
</event>
<event>
 8    1  0.4798744E-006  0.1460694E+03  0.7561462E-02  0.1205388E+00
          1   -1    0    0  501    0  0.00000000000E+00  0.00000000000E+00  0.90193899062E+03  0.90193899062E+03  0.00000000000E+00 0. -1.
         -1   -1    0    0    0  501 -0.00000000000E+00 -0.00000000000E+00 -0.36249278836E+02  0.36249278836E+02  0.00000000000E+00 0.  1.
         23    2    1    2    0    0  0.61989086182E+02 -0.11594980277E+03  0.30890232740E+03  0.35826845016E+03  0.12509448803E+03 0.  0.
         23    2    1    2    0    0 -0.61989086182E+02  0.11594980277E+03  0.55678738439E+03  0.57991981930E+03  0.94909440210E+02 0.  0.
          5    1    3    3  502    0  0.46664603964E+02 -0.11002443808E+03  0.31748968922E+03  0.33926411157E+03  0.41800000000E+01 0.  1.
         -5    1    3    3    0  502  0.15324482218E+02 -0.59253646949E+01 -0.85873618227E+01  0.19004338586E+02  0.41800000000E+01 0.  1.
        -11    1    4    4    0    0 -0.81137116776E+02  0.75424007862E+02  0.31249454370E+03  0.33154917059E+03  0.00000000000E+00 0.  1.
         11    1    4    4    0    0  0.19148030594E+02  0.40525794908E+02  0.24429284069E+03  0.24837064871E+03  0.00000000000E+00 0. -1.
</event>
<event>
 8    1  0.4798744E-006  0.1074441E+03  0.7561462E-02  0.1265378E+00
          2   -1    0    0  501    0  0.00000000000E+00  0.00000000000E+00  0.43230686748E+02  0.43230686748E+02  0.00000000000E+00 0. -1.
         -2   -1    0    0    0  501 -0.00000000000E+00 -0.00000000000E+00 -0.52511290873E+03  0.52511290873E+03  0.00000000000E+00 0.  1.
         23    2    1    2    0    0 -0.85740879847E+00 -0.44731221560E+02 -0.44010296258E+03  0.45971677909E+03  0.12508909616E+03 0.  0.
         23    2    1    2    0    0  0.85740879847E+00  0.44731221560E+02 -0.41779259401E+02  0.10862681638E+03  0.89736622338E+02 0.  0.
          5    1    3    3  502    0  0.53151584523E+01  0.34460447140E+02 -0.47131467071E+02  0.58776023298E+02  0.41800000000E+01 0.  1.
         -5    1    3    3    0  502 -0.61725672508E+01 -0.79191668700E+02 -0.39297149551E+03  0.40094075580E+03  0.41800000000E+01 0.  1.
        -11    1    4    4    0    0 -0.44343884433E+02  0.25032989888E+02 -0.22802187339E+02  0.55793999828E+02  0.00000000000E+00 0.  1.
         11    1    4    4    0    0  0.45201293231E+02  0.19698231672E+02 -0.18977072062E+02  0.52832816552E+02  0.00000000000E+00 0. -1.
</event>
<event>
 8    1  0.4798744E-006  0.1338801E+03  0.7561462E-02  0.1221809E+00
          2   -1    0    0  501    0  0.00000000000E+00  0.00000000000E+00  0.30972319924E+02  0.30972319924E+02  0.00000000000E+00 0. -1.
         -2   -1    0    0    0  501 -0.00000000000E+00 -0.00000000000E+00 -0.62853044783E+03  0.62853044783E+03  0.00000000000E+00 0.  1.
         23    2    1    2    0    0 -0.48872706012E+02 -0.71790720883E+02 -0.33386544849E+03  0.36695396266E+03  0.12508646616E+03 0.  0.
         23    2    1    2    0    0  0.48872706012E+02  0.71790720883E+02 -0.26369267942E+03  0.29254880510E+03  0.92241667307E+02 0.  0.
          5    1    3    3  502    0 -0.79265463405E+02 -0.80914697297E+02 -0.20580185977E+03  0.23495122858E+03  0.41800000000E+01 0. -1.
         -5    1    3    3    0  502  0.30392757394E+02  0.91239764142E+01 -0.12806358872E+03  0.13200273408E+03  0.41800000000E+01 0. -1.
        -11    1    4    4    0    0  0.72584666546E+02  0.65749401067E+02 -0.23645190491E+03  0.25593167231E+03  0.00000000000E+00 0.  1.
         11    1    4    4    0    0 -0.23711960535E+02  0.60413198160E+01 -0.27240774514E+02  0.36617132788E+02  0.00000000000E+00 0. -1.
</event>
<event>
 8    1  0.4798744E-006  0.1218034E+03  0.7561462E-02  0.1240151E+00
          2   -1    0    0  501    0  0.00000000000E+00  0.00000000000E+00  0.19948089467E+03  0.19948089467E+03  0.00000000000E+00 0. -1.
         -2   -1    0    0    0  501 -0.00000000000E+00 -0.00000000000E+00 -0.13079218594E+03  0.13079218594E+03  0.00000000000E+00 0.  1.
         23    2    1    2    0    0 -0.92556904582E+01 -0.10314321864E+03 -0.23784321802E+02  0.16412761618E+03  0.12509192248E+03 0.  0.
         23    2    1    2    0    0  0.92556904582E+01  0.10314321864E+03  0.92473030536E+02  0.16614546444E+03  0.91262602530E+02 0.  0.
          5    1    3    3  502    0  0.16704067570E+02 -0.42988413483E+02  0.48104731684E+02  0.66772503155E+02  0.41800000000E+01 0.  1.
         -5    1    3    3    0  502 -0.25959758028E+02 -0.60154805155E+02 -0.71889053486E+02  0.97355113021E+02  0.41800000000E+01 0.  1.
        -11    1    4    4    0    0  0.20860060526E+02 -0.61439620625E+01 -0.11440579841E+01  0.21776116817E+02  0.00000000000E+00 0. -1.
         11    1    4    4    0    0 -0.11604370067E+02  0.10928718070E+03  0.93617088520E+02  0.14436934762E+03  0.00000000000E+00 0.  1.
</event>
<event>
 8    1  0.4798744E-006  0.8161055E+02  0.7561462E-02  0.1324542E+00
          2   -1    0    0  501    0  0.00000000000E+00  0.00000000000E+00  0.38897401427E+02  0.38897401427E+02  0.00000000000E+00 0.  1.
         -2   -1    0    0    0  501 -0.00000000000E+00 -0.00000000000E+00 -0.33469388703E+03  0.33469388703E+03  0.00000000000E+00 0. -1.
         23    2    1    2    0    0 -0.12787786483E+02 -0.14542160757E+02 -0.21764283814E+03  0.25177532942E+03  0.12508960622E+03 0.  0.
         23    2    1    2    0    0  0.12787786483E+02  0.14542160757E+02 -0.78153647457E+02  0.12181595904E+03  0.91411888410E+02 0.  0.
          5    1    3    3  502    0 -0.41594458770E+02  0.10032472121E+02 -0.20811250349E+03  0.21250655521E+03  0.41800000000E+01 0. -1.
         -5    1    3    3    0  502  0.28806672288E+02 -0.24574632878E+02 -0.95303346545E+01  0.39268774211E+02  0.41800000000E+01 0. -1.
        -11    1    4    4    0    0  0.26548697099E+02 -0.27304813975E+02 -0.79015777239E+01  0.38895001149E+02  0.00000000000E+00 0.  1.
         11    1    4    4    0    0 -0.13760910616E+02  0.41846974733E+02 -0.70252069733E+02  0.82920957888E+02  0.00000000000E+00 0. -1.
</event>
<event>
 8    1  0.4798744E-006  0.1905574E+03  0.7561462E-02  0.1157960E+00
          1   -1    0    0  501    0  0.00000000000E+00  0.00000000000E+00  0.59340843551E+02  0.59340843551E+02  0.00000000000E+00 0.  1.
         -1   -1    0    0    0  501 -0.00000000000E+00 -0.00000000000E+00 -0.74292160608E+03  0.74292160608E+03  0.00000000000E+00 0. -1.
         23    2    1    2    0    0  0.16217711247E+03  0.69040497393E+02 -0.36534431178E+03  0.42448941208E+03  0.12508712457E+03 0.  0.
         23    2    1    2    0    0 -0.16217711247E+03 -0.69040497393E+02 -0.31823645075E+03  0.37777303755E+03  0.10183331096E+03 0.  0.
          5    1    3    3  502    0  0.38288255387E+02  0.26511669997E+02 -0.12954291318E+02  0.48519534315E+02  0.41800000000E+01 0.  1.
         -5    1    3    3    0  502  0.12388885708E+03  0.42528827396E+02 -0.35239002046E+03  0.37596987777E+03  0.41800000000E+01 0.  1.
        -11    1    4    4    0    0 -0.15406133383E+03 -0.22065260173E+02 -0.25147229556E+03  0.29573651402E+03  0.00000000000E+00 0.  1.
         11    1    4    4    0    0 -0.81157786440E+01 -0.46975237220E+02 -0.66764155188E+02  0.82036523530E+02  0.00000000000E+00 0. -1.
</event>
<event>
 8    1  0.4798744E-006  0.1176270E+03  0.7561462E-02  0.1247064E+00
          2   -1    0    0  501    0  0.00000000000E+00  0.00000000000E+00  0.47475604335E+02  0.47475604335E+02  0.00000000000E+00 0. -1.
         -2   -1    0    0    0  501 -0.00000000000E+00 -0.00000000000E+00 -0.39973093743E+03  0.39973093743E+03  0.00000000000E+00 0.  1.
         23    2    1    2    0    0  0.39582440225E+02 -0.62702544747E+02 -0.25729062471E+03  0.29554196808E+03  0.12509280810E+03 0.  0.
         23    2    1    2    0    0 -0.39582440225E+02  0.62702544747E+02 -0.94964708390E+02  0.15166457369E+03  0.92116602097E+02 0.  0.
          5    1    3    3  502    0  0.63327552450E+02 -0.13470571534E+02 -0.21968318107E+03  0.22906332671E+03  0.41800000000E+01 0.  1.
         -5    1    3    3    0  502 -0.23745112225E+02 -0.49231973214E+02 -0.37607443634E+02  0.66478641366E+02  0.41800000000E+01 0.  1.
        -11    1    4    4    0    0 -0.30215531646E+02 -0.17427073458E+02 -0.14666891724E+02  0.37839119371E+02  0.00000000000E+00 0.  1.
         11    1    4    4    0    0 -0.93669085787E+01  0.80129618206E+02 -0.80297816666E+02  0.11382545432E+03  0.00000000000E+00 0. -1.
</event>
<event>
 7    1  0.4798744E-006  0.2378323E+03  0.7561462E-02  0.1121245E+00
         -4   -1    0    0    0  501 -0.00000000000E+00  0.00000000000E+00  0.11174245712E+04  0.11174245712E+04  0.00000000000E+00 0.  1.
          4   -1    0    0  501    0  0.00000000000E+00 -0.00000000000E+00 -0.14449501280E+03  0.14449501280E+03  0.00000000000E+00 0. -1.
         23    2    1    2    0    0  0.48073992657E+02 -0.22350201239E+03  0.55961993385E+01  0.24876342411E+03  0.97916624832E+02 0.  0.
          5    1    1    2  502    0  0.11188581325E+02  0.45090930960E+02  0.26362539916E+02  0.53580148541E+02  0.41800000000E+01 0. -1.
         -5    1    1    2    0  502 -0.59262573983E+02  0.17841108143E+03  0.94097081913E+03  0.95957601133E+03  0.41800000000E+01 0.  1.
        -11    1    3    3    0    0 -0.13376305976E+02 -0.54729457096E+01  0.16553914098E+02  0.21975230789E+02  0.00000000000E+00 0.  1.
         11    1    3    3    0    0  0.61450298633E+02 -0.21802906668E+03 -0.10957714759E+02  0.22678819332E+03  0.00000000000E+00 0. -1.
</event>
<event>
 8    1  0.4798744E-006  0.7736108E+02  0.7561462E-02  0.1336712E+00
          2   -1    0    0  501    0  0.00000000000E+00  0.00000000000E+00  0.16135888681E+03  0.16135888681E+03  0.00000000000E+00 0. -1.
         -2   -1    0    0    0  501 -0.00000000000E+00 -0.00000000000E+00 -0.91688978283E+02  0.91688978283E+02  0.00000000000E+00 0.  1.
         23    2    1    2    0    0  0.34868352775E+02 -0.33342377364E+02  0.10416172041E+02  0.13448726495E+03  0.12510320395E+03 0.  0.
         23    2    1    2    0    0 -0.34868352775E+02  0.33342377364E+02  0.59253736480E+02  0.11856060014E+03  0.90653706300E+02 0.  0.
          5    1    3    3  502    0  0.34063002193E+02 -0.39533042891E+02  0.62691251481E+02  0.81675057458E+02  0.41800000000E+01 0. -1.
         -5    1    3    3    0  502  0.80535058128E+00  0.61906655265E+01 -0.52275079439E+02  0.52812207487E+02  0.41800000000E+01 0. -1.
        -11    1    4    4    0    0 -0.41521707198E+02  0.56866088837E+02  0.62183313503E+02  0.93939175569E+02  0.00000000000E+00 0. -1.
         11    1    4    4    0    0  0.66533544236E+01 -0.23523711473E+02 -0.29295770225E+01  0.24621424575E+02  0.00000000000E+00 0.  1.
</event>
<event>
 8    1  0.4798744E-006  0.1043906E+03  0.7561462E-02  0.1271325E+00
         -3   -1    0    0    0  501 -0.00000000000E+00  0.00000000000E+00  0.51556445230E+02  0.51556445230E+02  0.00000000000E+00 0.  1.
          3   -1    0    0  501    0  0.00000000000E+00 -0.00000000000E+00 -0.22282915427E+03  0.22282915427E+03  0.00000000000E+00 0. -1.
         23    2    1    2    0    0 -0.45943606110E+00 -0.16633160159E+02 -0.84193300996E+02  0.14514461829E+03  0.11705372778E+03 0.  0.
         23    2    1    2    0    0  0.45943606110E+00  0.16633160159E+02 -0.87079408045E+02  0.12924098121E+03  0.94040070294E+02 0.  0.
          5    1    3    3  502    0  0.13492322324E+02 -0.65619056720E+02 -0.47271497003E+02  0.82097321487E+02  0.41800000000E+01 0. -1.
         -5    1    3    3    0  502 -0.13951758385E+02  0.48985896561E+02 -0.36921803993E+02  0.63047296802E+02  0.41800000000E+01 0.  1.
        -11    1    4    4    0    0 -0.95724180417E+01 -0.35857503616E+02 -0.16255522241E+02  0.40517079807E+02  0.00000000000E+00 0.  1.
         11    1    4    4    0    0  0.10031854103E+02  0.52490663775E+02 -0.70823885804E+02  0.88723901406E+02  0.00000000000E+00 0. -1.
</event>
<event>
 8    1  0.4798744E-006  0.9648668E+02  0.7561462E-02  0.1287862E+00
          2   -1    0    0  501    0  0.00000000000E+00  0.00000000000E+00  0.19560323755E+03  0.19560323755E+03  0.00000000000E+00 0. -1.
         -2   -1    0    0    0  501 -0.00000000000E+00 -0.00000000000E+00 -0.69884617040E+02  0.69884617040E+02  0.00000000000E+00 0.  1.
         23    2    1    2    0    0 -0.54844446589E+01 -0.41059271486E+02  0.53511543877E+02  0.14222431060E+03  0.12509327036E+03 0.  0.
         23    2    1    2    0    0  0.54844446589E+01  0.41059271486E+02  0.72207076631E+02  0.12326354399E+03  0.90907075923E+02 0.  0.
          5    1    3    3  502    0 -0.13689408780E+02 -0.79106144005E+02  0.62776169667E+02  0.10199755786E+03  0.41800000000E+01 0. -1.
         -5    1    3    3    0  502  0.82049641208E+01  0.38046872519E+02 -0.92646257901E+01  0.40226752736E+02  0.41800000000E+01 0. -1.
        -11    1    4    4    0    0  0.15067246317E+02 -0.12160137622E+02  0.66061124939E+02  0.68840127010E+02  0.00000000000E+00 0. -1.
         11    1    4    4    0    0 -0.95828016577E+01  0.53219409108E+02  0.61459516916E+01  0.54423416978E+02  0.00000000000E+00 0.  1.
</event>
<event>
 8    1  0.4798744E-006  0.1280232E+03  0.7561462E-02  0.1230419E+00
         -2   -1    0    0    0  501 -0.00000000000E+00  0.00000000000E+00  0.11908543128E+04  0.11908543128E+04  0.00000000000E+00 0.  1.
          2   -1    0    0  501    0  0.00000000000E+00 -0.00000000000E+00 -0.21012489640E+02  0.21012489640E+02  0.00000000000E+00 0. -1.
         23    2    1    2    0    0 -0.95567905672E+02 -0.63760022655E+02  0.69672436442E+03  0.71712689870E+03  0.12509030253E+03 0.  0.
         23    2    1    2    0    0  0.95567905672E+02  0.63760022655E+02  0.47311745873E+03  0.49473990372E+03  0.87914034706E+02 0.  0.
          5    1    3    3  502    0 -0.17112624149E+02  0.11959668196E+02  0.40667597609E+03  0.40723297693E+03  0.41800000000E+01 0. -1.
         -5    1    3    3    0  502 -0.78455281523E+02 -0.75719690851E+02  0.29004838832E+03  0.30989392177E+03  0.41800000000E+01 0. -1.
        -11    1    4    4    0    0  0.64174215661E+02  0.68528175886E+02  0.43553353373E+03  0.44553776479E+03  0.00000000000E+00 0.  1.
         11    1    4    4    0    0  0.31393690011E+02 -0.47681532313E+01  0.37583924997E+02  0.49202138937E+02  0.00000000000E+00 0. -1.
</event>
<event>
 8    1  0.4798744E-006  0.9163786E+02  0.7561462E-02  0.1298933E+00
          1   -1    0    0  501    0  0.00000000000E+00  0.00000000000E+00  0.83632905059E+02  0.83632905059E+02  0.00000000000E+00 0. -1.
         -1   -1    0    0    0  501 -0.00000000000E+00 -0.00000000000E+00 -0.14502584452E+03  0.14502584452E+03  0.00000000000E+00 0.  1.
         23    2    1    2    0    0 -0.62154201843E+00  0.13168084546E+02 -0.37392877530E+02  0.13122470056E+03  0.12509160636E+03 0.  0.
         23    2    1    2    0    0  0.62154201843E+00 -0.13168084546E+02 -0.24000061931E+02  0.97434049020E+02  0.93507251968E+02 0.  0.
          5    1    3    3  502    0 -0.51101640472E+02 -0.26520944117E+02 -0.19470709699E+01  0.57758130347E+02  0.41800000000E+01 0.  1.
         -5    1    3    3    0  502  0.50480098454E+02  0.39689028663E+02 -0.35445806560E+02  0.73466570213E+02  0.41800000000E+01 0.  1.
        -11    1    4    4    0    0 -0.19730541141E+02 -0.29235331248E+02  0.24149933414E+02  0.42745972100E+02  0.00000000000E+00 0. -1.
         11    1    4    4    0    0  0.20352083160E+02  0.16067246702E+02 -0.48149995345E+02  0.54688076920E+02  0.00000000000E+00 0.  1.
</event>
<event>
 8    1  0.4798744E-006  0.1343909E+03  0.7561462E-02  0.1221082E+00
          2   -1    0    0  501    0  0.00000000000E+00  0.00000000000E+00  0.93603370616E+03  0.93603370616E+03  0.00000000000E+00 0. -1.
         -2   -1    0    0    0  501 -0.00000000000E+00 -0.00000000000E+00 -0.27472437288E+02  0.27472437288E+02  0.00000000000E+00 0.  1.
         23    2    1    2    0    0  0.95368309732E+02  0.47021330896E+02  0.33127526389E+03  0.36972537098E+03  0.12508968552E+03 0.  0.
         23    2    1    2    0    0 -0.95368309732E+02 -0.47021330896E+02  0.57728600498E+03  0.59378077246E+03  0.89500581774E+02 0.  0.
          5    1    3    3  502    0  0.21290086123E+02 -0.28518152818E+02  0.18903918644E+03  0.19240540330E+03  0.41800000000E+01 0. -1.
         -5    1    3    3    0  502  0.74078223609E+02  0.75539483713E+02  0.14223607744E+03  0.17731996768E+03  0.41800000000E+01 0. -1.
        -11    1    4    4    0    0 -0.48421798756E+00 -0.30800893794E+02  0.58248142518E+02  0.65892151523E+02  0.00000000000E+00 0.  1.
         11    1    4    4    0    0 -0.94884091745E+02 -0.16220437102E+02  0.51903786247E+03  0.52788862094E+03  0.00000000000E+00 0. -1.
</event>
<event>
 8    1  0.4798744E-006  0.1681873E+03  0.7561462E-02  0.1179752E+00
          2   -1    0    0  501    0  0.00000000000E+00  0.00000000000E+00  0.57031381776E+03  0.57031381776E+03  0.00000000000E+00 0. -1.
         -2   -1    0    0    0  501 -0.00000000000E+00 -0.00000000000E+00 -0.59537701426E+02  0.59537701426E+02  0.00000000000E+00 0.  1.
         23    2    1    2    0    0 -0.76190603192E+02 -0.11729520547E+03  0.16263827046E+03  0.24347853830E+03  0.11518427997E+03 0.  0.
         23    2    1    2    0    0  0.76190603192E+02  0.11729520547E+03  0.34813784587E+03  0.38637298089E+03  0.92308977850E+02 0.  0.
          5    1    3    3  502    0  0.23107399604E+02 -0.19307644750E+02  0.69025185309E+02  0.75423376145E+02  0.41800000000E+01 0. -1.
         -5    1    3    3    0  502 -0.99298002796E+02 -0.97987560715E+02  0.93613085153E+02  0.16805516215E+03  0.41800000000E+01 0.  1.
        -11    1    4    4    0    0  0.14770966646E+02 -0.14688525496E+02  0.60670491023E+02  0.64147039822E+02  0.00000000000E+00 0.  1.
         11    1    4    4    0    0  0.61419636546E+02  0.13198373096E+03  0.28746735485E+03  0.32222594106E+03  0.00000000000E+00 0. -1.
</event>
<event>
 8    1  0.4798744E-006  0.1091047E+03  0.7561462E-02  0.1262237E+00
         -4   -1    0    0    0  501 -0.00000000000E+00  0.00000000000E+00  0.29282491497E+03  0.29282491497E+03  0.00000000000E+00 0.  1.
          4   -1    0    0  501    0  0.00000000000E+00 -0.00000000000E+00 -0.44930092933E+02  0.44930092933E+02  0.00000000000E+00 0. -1.
         23    2    1    2    0    0  0.27768797110E+02  0.25597224416E+02  0.13701217600E+03  0.18932832485E+03  0.12508618720E+03 0.  0.
         23    2    1    2    0    0 -0.27768797110E+02 -0.25597224416E+02  0.11088264604E+03  0.14842668305E+03  0.91154786267E+02 0.  0.
          5    1    3    3  502    0  0.63225428490E+02 -0.16116923604E+02  0.36711909237E+02  0.74982976161E+02  0.41800000000E+01 0.  1.
         -5    1    3    3    0  502 -0.35456631380E+02  0.41714148020E+02  0.10030026676E+03  0.11434534869E+03  0.41800000000E+01 0.  1.
        -11    1    4    4    0    0 -0.25671592842E+02  0.31584601089E+02  0.37244375717E+02  0.55170292980E+02  0.00000000000E+00 0.  1.
         11    1    4    4    0    0 -0.20972042685E+01 -0.57181825505E+02  0.73638270319E+02  0.93256390073E+02  0.00000000000E+00 0. -1.
</event>
<event>
 7    1  0.4798744E-006  0.1741326E+03  0.7561462E-02  0.1173605E+00
          1   -1    0    0  501    0  0.00000000000E+00  0.00000000000E+00  0.54807272603E+02  0.54807272603E+02  0.00000000000E+00 0. -1.
         -1   -1    0    0    0  501 -0.00000000000E+00 -0.00000000000E+00 -0.57275737041E+03  0.57275737041E+03  0.00000000000E+00 0.  1.
         23    2    1    2    0    0 -0.83474813106E+02 -0.96637700581E+02 -0.28034963476E+03  0.32188702819E+03  0.93319084935E+02 0.  0.
          5    1    1    2  502    0  0.11632982305E+03  0.10410596590E+03 -0.17565364603E+03  0.23503692397E+03  0.41800000000E+01 0. -1.
         -5    1    1    2    0  502 -0.32855009941E+02 -0.74682653177E+01 -0.61946817017E+02  0.70640690849E+02  0.41800000000E+01 0.  1.
        -11    1    3    3    0    0  0.17042358925E+02 -0.38315935928E+02 -0.72349562892E+02  0.83624232101E+02  0.00000000000E+00 0.  1.
         11    1    3    3    0    0 -0.10051717203E+03 -0.58321764653E+02 -0.20800007186E+03  0.23826279609E+03  0.00000000000E+00 0. -1.
</event>
<event>
 8    1  0.4798744E-006  0.1517441E+03  0.7561462E-02  0.1198346E+00
         -2   -1    0    0    0  501 -0.00000000000E+00  0.00000000000E+00  0.54117196697E+02  0.54117196697E+02  0.00000000000E+00 0.  1.
          2   -1    0    0  501    0  0.00000000000E+00 -0.00000000000E+00 -0.49648949526E+03  0.49648949526E+03  0.00000000000E+00 0. -1.
         23    2    1    2    0    0 -0.10719364305E+03  0.56358811825E+02 -0.26728410552E+03  0.31898923545E+03  0.12508615627E+03 0.  0.
         23    2    1    2    0    0  0.10719364305E+03 -0.56358811825E+02 -0.17508819304E+03  0.23161745650E+03  0.91235837440E+02 0.  0.
          5    1    3    3  502    0  0.89061155585E+01 -0.25715579632E+02 -0.74382030557E+02  0.79314366920E+02  0.41800000000E+01 0. -1.
         -5    1    3    3    0  502 -0.11609975861E+03  0.82074391457E+02 -0.19290207496E+03  0.23967486853E+03  0.41800000000E+01 0. -1.
        -11    1    4    4    0    0  0.99001699759E+02 -0.26127567728E+02 -0.75492658344E+02  0.12721292314E+03  0.00000000000E+00 0.  1.
         11    1    4    4    0    0  0.81919432908E+01 -0.30231244097E+02 -0.99595534696E+02  0.10440453336E+03  0.00000000000E+00 0. -1.
</event>
<event>
 8    1  0.4798744E-006  0.1039956E+03  0.7561462E-02  0.1272111E+00
         -2   -1    0    0    0  501 -0.00000000000E+00  0.00000000000E+00  0.63226961694E+02  0.63226961694E+02  0.00000000000E+00 0. -1.
          2   -1    0    0  501    0  0.00000000000E+00 -0.00000000000E+00 -0.28173456181E+03  0.28173456181E+03  0.00000000000E+00 0.  1.
         23    2    1    2    0    0 -0.13219559934E+02  0.66455005266E+02 -0.79496495489E+02  0.16297060167E+03  0.12509476298E+03 0.  0.
         23    2    1    2    0    0  0.13219559934E+02 -0.66455005266E+02 -0.13901110462E+03  0.18199092183E+03  0.95945734298E+02 0.  0.
          5    1    3    3  502    0 -0.27124503395E+02 -0.17922524730E+02 -0.69410404384E+02  0.76760876844E+02  0.41800000000E+01 0.  1.
         -5    1    3    3    0  502  0.13904943461E+02  0.84377529996E+02 -0.10086091105E+02  0.86209724827E+02  0.41800000000E+01 0.  1.
        -11    1    4    4    0    0 -0.18539761497E+02 -0.51019141472E+02 -0.13613931723E+03  0.14656257793E+03  0.00000000000E+00 0.  1.
         11    1    4    4    0    0  0.31759321431E+02 -0.15435863794E+02 -0.28717873937E+01  0.35428343902E+02  0.00000000000E+00 0. -1.
</event>
<event>
 8    1  0.4798744E-006  0.1117859E+03  0.7561462E-02  0.1257298E+00
          2   -1    0    0  501    0  0.00000000000E+00  0.00000000000E+00  0.14106451706E+03  0.14106451706E+03  0.00000000000E+00 0. -1.
         -2   -1    0    0    0  501 -0.00000000000E+00 -0.00000000000E+00 -0.10626321815E+03  0.10626321815E+03  0.00000000000E+00 0.  1.
         23    2    1    2    0    0 -0.45632101662E+02 -0.24268314478E+02 -0.58633871937E+01  0.13547643426E+03  0.12509294601E+03 0.  0.
         23    2    1    2    0    0  0.45632101662E+02  0.24268314478E+02  0.40664686105E+02  0.11185130096E+03  0.90475726246E+02 0.  0.
          5    1    3    3  502    0  0.37586093518E+02 -0.28883528977E+02 -0.18536034844E+02  0.51068871731E+02  0.41800000000E+01 0.  1.
         -5    1    3    3    0  502 -0.83218195181E+02  0.46152144988E+01  0.12672647650E+02  0.84407562531E+02  0.41800000000E+01 0.  1.
        -11    1    4    4    0    0 -0.35435830398E+01  0.40572295073E+02 -0.71514652798E+01  0.41349867762E+02  0.00000000000E+00 0.  1.
         11    1    4    4    0    0  0.49175684702E+02 -0.16303980595E+02  0.47816151385E+02  0.70501433194E+02  0.00000000000E+00 0. -1.
</event>
<event>
 8    1  0.4798744E-006  0.1279143E+03  0.7561462E-02  0.1230584E+00
         -1   -1    0    0    0  501 -0.00000000000E+00  0.00000000000E+00  0.34359687380E+02  0.34359687380E+02  0.00000000000E+00 0.  1.
          1   -1    0    0  501    0  0.00000000000E+00 -0.00000000000E+00 -0.48272080307E+03  0.48272080307E+03  0.00000000000E+00 0. -1.
         23    2    1    2    0    0 -0.68125992674E+02  0.99246125075E+01 -0.23239169123E+03  0.27275223928E+03  0.12509291373E+03 0.  0.
         23    2    1    2    0    0  0.68125992674E+02 -0.99246125075E+01 -0.21596942446E+03  0.24432825117E+03  0.91180333454E+02 0.  0.
          5    1    3    3  502    0 -0.53621236579E+02  0.65646148803E+02 -0.13132836457E+03  0.15636260936E+03  0.41800000000E+01 0.  1.
         -5    1    3    3    0  502 -0.14504756095E+02 -0.55721536296E+02 -0.10106332667E+03  0.11638962992E+03  0.41800000000E+01 0.  1.
        -11    1    4    4    0    0  0.80548550688E+02  0.18119146177E+02 -0.14208961104E+03  0.16433450655E+03  0.00000000000E+00 0.  1.
         11    1    4    4    0    0 -0.12422558013E+02 -0.28043758684E+02 -0.73879813416E+02  0.79993744625E+02  0.00000000000E+00 0. -1.
</event>
<event>
 8    1  0.4798744E-006  0.1125880E+03  0.7561462E-02  0.1255851E+00
          2   -1    0    0  501    0  0.00000000000E+00  0.00000000000E+00  0.88477223816E+03  0.88477223816E+03  0.00000000000E+00 0. -1.
         -2   -1    0    0    0  501 -0.00000000000E+00 -0.00000000000E+00 -0.21131965566E+02  0.21131965566E+02  0.00000000000E+00 0.  1.
         23    2    1    2    0    0  0.65049332489E+02 -0.20683021669E+02  0.31921663064E+03  0.34958037430E+03  0.12509187734E+03 0.  0.
         23    2    1    2    0    0 -0.65049332489E+02  0.20683021669E+02  0.54442364195E+03  0.55632382942E+03  0.91868918714E+02 0.  0.
          5    1    3    3  502    0 -0.15116300095E+02  0.16465900891E+02  0.19917845126E+03  0.20047233292E+03  0.41800000000E+01 0.  1.
         -5    1    3    3    0  502  0.80165632584E+02 -0.37148922560E+02  0.12003817939E+03  0.14910804138E+03  0.41800000000E+01 0.  1.
        -11    1    4    4    0    0 -0.64097927398E+02 -0.24624340511E+02  0.35213699570E+03  0.35876923807E+03  0.00000000000E+00 0.  1.
         11    1    4    4    0    0 -0.95140509070E+00  0.45307362180E+02  0.19228664625E+03  0.19755459135E+03  0.00000000000E+00 0. -1.
</event>
<event>
 8    1  0.4798744E-006  0.7421467E+02  0.7561462E-02  0.1346320E+00
         -4   -1    0    0    0  501 -0.00000000000E+00  0.00000000000E+00  0.65055016608E+03  0.65055016608E+03  0.00000000000E+00 0.  1.
          4   -1    0    0  501    0  0.00000000000E+00 -0.00000000000E+00 -0.23320771332E+02  0.23320771332E+02  0.00000000000E+00 0. -1.
         23    2    1    2    0    0  0.13763199780E+02 -0.24123416070E+02  0.49230551880E+03  0.50870702335E+03  0.12508695733E+03 0.  0.
         23    2    1    2    0    0 -0.13763199780E+02  0.24123416070E+02  0.13492387595E+03  0.16516391407E+03  0.91122452428E+02 0.  0.
          5    1    3    3  502    0  0.27178853139E+02 -0.51011109895E+02  0.10269883588E+03  0.11792093403E+03  0.41800000000E+01 0.  1.
         -5    1    3    3    0  502 -0.13415653359E+02  0.26887693824E+02  0.38960668291E+03  0.39078608932E+03  0.41800000000E+01 0.  1.
        -11    1    4    4    0    0 -0.23923371962E+02  0.36801231373E+02  0.14111009279E+03  0.14777928354E+03  0.00000000000E+00 0.  1.
         11    1    4    4    0    0  0.10160172182E+02 -0.12677815303E+02 -0.61862168403E+01  0.17384630523E+02  0.00000000000E+00 0. -1.
</event>
<event>
 8    1  0.4798744E-006  0.5913032E+02  0.7561462E-02  0.1401518E+00
         -2   -1    0    0    0  501 -0.00000000000E+00  0.00000000000E+00  0.43980902218E+03  0.43980902218E+03  0.00000000000E+00 0.  1.
          2   -1    0    0  501    0  0.00000000000E+00 -0.00000000000E+00 -0.32206819031E+02  0.32206819031E+02  0.00000000000E+00 0. -1.
         23    2    1    2    0    0  0.48899148723E+02  0.39478603409E+00  0.23815974671E+03  0.27342173503E+03  0.12509235640E+03 0.  0.
         23    2    1    2    0    0 -0.48899148723E+02 -0.39478603409E+00  0.16944245644E+03  0.19859410619E+03  0.91310406670E+02 0.  0.
          5    1    3    3  502    0  0.38894416865E+02  0.12025326268E+02  0.67638950811E+01  0.41480197827E+02  0.41800000000E+01 0.  1.
         -5    1    3    3    0  502  0.10004731859E+02 -0.11630540234E+02  0.23139585163E+03  0.23194153720E+03  0.41800000000E+01 0.  1.
        -11    1    4    4    0    0 -0.86983709548E+01  0.15846758183E+02 -0.50712560296E+01  0.18774957787E+02  0.00000000000E+00 0. -1.
         11    1    4    4    0    0 -0.40200777769E+02 -0.16241544217E+02  0.17451371247E+03  0.17981914840E+03  0.00000000000E+00 0.  1.
</event>
<event>
 8    1  0.4798744E-006  0.6482963E+02  0.7561462E-02  0.1378613E+00
          1   -1    0    0  501    0  0.00000000000E+00  0.00000000000E+00  0.32136467135E+02  0.32136467135E+02  0.00000000000E+00 0. -1.
         -1   -1    0    0    0  501 -0.00000000000E+00 -0.00000000000E+00 -0.41052810683E+03  0.41052810683E+03  0.00000000000E+00 0.  1.
         23    2    1    2    0    0 -0.34341410528E+02  0.19741407625E+02 -0.23032051233E+03  0.26507546322E+03  0.12509359357E+03 0.  0.
         23    2    1    2    0    0  0.34341410528E+02 -0.19741407625E+02 -0.14807112737E+03  0.17758911074E+03  0.89687110795E+02 0.  0.
          5    1    3    3  502    0 -0.13049347592E+02 -0.31341858248E+02 -0.69397413495E+01  0.34903151161E+02  0.41800000000E+01 0.  1.
         -5    1    3    3    0  502 -0.21292062936E+02  0.51083265872E+02 -0.22338077098E+03  0.23017231206E+03  0.41800000000E+01 0.  1.
        -11    1    4    4    0    0  0.85713903018E+01 -0.76411555418E+01  0.11053061569E+02  0.15938198134E+02  0.00000000000E+00 0. -1.
         11    1    4    4    0    0  0.25770020226E+02 -0.12100252083E+02 -0.15912418894E+03  0.16165091261E+03  0.00000000000E+00 0.  1.
</event>
<event>
 8    1  0.4798744E-006  0.4212902E+03  0.7561462E-02  0.1036647E+00
         -1   -1    0    0    0  501 -0.00000000000E+00  0.00000000000E+00  0.14132570514E+04  0.14132570514E+04  0.00000000000E+00 0.  1.
          1   -1    0    0  501    0  0.00000000000E+00 -0.00000000000E+00 -0.14801717201E+03  0.14801717201E+03  0.00000000000E+00 0. -1.
         23    2    1    2    0    0  0.25588276144E+03  0.32268317217E+03  0.92236756231E+03  0.10178458960E+04  0.12509168926E+03 0.  0.
         23    2    1    2    0    0 -0.25588276144E+03 -0.32268317217E+03  0.34287231706E+03  0.54342832743E+03  0.90291217971E+02 0.  0.
          5    1    3    3  502    0  0.14302165289E+03  0.93087093324E+02  0.30427461552E+03  0.34888524501E+03  0.41800000000E+01 0. -1.
         -5    1    3    3    0  502  0.11286110855E+03  0.22959607885E+03  0.61809294679E+03  0.66896065095E+03  0.41800000000E+01 0. -1.
        -11    1    4    4    0    0 -0.95551766507E+02 -0.77354185604E+02  0.14354152132E+03  0.18899200633E+03  0.00000000000E+00 0.  1.
         11    1    4    4    0    0 -0.16033099493E+03 -0.24532898657E+03  0.19933079574E+03  0.35443632110E+03  0.00000000000E+00 0. -1.
</event>
<event>
 8    1  0.4798744E-006  0.9660089E+02  0.7561462E-02  0.1287611E+00
         -2   -1    0    0    0  501 -0.00000000000E+00  0.00000000000E+00  0.40688346148E+03  0.40688346148E+03  0.00000000000E+00 0.  1.
          2   -1    0    0  501    0  0.00000000000E+00 -0.00000000000E+00 -0.49049531517E+02  0.49049531517E+02  0.00000000000E+00 0. -1.
         23    2    1    2    0    0 -0.83296157263E+01  0.73417604094E+02  0.28032692650E+03  0.31577455445E+03  0.12518329132E+03 0.  0.
         23    2    1    2    0    0  0.83296157263E+01 -0.73417604094E+02  0.77507003462E+02  0.14015843855E+03  0.90429670030E+02 0.  0.
          5    1    3    3  502    0 -0.31784412637E+02  0.51285125039E+01  0.21768519793E+03  0.22009286295E+03  0.41800000000E+01 0.  1.
         -5    1    3    3    0  502  0.23454796910E+02  0.68289091590E+02  0.62641728576E+02  0.95681691495E+02  0.41800000000E+01 0.  1.
        -11    1    4    4    0    0 -0.19842611307E+02 -0.40380583720E+02  0.84929033652E+02  0.96110673300E+02  0.00000000000E+00 0.  1.
         11    1    4    4    0    0  0.28172227034E+02 -0.33037020374E+02 -0.74220301906E+01  0.44047765249E+02  0.00000000000E+00 0. -1.
</event>
<event>
 8    1  0.4798744E-006  0.1064095E+03  0.7561462E-02  0.1267367E+00
          1   -1    0    0  501    0  0.00000000000E+00  0.00000000000E+00  0.29270290834E+02  0.29270290834E+02  0.00000000000E+00 0. -1.
         -1   -1    0    0    0  501 -0.00000000000E+00 -0.00000000000E+00 -0.56260715061E+03  0.56260715061E+03  0.00000000000E+00 0.  1.
         23    2    1    2    0    0  0.58741447477E+02 -0.38884887138E+02 -0.30116290771E+03  0.33363230313E+03  0.12509526214E+03 0.  0.
         23    2    1    2    0    0 -0.58741447477E+02  0.38884887138E+02 -0.23217395206E+03  0.25824513831E+03  0.88448942032E+02 0.  0.
          5    1    3    3  502    0  0.21635206433E+02 -0.82048501969E+02 -0.20339202422E+03  0.22042192892E+03  0.41800000000E+01 0.  1.
         -5    1    3    3    0  502  0.37106241044E+02  0.43163614831E+02 -0.97770883496E+02  0.11321037421E+03  0.41800000000E+01 0.  1.
        -11    1    4    4    0    0 -0.49294417904E+02  0.35527885831E+02 -0.23868015718E+03  0.24629329617E+03  0.00000000000E+00 0.  1.
         11    1    4    4    0    0 -0.94470295730E+01  0.33570013073E+01  0.65062051171E+01  0.11951842141E+02  0.00000000000E+00 0. -1.
</event>
<event>
 8    1  0.4798744E-006  0.8901129E+02  0.7561462E-02  0.1305264E+00
          4   -1    0    0  501    0  0.00000000000E+00  0.00000000000E+00  0.31782203282E+02  0.31782203282E+02  0.00000000000E+00 0. -1.
         -4   -1    0    0    0  501 -0.00000000000E+00 -0.00000000000E+00 -0.52024245340E+03  0.52024245340E+03  0.00000000000E+00 0.  1.
         23    2    1    2    0    0  0.37157876823E+02 -0.50939264682E+02 -0.30753413877E+03  0.33793870653E+03  0.12509918611E+03 0.  0.
         23    2    1    2    0    0 -0.37157876823E+02  0.50939264682E+02 -0.18092611134E+03  0.21408595015E+03  0.95514500411E+02 0.  0.
          5    1    3    3  502    0 -0.44179865425E+01 -0.59745892430E+01 -0.26041916763E+03  0.26055868742E+03  0.41800000000E+01 0.  1.
         -5    1    3    3    0  502  0.41575863366E+02 -0.44964675439E+02 -0.47114971146E+02  0.77380019113E+02  0.41800000000E+01 0.  1.
        -11    1    4    4    0    0 -0.46816212528E+02 -0.87684736069E+01 -0.45969299783E+02  0.66195320132E+02  0.00000000000E+00 0.  1.
         11    1    4    4    0    0  0.96583357041E+01  0.59707738289E+02 -0.13495681156E+03  0.14789063002E+03  0.00000000000E+00 0. -1.
</event>
<event>
 8    1  0.4798744E-006  0.1505527E+03  0.7561462E-02  0.1199796E+00
         -2   -1    0    0    0  501 -0.00000000000E+00  0.00000000000E+00  0.44144767042E+02  0.44144767042E+02  0.00000000000E+00 0. -1.
          2   -1    0    0  501    0  0.00000000000E+00 -0.00000000000E+00 -0.56712489829E+03  0.56712489829E+03  0.00000000000E+00 0.  1.
         23    2    1    2    0    0  0.96619632345E+02 -0.58296832370E+02 -0.24095934809E+03  0.29401159862E+03  0.12509012221E+03 0.  0.
         23    2    1    2    0    0 -0.96619632345E+02  0.58296832370E+02 -0.28202078316E+03  0.31725806671E+03  0.91559187085E+02 0.  0.
          5    1    3    3  502    0  0.88063940311E+02  0.18335568462E+02 -0.11214941258E+03  0.14382772263E+03  0.41800000000E+01 0.  1.
         -5    1    3    3    0  502  0.85556920344E+01 -0.76632400832E+02 -0.12880993551E+03  0.15018387599E+03  0.41800000000E+01 0.  1.
        -11    1    4    4    0    0 -0.16758836851E+02  0.50950713535E+02 -0.17803393888E+03  0.18593793915E+03  0.00000000000E+00 0.  1.
         11    1    4    4    0    0 -0.79860795495E+02  0.73461188354E+01 -0.10398684428E+03  0.13132012756E+03  0.00000000000E+00 0. -1.
</event>
<event>
 8    1  0.4798744E-006  0.1423367E+03  0.7561462E-02  0.1210219E+00
         -1   -1    0    0    0  501 -0.00000000000E+00  0.00000000000E+00  0.24431834513E+02  0.24431834513E+02  0.00000000000E+00 0.  1.
          1   -1    0    0  501    0  0.00000000000E+00 -0.00000000000E+00 -0.91679674959E+03  0.91679674959E+03  0.00000000000E+00 0. -1.
         23    2    1    2    0    0 -0.96583643526E+02  0.13919897695E+02 -0.38002601472E+03  0.41180990473E+03  0.12508182129E+03 0.  0.
         23    2    1    2    0    0  0.96583643526E+02 -0.13919897695E+02 -0.51233890035E+03  0.52941867937E+03  0.90944078999E+02 0.  0.
          5    1    3    3  502    0 -0.50547198383E+02  0.65237885400E+02 -0.14553433128E+03  0.16735804414E+03  0.41800000000E+01 0.  1.
         -5    1    3    3    0  502 -0.46036445143E+02 -0.51317987705E+02 -0.23449168344E+03  0.24445186059E+03  0.41800000000E+01 0.  1.
        -11    1    4    4    0    0  0.71715650143E+02 -0.51228945160E+02 -0.35889629927E+03  0.36955932261E+03  0.00000000000E+00 0. -1.
         11    1    4    4    0    0  0.24867993383E+02  0.37309047465E+02 -0.15344260108E+03  0.15985935676E+03  0.00000000000E+00 0.  1.
</event>
<event>
 8    1  0.4798744E-006  0.8137714E+02  0.7561462E-02  0.1325188E+00
          1   -1    0    0  501    0  0.00000000000E+00  0.00000000000E+00  0.40470351636E+02  0.40470351636E+02  0.00000000000E+00 0. -1.
         -1   -1    0    0    0  501 -0.00000000000E+00 -0.00000000000E+00 -0.37663952446E+03  0.37663952446E+03  0.00000000000E+00 0.  1.
         23    2    1    2    0    0 -0.53868347762E+02  0.17309672061E+02 -0.20270355521E+03  0.24481871759E+03  0.12508416987E+03 0.  0.
         23    2    1    2    0    0  0.53868347762E+02 -0.17309672061E+02 -0.13346561762E+03  0.17229115851E+03  0.93111484663E+02 0.  0.
          5    1    3    3  502    0 -0.24374888179E+02  0.35380462829E+02 -0.43015061524E+01  0.43380729350E+02  0.41800000000E+01 0. -1.
         -5    1    3    3    0  502 -0.29493459583E+02 -0.18070790768E+02 -0.19840204905E+03  0.20143798824E+03  0.41800000000E+01 0. -1.
        -11    1    4    4    0    0  0.22501850185E+01  0.20587595566E+02 -0.95770018484E+02  0.97983717342E+02  0.00000000000E+00 0.  1.
         11    1    4    4    0    0  0.51618162744E+02 -0.37897267627E+02 -0.37695599139E+02  0.74307441169E+02  0.00000000000E+00 0. -1.
</event>
<event>
 8    1  0.4798744E-006  0.1212176E+03  0.7561462E-02  0.1241102E+00
         -1   -1    0    0    0  501 -0.00000000000E+00  0.00000000000E+00  0.67793327709E+02  0.67793327709E+02  0.00000000000E+00 0.  1.
          1   -1    0    0  501    0  0.00000000000E+00 -0.00000000000E+00 -0.25802730911E+03  0.25802730911E+03  0.00000000000E+00 0. -1.
         23    2    1    2    0    0 -0.46191745288E+02  0.48460353662E+02 -0.59966077493E+02  0.15403089343E+03  0.12508997750E+03 0.  0.
         23    2    1    2    0    0  0.46191745288E+02 -0.48460353662E+02 -0.13026790390E+03  0.17178974338E+03  0.89776978863E+02 0.  0.
          5    1    3    3  502    0 -0.75320682900E+02  0.62837015987E+02 -0.69066127651E+02  0.12003873641E+03  0.41800000000E+01 0. -1.
         -5    1    3    3    0  502  0.29128937613E+02 -0.14376662325E+02  0.91000501581E+01  0.33992157021E+02  0.41800000000E+01 0. -1.
        -11    1    4    4    0    0  0.12479511630E+02  0.26511489119E+02 -0.41549122844E+02  0.50842176143E+02  0.00000000000E+00 0. -1.
         11    1    4    4    0    0  0.33712233658E+02 -0.74971842781E+02 -0.88718781061E+02  0.12094756724E+03  0.00000000000E+00 0.  1.
</event>
<event>
 8    1  0.4798744E-006  0.1652107E+03  0.7561462E-02  0.1182936E+00
          1   -1    0    0  501    0  0.00000000000E+00  0.00000000000E+00  0.91022427973E+03  0.91022427973E+03  0.00000000000E+00 0. -1.
         -1   -1    0    0    0  501 -0.00000000000E+00 -0.00000000000E+00 -0.33901207397E+02  0.33901207397E+02  0.00000000000E+00 0.  1.
         23    2    1    2    0    0  0.91299535236E+02 -0.10208793877E+03  0.43281724687E+03  0.47088820298E+03  0.12508948057E+03 0.  0.
         23    2    1    2    0    0 -0.91299535236E+02  0.10208793877E+03  0.44350582546E+03  0.47323728414E+03  0.92187621212E+02 0.  0.
          5    1    3    3  502    0 -0.77623229928E+01 -0.66090773978E+02  0.26008047849E+03  0.26849128804E+03  0.41800000000E+01 0.  1.
         -5    1    3    3    0  502  0.99061858229E+02 -0.35997164787E+02  0.17273676838E+03  0.20239691494E+03  0.41800000000E+01 0.  1.
        -11    1    4    4    0    0 -0.89937503210E+02  0.11459967831E+03  0.43298117426E+03  0.45683097314E+03  0.00000000000E+00 0. -1.
         11    1    4    4    0    0 -0.13620320268E+01 -0.12511739547E+02  0.10524651197E+02  0.16406310998E+02  0.00000000000E+00 0.  1.
</event>
<event>
 8    1  0.4798744E-006  0.8720079E+02  0.7561462E-02  0.1309776E+00
          2   -1    0    0  501    0  0.00000000000E+00  0.00000000000E+00  0.18341805988E+03  0.18341805988E+03  0.00000000000E+00 0. -1.
         -2   -1    0    0    0  501 -0.00000000000E+00 -0.00000000000E+00 -0.79061444643E+02  0.79061444643E+02  0.00000000000E+00 0.  1.
         23    2    1    2    0    0 -0.24795727344E+02  0.31963530399E+02  0.22508435855E+02  0.13338228793E+03  0.12509080573E+03 0.  0.
         23    2    1    2    0    0  0.24795727344E+02 -0.31963530399E+02  0.81848179380E+02  0.12909721659E+03  0.91271416633E+02 0.  0.
          5    1    3    3  502    0 -0.53330379342E+02 -0.13696150047E+02 -0.25776673070E+02  0.60939504112E+02  0.41800000000E+01 0.  1.
         -5    1    3    3    0  502  0.28534651999E+02  0.45659680446E+02  0.48285108926E+02  0.72442783816E+02  0.41800000000E+01 0.  1.
        -11    1    4    4    0    0 -0.11297192273E+02 -0.26325106031E+02 -0.99276163412E+01  0.30318234233E+02  0.00000000000E+00 0.  1.
         11    1    4    4    0    0  0.36092919617E+02 -0.56384243676E+01  0.91775795721E+02  0.98778982360E+02  0.00000000000E+00 0. -1.
</event>
<event>
 8    1  0.4798744E-006  0.1132989E+03  0.7561462E-02  0.1254580E+00
          1   -1    0    0  501    0  0.00000000000E+00  0.00000000000E+00  0.24571644267E+03  0.24571644267E+03  0.00000000000E+00 0. -1.
         -1   -1    0    0    0  501 -0.00000000000E+00 -0.00000000000E+00 -0.69473973054E+02  0.69473973054E+02  0.00000000000E+00 0.  1.
         23    2    1    2    0    0  0.44665999338E+02 -0.34707521867E+02  0.44651581783E+02  0.14436349408E+03  0.12508953232E+03 0.  0.
         23    2    1    2    0    0 -0.44665999338E+02  0.34707521867E+02  0.13159088784E+03  0.17082692165E+03  0.93091416509E+02 0.  0.
          5    1    3    3  502    0  0.88289048538E+02 -0.27723688573E+02  0.34431956583E+02  0.98826064548E+02  0.41800000000E+01 0.  1.
         -5    1    3    3    0  502 -0.43623049201E+02 -0.69838332936E+01  0.10219625200E+02  0.45537429531E+02  0.41800000000E+01 0.  1.
        -11    1    4    4    0    0  0.10270728610E+02  0.33068637241E+02  0.79604401050E+01  0.35530145536E+02  0.00000000000E+00 0.  1.
         11    1    4    4    0    0 -0.54936727947E+02  0.16388846259E+01  0.12363044773E+03  0.13529677611E+03  0.00000000000E+00 0. -1.
</event>
<event>
 8    1  0.4798744E-006  0.1162522E+03  0.7561462E-02  0.1249411E+00
         -1   -1    0    0    0  501 -0.00000000000E+00  0.00000000000E+00  0.52921367397E+02  0.52921367397E+02  0.00000000000E+00 0.  1.
          1   -1    0    0  501    0  0.00000000000E+00 -0.00000000000E+00 -0.40572637536E+03  0.40572637536E+03  0.00000000000E+00 0. -1.
         23    2    1    2    0    0  0.93955254619E+02 -0.25391597721E+02 -0.17040491766E+03  0.23272637489E+03  0.12510558142E+03 0.  0.
         23    2    1    2    0    0 -0.93955254619E+02  0.25391597721E+02 -0.18240009031E+03  0.22592136787E+03  0.91095271066E+02 0.  0.
          5    1    3    3  502    0  0.45668514327E+02 -0.86592727044E+00 -0.17237319278E+03  0.17837139070E+03  0.41800000000E+01 0.  1.
         -5    1    3    3    0  502  0.48286740292E+02 -0.24525670451E+02  0.19682751236E+01  0.54354984188E+02  0.41800000000E+01 0.  1.
        -11    1    4    4    0    0 -0.83139171221E+02 -0.20119352284E+02 -0.13066280705E+03  0.15617195419E+03  0.00000000000E+00 0.  1.
         11    1    4    4    0    0 -0.10816083398E+02  0.45510950006E+02 -0.51737283255E+02  0.69749413683E+02  0.00000000000E+00 0. -1.
</event>
<event>
 8    1  0.4798744E-006  0.1126081E+03  0.7561462E-02  0.1255815E+00
          2   -1    0    0  501    0  0.00000000000E+00  0.00000000000E+00  0.34793717126E+03  0.34793717126E+03  0.00000000000E+00 0. -1.
         -2   -1    0    0    0  501 -0.00000000000E+00 -0.00000000000E+00 -0.41167509236E+02  0.41167509236E+02  0.00000000000E+00 0.  1.
         23    2    1    2    0    0  0.36406696079E+02  0.64199870530E+01  0.10980000844E+03  0.17049534547E+03  0.12508380079E+03 0.  0.
         23    2    1    2    0    0 -0.36406696079E+02 -0.64199870530E+01  0.19696965358E+03  0.21860933502E+03  0.87328879391E+02 0.  0.
          5    1    3    3  502    0  0.73114060175E+02  0.37358889354E+02  0.71040170503E+02  0.10865325874E+03  0.41800000000E+01 0.  1.
         -5    1    3    3    0  502 -0.36707364096E+02 -0.30938902301E+02  0.38759837941E+02  0.61842086734E+02  0.41800000000E+01 0.  1.
        -11    1    4    4    0    0  0.26451230112E+02 -0.16469546249E+02  0.62871975781E+02  0.70169785996E+02  0.00000000000E+00 0.  1.
         11    1    4    4    0    0 -0.62857926191E+02  0.10049559196E+02  0.13409767779E+03  0.14843954902E+03  0.00000000000E+00 0. -1.
</event>
<event>
 8    1  0.4798744E-006  0.1261169E+03  0.7561462E-02  0.1233334E+00
          1   -1    0    0  501    0  0.00000000000E+00  0.00000000000E+00  0.19922629423E+03  0.19922629423E+03  0.00000000000E+00 0. -1.
         -1   -1    0    0    0  501 -0.00000000000E+00 -0.00000000000E+00 -0.10204955136E+03  0.10204955136E+03  0.00000000000E+00 0.  1.
         23    2    1    2    0    0 -0.58067296033E+02  0.61704253902E+02  0.89387935749E+02  0.17554746727E+03  0.12508990523E+03 0.  0.
         23    2    1    2    0    0  0.58067296033E+02 -0.61704253902E+02  0.77888071255E+01  0.12572837831E+03  0.92562053666E+02 0.  0.
          5    1    3    3  502    0 -0.81026600943E+02  0.18168385976E+02  0.94521178945E+02  0.12588536841E+03  0.41800000000E+01 0.  1.
         -5    1    3    3    0  502  0.22959304910E+02  0.43535867926E+02 -0.51332431962E+01  0.49662098865E+02  0.41800000000E+01 0.  1.
        -11    1    4    4    0    0  0.70837694770E+01  0.21208599255E+02  0.16814572964E+02  0.27977032300E+02  0.00000000000E+00 0. -1.
         11    1    4    4    0    0  0.50983526556E+02 -0.82912853157E+02 -0.90257658381E+01  0.97751346015E+02  0.00000000000E+00 0.  1.
</event>
<event>
 8    1  0.4798744E-006  0.1228736E+03  0.7561462E-02  0.1238430E+00
          2   -1    0    0  501    0  0.00000000000E+00  0.00000000000E+00  0.11594064983E+03  0.11594064983E+03  0.00000000000E+00 0. -1.
         -2   -1    0    0    0  501 -0.00000000000E+00 -0.00000000000E+00 -0.32843760180E+03  0.32843760180E+03  0.00000000000E+00 0.  1.
         23    2    1    2    0    0  0.88871781885E+02  0.17643442996E+00 -0.26696154643E+03  0.30792549634E+03  0.12510563248E+03 0.  0.
         23    2    1    2    0    0 -0.88871781885E+02 -0.17643442996E+00  0.54464594467E+02  0.13645275529E+03  0.88060988137E+02 0.  0.
          5    1    3    3  502    0  0.11831109840E+03 -0.98847835948E+01 -0.18189674789E+03  0.21725359432E+03  0.41800000000E+01 0.  1.
         -5    1    3    3    0  502 -0.29439316518E+02  0.10061218025E+02 -0.85064798541E+02  0.90671902021E+02  0.41800000000E+01 0.  1.
        -11    1    4    4    0    0 -0.36915456950E+02 -0.17416431583E+02 -0.18846459492E+02  0.44958559655E+02  0.00000000000E+00 0.  1.
         11    1    4    4    0    0 -0.51956324935E+02  0.17239997153E+02  0.73311053958E+02  0.91494195636E+02  0.00000000000E+00 0. -1.
</event>
<event>
 8    1  0.4798744E-006  0.8529460E+02  0.7561462E-02  0.1314664E+00
         -2   -1    0    0    0  501 -0.00000000000E+00  0.00000000000E+00  0.43580028724E+02  0.43580028724E+02  0.00000000000E+00 0.  1.
          2   -1    0    0  501    0  0.00000000000E+00 -0.00000000000E+00 -0.29243630092E+03  0.29243630092E+03  0.00000000000E+00 0. -1.
         23    2    1    2    0    0 -0.17807349619E+02  0.19342527143E+02 -0.15054013968E+03  0.19748755719E+03  0.12509103299E+03 0.  0.
         23    2    1    2    0    0  0.17807349619E+02 -0.19342527143E+02 -0.98316132521E+02  0.13852877245E+03  0.93983635951E+02 0.  0.
          5    1    3    3  502    0 -0.67645690350E+02  0.22033564820E+02 -0.11770430129E+03  0.13759793728E+03  0.41800000000E+01 0. -1.
         -5    1    3    3    0  502  0.49838340731E+02 -0.26910376779E+01 -0.32835838382E+02  0.59889619909E+02  0.41800000000E+01 0. -1.
        -11    1    4    4    0    0  0.20284782686E+02  0.79833617933E+01 -0.10742796700E+03  0.10961740084E+03  0.00000000000E+00 0. -1.
         11    1    4    4    0    0 -0.24774330668E+01 -0.27325888936E+02  0.91118344785E+01  0.28911371609E+02  0.00000000000E+00 0.  1.
</event>
<event>
 8    1  0.4798744E-006  0.1939476E+03  0.7561462E-02  0.1154948E+00
         -4   -1    0    0    0  501 -0.00000000000E+00  0.00000000000E+00  0.17803614358E+03  0.17803614358E+03  0.00000000000E+00 0.  1.
          4   -1    0    0  501    0  0.00000000000E+00 -0.00000000000E+00 -0.22344288109E+03  0.22344288109E+03  0.00000000000E+00 0. -1.
         23    2    1    2    0    0  0.14507499229E+03 -0.76156278438E+02 -0.27940259740E+02  0.20802759846E+03  0.12509313119E+03 0.  0.
         23    2    1    2    0    0 -0.14507499229E+03  0.76156278438E+02 -0.17466477769E+02  0.19345142622E+03  0.10135010768E+03 0.  0.
          5    1    3    3  502    0  0.14220679944E+03 -0.17072205417E+02 -0.20046026362E+01  0.14330291287E+03  0.41800000000E+01 0.  1.
         -5    1    3    3    0  502  0.28681928511E+01 -0.59084073021E+02 -0.25935657104E+02  0.64724685588E+02  0.41800000000E+01 0.  1.
        -11    1    4    4    0    0 -0.72321701780E+01  0.42902585702E+02  0.18320701212E+02  0.47207883222E+02  0.00000000000E+00 0.  1.
         11    1    4    4    0    0 -0.13784282211E+03  0.33253692736E+02 -0.35787178981E+02  0.14624354300E+03  0.00000000000E+00 0. -1.
</event>
<event>
 8    1  0.4798744E-006  0.1451837E+03  0.7561462E-02  0.1206519E+00
          2   -1    0    0  501    0  0.00000000000E+00  0.00000000000E+00  0.11667301528E+03  0.11667301528E+03  0.00000000000E+00 0. -1.
         -2   -1    0    0    0  501 -0.00000000000E+00 -0.00000000000E+00 -0.24154259133E+03  0.24154259133E+03  0.00000000000E+00 0.  1.
         23    2    1    2    0    0  0.11134245914E+03  0.13662749915E+01 -0.13357207700E+03  0.21421130717E+03  0.12508386967E+03 0.  0.
         23    2    1    2    0    0 -0.11134245914E+03 -0.13662749915E+01  0.87025009497E+01  0.14400429945E+03  0.90898266338E+02 0.  0.
          5    1    3    3  502    0  0.56403971038E+02  0.48202261655E+02 -0.11922433576E+03  0.14048765289E+03  0.41800000000E+01 0.  1.
         -5    1    3    3    0  502  0.54938488098E+02 -0.46835986663E+02 -0.14347741240E+02  0.73723654276E+02  0.41800000000E+01 0.  1.
        -11    1    4    4    0    0  0.14410148668E+02  0.99022593719E+01  0.99223161618E+00  0.17512613994E+02  0.00000000000E+00 0.  1.
         11    1    4    4    0    0 -0.12575260780E+03 -0.11268534363E+02  0.77102693335E+01  0.12649168546E+03  0.00000000000E+00 0. -1.
</event>
<event>
 8    1  0.4798744E-006  0.1055648E+03  0.7561462E-02  0.1269011E+00
         -2   -1    0    0    0  501 -0.00000000000E+00  0.00000000000E+00  0.65749830479E+03  0.65749830479E+03  0.00000000000E+00 0.  1.
          2   -1    0    0  501    0  0.00000000000E+00 -0.00000000000E+00 -0.28985536110E+02  0.28985536110E+02  0.00000000000E+00 0. -1.
         23    2    1    2    0    0 -0.25250712322E+02  0.52865697224E+02  0.37865768754E+03  0.40306501222E+03  0.12508948529E+03 0.  0.
         23    2    1    2    0    0  0.25250712322E+02 -0.52865697224E+02  0.24985508114E+03  0.28341882867E+03  0.12027589309E+03 0.  0.
          5    1    3    3  502    0  0.11942947367E+02  0.34132167134E+02  0.19155210445E+02  0.41134332525E+02  0.41800000000E+01 0. -1.
         -5    1    3    3    0  502 -0.37193659689E+02  0.18733530090E+02  0.35950247709E+03  0.36193067970E+03  0.41800000000E+01 0. -1.
        -11    1    4    4    0    0 -0.20384662688E+02 -0.78106433345E+02  0.16756887799E+03  0.18599859750E+03  0.00000000000E+00 0. -1.
         11    1    4    4    0    0  0.45635375010E+02  0.25240736121E+02  0.82286203147E+02  0.97420231167E+02  0.00000000000E+00 0.  1.
</event>
<event>
 8    1  0.4798744E-006  0.1142900E+03  0.7561462E-02  0.1252826E+00
         -2   -1    0    0    0  501 -0.00000000000E+00  0.00000000000E+00  0.37034173826E+03  0.37034173826E+03  0.00000000000E+00 0. -1.
          2   -1    0    0  501    0  0.00000000000E+00 -0.00000000000E+00 -0.56780256936E+02  0.56780256936E+02  0.00000000000E+00 0.  1.
         23    2    1    2    0    0 -0.85927957702E+02 -0.26333258345E+02  0.22445681805E+03  0.27222280897E+03  0.12508932865E+03 0.  0.
         23    2    1    2    0    0  0.85927957702E+02  0.26333258345E+02  0.89104663275E+02  0.15489918623E+03  0.89314402350E+02 0.  0.
          5    1    3    3  502    0  0.23217748798E+02 -0.16389999426E+02  0.11004504464E+03  0.11373249399E+03  0.41800000000E+01 0. -1.
         -5    1    3    3    0  502 -0.10914570650E+03 -0.99432589192E+01  0.11441177341E+03  0.15849031497E+03  0.41800000000E+01 0. -1.
        -11    1    4    4    0    0  0.46766297901E+02  0.18178304637E+02 -0.71325730590E+01  0.50679492670E+02  0.00000000000E+00 0.  1.
         11    1    4    4    0    0  0.39161659801E+02  0.81549537088E+01  0.96237236334E+02  0.10421969356E+03  0.00000000000E+00 0. -1.
</event>
<event>
 8    1  0.4798744E-006  0.1477394E+03  0.7561462E-02  0.1203279E+00
          2   -1    0    0  501    0  0.00000000000E+00  0.00000000000E+00  0.60892349121E+03  0.60892349121E+03  0.00000000000E+00 0. -1.
         -2   -1    0    0    0  501 -0.00000000000E+00 -0.00000000000E+00 -0.43586817823E+02  0.43586817823E+02  0.00000000000E+00 0.  1.
         23    2    1    2    0    0  0.10362886836E+03 -0.30827189204E+02  0.41781351292E+03  0.44933965233E+03  0.12509489850E+03 0.  0.
         23    2    1    2    0    0 -0.10362886836E+03  0.30827189204E+02  0.14752316047E+03  0.20317065670E+03  0.88464540450E+02 0.  0.
          5    1    3    3  502    0  0.86100333577E+02 -0.77114601930E+02  0.29453702668E+03  0.31643239682E+03  0.41800000000E+01 0.  1.
         -5    1    3    3    0  502  0.17528534782E+02  0.46287412726E+02  0.12327648624E+03  0.13290725551E+03  0.41800000000E+01 0.  1.
        -11    1    4    4    0    0 -0.39560069805E+02  0.49543619643E+02  0.35210628229E+02  0.72521429320E+02  0.00000000000E+00 0.  1.
         11    1    4    4    0    0 -0.64068798554E+02 -0.18716430439E+02  0.11231253224E+03  0.13064922738E+03  0.00000000000E+00 0. -1.
</event>
<event>
 7    1  0.4798744E-006  0.1528267E+03  0.7561462E-02  0.1197042E+00
          2   -1    0    0  501    0  0.00000000000E+00  0.00000000000E+00  0.99761834232E+02  0.99761834232E+02  0.00000000000E+00 0. -1.
         -2   -1    0    0    0  501 -0.00000000000E+00 -0.00000000000E+00 -0.26684411624E+03  0.26684411624E+03  0.00000000000E+00 0.  1.
         23    2    1    2    0    0  0.70767672774E+02 -0.11337471310E+02 -0.20825342818E+02  0.11826596347E+03  0.91741710511E+02 0.  0.
          5    1    1    2  502    0  0.28324201423E+02  0.69364754347E+02 -0.20080747522E+02  0.77681647465E+02  0.41800000000E+01 0. -1.
         -5    1    1    2    0  502 -0.99091874197E+02 -0.58027283037E+02 -0.12617619167E+03  0.17065833954E+03  0.41800000000E+01 0.  1.
        -11    1    3    3    0    0 -0.12213864054E+02  0.22886861184E+02  0.72889622429E+00  0.25952228800E+02  0.00000000000E+00 0.  1.
         11    1    3    3    0    0  0.82981536828E+02 -0.34224332493E+02 -0.21554239042E+02  0.92313734675E+02  0.00000000000E+00 0. -1.
</event>
<event>
 8    1  0.4798744E-006  0.1081214E+03  0.7561462E-02  0.1264089E+00
         -1   -1    0    0    0  501 -0.00000000000E+00  0.00000000000E+00  0.99403084972E+02  0.99403084972E+02  0.00000000000E+00 0.  1.
          1   -1    0    0  501    0  0.00000000000E+00 -0.00000000000E+00 -0.17811618358E+03  0.17811618358E+03  0.00000000000E+00 0. -1.
         23    2    1    2    0    0 -0.74496239423E+02  0.15773846438E+02 -0.35672025611E+02  0.15071173343E+03  0.12507209626E+03 0.  0.
         23    2    1    2    0    0  0.74496239423E+02 -0.15773846438E+02 -0.43041073002E+02  0.12680753513E+03  0.91810201395E+02 0.  0.
          5    1    3    3  502    0 -0.53069112475E+02  0.63787270085E+02  0.62791897087E+01  0.83318948308E+02  0.41800000000E+01 0.  1.
         -5    1    3    3    0  502 -0.21427126949E+02 -0.48013423648E+02 -0.41951215320E+02  0.67392785121E+02  0.41800000000E+01 0.  1.
        -11    1    4    4    0    0  0.63894605593E+02 -0.32058981745E+01  0.15646202284E+02  0.65860474132E+02  0.00000000000E+00 0.  1.
         11    1    4    4    0    0  0.10601633831E+02 -0.12567948263E+02 -0.58687275286E+02  0.60947060995E+02  0.00000000000E+00 0. -1.
</event>
<event>
 8    1  0.4798744E-006  0.8431884E+02  0.7561462E-02  0.1317224E+00
          2   -1    0    0  501    0  0.00000000000E+00  0.00000000000E+00  0.15172621874E+03  0.15172621874E+03  0.00000000000E+00 0. -1.
         -2   -1    0    0    0  501 -0.00000000000E+00 -0.00000000000E+00 -0.12192563504E+03  0.12192563504E+03  0.00000000000E+00 0.  1.
         23    2    1    2    0    0 -0.32963447140E+02 -0.52298883117E+02 -0.36439744142E+02  0.14421277442E+03  0.12509079634E+03 0.  0.
         23    2    1    2    0    0  0.32963447140E+02  0.52298883117E+02  0.66240327837E+02  0.12943907936E+03  0.92438802522E+02 0.  0.
          5    1    3    3  502    0 -0.17562983145E+02 -0.64537258807E+02 -0.75088940743E+02  0.10064461025E+03  0.41800000000E+01 0. -1.
         -5    1    3    3    0  502 -0.15400463995E+02  0.12238375690E+02  0.38649196601E+02  0.43568164165E+02  0.41800000000E+01 0. -1.
        -11    1    4    4    0    0  0.27707281292E+02 -0.12219549511E+01 -0.15365851889E+02  0.31706403371E+02  0.00000000000E+00 0.  1.
         11    1    4    4    0    0  0.52561658482E+01  0.53520838069E+02  0.81606179726E+02  0.97732675991E+02  0.00000000000E+00 0. -1.
</event>
<event>
 8    1  0.4798744E-006  0.1187286E+03  0.7561462E-02  0.1245209E+00
         -2   -1    0    0    0  501 -0.00000000000E+00  0.00000000000E+00  0.39823999481E+02  0.39823999481E+02  0.00000000000E+00 0. -1.
          2   -1    0    0  501    0  0.00000000000E+00 -0.00000000000E+00 -0.45940566163E+03  0.45940566163E+03  0.00000000000E+00 0.  1.
         23    2    1    2    0    0  0.12776226192E+02  0.52857429412E+02 -0.11959056597E+03  0.18134779864E+03  0.12501192264E+03 0.  0.
         23    2    1    2    0    0 -0.12776226192E+02 -0.52857429412E+02 -0.29999109618E+03  0.31788186248E+03  0.89983781338E+02 0.  0.
          5    1    3    3  502    0  0.21057747198E+02  0.91419230107E+02 -0.66454579776E+02  0.11504167907E+03  0.41800000000E+01 0.  1.
         -5    1    3    3    0  502 -0.82815210060E+01 -0.38561800695E+02 -0.53135986192E+02  0.66306119564E+02  0.41800000000E+01 0.  1.
        -11    1    4    4    0    0 -0.23264315346E+02  0.19756654956E+02 -0.67280621971E+02  0.73879874637E+02  0.00000000000E+00 0. -1.
         11    1    4    4    0    0  0.10488089155E+02 -0.72614084367E+02 -0.23271047421E+03  0.24400198784E+03  0.00000000000E+00 0.  1.
</event>
<event>
 8    1  0.4798744E-006  0.1006359E+03  0.7561462E-02  0.1278964E+00
         -1   -1    0    0    0  501 -0.00000000000E+00  0.00000000000E+00  0.46748460684E+02  0.46748460684E+02  0.00000000000E+00 0.  1.
          1   -1    0    0  501    0  0.00000000000E+00 -0.00000000000E+00 -0.28147963449E+03  0.28147963449E+03  0.00000000000E+00 0. -1.
         23    2    1    2    0    0  0.18055110031E+02  0.30362710595E+02 -0.11328821019E+03  0.17242584040E+03  0.12509424718E+03 0.  0.
         23    2    1    2    0    0 -0.18055110031E+02 -0.30362710595E+02 -0.12144296361E+03  0.15580225477E+03  0.90983888613E+02 0.  0.
          5    1    3    3  502    0  0.33247731309E+02  0.62778864444E+02 -0.22324875727E+02  0.74581967890E+02  0.41800000000E+01 0. -1.
         -5    1    3    3    0  502 -0.15192621279E+02 -0.32416153849E+02 -0.90963334462E+02  0.97843872512E+02  0.41800000000E+01 0. -1.
        -11    1    4    4    0    0  0.33515709961E+02 -0.25796869044E+02 -0.75714029454E+02  0.86725979515E+02  0.00000000000E+00 0. -1.
         11    1    4    4    0    0 -0.51570819992E+02 -0.45658415505E+01 -0.45728934159E+02  0.69076275254E+02  0.00000000000E+00 0.  1.
</event>
<event>
 8    1  0.4798744E-006  0.1084636E+03  0.7561462E-02  0.1263442E+00
         -2   -1    0    0    0  501 -0.00000000000E+00  0.00000000000E+00  0.71973255395E+02  0.71973255395E+02  0.00000000000E+00 0.  1.
          2   -1    0    0  501    0  0.00000000000E+00 -0.00000000000E+00 -0.26318869883E+03  0.26318869883E+03  0.00000000000E+00 0. -1.
         23    2    1    2    0    0  0.21981310954E+02  0.32330007242E+02 -0.14050931241E+02  0.13179650793E+03  0.12507790945E+03 0.  0.
         23    2    1    2    0    0 -0.21981310954E+02 -0.32330007242E+02 -0.17716451220E+03  0.20336544630E+03  0.91879448013E+02 0.  0.
          5    1    3    3  502    0 -0.42194473463E+02 -0.19167247653E+02 -0.16500376896E+02  0.49370961213E+02  0.41800000000E+01 0.  1.
         -5    1    3    3    0  502  0.64175784416E+02  0.51497254895E+02  0.24494456545E+01  0.82425546715E+02  0.41800000000E+01 0.  1.
        -11    1    4    4    0    0 -0.45067954058E+02  0.36941055612E+01 -0.13850657436E+03  0.14570119437E+03  0.00000000000E+00 0. -1.
         11    1    4    4    0    0  0.23086643104E+02 -0.36024112804E+02 -0.38657937834E+02  0.57664251930E+02  0.00000000000E+00 0.  1.
</event>
<event>
 8    1  0.4798744E-006  0.7646487E+02  0.7561462E-02  0.1339394E+00
         -1   -1    0    0    0  501 -0.00000000000E+00  0.00000000000E+00  0.34133120394E+03  0.34133120394E+03  0.00000000000E+00 0.  1.
          1   -1    0    0  501    0  0.00000000000E+00 -0.00000000000E+00 -0.45036625924E+02  0.45036625924E+02  0.00000000000E+00 0. -1.
         23    2    1    2    0    0 -0.24985225015E+01 -0.52434211526E+02  0.21220393823E+03  0.25186231030E+03  0.12509405578E+03 0.  0.
         23    2    1    2    0    0  0.24985225015E+01  0.52434211526E+02  0.84090639785E+02  0.13450551957E+03  0.90911550106E+02 0.  0.
          5    1    3    3  502    0 -0.12808746186E+02 -0.60413567389E+02  0.22485630703E+03  0.23322026994E+03  0.41800000000E+01 0. -1.
         -5    1    3    3    0  502  0.10310223685E+02  0.79793558624E+01 -0.12652368793E+02  0.18642040351E+02  0.41800000000E+01 0. -1.
        -11    1    4    4    0    0 -0.22519967611E+02  0.46443278654E+02  0.93755301865E+02  0.10702422016E+03  0.00000000000E+00 0.  1.
         11    1    4    4    0    0  0.25018490112E+02  0.59909328723E+01 -0.96646620796E+01  0.27481299410E+02  0.00000000000E+00 0. -1.
</event>
<event>
 8    1  0.4798744E-006  0.1327165E+03  0.7561462E-02  0.1223480E+00
          1   -1    0    0  501    0  0.00000000000E+00  0.00000000000E+00  0.99055337312E+03  0.99055337312E+03  0.00000000000E+00 0. -1.
         -1   -1    0    0    0  501 -0.00000000000E+00 -0.00000000000E+00 -0.20801704993E+02  0.20801704993E+02  0.00000000000E+00 0.  1.
         23    2    1    2    0    0 -0.85941945063E+02 -0.31401361627E+02  0.48025873149E+03  0.50464611164E+03  0.12508871008E+03 0.  0.
         23    2    1    2    0    0  0.85941945063E+02  0.31401361627E+02  0.48949293664E+03  0.50670896648E+03  0.93694067325E+02 0.  0.
          5    1    3    3  502    0  0.29050071588E+02  0.30312003153E+01  0.51202821739E+02  0.59095652875E+02  0.41800000000E+01 0.  1.
         -5    1    3    3    0  502 -0.11499201665E+03 -0.34432561942E+02  0.42905590975E+03  0.44555045876E+03  0.41800000000E+01 0.  1.
        -11    1    4    4    0    0  0.50509387526E+02  0.53883266477E+02  0.41215599530E+03  0.41872087254E+03  0.00000000000E+00 0. -1.
         11    1    4    4    0    0  0.35432557537E+02 -0.22481904850E+02  0.77336941338E+02  0.87988093938E+02  0.00000000000E+00 0.  1.
</event>
<event>
 8    1  0.4798744E-006  0.1376161E+03  0.7561462E-02  0.1216573E+00
         -2   -1    0    0    0  501 -0.00000000000E+00  0.00000000000E+00  0.95268270734E+03  0.95268270734E+03  0.00000000000E+00 0.  1.
          2   -1    0    0  501    0  0.00000000000E+00 -0.00000000000E+00 -0.28904214228E+02  0.28904214228E+02  0.00000000000E+00 0. -1.
         23    2    1    2    0    0  0.11369233277E+03 -0.10878849260E+02  0.66858563332E+03  0.68748483814E+03  0.11218002361E+03 0.  0.
         23    2    1    2    0    0 -0.11369233277E+03  0.10878849260E+02  0.25519285979E+03  0.29410208343E+03  0.91259760549E+02 0.  0.
          5    1    3    3  502    0 -0.21813567027E+02 -0.70906499966E+01  0.13078830910E+03  0.13285015326E+03  0.41800000000E+01 0. -1.
         -5    1    3    3    0  502  0.13550589980E+03 -0.37881992632E+01  0.53779732422E+03  0.55463468488E+03  0.41800000000E+01 0.  1.
        -11    1    4    4    0    0 -0.66284481125E+02 -0.45457617708E+01  0.50577231068E+02  0.83500614911E+02  0.00000000000E+00 0. -1.
         11    1    4    4    0    0 -0.47407851647E+02  0.15424611031E+02  0.20461562872E+03  0.21060146852E+03  0.00000000000E+00 0.  1.
</event>
<event>
 8    1  0.4798744E-006  0.1058730E+03  0.7561462E-02  0.1268409E+00
          1   -1    0    0  501    0  0.00000000000E+00  0.00000000000E+00  0.43538241378E+03  0.43538241378E+03  0.00000000000E+00 0. -1.
         -1   -1    0    0    0  501 -0.00000000000E+00 -0.00000000000E+00 -0.29406866557E+02  0.29406866557E+02  0.00000000000E+00 0.  1.
         23    2    1    2    0    0 -0.22911922041E+02  0.22285553073E+02  0.22683577839E+03  0.26100510930E+03  0.12509034605E+03 0.  0.
         23    2    1    2    0    0  0.22911922041E+02 -0.22285553073E+02  0.17913976883E+03  0.20378417104E+03  0.91735105281E+02 0.  0.
          5    1    3    3  502    0  0.48870436835E+02  0.19611085182E+02  0.64027397750E+02  0.83005387301E+02  0.41800000000E+01 0.  1.
         -5    1    3    3    0  502 -0.71782358876E+02  0.26744678911E+01  0.16280838064E+03  0.17799972200E+03  0.41800000000E+01 0.  1.
        -11    1    4    4    0    0  0.51093964040E+02 -0.27925440548E+02  0.70652288988E+02  0.91554187946E+02  0.00000000000E+00 0.  1.
         11    1    4    4    0    0 -0.28182041999E+02  0.56398874745E+01  0.10848747984E+03  0.11222998309E+03  0.00000000000E+00 0. -1.
</event>
<event>
 8    1  0.4798744E-006  0.1206606E+03  0.7561462E-02  0.1242011E+00
         -2   -1    0    0    0  501 -0.00000000000E+00  0.00000000000E+00  0.15688229253E+03  0.15688229253E+03  0.00000000000E+00 0.  1.
          2   -1    0    0  501    0  0.00000000000E+00 -0.00000000000E+00 -0.13167726880E+03  0.13167726880E+03  0.00000000000E+00 0. -1.
         23    2    1    2    0    0 -0.20997058111E+02  0.69252754292E+02  0.71715884783E+02  0.16132735004E+03  0.12508607162E+03 0.  0.
         23    2    1    2    0    0  0.20997058111E+02 -0.69252754292E+02 -0.46510861049E+02  0.12723221129E+03  0.93744092975E+02 0.  0.
          5    1    3    3  502    0  0.28991986211E+02 -0.21980783134E+02  0.33542856842E+01  0.36775178098E+02  0.41800000000E+01 0.  1.
         -5    1    3    3    0  502 -0.49989044323E+02  0.91233537425E+02  0.68361599099E+02  0.12455217194E+03  0.41800000000E+01 0.  1.
        -11    1    4    4    0    0  0.25472495589E+02  0.51993846462E+01  0.15471446167E+02  0.30253054040E+02  0.00000000000E+00 0.  1.
         11    1    4    4    0    0 -0.44754374779E+01 -0.74452138938E+02 -0.61982307216E+02  0.96979157250E+02  0.00000000000E+00 0. -1.
</event>
<event>
 8    1  0.4798744E-006  0.2228168E+03  0.7561462E-02  0.1131800E+00
         -2   -1    0    0    0  501 -0.00000000000E+00  0.00000000000E+00  0.37541697740E+02  0.37541697740E+02  0.00000000000E+00 0.  1.
          2   -1    0    0  501    0  0.00000000000E+00 -0.00000000000E+00 -0.15044223494E+04  0.15044223494E+04  0.00000000000E+00 0. -1.
         23    2    1    2    0    0 -0.52514772028E+01  0.21204825979E+03 -0.79899405898E+03  0.83608090284E+03  0.12509087621E+03 0.  0.
         23    2    1    2    0    0  0.52514772028E+01 -0.21204825979E+03 -0.66788659272E+03  0.70588314434E+03  0.84890931434E+02 0.  0.
          5    1    3    3  502    0 -0.33494619908E+02  0.54233966251E+02 -0.98047208879E+02  0.11702111018E+03  0.41800000000E+01 0.  1.
         -5    1    3    3    0  502  0.28243142705E+02  0.15781429354E+03 -0.70094685010E+03  0.71905979266E+03  0.41800000000E+01 0.  1.
        -11    1    4    4    0    0  0.24604738219E+02 -0.32369613941E+02 -0.66641897485E+02  0.78066174172E+02  0.00000000000E+00 0.  1.
         11    1    4    4    0    0 -0.19353261016E+02 -0.17967864585E+03 -0.60124469524E+03  0.62781697017E+03  0.00000000000E+00 0. -1.
</event>
<event>
 8    1  0.4798744E-006  0.1881398E+03  0.7561462E-02  0.1160150E+00
          4   -1    0    0  501    0  0.00000000000E+00  0.00000000000E+00  0.27945295570E+03  0.27945295570E+03  0.00000000000E+00 0. -1.
         -4   -1    0    0    0  501 -0.00000000000E+00 -0.00000000000E+00 -0.17089966490E+03  0.17089966490E+03  0.00000000000E+00 0.  1.
         23    2    1    2    0    0  0.31031592829E+02 -0.17054228915E+03 -0.22530891265E+02  0.21494860722E+03  0.12509048942E+03 0.  0.
         23    2    1    2    0    0 -0.31031592829E+02  0.17054228915E+03  0.13108418206E+03  0.23540401339E+03  0.90467422809E+02 0.  0.
          5    1    3    3  502    0  0.66685300405E+02 -0.78930180372E+02 -0.46945596751E+02  0.11357052486E+03  0.41800000000E+01 0.  1.
         -5    1    3    3    0  502 -0.35653707576E+02 -0.91612108775E+02  0.24414705486E+02  0.10137808236E+03  0.41800000000E+01 0.  1.
        -11    1    4    4    0    0  0.22896647678E+01  0.27698343625E+02  0.72168461144E+02  0.77335163982E+02  0.00000000000E+00 0.  1.
         11    1    4    4    0    0 -0.33321257597E+02  0.14284394552E+03  0.58915720921E+02  0.15806884940E+03  0.00000000000E+00 0. -1.
</event>
<event>
 8    1  0.4798744E-006  0.1057687E+03  0.7561462E-02  0.1268612E+00
          1   -1    0    0  501    0  0.00000000000E+00  0.00000000000E+00  0.63130599313E+03  0.63130599313E+03  0.00000000000E+00 0. -1.
         -1   -1    0    0    0  501 -0.00000000000E+00 -0.00000000000E+00 -0.42570273224E+02  0.42570273224E+02  0.00000000000E+00 0.  1.
         23    2    1    2    0    0  0.72379714608E+02  0.62482393009E+01  0.11079767653E+03  0.18221093198E+03  0.12508730962E+03 0.  0.
         23    2    1    2    0    0 -0.72379714608E+02 -0.62482393009E+01  0.47793804337E+03  0.49166533437E+03  0.89622341736E+02 0.  0.
          5    1    3    3  502    0  0.17243310955E+02  0.32840887065E+02  0.11480748919E+03  0.12072318588E+03  0.41800000000E+01 0.  1.
         -5    1    3    3    0  502  0.55136403653E+02 -0.26592647764E+02 -0.40098126549E+01  0.61487746100E+02  0.41800000000E+01 0.  1.
        -11    1    4    4    0    0 -0.76553982640E+02 -0.34732619941E+02  0.30615139107E+03  0.31748313561E+03  0.00000000000E+00 0.  1.
         11    1    4    4    0    0  0.41742680317E+01  0.28484380640E+02  0.17178665231E+03  0.17418219876E+03  0.00000000000E+00 0. -1.
</event>
<event>
 8    1  0.4798744E-006  0.9693245E+02  0.7561462E-02  0.1286882E+00
         -2   -1    0    0    0  501 -0.00000000000E+00  0.00000000000E+00  0.53819795809E+02  0.53819795809E+02  0.00000000000E+00 0.  1.
          2   -1    0    0  501    0  0.00000000000E+00 -0.00000000000E+00 -0.32153483587E+03  0.32153483587E+03  0.00000000000E+00 0. -1.
         23    2    1    2    0    0 -0.53146299859E+02 -0.48314029153E+02 -0.17375863786E+03  0.22582910456E+03  0.12509174886E+03 0.  0.
         23    2    1    2    0    0  0.53146299859E+02  0.48314029153E+02 -0.93956402207E+02  0.14952552713E+03  0.91494825787E+02 0.  0.
          5    1    3    3  502    0 -0.41104596863E+02  0.13721034132E+01 -0.16937518273E+03  0.17434705468E+03  0.41800000000E+01 0.  1.
         -5    1    3    3    0  502 -0.12041702996E+02 -0.49686132566E+02 -0.43834551276E+01  0.51482049874E+02  0.41800000000E+01 0.  1.
        -11    1    4    4    0    0  0.62114262485E+02  0.11285196492E+02 -0.91738136569E+02  0.11136167637E+03  0.00000000000E+00 0. -1.
         11    1    4    4    0    0 -0.89679626267E+01  0.37028832661E+02 -0.22182656386E+01  0.38163850754E+02  0.00000000000E+00 0.  1.
</event>
<event>
 8    1  0.4798744E-006  0.7421572E+02  0.7561462E-02  0.1346317E+00
         -2   -1    0    0    0  501 -0.00000000000E+00  0.00000000000E+00  0.82015280860E+02  0.82015280860E+02  0.00000000000E+00 0. -1.
          2   -1    0    0  501    0  0.00000000000E+00 -0.00000000000E+00 -0.19931258035E+03  0.19931258035E+03  0.00000000000E+00 0.  1.
         23    2    1    2    0    0 -0.51415987117E+02 -0.18116484507E+02 -0.17792962819E+02  0.13760685830E+03  0.12508895708E+03 0.  0.
         23    2    1    2    0    0  0.51415987117E+02  0.18116484507E+02 -0.99504336672E+02  0.14372100291E+03  0.88220195639E+02 0.  0.
          5    1    3    3  502    0 -0.49680036925E+02  0.30145226200E+01 -0.67171872067E+02  0.83706189810E+02  0.41800000000E+01 0.  1.
         -5    1    3    3    0  502 -0.17359501918E+01 -0.21131007127E+02  0.49378909248E+02  0.53900668491E+02  0.41800000000E+01 0.  1.
        -11    1    4    4    0    0  0.42218334037E+02 -0.13201186248E+02 -0.59455143239E+01  0.44631918935E+02  0.00000000000E+00 0. -1.
         11    1    4    4    0    0  0.91976530795E+01  0.31317670755E+02 -0.93558822348E+02  0.99089083975E+02  0.00000000000E+00 0.  1.
</event>
<event>
 8    1  0.4798744E-006  0.1229011E+03  0.7561462E-02  0.1238386E+00
         -2   -1    0    0    0  501 -0.00000000000E+00  0.00000000000E+00  0.67845845880E+02  0.67845845880E+02  0.00000000000E+00 0.  1.
          2   -1    0    0  501    0  0.00000000000E+00 -0.00000000000E+00 -0.34176288280E+03  0.34176288280E+03  0.00000000000E+00 0. -1.
         23    2    1    2    0    0  0.84881045129E+02 -0.29330636120E+02 -0.71250328193E+02  0.16967401054E+03  0.12509029758E+03 0.  0.
         23    2    1    2    0    0 -0.84881045129E+02  0.29330636120E+02 -0.20266670873E+03  0.23993471814E+03  0.91813921089E+02 0.  0.
          5    1    3    3  502    0 -0.21123851456E+02  0.26402071582E+02 -0.18111849078E+02  0.38584944747E+02  0.41800000000E+01 0.  1.
         -5    1    3    3    0  502  0.10600489658E+03 -0.55732707702E+02 -0.53138479115E+02  0.13108906579E+03  0.41800000000E+01 0.  1.
        -11    1    4    4    0    0 -0.28544682857E+02  0.19849315269E+02 -0.61816702350E+01  0.35312990286E+02  0.00000000000E+00 0.  1.
         11    1    4    4    0    0 -0.56336362272E+02  0.94813208517E+01 -0.19648503849E+03  0.20462172786E+03  0.00000000000E+00 0. -1.
</event>
<event>
 8    1  0.4798744E-006  0.2037403E+03  0.7561462E-02  0.1146621E+00
          1   -1    0    0  501    0  0.00000000000E+00  0.00000000000E+00  0.60856971415E+03  0.60856971415E+03  0.00000000000E+00 0. -1.
         -1   -1    0    0    0  501 -0.00000000000E+00 -0.00000000000E+00 -0.11121074390E+03  0.11121074390E+03  0.00000000000E+00 0.  1.
         23    2    1    2    0    0 -0.13633487366E+03  0.13827280997E+03  0.69553562595E+02  0.24123026664E+03  0.12509106971E+03 0.  0.
         23    2    1    2    0    0  0.13633487366E+03 -0.13827280997E+03  0.42780540766E+03  0.47855019141E+03  0.91028847759E+02 0.  0.
          5    1    3    3  502    0 -0.23288329735E+02  0.58272258314E+02 -0.30918938708E+02  0.70081777672E+02  0.41800000000E+01 0. -1.
         -5    1    3    3    0  502 -0.11304654392E+03  0.80000551651E+02  0.10047250130E+03  0.17114848897E+03  0.41800000000E+01 0. -1.
        -11    1    4    4    0    0  0.14175797184E+03 -0.11617534955E+03  0.32368931657E+03  0.37197689187E+03  0.00000000000E+00 0.  1.
         11    1    4    4    0    0 -0.54230981858E+01 -0.22097460412E+02  0.10411609109E+03  0.10657329954E+03  0.00000000000E+00 0. -1.
</event>
<event>
 8    1  0.4798744E-006  0.3043038E+03  0.7561462E-02  0.1083109E+00
          1   -1    0    0  501    0  0.00000000000E+00  0.00000000000E+00  0.98824205685E+03  0.98824205685E+03  0.00000000000E+00 0. -1.
         -1   -1    0    0    0  501 -0.00000000000E+00 -0.00000000000E+00 -0.10175681372E+03  0.10175681372E+03  0.00000000000E+00 0.  1.
         23    2    1    2    0    0  0.20555917122E+03 -0.20103185786E+03  0.31923247081E+03  0.44746503985E+03  0.12508881135E+03 0.  0.
         23    2    1    2    0    0 -0.20555917122E+03  0.20103185786E+03  0.56725277232E+03  0.64253383072E+03  0.91682251058E+02 0.  0.
          5    1    3    3  502    0  0.81271008464E+02 -0.16327688604E+03  0.20515848723E+03  0.27453924239E+03  0.41800000000E+01 0. -1.
         -5    1    3    3    0  502  0.12428816275E+03 -0.37754971824E+02  0.11407398358E+03  0.17292579746E+03  0.41800000000E+01 0. -1.
        -11    1    4    4    0    0 -0.18655308338E+03  0.20459125262E+03  0.48916140680E+03  0.56208408221E+03  0.00000000000E+00 0.  1.
         11    1    4    4    0    0 -0.19006087836E+02 -0.35593947581E+01  0.78091365522E+02  0.80449748508E+02  0.00000000000E+00 0. -1.
</event>
<event>
 8    1  0.4798744E-006  0.1052100E+03  0.7561462E-02  0.1269706E+00
         -2   -1    0    0    0  501 -0.00000000000E+00  0.00000000000E+00  0.30354274508E+02  0.30354274508E+02  0.00000000000E+00 0.  1.
          2   -1    0    0  501    0  0.00000000000E+00 -0.00000000000E+00 -0.51815580008E+03  0.51815580008E+03  0.00000000000E+00 0. -1.
         23    2    1    2    0    0 -0.31837020348E+02  0.55709246029E+02 -0.27780326197E+03  0.31135180485E+03  0.12509267792E+03 0.  0.
         23    2    1    2    0    0  0.31837020348E+02 -0.55709246029E+02 -0.20999826361E+03  0.23715826974E+03  0.89597199886E+02 0.  0.
          5    1    3    3  502    0 -0.50049266533E+02 -0.15313053901E+01 -0.35104013286E+02  0.61294682685E+02  0.41800000000E+01 0. -1.
         -5    1    3    3    0  502  0.18212246185E+02  0.57240551419E+02 -0.24269924868E+03  0.25005712217E+03  0.41800000000E+01 0. -1.
        -11    1    4    4    0    0  0.92787653700E+01  0.19416938209E+02 -0.98557810790E+02  0.10087990406E+03  0.00000000000E+00 0. -1.
         11    1    4    4    0    0  0.22558254978E+02 -0.75126184237E+02 -0.11144045282E+03  0.13627836567E+03  0.00000000000E+00 0.  1.
</event>
<event>
 8    1  0.4798744E-006  0.8835605E+02  0.7561462E-02  0.1306882E+00
         -1   -1    0    0    0  501 -0.00000000000E+00  0.00000000000E+00  0.17339321205E+03  0.17339321205E+03  0.00000000000E+00 0.  1.
          1   -1    0    0  501    0  0.00000000000E+00 -0.00000000000E+00 -0.11334592095E+03  0.11334592095E+03  0.00000000000E+00 0. -1.
         23    2    1    2    0    0 -0.18895192208E+00 -0.83584391815E+02  0.62198298630E+02  0.16279513932E+03  0.12508893946E+03 0.  0.
         23    2    1    2    0    0  0.18895192208E+00  0.83584391815E+02 -0.21510075267E+01  0.12394399368E+03  0.91493718238E+02 0.  0.
          5    1    3    3  502    0  0.13994551736E+02 -0.72998569554E+02 -0.21225639431E+02  0.77412136029E+02  0.41800000000E+01 0. -1.
         -5    1    3    3    0  502 -0.14183503658E+02 -0.10585822260E+02  0.83423938061E+02  0.85383003289E+02  0.41800000000E+01 0. -1.
        -11    1    4    4    0    0  0.41208586164E+01  0.62356362630E+02 -0.44290553403E+02  0.76596021809E+02  0.00000000000E+00 0. -1.
         11    1    4    4    0    0 -0.39319066943E+01  0.21228029185E+02  0.42139545876E+02  0.47347971867E+02  0.00000000000E+00 0.  1.
</event>
<event>
 8    1  0.4798744E-006  0.1378754E+03  0.7561462E-02  0.1216217E+00
          2   -1    0    0  501    0  0.00000000000E+00  0.00000000000E+00  0.50460189592E+03  0.50460189592E+03  0.00000000000E+00 0. -1.
         -2   -1    0    0    0  501 -0.00000000000E+00 -0.00000000000E+00 -0.48254003903E+02  0.48254003903E+02  0.00000000000E+00 0.  1.
         23    2    1    2    0    0 -0.85079396901E+02 -0.71602226116E+02  0.23272457622E+03  0.28666042998E+03  0.12509233060E+03 0.  0.
         23    2    1    2    0    0  0.85079396901E+02  0.71602226116E+02  0.22362331579E+03  0.26619546984E+03  0.92126316748E+02 0.  0.
          5    1    3    3  502    0 -0.11539459448E+03 -0.48835196468E+02  0.20172131432E+03  0.23750736810E+03  0.41800000000E+01 0.  1.
         -5    1    3    3    0  502  0.30315197582E+02 -0.22767029648E+02  0.31003261902E+02  0.49153061878E+02  0.41800000000E+01 0.  1.
        -11    1    4    4    0    0  0.57575364670E+02  0.38798982982E+02  0.45520883527E+02  0.83020687388E+02  0.00000000000E+00 0.  1.
         11    1    4    4    0    0  0.27504032231E+02  0.32803243134E+02  0.17810243226E+03  0.18317478245E+03  0.00000000000E+00 0. -1.
</event>
<event>
 8    1  0.4798744E-006  0.1117425E+03  0.7561462E-02  0.1257377E+00
          1   -1    0    0  501    0  0.00000000000E+00  0.00000000000E+00  0.17234628700E+03  0.17234628700E+03  0.00000000000E+00 0. -1.
         -1   -1    0    0    0  501 -0.00000000000E+00 -0.00000000000E+00 -0.74585602515E+02  0.74585602515E+02  0.00000000000E+00 0.  1.
         23    2    1    2    0    0  0.15494903912E+02  0.30933677308E+02  0.50547901549E+02  0.13928383367E+03  0.12509161256E+03 0.  0.
         23    2    1    2    0    0 -0.15494903912E+02 -0.30933677308E+02  0.47212782937E+02  0.10764805584E+03  0.90344189713E+02 0.  0.
          5    1    3    3  502    0  0.19686586379E+02  0.78484647901E+02  0.39354519740E+02  0.90075813975E+02  0.41800000000E+01 0. -1.
         -5    1    3    3    0  502 -0.41916824676E+01 -0.47550970593E+02  0.11193381810E+02  0.49208019698E+02  0.41800000000E+01 0. -1.
        -11    1    4    4    0    0 -0.51693819448E+02 -0.26449578740E+02  0.17632029740E+02  0.60685415525E+02  0.00000000000E+00 0.  1.
         11    1    4    4    0    0  0.36198915536E+02 -0.44840985677E+01  0.29580753197E+02  0.46962640318E+02  0.00000000000E+00 0. -1.
</event>
<event>
 8    1  0.4798744E-006  0.9631138E+02  0.7561462E-02  0.1288250E+00
          3   -1    0    0  501    0  0.00000000000E+00  0.00000000000E+00  0.16102482201E+02  0.16102482201E+02  0.00000000000E+00 0. -1.
         -3   -1    0    0    0  501 -0.00000000000E+00 -0.00000000000E+00 -0.95022054833E+03  0.95022054833E+03  0.00000000000E+00 0.  1.
         23    2    1    2    0    0 -0.56527558043E+02 -0.93066094460E+00 -0.64473473958E+03  0.65729179075E+03  0.11468819825E+03 0.  0.
         23    2    1    2    0    0  0.56527558043E+02  0.93066094460E+00 -0.28938332654E+03  0.30903123977E+03  0.92527652773E+02 0.  0.
          5    1    3    3  502    0 -0.72564177485E+01  0.32843817752E+02 -0.55566583165E+02  0.65088320978E+02  0.41800000000E+01 0. -1.
         -5    1    3    3    0  502 -0.49271140294E+02 -0.33774478696E+02 -0.58916815642E+03  0.59220346978E+03  0.41800000000E+01 0.  1.
        -11    1    4    4    0    0 -0.17058204684E+02  0.16387809566E+02 -0.13788763483E+03  0.13990190309E+03  0.00000000000E+00 0.  1.
         11    1    4    4    0    0  0.73585762727E+02 -0.15457148622E+02 -0.15149569171E+03  0.16912933668E+03  0.00000000000E+00 0. -1.
</event>
<event>
 8    1  0.4798744E-006  0.9454089E+02  0.7561462E-02  0.1292213E+00
          2   -1    0    0  501    0  0.00000000000E+00  0.00000000000E+00  0.49455860955E+03  0.49455860955E+03  0.00000000000E+00 0.  1.
         -2   -1    0    0    0  501 -0.00000000000E+00 -0.00000000000E+00 -0.34264069175E+02  0.34264069175E+02  0.00000000000E+00 0. -1.
         23    2    1    2    0    0 -0.19469707457E+02  0.69685688996E+02  0.24526739264E+03  0.28467160766E+03  0.12508663220E+03 0.  0.
         23    2    1    2    0    0  0.19469707457E+02 -0.69685688996E+02  0.21502714774E+03  0.24415107107E+03  0.90210345754E+02 0.  0.
          5    1    3    3  502    0  0.11667866979E+02  0.46173478991E+02  0.24042607777E+03  0.24513323021E+03  0.41800000000E+01 0.  1.
         -5    1    3    3    0  502 -0.31137574437E+02  0.23512210005E+02  0.48413148648E+01  0.39538377442E+02  0.41800000000E+01 0.  1.
        -11    1    4    4    0    0 -0.27528965383E+02 -0.26078575410E+02  0.14198993590E+03  0.14696624758E+03  0.00000000000E+00 0.  1.
         11    1    4    4    0    0  0.46998672841E+02 -0.43607113586E+02  0.73037211842E+02  0.97184823495E+02  0.00000000000E+00 0. -1.
</event>
<event>
 8    1  0.4798744E-006  0.1442750E+03  0.7561462E-02  0.1207690E+00
         -2   -1    0    0    0  501 -0.00000000000E+00  0.00000000000E+00  0.67898688791E+02  0.67898688791E+02  0.00000000000E+00 0.  1.
          2   -1    0    0  501    0  0.00000000000E+00 -0.00000000000E+00 -0.55778933975E+03  0.55778933975E+03  0.00000000000E+00 0. -1.
         23    2    1    2    0    0  0.10831958709E+03  0.41326844954E+02 -0.85705410918E+02  0.18840475026E+03  0.12128434111E+03 0.  0.
         23    2    1    2    0    0 -0.10831958709E+03 -0.41326844954E+02 -0.40418524004E+03  0.43728327828E+03  0.12004131013E+03 0.  0.
          5    1    3    3  502    0  0.65962505365E+02  0.28328206096E+01 -0.10815373993E+03  0.12678241537E+03  0.41800000000E+01 0. -1.
         -5    1    3    3    0  502  0.42357081723E+02  0.38494024344E+02  0.22448329007E+02  0.61622334892E+02  0.41800000000E+01 0.  1.
        -11    1    4    4    0    0  0.10945492672E+02 -0.44372556954E+02 -0.14333525760E+03  0.15044508530E+03  0.00000000000E+00 0.  1.
         11    1    4    4    0    0 -0.11926507976E+03  0.30457120007E+01 -0.26084998245E+03  0.28683819298E+03  0.00000000000E+00 0. -1.
</event>
<event>
 8    1  0.4798744E-006  0.3883270E+03  0.7561462E-02  0.1047898E+00
         -2   -1    0    0    0  501 -0.00000000000E+00  0.00000000000E+00  0.67862741027E+02  0.67862741027E+02  0.00000000000E+00 0.  1.
          2   -1    0    0  501    0  0.00000000000E+00 -0.00000000000E+00 -0.22727492862E+04  0.22727492862E+04  0.00000000000E+00 0. -1.
         23    2    1    2    0    0  0.37393787621E+03  0.22026994551E+02 -0.12601224817E+04  0.13205538356E+04  0.12505614854E+03 0.  0.
         23    2    1    2    0    0 -0.37393787621E+03 -0.22026994551E+02 -0.94476406348E+03  0.10200581916E+04  0.87320414325E+02 0.  0.
          5    1    3    3  502    0  0.20111651137E+03 -0.50480290672E+02 -0.65130157374E+03  0.68352565661E+03  0.41800000000E+01 0. -1.
         -5    1    3    3    0  502  0.17282136484E+03  0.72507285223E+02 -0.60882090792E+03  0.63702817903E+03  0.41800000000E+01 0. -1.
        -11    1    4    4    0    0 -0.54876278133E+02 -0.30182615777E+02 -0.11358986516E+03  0.12971142457E+03  0.00000000000E+00 0.  1.
         11    1    4    4    0    0 -0.31906159808E+03  0.81556212253E+01 -0.83117419832E+03  0.89034676698E+03  0.00000000000E+00 0. -1.
</event>
<event>
 8    1  0.4798744E-006  0.1208059E+03  0.7561462E-02  0.1241773E+00
          2   -1    0    0  501    0  0.00000000000E+00  0.00000000000E+00  0.19777960802E+03  0.19777960802E+03  0.00000000000E+00 0. -1.
         -2   -1    0    0    0  501 -0.00000000000E+00 -0.00000000000E+00 -0.10436229265E+03  0.10436229265E+03  0.00000000000E+00 0.  1.
         23    2    1    2    0    0  0.37372863748E+02 -0.62158632696E+02 -0.14867302769E+02  0.14535665218E+03  0.12508834109E+03 0.  0.
         23    2    1    2    0    0 -0.37372863748E+02  0.62158632696E+02  0.10828461814E+03  0.15678524849E+03  0.87152906180E+02 0.  0.
          5    1    3    3  502    0  0.15891974996E+02 -0.98194682072E+02  0.29073047273E+01  0.99602586700E+02  0.41800000000E+01 0. -1.
         -5    1    3    3    0  502  0.21480888751E+02  0.36036049377E+02 -0.17774607497E+02  0.45754065479E+02  0.41800000000E+01 0. -1.
        -11    1    4    4    0    0 -0.54238452946E+02  0.62842380862E+02  0.11209046546E+03  0.13948206715E+03  0.00000000000E+00 0. -1.
         11    1    4    4    0    0  0.16865589199E+02 -0.68374816609E+00 -0.38058473213E+01  0.17303181338E+02  0.00000000000E+00 0.  1.
</event>
<event>
 8    1  0.4798744E-006  0.1033188E+03  0.7561462E-02  0.1273468E+00
          1   -1    0    0  501    0  0.00000000000E+00  0.00000000000E+00  0.25302090964E+02  0.25302090964E+02  0.00000000000E+00 0. -1.
         -1   -1    0    0    0  501 -0.00000000000E+00 -0.00000000000E+00 -0.56182935593E+03  0.56182935593E+03  0.00000000000E+00 0.  1.
         23    2    1    2    0    0 -0.41687393556E+02  0.25964457307E+02 -0.31819381540E+03  0.34528992406E+03  0.12476311823E+03 0.  0.
         23    2    1    2    0    0  0.41687393556E+02 -0.25964457307E+02 -0.21833344956E+03  0.24184152284E+03  0.91683341699E+02 0.  0.
          5    1    3    3  502    0  0.23467312150E+01  0.68001389769E+02 -0.12113533696E+03  0.13899977849E+03  0.41800000000E+01 0. -1.
         -5    1    3    3    0  502 -0.44034124771E+02 -0.42036932462E+02 -0.19705847844E+03  0.20629014557E+03  0.41800000000E+01 0.  1.
        -11    1    4    4    0    0  0.23443480029E+02 -0.45210549003E+02 -0.20670304793E+03  0.21288433602E+03  0.00000000000E+00 0.  1.
         11    1    4    4    0    0  0.18243913528E+02  0.19246091696E+02 -0.11630401630E+02  0.28957186818E+02  0.00000000000E+00 0. -1.
</event>
<event>
 8    1  0.4798744E-006  0.8092899E+02  0.7561462E-02  0.1326436E+00
          3   -1    0    0  501    0  0.00000000000E+00  0.00000000000E+00  0.17985103479E+03  0.17985103479E+03  0.00000000000E+00 0. -1.
         -3   -1    0    0    0  501 -0.00000000000E+00 -0.00000000000E+00 -0.78233432107E+02  0.78233432107E+02  0.00000000000E+00 0.  1.
         23    2    1    2    0    0 -0.44559340891E+02 -0.49430258967E+01  0.37168293776E+02  0.13798004210E+03  0.12508813529E+03 0.  0.
         23    2    1    2    0    0  0.44559340891E+02  0.49430258967E+01  0.64449308905E+02  0.12010442479E+03  0.90892194775E+02 0.  0.
          5    1    3    3  502    0 -0.16387713206E+02  0.17854636594E+02  0.78845524504E+02  0.82591974952E+02  0.41800000000E+01 0. -1.
         -5    1    3    3    0  502 -0.28171627685E+02 -0.22797662491E+02 -0.41677230728E+02  0.55388067150E+02  0.41800000000E+01 0. -1.
        -11    1    4    4    0    0  0.21590894855E+02  0.47638389524E+02  0.39752520123E+02  0.65695096874E+02  0.00000000000E+00 0.  1.
         11    1    4    4    0    0  0.22968446036E+02 -0.42695363627E+02  0.24696788783E+02  0.54409327921E+02  0.00000000000E+00 0. -1.
</event>
<event>
 7    1  0.4798744E-006  0.1138644E+03  0.7561462E-02  0.1253576E+00
         -1   -1    0    0    0  501 -0.00000000000E+00  0.00000000000E+00  0.26065858976E+02  0.26065858976E+02  0.00000000000E+00 0.  1.
          1   -1    0    0  501    0  0.00000000000E+00 -0.00000000000E+00 -0.58732188104E+03  0.58732188104E+03  0.00000000000E+00 0. -1.
         23    2    1    2    0    0  0.24241145419E+01  0.42257403122E+02 -0.32815624211E+03  0.34307529259E+03  0.90678402588E+02 0.  0.
          5    1    1    2  502    0  0.13330530817E+02  0.45497939601E+02 -0.83217893725E+02  0.95866864953E+02  0.41800000000E+01 0. -1.
         -5    1    1    2    0  502 -0.15754645359E+02 -0.87755342723E+02 -0.14988188623E+03  0.17444558248E+03  0.41800000000E+01 0.  1.
        -11    1    3    3    0    0  0.40181034371E+02  0.10472014754E+02 -0.80819529349E+02  0.90862395634E+02  0.00000000000E+00 0.  1.
         11    1    3    3    0    0 -0.37756919829E+02  0.31785388368E+02 -0.24733671276E+03  0.25221289695E+03  0.00000000000E+00 0. -1.
</event>
<event>
 8    1  0.4798744E-006  0.1998274E+03  0.7561462E-02  0.1149885E+00
         -2   -1    0    0    0  501 -0.00000000000E+00  0.00000000000E+00  0.18148153195E+03  0.18148153195E+03  0.00000000000E+00 0.  1.
          2   -1    0    0  501    0  0.00000000000E+00 -0.00000000000E+00 -0.28209607264E+03  0.28209607264E+03  0.00000000000E+00 0. -1.
         23    2    1    2    0    0 -0.10633182449E+03  0.14855889717E+03  0.28909608285E+02  0.22329326560E+03  0.12509162315E+03 0.  0.
         23    2    1    2    0    0  0.10633182449E+03 -0.14855889717E+03 -0.12952414898E+03  0.24028433899E+03  0.87085334979E+02 0.  0.
          5    1    3    3  502    0 -0.58818626905E+02  0.98595055462E+01 -0.27937093610E+02  0.65990865428E+02  0.41800000000E+01 0. -1.
         -5    1    3    3    0  502 -0.47513197581E+02  0.13869939163E+03  0.56846701895E+02  0.15730240017E+03  0.41800000000E+01 0. -1.
        -11    1    4    4    0    0  0.72859913585E+02 -0.48089190429E+02 -0.94717918674E+02  0.12881234941E+03  0.00000000000E+00 0. -1.
         11    1    4    4    0    0  0.33471910901E+02 -0.10046970674E+03 -0.34806230310E+02  0.11147198958E+03  0.00000000000E+00 0.  1.
</event>
<event>
 8    1  0.4798744E-006  0.1597560E+03  0.7561462E-02  0.1188973E+00
          1   -1    0    0  501    0  0.00000000000E+00  0.00000000000E+00  0.71755109487E+03  0.71755109487E+03  0.00000000000E+00 0. -1.
         -1   -1    0    0    0  501 -0.00000000000E+00 -0.00000000000E+00 -0.47147193965E+02  0.47147193965E+02  0.00000000000E+00 0.  1.
         23    2    1    2    0    0 -0.71040084193E+02  0.11904509514E+03  0.27050594501E+03  0.32869337558E+03  0.12508973030E+03 0.  0.
         23    2    1    2    0    0  0.71040084193E+02 -0.11904509514E+03  0.39989795590E+03  0.43600491326E+03  0.10470664263E+03 0.  0.
          5    1    3    3  502    0  0.22537906845E+02  0.66621961310E+02  0.15902694976E+03  0.17393529292E+03  0.41800000000E+01 0.  1.
         -5    1    3    3    0  502 -0.93577991037E+02  0.52423133830E+02  0.11147899525E+03  0.15475808266E+03  0.41800000000E+01 0.  1.
        -11    1    4    4    0    0  0.17548195010E+02 -0.57763297038E+02  0.30543960016E+03  0.31134849763E+03  0.00000000000E+00 0.  1.
         11    1    4    4    0    0  0.53491889183E+02 -0.61281798102E+02  0.94458355744E+02  0.12465641563E+03  0.00000000000E+00 0. -1.
</event>
<event>
 8    1  0.4798744E-006  0.1007969E+03  0.7561462E-02  0.1278629E+00
         -2   -1    0    0    0  501 -0.00000000000E+00  0.00000000000E+00  0.14576105970E+03  0.14576105970E+03  0.00000000000E+00 0.  1.
          2   -1    0    0  501    0  0.00000000000E+00 -0.00000000000E+00 -0.82819651366E+02  0.82819651366E+02  0.00000000000E+00 0. -1.
         23    2    1    2    0    0 -0.19602707444E+02 -0.65027207558E+01  0.42383844469E+02  0.13368152866E+03  0.12509120399E+03 0.  0.
         23    2    1    2    0    0  0.19602707444E+02  0.65027207558E+01  0.20557563868E+02  0.94899182411E+02  0.90314394609E+02 0.  0.
          5    1    3    3  502    0 -0.31978252336E+02  0.55025991079E+02  0.18628345345E+02  0.66445135014E+02  0.41800000000E+01 0. -1.
         -5    1    3    3    0  502  0.12375544893E+02 -0.61528711835E+02  0.23755499124E+02  0.67236393643E+02  0.41800000000E+01 0. -1.
        -11    1    4    4    0    0  0.47091233144E+02  0.27710035122E+01  0.39318468547E+02  0.61410134900E+02  0.00000000000E+00 0.  1.
         11    1    4    4    0    0 -0.27488525701E+02  0.37317172436E+01 -0.18760904680E+02  0.33489047511E+02  0.00000000000E+00 0. -1.
</event>
<event>
 8    1  0.4798744E-006  0.1190460E+03  0.7561462E-02  0.1244679E+00
          3   -1    0    0  501    0  0.00000000000E+00  0.00000000000E+00  0.16476617887E+03  0.16476617887E+03  0.00000000000E+00 0. -1.
         -3   -1    0    0    0  501 -0.00000000000E+00 -0.00000000000E+00 -0.14253821836E+03  0.14253821836E+03  0.00000000000E+00 0.  1.
         23    2    1    2    0    0  0.47123764686E+02 -0.89828455933E+02 -0.24593585206E+02  0.16291669932E+03  0.12508879163E+03 0.  0.
         23    2    1    2    0    0 -0.47123764686E+02  0.89828455933E+02  0.46821545716E+02  0.14438769792E+03  0.91464471101E+02 0.  0.
          5    1    3    3  502    0  0.25213991850E+02 -0.48751267580E+02 -0.75739709983E+02  0.93629095606E+02  0.41800000000E+01 0. -1.
         -5    1    3    3    0  502  0.21909772836E+02 -0.41077188353E+02  0.51146124776E+02  0.69287603714E+02  0.41800000000E+01 0. -1.
        -11    1    4    4    0    0  0.27219872647E+02  0.16221110608E+02  0.14843770860E+02  0.34991190743E+02  0.00000000000E+00 0.  1.
         11    1    4    4    0    0 -0.74343637333E+02  0.73607345325E+02  0.31977774856E+02  0.10939650718E+03  0.00000000000E+00 0. -1.
</event>
<event>
 8    1  0.4798744E-006  0.1158065E+03  0.7561462E-02  0.1250180E+00
         -3   -1    0    0    0  501 -0.00000000000E+00  0.00000000000E+00  0.12200682851E+02  0.12200682851E+02  0.00000000000E+00 0.  1.
          3   -1    0    0  501    0  0.00000000000E+00 -0.00000000000E+00 -0.11640609579E+04  0.11640609579E+04  0.00000000000E+00 0. -1.
         23    2    1    2    0    0  0.53596389253E-01 -0.48738046624E+02 -0.69992793703E+03  0.71268677939E+03  0.12509168006E+03 0.  0.
         23    2    1    2    0    0 -0.53596389253E-01  0.48738046624E+02 -0.45193233806E+03  0.46357486140E+03  0.91013262099E+02 0.  0.
          5    1    3    3  502    0 -0.22436139051E+02  0.34964546210E+02 -0.33460815731E+03  0.33720318973E+03  0.41800000000E+01 0. -1.
         -5    1    3    3    0  502  0.22489735441E+02 -0.83702592834E+02 -0.36531977973E+03  0.37548358966E+03  0.41800000000E+01 0. -1.
        -11    1    4    4    0    0  0.45380534623E+02  0.23180819060E+02 -0.21074123338E+03  0.21681469217E+03  0.00000000000E+00 0.  1.
         11    1    4    4    0    0 -0.45434131012E+02  0.25557227565E+02 -0.24119110468E+03  0.24676016923E+03  0.00000000000E+00 0. -1.
</event>
<event>
 8    1  0.4798744E-006  0.1927762E+03  0.7561462E-02  0.1155981E+00
         -2   -1    0    0    0  501 -0.00000000000E+00  0.00000000000E+00  0.12723293548E+03  0.12723293548E+03  0.00000000000E+00 0.  1.
          2   -1    0    0  501    0  0.00000000000E+00 -0.00000000000E+00 -0.42026747714E+03  0.42026747714E+03  0.00000000000E+00 0. -1.
         23    2    1    2    0    0 -0.12328182211E+03 -0.11913813910E+03 -0.21063802490E+02  0.21326878151E+03  0.12509030954E+03 0.  0.
         23    2    1    2    0    0  0.12328182211E+03  0.11913813910E+03 -0.27197073917E+03  0.33423163111E+03  0.91380503493E+02 0.  0.
          5    1    3    3  502    0 -0.28152244893E+02  0.25321065170E+02 -0.12288881653E+02  0.40027418680E+02  0.41800000000E+01 0.  1.
         -5    1    3    3    0  502 -0.95129577218E+02 -0.14445920427E+03 -0.87749208369E+01  0.17324136283E+03  0.41800000000E+01 0.  1.
        -11    1    4    4    0    0  0.10786184393E+03  0.86215980732E+02 -0.26259518330E+03  0.29668771966E+03  0.00000000000E+00 0. -1.
         11    1    4    4    0    0  0.15419978184E+02  0.32922158364E+02 -0.93755558715E+01  0.37543911443E+02  0.00000000000E+00 0.  1.
</event>
<event>
 8    1  0.4798744E-006  0.1252321E+03  0.7561462E-02  0.1234707E+00
          3   -1    0    0  501    0  0.00000000000E+00  0.00000000000E+00  0.25766850065E+03  0.25766850065E+03  0.00000000000E+00 0. -1.
         -3   -1    0    0    0  501 -0.00000000000E+00 -0.00000000000E+00 -0.10657365212E+03  0.10657365212E+03  0.00000000000E+00 0.  1.
         23    2    1    2    0    0 -0.93985730983E+02  0.23215205217E+02 -0.69430445249E+01  0.15832929434E+03  0.12509075184E+03 0.  0.
         23    2    1    2    0    0  0.93985730983E+02 -0.23215205217E+02  0.15803789306E+03  0.20591285843E+03  0.89732191790E+02 0.  0.
          5    1    3    3  502    0 -0.12072980258E+03  0.24871466082E+02  0.13912306862E+02  0.12411808788E+03  0.41800000000E+01 0. -1.
         -5    1    3    3    0  502  0.26744071599E+02 -0.16562608650E+01 -0.20855351387E+02  0.34211206457E+02  0.41800000000E+01 0. -1.
        -11    1    4    4    0    0  0.13033410961E+02 -0.13010699395E+02 -0.86351251813E+01  0.20339948056E+02  0.00000000000E+00 0.  1.
         11    1    4    4    0    0  0.80952320022E+02 -0.10204505822E+02  0.16667301824E+03  0.18557291038E+03  0.00000000000E+00 0. -1.
</event>
<event>
 8    1  0.4798744E-006  0.1062904E+03  0.7561462E-02  0.1267598E+00
          2   -1    0    0  501    0  0.00000000000E+00  0.00000000000E+00  0.30186710687E+03  0.30186710687E+03  0.00000000000E+00 0. -1.
         -2   -1    0    0    0  501 -0.00000000000E+00 -0.00000000000E+00 -0.54148289196E+02  0.54148289196E+02  0.00000000000E+00 0.  1.
         23    2    1    2    0    0  0.52618747281E+02  0.22481887813E+02  0.87885744392E+02  0.16313668822E+03  0.12496202275E+03 0.  0.
         23    2    1    2    0    0 -0.52618747281E+02 -0.22481887813E+02  0.15983307328E+03  0.19287870785E+03  0.91550077997E+02 0.  0.
          5    1    3    3  502    0  0.87400514411E+02 -0.39377079984E+01  0.34760565575E+02  0.94234414004E+02  0.41800000000E+01 0.  1.
         -5    1    3    3    0  502 -0.34781767129E+02  0.26419595811E+02  0.53125178817E+02  0.68902274214E+02  0.41800000000E+01 0.  1.
        -11    1    4    4    0    0 -0.76466588385E+01 -0.33870261428E+02  0.10156645555E+02  0.36177665065E+02  0.00000000000E+00 0.  1.
         11    1    4    4    0    0 -0.44972088443E+02  0.11388373615E+02  0.14967642772E+03  0.15670104278E+03  0.00000000000E+00 0. -1.
</event>
<event>
 8    1  0.4798744E-006  0.1731528E+03  0.7561462E-02  0.1174599E+00
         -1   -1    0    0    0  501 -0.00000000000E+00  0.00000000000E+00  0.41990752928E+02  0.41990752928E+02  0.00000000000E+00 0.  1.
          1   -1    0    0  501    0  0.00000000000E+00 -0.00000000000E+00 -0.90260868283E+03  0.90260868283E+03  0.00000000000E+00 0. -1.
         23    2    1    2    0    0 -0.10250378225E+03  0.12056518366E+03 -0.37572828295E+03  0.42645205373E+03  0.12508646065E+03 0.  0.
         23    2    1    2    0    0  0.10250378225E+03 -0.12056518366E+03 -0.48488964695E+03  0.51814738202E+03  0.91190739065E+02 0.  0.
          5    1    3    3  502    0 -0.10743574881E+03  0.12146809688E+03 -0.23487849164E+03  0.28545107623E+03  0.41800000000E+01 0. -1.
         -5    1    3    3    0  502  0.49319665675E+01 -0.90291321845E+00 -0.14084979130E+03  0.14100097750E+03  0.41800000000E+01 0. -1.
        -11    1    4    4    0    0  0.12542959675E+02 -0.76254311539E+02 -0.15254806667E+03  0.17100572654E+03  0.00000000000E+00 0.  1.
         11    1    4    4    0    0  0.89960822572E+02 -0.44310872122E+02 -0.33234158028E+03  0.34714165548E+03  0.00000000000E+00 0. -1.
</event>
<event>
 8    1  0.4798744E-006  0.1741162E+03  0.7561462E-02  0.1173622E+00
          2   -1    0    0  501    0  0.00000000000E+00  0.00000000000E+00  0.85978371350E+03  0.85978371350E+03  0.00000000000E+00 0. -1.
         -2   -1    0    0    0  501 -0.00000000000E+00 -0.00000000000E+00 -0.62672609015E+02  0.62672609015E+02  0.00000000000E+00 0.  1.
         23    2    1    2    0    0 -0.77882369096E+01  0.15004673473E+03  0.13539848461E+03  0.23781496733E+03  0.12509408385E+03 0.  0.
         23    2    1    2    0    0  0.77882369096E+01 -0.15004673473E+03  0.66171261987E+03  0.68464135519E+03  0.91079716176E+02 0.  0.
          5    1    3    3  502    0 -0.51826353977E+02  0.78592406850E+02  0.11966614219E+03  0.15231610344E+03  0.41800000000E+01 0. -1.
         -5    1    3    3    0  502  0.44038117067E+02  0.71454327875E+02  0.15732342417E+02  0.85498863880E+02  0.41800000000E+01 0. -1.
        -11    1    4    4    0    0 -0.35925483463E+02 -0.73476772385E+02  0.40596555507E+03  0.41412257648E+03  0.00000000000E+00 0. -1.
         11    1    4    4    0    0  0.43713720372E+02 -0.76569962340E+02  0.25574706480E+03  0.27051877871E+03  0.00000000000E+00 0.  1.
</event>
<event>
 8    1  0.4798744E-006  0.8598488E+02  0.7561462E-02  0.1312877E+00
          1   -1    0    0  501    0  0.00000000000E+00  0.00000000000E+00  0.39984120885E+03  0.39984120885E+03  0.00000000000E+00 0. -1.
         -1   -1    0    0    0  501 -0.00000000000E+00 -0.00000000000E+00 -0.38029221857E+02  0.38029221857E+02  0.00000000000E+00 0.  1.
         23    2    1    2    0    0  0.73178306960E+01  0.59213077293E+02  0.19447004248E+03  0.23879752060E+03  0.12508364902E+03 0.  0.
         23    2    1    2    0    0 -0.73178306960E+01 -0.59213077293E+02  0.16734194451E+03  0.19907291011E+03  0.89816245620E+02 0.  0.
          5    1    3    3  502    0 -0.50434532866E+01  0.24592249595E+01  0.17819376045E+03  0.17833107658E+03  0.41800000000E+01 0. -1.
         -5    1    3    3    0  502  0.12361283983E+02  0.56753852333E+02  0.16276282031E+02  0.60466444026E+02  0.41800000000E+01 0. -1.
        -11    1    4    4    0    0  0.31006945095E+02 -0.60939721651E+02  0.12027627317E+03  0.13835267329E+03  0.00000000000E+00 0. -1.
         11    1    4    4    0    0 -0.38324775791E+02  0.17266443585E+01  0.47065671338E+02  0.60720236814E+02  0.00000000000E+00 0.  1.
</event>
<event>
 8    1  0.4798744E-006  0.1607222E+03  0.7561462E-02  0.1187884E+00
          2   -1    0    0  501    0  0.00000000000E+00  0.00000000000E+00  0.86332270597E+02  0.86332270597E+02  0.00000000000E+00 0. -1.
         -2   -1    0    0    0  501 -0.00000000000E+00 -0.00000000000E+00 -0.46847768747E+03  0.46847768747E+03  0.00000000000E+00 0.  1.
         23    2    1    2    0    0  0.11475513457E+03 -0.92598562404E+02 -0.31834527058E+03  0.37246985241E+03  0.12508734942E+03 0.  0.
         23    2    1    2    0    0 -0.11475513457E+03  0.92598562404E+02 -0.63800146293E+02  0.18234010566E+03  0.86221927568E+02 0.  0.
          5    1    3    3  502    0  0.11962113143E+03 -0.82188607557E+02 -0.32680054034E+03  0.35760347854E+03  0.41800000000E+01 0. -1.
         -5    1    3    3    0  502 -0.48659968581E+01 -0.10409954847E+02  0.84552697618E+01  0.14866373871E+02  0.41800000000E+01 0. -1.
        -11    1    4    4    0    0 -0.41646284428E+02  0.79501071191E+02 -0.93256817018E+01  0.90231932631E+02  0.00000000000E+00 0.  1.
         11    1    4    4    0    0 -0.73108850144E+02  0.13097491213E+02 -0.54474464591E+02  0.92108173024E+02  0.00000000000E+00 0. -1.
</event>
<event>
 8    1  0.4798744E-006  0.9876953E+02  0.7561462E-02  0.1282905E+00
         -2   -1    0    0    0  501 -0.00000000000E+00  0.00000000000E+00  0.38446557051E+02  0.38446557051E+02  0.00000000000E+00 0. -1.
          2   -1    0    0  501    0  0.00000000000E+00 -0.00000000000E+00 -0.55098536211E+03  0.55098536211E+03  0.00000000000E+00 0.  1.
         23    2    1    2    0    0 -0.42908326941E+02  0.85856247116E+02 -0.31059182038E+03  0.34831750997E+03  0.12508153010E+03 0.  0.
         23    2    1    2    0    0  0.42908326941E+02 -0.85856247116E+02 -0.20194698468E+03  0.24111440920E+03  0.90228343718E+02 0.  0.
          5    1    3    3  502    0 -0.44458951459E+02  0.67704315478E+02 -0.70392490417E+02  0.10739202860E+03  0.41800000000E+01 0.  1.
         -5    1    3    3    0  502  0.15506245175E+01  0.18151931638E+02 -0.24019932996E+03  0.24092548137E+03  0.41800000000E+01 0.  1.
        -11    1    4    4    0    0  0.39115982177E+02 -0.60093841285E+02 -0.20275661271E+03  0.21506179070E+03  0.00000000000E+00 0.  1.
         11    1    4    4    0    0  0.37923447646E+01 -0.25762405831E+02  0.80962802542E+00  0.26052618497E+02  0.00000000000E+00 0. -1.
</event>
<event>
 8    1  0.4798744E-006  0.1125588E+03  0.7561462E-02  0.1255903E+00
         -1   -1    0    0    0  501 -0.00000000000E+00  0.00000000000E+00  0.12206978931E+03  0.12206978931E+03  0.00000000000E+00 0.  1.
          1   -1    0    0  501    0  0.00000000000E+00 -0.00000000000E+00 -0.11381449741E+03  0.11381449741E+03  0.00000000000E+00 0. -1.
         23    2    1    2    0    0  0.20753949131E+02 -0.16171586294E+02  0.79156363286E+01  0.12806551329E+03  0.12508345929E+03 0.  0.
         23    2    1    2    0    0 -0.20753949131E+02  0.16171586294E+02  0.33965557934E+00  0.10781877343E+03  0.10455872002E+03 0.  0.
          5    1    3    3  502    0 -0.91162070468E+01  0.48814435328E+02 -0.16312008561E+02  0.52435754506E+02  0.41800000000E+01 0. -1.
         -5    1    3    3    0  502  0.29870156178E+02 -0.64986021621E+02  0.24227644890E+02  0.75629758780E+02  0.41800000000E+01 0. -1.
        -11    1    4    4    0    0 -0.28390975144E+02  0.56159947463E+02 -0.14340517528E+02  0.64541750919E+02  0.00000000000E+00 0.  1.
         11    1    4    4    0    0  0.76370260125E+01 -0.39988361170E+02  0.14680173108E+02  0.43277022516E+02  0.00000000000E+00 0. -1.
</event>
<event>
 8    1  0.4798744E-006  0.1060975E+03  0.7561462E-02  0.1267972E+00
         -1   -1    0    0    0  501 -0.00000000000E+00  0.00000000000E+00  0.31849517158E+02  0.31849517158E+02  0.00000000000E+00 0.  1.
          1   -1    0    0  501    0  0.00000000000E+00 -0.00000000000E+00 -0.54563240389E+03  0.54563240389E+03  0.00000000000E+00 0. -1.
         23    2    1    2    0    0 -0.34686654276E+02 -0.18066528190E+02 -0.14071678983E+03  0.19229712023E+03  0.12508958422E+03 0.  0.
         23    2    1    2    0    0  0.34686654276E+02  0.18066528190E+02 -0.37306609689E+03  0.38518480082E+03  0.87518310671E+02 0.  0.
          5    1    3    3  502    0 -0.17427632532E+02  0.46307058932E+02 -0.10595557740E+03  0.11701334481E+03  0.41800000000E+01 0.  1.
         -5    1    3    3    0  502 -0.17259021745E+02 -0.64373587123E+02 -0.34761212435E+02  0.75283775414E+02  0.41800000000E+01 0.  1.
        -11    1    4    4    0    0 -0.25347575024E+02  0.24664387720E+02 -0.12953598116E+03  0.13427733240E+03  0.00000000000E+00 0.  1.
         11    1    4    4    0    0  0.60034229301E+02 -0.65978595301E+01 -0.24353011574E+03  0.25090746842E+03  0.00000000000E+00 0. -1.
</event>
<event>
 8    1  0.4798744E-006  0.1036174E+03  0.7561462E-02  0.1272868E+00
         -2   -1    0    0    0  501 -0.00000000000E+00  0.00000000000E+00  0.14898452722E+03  0.14898452722E+03  0.00000000000E+00 0. -1.
          2   -1    0    0  501    0  0.00000000000E+00 -0.00000000000E+00 -0.97745315785E+02  0.97745315785E+02  0.00000000000E+00 0.  1.
         23    2    1    2    0    0 -0.20646432822E+01 -0.51009169125E+02  0.39670797694E+02  0.14080732002E+03  0.12508689418E+03 0.  0.
         23    2    1    2    0    0  0.20646432822E+01  0.51009169125E+02  0.11568413744E+02  0.10592252298E+03  0.92084497023E+02 0.  0.
          5    1    3    3  502    0  0.42274854015E+02 -0.56874533093E+02  0.58610402215E+02  0.92057196592E+02  0.41800000000E+01 0. -1.
         -5    1    3    3    0  502 -0.44339497297E+02  0.58653639676E+01 -0.18939604522E+02  0.48750123431E+02  0.41800000000E+01 0. -1.
        -11    1    4    4    0    0 -0.34816835478E+02  0.10113861864E+02 -0.21043871574E+02  0.41920720000E+02  0.00000000000E+00 0.  1.
         11    1    4    4    0    0  0.36881478760E+02  0.40895307261E+02  0.32612285317E+02  0.64001802984E+02  0.00000000000E+00 0. -1.
</event>
<event>
 8    1  0.4798744E-006  0.1153415E+03  0.7561462E-02  0.1250986E+00
         -2   -1    0    0    0  501 -0.00000000000E+00  0.00000000000E+00  0.19512011880E+03  0.19512011880E+03  0.00000000000E+00 0.  1.
          2   -1    0    0  501    0  0.00000000000E+00 -0.00000000000E+00 -0.92010879123E+02  0.92010879123E+02  0.00000000000E+00 0. -1.
         23    2    1    2    0    0  0.74714933747E+02 -0.18848925934E+02  0.65519978379E+02  0.16086771654E+03  0.12509177161E+03 0.  0.
         23    2    1    2    0    0 -0.74714933747E+02  0.18848925934E+02  0.37589261303E+02  0.12626328138E+03  0.92692288389E+02 0.  0.
          5    1    3    3  502    0  0.67174327529E+02  0.28680577076E+02  0.81939989843E+02  0.10984807743E+03  0.41800000000E+01 0. -1.
         -5    1    3    3    0  502  0.75406062179E+01 -0.47529503009E+02 -0.16420011465E+02  0.51019639110E+02  0.41800000000E+01 0. -1.
        -11    1    4    4    0    0 -0.39395616665E+02 -0.29589202865E+02 -0.93199535560E+01  0.50143764048E+02  0.00000000000E+00 0. -1.
         11    1    4    4    0    0 -0.35319317082E+02  0.48438128799E+02  0.46909214860E+02  0.76119517336E+02  0.00000000000E+00 0.  1.
</event>
<event>
 8    1  0.4798744E-006  0.7536093E+02  0.7561462E-02  0.1342757E+00
         -1   -1    0    0    0  501 -0.00000000000E+00  0.00000000000E+00  0.47123210686E+02  0.47123210686E+02  0.00000000000E+00 0.  1.
          1   -1    0    0  501    0  0.00000000000E+00 -0.00000000000E+00 -0.27158449694E+03  0.27158449694E+03  0.00000000000E+00 0. -1.
         23    2    1    2    0    0  0.32451867342E+02  0.21279948448E+02 -0.12878299751E+03  0.18368056324E+03  0.12509008340E+03 0.  0.
         23    2    1    2    0    0 -0.32451867342E+02 -0.21279948448E+02 -0.95678288738E+02  0.13502714438E+03  0.87017440111E+02 0.  0.
          5    1    3    3  502    0  0.18982161269E+02  0.36982164654E+02  0.10279985539E+02  0.43025032848E+02  0.41800000000E+01 0.  1.
         -5    1    3    3    0  502  0.13469706074E+02 -0.15702216206E+02 -0.13906298305E+03  0.14065553039E+03  0.41800000000E+01 0.  1.
        -11    1    4    4    0    0 -0.53984229059E+01 -0.48886983565E+02 -0.78710860560E+02  0.92814221443E+02  0.00000000000E+00 0.  1.
         11    1    4    4    0    0 -0.27053444437E+02  0.27607035117E+02 -0.16967428178E+02  0.42212922936E+02  0.00000000000E+00 0. -1.
</event>
<event>
 8    1  0.4798744E-006  0.1240730E+03  0.7561462E-02  0.1236525E+00
          4   -1    0    0  501    0  0.00000000000E+00  0.00000000000E+00  0.43858289248E+03  0.43858289248E+03  0.00000000000E+00 0. -1.
         -4   -1    0    0    0  501 -0.00000000000E+00 -0.00000000000E+00 -0.40029413482E+02  0.40029413482E+02  0.00000000000E+00 0.  1.
         23    2    1    2    0    0  0.48064219032E+02  0.41001461008E+02  0.14028219906E+03  0.19828953572E+03  0.12509338771E+03 0.  0.
         23    2    1    2    0    0 -0.48064219032E+02 -0.41001461008E+02  0.25827127994E+03  0.28032277024E+03  0.88800408312E+02 0.  0.
          5    1    3    3  502    0 -0.24144164015E+02  0.60462439239E+02  0.64939982692E+02  0.92050643489E+02  0.41800000000E+01 0.  1.
         -5    1    3    3    0  502  0.72208383047E+02 -0.19460978231E+02  0.75342216364E+02  0.10623889223E+03  0.41800000000E+01 0.  1.
        -11    1    4    4    0    0  0.17157993643E+02  0.14422799117E+02  0.70191047739E+02  0.73683085325E+02  0.00000000000E+00 0. -1.
         11    1    4    4    0    0 -0.65222212675E+02 -0.55424260125E+02  0.18808023220E+03  0.20663968491E+03  0.00000000000E+00 0.  1.
</event>
<event>
 8    1  0.4798744E-006  0.1575319E+03  0.7561462E-02  0.1191512E+00
          1   -1    0    0  501    0  0.00000000000E+00  0.00000000000E+00  0.60160584170E+03  0.60160584170E+03  0.00000000000E+00 0. -1.
         -1   -1    0    0    0  501 -0.00000000000E+00 -0.00000000000E+00 -0.50725766605E+02  0.50725766605E+02  0.00000000000E+00 0.  1.
         23    2    1    2    0    0 -0.13497068004E+03  0.37676696609E+01  0.24746444279E+03  0.30841720973E+03  0.12510493599E+03 0.  0.
         23    2    1    2    0    0  0.13497068004E+03 -0.37676696609E+01  0.30341563231E+03  0.34391439857E+03  0.89357639923E+02 0.  0.
          5    1    3    3  502    0 -0.30427897628E+02  0.54199712385E+02  0.12482763670E+03  0.13950941567E+03  0.41800000000E+01 0. -1.
         -5    1    3    3    0  502 -0.10454278241E+03 -0.50432042724E+02  0.12263680610E+03  0.16890779407E+03  0.41800000000E+01 0. -1.
        -11    1    4    4    0    0  0.33409881288E+02 -0.99818844754E+01  0.14785727425E+02  0.37874475849E+02  0.00000000000E+00 0.  1.
         11    1    4    4    0    0  0.10156079875E+03  0.62142148145E+01  0.28862990488E+03  0.30603992272E+03  0.00000000000E+00 0. -1.
</event>
<event>
 7    1  0.4798744E-006  0.1239082E+03  0.7561462E-02  0.1236786E+00
          1   -1    0    0  501    0  0.00000000000E+00  0.00000000000E+00  0.12203737279E+03  0.12203737279E+03  0.00000000000E+00 0. -1.
         -1   -1    0    0    0  501 -0.00000000000E+00 -0.00000000000E+00 -0.36211206069E+03  0.36211206069E+03  0.00000000000E+00 0.  1.
         23    2    1    2    0    0 -0.45231569404E+02  0.82483585105E+02  0.59775821122E+02  0.14273071650E+03  0.89159811343E+02 0.  0.
          5    1    1    2  502    0 -0.24129902936E+02 -0.10875419716E+00 -0.18837875510E+01  0.24561862688E+02  0.41800000000E+01 0. -1.
         -5    1    1    2    0  502  0.69361472340E+02 -0.82374830908E+02 -0.29796672147E+03  0.31685685430E+03  0.41800000000E+01 0.  1.
        -11    1    3    3    0    0 -0.48267349549E+02  0.18795558245E+02 -0.47524543617E+01  0.52015342589E+02  0.00000000000E+00 0.  1.
         11    1    3    3    0    0  0.30357801456E+01  0.63688026860E+02  0.64528275484E+02  0.90715373908E+02  0.00000000000E+00 0. -1.
</event>
<event>
 8    1  0.4798745E-006  0.1196641E+03  0.7561462E-02  0.1243652E+00
          4   -1    0    0  501    0  0.00000000000E+00  0.00000000000E+00  0.52015570937E+03  0.52015570937E+03  0.00000000000E+00 0. -1.
         -4   -1    0    0    0  501 -0.00000000000E+00 -0.00000000000E+00 -0.43092444554E+02  0.43092444554E+02  0.00000000000E+00 0.  1.
         23    2    1    2    0    0  0.39644209858E+02  0.86049365630E+02  0.18154402335E+03  0.23996213487E+03  0.12508971603E+03 0.  0.
         23    2    1    2    0    0 -0.39644209858E+02 -0.86049365630E+02  0.29551924147E+03  0.32328601905E+03  0.90587368536E+02 0.  0.
          5    1    3    3  502    0 -0.90074203989E+01  0.40188403782E+02  0.16614532101E+03  0.17122494419E+03  0.41800000000E+01 0. -1.
         -5    1    3    3    0  502  0.48651630256E+02  0.45860961848E+02  0.15398702338E+02  0.68737190675E+02  0.41800000000E+01 0. -1.
        -11    1    4    4    0    0  0.27036179671E+02 -0.45419617450E+02  0.11202319259E+03  0.12386723675E+03  0.00000000000E+00 0.  1.
         11    1    4    4    0    0 -0.66680389528E+02 -0.40629748180E+02  0.18349604887E+03  0.19941878231E+03  0.00000000000E+00 0. -1.
</event>
<event>
 8    1  0.4798744E-006  0.1077810E+03  0.7561462E-02  0.1264735E+00
         -2   -1    0    0    0  501 -0.00000000000E+00  0.00000000000E+00  0.61013190049E+02  0.61013190049E+02  0.00000000000E+00 0.  1.
          2   -1    0    0  501    0  0.00000000000E+00 -0.00000000000E+00 -0.48798984808E+03  0.48798984808E+03  0.00000000000E+00 0. -1.
         23    2    1    2    0    0  0.56829642821E+02 -0.22599399605E+02 -0.37456688509E+02  0.14419228817E+03  0.12509225111E+03 0.  0.
         23    2    1    2    0    0 -0.56829642821E+02  0.22599399605E+02 -0.38951996953E+03  0.40481074996E+03  0.91682034553E+02 0.  0.
          5    1    3    3  502    0  0.60071552815E+02  0.31507659529E+02  0.13941530580E+02  0.69376961172E+02  0.41800000000E+01 0.  1.
         -5    1    3    3    0  502 -0.32419099939E+01 -0.54107059134E+02 -0.51398219088E+02  0.74815326999E+02  0.41800000000E+01 0.  1.
        -11    1    4    4    0    0 -0.66467351211E+02 -0.23295731533E+01 -0.35488022291E+03  0.36105859400E+03  0.00000000000E+00 0.  1.
         11    1    4    4    0    0  0.96377083905E+01  0.24928972758E+02 -0.34639746617E+02  0.43752155964E+02  0.00000000000E+00 0. -1.
</event>
<event>
 7    1  0.4798744E-006  0.2270595E+03  0.7561462E-02  0.1128727E+00
          2   -1    0    0  501    0  0.00000000000E+00  0.00000000000E+00  0.14896833603E+04  0.14896833603E+04  0.00000000000E+00 0. -1.
         -2   -1    0    0    0  501 -0.00000000000E+00 -0.00000000000E+00 -0.40754746407E+02  0.40754746407E+02  0.00000000000E+00 0.  1.
         23    2    1    2    0    0  0.42603771778E+02  0.12304559148E+03  0.78630356339E+03  0.80212289725E+03  0.90402154523E+02 0.  0.
          5    1    1    2  502    0 -0.15410888221E+03 -0.39569196788E+02  0.29561056363E+03  0.33573553080E+03  0.41800000000E+01 0. -1.
         -5    1    1    2    0  502  0.11150511043E+03 -0.83476394691E+02  0.36701448685E+03  0.39257967864E+03  0.41800000000E+01 0.  1.
        -11    1    3    3    0    0 -0.63096481221E+01 -0.11127987206E+02  0.32820900235E+02  0.35225775377E+02  0.00000000000E+00 0.  1.
         11    1    3    3    0    0  0.48913419900E+02  0.13417357868E+03  0.75348266316E+03  0.76689712188E+03  0.00000000000E+00 0. -1.
</event>
<event>
 8    1  0.4798744E-006  0.9852732E+02  0.7561462E-02  0.1283424E+00
          2   -1    0    0  501    0  0.00000000000E+00  0.00000000000E+00  0.22346507780E+03  0.22346507780E+03  0.00000000000E+00 0. -1.
         -2   -1    0    0    0  501 -0.00000000000E+00 -0.00000000000E+00 -0.78887748166E+02  0.78887748166E+02  0.00000000000E+00 0.  1.
         23    2    1    2    0    0 -0.58254638345E+02  0.47008561400E+02  0.60812536657E+02  0.15796202643E+03  0.12510167644E+03 0.  0.
         23    2    1    2    0    0  0.58254638345E+02 -0.47008561400E+02  0.83764792975E+02  0.14439079953E+03  0.90712483776E+02 0.  0.
          5    1    3    3  502    0 -0.32075461564E+01  0.21871413714E+02 -0.36744321120E+02  0.43084389571E+02  0.41800000000E+01 0. -1.
         -5    1    3    3    0  502 -0.55047092188E+02  0.25137147686E+02  0.97556857776E+02  0.11487763686E+03  0.41800000000E+01 0. -1.
        -11    1    4    4    0    0 -0.20995329244E+00 -0.54902847110E+02  0.58454865403E+02  0.80195623262E+02  0.00000000000E+00 0.  1.
         11    1    4    4    0    0  0.58464591637E+02  0.78942857105E+01  0.25309927573E+02  0.64195176267E+02  0.00000000000E+00 0. -1.
</event>
<event>
 8    1  0.4798744E-006  0.1182998E+03  0.7561462E-02  0.1245929E+00
          1   -1    0    0  501    0  0.00000000000E+00  0.00000000000E+00  0.98922547211E+03  0.98922547211E+03  0.00000000000E+00 0. -1.
         -1   -1    0    0    0  501 -0.00000000000E+00 -0.00000000000E+00 -0.15555170660E+02  0.15555170660E+02  0.00000000000E+00 0.  1.
         23    2    1    2    0    0 -0.42636832624E+02  0.41789835252E+02  0.53529964745E+03  0.55295319404E+03  0.12508889804E+03 0.  0.
         23    2    1    2    0    0  0.42636832624E+02 -0.41789835252E+02  0.43837065400E+03  0.45182744873E+03  0.91732891102E+02 0.  0.
          5    1    3    3  502    0  0.21385585399E+01  0.79088320269E+02  0.33954294194E+03  0.34866376017E+03  0.41800000000E+01 0. -1.
         -5    1    3    3    0  502 -0.44775391164E+02 -0.37298485017E+02  0.19575670550E+03  0.20428943386E+03  0.41800000000E+01 0. -1.
        -11    1    4    4    0    0  0.16271880756E+02  0.23472051881E+02  0.54225604201E+02  0.61287253763E+02  0.00000000000E+00 0. -1.
         11    1    4    4    0    0  0.26364951868E+02 -0.65261887133E+02  0.38414504980E+03  0.39054019497E+03  0.00000000000E+00 0.  1.
</event>
<event>
 8    1  0.4798744E-006  0.1060911E+03  0.7561462E-02  0.1267985E+00
          1   -1    0    0  501    0  0.00000000000E+00  0.00000000000E+00  0.22019249746E+03  0.22019249746E+03  0.00000000000E+00 0. -1.
         -1   -1    0    0    0  501 -0.00000000000E+00 -0.00000000000E+00 -0.61255371347E+02  0.61255371347E+02  0.00000000000E+00 0.  1.
         23    2    1    2    0    0 -0.72989703419E+01 -0.41434892447E+02  0.86567311315E+02  0.15783602785E+03  0.12509271369E+03 0.  0.
         23    2    1    2    0    0  0.72989703419E+01  0.41434892447E+02  0.72369814797E+02  0.12361184096E+03  0.90952580234E+02 0.  0.
          5    1    3    3  502    0  0.73175703033E+01 -0.76475527583E+02  0.17489573153E+02  0.78901272001E+02  0.41800000000E+01 0. -1.
         -5    1    3    3    0  502 -0.14616540645E+02  0.35040635136E+02  0.69077738163E+02  0.78934755848E+02  0.41800000000E+01 0. -1.
        -11    1    4    4    0    0 -0.14719296262E+02 -0.23918355501E+02  0.35960692970E+02  0.45628027036E+02  0.00000000000E+00 0. -1.
         11    1    4    4    0    0  0.22018266604E+02  0.65353247948E+02  0.36409121827E+02  0.77983813922E+02  0.00000000000E+00 0.  1.
</event>
<event>
 8    1  0.9514081E-006  0.2025635E+03  0.7561462E-02  0.1147594E+00
          2   -1    0    0  501    0  0.00000000000E+00  0.00000000000E+00  0.97638628424E+03  0.97638628424E+03  0.00000000000E+00 0.  1.
         -2   -1    0    0    0  501 -0.00000000000E+00 -0.00000000000E+00 -0.50668024069E+02  0.50668024069E+02  0.00000000000E+00 0. -1.
         23    2    1    2    0    0  0.17491545441E+03  0.66801512578E+02  0.36460689848E+03  0.42853632170E+03  0.12508928938E+03 0.  0.
         23    2    1    2    0    0 -0.17491545441E+03 -0.66801512578E+02  0.56111136168E+03  0.59851798661E+03  0.91213824660E+02 0.  0.
          5    1    3    3  502    0 -0.71298526856E+01 -0.25145005433E+01  0.97688961676E+02  0.98070194991E+02  0.41800000000E+01 0.  1.
         -5    1    3    3    0  502  0.18204530709E+03  0.69316013122E+02  0.26691793681E+03  0.33046612671E+03  0.41800000000E+01 0.  1.
        -11    1    4    4    0    0 -0.10310707983E+03  0.67763514863E+00  0.36137933605E+03  0.37580121557E+03  0.00000000000E+00 0.  1.
         11    1    4    4    0    0 -0.71808374575E+02 -0.67479147727E+02  0.19973202563E+03  0.22271677103E+03  0.00000000000E+00 0. -1.
</event>
<event>
 8    1  0.4798744E-006  0.7528025E+02  0.7561462E-02  0.1343005E+00
          2   -1    0    0  501    0  0.00000000000E+00  0.00000000000E+00  0.41191790426E+03  0.41191790426E+03  0.00000000000E+00 0. -1.
         -2   -1    0    0    0  501 -0.00000000000E+00 -0.00000000000E+00 -0.34703729681E+02  0.34703729681E+02  0.00000000000E+00 0.  1.
         23    2    1    2    0    0 -0.47718336911E+02 -0.39026569032E+02  0.20665788834E+03  0.24930844855E+03  0.12508839648E+03 0.  0.
         23    2    1    2    0    0  0.47718336911E+02  0.39026569032E+02  0.17055628624E+03  0.19731318540E+03  0.77736308045E+02 0.  0.
          5    1    3    3  502    0 -0.40851510360E+02 -0.41833356812E+02  0.22316439552E+03  0.23073511972E+03  0.41800000000E+01 0. -1.
         -5    1    3    3    0  502 -0.68668265512E+01  0.28067877800E+01 -0.16506507180E+02  0.18573328830E+02  0.41800000000E+01 0. -1.
        -11    1    4    4    0    0  0.13753434015E+02 -0.14529773150E+02  0.58885396471E+01  0.20855362720E+02  0.00000000000E+00 0.  1.
         11    1    4    4    0    0  0.33964902896E+02  0.53556342183E+02  0.16466774659E+03  0.17645782268E+03  0.00000000000E+00 0. -1.
</event>
<event>
 8    1  0.4798744E-006  0.1145268E+03  0.7561462E-02  0.1252409E+00
          1   -1    0    0  501    0  0.00000000000E+00  0.00000000000E+00  0.40970133429E+03  0.40970133429E+03  0.00000000000E+00 0. -1.
         -1   -1    0    0    0  501 -0.00000000000E+00 -0.00000000000E+00 -0.39541705195E+02  0.39541705195E+02  0.00000000000E+00 0.  1.
         23    2    1    2    0    0 -0.38569341128E+02  0.42491360983E+02  0.14666065390E+03  0.20112474487E+03  0.12509478712E+03 0.  0.
         23    2    1    2    0    0  0.38569341128E+02 -0.42491360983E+02  0.22349897519E+03  0.24811829461E+03  0.91201898967E+02 0.  0.
          5    1    3    3  502    0 -0.62412513699E+02 -0.11873913809E+02  0.30479415211E+02  0.70588801145E+02  0.41800000000E+01 0. -1.
         -5    1    3    3    0  502  0.23843172572E+02  0.54365274792E+02  0.11618123869E+03  0.13053594373E+03  0.41800000000E+01 0. -1.
        -11    1    4    4    0    0  0.38224195226E+02  0.20164221793E+02  0.11463875380E+03  0.12251419842E+03  0.00000000000E+00 0. -1.
         11    1    4    4    0    0  0.34514590150E+00 -0.62655582775E+02  0.10886022139E+03  0.12560409619E+03  0.00000000000E+00 0.  1.
</event>
<event>
 8    1  0.4798744E-006  0.9359180E+02  0.7561462E-02  0.1294380E+00
          4   -1    0    0  501    0  0.00000000000E+00  0.00000000000E+00  0.19452238226E+02  0.19452238226E+02  0.00000000000E+00 0. -1.
         -4   -1    0    0    0  501 -0.00000000000E+00 -0.00000000000E+00 -0.71772486669E+03  0.71772486669E+03  0.00000000000E+00 0.  1.
         23    2    1    2    0    0 -0.45533839156E+02  0.10840186244E+02 -0.42844167701E+03  0.44877736222E+03  0.12509200653E+03 0.  0.
         23    2    1    2    0    0  0.45533839156E+02 -0.10840186244E+02 -0.26983095145E+03  0.28839974269E+03  0.90414761392E+02 0.  0.
          5    1    3    3  502    0 -0.21658393671E+02 -0.31177333596E+02 -0.33302456220E+02  0.50671867312E+02  0.41800000000E+01 0. -1.
         -5    1    3    3    0  502 -0.23875445485E+02  0.42017519840E+02 -0.39513922079E+03  0.39810549491E+03  0.41800000000E+01 0. -1.
        -11    1    4    4    0    0  0.21567451488E+02 -0.50067610314E+02 -0.16921887707E+03  0.17778343265E+03  0.00000000000E+00 0.  1.
         11    1    4    4    0    0  0.23966387668E+02  0.39227424070E+02 -0.10061207438E+03  0.11061631004E+03  0.00000000000E+00 0. -1.
</event>
<event>
 8    1  0.4798744E-006  0.1119395E+03  0.7561462E-02  0.1257020E+00
         -1   -1    0    0    0  501 -0.00000000000E+00  0.00000000000E+00  0.21550100970E+03  0.21550100970E+03  0.00000000000E+00 0.  1.
          1   -1    0    0  501    0  0.00000000000E+00 -0.00000000000E+00 -0.90031242503E+02  0.90031242503E+02  0.00000000000E+00 0. -1.
         23    2    1    2    0    0 -0.12992045261E+02 -0.74115381767E+02  0.11915480768E+03  0.18843239663E+03  0.12508803641E+03 0.  0.
         23    2    1    2    0    0  0.12992045261E+02  0.74115381767E+02  0.63149595167E+01  0.11709985557E+03  0.89502035763E+02 0.  0.
          5    1    3    3  502    0 -0.36531764096E+02 -0.10243694307E+03  0.86212097008E+02  0.13884486006E+03  0.41800000000E+01 0. -1.
         -5    1    3    3    0  502  0.23539718834E+02  0.28321561304E+02  0.32942710671E+02  0.49587536578E+02  0.41800000000E+01 0. -1.
        -11    1    4    4    0    0  0.15440601159E+02  0.29499514198E+02  0.46373865631E+02  0.57089131326E+02  0.00000000000E+00 0.  1.
         11    1    4    4    0    0 -0.24485558979E+01  0.44615867569E+02 -0.40058906114E+02  0.60010724241E+02  0.00000000000E+00 0. -1.
</event>
<event>
 8    1  0.4798744E-006  0.1375626E+03  0.7561462E-02  0.1216647E+00
         -3   -1    0    0    0  501 -0.00000000000E+00  0.00000000000E+00  0.74840266897E+02  0.74840266897E+02  0.00000000000E+00 0.  1.
          3   -1    0    0  501    0  0.00000000000E+00 -0.00000000000E+00 -0.41893035289E+03  0.41893035289E+03  0.00000000000E+00 0. -1.
         23    2    1    2    0    0  0.61633908098E+02 -0.87138339115E+02 -0.57672945694E+02  0.17425878881E+03  0.12509247796E+03 0.  0.
         23    2    1    2    0    0 -0.61633908098E+02  0.87138339115E+02 -0.28641714029E+03  0.31951183097E+03  0.93065584956E+02 0.  0.
          5    1    3    3  502    0  0.59400814800E+02 -0.10490032822E+03 -0.80448694589E+02  0.14498965660E+03  0.41800000000E+01 0.  1.
         -5    1    3    3    0  502  0.22330932983E+01  0.17761989109E+02  0.22775748894E+02  0.29269132213E+02  0.41800000000E+01 0.  1.
        -11    1    4    4    0    0  0.21443258137E+02  0.19617381706E+02 -0.30623790473E+02  0.42219326468E+02  0.00000000000E+00 0.  1.
         11    1    4    4    0    0 -0.83077166234E+02  0.67520957408E+02 -0.25579334982E+03  0.27729250450E+03  0.00000000000E+00 0. -1.
</event>
<event>
 8    1  0.4798744E-006  0.1250685E+03  0.7561462E-02  0.1234962E+00
          2   -1    0    0  501    0  0.00000000000E+00  0.00000000000E+00  0.16739324845E+03  0.16739324845E+03  0.00000000000E+00 0.  1.
         -2   -1    0    0    0  501 -0.00000000000E+00 -0.00000000000E+00 -0.15424606819E+03  0.15424606819E+03  0.00000000000E+00 0. -1.
         23    2    1    2    0    0 -0.62900086497E+02 -0.55841173499E+02 -0.72244827401E+02  0.16716087156E+03  0.12509510124E+03 0.  0.
         23    2    1    2    0    0  0.62900086497E+02  0.55841173499E+02  0.85392007658E+02  0.15447844508E+03  0.97453257947E+02 0.  0.
          5    1    3    3  502    0 -0.84545308552E+02 -0.57316076426E+02 -0.11923828579E+02  0.10292080403E+03  0.41800000000E+01 0.  1.
         -5    1    3    3    0  502  0.21645222055E+02  0.14749029270E+01 -0.60320998822E+02  0.64240067523E+02  0.41800000000E+01 0.  1.
        -11    1    4    4    0    0  0.48379792420E+02 -0.17198461683E+02  0.51283374615E+02  0.72569800267E+02  0.00000000000E+00 0.  1.
         11    1    4    4    0    0  0.14520294077E+02  0.73039635182E+02  0.34108633043E+02  0.81908644817E+02  0.00000000000E+00 0. -1.
</event>
<event>
 8    1  0.4798744E-006  0.1473857E+03  0.7561462E-02  0.1203723E+00
         -1   -1    0    0    0  501 -0.00000000000E+00  0.00000000000E+00  0.14762180710E+03  0.14762180710E+03  0.00000000000E+00 0.  1.
          1   -1    0    0  501    0  0.00000000000E+00 -0.00000000000E+00 -0.18584395760E+03  0.18584395760E+03  0.00000000000E+00 0. -1.
         23    2    1    2    0    0  0.88776634959E+02  0.81380723671E+02 -0.27921091091E+01  0.17366596179E+03  0.12509179554E+03 0.  0.
         23    2    1    2    0    0 -0.88776634959E+02 -0.81380723671E+02 -0.35430041382E+02  0.15979980291E+03  0.98876569917E+02 0.  0.
          5    1    3    3  502    0 -0.31128448505E+02  0.28883832872E+02 -0.16055835546E+01  0.42700192111E+02  0.41800000000E+01 0.  1.
         -5    1    3    3    0  502  0.11990508346E+03  0.52496890799E+02 -0.11865255545E+01  0.13096576968E+03  0.41800000000E+01 0.  1.
        -11    1    4    4    0    0 -0.32971873593E+02 -0.38984300761E+02  0.33845202513E+02  0.61256982355E+02  0.00000000000E+00 0.  1.
         11    1    4    4    0    0 -0.55804761366E+02 -0.42396422910E+02 -0.69275243895E+02  0.98542820557E+02  0.00000000000E+00 0. -1.
</event>
<event>
 8    1  0.4798744E-006  0.1079415E+03  0.7561462E-02  0.1264430E+00
         -1   -1    0    0    0  501 -0.00000000000E+00  0.00000000000E+00  0.68293877301E+02  0.68293877301E+02  0.00000000000E+00 0.  1.
          1   -1    0    0  501    0  0.00000000000E+00 -0.00000000000E+00 -0.24075012807E+03  0.24075012807E+03  0.00000000000E+00 0. -1.
         23    2    1    2    0    0 -0.20900980832E+02 -0.15492637998E+02 -0.19666030722E+02  0.12841649866E+03  0.12420616543E+03 0.  0.
         23    2    1    2    0    0  0.20900980832E+02  0.15492637998E+02 -0.15279022005E+03  0.18062750671E+03  0.92760832290E+02 0.  0.
          5    1    3    3  502    0 -0.10299457691E+02  0.52727210275E+02  0.68976079381E+01  0.54325748291E+02  0.41800000000E+01 0. -1.
         -5    1    3    3    0  502 -0.10601523141E+02 -0.68219848272E+02 -0.26563638661E+02  0.74090750368E+02  0.41800000000E+01 0.  1.
        -11    1    4    4    0    0 -0.20852145876E+02  0.39501935917E+02 -0.97858599495E+02  0.10757100178E+03  0.00000000000E+00 0. -1.
         11    1    4    4    0    0  0.41753126708E+02 -0.24009297919E+02 -0.54931620552E+02  0.73056504932E+02  0.00000000000E+00 0.  1.
</event>
<event>
 8    1  0.4798744E-006  0.1421541E+03  0.7561462E-02  0.1210459E+00
         -2   -1    0    0    0  501 -0.00000000000E+00  0.00000000000E+00  0.76651105344E+02  0.76651105344E+02  0.00000000000E+00 0.  1.
          2   -1    0    0  501    0  0.00000000000E+00 -0.00000000000E+00 -0.38998493195E+03  0.38998493195E+03  0.00000000000E+00 0. -1.
         23    2    1    2    0    0 -0.78731405461E+02 -0.73192218168E+02 -0.57181074543E+02  0.17456642914E+03  0.12509207765E+03 0.  0.
         23    2    1    2    0    0  0.78731405461E+02  0.73192218168E+02 -0.25615275206E+03  0.29206960815E+03  0.90192508628E+02 0.  0.
          5    1    3    3  502    0 -0.78304652165E+02 -0.10312430518E+03 -0.27979620561E+02  0.13253894687E+03  0.41800000000E+01 0.  1.
         -5    1    3    3    0  502 -0.42675329645E+00  0.29932087014E+02 -0.29201453982E+02  0.42027482271E+02  0.41800000000E+01 0.  1.
        -11    1    4    4    0    0 -0.54567288841E+01  0.28883554971E+02 -0.13428640191E+03  0.13746589895E+03  0.00000000000E+00 0. -1.
         11    1    4    4    0    0  0.84188134346E+02  0.44308663197E+02 -0.12186635015E+03  0.15460370920E+03  0.00000000000E+00 0.  1.
</event>
<event>
 8    1  0.4798744E-006  0.1339779E+03  0.7561462E-02  0.1221670E+00
          1   -1    0    0  501    0  0.00000000000E+00  0.00000000000E+00  0.34245708079E+03  0.34245708079E+03  0.00000000000E+00 0. -1.
         -1   -1    0    0    0  501 -0.00000000000E+00 -0.00000000000E+00 -0.60383636537E+02  0.60383636537E+02  0.00000000000E+00 0.  1.
         23    2    1    2    0    0  0.31946831370E+02 -0.90511226131E+02  0.15512387437E+03  0.22121192177E+03  0.12513359199E+03 0.  0.
         23    2    1    2    0    0 -0.31946831370E+02  0.90511226131E+02  0.12694956988E+03  0.18162879555E+03  0.87521105970E+02 0.  0.
          5    1    3    3  502    0  0.48457713883E+02 -0.11666800734E+03  0.12132204326E+03  0.17520298100E+03  0.41800000000E+01 0. -1.
         -5    1    3    3    0  502 -0.16510882513E+02  0.26156781208E+02  0.33801831110E+02  0.46008940772E+02  0.41800000000E+01 0. -1.
        -11    1    4    4    0    0  0.11940723830E+02  0.28011529857E+01  0.63825783999E+02  0.64993523114E+02  0.00000000000E+00 0. -1.
         11    1    4    4    0    0 -0.43887555200E+02  0.87710073145E+02  0.63123785883E+02  0.11663527244E+03  0.00000000000E+00 0.  1.
</event>
<event>
 8    1  0.4798744E-006  0.9391573E+02  0.7561462E-02  0.1293637E+00
         -1   -1    0    0    0  501 -0.00000000000E+00  0.00000000000E+00  0.15058580598E+03  0.15058580598E+03  0.00000000000E+00 0.  1.
          1   -1    0    0  501    0  0.00000000000E+00 -0.00000000000E+00 -0.24446018096E+03  0.24446018096E+03  0.00000000000E+00 0. -1.
         23    2    1    2    0    0  0.54356481048E+02 -0.41415567064E+01  0.10383054199E+03  0.17146491999E+03  0.12509059843E+03 0.  0.
         23    2    1    2    0    0 -0.54356481048E+02  0.41415567064E+01 -0.19770491696E+03  0.22358106695E+03  0.89047626480E+02 0.  0.
          5    1    3    3  502    0  0.31161528124E+02  0.29688652957E+02 -0.14932630500E+02  0.45748363938E+02  0.41800000000E+01 0.  1.
         -5    1    3    3    0  502  0.23194952924E+02 -0.33830209663E+02  0.11876317249E+03  0.12571655605E+03  0.41800000000E+01 0.  1.
        -11    1    4    4    0    0 -0.36019814654E+02 -0.41035509156E+02 -0.88534502821E+02  0.10401777852E+03  0.00000000000E+00 0.  1.
         11    1    4    4    0    0 -0.18336666394E+02  0.45177065862E+02 -0.10917041414E+03  0.11956328842E+03  0.00000000000E+00 0. -1.
</event>
<event>
 8    1  0.4798744E-006  0.1089761E+03  0.7561462E-02  0.1262478E+00
         -1   -1    0    0    0  501 -0.00000000000E+00  0.00000000000E+00  0.36519092482E+03  0.36519092482E+03  0.00000000000E+00 0.  1.
          1   -1    0    0  501    0  0.00000000000E+00 -0.00000000000E+00 -0.13894013422E+03  0.13894013422E+03  0.00000000000E+00 0. -1.
         23    2    1    2    0    0 -0.97529598736E+02 -0.69643733316E+01  0.30901080952E+03  0.34741265750E+03  0.12508936433E+03 0.  0.
         23    2    1    2    0    0  0.97529598736E+02  0.69643733316E+01 -0.82760018918E+02  0.15671840154E+03  0.90282398744E+02 0.  0.
          5    1    3    3  502    0 -0.88490881303E+02 -0.30127899491E+02  0.10024888096E+03  0.13713364626E+03  0.41800000000E+01 0. -1.
         -5    1    3    3    0  502 -0.90387174336E+01  0.23163526159E+02  0.20876192855E+03  0.21027901125E+03  0.41800000000E+01 0. -1.
        -11    1    4    4    0    0  0.50544083542E+02 -0.46773048914E+01  0.10324955677E+02  0.51799481387E+02  0.00000000000E+00 0.  1.
         11    1    4    4    0    0  0.46985515194E+02  0.11641678223E+02 -0.93084974595E+02  0.10491892015E+03  0.00000000000E+00 0. -1.
</event>
<event>
 8    1  0.4798744E-006  0.1256120E+03  0.7561462E-02  0.1234116E+00
          4   -1    0    0  501    0  0.00000000000E+00  0.00000000000E+00  0.16740540399E+04  0.16740540399E+04  0.00000000000E+00 0. -1.
         -4   -1    0    0    0  501 -0.00000000000E+00 -0.00000000000E+00 -0.10449723360E+02  0.10449723360E+02  0.00000000000E+00 0.  1.
         23    2    1    2    0    0  0.50061254690E+02 -0.48897245970E+02  0.10396025784E+04  0.10494369288E+04  0.12508907472E+03 0.  0.
         23    2    1    2    0    0 -0.50061254690E+02  0.48897245970E+02  0.62400173811E+03  0.63506683444E+03  0.95050750405E+02 0.  0.
          5    1    3    3  502    0 -0.23371849665E+02  0.21351913687E+02  0.11818096588E+03  0.12241879215E+03  0.41800000000E+01 0.  1.
         -5    1    3    3    0  502  0.73433104356E+02 -0.70249159657E+02  0.92142161252E+03  0.92701813664E+03  0.41800000000E+01 0.  1.
        -11    1    4    4    0    0 -0.14303561687E+02 -0.28742346546E+02  0.14675346190E+03  0.15022414234E+03  0.00000000000E+00 0.  1.
         11    1    4    4    0    0 -0.35757693004E+02  0.77639592516E+02  0.47724827621E+03  0.48484269210E+03  0.00000000000E+00 0. -1.
</event>
<event>
 8    1  0.4798744E-006  0.1437472E+03  0.7561462E-02  0.1208374E+00
          2   -1    0    0  501    0  0.00000000000E+00  0.00000000000E+00  0.86539691007E+03  0.86539691007E+03  0.00000000000E+00 0. -1.
         -2   -1    0    0    0  501 -0.00000000000E+00 -0.00000000000E+00 -0.30205977419E+02  0.30205977419E+02  0.00000000000E+00 0.  1.
         23    2    1    2    0    0 -0.87296569312E+02  0.70274377743E+02  0.36967080829E+03  0.40603346831E+03  0.12508993445E+03 0.  0.
         23    2    1    2    0    0  0.87296569312E+02 -0.70274377743E+02  0.46552012436E+03  0.48956941918E+03  0.10202965664E+03 0.  0.
          5    1    3    3  502    0 -0.90529612995E+02  0.84633620892E+02  0.19760574522E+03  0.23328944159E+03  0.41800000000E+01 0. -1.
         -5    1    3    3    0  502  0.32330436828E+01 -0.14359243149E+02  0.17206506308E+03  0.17274402672E+03  0.41800000000E+01 0. -1.
        -11    1    4    4    0    0 -0.61607547624E+01  0.18374903945E+02  0.32947622943E+02  0.38224832920E+02  0.00000000000E+00 0.  1.
         11    1    4    4    0    0  0.93457324075E+02 -0.88649281687E+02  0.43257250142E+03  0.45134458626E+03  0.00000000000E+00 0. -1.
</event>
<event>
 8    1  0.4798744E-006  0.8824818E+02  0.7561462E-02  0.1307150E+00
          1   -1    0    0  501    0  0.00000000000E+00  0.00000000000E+00  0.24609270972E+03  0.24609270972E+03  0.00000000000E+00 0. -1.
         -1   -1    0    0    0  501 -0.00000000000E+00 -0.00000000000E+00 -0.73721430609E+02  0.73721430609E+02  0.00000000000E+00 0.  1.
         23    2    1    2    0    0  0.16350013363E+02  0.67807105358E+02  0.48634675991E+02  0.15125360148E+03  0.12508874361E+03 0.  0.
         23    2    1    2    0    0 -0.16350013363E+02 -0.67807105358E+02  0.12373660312E+03  0.16856053885E+03  0.90756717836E+02 0.  0.
          5    1    3    3  502    0  0.41448276760E+02  0.12936152499E+02  0.73813181977E+02  0.85738917193E+02  0.41800000000E+01 0.  1.
         -5    1    3    3    0  502 -0.25098263397E+02  0.54870952859E+02 -0.25178505986E+02  0.65514684284E+02  0.41800000000E+01 0.  1.
        -11    1    4    4    0    0 -0.31800755296E+01 -0.50716287370E+02  0.87458299098E+01  0.51563012187E+02  0.00000000000E+00 0.  1.
         11    1    4    4    0    0 -0.13169937833E+02 -0.17090817988E+02  0.11499077321E+03  0.11699752667E+03  0.00000000000E+00 0. -1.
</event>
<event>
 8    1  0.4798744E-006  0.7410755E+02  0.7561462E-02  0.1346657E+00
         -1   -1    0    0    0  501 -0.00000000000E+00  0.00000000000E+00  0.65975441451E+02  0.65975441451E+02  0.00000000000E+00 0.  1.
          1   -1    0    0  501    0  0.00000000000E+00 -0.00000000000E+00 -0.18938078037E+03  0.18938078037E+03  0.00000000000E+00 0. -1.
         23    2    1    2    0    0  0.11947625290E+02 -0.52491690182E+01 -0.48921345729E+02  0.13494982040E+03  0.12509139233E+03 0.  0.
         23    2    1    2    0    0 -0.11947625290E+02  0.52491690182E+01 -0.74483993194E+02  0.12040640142E+03  0.93699182149E+02 0.  0.
          5    1    3    3  502    0 -0.99366129401E+01 -0.24069105694E+02 -0.84745946751E+02  0.88754752077E+02  0.41800000000E+01 0.  1.
         -5    1    3    3    0  502  0.21884238231E+02  0.18819936675E+02  0.35824601022E+02  0.46195068327E+02  0.41800000000E+01 0.  1.
        -11    1    4    4    0    0  0.27081405800E+02 -0.29767012151E+02 -0.44525942222E+02  0.60016973293E+02  0.00000000000E+00 0.  1.
         11    1    4    4    0    0 -0.39029031091E+02  0.35016181169E+02 -0.29958050972E+02  0.60389428128E+02  0.00000000000E+00 0. -1.
</event>
<event>
 8    1  0.4798744E-006  0.9403768E+02  0.7561462E-02  0.1293358E+00
         -1   -1    0    0    0  501 -0.00000000000E+00  0.00000000000E+00  0.13067870954E+03  0.13067870954E+03  0.00000000000E+00 0.  1.
          1   -1    0    0  501    0  0.00000000000E+00 -0.00000000000E+00 -0.12206145964E+03  0.12206145964E+03  0.00000000000E+00 0. -1.
         23    2    1    2    0    0 -0.25513023529E+02  0.45743956781E+02  0.42350408904E+02  0.14207589331E+03  0.12509427794E+03 0.  0.
         23    2    1    2    0    0  0.25513023529E+02 -0.45743956781E+02 -0.33733159002E+02  0.11066427587E+03  0.91461642155E+02 0.  0.
          5    1    3    3  502    0 -0.53765587200E+02  0.66336197758E+02  0.58243280311E+02  0.10344554897E+03  0.41800000000E+01 0.  1.
         -5    1    3    3    0  502  0.28252563671E+02 -0.20592240977E+02 -0.15892871407E+02  0.38630344342E+02  0.41800000000E+01 0.  1.
        -11    1    4    4    0    0 -0.10995760461E+01 -0.40169545960E+02  0.24030150558E+02  0.46821465440E+02  0.00000000000E+00 0.  1.
         11    1    4    4    0    0  0.26612599576E+02 -0.55744108210E+01 -0.57763309559E+02  0.63842810429E+02  0.00000000000E+00 0. -1.
</event>
<event>
 8    1  0.4798744E-006  0.1350802E+03  0.7561462E-02  0.1220107E+00
          2   -1    0    0  501    0  0.00000000000E+00  0.00000000000E+00  0.67127973815E+02  0.67127973815E+02  0.00000000000E+00 0. -1.
         -2   -1    0    0    0  501 -0.00000000000E+00 -0.00000000000E+00 -0.34573552443E+03  0.34573552443E+03  0.00000000000E+00 0.  1.
         23    2    1    2    0    0  0.98074898369E+02 -0.36165645882E+02 -0.17758521270E+03  0.24106226126E+03  0.12509143217E+03 0.  0.
         23    2    1    2    0    0 -0.98074898369E+02  0.36165645882E+02 -0.10102233792E+03  0.17180123699E+03  0.91561523802E+02 0.  0.
          5    1    3    3  502    0 -0.18084649616E+02  0.13760438252E+02 -0.97705771788E-01  0.23105976695E+02  0.41800000000E+01 0.  1.
         -5    1    3    3    0  502  0.11615954798E+03 -0.49926084134E+02 -0.17748750692E+03  0.21795628456E+03  0.41800000000E+01 0.  1.
        -11    1    4    4    0    0 -0.80454416796E+02  0.52869901799E+02 -0.10975911271E+03  0.14599726888E+03  0.00000000000E+00 0.  1.
         11    1    4    4    0    0 -0.17620481572E+02 -0.16704255917E+02  0.87367747875E+01  0.25803968111E+02  0.00000000000E+00 0. -1.
</event>
<event>
 8    1  0.4798744E-006  0.9640498E+02  0.7561462E-02  0.1288043E+00
          2   -1    0    0  501    0  0.00000000000E+00  0.00000000000E+00  0.18446450317E+03  0.18446450317E+03  0.00000000000E+00 0.  1.
         -2   -1    0    0    0  501 -0.00000000000E+00 -0.00000000000E+00 -0.79901334130E+02  0.79901334130E+02  0.00000000000E+00 0. -1.
         23    2    1    2    0    0 -0.60873595900E+02 -0.34166664389E+02  0.48663349719E+02  0.15127563504E+03  0.12507294079E+03 0.  0.
         23    2    1    2    0    0  0.60873595900E+02  0.34166664389E+02  0.55899819321E+02  0.11309020226E+03  0.69221733685E+02 0.  0.
          5    1    3    3  502    0 -0.72660540406E+02 -0.51468797864E+02 -0.91859605507E+01  0.89612753316E+02  0.41800000000E+01 0. -1.
         -5    1    3    3    0  502  0.11786944507E+02  0.17302133475E+02  0.57849310270E+02  0.61662881722E+02  0.41800000000E+01 0. -1.
        -11    1    4    4    0    0  0.97342658115E+01 -0.10573958326E+02  0.41111533319E+02  0.43551379971E+02  0.00000000000E+00 0.  1.
         11    1    4    4    0    0  0.51139330088E+02  0.44740622715E+02  0.14788286002E+02  0.69538822291E+02  0.00000000000E+00 0. -1.
</event>
<event>
 8    1  0.4798744E-006  0.1213030E+03  0.7561462E-02  0.1240963E+00
          1   -1    0    0  501    0  0.00000000000E+00  0.00000000000E+00  0.57732236969E+02  0.57732236969E+02  0.00000000000E+00 0. -1.
         -1   -1    0    0    0  501 -0.00000000000E+00 -0.00000000000E+00 -0.36893054475E+03  0.36893054475E+03  0.00000000000E+00 0.  1.
         23    2    1    2    0    0  0.52607473410E+02 -0.54738823928E+02 -0.26903817472E+03  0.30625725476E+03  0.12509229207E+03 0.  0.
         23    2    1    2    0    0 -0.52607473410E+02  0.54738823928E+02 -0.42160133062E+02  0.12040552696E+03  0.83403411190E+02 0.  0.
          5    1    3    3  502    0 -0.18034803089E+02  0.30413108183E+02 -0.64390742534E+02  0.73578878735E+02  0.41800000000E+01 0.  1.
         -5    1    3    3    0  502  0.70642276499E+02 -0.85151932112E+02 -0.20464743218E+03  0.23267837603E+03  0.41800000000E+01 0.  1.
        -11    1    4    4    0    0 -0.26532357812E+02  0.63463649336E+02 -0.56843521887E+02  0.89234448386E+02  0.00000000000E+00 0.  1.
         11    1    4    4    0    0 -0.26075115599E+02 -0.87248254082E+01  0.14683388825E+02  0.31171078571E+02  0.00000000000E+00 0. -1.
</event>
<event>
 7    1  0.4798744E-006  0.6280106E+02  0.7561462E-02  0.1386439E+00
         -1   -1    0    0    0  501 -0.00000000000E+00  0.00000000000E+00  0.69062058418E+02  0.69062058418E+02  0.00000000000E+00 0.  1.
          1   -1    0    0  501    0  0.00000000000E+00 -0.00000000000E+00 -0.16199859673E+03  0.16199859673E+03  0.00000000000E+00 0. -1.
         23    2    1    2    0    0  0.22432771515E+02  0.18912472107E+02 -0.39382126195E+01  0.12854474578E+03  0.12508929335E+03 0.  0.
          5    1    3    3  502    0  0.46581263314E+00 -0.35731702720E+02 -0.44266730791E+02  0.57043732483E+02  0.41800000000E+01 0. -1.
         -5    1    3    3    0  502  0.21966958882E+02  0.54644174828E+02  0.40328518171E+02  0.71501013301E+02  0.41800000000E+01 0. -1.
        -11    1    1    2    0    0 -0.14871967205E+02 -0.69169137445E+01 -0.86594403895E+02  0.88134045012E+02  0.00000000000E+00 0. -1.
         11    1    1    2    0    0 -0.75608043097E+01 -0.11995558363E+02 -0.24039217971E+01  0.14381864352E+02  0.00000000000E+00 0.  1.
</event>
<event>
 8    1  0.4798744E-006  0.1493372E+03  0.7561462E-02  0.1201290E+00
          1   -1    0    0  501    0  0.00000000000E+00  0.00000000000E+00  0.93189571256E+02  0.93189571256E+02  0.00000000000E+00 0. -1.
         -1   -1    0    0    0  501 -0.00000000000E+00 -0.00000000000E+00 -0.30681242722E+03  0.30681242722E+03  0.00000000000E+00 0.  1.
         23    2    1    2    0    0 -0.11209205174E+03 -0.63622583167E+02 -0.12501589064E+03  0.21883655467E+03  0.12509198054E+03 0.  0.
         23    2    1    2    0    0  0.11209205174E+03  0.63622583167E+02 -0.88606965334E+02  0.18116544381E+03  0.91418064814E+02 0.  0.
          5    1    3    3  502    0 -0.69208342165E+02 -0.93381798326E+02 -0.11854486733E+03  0.16607321534E+03  0.41800000000E+01 0.  1.
         -5    1    3    3    0  502 -0.42883709576E+02  0.29759215159E+02 -0.64710233035E+01  0.52763339323E+02  0.41800000000E+01 0.  1.
        -11    1    4    4    0    0  0.25792528960E+02  0.67957651253E+01 -0.71650786870E+02  0.76454380077E+02  0.00000000000E+00 0.  1.
         11    1    4    4    0    0  0.86299522781E+02  0.56826818042E+02 -0.16956178464E+02  0.10471106374E+03  0.00000000000E+00 0. -1.
</event>
<event>
 8    1  0.4798744E-006  0.1203829E+03  0.7561462E-02  0.1242467E+00
          1   -1    0    0  501    0  0.00000000000E+00  0.00000000000E+00  0.20079697553E+02  0.20079697553E+02  0.00000000000E+00 0. -1.
         -1   -1    0    0    0  501 -0.00000000000E+00 -0.00000000000E+00 -0.75097691335E+03  0.75097691335E+03  0.00000000000E+00 0.  1.
         23    2    1    2    0    0  0.13893747093E+02  0.56759672149E+02 -0.41448622167E+03  0.43687674473E+03  0.12509102902E+03 0.  0.
         23    2    1    2    0    0 -0.13893747093E+02 -0.56759672149E+02 -0.31641099413E+03  0.33417986618E+03  0.90252806937E+02 0.  0.
          5    1    3    3  502    0  0.12928633860E+01  0.93851688201E+02 -0.23433564333E+03  0.25246876442E+03  0.41800000000E+01 0. -1.
         -5    1    3    3    0  502  0.12600883707E+02 -0.37092016053E+02 -0.18015057834E+03  0.18440798030E+03  0.41800000000E+01 0. -1.
        -11    1    4    4    0    0  0.32027624775E+02 -0.52235150151E+02 -0.17321334385E+03  0.18373116815E+03  0.00000000000E+00 0.  1.
         11    1    4    4    0    0 -0.45921371868E+02 -0.45245219980E+01 -0.14319765028E+03  0.15044869803E+03  0.00000000000E+00 0. -1.
</event>
<event>
 8    1  0.4798744E-006  0.7946064E+02  0.7561462E-02  0.1330589E+00
         -2   -1    0    0    0  501 -0.00000000000E+00  0.00000000000E+00  0.58968881039E+02  0.58968881039E+02  0.00000000000E+00 0.  1.
          2   -1    0    0  501    0  0.00000000000E+00 -0.00000000000E+00 -0.30479761523E+03  0.30479761523E+03  0.00000000000E+00 0. -1.
         23    2    1    2    0    0  0.17771824736E+02 -0.63548880211E+02 -0.11605068146E+03  0.18294239347E+03  0.12508341509E+03 0.  0.
         23    2    1    2    0    0 -0.17771824736E+02  0.63548880211E+02 -0.12977805273E+03  0.18082410280E+03  0.10724138777E+03 0.  0.
          5    1    3    3  502    0  0.60450172381E+01 -0.38074141283E+02  0.20234534864E+02  0.43738898808E+02  0.41800000000E+01 0.  1.
         -5    1    3    3    0  502  0.11726807498E+02 -0.25474738928E+02 -0.13628521632E+03  0.13920349466E+03  0.41800000000E+01 0.  1.
        -11    1    4    4    0    0 -0.38646461950E+02  0.20041033570E+02 -0.12678380375E+01  0.43552261262E+02  0.00000000000E+00 0.  1.
         11    1    4    4    0    0  0.20874637214E+02  0.43507846641E+02 -0.12851021470E+03  0.13727184154E+03  0.00000000000E+00 0. -1.
</event>
<event>
 8    1  0.4798744E-006  0.1231478E+03  0.7561462E-02  0.1237993E+00
         -1   -1    0    0    0  501 -0.00000000000E+00  0.00000000000E+00  0.16692866387E+03  0.16692866387E+03  0.00000000000E+00 0.  1.
          1   -1    0    0  501    0  0.00000000000E+00 -0.00000000000E+00 -0.17219387564E+03  0.17219387564E+03  0.00000000000E+00 0. -1.
         23    2    1    2    0    0 -0.85188470985E+02 -0.16728386864E+02  0.93765930253E+02  0.17882028940E+03  0.12509089380E+03 0.  0.
         23    2    1    2    0    0  0.85188470985E+02  0.16728386864E+02 -0.99031142029E+02  0.16030225010E+03  0.91393269888E+02 0.  0.
          5    1    3    3  502    0 -0.75757698654E+02  0.23819727297E+02  0.10844678702E+03  0.13447968742E+03  0.41800000000E+01 0.  1.
         -5    1    3    3    0  502 -0.94307723316E+01 -0.40548114161E+02 -0.14680856768E+02  0.44340601983E+02  0.41800000000E+01 0.  1.
        -11    1    4    4    0    0  0.47380903367E+02 -0.36382766546E+02 -0.58053346246E+02  0.83299740190E+02  0.00000000000E+00 0. -1.
         11    1    4    4    0    0  0.37807567619E+02  0.53111153410E+02 -0.40977795783E+02  0.77002509914E+02  0.00000000000E+00 0.  1.
</event>
<event>
 8    1  0.4798744E-006  0.1818555E+03  0.7561462E-02  0.1166019E+00
          1   -1    0    0  501    0  0.00000000000E+00  0.00000000000E+00  0.73667335982E+03  0.73667335982E+03  0.00000000000E+00 0. -1.
         -1   -1    0    0    0  501 -0.00000000000E+00 -0.00000000000E+00 -0.47974709281E+02  0.47974709281E+02  0.00000000000E+00 0.  1.
         23    2    1    2    0    0  0.21431588292E+02 -0.14672319371E+03  0.28143268722E+03  0.34182610989E+03  0.12511484092E+03 0.  0.
         23    2    1    2    0    0 -0.21431588292E+02  0.14672319371E+03  0.40726596331E+03  0.44282195921E+03  0.90767362705E+02 0.  0.
          5    1    3    3  502    0 -0.46427939106E+02 -0.27171688454E+02  0.10568643555E+03  0.11866317559E+03  0.41800000000E+01 0.  1.
         -5    1    3    3    0  502  0.67859527398E+02 -0.11955150526E+03  0.17574625168E+03  0.22316293430E+03  0.41800000000E+01 0.  1.
        -11    1    4    4    0    0 -0.37386680109E+02  0.16229871919E+02  0.72559882337E+02  0.83223248656E+02  0.00000000000E+00 0.  1.
         11    1    4    4    0    0  0.15955091817E+02  0.13049332179E+03  0.33470608098E+03  0.35959871055E+03  0.00000000000E+00 0. -1.
</event>
<event>
 8    1  0.4798744E-006  0.1164375E+03  0.7561462E-02  0.1249093E+00
         -4   -1    0    0    0  501 -0.00000000000E+00  0.00000000000E+00  0.60418125575E+02  0.60418125575E+02  0.00000000000E+00 0.  1.
          4   -1    0    0  501    0  0.00000000000E+00 -0.00000000000E+00 -0.37631764118E+03  0.37631764118E+03  0.00000000000E+00 0. -1.
         23    2    1    2    0    0  0.10349459697E+03 -0.17025822060E+02 -0.14853465943E+03  0.22070510841E+03  0.12508872695E+03 0.  0.
         23    2    1    2    0    0 -0.10349459697E+03  0.17025822060E+02 -0.16736485618E+03  0.21603065834E+03  0.87505657199E+02 0.  0.
          5    1    3    3  502    0  0.16877955351E+02  0.19847949850E+02  0.16171392513E+02  0.30948228154E+02  0.41800000000E+01 0. -1.
         -5    1    3    3    0  502  0.86616641616E+02 -0.36873771911E+02 -0.16470605194E+03  0.18975688026E+03  0.41800000000E+01 0. -1.
        -11    1    4    4    0    0 -0.56308935932E+02 -0.11002674448E+02 -0.23405102840E+02  0.61964134383E+02  0.00000000000E+00 0.  1.
         11    1    4    4    0    0 -0.47185661034E+02  0.28028496508E+02 -0.14395975334E+03  0.15406652396E+03  0.00000000000E+00 0. -1.
</event>
<event>
 8    1  0.4798744E-006  0.6076419E+02  0.7561462E-02  0.1394652E+00
         -1   -1    0    0    0  501 -0.00000000000E+00  0.00000000000E+00  0.66716252265E+02  0.66716252265E+02  0.00000000000E+00 0.  1.
          1   -1    0    0  501    0  0.00000000000E+00 -0.00000000000E+00 -0.19174251996E+03  0.19174251996E+03  0.00000000000E+00 0. -1.
         23    2    1    2    0    0  0.70554097089E+01  0.27892095686E+02 -0.51356566541E+02  0.13824770076E+03  0.12508869665E+03 0.  0.
         23    2    1    2    0    0 -0.70554097089E+01 -0.27892095686E+02 -0.73669701157E+02  0.12021107147E+03  0.90530265813E+02 0.  0.
          5    1    3    3  502    0  0.14226245754E+02  0.25275915342E+02  0.38269297851E+02  0.48200306250E+02  0.41800000000E+01 0.  1.
         -5    1    3    3    0  502 -0.71708360454E+01  0.26161803447E+01 -0.89625864392E+02  0.90047394506E+02  0.41800000000E+01 0.  1.
        -11    1    4    4    0    0 -0.27632635979E+02  0.18170584256E+02 -0.27609384471E+01  0.33186676310E+02  0.00000000000E+00 0.  1.
         11    1    4    4    0    0  0.20577226270E+02 -0.46062679943E+02 -0.70908762710E+02  0.87024395163E+02  0.00000000000E+00 0. -1.
</event>
<event>
 8    1  0.4798744E-006  0.6366159E+02  0.7561462E-02  0.1383078E+00
         -4   -1    0    0    0  501 -0.00000000000E+00  0.00000000000E+00  0.17474942010E+03  0.17474942010E+03  0.00000000000E+00 0.  1.
          4   -1    0    0  501    0  0.00000000000E+00 -0.00000000000E+00 -0.18768503803E+03  0.18768503803E+03  0.00000000000E+00 0. -1.
         23    2    1    2    0    0 -0.91924512068E+01  0.43283040562E+02  0.13547969997E+03  0.18140978606E+03  0.11223563880E+03 0.  0.
         23    2    1    2    0    0  0.91924512068E+01 -0.43283040562E+02 -0.14841531789E+03  0.18102467206E+03  0.93727810983E+02 0.  0.
          5    1    3    3  502    0  0.21908636879E+02  0.15280833329E+01 -0.11702760128E+02  0.25233913751E+02  0.41800000000E+01 0. -1.
         -5    1    3    3    0  502 -0.31101088086E+02  0.41754957229E+02  0.14718246010E+03  0.15617587231E+03  0.41800000000E+01 0.  1.
        -11    1    4    4    0    0  0.15725846597E+02 -0.96014809720E+01  0.85793561428E+01  0.20324764202E+02  0.00000000000E+00 0.  1.
         11    1    4    4    0    0 -0.65333953906E+01 -0.33681559590E+02 -0.15699467403E+03  0.16069990786E+03  0.00000000000E+00 0. -1.
</event>
<event>
 8    1  0.4798744E-006  0.9242972E+02  0.7561462E-02  0.1297072E+00
         -1   -1    0    0    0  501 -0.00000000000E+00  0.00000000000E+00  0.91116467161E+02  0.91116467161E+02  0.00000000000E+00 0.  1.
          1   -1    0    0  501    0  0.00000000000E+00 -0.00000000000E+00 -0.15795194581E+03  0.15795194581E+03  0.00000000000E+00 0. -1.
         23    2    1    2    0    0 -0.41391209962E+02 -0.58654819611E+01 -0.43495948396E+01  0.13196231941E+03  0.12508996214E+03 0.  0.
         23    2    1    2    0    0  0.41391209962E+02  0.58654819611E+01 -0.62485883805E+02  0.11710609356E+03  0.89787055483E+02 0.  0.
          5    1    3    3  502    0 -0.49509927350E+02 -0.54095306892E+02 -0.26532499337E+02  0.78095973360E+02  0.41800000000E+01 0.  1.
         -5    1    3    3    0  502  0.81187173883E+01  0.48229824931E+02  0.22182904498E+02  0.53866346051E+02  0.41800000000E+01 0.  1.
        -11    1    4    4    0    0  0.21093662374E+02  0.26169579499E+02  0.13235830296E+02  0.36124461063E+02  0.00000000000E+00 0.  1.
         11    1    4    4    0    0  0.20297547588E+02 -0.20304097537E+02 -0.75721714101E+02  0.80981632493E+02  0.00000000000E+00 0. -1.
</event>
<event>
 8    1  0.4798744E-006  0.1165653E+03  0.7561462E-02  0.1248873E+00
         -1   -1    0    0    0  501 -0.00000000000E+00  0.00000000000E+00  0.37671581692E+02  0.37671581692E+02  0.00000000000E+00 0.  1.
          1   -1    0    0  501    0  0.00000000000E+00 -0.00000000000E+00 -0.47309383009E+03  0.47309383009E+03  0.00000000000E+00 0. -1.
         23    2    1    2    0    0 -0.61207215102E+02  0.73274453412E+00 -0.14499575520E+03  0.20104484030E+03  0.12509355975E+03 0.  0.
         23    2    1    2    0    0  0.61207215102E+02 -0.73274453412E+00 -0.29042649320E+03  0.30972057148E+03  0.88500985025E+02 0.  0.
          5    1    3    3  502    0 -0.34278588720E+02  0.61836088535E+02 -0.89403674918E+02  0.11405793694E+03  0.41800000000E+01 0. -1.
         -5    1    3    3    0  502 -0.26928626382E+02 -0.61103344001E+02 -0.55592080283E+02  0.86986903365E+02  0.41800000000E+01 0. -1.
        -11    1    4    4    0    0  0.91875069715E+01  0.32432120014E+02 -0.42559277431E+02  0.54291295696E+02  0.00000000000E+00 0.  1.
         11    1    4    4    0    0  0.52019708131E+02 -0.33164864548E+02 -0.24786721577E+03  0.25542927578E+03  0.00000000000E+00 0. -1.
</event>
<event>
 8    1  0.4798744E-006  0.1564564E+03  0.7561462E-02  0.1192756E+00
         -1   -1    0    0    0  501 -0.00000000000E+00  0.00000000000E+00  0.39458218200E+02  0.39458218200E+02  0.00000000000E+00 0.  1.
          1   -1    0    0  501    0  0.00000000000E+00 -0.00000000000E+00 -0.68847336446E+03  0.68847336446E+03  0.00000000000E+00 0. -1.
         23    2    1    2    0    0  0.11920456235E+03  0.25461274726E+02 -0.29550698288E+03  0.34326426576E+03  0.12509186633E+03 0.  0.
         23    2    1    2    0    0 -0.11920456235E+03 -0.25461274726E+02 -0.35350816338E+03  0.38466731690E+03  0.90238123421E+02 0.  0.
          5    1    3    3  502    0 -0.22594255292E+02  0.59187631589E+01 -0.14321899868E+02  0.27715002171E+02  0.41800000000E+01 0. -1.
         -5    1    3    3    0  502  0.14179881764E+03  0.19542511567E+02 -0.28118508301E+03  0.31554926359E+03  0.41800000000E+01 0. -1.
        -11    1    4    4    0    0 -0.22786973262E+02 -0.42357793672E+02 -0.71663920553E+02  0.86308437272E+02  0.00000000000E+00 0.  1.
         11    1    4    4    0    0 -0.96417589089E+02  0.16896518946E+02 -0.28184424282E+03  0.29835887963E+03  0.00000000000E+00 0. -1.
</event>
<event>
 8    1  0.4798744E-006  0.1362718E+03  0.7561462E-02  0.1218435E+00
          1   -1    0    0  501    0  0.00000000000E+00  0.00000000000E+00  0.21918126443E+02  0.21918126443E+02  0.00000000000E+00 0. -1.
         -1   -1    0    0    0  501 -0.00000000000E+00 -0.00000000000E+00 -0.12455519859E+04  0.12455519859E+04  0.00000000000E+00 0.  1.
         23    2    1    2    0    0  0.16844388293E+02 -0.10355481056E+03 -0.92845267857E+03  0.94116595772E+03  0.11296747946E+03 0.  0.
         23    2    1    2    0    0 -0.16844388293E+02  0.10355481056E+03 -0.29518118089E+03  0.32630415463E+03  0.91296985545E+02 0.  0.
          5    1    3    3  502    0 -0.27799526076E+01  0.13692077082E+02 -0.18921067640E+02  0.23888916090E+02  0.41800000000E+01 0. -1.
         -5    1    3    3    0  502  0.19624340901E+02 -0.11724688764E+03 -0.90953161093E+03  0.91727704163E+03  0.41800000000E+01 0.  1.
        -11    1    4    4    0    0 -0.24375627011E+02  0.11918865199E+03 -0.25484293855E+03  0.28239162396E+03  0.00000000000E+00 0. -1.
         11    1    4    4    0    0  0.75312387178E+01 -0.15633841430E+02 -0.40338242340E+02  0.43912530667E+02  0.00000000000E+00 0.  1.
</event>
<event>
 7    1  0.4798744E-006  0.1044428E+03  0.7561462E-02  0.1271221E+00
         -4   -1    0    0    0  501 -0.00000000000E+00  0.00000000000E+00  0.46239877078E+03  0.46239877078E+03  0.00000000000E+00 0.  1.
          4   -1    0    0  501    0  0.00000000000E+00 -0.00000000000E+00 -0.48005738512E+02  0.48005738512E+02  0.00000000000E+00 0. -1.
         23    2    1    2    0    0 -0.45642081251E+02  0.50262039649E+01  0.42086350539E+02  0.11132563165E+03  0.92269567318E+02 0.  0.
          5    1    1    2  502    0  0.27608440295E+02  0.48938498636E+02  0.62855821224E+02  0.84412850242E+02  0.41800000000E+01 0. -1.
         -5    1    1    2    0  502  0.18033640956E+02 -0.53964702601E+02  0.30945086051E+03  0.31466602740E+03  0.41800000000E+01 0.  1.
        -11    1    3    3    0    0  0.74218490396E+01 -0.30657925392E+02 -0.49684019474E+01  0.31932385605E+02  0.00000000000E+00 0.  1.
         11    1    3    3    0    0 -0.53063930291E+02  0.35684129357E+02  0.47054752486E+02  0.79393246044E+02  0.00000000000E+00 0. -1.
</event>
<event>
 8    1  0.4798744E-006  0.8497791E+02  0.7561462E-02  0.1315490E+00
         -1   -1    0    0    0  501 -0.00000000000E+00  0.00000000000E+00  0.18465617622E+03  0.18465617622E+03  0.00000000000E+00 0.  1.
          1   -1    0    0  501    0  0.00000000000E+00 -0.00000000000E+00 -0.81366754245E+02  0.81366754245E+02  0.00000000000E+00 0. -1.
         23    2    1    2    0    0 -0.21278606859E+01 -0.45818310808E+02  0.94759764295E+02  0.16349669031E+03  0.12509160411E+03 0.  0.
         23    2    1    2    0    0  0.21278606859E+01  0.45818310808E+02  0.85296576843E+01  0.10252624015E+03  0.91296382533E+02 0.  0.
          5    1    3    3  502    0  0.19276361509E+02  0.50260887826E+01  0.10523850434E+03  0.10718887478E+03  0.41800000000E+01 0. -1.
         -5    1    3    3    0  502 -0.21404222195E+02 -0.50844399590E+02 -0.10478740041E+02  0.56307815535E+02  0.41800000000E+01 0. -1.
        -11    1    4    4    0    0 -0.10222350605E+02  0.68066997907E+02  0.23824313993E+02  0.72836876602E+02  0.00000000000E+00 0.  1.
         11    1    4    4    0    0  0.12350211291E+02 -0.22248687099E+02 -0.15294656309E+02  0.29689363553E+02  0.00000000000E+00 0. -1.
</event>
<event>
 8    1  0.4798744E-006  0.7508102E+02  0.7561462E-02  0.1343620E+00
          1   -1    0    0  501    0  0.00000000000E+00  0.00000000000E+00  0.11566895359E+03  0.11566895359E+03  0.00000000000E+00 0. -1.
         -1   -1    0    0    0  501 -0.00000000000E+00 -0.00000000000E+00 -0.19743052393E+03  0.19743052393E+03  0.00000000000E+00 0.  1.
         23    2    1    2    0    0  0.43177346895E+02  0.34627199694E+02 -0.13806318672E+03  0.19435004708E+03  0.12508865268E+03 0.  0.
         23    2    1    2    0    0 -0.43177346895E+02 -0.34627199694E+02  0.56301616379E+02  0.11874943043E+03  0.88703038155E+02 0.  0.
          5    1    3    3  502    0  0.11115865527E+02  0.85678688616E+01 -0.15033587702E+03  0.15104740700E+03  0.41800000000E+01 0.  1.
         -5    1    3    3    0  502  0.32061481368E+02  0.26059330833E+02  0.12272690295E+02  0.43302640082E+02  0.41800000000E+01 0.  1.
        -11    1    4    4    0    0 -0.55632135572E+02 -0.49587982942E+02  0.19368677094E+02  0.77000313071E+02  0.00000000000E+00 0.  1.
         11    1    4    4    0    0  0.12454788677E+02  0.14960783248E+02  0.36932939284E+02  0.41749117363E+02  0.00000000000E+00 0. -1.
</event>
<event>
 8    1  0.4798744E-006  0.1037020E+03  0.7561462E-02  0.1272698E+00
          1   -1    0    0  501    0  0.00000000000E+00  0.00000000000E+00  0.72793115130E+02  0.72793115130E+02  0.00000000000E+00 0. -1.
         -1   -1    0    0    0  501 -0.00000000000E+00 -0.00000000000E+00 -0.18585036629E+03  0.18585036629E+03  0.00000000000E+00 0.  1.
         23    2    1    2    0    0 -0.20195778343E+02  0.32434422087E+02 -0.86618297477E+02  0.15687920473E+03  0.12509394158E+03 0.  0.
         23    2    1    2    0    0  0.20195778343E+02 -0.32434422087E+02 -0.26438953687E+02  0.10176427669E+03  0.90537774106E+02 0.  0.
          5    1    3    3  502    0  0.33808517186E+02 -0.18450376503E+02 -0.71082549584E+02  0.80954514900E+02  0.41800000000E+01 0.  1.
         -5    1    3    3    0  502 -0.54004295529E+02  0.50884798590E+02 -0.15535747893E+02  0.75924689830E+02  0.41800000000E+01 0.  1.
        -11    1    4    4    0    0 -0.34119137062E+02 -0.15282801253E+02  0.32608218057E+01  0.37527489749E+02  0.00000000000E+00 0. -1.
         11    1    4    4    0    0  0.54314915405E+02 -0.17151620834E+02 -0.29699775493E+02  0.64236786945E+02  0.00000000000E+00 0.  1.
</event>
<event>
 8    1  0.4798744E-006  0.1070728E+03  0.7561462E-02  0.1266089E+00
          1   -1    0    0  501    0  0.00000000000E+00  0.00000000000E+00  0.47911705154E+03  0.47911705154E+03  0.00000000000E+00 0. -1.
         -1   -1    0    0    0  501 -0.00000000000E+00 -0.00000000000E+00 -0.32916598277E+02  0.32916598277E+02  0.00000000000E+00 0.  1.
         23    2    1    2    0    0 -0.15791192008E+02 -0.55735948487E+02  0.19635913364E+03  0.23990469911E+03  0.12506597295E+03 0.  0.
         23    2    1    2    0    0  0.15791192008E+02  0.55735948487E+02  0.24984131962E+03  0.27212895071E+03  0.90981443855E+02 0.  0.
          5    1    3    3  502    0 -0.53026577549E+02 -0.26381080619E+02  0.29324965206E+02  0.66220882851E+02  0.41800000000E+01 0.  1.
         -5    1    3    3    0  502  0.37235385541E+02 -0.29354867868E+02  0.16703416844E+03  0.17368381626E+03  0.41800000000E+01 0.  1.
        -11    1    4    4    0    0 -0.18233442112E+02  0.68460222751E+02  0.17916154661E+03  0.19266063504E+03  0.00000000000E+00 0.  1.
         11    1    4    4    0    0  0.34024634120E+02 -0.12724274264E+02  0.70679773005E+02  0.79468315665E+02  0.00000000000E+00 0. -1.
</event>
<event>
 8    1  0.4798744E-006  0.1253272E+03  0.7561462E-02  0.1234559E+00
         -3   -1    0    0    0  501 -0.00000000000E+00  0.00000000000E+00  0.19955082935E+03  0.19955082935E+03  0.00000000000E+00 0.  1.
          3   -1    0    0  501    0  0.00000000000E+00 -0.00000000000E+00 -0.10912051649E+03  0.10912051649E+03  0.00000000000E+00 0. -1.
         23    2    1    2    0    0 -0.89511995237E+02 -0.28772472207E+02  0.84648668113E+02  0.17791384663E+03  0.12509071652E+03 0.  0.
         23    2    1    2    0    0  0.89511995237E+02  0.28772472207E+02  0.57816447491E+01  0.13075749921E+03  0.90685410816E+02 0.  0.
          5    1    3    3  502    0 -0.19610682965E+02 -0.65867597612E+02  0.10991508490E+02  0.69723776148E+02  0.41800000000E+01 0.  1.
         -5    1    3    3    0  502 -0.69901312271E+02  0.37095125404E+02  0.73657159624E+02  0.10819007048E+03  0.41800000000E+01 0.  1.
        -11    1    4    4    0    0  0.34984603521E+02  0.32702229859E+02  0.43211691499E+02  0.64502779812E+02  0.00000000000E+00 0.  1.
         11    1    4    4    0    0  0.54527391716E+02 -0.39297576513E+01 -0.37430046750E+02  0.66254719396E+02  0.00000000000E+00 0. -1.
</event>
<event>
 8    1  0.4798744E-006  0.1056499E+03  0.7561462E-02  0.1268844E+00
         -1   -1    0    0    0  501 -0.00000000000E+00  0.00000000000E+00  0.16062570811E+03  0.16062570811E+03  0.00000000000E+00 0.  1.
          1   -1    0    0  501    0  0.00000000000E+00 -0.00000000000E+00 -0.24051216012E+03  0.24051216012E+03  0.00000000000E+00 0. -1.
         23    2    1    2    0    0  0.78940004105E+02 -0.24580043406E+01  0.10456305505E+03  0.18115922013E+03  0.12509062524E+03 0.  0.
         23    2    1    2    0    0 -0.78940004105E+02  0.24580043406E+01 -0.18444950706E+03  0.21997864810E+03  0.90174380677E+02 0.  0.
          5    1    3    3  502    0 -0.24390882104E+02 -0.12812521593E+02 -0.69517803093E+01  0.28720645690E+02  0.41800000000E+01 0.  1.
         -5    1    3    3    0  502  0.10333088621E+03  0.10354517252E+02  0.11151483536E+03  0.15243857444E+03  0.41800000000E+01 0.  1.
        -11    1    4    4    0    0 -0.58590272746E+02  0.58063355296E+01 -0.18975866375E+03  0.19868287310E+03  0.00000000000E+00 0. -1.
         11    1    4    4    0    0 -0.20349731359E+02 -0.33483311890E+01  0.53091566916E+01  0.21295775001E+02  0.00000000000E+00 0.  1.
</event>
<event>
 8    1  0.4798744E-006  0.1482492E+03  0.7561462E-02  0.1202641E+00
         -1   -1    0    0    0  501 -0.00000000000E+00  0.00000000000E+00  0.36318303882E+02  0.36318303882E+02  0.00000000000E+00 0.  1.
          1   -1    0    0  501    0  0.00000000000E+00 -0.00000000000E+00 -0.83082321052E+03  0.83082321052E+03  0.00000000000E+00 0. -1.
         23    2    1    2    0    0 -0.10640811865E+03 -0.80477395759E+02 -0.47721560192E+03  0.51105900603E+03  0.12508908018E+03 0.  0.
         23    2    1    2    0    0  0.10640811865E+03  0.80477395759E+02 -0.31728930471E+03  0.35608250837E+03  0.91230208489E+02 0.  0.
          5    1    3    3  502    0 -0.88629780417E+02 -0.46861742208E+02 -0.45680965775E+03  0.46770054167E+03  0.41800000000E+01 0.  1.
         -5    1    3    3    0  502 -0.17778338235E+02 -0.33615653551E+02 -0.20405944168E+02  0.43358464358E+02  0.41800000000E+01 0.  1.
        -11    1    4    4    0    0 -0.44808175115E+01  0.39388022120E+02 -0.11646185030E+03  0.12302380496E+03  0.00000000000E+00 0. -1.
         11    1    4    4    0    0  0.11088893616E+03  0.41089373639E+02 -0.20082745441E+03  0.23305870341E+03  0.00000000000E+00 0.  1.
</event>
<event>
 8    1  0.4798744E-006  0.1177681E+03  0.7561462E-02  0.1246825E+00
          2   -1    0    0  501    0  0.00000000000E+00  0.00000000000E+00  0.14370621641E+03  0.14370621641E+03  0.00000000000E+00 0. -1.
         -2   -1    0    0    0  501 -0.00000000000E+00 -0.00000000000E+00 -0.10765931206E+03  0.10765931206E+03  0.00000000000E+00 0.  1.
         23    2    1    2    0    0  0.62587774106E+01 -0.52410720023E+02  0.30496253261E+02  0.13916609044E+03  0.12510444995E+03 0.  0.
         23    2    1    2    0    0 -0.62587774106E+01  0.52410720023E+02  0.55506510887E+01  0.11219943802E+03  0.98852659528E+02 0.  0.
          5    1    3    3  502    0 -0.51877530177E+02 -0.45816194130E+02 -0.67739052082E+01  0.69668931193E+02  0.41800000000E+01 0.  1.
         -5    1    3    3    0  502  0.58136307587E+02 -0.65945258932E+01  0.37270158469E+02  0.69497159251E+02  0.41800000000E+01 0.  1.
        -11    1    4    4    0    0 -0.10575608856E+02  0.79453346795E+02  0.17947985895E+02  0.82138955541E+02  0.00000000000E+00 0. -1.
         11    1    4    4    0    0  0.43168314455E+01 -0.27042626772E+02 -0.12397334806E+02  0.30060482477E+02  0.00000000000E+00 0.  1.
</event>
<event>
 8    1  0.4798744E-006  0.1446493E+03  0.7561462E-02  0.1207206E+00
         -1   -1    0    0    0  501 -0.00000000000E+00  0.00000000000E+00  0.38673029385E+02  0.38673029385E+02  0.00000000000E+00 0.  1.
          1   -1    0    0  501    0  0.00000000000E+00 -0.00000000000E+00 -0.58887456351E+03  0.58887456351E+03  0.00000000000E+00 0. -1.
         23    2    1    2    0    0  0.10480576439E+03  0.16676626898E+02 -0.27477470251E+03  0.32001753877E+03  0.12509088633E+03 0.  0.
         23    2    1    2    0    0 -0.10480576439E+03 -0.16676626898E+02 -0.27542683161E+03  0.30753005413E+03  0.86327495551E+02 0.  0.
          5    1    3    3  502    0  0.41974572500E+02 -0.48725624737E+02 -0.65461630696E+02  0.91862662361E+02  0.41800000000E+01 0. -1.
         -5    1    3    3    0  502  0.62831191890E+02  0.65402251635E+02 -0.20931307182E+03  0.22815487640E+03  0.41800000000E+01 0. -1.
        -11    1    4    4    0    0 -0.95265399121E+02 -0.44135485717E+02 -0.23808594326E+03  0.26020828916E+03  0.00000000000E+00 0. -1.
         11    1    4    4    0    0 -0.95403652688E+01  0.27458858819E+02 -0.37340888350E+02  0.47321764970E+02  0.00000000000E+00 0.  1.
</event>
<event>
 8    1  0.4798744E-006  0.1098255E+03  0.7561462E-02  0.1260893E+00
         -2   -1    0    0    0  501 -0.00000000000E+00  0.00000000000E+00  0.94896838446E+02  0.94896838446E+02  0.00000000000E+00 0.  1.
          2   -1    0    0  501    0  0.00000000000E+00 -0.00000000000E+00 -0.13068154194E+03  0.13068154194E+03  0.00000000000E+00 0. -1.
         23    2    1    2    0    0 -0.42641008571E+01 -0.11015758391E+02 -0.16655363919E+02  0.12674206142E+03  0.12508644809E+03 0.  0.
         23    2    1    2    0    0  0.42641008571E+01  0.11015758391E+02 -0.19129339575E+02  0.98836318965E+02  0.96245295079E+02 0.  0.
          5    1    3    3  502    0  0.58118809123E+02  0.10569642579E+02 -0.12085147974E+02  0.60440355059E+02  0.41800000000E+01 0. -1.
         -5    1    3    3    0  502 -0.62382909980E+02 -0.21585400971E+02 -0.45702159446E+01  0.66301706361E+02  0.41800000000E+01 0. -1.
        -11    1    4    4    0    0  0.16247128242E+02 -0.39320142282E+02  0.28041471909E+01  0.42636908971E+02  0.00000000000E+00 0.  1.
         11    1    4    4    0    0 -0.11983027385E+02  0.50335900673E+02 -0.21933486766E+02  0.56199409993E+02  0.00000000000E+00 0. -1.
</event>
<event>
 8    1  0.4798744E-006  0.1061477E+03  0.7561462E-02  0.1267875E+00
         -1   -1    0    0    0  501 -0.00000000000E+00  0.00000000000E+00  0.94649750745E+03  0.94649750745E+03  0.00000000000E+00 0.  1.
          1   -1    0    0  501    0  0.00000000000E+00 -0.00000000000E+00 -0.20258973089E+02  0.20258973089E+02  0.00000000000E+00 0. -1.
         23    2    1    2    0    0  0.32918451779E+02 -0.23067598909E+02  0.76789184969E+03  0.77905093366E+03  0.12508687309E+03 0.  0.
         23    2    1    2    0    0 -0.32918451779E+02  0.23067598909E+02  0.15834668467E+03  0.18770554688E+03  0.92433550175E+02 0.  0.
          5    1    3    3  502    0  0.15170552254E+02 -0.66968977403E+02  0.61761809575E+03  0.62143750626E+03  0.41800000000E+01 0.  1.
         -5    1    3    3    0  502  0.17747899525E+02  0.43901378495E+02  0.15027375394E+03  0.15761342740E+03  0.41800000000E+01 0.  1.
        -11    1    4    4    0    0 -0.36396279316E+02  0.53844959834E+02  0.13163449418E+03  0.14680466241E+03  0.00000000000E+00 0. -1.
         11    1    4    4    0    0  0.34778275368E+01 -0.30777360925E+02  0.26712190491E+02  0.40900884474E+02  0.00000000000E+00 0.  1.
</event>
<event>
 8    1  0.4798744E-006  0.1034605E+03  0.7561462E-02  0.1273183E+00
          2   -1    0    0  501    0  0.00000000000E+00  0.00000000000E+00  0.12262591323E+03  0.12262591323E+03  0.00000000000E+00 0. -1.
         -2   -1    0    0    0  501 -0.00000000000E+00 -0.00000000000E+00 -0.12611065660E+03  0.12611065660E+03  0.00000000000E+00 0.  1.
         23    2    1    2    0    0  0.93722501509E+01 -0.49285402618E+02 -0.36498264210E+02  0.13962975717E+03  0.12508979100E+03 0.  0.
         23    2    1    2    0    0 -0.93722501509E+01  0.49285402618E+02  0.33013520844E+02  0.10910681266E+03  0.91090691219E+02 0.  0.
          5    1    3    3  502    0 -0.26541239138E+02 -0.76542418060E+02  0.55349071112E+00  0.81123103302E+02  0.41800000000E+01 0.  1.
         -5    1    3    3    0  502  0.35913489289E+02  0.27257015442E+02 -0.37051754921E+02  0.58506653864E+02  0.41800000000E+01 0.  1.
        -11    1    4    4    0    0  0.40309872423E+01 -0.14650561368E+02  0.40592128775E+02  0.43342920126E+02  0.00000000000E+00 0. -1.
         11    1    4    4    0    0 -0.13403237393E+02  0.63935963986E+02 -0.75786079313E+01  0.65763892537E+02  0.00000000000E+00 0.  1.
</event>
<event>
 8    1  0.4798744E-006  0.1438217E+03  0.7561462E-02  0.1208277E+00
         -1   -1    0    0    0  501 -0.00000000000E+00  0.00000000000E+00  0.97198869504E+02  0.97198869504E+02  0.00000000000E+00 0.  1.
          1   -1    0    0  501    0  0.00000000000E+00 -0.00000000000E+00 -0.26286609592E+03  0.26286609592E+03  0.00000000000E+00 0. -1.
         23    2    1    2    0    0 -0.90366426220E+02 -0.70525585698E+02 -0.60579796499E+02  0.18015614032E+03  0.12508546648E+03 0.  0.
         23    2    1    2    0    0  0.90366426220E+02  0.70525585698E+02 -0.10508742992E+03  0.17990882511E+03  0.90464734560E+02 0.  0.
          5    1    3    3  502    0 -0.17859991615E+02 -0.71688304800E+02 -0.75812876681E+02  0.10593987453E+03  0.41800000000E+01 0. -1.
         -5    1    3    3    0  502 -0.72506434605E+02  0.11627191024E+01  0.15233080183E+02  0.74216265782E+02  0.41800000000E+01 0. -1.
        -11    1    4    4    0    0 -0.15623506450E+02  0.50170915662E+01  0.74868802273E+00  0.16426371947E+02  0.00000000000E+00 0. -1.
         11    1    4    4    0    0  0.10598993267E+03  0.65508494131E+02 -0.10583611794E+03  0.16348245316E+03  0.00000000000E+00 0.  1.
</event>
<event>
 8    1  0.4798744E-006  0.9488429E+02  0.7561462E-02  0.1291437E+00
         -1   -1    0    0    0  501 -0.00000000000E+00  0.00000000000E+00  0.17621276641E+03  0.17621276641E+03  0.00000000000E+00 0.  1.
          1   -1    0    0  501    0  0.00000000000E+00 -0.00000000000E+00 -0.86890345254E+02  0.86890345254E+02  0.00000000000E+00 0. -1.
         23    2    1    2    0    0 -0.24814348788E+02 -0.42323420760E+02  0.71360909663E+02  0.15216685606E+03  0.12512133633E+03 0.  0.
         23    2    1    2    0    0  0.24814348788E+02  0.42323420760E+02  0.17961511494E+02  0.11093625560E+03  0.97863236513E+02 0.  0.
          5    1    3    3  502    0 -0.57050109897E+02 -0.29618742806E+02 -0.85366193237E+01  0.64979467789E+02  0.41800000000E+01 0. -1.
         -5    1    3    3    0  502  0.32235761109E+02 -0.12704677954E+02  0.79897528987E+02  0.87187388276E+02  0.41800000000E+01 0. -1.
        -11    1    4    4    0    0 -0.23624230663E+02  0.33848904286E+02 -0.22718218132E+02  0.47116557927E+02  0.00000000000E+00 0. -1.
         11    1    4    4    0    0  0.48438579450E+02  0.84745164734E+01  0.40679729626E+02  0.63819697673E+02  0.00000000000E+00 0.  1.
</event>
<event>
 8    1  0.4798744E-006  0.8257133E+02  0.7561462E-02  0.1321909E+00
          2   -1    0    0  501    0  0.00000000000E+00  0.00000000000E+00  0.14227978550E+03  0.14227978550E+03  0.00000000000E+00 0. -1.
         -2   -1    0    0    0  501 -0.00000000000E+00 -0.00000000000E+00 -0.93198759926E+02  0.93198759926E+02  0.00000000000E+00 0.  1.
         23    2    1    2    0    0 -0.94562703542E+01 -0.19948031010E+02 -0.86630131816E+01  0.12731900333E+03  0.12509091023E+03 0.  0.
         23    2    1    2    0    0  0.94562703542E+01  0.19948031010E+02  0.57744038757E+02  0.10815954209E+03  0.88751155167E+02 0.  0.
          5    1    3    3  502    0 -0.48959342371E+02 -0.12709494687E+02  0.39612807568E+02  0.64383191781E+02  0.41800000000E+01 0.  1.
         -5    1    3    3    0  502  0.39503072016E+02 -0.72385363233E+01 -0.48275820749E+02  0.62935811553E+02  0.41800000000E+01 0.  1.
        -11    1    4    4    0    0  0.58541255505E+01 -0.26643898845E+02 -0.71404002253E+01  0.28198465331E+02  0.00000000000E+00 0.  1.
         11    1    4    4    0    0  0.36021448038E+01  0.46591929855E+02  0.64884438983E+02  0.79961076762E+02  0.00000000000E+00 0. -1.
</event>
<event>
 8    1  0.4798744E-006  0.1211846E+03  0.7561462E-02  0.1241156E+00
          1   -1    0    0  501    0  0.00000000000E+00  0.00000000000E+00  0.10053349490E+04  0.10053349490E+04  0.00000000000E+00 0. -1.
         -1   -1    0    0    0  501 -0.00000000000E+00 -0.00000000000E+00 -0.26932094644E+02  0.26932094644E+02  0.00000000000E+00 0.  1.
         23    2    1    2    0    0  0.94558721995E+02  0.24029281003E+02  0.23955627527E+03  0.28163384261E+03  0.11140760311E+03 0.  0.
         23    2    1    2    0    0 -0.94558721995E+02 -0.24029281003E+02  0.73884657913E+03  0.75063320108E+03  0.89650302936E+02 0.  0.
          5    1    3    3  502    0  0.48277382964E+02  0.37973658431E+02  0.22145025450E+03  0.22984862858E+03  0.41800000000E+01 0. -1.
         -5    1    3    3    0  502  0.46281339031E+02 -0.13944377428E+02  0.18106020768E+02  0.51785214032E+02  0.41800000000E+01 0.  1.
        -11    1    4    4    0    0  0.17480314651E+02 -0.75594468744E+01  0.92320328215E+02  0.94264254302E+02  0.00000000000E+00 0.  1.
         11    1    4    4    0    0 -0.11203903665E+03 -0.16469834129E+02  0.64652625092E+03  0.65636894678E+03  0.00000000000E+00 0. -1.
</event>
<event>
 8    1  0.4798744E-006  0.8466093E+02  0.7561462E-02  0.1316322E+00
         -2   -1    0    0    0  501 -0.00000000000E+00  0.00000000000E+00  0.12475139216E+03  0.12475139216E+03  0.00000000000E+00 0.  1.
          2   -1    0    0  501    0  0.00000000000E+00 -0.00000000000E+00 -0.11452726188E+03  0.11452726188E+03  0.00000000000E+00 0. -1.
         23    2    1    2    0    0 -0.20443952017E+02  0.59382048077E+02  0.13971925770E+02  0.14066795106E+03  0.12509226570E+03 0.  0.
         23    2    1    2    0    0  0.20443952017E+02 -0.59382048077E+02 -0.37477954902E+01  0.98610702972E+02  0.75933141393E+02 0.  0.
          5    1    3    3  502    0 -0.93695157188E+01  0.68149599308E+02  0.60598167892E+02  0.91770180682E+02  0.41800000000E+01 0. -1.
         -5    1    3    3    0  502 -0.11074436299E+02 -0.87675512306E+01 -0.46626242122E+02  0.48897770382E+02  0.41800000000E+01 0. -1.
        -11    1    4    4    0    0  0.39794511357E+02 -0.27475686839E+02  0.22149063788E+02  0.53189261398E+02  0.00000000000E+00 0.  1.
         11    1    4    4    0    0 -0.19350559339E+02 -0.31906361238E+02 -0.25896859279E+02  0.45421441574E+02  0.00000000000E+00 0. -1.
</event>
<event>
 7    1  0.4798744E-006  0.1507533E+03  0.7561462E-02  0.1199550E+00
          2   -1    0    0  501    0  0.00000000000E+00  0.00000000000E+00  0.71079043693E+03  0.71079043693E+03  0.00000000000E+00 0. -1.
         -2   -1    0    0    0  501 -0.00000000000E+00 -0.00000000000E+00 -0.34579253464E+02  0.34579253464E+02  0.00000000000E+00 0.  1.
         23    2    1    2    0    0 -0.86272340312E+02 -0.31975491151E+02  0.37409720626E+03  0.39591506007E+03  0.91294393700E+02 0.  0.
          5    1    1    2  502    0 -0.16931435166E+02  0.62565024312E+02  0.14585091969E+03  0.15965907095E+03  0.41800000000E+01 0. -1.
         -5    1    1    2    0  502  0.10320377548E+03 -0.30589533161E+02  0.15626305752E+03  0.18979555937E+03  0.41800000000E+01 0.  1.
        -11    1    3    3    0    0 -0.19816593498E+02  0.31317240757E+02  0.12824161539E+03  0.13348924625E+03  0.00000000000E+00 0. -1.
         11    1    3    3    0    0 -0.66455746814E+02 -0.63292731908E+02  0.24585559087E+03  0.26242581382E+03  0.00000000000E+00 0.  1.
</event>
<event>
 8    1  0.4798744E-006  0.1399719E+03  0.7561462E-02  0.1213367E+00
         -4   -1    0    0    0  501 -0.00000000000E+00  0.00000000000E+00  0.16600978948E+03  0.16600978948E+03  0.00000000000E+00 0.  1.
          4   -1    0    0  501    0  0.00000000000E+00 -0.00000000000E+00 -0.15130284214E+03  0.15130284214E+03  0.00000000000E+00 0. -1.
         23    2    1    2    0    0  0.90727053647E+02  0.52148247237E+02  0.59537725631E+02  0.17361743443E+03  0.12508970706E+03 0.  0.
         23    2    1    2    0    0 -0.90727053647E+02 -0.52148247237E+02 -0.44830778283E+02  0.14369519719E+03  0.87679376480E+02 0.  0.
          5    1    3    3  502    0  0.90376287650E+01 -0.34037857337E+02 -0.88074821395E+01  0.36541737882E+02  0.41800000000E+01 0. -1.
         -5    1    3    3    0  502  0.81689424882E+02  0.86186104574E+02  0.68345207770E+02  0.13707569655E+03  0.41800000000E+01 0. -1.
        -11    1    4    4    0    0 -0.20836481398E+02  0.17334991011E+02 -0.35553433835E+02  0.44706906937E+02  0.00000000000E+00 0. -1.
         11    1    4    4    0    0 -0.69890572250E+02 -0.69483238248E+02 -0.92773444483E+01  0.98988290251E+02  0.00000000000E+00 0.  1.
</event>
<event>
 8    1  0.4798744E-006  0.1095174E+03  0.7561462E-02  0.1261466E+00
          2   -1    0    0  501    0  0.00000000000E+00  0.00000000000E+00  0.70583321557E+03  0.70583321557E+03  0.00000000000E+00 0.  1.
         -2   -1    0    0    0  501 -0.00000000000E+00 -0.00000000000E+00 -0.18377192565E+02  0.18377192565E+02  0.00000000000E+00 0. -1.
         23    2    1    2    0    0 -0.14871299972E+02  0.17344365794E+02  0.30438975644E+03  0.32988225197E+03  0.12508874353E+03 0.  0.
         23    2    1    2    0    0  0.14871299972E+02 -0.17344365794E+02  0.38306626657E+03  0.39432815616E+03  0.90735591531E+02 0.  0.
          5    1    3    3  502    0  0.25565131791E+02 -0.45147715469E+02  0.11022398867E+03  0.12189623560E+03  0.41800000000E+01 0. -1.
         -5    1    3    3    0  502 -0.40436431763E+02  0.62492081263E+02  0.19416576777E+03  0.20798601637E+03  0.41800000000E+01 0. -1.
        -11    1    4    4    0    0 -0.27063490871E+02  0.22040133969E+02  0.17549044563E+03  0.17892762936E+03  0.00000000000E+00 0. -1.
         11    1    4    4    0    0  0.41934790843E+02 -0.39384499764E+02  0.20757582094E+03  0.21540052680E+03  0.00000000000E+00 0.  1.
</event>
<event>
 8    1  0.4798744E-006  0.1469804E+03  0.7561462E-02  0.1204233E+00
          1   -1    0    0  501    0  0.00000000000E+00  0.00000000000E+00  0.14489302670E+03  0.14489302670E+03  0.00000000000E+00 0. -1.
         -1   -1    0    0    0  501 -0.00000000000E+00 -0.00000000000E+00 -0.16479460549E+03  0.16479460549E+03  0.00000000000E+00 0.  1.
         23    2    1    2    0    0 -0.33118112225E+02  0.10189080213E+03 -0.35860269652E+02  0.16855945198E+03  0.12509110678E+03 0.  0.
         23    2    1    2    0    0  0.33118112225E+02 -0.10189080213E+03  0.15958690865E+02  0.14112818022E+03  0.90465123233E+02 0.  0.
          5    1    3    3  502    0  0.12570263410E+02  0.10843926276E+03 -0.49946740943E+02  0.12012174891E+03  0.41800000000E+01 0. -1.
         -5    1    3    3    0  502 -0.45688375635E+02 -0.65484606316E+01  0.14086471290E+02  0.48437703065E+02  0.41800000000E+01 0. -1.
        -11    1    4    4    0    0  0.83420299321E+01  0.15925461728E+02  0.10035507078E+02  0.20589346686E+02  0.00000000000E+00 0.  1.
         11    1    4    4    0    0  0.24776082293E+02 -0.11781626386E+03  0.59231837869E+01  0.12053883353E+03  0.00000000000E+00 0. -1.
</event>
<event>
 8    1  0.4798744E-006  0.2004421E+03  0.7561462E-02  0.1149367E+00
          1   -1    0    0  501    0  0.00000000000E+00  0.00000000000E+00  0.75322040867E+03  0.75322040867E+03  0.00000000000E+00 0. -1.
         -1   -1    0    0    0  501 -0.00000000000E+00 -0.00000000000E+00 -0.57825084133E+02  0.57825084133E+02  0.00000000000E+00 0.  1.
         23    2    1    2    0    0  0.17593521164E+03  0.96295575500E+01  0.31631938939E+03  0.38308340722E+03  0.12509601795E+03 0.  0.
         23    2    1    2    0    0 -0.17593521164E+03 -0.96295575500E+01  0.37907593514E+03  0.42796208558E+03  0.91689994073E+02 0.  0.
          5    1    3    3  502    0  0.66139449997E+02  0.52829297247E+02  0.69964477081E+02  0.10989932642E+03  0.41800000000E+01 0.  1.
         -5    1    3    3    0  502  0.10979576165E+03 -0.43199739697E+02  0.24635491231E+03  0.27318408081E+03  0.41800000000E+01 0.  1.
        -11    1    4    4    0    0 -0.16491213552E+03 -0.36607910353E+02  0.33393517214E+03  0.37423101252E+03  0.00000000000E+00 0. -1.
         11    1    4    4    0    0 -0.11023076128E+02  0.26978352803E+02  0.45140762999E+02  0.53731073053E+02  0.00000000000E+00 0.  1.
</event>
<event>
 8    1  0.4798744E-006  0.8740065E+02  0.7561462E-02  0.1309271E+00
          2   -1    0    0  501    0  0.00000000000E+00  0.00000000000E+00  0.21390205325E+03  0.21390205325E+03  0.00000000000E+00 0. -1.
         -2   -1    0    0    0  501 -0.00000000000E+00 -0.00000000000E+00 -0.74443441717E+02  0.74443441717E+02  0.00000000000E+00 0.  1.
         23    2    1    2    0    0 -0.32921368734E+02 -0.31026382234E+02  0.25994166493E+02  0.13553533336E+03  0.12509067504E+03 0.  0.
         23    2    1    2    0    0  0.32921368734E+02  0.31026382234E+02  0.11346444504E+03  0.15281016161E+03  0.91816732079E+02 0.  0.
          5    1    3    3  502    0 -0.50801501889E+02 -0.28279970835E+02 -0.37546264999E+02  0.69337895555E+02  0.41800000000E+01 0.  1.
         -5    1    3    3    0  502  0.17880133155E+02 -0.27464113989E+01  0.63540431492E+02  0.66197437801E+02  0.41800000000E+01 0.  1.
        -11    1    4    4    0    0  0.58595764439E+02  0.39772679409E+02  0.99977636794E+02  0.12251880466E+03  0.00000000000E+00 0. -1.
         11    1    4    4    0    0 -0.25674395705E+02 -0.87462971754E+01  0.13486808250E+02  0.30291356950E+02  0.00000000000E+00 0.  1.
</event>
<event>
 8    1  0.4798744E-006  0.7903259E+02  0.7561462E-02  0.1331819E+00
          1   -1    0    0  501    0  0.00000000000E+00  0.00000000000E+00  0.25815453000E+03  0.25815453000E+03  0.00000000000E+00 0. -1.
         -1   -1    0    0    0  501 -0.00000000000E+00 -0.00000000000E+00 -0.60014561045E+02  0.60014561045E+02  0.00000000000E+00 0.  1.
         23    2    1    2    0    0 -0.23549303177E+02  0.50901700142E+02  0.69346167889E+02  0.15362774239E+03  0.12508812683E+03 0.  0.
         23    2    1    2    0    0  0.23549303177E+02 -0.50901700142E+02  0.12879380107E+03  0.16454134866E+03  0.85676481411E+02 0.  0.
          5    1    3    3  502    0  0.24031810486E+02  0.21776165544E+02  0.88617329005E+02  0.94457570904E+02  0.41800000000E+01 0. -1.
         -5    1    3    3    0  502 -0.47581113663E+02  0.29125534598E+02 -0.19271161116E+02  0.59170171487E+02  0.41800000000E+01 0. -1.
        -11    1    4    4    0    0 -0.11549198331E+02 -0.17522423248E+02 -0.55708540895E+01  0.21712984914E+02  0.00000000000E+00 0.  1.
         11    1    4    4    0    0  0.35098501508E+02 -0.33379276894E+02  0.13436465516E+03  0.14282836374E+03  0.00000000000E+00 0. -1.
</event>
<event>
 7    1  0.4798744E-006  0.6060586E+02  0.7561462E-02  0.1395307E+00
         -4   -1    0    0    0  501 -0.00000000000E+00  0.00000000000E+00  0.33793502415E+03  0.33793502415E+03  0.00000000000E+00 0.  1.
          4   -1    0    0  501    0  0.00000000000E+00 -0.00000000000E+00 -0.34079943748E+02  0.34079943748E+02  0.00000000000E+00 0. -1.
         23    2    1    2    0    0 -0.35017888077E+02 -0.52988465305E+01  0.92695429288E+02  0.11662968351E+03  0.61283849455E+02 0.  0.
          5    1    1    2  502    0  0.36168323621E+02  0.16883324814E+02 -0.35774454229E+01  0.40292242505E+02  0.41800000000E+01 0. -1.
         -5    1    1    2    0  502 -0.11504355447E+01 -0.11584478284E+02  0.21473709654E+03  0.21509304189E+03  0.41800000000E+01 0.  1.
        -11    1    3    3    0    0 -0.23659761119E+02  0.26154507209E+02  0.33506543549E+02  0.48647004061E+02  0.00000000000E+00 0. -1.
         11    1    3    3    0    0 -0.11358126958E+02 -0.31453353740E+02  0.59188885739E+02  0.67982679445E+02  0.00000000000E+00 0.  1.
</event>
<event>
 8    1  0.4798744E-006  0.8306553E+02  0.7561462E-02  0.1320570E+00
         -3   -1    0    0    0  501 -0.00000000000E+00  0.00000000000E+00  0.34628126686E+02  0.34628126686E+02  0.00000000000E+00 0.  1.
          3   -1    0    0  501    0  0.00000000000E+00 -0.00000000000E+00 -0.38513841291E+03  0.38513841291E+03  0.00000000000E+00 0. -1.
         23    2    1    2    0    0 -0.59467338478E+01 -0.38847668312E+02 -0.20410406458E+03  0.24259138540E+03  0.12509039179E+03 0.  0.
         23    2    1    2    0    0  0.59467338478E+01  0.38847668312E+02 -0.14640622165E+03  0.17717515419E+03  0.91715585094E+02 0.  0.
          5    1    3    3  502    0 -0.97939632294E+01  0.37011976996E+02 -0.13299592038E+03  0.13846008592E+03  0.41800000000E+01 0. -1.
         -5    1    3    3    0  502  0.38472293816E+01 -0.75859645308E+02 -0.71108144199E+02  0.10413129948E+03  0.41800000000E+01 0. -1.
        -11    1    4    4    0    0  0.14789663366E+02  0.36216865336E+01  0.89283152881E+01  0.17651220063E+02  0.00000000000E+00 0.  1.
         11    1    4    4    0    0 -0.88429295185E+01  0.35225981778E+02 -0.15533453694E+03  0.15952393413E+03  0.00000000000E+00 0. -1.
</event>
<event>
 8    1  0.4798744E-006  0.1276624E+03  0.7561462E-02  0.1230966E+00
         -1   -1    0    0    0  501 -0.00000000000E+00  0.00000000000E+00  0.88509803052E+03  0.88509803052E+03  0.00000000000E+00 0.  1.
          1   -1    0    0  501    0  0.00000000000E+00 -0.00000000000E+00 -0.26084413952E+02  0.26084413952E+02  0.00000000000E+00 0. -1.
         23    2    1    2    0    0 -0.73950717912E+01 -0.10810223081E+03  0.46210780510E+03  0.49084834576E+03  0.12509074948E+03 0.  0.
         23    2    1    2    0    0  0.73950717912E+01  0.10810223081E+03  0.39690581147E+03  0.42033409871E+03  0.86056678834E+02 0.  0.
          5    1    3    3  502    0 -0.18780792107E+02 -0.18957567679E+02  0.83706480329E+01  0.28278042240E+02  0.41800000000E+01 0.  1.
         -5    1    3    3    0  502  0.11385720316E+02 -0.89144663132E+02  0.45373715707E+03  0.46257030352E+03  0.41800000000E+01 0.  1.
        -11    1    4    4    0    0 -0.12528553116E+02  0.11617681593E+03  0.33241420974E+03  0.35235383358E+03  0.00000000000E+00 0.  1.
         11    1    4    4    0    0  0.19923624907E+02 -0.80745851156E+01  0.64491601727E+02  0.67980265132E+02  0.00000000000E+00 0. -1.
</event>
<event>
 8    1  0.4798744E-006  0.2419219E+03  0.7561462E-02  0.1118519E+00
         -2   -1    0    0    0  501 -0.00000000000E+00  0.00000000000E+00  0.69964603964E+02  0.69964603964E+02  0.00000000000E+00 0.  1.
          2   -1    0    0  501    0  0.00000000000E+00 -0.00000000000E+00 -0.92961958576E+03  0.92961958576E+03  0.00000000000E+00 0. -1.
         23    2    1    2    0    0  0.13201734642E+03 -0.18865336003E+03 -0.46600096535E+03  0.53460988088E+03  0.12502861681E+03 0.  0.
         23    2    1    2    0    0 -0.13201734642E+03  0.18865336003E+03 -0.39365401644E+03  0.46497430884E+03  0.90658442612E+02 0.  0.
          5    1    3    3  502    0  0.71149984915E+02 -0.20810554319E+02 -0.20778906667E+03  0.22065622164E+03  0.41800000000E+01 0. -1.
         -5    1    3    3    0  502  0.60867361506E+02 -0.16784280571E+03 -0.25821189869E+03  0.31395365924E+03  0.41800000000E+01 0. -1.
        -11    1    4    4    0    0 -0.18865240763E+02  0.39659289095E+02 -0.22529930262E+02  0.49359439605E+02  0.00000000000E+00 0.  1.
         11    1    4    4    0    0 -0.11315210566E+03  0.14899407093E+03 -0.37112408618E+03  0.41561486923E+03  0.00000000000E+00 0. -1.
</event>
<event>
 8    1  0.4798744E-006  0.8695124E+02  0.7561462E-02  0.1310407E+00
          2   -1    0    0  501    0  0.00000000000E+00  0.00000000000E+00  0.24098347180E+03  0.24098347180E+03  0.00000000000E+00 0. -1.
         -2   -1    0    0    0  501 -0.00000000000E+00 -0.00000000000E+00 -0.75859917692E+02  0.75859917692E+02  0.00000000000E+00 0.  1.
         23    2    1    2    0    0 -0.27905249210E+02 -0.35735363582E+02  0.12291962185E+02  0.13361951296E+03  0.12508941908E+03 0.  0.
         23    2    1    2    0    0  0.27905249210E+02  0.35735363582E+02  0.15283159192E+03  0.18322387654E+03  0.90320398022E+02 0.  0.
          5    1    3    3  502    0 -0.11708379278E+00 -0.65014735988E+02 -0.32812318273E+02  0.72945529230E+02  0.41800000000E+01 0.  1.
         -5    1    3    3    0  502 -0.27788165417E+02  0.29279372406E+02  0.45104280458E+02  0.60673983727E+02  0.41800000000E+01 0.  1.
        -11    1    4    4    0    0  0.23490040933E+02 -0.75403327435E+01  0.36519032873E+00  0.24673305512E+02  0.00000000000E+00 0.  1.
         11    1    4    4    0    0  0.44152082769E+01  0.43275696325E+02  0.15246640159E+03  0.15855057102E+03  0.00000000000E+00 0. -1.
</event>
<event>
 8    1  0.4798744E-006  0.9429538E+02  0.7561462E-02  0.1292771E+00
          1   -1    0    0  501    0  0.00000000000E+00  0.00000000000E+00  0.63271750984E+03  0.63271750984E+03  0.00000000000E+00 0. -1.
         -1   -1    0    0    0  501 -0.00000000000E+00 -0.00000000000E+00 -0.23099749361E+02  0.23099749361E+02  0.00000000000E+00 0.  1.
         23    2    1    2    0    0 -0.52145310246E+02  0.28177569392E+01  0.32741760163E+03  0.35437070576E+03  0.12509691485E+03 0.  0.
         23    2    1    2    0    0  0.52145310246E+02 -0.28177569392E+01  0.28220015885E+03  0.30144655344E+03  0.92228096557E+02 0.  0.
          5    1    3    3  502    0  0.30585341022E+02  0.24729686689E+02  0.48475829306E+02  0.62565157365E+02  0.41800000000E+01 0.  1.
         -5    1    3    3    0  502 -0.82730651268E+02 -0.21911929749E+02  0.27894177233E+03  0.29180554839E+03  0.41800000000E+01 0.  1.
        -11    1    4    4    0    0  0.78939440737E+01  0.13951241348E+02  0.75150668205E+00  0.16047312874E+02  0.00000000000E+00 0.  1.
         11    1    4    4    0    0  0.44251366172E+02 -0.16768998287E+02  0.28144865216E+03  0.28539924057E+03  0.00000000000E+00 0. -1.
</event>
<event>
 8    1  0.4798744E-006  0.1174442E+03  0.7561462E-02  0.1247374E+00
         -1   -1    0    0    0  501 -0.00000000000E+00  0.00000000000E+00  0.56025184007E+03  0.56025184007E+03  0.00000000000E+00 0.  1.
          1   -1    0    0  501    0  0.00000000000E+00 -0.00000000000E+00 -0.25665489759E+02  0.25665489759E+02  0.00000000000E+00 0. -1.
         23    2    1    2    0    0  0.52180009444E+02  0.80372169429E+01  0.35373064092E+03  0.37889342531E+03  0.12509001228E+03 0.  0.
         23    2    1    2    0    0 -0.52180009444E+02 -0.80372169429E+01  0.18085570939E+03  0.20702390452E+03  0.85806521794E+02 0.  0.
          5    1    3    3  502    0 -0.34119368723E+02  0.31055259275E+02  0.12486611361E+03  0.13318250327E+03  0.41800000000E+01 0.  1.
         -5    1    3    3    0  502  0.86299378166E+02 -0.23018042332E+02  0.22886452731E+03  0.24571092203E+03  0.41800000000E+01 0.  1.
        -11    1    4    4    0    0  0.11754721104E+02 -0.29461696548E+02  0.41710489424E+02  0.52401621728E+02  0.00000000000E+00 0. -1.
         11    1    4    4    0    0 -0.63934730548E+02  0.21424479606E+02  0.13914521997E+03  0.15462228279E+03  0.00000000000E+00 0.  1.
</event>
<event>
 8    1  0.4798744E-006  0.8462771E+02  0.7561462E-02  0.1316409E+00
          1   -1    0    0  501    0  0.00000000000E+00  0.00000000000E+00  0.25567256702E+02  0.25567256702E+02  0.00000000000E+00 0. -1.
         -1   -1    0    0    0  501 -0.00000000000E+00 -0.00000000000E+00 -0.57123149766E+03  0.57123149766E+03  0.00000000000E+00 0.  1.
         23    2    1    2    0    0 -0.34007623863E+02  0.10510374990E+02 -0.40617300637E+03  0.42648853335E+03  0.12509584930E+03 0.  0.
         23    2    1    2    0    0  0.34007623863E+02 -0.10510374990E+02 -0.13949123458E+03  0.17031022100E+03  0.90998793345E+02 0.  0.
          5    1    3    3  502    0 -0.49996262657E+02  0.26616495051E+02 -0.39796320107E+03  0.40199533068E+03  0.41800000000E+01 0. -1.
         -5    1    3    3    0  502  0.15988638793E+02 -0.16106120061E+02 -0.82098053086E+01  0.24493202671E+02  0.41800000000E+01 0. -1.
        -11    1    4    4    0    0  0.26311144669E+02  0.34687217619E+02 -0.10262613703E+03  0.11147916129E+03  0.00000000000E+00 0.  1.
         11    1    4    4    0    0  0.76964791948E+01 -0.45197592609E+02 -0.36865097545E+02  0.58831059710E+02  0.00000000000E+00 0. -1.
</event>
<event>
 8    1  0.4798744E-006  0.1113391E+03  0.7561462E-02  0.1258110E+00
         -4   -1    0    0    0  501 -0.00000000000E+00  0.00000000000E+00  0.26247846339E+02  0.26247846339E+02  0.00000000000E+00 0.  1.
          4   -1    0    0  501    0  0.00000000000E+00 -0.00000000000E+00 -0.66683390777E+03  0.66683390777E+03  0.00000000000E+00 0. -1.
         23    2    1    2    0    0  0.69220773577E+02 -0.22666347940E+02 -0.40223990325E+03  0.42749248694E+03  0.12509039852E+03 0.  0.
         23    2    1    2    0    0 -0.69220773577E+02  0.22666347940E+02 -0.23834615818E+03  0.26558926717E+03  0.91779566856E+02 0.  0.
          5    1    3    3  502    0  0.53956631895E+02  0.22919682635E+02 -0.68392179945E+02  0.90175343943E+02  0.41800000000E+01 0.  1.
         -5    1    3    3    0  502  0.15264141682E+02 -0.45586030575E+02 -0.33384772330E+03  0.33731714299E+03  0.41800000000E+01 0.  1.
        -11    1    4    4    0    0 -0.16549019264E+02  0.52549022183E+02 -0.92400678182E+02  0.10757859964E+03  0.00000000000E+00 0.  1.
         11    1    4    4    0    0 -0.52671754312E+02 -0.29882674243E+02 -0.14594548000E+03  0.15801066754E+03  0.00000000000E+00 0. -1.
</event>
<event>
 8    1  0.4798744E-006  0.1205756E+03  0.7561462E-02  0.1242151E+00
         -1   -1    0    0    0  501 -0.00000000000E+00  0.00000000000E+00  0.16426880242E+03  0.16426880242E+03  0.00000000000E+00 0.  1.
          1   -1    0    0  501    0  0.00000000000E+00 -0.00000000000E+00 -0.11390184054E+03  0.11390184054E+03  0.00000000000E+00 0. -1.
         23    2    1    2    0    0 -0.60930132201E+02 -0.38944473781E+02  0.70321403353E+02  0.16069297586E+03  0.12509188492E+03 0.  0.
         23    2    1    2    0    0  0.60930132201E+02  0.38944473781E+02 -0.19954441474E+02  0.11747766710E+03  0.90408348530E+02 0.  0.
          5    1    3    3  502    0 -0.90490904553E+02 -0.27027854410E+02  0.13614678184E+02  0.95508850809E+02  0.41800000000E+01 0. -1.
         -5    1    3    3    0  502  0.29560772353E+02 -0.11916619371E+02  0.56706725169E+02  0.65184125051E+02  0.41800000000E+01 0. -1.
        -11    1    4    4    0    0  0.68411334865E+01 -0.27761980781E+02 -0.12717870592E+02  0.31293336618E+02  0.00000000000E+00 0.  1.
         11    1    4    4    0    0  0.54088998714E+02  0.66706454562E+02 -0.72365708817E+01  0.86184330480E+02  0.00000000000E+00 0. -1.
</event>
<event>
 8    1  0.4798744E-006  0.1026618E+03  0.7561462E-02  0.1274796E+00
          1   -1    0    0  501    0  0.00000000000E+00  0.00000000000E+00  0.20180502769E+03  0.20180502769E+03  0.00000000000E+00 0. -1.
         -1   -1    0    0    0  501 -0.00000000000E+00 -0.00000000000E+00 -0.81473494851E+02  0.81473494851E+02  0.00000000000E+00 0.  1.
         23    2    1    2    0    0 -0.31046015758E+02 -0.32307099001E+02  0.14174950032E+02  0.13365452402E+03  0.12511993783E+03 0.  0.
         23    2    1    2    0    0  0.31046015758E+02  0.32307099001E+02  0.10615658281E+03  0.14962399852E+03  0.95449028910E+02 0.  0.
          5    1    3    3  502    0  0.20003447127E+02 -0.52186000439E+02 -0.29622408972E+02  0.63391450939E+02  0.41800000000E+01 0. -1.
         -5    1    3    3    0  502 -0.51049462885E+02  0.19878901438E+02  0.43797359004E+02  0.70263073082E+02  0.41800000000E+01 0. -1.
        -11    1    4    4    0    0 -0.28703926091E+02  0.13305733452E+02  0.71027028021E+02  0.77754720919E+02  0.00000000000E+00 0. -1.
         11    1    4    4    0    0  0.59749941848E+02  0.19001365549E+02  0.35129554787E+02  0.71869277602E+02  0.00000000000E+00 0.  1.
</event>
<event>
 8    1  0.4798744E-006  0.9906062E+02  0.7561462E-02  0.1282284E+00
         -1   -1    0    0    0  501 -0.00000000000E+00  0.00000000000E+00  0.48620442158E+03  0.48620442158E+03  0.00000000000E+00 0.  1.
          1   -1    0    0  501    0  0.00000000000E+00 -0.00000000000E+00 -0.29887259810E+02  0.29887259810E+02  0.00000000000E+00 0. -1.
         23    2    1    2    0    0 -0.50273889652E+02 -0.22603453491E+01  0.29205630025E+03  0.32167096857E+03  0.12507100529E+03 0.  0.
         23    2    1    2    0    0  0.50273889652E+02  0.22603453491E+01  0.16426086152E+03  0.19442071282E+03  0.91023127854E+02 0.  0.
          5    1    3    3  502    0  0.34913024220E+02  0.20940660066E+02  0.54149913400E+02  0.67875739594E+02  0.41800000000E+01 0.  1.
         -5    1    3    3    0  502 -0.85186913872E+02 -0.23201005415E+02  0.23790638685E+03  0.25379522897E+03  0.41800000000E+01 0.  1.
        -11    1    4    4    0    0  0.57964207242E+02 -0.50663141358E+01  0.17180636454E+03  0.18139168601E+03  0.00000000000E+00 0.  1.
         11    1    4    4    0    0 -0.76903175899E+01  0.73266594849E+01 -0.75455030132E+01  0.13029026808E+02  0.00000000000E+00 0. -1.
</event>
<event>
 8    1  0.4798744E-006  0.1173745E+03  0.7561462E-02  0.1247492E+00
         -1   -1    0    0    0  501 -0.00000000000E+00  0.00000000000E+00  0.13019638477E+04  0.13019638477E+04  0.00000000000E+00 0.  1.
          1   -1    0    0  501    0  0.00000000000E+00 -0.00000000000E+00 -0.16253105832E+02  0.16253105832E+02  0.00000000000E+00 0. -1.
         23    2    1    2    0    0  0.47537173170E+02 -0.23052977809E+02  0.10932236203E+04  0.11016247793E+04  0.12509215692E+03 0.  0.
         23    2    1    2    0    0 -0.47537173170E+02  0.23052977809E+02  0.19248712152E+03  0.21659217421E+03  0.84081242600E+02 0.  0.
          5    1    3    3  502    0 -0.15595770694E+02  0.42002361060E+02  0.34944413791E+03  0.35232953938E+03  0.41800000000E+01 0. -1.
         -5    1    3    3    0  502  0.63132943864E+02 -0.65055338869E+02  0.74377948242E+03  0.74929523993E+03  0.41800000000E+01 0. -1.
        -11    1    4    4    0    0 -0.48159710176E+02  0.51521600542E+02  0.14450928417E+03  0.16080039247E+03  0.00000000000E+00 0. -1.
         11    1    4    4    0    0  0.62253700631E+00 -0.28468622733E+02  0.47977837357E+02  0.55791781743E+02  0.00000000000E+00 0.  1.
</event>
<event>
 8    1  0.4798744E-006  0.1276192E+03  0.7561462E-02  0.1231032E+00
         -1   -1    0    0    0  501 -0.00000000000E+00  0.00000000000E+00  0.45634249095E+03  0.45634249095E+03  0.00000000000E+00 0.  1.
          1   -1    0    0  501    0  0.00000000000E+00 -0.00000000000E+00 -0.37741229171E+02  0.37741229171E+02  0.00000000000E+00 0. -1.
         23    2    1    2    0    0  0.28991724441E+02 -0.65180737371E+02  0.26692235587E+03  0.30328949802E+03  0.12509167413E+03 0.  0.
         23    2    1    2    0    0 -0.28991724441E+02  0.65180737371E+02  0.15167890591E+03  0.19079422210E+03  0.91142175084E+02 0.  0.
          5    1    3    3  502    0  0.68721995809E+02 -0.71773844345E+02  0.21917802979E+03  0.24068792779E+03  0.41800000000E+01 0.  1.
         -5    1    3    3    0  502 -0.39730271368E+02  0.65931069748E+01  0.47744326076E+02  0.62601570228E+02  0.41800000000E+01 0.  1.
        -11    1    4    4    0    0 -0.55866735953E+02  0.14172233514E+02  0.67430063258E+02  0.88706019073E+02  0.00000000000E+00 0. -1.
         11    1    4    4    0    0  0.26875011512E+02  0.51008503856E+02  0.84248842652E+02  0.10208820303E+03  0.00000000000E+00 0.  1.
</event>
<event>
 8    1  0.4798744E-006  0.2370185E+03  0.7561462E-02  0.1121795E+00
         -2   -1    0    0    0  501 -0.00000000000E+00  0.00000000000E+00  0.15440462371E+03  0.15440462371E+03  0.00000000000E+00 0.  1.
          2   -1    0    0  501    0  0.00000000000E+00 -0.00000000000E+00 -0.61191688217E+03  0.61191688217E+03  0.00000000000E+00 0. -1.
         23    2    1    2    0    0  0.10516962599E+03  0.20780101649E+03 -0.23205998908E+02  0.26538237153E+03  0.12508945617E+03 0.  0.
         23    2    1    2    0    0 -0.10516962599E+03 -0.20780101649E+03 -0.43430625955E+03  0.50093913435E+03  0.89867550103E+02 0.  0.
          5    1    3    3  502    0  0.71046812706E+02  0.95514504509E+02  0.47581321433E+02  0.12826583612E+03  0.41800000000E+01 0. -1.
         -5    1    3    3    0  502  0.34122813283E+02  0.11228651198E+03 -0.70787320341E+02  0.13711653540E+03  0.41800000000E+01 0. -1.
        -11    1    4    4    0    0 -0.99804855646E+02 -0.15457274474E+03 -0.25935948101E+03  0.31799541352E+03  0.00000000000E+00 0.  1.
         11    1    4    4    0    0 -0.53647703426E+01 -0.53228271750E+02 -0.17494677853E+03  0.18294372083E+03  0.00000000000E+00 0. -1.
</event>
<event>
 8    1  0.4798744E-006  0.1061706E+03  0.7561462E-02  0.1267830E+00
          3   -1    0    0  501    0  0.00000000000E+00  0.00000000000E+00  0.25213387918E+02  0.25213387918E+02  0.00000000000E+00 0. -1.
         -3   -1    0    0    0  501 -0.00000000000E+00 -0.00000000000E+00 -0.51959080817E+03  0.51959080817E+03  0.00000000000E+00 0.  1.
         23    2    1    2    0    0  0.24944452586E+01  0.11385016929E+02 -0.36634494209E+03  0.38728820808E+03  0.12509076166E+03 0.  0.
         23    2    1    2    0    0 -0.24944452586E+01 -0.11385016929E+02 -0.12803247816E+03  0.15751598801E+03  0.91011703353E+02 0.  0.
          5    1    3    3  502    0  0.15773834777E+02 -0.53282541437E+02 -0.21527581404E+03  0.22237129220E+03  0.41800000000E+01 0. -1.
         -5    1    3    3    0  502 -0.13279389518E+02  0.64667558367E+02 -0.15106912805E+03  0.16491691588E+03  0.41800000000E+01 0. -1.
        -11    1    4    4    0    0 -0.16801857190E+02  0.36665247530E+02 -0.44196986851E+02  0.59833238489E+02  0.00000000000E+00 0.  1.
         11    1    4    4    0    0  0.14307411931E+02 -0.48050264459E+02 -0.83835491306E+02  0.97682749518E+02  0.00000000000E+00 0. -1.
</event>
<event>
 8    1  0.4798744E-006  0.9398031E+02  0.7561462E-02  0.1293489E+00
          2   -1    0    0  501    0  0.00000000000E+00  0.00000000000E+00  0.10994959591E+03  0.10994959591E+03  0.00000000000E+00 0. -1.
         -2   -1    0    0    0  501 -0.00000000000E+00 -0.00000000000E+00 -0.20516019982E+03  0.20516019982E+03  0.00000000000E+00 0.  1.
         23    2    1    2    0    0 -0.22597804071E+02 -0.75226821535E+02 -0.12580155884E+03  0.19401675199E+03  0.12508689948E+03 0.  0.
         23    2    1    2    0    0  0.22597804071E+02  0.75226821535E+02  0.30590954926E+02  0.12109304373E+03  0.86936662521E+02 0.  0.
          5    1    3    3  502    0 -0.48777225163E+02 -0.36418044622E+02 -0.13313269406E+03  0.14644889312E+03  0.41800000000E+01 0.  1.
         -5    1    3    3    0  502  0.26179421092E+02 -0.38808776913E+02  0.73311352194E+01  0.47567858873E+02  0.41800000000E+01 0.  1.
        -11    1    4    4    0    0  0.17812225185E+01  0.31138135136E+02 -0.30031366925E+02  0.43297103977E+02  0.00000000000E+00 0.  1.
         11    1    4    4    0    0  0.20816581552E+02  0.44088686399E+02  0.60622321851E+02  0.77795939756E+02  0.00000000000E+00 0. -1.
</event>
<event>
 8    1  0.4798744E-006  0.1346722E+03  0.7561462E-02  0.1220683E+00
         -2   -1    0    0    0  501 -0.00000000000E+00  0.00000000000E+00  0.95833868153E+02  0.95833868153E+02  0.00000000000E+00 0.  1.
          2   -1    0    0  501    0  0.00000000000E+00 -0.00000000000E+00 -0.57777124454E+03  0.57777124454E+03  0.00000000000E+00 0. -1.
         23    2    1    2    0    0  0.73597684978E+02 -0.86234574300E+02  0.13685107235E+01  0.16882624951E+03  0.12508960253E+03 0.  0.
         23    2    1    2    0    0 -0.73597684978E+02  0.86234574300E+02 -0.48330588711E+03  0.50477886319E+03  0.91455449073E+02 0.  0.
          5    1    3    3  502    0  0.82462725358E+02 -0.90032084867E+02 -0.38113767175E+02  0.12796878146E+03  0.41800000000E+01 0.  1.
         -5    1    3    3    0  502 -0.88650403800E+01  0.37975105673E+01  0.39482277899E+02  0.40857468051E+02  0.41800000000E+01 0.  1.
        -11    1    4    4    0    0  0.10046579865E+02  0.39706796419E+02 -0.75531282431E+02  0.85921697344E+02  0.00000000000E+00 0.  1.
         11    1    4    4    0    0 -0.83644264842E+02  0.46527777881E+02 -0.40777460468E+03  0.41885716584E+03  0.00000000000E+00 0. -1.
</event>
<event>
 8    1  0.4798744E-006  0.1193960E+03  0.7561462E-02  0.1244097E+00
         -1   -1    0    0    0  501 -0.00000000000E+00  0.00000000000E+00  0.10029157372E+03  0.10029157372E+03  0.00000000000E+00 0.  1.
          1   -1    0    0  501    0  0.00000000000E+00 -0.00000000000E+00 -0.25173606835E+03  0.25173606835E+03  0.00000000000E+00 0. -1.
         23    2    1    2    0    0 -0.82927725789E+02 -0.62297788042E+02 -0.26779498471E+02  0.16469018051E+03  0.12509073474E+03 0.  0.
         23    2    1    2    0    0  0.82927725789E+02  0.62297788042E+02 -0.12466499616E+03  0.18733746156E+03  0.93786678890E+02 0.  0.
          5    1    3    3  502    0 -0.80909585769E+02 -0.69854677565E+02  0.26882397405E+02  0.11030037505E+03  0.41800000000E+01 0. -1.
         -5    1    3    3    0  502 -0.20181400201E+01  0.75568895236E+01 -0.53661895877E+02  0.54389805456E+02  0.41800000000E+01 0. -1.
        -11    1    4    4    0    0  0.12809648090E+02  0.50182955039E+02 -0.10551064013E+02  0.52855851261E+02  0.00000000000E+00 0.  1.
         11    1    4    4    0    0  0.70118077699E+02  0.12114833002E+02 -0.11411393215E+03  0.13448161030E+03  0.00000000000E+00 0. -1.
</event>
<event>
 8    1  0.4798744E-006  0.8158116E+02  0.7561462E-02  0.1324623E+00
          2   -1    0    0  501    0  0.00000000000E+00  0.00000000000E+00  0.28308416304E+03  0.28308416304E+03  0.00000000000E+00 0. -1.
         -2   -1    0    0    0  501 -0.00000000000E+00 -0.00000000000E+00 -0.43981954345E+02  0.43981954345E+02  0.00000000000E+00 0.  1.
         23    2    1    2    0    0 -0.74068197258E+01  0.22499023084E+02  0.11766487999E+03  0.17336110393E+03  0.12509189164E+03 0.  0.
         23    2    1    2    0    0  0.74068197258E+01 -0.22499023084E+02  0.12143732870E+03  0.15370501345E+03  0.91198351630E+02 0.  0.
          5    1    3    3  502    0  0.16372908874E+02  0.66185503324E+02  0.98555893083E+02  0.11991384181E+03  0.41800000000E+01 0. -1.
         -5    1    3    3    0  502 -0.23779728600E+02 -0.43686480240E+02  0.19108986907E+02  0.53447262125E+02  0.41800000000E+01 0. -1.
        -11    1    4    4    0    0  0.20608153289E+02 -0.24021841448E+02  0.13261541871E+03  0.13633999460E+03  0.00000000000E+00 0. -1.
         11    1    4    4    0    0 -0.13201333563E+02  0.15228183639E+01 -0.11178090005E+02  0.17365018853E+02  0.00000000000E+00 0.  1.
</event>
<event>
 8    1  0.4798744E-006  0.1492271E+03  0.7561462E-02  0.1201426E+00
          1   -1    0    0  501    0  0.00000000000E+00  0.00000000000E+00  0.63105460327E+03  0.63105460327E+03  0.00000000000E+00 0. -1.
         -1   -1    0    0    0  501 -0.00000000000E+00 -0.00000000000E+00 -0.37179306750E+02  0.37179306750E+02  0.00000000000E+00 0.  1.
         23    2    1    2    0    0  0.10662137087E+03  0.80248145844E+01  0.34871979431E+03  0.38559708708E+03  0.12508838573E+03 0.  0.
         23    2    1    2    0    0 -0.10662137087E+03 -0.80248145844E+01  0.24515550221E+03  0.28263682294E+03  0.91377453692E+02 0.  0.
          5    1    3    3  502    0  0.12159679456E+03 -0.23609194621E+02  0.30642200731E+03  0.33053758256E+03  0.41800000000E+01 0. -1.
         -5    1    3    3    0  502 -0.14975423690E+02  0.31634009206E+02  0.42297786997E+02  0.55059504520E+02  0.41800000000E+01 0. -1.
        -11    1    4    4    0    0 -0.72465096405E+02 -0.47822384418E+02  0.13308166770E+03  0.15889902745E+03  0.00000000000E+00 0.  1.
         11    1    4    4    0    0 -0.34156274465E+02  0.39797569833E+02  0.11207383451E+03  0.12373779549E+03  0.00000000000E+00 0. -1.
</event>
<event>
 8    1  0.6758921E-006  0.2678845E+03  0.7561462E-02  0.1102496E+00
         -1   -1    0    0    0  501 -0.00000000000E+00  0.00000000000E+00  0.97945594965E+02  0.97945594965E+02  0.00000000000E+00 0.  1.
          1   -1    0    0  501    0  0.00000000000E+00 -0.00000000000E+00 -0.79161218975E+03  0.79161218975E+03  0.00000000000E+00 0. -1.
         23    2    1    2    0    0  0.87410881635E+02 -0.23814417315E+03 -0.40749009591E+03  0.49603347448E+03  0.12509084740E+03 0.  0.
         23    2    1    2    0    0 -0.87410881635E+02  0.23814417315E+03 -0.28617649888E+03  0.39352431024E+03  0.92795930966E+02 0.  0.
          5    1    3    3  502    0  0.45550315092E+02 -0.23382905989E+03 -0.36649767983E+03  0.43713714344E+03  0.41800000000E+01 0. -1.
         -5    1    3    3    0  502  0.41860566543E+02 -0.43151132660E+01 -0.40992416080E+02  0.58896331039E+02  0.41800000000E+01 0. -1.
        -11    1    4    4    0    0 -0.82621286199E+02  0.19461739897E+03 -0.17645721469E+03  0.27538946518E+03  0.00000000000E+00 0.  1.
         11    1    4    4    0    0 -0.47895954358E+01  0.43526774188E+02 -0.10971928419E+03  0.11813484506E+03  0.00000000000E+00 0. -1.
</event>
<event>
 8    1  0.4798744E-006  0.1052731E+03  0.7561462E-02  0.1269583E+00
         -3   -1    0    0    0  501 -0.00000000000E+00  0.00000000000E+00  0.44514011791E+03  0.44514011791E+03  0.00000000000E+00 0.  1.
          3   -1    0    0  501    0  0.00000000000E+00 -0.00000000000E+00 -0.30987480133E+02  0.30987480133E+02  0.00000000000E+00 0. -1.
         23    2    1    2    0    0 -0.87306070074E+01  0.13496914600E+02  0.32388223276E+03  0.34756651330E+03  0.12507753702E+03 0.  0.
         23    2    1    2    0    0  0.87306070074E+01 -0.13496914600E+02  0.90270405015E+02  0.12856108474E+03  0.90115571831E+02 0.  0.
          5    1    3    3  502    0  0.37944682735E+02  0.50935393052E+02  0.20079420416E+03  0.21064187152E+03  0.41800000000E+01 0.  1.
         -5    1    3    3    0  502 -0.46675289743E+02 -0.37438478453E+02  0.12308802860E+03  0.13692464178E+03  0.41800000000E+01 0.  1.
        -11    1    4    4    0    0 -0.31869051030E+02 -0.29352362612E+02  0.65188900859E+02  0.78273816821E+02  0.00000000000E+00 0.  1.
         11    1    4    4    0    0  0.40599658037E+02  0.15855448012E+02  0.25081504156E+02  0.50287267923E+02  0.00000000000E+00 0. -1.
</event>
<event>
 8    1  0.4798744E-006  0.8198132E+02  0.7561462E-02  0.1323521E+00
          1   -1    0    0  501    0  0.00000000000E+00  0.00000000000E+00  0.29899894211E+02  0.29899894211E+02  0.00000000000E+00 0. -1.
         -1   -1    0    0    0  501 -0.00000000000E+00 -0.00000000000E+00 -0.63085954239E+03  0.63085954239E+03  0.00000000000E+00 0.  1.
         23    2    1    2    0    0  0.77375735887E+02  0.18560655043E+02 -0.39464159322E+03  0.42157075642E+03  0.12509361754E+03 0.  0.
         23    2    1    2    0    0 -0.77375735887E+02 -0.18560655043E+02 -0.20631805496E+03  0.23918868018E+03  0.91173365110E+02 0.  0.
          5    1    3    3  502    0  0.65979649416E+02  0.13281552140E+02 -0.71959257606E+02  0.98617041730E+02  0.41800000000E+01 0. -1.
         -5    1    3    3    0  502  0.11396086472E+02  0.52791029033E+01 -0.32268233562E+03  0.32295371469E+03  0.41800000000E+01 0. -1.
        -11    1    4    4    0    0 -0.66192451430E+02 -0.59825020132E+01 -0.21140479516E+03  0.22160599805E+03  0.00000000000E+00 0.  1.
         11    1    4    4    0    0 -0.11183284457E+02 -0.12578153030E+02  0.50867402026E+01  0.17582682127E+02  0.00000000000E+00 0. -1.
</event>
<event>
 8    1  0.4798744E-006  0.1013799E+03  0.7561462E-02  0.1277421E+00
          1   -1    0    0  501    0  0.00000000000E+00  0.00000000000E+00  0.16887925671E+03  0.16887925671E+03  0.00000000000E+00 0. -1.
         -1   -1    0    0    0  501 -0.00000000000E+00 -0.00000000000E+00 -0.29588935441E+03  0.29588935441E+03  0.00000000000E+00 0.  1.
         23    2    1    2    0    0 -0.62611105638E+02 -0.42942701775E+01 -0.25931712640E+03  0.29273883576E+03  0.12046602265E+03 0.  0.
         23    2    1    2    0    0  0.62611105638E+02  0.42942701775E+01  0.13230702870E+03  0.17202977535E+03  0.90280133235E+02 0.  0.
          5    1    3    3  502    0 -0.21546610881E+02 -0.45235629013E+02 -0.35639509469E+02  0.61629259349E+02  0.41800000000E+01 0. -1.
         -5    1    3    3    0  502 -0.41064494757E+02  0.40941358836E+02 -0.22367761693E+03  0.23110957641E+03  0.41800000000E+01 0.  1.
        -11    1    4    4    0    0 -0.15816426041E+02  0.92618840049E+00 -0.24930658709E+01  0.16038470472E+02  0.00000000000E+00 0.  1.
         11    1    4    4    0    0  0.78427531679E+02  0.33680817770E+01  0.13480009457E+03  0.15599130488E+03  0.00000000000E+00 0. -1.
</event>
<event>
 8    1  0.4798744E-006  0.5492833E+02  0.7561462E-02  0.1420438E+00
         -1   -1    0    0    0  501 -0.00000000000E+00  0.00000000000E+00  0.41277919617E+02  0.41277919617E+02  0.00000000000E+00 0.  1.
          1   -1    0    0  501    0  0.00000000000E+00 -0.00000000000E+00 -0.30542854990E+03  0.30542854990E+03  0.00000000000E+00 0. -1.
         23    2    1    2    0    0  0.11603002135E+02 -0.16390968844E+02 -0.96130210995E+02  0.15907767610E+03  0.12514549951E+03 0.  0.
         23    2    1    2    0    0 -0.11603002135E+02  0.16390968844E+02 -0.16802041929E+03  0.18762879342E+03  0.81058061313E+02 0.  0.
          5    1    3    3  502    0  0.15691722549E+02 -0.26276831864E+02 -0.12460341434E+03  0.12837517406E+03  0.41800000000E+01 0.  1.
         -5    1    3    3    0  502 -0.40887204134E+01  0.98858630201E+01  0.28473203350E+02  0.30702502036E+02  0.41800000000E+01 0.  1.
        -11    1    4    4    0    0 -0.37207881753E+02  0.18937799328E+02 -0.15127024734E+03  0.15692595208E+03  0.00000000000E+00 0. -1.
         11    1    4    4    0    0  0.25604879617E+02 -0.25468304841E+01 -0.16750171954E+02  0.30702841338E+02  0.00000000000E+00 0.  1.
</event>
<event>
 8    1  0.4798744E-006  0.2077295E+03  0.7561462E-02  0.1143377E+00
         -1   -1    0    0    0  501 -0.00000000000E+00  0.00000000000E+00  0.27563734158E+03  0.27563734158E+03  0.00000000000E+00 0. -1.
          1   -1    0    0  501    0  0.00000000000E+00 -0.00000000000E+00 -0.28463902392E+03  0.28463902392E+03  0.00000000000E+00 0.  1.
         23    2    1    2    0    0  0.15802704464E+03  0.10147689934E+03  0.17202445694E+03  0.28374446915E+03  0.12509357318E+03 0.  0.
         23    2    1    2    0    0 -0.15802704464E+03 -0.10147689934E+03 -0.18102613927E+03  0.27653189636E+03  0.91811321007E+02 0.  0.
          5    1    3    3  502    0  0.10535752667E+03 -0.25631486214E+01  0.10663726093E+03  0.14998585258E+03  0.41800000000E+01 0. -1.
         -5    1    3    3    0  502  0.52669517970E+02  0.10404004796E+03  0.65387196008E+02  0.13375861657E+03  0.41800000000E+01 0. -1.
        -11    1    4    4    0    0 -0.15399413157E+03 -0.84101451881E+02 -0.11904535525E+03  0.21203547668E+03  0.00000000000E+00 0. -1.
         11    1    4    4    0    0 -0.40329130704E+01 -0.17375447463E+02 -0.61980784026E+02  0.64496419675E+02  0.00000000000E+00 0.  1.
</event>
<event>
 8    1  0.4798744E-006  0.1611603E+03  0.7561462E-02  0.1187393E+00
          2   -1    0    0  501    0  0.00000000000E+00  0.00000000000E+00  0.88521850612E+02  0.88521850612E+02  0.00000000000E+00 0.  1.
         -2   -1    0    0    0  501 -0.00000000000E+00 -0.00000000000E+00 -0.38542632855E+03  0.38542632855E+03  0.00000000000E+00 0. -1.
         23    2    1    2    0    0 -0.14908031152E+03 -0.34448869261E+00 -0.16579185104E+03  0.25565379023E+03  0.12508742795E+03 0.  0.
         23    2    1    2    0    0  0.14908031152E+03  0.34448869261E+00 -0.13111262690E+03  0.21829438893E+03  0.90757155921E+02 0.  0.
          5    1    3    3  502    0 -0.55859470799E+02 -0.12155103677E+02  0.81633118611E+01  0.57897660435E+02  0.41800000000E+01 0. -1.
         -5    1    3    3    0  502 -0.93220840723E+02  0.11810614984E+02 -0.17395516290E+03  0.19775612980E+03  0.41800000000E+01 0. -1.
        -11    1    4    4    0    0  0.15060349131E+03  0.19380696121E+02 -0.12869236102E+03  0.19904458486E+03  0.00000000000E+00 0. -1.
         11    1    4    4    0    0 -0.15231797831E+01 -0.19036207429E+02 -0.24202658714E+01  0.19249804072E+02  0.00000000000E+00 0.  1.
</event>
<event>
 8    1  0.4798744E-006  0.1319648E+03  0.7561462E-02  0.1224569E+00
         -1   -1    0    0    0  501 -0.00000000000E+00  0.00000000000E+00  0.60234834805E+02  0.60234834805E+02  0.00000000000E+00 0.  1.
          1   -1    0    0  501    0  0.00000000000E+00 -0.00000000000E+00 -0.43812009671E+03  0.43812009671E+03  0.00000000000E+00 0. -1.
         23    2    1    2    0    0 -0.32661591974E+02 -0.10328387647E+03 -0.12106045752E+03  0.20503132051E+03  0.12509144370E+03 0.  0.
         23    2    1    2    0    0  0.32661591974E+02  0.10328387647E+03 -0.25682480439E+03  0.29332361101E+03  0.91353280717E+02 0.  0.
          5    1    3    3  502    0 -0.57572135460E+02 -0.37174853917E+02 -0.11508482091E+03  0.13400936143E+03  0.41800000000E+01 0.  1.
         -5    1    3    3    0  502  0.24910543486E+02 -0.66109022553E+02 -0.59756366110E+01  0.71021959087E+02  0.41800000000E+01 0.  1.
        -11    1    4    4    0    0 -0.15228569497E+02  0.52645077051E+02 -0.18620397738E+03  0.19410135151E+03  0.00000000000E+00 0. -1.
         11    1    4    4    0    0  0.47890161472E+02  0.50638799419E+02 -0.70620827005E+02  0.99222259494E+02  0.00000000000E+00 0.  1.
</event>
<event>
 8    1  0.4798744E-006  0.9827060E+02  0.7561462E-02  0.1283975E+00
         -2   -1    0    0    0  501 -0.00000000000E+00  0.00000000000E+00  0.48917665396E+02  0.48917665396E+02  0.00000000000E+00 0.  1.
          2   -1    0    0  501    0  0.00000000000E+00 -0.00000000000E+00 -0.29718564921E+03  0.29718564921E+03  0.00000000000E+00 0. -1.
         23    2    1    2    0    0  0.54585287757E+01  0.52450292768E+02 -0.11877202736E+03  0.18038081994E+03  0.12509842914E+03 0.  0.
         23    2    1    2    0    0 -0.54585287757E+01 -0.52450292768E+02 -0.12949595645E+03  0.16572249466E+03  0.88960180701E+02 0.  0.
          5    1    3    3  502    0  0.19426823841E+02 -0.18807056875E+02 -0.10217860765E+03  0.10577829235E+03  0.41800000000E+01 0. -1.
         -5    1    3    3    0  502 -0.13968295065E+02  0.71257349643E+02 -0.16593419712E+02  0.74602527591E+02  0.41800000000E+01 0. -1.
        -11    1    4    4    0    0 -0.18176951561E+02  0.17570442710E+02 -0.11158211445E+02  0.27633814571E+02  0.00000000000E+00 0.  1.
         11    1    4    4    0    0  0.12718422785E+02 -0.70020735478E+02 -0.11833774501E+03  0.13808868009E+03  0.00000000000E+00 0. -1.
</event>
<event>
 8    1  0.7234342E-006  0.2445885E+03  0.7561462E-02  0.1116773E+00
          2   -1    0    0  501    0  0.00000000000E+00  0.00000000000E+00  0.15009746559E+03  0.15009746559E+03  0.00000000000E+00 0. -1.
         -2   -1    0    0    0  501 -0.00000000000E+00 -0.00000000000E+00 -0.43418546425E+03  0.43418546425E+03  0.00000000000E+00 0.  1.
         23    2    1    2    0    0 -0.37920518536E+02 -0.22238638190E+03 -0.20049089244E+03  0.32670754239E+03  0.12509017436E+03 0.  0.
         23    2    1    2    0    0  0.37920518536E+02  0.22238638190E+03 -0.83597106227E+02  0.25757538746E+03  0.91994214344E+02 0.  0.
          5    1    3    3  502    0  0.20880257338E+02 -0.18749363186E+03 -0.13576916178E+03  0.23246630901E+03  0.41800000000E+01 0. -1.
         -5    1    3    3    0  502 -0.58800775874E+02 -0.34892750040E+02 -0.64721730658E+02  0.94241233376E+02  0.41800000000E+01 0. -1.
        -11    1    4    4    0    0  0.51586864369E+02  0.16001190241E+03 -0.23259418498E+02  0.16972334559E+03  0.00000000000E+00 0. -1.
         11    1    4    4    0    0 -0.13666345832E+02  0.62374479491E+02 -0.60337687729E+02  0.87852041869E+02  0.00000000000E+00 0.  1.
</event>
<event>
 8    1  0.4798744E-006  0.1208551E+03  0.7561462E-02  0.1241693E+00
         -2   -1    0    0    0  501 -0.00000000000E+00  0.00000000000E+00  0.38457799575E+03  0.38457799575E+03  0.00000000000E+00 0.  1.
          2   -1    0    0  501    0  0.00000000000E+00 -0.00000000000E+00 -0.44144620545E+02  0.44144620545E+02  0.00000000000E+00 0. -1.
         23    2    1    2    0    0  0.18745476297E+02 -0.61383256236E+02  0.22579275096E+03  0.26596331581E+03  0.12503928161E+03 0.  0.
         23    2    1    2    0    0 -0.18745476297E+02  0.61383256236E+02  0.11464062424E+03  0.16275930048E+03  0.96066748348E+02 0.  0.
          5    1    3    3  502    0 -0.47853437291E+02 -0.29925024072E+02  0.14941661220E+03  0.15977563935E+03  0.41800000000E+01 0.  1.
         -5    1    3    3    0  502  0.66598913589E+02 -0.31458232163E+02  0.76376138755E+02  0.10618767647E+03  0.41800000000E+01 0.  1.
        -11    1    4    4    0    0  0.14159293349E+02 -0.19456046002E+02  0.45275763047E+02  0.51272975666E+02  0.00000000000E+00 0.  1.
         11    1    4    4    0    0 -0.32904769647E+02  0.80839302237E+02  0.69364861196E+02  0.11148632481E+03  0.00000000000E+00 0. -1.
</event>
<event>
 8    1  0.4798744E-006  0.1389410E+03  0.7561462E-02  0.1214761E+00
         -1   -1    0    0    0  501 -0.00000000000E+00  0.00000000000E+00  0.35935406985E+03  0.35935406985E+03  0.00000000000E+00 0.  1.
          1   -1    0    0  501    0  0.00000000000E+00 -0.00000000000E+00 -0.11686444405E+03  0.11686444405E+03  0.00000000000E+00 0. -1.
         23    2    1    2    0    0 -0.81973062479E+02  0.11139718002E+03  0.25054118588E+03  0.31233183917E+03  0.12510546451E+03 0.  0.
         23    2    1    2    0    0  0.81973062479E+02 -0.11139718002E+03 -0.80515600770E+01  0.16388667473E+03  0.87550555941E+02 0.  0.
          5    1    3    3  502    0 -0.53973658383E+02  0.81396477960E+02  0.25277858435E+03  0.27102219011E+03  0.41800000000E+01 0. -1.
         -5    1    3    3    0  502 -0.27999404096E+02  0.30000702060E+02 -0.22373984719E+01  0.41309649064E+02  0.41800000000E+01 0. -1.
        -11    1    4    4    0    0  0.62354909005E+02 -0.93095403901E+02  0.31227868659E+02  0.11631882344E+03  0.00000000000E+00 0.  1.
         11    1    4    4    0    0  0.19618153474E+02 -0.18301776119E+02 -0.39279428736E+02  0.47567851293E+02  0.00000000000E+00 0. -1.
</event>
<event>
 8    1  0.4798744E-006  0.9151192E+02  0.7561462E-02  0.1299231E+00
          2   -1    0    0  501    0  0.00000000000E+00  0.00000000000E+00  0.30666996385E+02  0.30666996385E+02  0.00000000000E+00 0. -1.
         -2   -1    0    0    0  501 -0.00000000000E+00 -0.00000000000E+00 -0.41324456712E+03  0.41324456712E+03  0.00000000000E+00 0.  1.
         23    2    1    2    0    0  0.58008539037E+01  0.29528369414E+02 -0.22410659548E+03  0.25841232375E+03  0.12509032105E+03 0.  0.
         23    2    1    2    0    0 -0.58008539037E+01 -0.29528369414E+02 -0.15847097525E+03  0.18549923975E+03  0.91604276350E+02 0.  0.
          5    1    3    3  502    0  0.25794623380E+02 -0.39170035486E+02 -0.14108103281E+03  0.14873124922E+03  0.41800000000E+01 0. -1.
         -5    1    3    3    0  502 -0.19993769476E+02  0.68698404900E+02 -0.83025562676E+02  0.10968107454E+03  0.41800000000E+01 0. -1.
        -11    1    4    4    0    0  0.24817023868E+02 -0.20929560412E+02 -0.14873959819E+03  0.15224125342E+03  0.00000000000E+00 0.  1.
         11    1    4    4    0    0 -0.30617877772E+02 -0.85988090014E+01 -0.97313770606E+01  0.33257986334E+02  0.00000000000E+00 0. -1.
</event>
<event>
 8    1  0.4798744E-006  0.3036773E+03  0.7561462E-02  0.1083417E+00
          2   -1    0    0  501    0  0.00000000000E+00  0.00000000000E+00  0.22838031053E+04  0.22838031053E+04  0.00000000000E+00 0. -1.
         -2   -1    0    0    0  501 -0.00000000000E+00 -0.00000000000E+00 -0.41601637136E+02  0.41601637136E+02  0.00000000000E+00 0.  1.
         23    2    1    2    0    0 -0.28126713616E+03  0.53227058008E+02  0.10167611994E+04  0.10636711243E+04  0.12509437464E+03 0.  0.
         23    2    1    2    0    0  0.28126713616E+03 -0.53227058008E+02  0.12254402687E+04  0.12617336181E+04  0.91233486871E+02 0.  0.
          5    1    3    3  502    0 -0.28991325450E+03  0.35932328632E+02  0.96504164210E+03  0.10082974119E+04  0.41800000000E+01 0. -1.
         -5    1    3    3    0  502  0.86461183456E+01  0.17294729376E+02  0.51719557282E+02  0.55373712464E+02  0.41800000000E+01 0. -1.
        -11    1    4    4    0    0  0.22715314565E+03 -0.12159761951E+02  0.83518340066E+03  0.86560829717E+03  0.00000000000E+00 0.  1.
         11    1    4    4    0    0  0.54113990509E+02 -0.41067296058E+02  0.39025686807E+03  0.39612532089E+03  0.00000000000E+00 0. -1.
</event>
<event>
 7    1  0.4798744E-006  0.1342223E+03  0.7561462E-02  0.1221322E+00
          1   -1    0    0  501    0  0.00000000000E+00  0.00000000000E+00  0.10121241855E+03  0.10121241855E+03  0.00000000000E+00 0. -1.
         -1   -1    0    0    0  501 -0.00000000000E+00 -0.00000000000E+00 -0.21802418567E+03  0.21802418567E+03  0.00000000000E+00 0.  1.
         23    2    1    2    0    0 -0.64557723996E+02  0.58016328393E+01  0.27996055640E+01  0.10780044494E+03  0.86091459894E+02 0.  0.
          5    1    1    2  502    0  0.48490859571E+02  0.70421840333E+02 -0.25759317229E+02  0.89395826983E+02  0.41800000000E+01 0. -1.
         -5    1    1    2    0  502  0.16066864424E+02 -0.76223473172E+02 -0.93852055455E+02  0.12204033230E+03  0.41800000000E+01 0.  1.
        -11    1    3    3    0    0  0.11723632571E+02  0.23731788531E+02 -0.10204348722E+02  0.28368469829E+02  0.00000000000E+00 0. -1.
         11    1    3    3    0    0 -0.76281356567E+02 -0.17930155692E+02  0.13003954286E+02  0.79431975110E+02  0.00000000000E+00 0.  1.
</event>
<event>
 8    1  0.4798744E-006  0.9455771E+02  0.7561462E-02  0.1292175E+00
         -3   -1    0    0    0  501 -0.00000000000E+00  0.00000000000E+00  0.40301729011E+03  0.40301729011E+03  0.00000000000E+00 0.  1.
          3   -1    0    0  501    0  0.00000000000E+00 -0.00000000000E+00 -0.44541321722E+02  0.44541321722E+02  0.00000000000E+00 0. -1.
         23    2    1    2    0    0  0.67768251670E+01  0.22974491771E+02  0.31503264191E+03  0.33980555516E+03  0.12509395356E+03 0.  0.
         23    2    1    2    0    0 -0.67768251670E+01 -0.22974491771E+02  0.43443326476E+02  0.10775305667E+03  0.95653781813E+02 0.  0.
          5    1    3    3  502    0  0.40819960989E+02  0.44003750635E+02  0.73692402929E+02  0.95134861825E+02  0.41800000000E+01 0. -1.
         -5    1    3    3    0  502 -0.34043135822E+02 -0.21029258863E+02  0.24134023899E+03  0.24467069334E+03  0.41800000000E+01 0. -1.
        -11    1    4    4    0    0 -0.17158003892E+02 -0.53652474049E+02  0.36519825629E+01  0.56447515851E+02  0.00000000000E+00 0. -1.
         11    1    4    4    0    0  0.10381178725E+02  0.30677982278E+02  0.39791343914E+02  0.51305540820E+02  0.00000000000E+00 0.  1.
</event>
<event>
 8    1  0.4798744E-006  0.9887605E+02  0.7561462E-02  0.1282677E+00
         -1   -1    0    0    0  501 -0.00000000000E+00  0.00000000000E+00  0.12319862244E+04  0.12319862244E+04  0.00000000000E+00 0.  1.
          1   -1    0    0  501    0  0.00000000000E+00 -0.00000000000E+00 -0.11401092699E+02  0.11401092699E+02  0.00000000000E+00 0. -1.
         23    2    1    2    0    0  0.10539294962E+01  0.11671406271E+01  0.94912231581E+03  0.95733210624E+03  0.12509643596E+03 0.  0.
         23    2    1    2    0    0 -0.10539294962E+01 -0.11671406271E+01  0.27146281590E+03  0.28605521086E+03  0.90183425650E+02 0.  0.
          5    1    3    3  502    0 -0.53241641527E+02  0.64303468872E+01  0.70982873592E+03  0.71186398174E+03  0.41800000000E+01 0. -1.
         -5    1    3    3    0  502  0.54295571023E+02 -0.52632062601E+01  0.23929357988E+03  0.24546812450E+03  0.41800000000E+01 0. -1.
        -11    1    4    4    0    0  0.31086560711E+02  0.30912683555E+02  0.11273302783E+03  0.12095744634E+03  0.00000000000E+00 0. -1.
         11    1    4    4    0    0 -0.32140490207E+02 -0.32079824183E+02  0.15872978807E+03  0.16509776452E+03  0.00000000000E+00 0.  1.
</event>
<event>
 8    1  0.4798744E-006  0.6695581E+02  0.7561462E-02  0.1370762E+00
          1   -1    0    0  501    0  0.00000000000E+00  0.00000000000E+00  0.94296459581E+02  0.94296459581E+02  0.00000000000E+00 0. -1.
         -1   -1    0    0    0  501 -0.00000000000E+00 -0.00000000000E+00 -0.14778778818E+03  0.14778778818E+03  0.00000000000E+00 0.  1.
         23    2    1    2    0    0  0.11848422146E+02  0.13968383144E+02 -0.78711450895E+02  0.14892732374E+03  0.12509338279E+03 0.  0.
         23    2    1    2    0    0 -0.11848422146E+02 -0.13968383144E+02  0.25220122292E+02  0.93156924027E+02  0.87787567974E+02 0.  0.
          5    1    3    3  502    0  0.94550985996E+01  0.45958367085E+02  0.15281122946E+02  0.49523282536E+02  0.41800000000E+01 0.  1.
         -5    1    3    3    0  502  0.23933235459E+01 -0.31989983941E+02 -0.93992573841E+02  0.99404041203E+02  0.41800000000E+01 0.  1.
        -11    1    4    4    0    0 -0.30326588920E+02  0.14893889014E+01 -0.23771949978E+02  0.38561974542E+02  0.00000000000E+00 0.  1.
         11    1    4    4    0    0  0.18478166774E+02 -0.15457772045E+02  0.48992072270E+02  0.54594949485E+02  0.00000000000E+00 0. -1.
</event>
<event>
 8    1  0.4798744E-006  0.9062443E+02  0.7561462E-02  0.1301347E+00
          1   -1    0    0  501    0  0.00000000000E+00  0.00000000000E+00  0.55652786471E+03  0.55652786471E+03  0.00000000000E+00 0. -1.
         -1   -1    0    0    0  501 -0.00000000000E+00 -0.00000000000E+00 -0.35367227577E+02  0.35367227577E+02  0.00000000000E+00 0.  1.
         23    2    1    2    0    0 -0.47234996049E+02  0.45669021379E+02  0.16007335582E+03  0.21351263303E+03  0.12508941144E+03 0.  0.
         23    2    1    2    0    0  0.47234996049E+02 -0.45669021379E+02  0.36108728131E+03  0.37838245925E+03  0.92045947127E+02 0.  0.
          5    1    3    3  502    0 -0.37070888506E+02  0.23490591274E+02 -0.69807422895E+01  0.44634760176E+02  0.41800000000E+01 0. -1.
         -5    1    3    3    0  502 -0.10164107543E+02  0.22178430105E+02  0.16705409811E+03  0.16887787286E+03  0.41800000000E+01 0. -1.
        -11    1    4    4    0    0 -0.41107955514E+01 -0.59176044668E+02  0.16976480855E+03  0.17982990053E+03  0.00000000000E+00 0. -1.
         11    1    4    4    0    0  0.51345791601E+02  0.13507023289E+02  0.19132247276E+03  0.19855255873E+03  0.00000000000E+00 0.  1.
</event>
<event>
 8    1  0.4798744E-006  0.2226532E+03  0.7561462E-02  0.1131920E+00
          2   -1    0    0  501    0  0.00000000000E+00  0.00000000000E+00  0.11786383010E+04  0.11786383010E+04  0.00000000000E+00 0. -1.
         -2   -1    0    0    0  501 -0.00000000000E+00 -0.00000000000E+00 -0.43150352274E+02  0.43150352274E+02  0.00000000000E+00 0.  1.
         23    2    1    2    0    0 -0.15834649127E+03 -0.11734118778E+03  0.54379616896E+03  0.59178039025E+03  0.12508873359E+03 0.  0.
         23    2    1    2    0    0  0.15834649127E+03  0.11734118778E+03  0.59169177972E+03  0.63000826297E+03  0.89267483317E+02 0.  0.
          5    1    3    3  502    0 -0.17401010745E+03 -0.77966211474E+02  0.45182597480E+03  0.49043086315E+03  0.41800000000E+01 0.  1.
         -5    1    3    3    0  502  0.15663616186E+02 -0.39374976302E+02  0.91970194153E+02  0.10134952710E+03  0.41800000000E+01 0.  1.
        -11    1    4    4    0    0  0.98998449594E+02  0.24789368984E+02  0.22240576534E+03  0.24470294296E+03  0.00000000000E+00 0.  1.
         11    1    4    4    0    0  0.59348041674E+02  0.92551818791E+02  0.36928601438E+03  0.38530532001E+03  0.00000000000E+00 0. -1.
</event>
<event>
 8    1  0.4798744E-006  0.9626802E+02  0.7561462E-02  0.1288345E+00
          2   -1    0    0  501    0  0.00000000000E+00  0.00000000000E+00  0.80659017524E+03  0.80659017524E+03  0.00000000000E+00 0.  1.
         -2   -1    0    0    0  501 -0.00000000000E+00 -0.00000000000E+00 -0.17846359502E+02  0.17846359502E+02  0.00000000000E+00 0. -1.
         23    2    1    2    0    0 -0.32243514595E+02 -0.31610527421E+02  0.37046406393E+03  0.39361220809E+03  0.12509227801E+03 0.  0.
         23    2    1    2    0    0  0.32243514595E+02  0.31610527421E+02  0.41827975181E+03  0.43082432665E+03  0.92805064434E+02 0.  0.
          5    1    3    3  502    0 -0.63992639973E+02 -0.79664096490E+01  0.33209766393E+03  0.33832654705E+03  0.41800000000E+01 0.  1.
         -5    1    3    3    0  502  0.31749125377E+02 -0.23644117772E+02  0.38366400001E+02  0.55285661039E+02  0.41800000000E+01 0.  1.
        -11    1    4    4    0    0 -0.22971470410E+02 -0.26556340419E+01  0.34188347744E+02  0.41274495350E+02  0.00000000000E+00 0. -1.
         11    1    4    4    0    0  0.55214985006E+02  0.34266161463E+02  0.38409140406E+03  0.38954983130E+03  0.00000000000E+00 0.  1.
</event>
<event>
 8    1  0.4798744E-006  0.6687837E+02  0.7561462E-02  0.1371042E+00
         -3   -1    0    0    0  501 -0.00000000000E+00  0.00000000000E+00  0.13509429516E+03  0.13509429516E+03  0.00000000000E+00 0.  1.
          3   -1    0    0  501    0  0.00000000000E+00 -0.00000000000E+00 -0.93995138475E+02  0.93995138475E+02  0.00000000000E+00 0. -1.
         23    2    1    2    0    0  0.16546518919E+02 -0.67934472725E+00  0.47278322417E+02  0.13474793065E+03  0.12509003256E+03 0.  0.
         23    2    1    2    0    0 -0.16546518919E+02  0.67934472725E+00 -0.61791657282E+01  0.94341502987E+02  0.92670860032E+02 0.  0.
          5    1    3    3  502    0  0.46512219588E+02  0.16527182320E+02  0.75251967389E+02  0.90093647514E+02  0.41800000000E+01 0. -1.
         -5    1    3    3    0  502 -0.29965700669E+02 -0.17206527048E+02 -0.27973644972E+02  0.44654283138E+02  0.41800000000E+01 0. -1.
        -11    1    4    4    0    0  0.13725694476E+02 -0.10353217394E+02  0.36804796725E+02  0.40622368976E+02  0.00000000000E+00 0.  1.
         11    1    4    4    0    0 -0.30272213395E+02  0.11032562122E+02 -0.42983962453E+02  0.53719134011E+02  0.00000000000E+00 0. -1.
</event>
<event>
 8    1  0.4798744E-006  0.1148957E+03  0.7561462E-02  0.1251763E+00
         -2   -1    0    0    0  501 -0.00000000000E+00  0.00000000000E+00  0.60059124636E+02  0.60059124636E+02  0.00000000000E+00 0.  1.
          2   -1    0    0  501    0  0.00000000000E+00 -0.00000000000E+00 -0.24040346595E+03  0.24040346595E+03  0.00000000000E+00 0. -1.
         23    2    1    2    0    0 -0.53287793580E+02  0.10048759657E+02 -0.88906965435E+02  0.16276568098E+03  0.12509057473E+03 0.  0.
         23    2    1    2    0    0  0.53287793580E+02 -0.10048759657E+02 -0.91437375882E+02  0.13769690961E+03  0.87516162463E+02 0.  0.
          5    1    3    3  502    0  0.37549112599E+02 -0.20093825222E+01 -0.44820678163E+01  0.38099013203E+02  0.41800000000E+01 0.  1.
         -5    1    3    3    0  502 -0.90836906179E+02  0.12058142179E+02 -0.84424897618E+02  0.12466666778E+03  0.41800000000E+01 0.  1.
        -11    1    4    4    0    0  0.16283369986E+02 -0.45901253637E+02 -0.28765562402E+02  0.56564395195E+02  0.00000000000E+00 0.  1.
         11    1    4    4    0    0  0.37004423594E+02  0.35852493980E+02 -0.62671813480E+02  0.81132514413E+02  0.00000000000E+00 0. -1.
</event>
<event>
 8    1  0.4798744E-006  0.1737821E+03  0.7561462E-02  0.1173960E+00
          1   -1    0    0  501    0  0.00000000000E+00  0.00000000000E+00  0.27792161368E+03  0.27792161368E+03  0.00000000000E+00 0.  1.
         -1   -1    0    0    0  501 -0.00000000000E+00 -0.00000000000E+00 -0.12293666292E+03  0.12293666292E+03  0.00000000000E+00 0. -1.
         23    2    1    2    0    0 -0.13797630888E+03 -0.92893917380E+01  0.20859232217E+02  0.18763483128E+03  0.12509183719E+03 0.  0.
         23    2    1    2    0    0  0.13797630888E+03  0.92893917380E+01  0.13412571854E+03  0.21322344533E+03  0.91382573022E+02 0.  0.
          5    1    3    3  502    0 -0.16131837984E+03 -0.13450902706E+02  0.13667645079E+02  0.16250791790E+03  0.41800000000E+01 0. -1.
         -5    1    3    3    0  502  0.23342070966E+02  0.41615109679E+01  0.71915871379E+01  0.25126913381E+02  0.41800000000E+01 0. -1.
        -11    1    4    4    0    0  0.97836948958E+02  0.45130267682E+02  0.11087576568E+03  0.15460350920E+03  0.00000000000E+00 0.  1.
         11    1    4    4    0    0  0.40139359917E+02 -0.35840875944E+02  0.23249952863E+02  0.58619936123E+02  0.00000000000E+00 0. -1.
</event>
<event>
 8    1  0.4798744E-006  0.1156808E+03  0.7561462E-02  0.1250397E+00
          1   -1    0    0  501    0  0.00000000000E+00  0.00000000000E+00  0.24655810065E+03  0.24655810065E+03  0.00000000000E+00 0. -1.
         -1   -1    0    0    0  501 -0.00000000000E+00 -0.00000000000E+00 -0.75065504327E+02  0.75065504327E+02  0.00000000000E+00 0.  1.
         23    2    1    2    0    0  0.48025361906E+02 -0.13912422251E+02  0.17268988338E+02  0.13581306527E+03  0.12508788854E+03 0.  0.
         23    2    1    2    0    0 -0.48025361906E+02  0.13912422251E+02  0.15422360799E+03  0.18581053971E+03  0.90777995832E+02 0.  0.
          5    1    3    3  502    0  0.34157590349E+02  0.54661857940E+02  0.68169526807E+01  0.64950773173E+02  0.41800000000E+01 0.  1.
         -5    1    3    3    0  502  0.13867771557E+02 -0.68574280191E+02  0.10452035657E+02  0.70862292096E+02  0.41800000000E+01 0.  1.
        -11    1    4    4    0    0  0.67987975838E+01 -0.27275569800E+02  0.18221502212E+02  0.33499305954E+02  0.00000000000E+00 0.  1.
         11    1    4    4    0    0 -0.54824159489E+02  0.41187992051E+02  0.13600210577E+03  0.15231123375E+03  0.00000000000E+00 0. -1.
</event>
<event>
 7    1  0.4798744E-006  0.1407269E+03  0.7561462E-02  0.1212354E+00
          1   -1    0    0  501    0  0.00000000000E+00  0.00000000000E+00  0.17173887915E+03  0.17173887915E+03  0.00000000000E+00 0. -1.
         -1   -1    0    0    0  501 -0.00000000000E+00 -0.00000000000E+00 -0.16224865907E+03  0.16224865907E+03  0.00000000000E+00 0.  1.
         23    2    1    2    0    0 -0.37986536614E+02  0.41746301358E+02 -0.55011190809E+01  0.13734552503E+03  0.12509116793E+03 0.  0.
          5    1    3    3  502    0 -0.46085402752E+02  0.35876466796E+01  0.50744436302E+02  0.68769221103E+02  0.41800000000E+01 0.  1.
         -5    1    3    3    0  502  0.80988661373E+01  0.38158654678E+02 -0.56245555383E+02  0.68576303925E+02  0.41800000000E+01 0.  1.
        -11    1    1    2    0    0  0.80063083868E+02  0.50333548414E+02  0.21695881683E+01  0.94595299076E+02  0.00000000000E+00 0. -1.
         11    1    1    2    0    0 -0.42076547254E+02 -0.92079849772E+02  0.12821750992E+02  0.10204671411E+03  0.00000000000E+00 0.  1.
</event>
<event>
 8    1  0.4798744E-006  0.2081353E+03  0.7561462E-02  0.1143051E+00
          2   -1    0    0  501    0  0.00000000000E+00  0.00000000000E+00  0.16497813217E+03  0.16497813217E+03  0.00000000000E+00 0. -1.
         -2   -1    0    0    0  501 -0.00000000000E+00 -0.00000000000E+00 -0.57748244487E+03  0.57748244487E+03  0.00000000000E+00 0.  1.
         23    2    1    2    0    0  0.31802792533E+02 -0.19065003868E+03 -0.46814594240E+03  0.52169759278E+03  0.12509556374E+03 0.  0.
         23    2    1    2    0    0 -0.31802792533E+02  0.19065003868E+03  0.55641629698E+02  0.22076298425E+03  0.91002469181E+02 0.  0.
          5    1    3    3  502    0  0.35699138111E+02 -0.41236618133E+02 -0.38814271410E+02  0.67073893595E+02  0.41800000000E+01 0. -1.
         -5    1    3    3    0  502 -0.38963455772E+01 -0.14941342055E+03 -0.42933167099E+03  0.45462369919E+03  0.41800000000E+01 0. -1.
        -11    1    4    4    0    0 -0.53762873538E+02  0.64362793958E+02  0.89407107429E+01  0.84338319438E+02  0.00000000000E+00 0.  1.
         11    1    4    4    0    0  0.21960081004E+02  0.12628724472E+03  0.46700918955E+02  0.13642466481E+03  0.00000000000E+00 0. -1.
</event>
<event>
 8    1  0.4798744E-006  0.1354584E+03  0.7561462E-02  0.1219574E+00
          2   -1    0    0  501    0  0.00000000000E+00  0.00000000000E+00  0.71411145366E+02  0.71411145366E+02  0.00000000000E+00 0. -1.
         -2   -1    0    0    0  501 -0.00000000000E+00 -0.00000000000E+00 -0.34703377853E+03  0.34703377853E+03  0.00000000000E+00 0.  1.
         23    2    1    2    0    0 -0.11010329297E+03 -0.28235967758E+02 -0.15444036547E+03  0.22895361345E+03  0.12509166889E+03 0.  0.
         23    2    1    2    0    0  0.11010329297E+03  0.28235967758E+02 -0.12118226769E+03  0.18949131045E+03  0.91114267454E+02 0.  0.
          5    1    3    3  502    0 -0.49364370070E+02 -0.39715790171E+02 -0.15445625501E+03  0.16699818003E+03  0.41800000000E+01 0. -1.
         -5    1    3    3    0  502 -0.60738922899E+02  0.11479822412E+02  0.15889541055E-01  0.61955433418E+02  0.41800000000E+01 0. -1.
        -11    1    4    4    0    0  0.10927727019E+03  0.52467557069E+02 -0.10467205448E+03  0.16015806353E+03  0.00000000000E+00 0.  1.
         11    1    4    4    0    0  0.82602277650E+00 -0.24231589311E+02 -0.16510213213E+02  0.29333246913E+02  0.00000000000E+00 0. -1.
</event>
<event>
 8    1  0.4798744E-006  0.7720003E+02  0.7561462E-02  0.1337190E+00
          1   -1    0    0  501    0  0.00000000000E+00  0.00000000000E+00  0.49766359566E+02  0.49766359566E+02  0.00000000000E+00 0. -1.
         -1   -1    0    0    0  501 -0.00000000000E+00 -0.00000000000E+00 -0.28720383295E+03  0.28720383295E+03  0.00000000000E+00 0.  1.
         23    2    1    2    0    0  0.26803184310E+02 -0.12230759435E+02 -0.19069027059E+03  0.22995266196E+03  0.12508974890E+03 0.  0.
         23    2    1    2    0    0 -0.26803184310E+02  0.12230759435E+02 -0.46747202795E+02  0.10701753056E+03  0.91648506327E+02 0.  0.
          5    1    3    3  502    0  0.26966593273E+02  0.27846350130E+02 -0.18523091824E+03  0.18928967705E+03  0.41800000000E+01 0.  1.
         -5    1    3    3    0  502 -0.16340896225E+00 -0.40077109566E+02 -0.54593523565E+01  0.40662984910E+02  0.41800000000E+01 0.  1.
        -11    1    4    4    0    0 -0.16582301258E+02  0.41192317675E+02  0.71572109832E+01  0.44977832534E+02  0.00000000000E+00 0. -1.
         11    1    4    4    0    0 -0.10220883052E+02 -0.28961558239E+02 -0.53904413779E+02  0.62039698023E+02  0.00000000000E+00 0.  1.
</event>
<event>
 8    1  0.4798744E-006  0.8021178E+02  0.7561462E-02  0.1328452E+00
          2   -1    0    0  501    0  0.00000000000E+00  0.00000000000E+00  0.24060733302E+03  0.24060733302E+03  0.00000000000E+00 0. -1.
         -2   -1    0    0    0  501 -0.00000000000E+00 -0.00000000000E+00 -0.53408632047E+02  0.53408632047E+02  0.00000000000E+00 0.  1.
         23    2    1    2    0    0  0.21806843713E+02  0.21463268866E+02  0.93032611927E+02  0.15886678678E+03  0.12508948283E+03 0.  0.
         23    2    1    2    0    0 -0.21806843713E+02 -0.21463268866E+02  0.94166089050E+02  0.13514917830E+03  0.91988247749E+02 0.  0.
          5    1    3    3  502    0 -0.20924968236E+02  0.48849832990E+02  0.57332173178E+00  0.53310051366E+02  0.41800000000E+01 0.  1.
         -5    1    3    3    0  502  0.42731811949E+02 -0.27386564124E+02  0.92459290196E+02  0.10555673541E+03  0.41800000000E+01 0.  1.
        -11    1    4    4    0    0  0.14960997886E+02 -0.84810421875E+01 -0.12708438548E+02  0.21383730841E+02  0.00000000000E+00 0.  1.
         11    1    4    4    0    0 -0.36767841599E+02 -0.12982226678E+02  0.10687452760E+03  0.11376544746E+03  0.00000000000E+00 0. -1.
</event>
<event>
 8    1  0.4798744E-006  0.1142097E+03  0.7561462E-02  0.1252967E+00
         -1   -1    0    0    0  501 -0.00000000000E+00  0.00000000000E+00  0.29468085490E+03  0.29468085490E+03  0.00000000000E+00 0.  1.
          1   -1    0    0  501    0  0.00000000000E+00 -0.00000000000E+00 -0.91838475441E+02  0.91838475441E+02  0.00000000000E+00 0. -1.
         23    2    1    2    0    0 -0.68534599881E+02 -0.36232257019E+02  0.22057080210E+03  0.26667727694E+03  0.12827908430E+03 0.  0.
         23    2    1    2    0    0  0.68534599881E+02  0.36232257019E+02 -0.17728422637E+02  0.11984205340E+03  0.89655189281E+02 0.  0.
          5    1    3    3  502    0  0.23044269677E+02  0.10321881220E+01 -0.15658332994E+01  0.23495276359E+02  0.41800000000E+01 0. -1.
         -5    1    3    3    0  502 -0.91578869559E+02 -0.37264445141E+02  0.22213663540E+03  0.24318200058E+03  0.41800000000E+01 0.  1.
        -11    1    4    4    0    0  0.79385316658E+02  0.13089146781E+02  0.11206810746E+02  0.81233902230E+02  0.00000000000E+00 0.  1.
         11    1    4    4    0    0 -0.10850716777E+02  0.23143110238E+02 -0.28935233383E+02  0.38608151173E+02  0.00000000000E+00 0. -1.
</event>
<event>
 8    1  0.4798744E-006  0.1067036E+03  0.7561462E-02  0.1266799E+00
         -4   -1    0    0    0  501 -0.00000000000E+00  0.00000000000E+00  0.39272312433E+02  0.39272312433E+02  0.00000000000E+00 0.  1.
          4   -1    0    0  501    0  0.00000000000E+00 -0.00000000000E+00 -0.33029158531E+03  0.33029158531E+03  0.00000000000E+00 0. -1.
         23    2    1    2    0    0  0.38136296937E+02 -0.98249783788E+01 -0.14950383853E+03  0.19887041326E+03  0.12508851342E+03 0.  0.
         23    2    1    2    0    0 -0.38136296937E+02  0.98249783788E+01 -0.14151543435E+03  0.17069348449E+03  0.86941015309E+02 0.  0.
          5    1    3    3  502    0  0.12183064622E+02  0.51829028175E+02 -0.28475843822E+02  0.60522899026E+02  0.41800000000E+01 0. -1.
         -5    1    3    3    0  502  0.25953232315E+02 -0.61654006553E+02 -0.12102799471E+03  0.13834751424E+03  0.41800000000E+01 0. -1.
        -11    1    4    4    0    0 -0.50738692497E+02  0.37150721132E+02 -0.76335059189E+02  0.98902134751E+02  0.00000000000E+00 0.  1.
         11    1    4    4    0    0  0.12602395560E+02 -0.27325742753E+02 -0.65180375160E+02  0.71791349736E+02  0.00000000000E+00 0. -1.
</event>
<event>
 8    1  0.4798744E-006  0.9095893E+02  0.7561462E-02  0.1300546E+00
          1   -1    0    0  501    0  0.00000000000E+00  0.00000000000E+00  0.14966394907E+03  0.14966394907E+03  0.00000000000E+00 0. -1.
         -1   -1    0    0    0  501 -0.00000000000E+00 -0.00000000000E+00 -0.86662517965E+02  0.86662517965E+02  0.00000000000E+00 0.  1.
         23    2    1    2    0    0 -0.51296155532E+01 -0.32715733486E+01 -0.38652877281E+01  0.12529597198E+03  0.12508846468E+03 0.  0.
         23    2    1    2    0    0  0.51296155532E+01  0.32715733486E+01  0.66866718832E+02  0.11103049506E+03  0.88428482954E+02 0.  0.
          5    1    3    3  502    0 -0.37426627674E+02 -0.36507698629E+02 -0.40342554401E+02  0.66170677901E+02  0.41800000000E+01 0.  1.
         -5    1    3    3    0  502  0.32297012121E+02  0.33236125280E+02  0.36477266673E+02  0.59125294076E+02  0.41800000000E+01 0.  1.
        -11    1    4    4    0    0  0.38760218963E+02 -0.18422058002E+02  0.14875918479E+02  0.45420477162E+02  0.00000000000E+00 0.  1.
         11    1    4    4    0    0 -0.33630603409E+02  0.21693631351E+02  0.51990800353E+02  0.65610017896E+02  0.00000000000E+00 0. -1.
</event>
<event>
 8    1  0.4798744E-006  0.9426942E+02  0.7561462E-02  0.1292830E+00
          2   -1    0    0  501    0  0.00000000000E+00  0.00000000000E+00  0.12984041202E+03  0.12984041202E+03  0.00000000000E+00 0. -1.
         -2   -1    0    0    0  501 -0.00000000000E+00 -0.00000000000E+00 -0.13974632707E+03  0.13974632707E+03  0.00000000000E+00 0.  1.
         23    2    1    2    0    0  0.57890967326E+02  0.15423071428E+02 -0.58491237166E+02  0.15116433649E+03  0.12585784271E+03 0.  0.
         23    2    1    2    0    0 -0.57890967326E+02 -0.15423071428E+02  0.48585322110E+02  0.11842240260E+03  0.89855977453E+02 0.  0.
          5    1    3    3  502    0  0.46998464760E+02 -0.15416111224E+02  0.29123006750E+02  0.57551143318E+02  0.41800000000E+01 0.  1.
         -5    1    3    3    0  502  0.10892502566E+02  0.30839182651E+02 -0.87614243915E+02  0.93613193171E+02  0.41800000000E+01 0.  1.
        -11    1    4    4    0    0  0.23424700226E+02 -0.19753240386E+01  0.16277589664E+01  0.23564127079E+02  0.00000000000E+00 0.  1.
         11    1    4    4    0    0 -0.81315667552E+02 -0.13447747389E+02  0.46957563143E+02  0.94858275525E+02  0.00000000000E+00 0. -1.
</event>
<event>
 8    1  0.4798744E-006  0.1388173E+03  0.7561462E-02  0.1214929E+00
         -1   -1    0    0    0  501 -0.00000000000E+00  0.00000000000E+00  0.23843362729E+03  0.23843362729E+03  0.00000000000E+00 0.  1.
          1   -1    0    0  501    0  0.00000000000E+00 -0.00000000000E+00 -0.10712197863E+03  0.10712197863E+03  0.00000000000E+00 0. -1.
         23    2    1    2    0    0  0.56341465665E+01 -0.11214103203E+03  0.10755446115E+03  0.19955724234E+03  0.12509107155E+03 0.  0.
         23    2    1    2    0    0 -0.56341465665E+01  0.11214103203E+03  0.23757187508E+02  0.14599836358E+03  0.90242803241E+02 0.  0.
          5    1    3    3  502    0 -0.36337586515E+02 -0.11389555814E+03  0.10155190579E+03  0.15691679428E+03  0.41800000000E+01 0. -1.
         -5    1    3    3    0  502  0.41971733082E+02  0.17545261050E+01  0.60025553610E+01  0.42640448058E+02  0.41800000000E+01 0. -1.
        -11    1    4    4    0    0  0.10111386026E+02  0.21056245225E+02  0.45405595769E+02  0.51061469989E+02  0.00000000000E+00 0.  1.
         11    1    4    4    0    0 -0.15745532592E+02  0.91084786806E+02 -0.21648408261E+02  0.94936893589E+02  0.00000000000E+00 0. -1.
</event>
<event>
 8    1  0.4798744E-006  0.9482794E+02  0.7561462E-02  0.1291564E+00
          2   -1    0    0  501    0  0.00000000000E+00  0.00000000000E+00  0.37048883153E+02  0.37048883153E+02  0.00000000000E+00 0. -1.
         -2   -1    0    0    0  501 -0.00000000000E+00 -0.00000000000E+00 -0.41298993183E+03  0.41298993183E+03  0.00000000000E+00 0.  1.
         23    2    1    2    0    0  0.54099546413E+02 -0.55732297195E+01 -0.25812763436E+03  0.29194624927E+03  0.12507963475E+03 0.  0.
         23    2    1    2    0    0 -0.54099546413E+02  0.55732297195E+01 -0.11781341432E+03  0.15809256572E+03  0.90307457777E+02 0.  0.
          5    1    3    3  502    0  0.25268133179E+02  0.36506413752E+02 -0.22849599834E+03  0.23280698112E+03  0.41800000000E+01 0.  1.
         -5    1    3    3    0  502  0.28831413234E+02 -0.42079643472E+02 -0.29631636014E+02  0.59139268144E+02  0.41800000000E+01 0.  1.
        -11    1    4    4    0    0 -0.64350957451E+02  0.27265221492E+02 -0.49375298654E+02  0.85570778570E+02  0.00000000000E+00 0. -1.
         11    1    4    4    0    0  0.10251411038E+02 -0.21691991773E+02 -0.68438115665E+02  0.72521787148E+02  0.00000000000E+00 0.  1.
</event>
<event>
 8    1  0.4798744E-006  0.2050937E+03  0.7561462E-02  0.1145511E+00
          2   -1    0    0  501    0  0.00000000000E+00  0.00000000000E+00  0.72094203928E+03  0.72094203928E+03  0.00000000000E+00 0. -1.
         -2   -1    0    0    0  501 -0.00000000000E+00 -0.00000000000E+00 -0.75339728040E+02  0.75339728040E+02  0.00000000000E+00 0.  1.
         23    2    1    2    0    0  0.19664601588E+03  0.42410336927E+02  0.40703242190E+03  0.47094834840E+03  0.12509461279E+03 0.  0.
         23    2    1    2    0    0 -0.19664601588E+03 -0.42410336927E+02  0.23856988934E+03  0.32533341891E+03  0.91967108923E+02 0.  0.
          5    1    3    3  502    0  0.10613703570E+03  0.28514671021E+02  0.93699899026E+02  0.14448287195E+03  0.41800000000E+01 0.  1.
         -5    1    3    3    0  502  0.90508980179E+02  0.13895665906E+02  0.31333252287E+03  0.32646547645E+03  0.41800000000E+01 0.  1.
        -11    1    4    4    0    0 -0.11483771318E+03  0.31929420325E+01  0.76102547804E+02  0.13780236946E+03  0.00000000000E+00 0.  1.
         11    1    4    4    0    0 -0.81808302696E+02 -0.45603278959E+02  0.16246734154E+03  0.18753104945E+03  0.00000000000E+00 0. -1.
</event>
<event>
 8    1  0.4798744E-006  0.1035999E+03  0.7561462E-02  0.1272903E+00
         -3   -1    0    0    0  501 -0.00000000000E+00  0.00000000000E+00  0.21462973365E+03  0.21462973365E+03  0.00000000000E+00 0.  1.
          3   -1    0    0  501    0  0.00000000000E+00 -0.00000000000E+00 -0.78696087807E+02  0.78696087807E+02  0.00000000000E+00 0. -1.
         23    2    1    2    0    0  0.58934812175E+02 -0.31686371955E+02  0.10500074797E+03  0.17649586603E+03  0.12509314690E+03 0.  0.
         23    2    1    2    0    0 -0.58934812175E+02  0.31686371955E+02  0.30932897879E+02  0.11682995542E+03  0.90636946436E+02 0.  0.
          5    1    3    3  502    0  0.79415991627E+02 -0.61087131049E+02  0.97058226190E+02  0.13955754719E+03  0.41800000000E+01 0. -1.
         -5    1    3    3    0  502 -0.20481179453E+02  0.29400759094E+02  0.79425217756E+01  0.36938318847E+02  0.41800000000E+01 0. -1.
        -11    1    4    4    0    0 -0.12991803709E+02  0.19294918539E+02  0.57714865175E+02  0.62226091852E+02  0.00000000000E+00 0.  1.
         11    1    4    4    0    0 -0.45943008465E+02  0.12391453416E+02 -0.26781967296E+02  0.54603863571E+02  0.00000000000E+00 0. -1.
</event>
<event>
 8    1  0.4798744E-006  0.1143607E+03  0.7561462E-02  0.1252701E+00
         -2   -1    0    0    0  501 -0.00000000000E+00  0.00000000000E+00  0.41545224556E+03  0.41545224556E+03  0.00000000000E+00 0.  1.
          2   -1    0    0  501    0  0.00000000000E+00 -0.00000000000E+00 -0.74903837307E+02  0.74903837307E+02  0.00000000000E+00 0. -1.
         23    2    1    2    0    0 -0.87374668435E+02  0.72961000818E+02  0.28997293619E+03  0.33569313476E+03  0.12509171308E+03 0.  0.
         23    2    1    2    0    0  0.87374668435E+02 -0.72961000818E+02  0.50575472063E+02  0.15466294810E+03  0.91679380541E+02 0.  0.
          5    1    3    3  502    0 -0.55357488129E+02  0.45165547970E+02  0.28375028197E+03  0.29263641799E+03  0.41800000000E+01 0.  1.
         -5    1    3    3    0  502 -0.32017180307E+02  0.27795452848E+02  0.62226542158E+01  0.43056716774E+02  0.41800000000E+01 0.  1.
        -11    1    4    4    0    0  0.44022362398E+02 -0.28449581570E+02  0.71894503367E+02  0.88972842469E+02  0.00000000000E+00 0.  1.
         11    1    4    4    0    0  0.43352306037E+02 -0.44511419248E+02 -0.21319031304E+02  0.65690105632E+02  0.00000000000E+00 0. -1.
</event>
<event>
 8    1  0.4798744E-006  0.1141181E+03  0.7561462E-02  0.1253128E+00
         -1   -1    0    0    0  501 -0.00000000000E+00  0.00000000000E+00  0.20858916899E+02  0.20858916899E+02  0.00000000000E+00 0. -1.
          1   -1    0    0  501    0  0.00000000000E+00 -0.00000000000E+00 -0.86879097449E+03  0.86879097449E+03  0.00000000000E+00 0.  1.
         23    2    1    2    0    0  0.30148767294E+02 -0.73506157454E+02 -0.46690720765E+03  0.48985909323E+03  0.12508991693E+03 0.  0.
         23    2    1    2    0    0 -0.30148767294E+02  0.73506157454E+02 -0.38102484994E+03  0.39979079815E+03  0.91327118982E+02 0.  0.
          5    1    3    3  502    0 -0.51986607151E+01 -0.71848891511E+02 -0.11241804365E+03  0.13358360013E+03  0.41800000000E+01 0.  1.
         -5    1    3    3    0  502  0.35347428009E+02 -0.16572659430E+01 -0.35448916400E+03  0.35627549311E+03  0.41800000000E+01 0.  1.
        -11    1    4    4    0    0  0.33627699253E+01  0.84963526341E+02 -0.25004017359E+03  0.26410262672E+03  0.00000000000E+00 0.  1.
         11    1    4    4    0    0 -0.33511537219E+02 -0.11457368887E+02 -0.13098467635E+03  0.13568817144E+03  0.00000000000E+00 0. -1.
</event>
<event>
 8    1  0.4798744E-006  0.1443269E+03  0.7561462E-02  0.1207623E+00
         -1   -1    0    0    0  501 -0.00000000000E+00  0.00000000000E+00  0.54485940815E+02  0.54485940815E+02  0.00000000000E+00 0.  1.
          1   -1    0    0  501    0  0.00000000000E+00 -0.00000000000E+00 -0.51100936515E+03  0.51100936515E+03  0.00000000000E+00 0. -1.
         23    2    1    2    0    0  0.72052363221E+01 -0.10235390329E+03 -0.11634747531E+03  0.19928123672E+03  0.12509212345E+03 0.  0.
         23    2    1    2    0    0 -0.72052363221E+01  0.10235390329E+03 -0.34017594903E+03  0.36621406925E+03  0.88683883927E+02 0.  0.
          5    1    3    3  502    0 -0.15746290331E+02 -0.12407068210E+03 -0.11036634676E+03  0.16685227811E+03  0.41800000000E+01 0.  1.
         -5    1    3    3    0  502  0.22951526653E+02  0.21716778808E+02 -0.59811285517E+01  0.32428958606E+02  0.41800000000E+01 0.  1.
        -11    1    4    4    0    0  0.91707928426E+01  0.11217567515E+03 -0.31575020136E+03  0.33520989722E+03  0.00000000000E+00 0.  1.
         11    1    4    4    0    0 -0.16376029165E+02 -0.98217718651E+01 -0.24425747673E+02  0.31004172029E+02  0.00000000000E+00 0. -1.
</event>
<event>
 8    1  0.4798744E-006  0.1026476E+03  0.7561462E-02  0.1274825E+00
         -2   -1    0    0    0  501 -0.00000000000E+00  0.00000000000E+00  0.26789869456E+02  0.26789869456E+02  0.00000000000E+00 0.  1.
          2   -1    0    0  501    0  0.00000000000E+00 -0.00000000000E+00 -0.87585628349E+03  0.87585628349E+03  0.00000000000E+00 0. -1.
         23    2    1    2    0    0  0.65189604896E+02 -0.31172691870E+02 -0.22288699011E+03  0.26560968773E+03  0.12509386296E+03 0.  0.
         23    2    1    2    0    0 -0.65189604896E+02  0.31172691870E+02 -0.62617942393E+03  0.63703646522E+03  0.92159458361E+02 0.  0.
          5    1    3    3  502    0  0.39733038294E+02 -0.44827913525E+02 -0.22817672500E+03  0.23594564288E+03  0.41800000000E+01 0.  1.
         -5    1    3    3    0  502  0.25456566602E+02  0.13655221655E+02  0.52897348890E+01  0.29664044849E+02  0.41800000000E+01 0.  1.
        -11    1    4    4    0    0 -0.87577508803E+02  0.33018505385E+02 -0.53537608251E+03  0.54349571431E+03  0.00000000000E+00 0. -1.
         11    1    4    4    0    0  0.22387903907E+02 -0.18458135151E+01 -0.90803341416E+02  0.93540750912E+02  0.00000000000E+00 0.  1.
</event>
<event>
 8    1  0.4798744E-006  0.1151148E+03  0.7561462E-02  0.1251381E+00
          1   -1    0    0  501    0  0.00000000000E+00  0.00000000000E+00  0.83944564104E+03  0.83944564104E+03  0.00000000000E+00 0.  1.
         -1   -1    0    0    0  501 -0.00000000000E+00 -0.00000000000E+00 -0.18268576845E+02  0.18268576845E+02  0.00000000000E+00 0. -1.
         23    2    1    2    0    0  0.47278356158E+02 -0.35891793805E+02  0.47513239786E+03  0.49489628471E+03  0.12509225914E+03 0.  0.
         23    2    1    2    0    0 -0.47278356158E+02  0.35891793805E+02  0.34604466634E+03  0.36281793318E+03  0.91468452010E+02 0.  0.
          5    1    3    3  502    0 -0.32274661100E+02  0.16720069947E+02  0.73886374381E+02  0.82449276572E+02  0.41800000000E+01 0.  1.
         -5    1    3    3    0  502  0.79553017258E+02 -0.52611863752E+02  0.40124602348E+03  0.41244700813E+03  0.41800000000E+01 0.  1.
        -11    1    4    4    0    0 -0.37380397121E+02  0.60799398111E+02  0.30874716199E+03  0.31688905146E+03  0.00000000000E+00 0.  1.
         11    1    4    4    0    0 -0.98979590368E+01 -0.24907604306E+02  0.37297504348E+02  0.45928881719E+02  0.00000000000E+00 0. -1.
</event>
<event>
 8    1  0.4798744E-006  0.9567333E+02  0.7561462E-02  0.1289667E+00
         -1   -1    0    0    0  501 -0.00000000000E+00  0.00000000000E+00  0.45022200842E+02  0.45022200842E+02  0.00000000000E+00 0.  1.
          1   -1    0    0  501    0  0.00000000000E+00 -0.00000000000E+00 -0.24673450147E+03  0.24673450147E+03  0.00000000000E+00 0. -1.
         23    2    1    2    0    0 -0.19351533075E+02 -0.11369720890E+01 -0.83415282707E+02  0.15167456011E+03  0.12518501611E+03 0.  0.
         23    2    1    2    0    0  0.19351533075E+02  0.11369720890E+01 -0.11829701792E+03  0.14008214220E+03  0.72477910962E+02 0.  0.
          5    1    3    3  502    0  0.46743537829E+02  0.17091494364E+02 -0.96307750657E+01  0.50865526015E+02  0.41800000000E+01 0.  1.
         -5    1    3    3    0  502 -0.66095070904E+02 -0.18228466453E+02 -0.73784507641E+02  0.10080903409E+03  0.41800000000E+01 0.  1.
        -11    1    4    4    0    0 -0.26610454616E+02  0.25114977407E+01 -0.27753510651E+02  0.38531561988E+02  0.00000000000E+00 0.  1.
         11    1    4    4    0    0  0.45961987691E+02 -0.13745256517E+01 -0.90543507268E+02  0.10155058021E+03  0.00000000000E+00 0. -1.
</event>
<event>
 8    1  0.4798744E-006  0.2829729E+03  0.7561462E-02  0.1094076E+00
         -2   -1    0    0    0  501 -0.00000000000E+00  0.00000000000E+00  0.72860592606E+02  0.72860592606E+02  0.00000000000E+00 0.  1.
          2   -1    0    0  501    0  0.00000000000E+00 -0.00000000000E+00 -0.12306287486E+04  0.12306287486E+04  0.00000000000E+00 0. -1.
         23    2    1    2    0    0 -0.27198929596E+03 -0.21044974995E+02 -0.71646176244E+03  0.77677972752E+03  0.12509284534E+03 0.  0.
         23    2    1    2    0    0  0.27198929596E+03  0.21044974995E+02 -0.44130639356E+03  0.52670961369E+03  0.90832901895E+02 0.  0.
          5    1    3    3  502    0 -0.85212596107E+02  0.38097718541E+02 -0.33690647795E+03  0.34962275381E+03  0.41800000000E+01 0.  1.
         -5    1    3    3    0  502 -0.18677669986E+03 -0.59142693537E+02 -0.37955528449E+03  0.42715697371E+03  0.41800000000E+01 0.  1.
        -11    1    4    4    0    0  0.36168724116E+02 -0.12685326021E+02 -0.21301662364E+02  0.43850369666E+02  0.00000000000E+00 0. -1.
         11    1    4    4    0    0  0.23582057185E+03  0.33730301016E+02 -0.42000473119E+03  0.48285924402E+03  0.00000000000E+00 0.  1.
</event>
<event>
 8    1  0.4798744E-006  0.1042597E+03  0.7561462E-02  0.1271585E+00
          3   -1    0    0  501    0  0.00000000000E+00  0.00000000000E+00  0.25280560010E+02  0.25280560010E+02  0.00000000000E+00 0. -1.
         -3   -1    0    0    0  501 -0.00000000000E+00 -0.00000000000E+00 -0.61727689098E+03  0.61727689098E+03  0.00000000000E+00 0.  1.
         23    2    1    2    0    0  0.55908621728E+02  0.15805522495E+02 -0.41997801945E+03  0.43946269172E+03  0.11563015206E+03 0.  0.
         23    2    1    2    0    0 -0.55908621728E+02 -0.15805522495E+02 -0.17201831151E+03  0.20309475927E+03  0.91003259400E+02 0.  0.
          5    1    3    3  502    0 -0.30532439560E+02  0.16971278906E+01 -0.46366131412E+02  0.55699197936E+02  0.41800000000E+01 0. -1.
         -5    1    3    3    0  502  0.86441061288E+02  0.14108394605E+02 -0.37361188804E+03  0.38376349378E+03  0.41800000000E+01 0.  1.
        -11    1    4    4    0    0 -0.71025539821E+02 -0.20869861343E+02 -0.77247400504E+02  0.10699223946E+03  0.00000000000E+00 0. -1.
         11    1    4    4    0    0  0.15116918093E+02  0.50643388475E+01 -0.94770911008E+02  0.96102519811E+02  0.00000000000E+00 0.  1.
</event>
<event>
 8    1  0.4798744E-006  0.1283529E+03  0.7561462E-02  0.1229920E+00
         -2   -1    0    0    0  501 -0.00000000000E+00  0.00000000000E+00  0.28889303846E+02  0.28889303846E+02  0.00000000000E+00 0. -1.
          2   -1    0    0  501    0  0.00000000000E+00 -0.00000000000E+00 -0.66789365319E+03  0.66789365319E+03  0.00000000000E+00 0.  1.
         23    2    1    2    0    0 -0.15596537400E+02 -0.81928444143E+02 -0.28696652108E+03  0.32396509990E+03  0.12509228509E+03 0.  0.
         23    2    1    2    0    0  0.15596537400E+02  0.81928444143E+02 -0.35203782826E+03  0.37281785714E+03  0.90038881255E+02 0.  0.
          5    1    3    3  502    0  0.14254611399E+02  0.27876000747E+02 -0.33213379481E+02  0.45835208523E+02  0.41800000000E+01 0.  1.
         -5    1    3    3    0  502 -0.29851148799E+02 -0.10980444489E+03 -0.25375314160E+03  0.27812989137E+03  0.41800000000E+01 0.  1.
        -11    1    4    4    0    0  0.12204345436E+02 -0.12086416709E+02 -0.14700470318E+02  0.22608214082E+02  0.00000000000E+00 0. -1.
         11    1    4    4    0    0  0.33921919639E+01  0.94014860853E+02 -0.33733735794E+03  0.35020964306E+03  0.00000000000E+00 0.  1.
</event>
<event>
 8    1  0.4798744E-006  0.9411514E+02  0.7561462E-02  0.1293182E+00
          2   -1    0    0  501    0  0.00000000000E+00  0.00000000000E+00  0.84206796183E+02  0.84206796183E+02  0.00000000000E+00 0. -1.
         -2   -1    0    0    0  501 -0.00000000000E+00 -0.00000000000E+00 -0.22730488699E+03  0.22730488699E+03  0.00000000000E+00 0.  1.
         23    2    1    2    0    0 -0.39327961714E+02  0.62153336496E+02 -0.12950800641E+03  0.19450667695E+03  0.12510314882E+03 0.  0.
         23    2    1    2    0    0  0.39327961714E+02 -0.62153336496E+02 -0.13590084394E+02  0.11700500622E+03  0.89976415110E+02 0.  0.
          5    1    3    3  502    0 -0.31429886963E+02 -0.14875138757E+02 -0.10872254493E+03  0.11422421689E+03  0.41800000000E+01 0.  1.
         -5    1    3    3    0  502 -0.78980747507E+01  0.77028475253E+02 -0.20785461477E+02  0.80282460060E+02  0.41800000000E+01 0.  1.
        -11    1    4    4    0    0  0.24618487414E+02 -0.52729304185E+02 -0.49934226775E+02  0.76680352412E+02  0.00000000000E+00 0.  1.
         11    1    4    4    0    0  0.14709474300E+02 -0.94240323110E+01  0.36344142381E+02  0.40324653806E+02  0.00000000000E+00 0. -1.
</event>
<event>
 8    1  0.4798744E-006  0.1062463E+03  0.7561462E-02  0.1267683E+00
          1   -1    0    0  501    0  0.00000000000E+00  0.00000000000E+00  0.13954998532E+03  0.13954998532E+03  0.00000000000E+00 0. -1.
         -1   -1    0    0    0  501 -0.00000000000E+00 -0.00000000000E+00 -0.14333570342E+03  0.14333570342E+03  0.00000000000E+00 0.  1.
         23    2    1    2    0    0  0.54134157663E+02  0.65861550378E+02 -0.31954907419E+02  0.15470922142E+03  0.12508227788E+03 0.  0.
         23    2    1    2    0    0 -0.54134157663E+02 -0.65861550378E+02  0.28169189317E+02  0.12817646733E+03  0.91473781519E+02 0.  0.
          5    1    3    3  502    0 -0.20517667102E+02  0.42383002214E+02 -0.55477204562E+02  0.72886803785E+02  0.41800000000E+01 0. -1.
         -5    1    3    3    0  502  0.74651824766E+02  0.23478548164E+02  0.23522297142E+02  0.81822417635E+02  0.41800000000E+01 0. -1.
        -11    1    4    4    0    0 -0.10211143700E+02 -0.39659595758E+01  0.48404571687E+02  0.49628609201E+02  0.00000000000E+00 0. -1.
         11    1    4    4    0    0 -0.43923013963E+02 -0.61895590802E+02 -0.20235382370E+02  0.78547858125E+02  0.00000000000E+00 0.  1.
</event>
<event>
 8    1  0.4798744E-006  0.1064630E+03  0.7561462E-02  0.1267264E+00
          1   -1    0    0  501    0  0.00000000000E+00  0.00000000000E+00  0.34609073869E+02  0.34609073869E+02  0.00000000000E+00 0. -1.
         -1   -1    0    0    0  501 -0.00000000000E+00 -0.00000000000E+00 -0.53072833591E+03  0.53072833591E+03  0.00000000000E+00 0.  1.
         23    2    1    2    0    0 -0.53905074095E+02 -0.41743214296E+02 -0.36333071493E+03  0.39026295515E+03  0.12509081818E+03 0.  0.
         23    2    1    2    0    0  0.53905074095E+02  0.41743214296E+02 -0.13278854711E+03  0.17507445463E+03  0.91487777701E+02 0.  0.
          5    1    3    3  502    0 -0.81512215639E+02 -0.34944819014E+02 -0.34484992070E+03  0.35609594477E+03  0.41800000000E+01 0.  1.
         -5    1    3    3    0  502  0.27607141544E+02 -0.67983952826E+01 -0.18480794231E+02  0.34167010376E+02  0.41800000000E+01 0.  1.
        -11    1    4    4    0    0  0.30008890661E+02 -0.15207373826E+02 -0.99245814531E+02  0.10479279288E+03  0.00000000000E+00 0.  1.
         11    1    4    4    0    0  0.23896183434E+02  0.56950588122E+02 -0.33542732579E+02  0.70281661755E+02  0.00000000000E+00 0. -1.
</event>
<event>
 8    1  0.4798744E-006  0.8910816E+02  0.7561462E-02  0.1305026E+00
          1   -1    0    0  501    0  0.00000000000E+00  0.00000000000E+00  0.54158123156E+03  0.54158123156E+03  0.00000000000E+00 0. -1.
         -1   -1    0    0    0  501 -0.00000000000E+00 -0.00000000000E+00 -0.28153859570E+02  0.28153859570E+02  0.00000000000E+00 0.  1.
         23    2    1    2    0    0 -0.32903940341E+02  0.14097193303E+02  0.18452536543E+03  0.22578075486E+03  0.12508372648E+03 0.  0.
         23    2    1    2    0    0  0.32903940341E+02 -0.14097193303E+02  0.32890200656E+03  0.34395433627E+03  0.94056660431E+02 0.  0.
          5    1    3    3  502    0 -0.37152793016E+02 -0.26876681554E+02  0.10941923772E+02  0.47327414213E+02  0.41800000000E+01 0.  1.
         -5    1    3    3    0  502  0.42488526751E+01  0.40973874857E+02  0.17358344166E+03  0.17845334065E+03  0.41800000000E+01 0.  1.
        -11    1    4    4    0    0  0.21689168187E+02  0.34577018150E+02  0.77014279447E+02  0.87161857710E+02  0.00000000000E+00 0.  1.
         11    1    4    4    0    0  0.11214772154E+02 -0.48674211454E+02  0.25188772712E+03  0.25679247856E+03  0.00000000000E+00 0. -1.
</event>
<event>
 8    1  0.4798744E-006  0.1315740E+03  0.7561462E-02  0.1225139E+00
         -1   -1    0    0    0  501 -0.00000000000E+00  0.00000000000E+00  0.56728295912E+02  0.56728295912E+02  0.00000000000E+00 0.  1.
          1   -1    0    0  501    0  0.00000000000E+00 -0.00000000000E+00 -0.32593214529E+03  0.32593214529E+03  0.00000000000E+00 0. -1.
         23    2    1    2    0    0 -0.76214429264E+02  0.26473061606E+02 -0.17536636088E+03  0.23002220318E+03  0.12508953277E+03 0.  0.
         23    2    1    2    0    0  0.76214429264E+02 -0.26473061606E+02 -0.93837488500E+02  0.15263823802E+03  0.89350407047E+02 0.  0.
          5    1    3    3  502    0 -0.19840362338E+01  0.61258103344E+02 -0.10617833788E+03  0.12266948871E+03  0.41800000000E+01 0. -1.
         -5    1    3    3    0  502 -0.74230393031E+02 -0.34785041737E+02 -0.69188023000E+02  0.10735271447E+03  0.41800000000E+01 0. -1.
        -11    1    4    4    0    0  0.71791621404E+02  0.18745106548E+02 -0.66341733910E+02  0.99532113318E+02  0.00000000000E+00 0.  1.
         11    1    4    4    0    0  0.44228078602E+01 -0.45218168154E+02 -0.27495754590E+02  0.53106124704E+02  0.00000000000E+00 0. -1.
</event>
<event>
 8    1  0.4798744E-006  0.2012022E+03  0.7561462E-02  0.1148729E+00
         -1   -1    0    0    0  501 -0.00000000000E+00  0.00000000000E+00  0.26261816961E+03  0.26261816961E+03  0.00000000000E+00 0.  1.
          1   -1    0    0  501    0  0.00000000000E+00 -0.00000000000E+00 -0.18199551832E+03  0.18199551832E+03  0.00000000000E+00 0. -1.
         23    2    1    2    0    0 -0.14430426832E+03 -0.11958487600E+03  0.13752608132E+02  0.22574506298E+03  0.12508970704E+03 0.  0.
         23    2    1    2    0    0  0.14430426832E+03  0.11958487600E+03  0.66870043160E+02  0.21886862494E+03  0.91146079947E+02 0.  0.
          5    1    3    3  502    0 -0.12457284096E+03 -0.75949854816E+02  0.61136650594E+02  0.15824643945E+03  0.41800000000E+01 0.  1.
         -5    1    3    3    0  502 -0.19731427361E+02 -0.43635021180E+02 -0.47384042462E+02  0.67498623535E+02  0.41800000000E+01 0.  1.
        -11    1    4    4    0    0  0.13852507748E+03  0.13406924165E+03  0.62824637464E+02  0.20275772173E+03  0.00000000000E+00 0. -1.
         11    1    4    4    0    0  0.57791908388E+01 -0.14484365654E+02  0.40454056962E+01  0.16110903215E+02  0.00000000000E+00 0.  1.
</event>
<event>
 8    1  0.4798744E-006  0.1021941E+03  0.7561462E-02  0.1275749E+00
         -4   -1    0    0    0  501 -0.00000000000E+00  0.00000000000E+00  0.42052099072E+02  0.42052099072E+02  0.00000000000E+00 0.  1.
          4   -1    0    0  501    0  0.00000000000E+00 -0.00000000000E+00 -0.35067179980E+03  0.35067179980E+03  0.00000000000E+00 0. -1.
         23    2    1    2    0    0 -0.45466887224E+02 -0.29000183632E+02 -0.17198114184E+03  0.21939444156E+03  0.12509260311E+03 0.  0.
         23    2    1    2    0    0  0.45466887224E+02  0.29000183632E+02 -0.13663855889E+03  0.17332945731E+03  0.92004111392E+02 0.  0.
          5    1    3    3  502    0 -0.76808116048E+02 -0.12769176508E+02 -0.50688461807E+02  0.93001780197E+02  0.41800000000E+01 0. -1.
         -5    1    3    3    0  502  0.31341228823E+02 -0.16231007124E+02 -0.12129268003E+03  0.12639266136E+03  0.41800000000E+01 0. -1.
        -11    1    4    4    0    0  0.52682520626E+01 -0.23876314211E+02 -0.37109125642E+01  0.24730623367E+02  0.00000000000E+00 0.  1.
         11    1    4    4    0    0  0.40198635161E+02  0.52876497843E+02 -0.13292764632E+03  0.14859883395E+03  0.00000000000E+00 0. -1.
</event>
<event>
 8    1  0.4798744E-006  0.1071843E+03  0.7561462E-02  0.1265875E+00
         -4   -1    0    0    0  501 -0.00000000000E+00  0.00000000000E+00  0.10597939438E+04  0.10597939438E+04  0.00000000000E+00 0.  1.
          4   -1    0    0  501    0  0.00000000000E+00 -0.00000000000E+00 -0.49926718456E+02  0.49926718456E+02  0.00000000000E+00 0. -1.
         23    2    1    2    0    0 -0.32238975666E+02  0.44434694115E+02  0.99529158461E+03  0.10038189024E+04  0.11846204784E+03 0.  0.
         23    2    1    2    0    0  0.32238975666E+02 -0.44434694115E+02  0.14575640724E+02  0.10590175987E+03  0.89380869587E+02 0.  0.
          5    1    3    3  502    0  0.16276471931E+01 -0.36402561063E+02  0.45217366163E+03  0.45365877966E+03  0.41800000000E+01 0. -1.
         -5    1    3    3    0  502 -0.33866622859E+02  0.80837255179E+02  0.54311792298E+03  0.55016012272E+03  0.41800000000E+01 0.  1.
        -11    1    4    4    0    0 -0.16737597627E+02 -0.36734632936E+02  0.33876515026E+02  0.52699133784E+02  0.00000000000E+00 0.  1.
         11    1    4    4    0    0  0.48976573293E+02 -0.77000611793E+01 -0.19300874302E+02  0.53202626087E+02  0.00000000000E+00 0. -1.
</event>
<event>
 8    1  0.4798744E-006  0.1732020E+03  0.7561462E-02  0.1174549E+00
          1   -1    0    0  501    0  0.00000000000E+00  0.00000000000E+00  0.82720651163E+03  0.82720651163E+03  0.00000000000E+00 0. -1.
         -1   -1    0    0    0  501 -0.00000000000E+00 -0.00000000000E+00 -0.50275668098E+02  0.50275668098E+02  0.00000000000E+00 0.  1.
         23    2    1    2    0    0 -0.69719372705E+02 -0.15688954084E+03  0.42861954733E+03  0.47837069287E+03  0.12509470205E+03 0.  0.
         23    2    1    2    0    0  0.69719372705E+02  0.15688954084E+03  0.34831129620E+03  0.39911148687E+03  0.92163446822E+02 0.  0.
          5    1    3    3  502    0 -0.69146273399E+02 -0.12846750101E+03  0.19806832859E+03  0.24603585334E+03  0.41800000000E+01 0.  1.
         -5    1    3    3    0  502 -0.57309930654E+00 -0.28422039834E+02  0.23055121874E+03  0.23233483952E+03  0.41800000000E+01 0.  1.
        -11    1    4    4    0    0  0.19483879780E+02  0.47664184633E+02  0.20828118255E+03  0.21455196823E+03  0.00000000000E+00 0. -1.
         11    1    4    4    0    0  0.50235492925E+02  0.10922535621E+03  0.14003011365E+03  0.18455951863E+03  0.00000000000E+00 0.  1.
</event>
<event>
 8    1  0.4798744E-006  0.9473018E+02  0.7561462E-02  0.1291785E+00
         -1   -1    0    0    0  501 -0.00000000000E+00  0.00000000000E+00  0.36281167523E+02  0.36281167523E+02  0.00000000000E+00 0.  1.
          1   -1    0    0  501    0  0.00000000000E+00 -0.00000000000E+00 -0.50662838154E+03  0.50662838154E+03  0.00000000000E+00 0. -1.
         23    2    1    2    0    0  0.67753532618E+02 -0.37956827908E+02 -0.21441167092E+03  0.26009703090E+03  0.12508732505E+03 0.  0.
         23    2    1    2    0    0 -0.67753532618E+02  0.37956827908E+02 -0.25593554310E+03  0.28281251817E+03  0.91916572189E+02 0.  0.
          5    1    3    3  502    0  0.27467902338E+02 -0.46269280444E+02 -0.14402593411E+02  0.55859100142E+02  0.41800000000E+01 0.  1.
         -5    1    3    3    0  502  0.40285630280E+02  0.83124525366E+01 -0.20000907751E+03  0.20423793076E+03  0.41800000000E+01 0.  1.
        -11    1    4    4    0    0 -0.31241168514E+02 -0.10955499881E+02 -0.19039447899E+03  0.19325136796E+03  0.00000000000E+00 0. -1.
         11    1    4    4    0    0 -0.36512364104E+02  0.48912327789E+02 -0.65541064114E+02  0.89561150213E+02  0.00000000000E+00 0.  1.
</event>
<event>
 8    1  0.4798744E-006  0.1268366E+03  0.7561462E-02  0.1232227E+00
         -2   -1    0    0    0  501 -0.00000000000E+00  0.00000000000E+00  0.50861746675E+02  0.50861746675E+02  0.00000000000E+00 0.  1.
          2   -1    0    0  501    0  0.00000000000E+00 -0.00000000000E+00 -0.34243374948E+03  0.34243374948E+03  0.00000000000E+00 0. -1.
         23    2    1    2    0    0  0.55403653987E+02  0.37297611314E+02 -0.21096114428E+03  0.25419022234E+03  0.12508952016E+03 0.  0.
         23    2    1    2    0    0 -0.55403653987E+02 -0.37297611314E+02 -0.80610858529E+02  0.13910527382E+03  0.91605076312E+02 0.  0.
          5    1    3    3  502    0 -0.35711598942E+02 -0.10635652533E+02 -0.72202118253E+02  0.81357566852E+02  0.41800000000E+01 0. -1.
         -5    1    3    3    0  502  0.91115252930E+02  0.47933263848E+02 -0.13875902603E+03  0.17283265549E+03  0.41800000000E+01 0. -1.
        -11    1    4    4    0    0 -0.10590120999E+02  0.30265308552E+02 -0.18934241106E+02  0.37237683209E+02  0.00000000000E+00 0.  1.
         11    1    4    4    0    0 -0.44813532989E+02 -0.67562919866E+02 -0.61676617423E+02  0.10186759061E+03  0.00000000000E+00 0. -1.
</event>
<event>
 8    1  0.4798744E-006  0.1077473E+03  0.7561462E-02  0.1264799E+00
         -1   -1    0    0    0  501 -0.00000000000E+00  0.00000000000E+00  0.69619098280E+02  0.69619098280E+02  0.00000000000E+00 0.  1.
          1   -1    0    0  501    0  0.00000000000E+00 -0.00000000000E+00 -0.28741311492E+03  0.28741311492E+03  0.00000000000E+00 0. -1.
         23    2    1    2    0    0 -0.17462582303E+02 -0.10319562954E+02 -0.69263948721E+01  0.12695700046E+03  0.12513460696E+03 0.  0.
         23    2    1    2    0    0  0.17462582303E+02  0.10319562954E+02 -0.21086762177E+03  0.23007521274E+03  0.89766443883E+02 0.  0.
          5    1    3    3  502    0  0.17337468169E+02  0.51432837221E+02  0.60589797935E+01  0.54773243315E+02  0.41800000000E+01 0. -1.
         -5    1    3    3    0  502 -0.34800050472E+02 -0.61752400175E+02 -0.12985374666E+02  0.72183757144E+02  0.41800000000E+01 0.  1.
        -11    1    4    4    0    0  0.22038707764E+02  0.47619275236E+02 -0.14554035946E+03  0.15471036244E+03  0.00000000000E+00 0. -1.
         11    1    4    4    0    0 -0.45761254610E+01 -0.37299712282E+02 -0.65327262313E+02  0.75364850307E+02  0.00000000000E+00 0.  1.
</event>
<event>
 8    1  0.4798744E-006  0.2718129E+03  0.7561462E-02  0.1100247E+00
         -2   -1    0    0    0  501 -0.00000000000E+00  0.00000000000E+00  0.60475498657E+02  0.60475498657E+02  0.00000000000E+00 0.  1.
          2   -1    0    0  501    0  0.00000000000E+00 -0.00000000000E+00 -0.13370035541E+04  0.13370035541E+04  0.00000000000E+00 0. -1.
         23    2    1    2    0    0 -0.13588894678E+03  0.21789233080E+03 -0.53148234298E+03  0.60397008462E+03  0.12791993019E+03 0.  0.
         23    2    1    2    0    0  0.13588894678E+03 -0.21789233080E+03 -0.74504571248E+03  0.79350896816E+03  0.92846621769E+02 0.  0.
          5    1    3    3  502    0  0.18601928283E+02  0.60953077342E+01 -0.15942690371E+02  0.25589573824E+02  0.41800000000E+01 0. -1.
         -5    1    3    3    0  502 -0.15449087506E+03  0.21179702307E+03 -0.51553965261E+03  0.57838051080E+03  0.41800000000E+01 0.  1.
        -11    1    4    4    0    0  0.78996709797E+02 -0.16842194843E+03 -0.62180776788E+03  0.64903877625E+03  0.00000000000E+00 0. -1.
         11    1    4    4    0    0  0.56892236982E+02 -0.49470382371E+02 -0.12323794460E+03  0.14447019191E+03  0.00000000000E+00 0.  1.
</event>
<event>
 8    1  0.4798744E-006  0.9922680E+02  0.7561462E-02  0.1281930E+00
         -4   -1    0    0    0  501 -0.00000000000E+00  0.00000000000E+00  0.14563797040E+03  0.14563797040E+03  0.00000000000E+00 0. -1.
          4   -1    0    0  501    0  0.00000000000E+00 -0.00000000000E+00 -0.10469554315E+03  0.10469554315E+03  0.00000000000E+00 0.  1.
         23    2    1    2    0    0  0.25665713303E+02  0.20383974004E+02  0.73349415205E+02  0.14867672182E+03  0.12510154141E+03 0.  0.
         23    2    1    2    0    0 -0.25665713303E+02 -0.20383974004E+02 -0.32406987962E+02  0.10165679173E+03  0.90607147625E+02 0.  0.
          5    1    3    3  502    0  0.72311291229E+01  0.59899656752E+02  0.84085145797E+02  0.10357626297E+03  0.41800000000E+01 0.  1.
         -5    1    3    3    0  502  0.18434584180E+02 -0.39515682748E+02 -0.10735730592E+02  0.45100458848E+02  0.41800000000E+01 0.  1.
        -11    1    4    4    0    0 -0.44986476999E+02  0.20130274825E+02 -0.61805981752E+01  0.49671026475E+02  0.00000000000E+00 0. -1.
         11    1    4    4    0    0  0.19320763695E+02 -0.40514248830E+02 -0.26226389786E+02  0.51985765256E+02  0.00000000000E+00 0.  1.
</event>
<event>
 8    1  0.4798744E-006  0.1025399E+03  0.7561462E-02  0.1275044E+00
          1   -1    0    0  501    0  0.00000000000E+00  0.00000000000E+00  0.12680484677E+03  0.12680484677E+03  0.00000000000E+00 0. -1.
         -1   -1    0    0    0  501 -0.00000000000E+00 -0.00000000000E+00 -0.13232620670E+03  0.13232620670E+03  0.00000000000E+00 0.  1.
         23    2    1    2    0    0 -0.29280932210E+02 -0.74901589308E+00 -0.72514040111E+02  0.14337378739E+03  0.12016581411E+03 0.  0.
         23    2    1    2    0    0  0.29280932210E+02  0.74901589308E+00  0.66992680183E+02  0.11575726609E+03  0.89742918594E+02 0.  0.
          5    1    3    3  502    0 -0.35178550643E+02 -0.50328609188E+02 -0.69996672677E+02  0.93206791136E+02  0.41800000000E+01 0.  1.
         -5    1    3    3    0  502  0.58976184333E+01  0.49579593295E+02 -0.25173674341E+01  0.50166996255E+02  0.41800000000E+01 0. -1.
        -11    1    4    4    0    0 -0.29368646689E+02  0.15138215197E+02  0.31822983506E+02  0.45873578963E+02  0.00000000000E+00 0. -1.
         11    1    4    4    0    0  0.58649578898E+02 -0.14389199304E+02  0.35169696676E+02  0.69883687122E+02  0.00000000000E+00 0.  1.
</event>
<event>
 8    1  0.4798744E-006  0.8650265E+02  0.7561462E-02  0.1311549E+00
          2   -1    0    0  501    0  0.00000000000E+00  0.00000000000E+00  0.14309973193E+03  0.14309973193E+03  0.00000000000E+00 0. -1.
         -2   -1    0    0    0  501 -0.00000000000E+00 -0.00000000000E+00 -0.93833810875E+02  0.93833810875E+02  0.00000000000E+00 0.  1.
         23    2    1    2    0    0 -0.16272512275E+02 -0.30793555125E+02  0.47917253404E+02  0.13841796856E+03  0.12510169124E+03 0.  0.
         23    2    1    2    0    0  0.16272512275E+02  0.30793555125E+02  0.13486676544E+01  0.98515574253E+02  0.92143701755E+02 0.  0.
          5    1    3    3  502    0 -0.41160747620E+02 -0.28610564924E+01  0.79246512019E+02  0.89442019521E+02  0.41800000000E+01 0.  1.
         -5    1    3    3    0  502  0.24888235345E+02 -0.27932498633E+02 -0.31329258615E+02  0.48975949035E+02  0.41800000000E+01 0.  1.
        -11    1    4    4    0    0 -0.25998707092E+01  0.59488104190E+02 -0.13568741989E+02  0.61071307723E+02  0.00000000000E+00 0.  1.
         11    1    4    4    0    0  0.18872382984E+02 -0.28694549065E+02  0.14917409644E+02  0.37444266530E+02  0.00000000000E+00 0. -1.
</event>
<event>
 8    1  0.4798744E-006  0.1145608E+03  0.7561462E-02  0.1252350E+00
          1   -1    0    0  501    0  0.00000000000E+00  0.00000000000E+00  0.49921373040E+02  0.49921373040E+02  0.00000000000E+00 0. -1.
         -1   -1    0    0    0  501 -0.00000000000E+00 -0.00000000000E+00 -0.38284958422E+03  0.38284958422E+03  0.00000000000E+00 0.  1.
         23    2    1    2    0    0  0.80673446365E+02  0.19247285559E+01 -0.22614363730E+03  0.27074400087E+03  0.12509780088E+03 0.  0.
         23    2    1    2    0    0 -0.80673446365E+02 -0.19247285559E+01 -0.10678457388E+03  0.16202695639E+03  0.91311991824E+02 0.  0.
          5    1    3    3  502    0  0.78745475043E+02  0.29565838454E+02 -0.22760311194E+03  0.24268423437E+03  0.41800000000E+01 0. -1.
         -5    1    3    3    0  502  0.19279713217E+01 -0.27641109898E+02  0.14594746434E+01  0.28059766500E+02  0.41800000000E+01 0. -1.
        -11    1    4    4    0    0 -0.77555205399E+02 -0.33982797219E+02 -0.96123529369E+02  0.12809907607E+03  0.00000000000E+00 0.  1.
         11    1    4    4    0    0 -0.31182409663E+01  0.32058068663E+02 -0.10661044508E+02  0.33927880322E+02  0.00000000000E+00 0. -1.
</event>
<event>
 8    1  0.4798744E-006  0.1160231E+03  0.7561462E-02  0.1249806E+00
          3   -1    0    0  501    0  0.00000000000E+00  0.00000000000E+00  0.11359418163E+03  0.11359418163E+03  0.00000000000E+00 0. -1.
         -3   -1    0    0    0  501 -0.00000000000E+00 -0.00000000000E+00 -0.18003140341E+03  0.18003140341E+03  0.00000000000E+00 0.  1.
         23    2    1    2    0    0 -0.13258864706E+02 -0.91238511270E+02 -0.25136832629E+02  0.15742116716E+03  0.12509716257E+03 0.  0.
         23    2    1    2    0    0  0.13258864706E+02  0.91238511270E+02 -0.41300389151E+02  0.13620441788E+03  0.91354572272E+02 0.  0.
          5    1    3    3  502    0  0.15585321934E+02 -0.50308100452E+02 -0.71601488863E+02  0.88983441371E+02  0.41800000000E+01 0.  1.
         -5    1    3    3    0  502 -0.28844186640E+02 -0.40930410818E+02  0.46464656233E+02  0.68437725792E+02  0.41800000000E+01 0.  1.
        -11    1    4    4    0    0  0.41718160527E+02  0.91439505437E+02 -0.25662665923E+02  0.10373119345E+03  0.00000000000E+00 0. -1.
         11    1    4    4    0    0 -0.28459295822E+02 -0.20099416706E+00 -0.15637723228E+02  0.32473224433E+02  0.00000000000E+00 0.  1.
</event>
<event>
 8    1  0.4798744E-006  0.1251380E+03  0.7561462E-02  0.1234854E+00
         -2   -1    0    0    0  501 -0.00000000000E+00  0.00000000000E+00  0.77669307752E+02  0.77669307752E+02  0.00000000000E+00 0.  1.
          2   -1    0    0  501    0  0.00000000000E+00 -0.00000000000E+00 -0.44014457541E+03  0.44014457541E+03  0.00000000000E+00 0. -1.
         23    2    1    2    0    0 -0.70583934309E+01  0.11925829564E+03 -0.66045496327E+02  0.18514596671E+03  0.12507861291E+03 0.  0.
         23    2    1    2    0    0  0.70583934309E+01 -0.11925829564E+03 -0.29642977133E+03  0.33266791645E+03  0.92330771174E+02 0.  0.
          5    1    3    3  502    0  0.64432243884E+01  0.49192298781E+02 -0.95609132062E+02  0.10779599220E+03  0.41800000000E+01 0.  1.
         -5    1    3    3    0  502 -0.13501617819E+02  0.70065996861E+02  0.29563635735E+02  0.77349974517E+02  0.41800000000E+01 0.  1.
        -11    1    4    4    0    0 -0.20893787840E+02 -0.43436699364E+02 -0.20524235317E+03  0.21082628099E+03  0.00000000000E+00 0. -1.
         11    1    4    4    0    0  0.27952181271E+02 -0.75821596278E+02 -0.91187418161E+02  0.12184163546E+03  0.00000000000E+00 0.  1.
</event>
<event>
 8    1  0.4798744E-006  0.2217781E+03  0.7561462E-02  0.1132564E+00
         -1   -1    0    0    0  501 -0.00000000000E+00  0.00000000000E+00  0.89516646808E+02  0.89516646808E+02  0.00000000000E+00 0.  1.
          1   -1    0    0  501    0  0.00000000000E+00 -0.00000000000E+00 -0.60397707940E+03  0.60397707940E+03  0.00000000000E+00 0. -1.
         23    2    1    2    0    0 -0.19492491358E+03 -0.65185681922E+02 -0.28161009354E+03  0.37040010076E+03  0.12508834797E+03 0.  0.
         23    2    1    2    0    0  0.19492491358E+03  0.65185681922E+02 -0.23285033906E+03  0.32309362545E+03  0.89024240213E+02 0.  0.
          5    1    3    3  502    0 -0.19442778949E+03 -0.38171579145E+02 -0.27996331785E+03  0.34301044667E+03  0.41800000000E+01 0. -1.
         -5    1    3    3    0  502 -0.49712409206E+00 -0.27014102777E+02 -0.16467756880E+01  0.27389654094E+02  0.41800000000E+01 0. -1.
        -11    1    4    4    0    0  0.96195213627E+02 -0.58975757605E+01 -0.14039859241E+03  0.17029405531E+03  0.00000000000E+00 0. -1.
         11    1    4    4    0    0  0.98729699955E+02  0.71083257682E+02 -0.92451746647E+02  0.15279957014E+03  0.00000000000E+00 0.  1.
</event>
<event>
 8    1  0.4798744E-006  0.1121099E+03  0.7561462E-02  0.1256712E+00
         -2   -1    0    0    0  501 -0.00000000000E+00  0.00000000000E+00  0.27438167634E+03  0.27438167634E+03  0.00000000000E+00 0.  1.
          2   -1    0    0  501    0  0.00000000000E+00 -0.00000000000E+00 -0.74120607298E+02  0.74120607298E+02  0.00000000000E+00 0. -1.
         23    2    1    2    0    0 -0.28678924375E+02  0.81261770061E+02  0.15481188712E+03  0.21688910427E+03  0.12509279428E+03 0.  0.
         23    2    1    2    0    0  0.28678924375E+02 -0.81261770061E+02  0.45449181925E+02  0.13161317937E+03  0.88489800932E+02 0.  0.
          5    1    3    3  502    0  0.52396190462E+01  0.99133406495E+02  0.14717401003E+03  0.17757406207E+03  0.41800000000E+01 0. -1.
         -5    1    3    3    0  502 -0.33918543421E+02 -0.17871636434E+02  0.76378770817E+01  0.39315042197E+02  0.41800000000E+01 0. -1.
        -11    1    4    4    0    0  0.22735227425E+02 -0.69353302621E+02  0.71618075364E+02  0.10225419243E+03  0.00000000000E+00 0.  1.
         11    1    4    4    0    0  0.59436969501E+01 -0.11908467439E+02 -0.26168893440E+02  0.29358986938E+02  0.00000000000E+00 0. -1.
</event>
<event>
 8    1  0.4798744E-006  0.1200843E+03  0.7561462E-02  0.1242958E+00
         -2   -1    0    0    0  501 -0.00000000000E+00  0.00000000000E+00  0.18148493633E+02  0.18148493633E+02  0.00000000000E+00 0. -1.
          2   -1    0    0  501    0  0.00000000000E+00 -0.00000000000E+00 -0.93479602285E+03  0.93479602285E+03  0.00000000000E+00 0.  1.
         23    2    1    2    0    0  0.43908074708E+02 -0.43011218061E+02 -0.37417685247E+03  0.39929102744E+03  0.12508846375E+03 0.  0.
         23    2    1    2    0    0 -0.43908074708E+02  0.43011218061E+02 -0.54247067674E+03  0.55365348904E+03  0.92086192765E+02 0.  0.
          5    1    3    3  502    0  0.57169079832E+02 -0.75720635414E+02 -0.19842673492E+03  0.21998308991E+03  0.41800000000E+01 0. -1.
         -5    1    3    3    0  502 -0.13261005125E+02  0.32709417352E+02 -0.17575011756E+03  0.17930793753E+03  0.41800000000E+01 0. -1.
        -11    1    4    4    0    0  0.27722358986E+02  0.37591253269E+01 -0.10753117690E+03  0.11111081953E+03  0.00000000000E+00 0.  1.
         11    1    4    4    0    0 -0.71630433694E+02  0.39252092734E+02 -0.43493949984E+03  0.44254266951E+03  0.00000000000E+00 0. -1.
</event>
<event>
 8    1  0.4798744E-006  0.2208176E+03  0.7561462E-02  0.1133275E+00
          1   -1    0    0  501    0  0.00000000000E+00  0.00000000000E+00  0.18281948160E+03  0.18281948160E+03  0.00000000000E+00 0. -1.
         -1   -1    0    0    0  501 -0.00000000000E+00 -0.00000000000E+00 -0.35306583999E+03  0.35306583999E+03  0.00000000000E+00 0.  1.
         23    2    1    2    0    0  0.19083566464E+03  0.73817774512E+02 -0.19564727321E+03  0.30950550186E+03  0.12509390647E+03 0.  0.
         23    2    1    2    0    0 -0.19083566464E+03 -0.73817774512E+02  0.25400914819E+02  0.22637981973E+03  0.93462835248E+02 0.  0.
          5    1    3    3  502    0  0.12225694086E+03  0.10090581507E+03 -0.95639570551E+02  0.18518407858E+03  0.41800000000E+01 0. -1.
         -5    1    3    3    0  502  0.68578723778E+02 -0.27088040557E+02 -0.10000770266E+03  0.12432142328E+03  0.41800000000E+01 0. -1.
        -11    1    4    4    0    0 -0.68829415703E+02 -0.49551333130E+02  0.51573118071E+02  0.99260312253E+02  0.00000000000E+00 0. -1.
         11    1    4    4    0    0 -0.12200624894E+03 -0.24266441382E+02 -0.26172203251E+02  0.12711950747E+03  0.00000000000E+00 0.  1.
</event>
<event>
 8    1  0.4798744E-006  0.1378794E+03  0.7561462E-02  0.1216211E+00
          1   -1    0    0  501    0  0.00000000000E+00  0.00000000000E+00  0.40222596547E+03  0.40222596547E+03  0.00000000000E+00 0.  1.
         -1   -1    0    0    0  501 -0.00000000000E+00 -0.00000000000E+00 -0.82004044649E+02  0.82004044649E+02  0.00000000000E+00 0. -1.
         23    2    1    2    0    0 -0.59014005896E+02  0.88441488631E+02  0.37527526781E+02  0.16841071612E+03  0.12509717916E+03 0.  0.
         23    2    1    2    0    0  0.59014005896E+02 -0.88441488631E+02  0.28269439404E+03  0.31581929400E+03  0.92310109088E+02 0.  0.
          5    1    3    3  502    0 -0.83715207355E+02  0.40177625157E+02 -0.13395019165E+02  0.93911535203E+02  0.41800000000E+01 0.  1.
         -5    1    3    3    0  502  0.24701201459E+02  0.48263863474E+02  0.50922545946E+02  0.74499180912E+02  0.41800000000E+01 0.  1.
        -11    1    4    4    0    0  0.13305461227E+01 -0.66809544129E+02  0.21081250719E+03  0.22114972016E+03  0.00000000000E+00 0.  1.
         11    1    4    4    0    0  0.57683459773E+02 -0.21631944502E+02  0.71881886853E+02  0.94669573845E+02  0.00000000000E+00 0. -1.
</event>
<event>
 8    1  0.4798744E-006  0.2158294E+03  0.7561462E-02  0.1137031E+00
         -1   -1    0    0    0  501 -0.00000000000E+00  0.00000000000E+00  0.34370956328E+02  0.34370956328E+02  0.00000000000E+00 0.  1.
          1   -1    0    0  501    0  0.00000000000E+00 -0.00000000000E+00 -0.15271429072E+04  0.15271429072E+04  0.00000000000E+00 0. -1.
         23    2    1    2    0    0  0.12988733964E+03  0.14493052528E+03 -0.58676205979E+03  0.63072789197E+03  0.12510947503E+03 0.  0.
         23    2    1    2    0    0 -0.12988733964E+03 -0.14493052528E+03 -0.90600989109E+03  0.93078597157E+03  0.87367178953E+02 0.  0.
          5    1    3    3  502    0  0.55492494722E+01  0.75696990805E+02 -0.31368464542E+03  0.32276362521E+03  0.41800000000E+01 0.  1.
         -5    1    3    3    0  502  0.12433809016E+03  0.69233534476E+02 -0.27307741437E+03  0.30796426676E+03  0.41800000000E+01 0.  1.
        -11    1    4    4    0    0  0.12944338647E+02 -0.70297682236E+01 -0.68347358033E+02  0.69916628168E+02  0.00000000000E+00 0. -1.
         11    1    4    4    0    0 -0.14283167828E+03 -0.13790075706E+03 -0.83766253306E+03  0.86086934340E+03  0.00000000000E+00 0.  1.
</event>
<event>
 8    1  0.4798744E-006  0.7439971E+02  0.7561462E-02  0.1345740E+00
         -2   -1    0    0    0  501 -0.00000000000E+00  0.00000000000E+00  0.42360692691E+02  0.42360692691E+02  0.00000000000E+00 0.  1.
          2   -1    0    0  501    0  0.00000000000E+00 -0.00000000000E+00 -0.35101847434E+03  0.35101847434E+03  0.00000000000E+00 0. -1.
         23    2    1    2    0    0 -0.34121266478E+02  0.39172813292E+02 -0.20256912531E+03  0.24368170631E+03  0.12509098022E+03 0.  0.
         23    2    1    2    0    0  0.34121266478E+02 -0.39172813292E+02 -0.10608865634E+03  0.14969746072E+03  0.91955188085E+02 0.  0.
          5    1    3    3  502    0  0.13346796984E+01  0.56428329352E+02 -0.19534116668E+03  0.20337546933E+03  0.41800000000E+01 0.  1.
         -5    1    3    3    0  502 -0.35455946177E+02 -0.17255516060E+02 -0.72279586300E+01  0.40306236983E+02  0.41800000000E+01 0.  1.
        -11    1    4    4    0    0  0.13165210218E+02 -0.21124478547E+02 -0.11725772377E+03  0.11987051404E+03  0.00000000000E+00 0. -1.
         11    1    4    4    0    0  0.20956056260E+02 -0.18048334745E+02  0.11169067428E+02  0.29826946680E+02  0.00000000000E+00 0.  1.
</event>
<event>
 8    1  0.4798744E-006  0.8055849E+02  0.7561462E-02  0.1327474E+00
         -1   -1    0    0    0  501 -0.00000000000E+00  0.00000000000E+00  0.40539957019E+03  0.40539957019E+03  0.00000000000E+00 0.  1.
          1   -1    0    0  501    0  0.00000000000E+00 -0.00000000000E+00 -0.39588008407E+02  0.39588008407E+02  0.00000000000E+00 0. -1.
         23    2    1    2    0    0  0.59357672042E+01  0.53089954649E+02  0.26962260597E+03  0.30199012289E+03  0.12509159868E+03 0.  0.
         23    2    1    2    0    0 -0.59357672042E+01 -0.53089954649E+02  0.96188955813E+02  0.14299745570E+03  0.91335537984E+02 0.  0.
          5    1    3    3  502    0  0.18068114229E+01 -0.35569478212E+01  0.23555842515E+03  0.23562928618E+03  0.41800000000E+01 0. -1.
         -5    1    3    3    0  502  0.41289557813E+01  0.56646902470E+02  0.34064180816E+02  0.66360836718E+02  0.41800000000E+01 0. -1.
        -11    1    4    4    0    0 -0.24956948453E+02  0.14026233926E+02  0.54949514315E+02  0.61959935747E+02  0.00000000000E+00 0.  1.
         11    1    4    4    0    0  0.19021181249E+02 -0.67116188574E+02  0.41239441498E+02  0.81037519952E+02  0.00000000000E+00 0. -1.
</event>
<event>
 7    1  0.4798744E-006  0.1160137E+03  0.7561462E-02  0.1249822E+00
         -2   -1    0    0    0  501 -0.00000000000E+00  0.00000000000E+00  0.11955103738E+03  0.11955103738E+03  0.00000000000E+00 0.  1.
          2   -1    0    0  501    0  0.00000000000E+00 -0.00000000000E+00 -0.12007742641E+03  0.12007742641E+03  0.00000000000E+00 0. -1.
         23    2    1    2    0    0  0.19809089960E+02  0.60577705244E+01 -0.14272093184E+02  0.93686998550E+02  0.90246686503E+02 0.  0.
          5    1    1    2  502    0 -0.23382214843E+02  0.66674830262E+02 -0.39356649970E+01  0.70888806030E+02  0.41800000000E+01 0. -1.
         -5    1    1    2    0  502  0.35731248832E+01 -0.72732600786E+02  0.17681369150E+02  0.75052659204E+02  0.41800000000E+01 0.  1.
        -11    1    3    3    0    0 -0.31344568940E+02 -0.12704979592E+02 -0.19348518833E+02  0.38964903304E+02  0.00000000000E+00 0.  1.
         11    1    3    3    0    0  0.51153658900E+02  0.18762750116E+02  0.50764256490E+01  0.54722095246E+02  0.00000000000E+00 0. -1.
</event>
<event>
 8    1  0.4798744E-006  0.1144614E+03  0.7561462E-02  0.1252524E+00
          2   -1    0    0  501    0  0.00000000000E+00  0.00000000000E+00  0.99879524853E+02  0.99879524853E+02  0.00000000000E+00 0. -1.
         -2   -1    0    0    0  501 -0.00000000000E+00 -0.00000000000E+00 -0.19786133248E+03  0.19786133248E+03  0.00000000000E+00 0.  1.
         23    2    1    2    0    0  0.37024868095E+02 -0.56960290689E+02 -0.11575364288E+03  0.18346787452E+03  0.12508492942E+03 0.  0.
         23    2    1    2    0    0 -0.37024868095E+02  0.56960290689E+02  0.17771835255E+02  0.11427298281E+03  0.90150767600E+02 0.  0.
          5    1    3    3  502    0 -0.44708123378E+02 -0.26494020745E+02 -0.61647293733E+02  0.80737913373E+02  0.41800000000E+01 0. -1.
         -5    1    3    3    0  502  0.81732991473E+02 -0.30466269943E+02 -0.54106349144E+02  0.10272996115E+03  0.41800000000E+01 0. -1.
        -11    1    4    4    0    0 -0.41242683449E+02  0.66939957239E+02  0.40977508434E+02  0.88662692327E+02  0.00000000000E+00 0. -1.
         11    1    4    4    0    0  0.42178153544E+01 -0.99796665508E+01 -0.23205673179E+02  0.25610290481E+02  0.00000000000E+00 0.  1.
</event>
<event>
 8    1  0.4798744E-006  0.1069421E+03  0.7561462E-02  0.1266340E+00
         -1   -1    0    0    0  501 -0.00000000000E+00  0.00000000000E+00  0.75691671312E+02  0.75691671312E+02  0.00000000000E+00 0.  1.
          1   -1    0    0  501    0  0.00000000000E+00 -0.00000000000E+00 -0.34066244137E+03  0.34066244137E+03  0.00000000000E+00 0. -1.
         23    2    1    2    0    0 -0.98375215864E+02  0.14351936439E+02 -0.58855280148E+02  0.17020948351E+03  0.12499465228E+03 0.  0.
         23    2    1    2    0    0  0.98375215864E+02 -0.14351936439E+02 -0.20611548991E+03  0.24614462918E+03  0.90663786132E+02 0.  0.
          5    1    3    3  502    0 -0.82029847880E+02  0.32875187557E+02 -0.92672247189E+02  0.12812217489E+03  0.41800000000E+01 0.  1.
         -5    1    3    3    0  502 -0.16345367983E+02 -0.18523251117E+02  0.33816967041E+02  0.42087308613E+02  0.41800000000E+01 0.  1.
        -11    1    4    4    0    0  0.64402173318E+02 -0.27583037300E+01 -0.19948398525E+03  0.20964042677E+03  0.00000000000E+00 0. -1.
         11    1    4    4    0    0  0.33973042546E+02 -0.11593632710E+02 -0.66315046673E+01  0.36504202407E+02  0.00000000000E+00 0.  1.
</event>
<event>
 8    1  0.4798744E-006  0.4622444E+03  0.7561462E-02  0.1024132E+00
          2   -1    0    0  501    0  0.00000000000E+00  0.00000000000E+00  0.13199487932E+04  0.13199487932E+04  0.00000000000E+00 0. -1.
         -2   -1    0    0    0  501 -0.00000000000E+00 -0.00000000000E+00 -0.17266568237E+03  0.17266568237E+03  0.00000000000E+00 0.  1.
         23    2    1    2    0    0 -0.33683251582E+03 -0.31161196698E+03  0.69110238501E+03  0.83894254975E+03  0.12507571123E+03 0.  0.
         23    2    1    2    0    0  0.33683251582E+03  0.31161196698E+03  0.45618072586E+03  0.65367192585E+03  0.92886868409E+02 0.  0.
          5    1    3    3  502    0 -0.14066864301E+03 -0.13636239425E+03  0.18982436124E+03  0.27282435781E+03  0.41800000000E+01 0. -1.
         -5    1    3    3    0  502 -0.19616387281E+03 -0.17524957273E+03  0.50127802377E+03  0.56611819195E+03  0.41800000000E+01 0. -1.
        -11    1    4    4    0    0  0.11965086688E+03  0.16337267630E+03  0.16391768181E+03  0.26053016662E+03  0.00000000000E+00 0. -1.
         11    1    4    4    0    0  0.21718164895E+03  0.14823929067E+03  0.29226304405E+03  0.39314175924E+03  0.00000000000E+00 0.  1.
</event>
<event>
 8    1  0.4798744E-006  0.8154141E+02  0.7561462E-02  0.1324733E+00
          2   -1    0    0  501    0  0.00000000000E+00  0.00000000000E+00  0.62988429330E+02  0.62988429330E+02  0.00000000000E+00 0.  1.
         -2   -1    0    0    0  501 -0.00000000000E+00 -0.00000000000E+00 -0.23140122576E+03  0.23140122576E+03  0.00000000000E+00 0. -1.
         23    2    1    2    0    0  0.48084712033E+01  0.33433315757E+02 -0.14545258641E+03  0.19479295332E+03  0.12508769632E+03 0.  0.
         23    2    1    2    0    0 -0.48084712033E+01 -0.33433315757E+02 -0.22960210025E+02  0.99596701775E+02  0.90837347838E+02 0.  0.
          5    1    3    3  502    0  0.11921865759E+02  0.48480508054E+02 -0.16283435162E+03  0.17036721812E+03  0.41800000000E+01 0.  1.
         -5    1    3    3    0  502 -0.71133945558E+01 -0.15047192297E+02  0.17381765208E+02  0.24425735196E+02  0.41800000000E+01 0.  1.
        -11    1    4    4    0    0  0.24079849556E+02 -0.54822465211E+02 -0.70612003687E+01  0.60292639660E+02  0.00000000000E+00 0. -1.
         11    1    4    4    0    0 -0.28888320760E+02  0.21389149454E+02 -0.15899009656E+02  0.39304062115E+02  0.00000000000E+00 0.  1.
</event>
<event>
 8    1  0.4798744E-006  0.1029983E+03  0.7561462E-02  0.1274114E+00
          2   -1    0    0  501    0  0.00000000000E+00  0.00000000000E+00  0.46128862115E+02  0.46128862115E+02  0.00000000000E+00 0. -1.
         -2   -1    0    0    0  501 -0.00000000000E+00 -0.00000000000E+00 -0.29694595000E+03  0.29694595000E+03  0.00000000000E+00 0.  1.
         23    2    1    2    0    0 -0.12885704572E+02  0.44886994313E+02 -0.16463677458E+03  0.21197542875E+03  0.12508969266E+03 0.  0.
         23    2    1    2    0    0  0.12885704572E+02 -0.44886994313E+02 -0.86180313310E+02  0.13109938337E+03  0.87058131593E+02 0.  0.
          5    1    3    3  502    0  0.99470138557E+01 -0.40887703900E+02 -0.35463642599E+02  0.55189580187E+02  0.41800000000E+01 0. -1.
         -5    1    3    3    0  502 -0.22832718428E+02  0.85774698213E+02 -0.12917313198E+03  0.15678584856E+03  0.41800000000E+01 0. -1.
        -11    1    4    4    0    0 -0.47619119486E+01 -0.54530963432E+02 -0.14464766326E+02  0.56617411130E+02  0.00000000000E+00 0. -1.
         11    1    4    4    0    0  0.17647616520E+02  0.96439691186E+01 -0.71715546985E+02  0.74481972238E+02  0.00000000000E+00 0.  1.
</event>
<event>
 8    1  0.4798744E-006  0.1731055E+03  0.7561462E-02  0.1174647E+00
         -2   -1    0    0    0  501 -0.00000000000E+00  0.00000000000E+00  0.69694059254E+02  0.69694059254E+02  0.00000000000E+00 0.  1.
          2   -1    0    0  501    0  0.00000000000E+00 -0.00000000000E+00 -0.62868528542E+03  0.62868528542E+03  0.00000000000E+00 0. -1.
         23    2    1    2    0    0 -0.25837860647E+02 -0.15598670102E+03 -0.15209233219E+03  0.25254573896E+03  0.12509127396E+03 0.  0.
         23    2    1    2    0    0  0.25837860647E+02  0.15598670102E+03 -0.40689889398E+03  0.44583360571E+03  0.90561846963E+02 0.  0.
          5    1    3    3  502    0 -0.51643253124E+02 -0.53011042058E+02 -0.95097342661E+01  0.74733550826E+02  0.41800000000E+01 0.  1.
         -5    1    3    3    0  502  0.25805392476E+02 -0.10297565896E+03 -0.14258259792E+03  0.17781218814E+03  0.41800000000E+01 0.  1.
        -11    1    4    4    0    0 -0.45794666758E+01  0.11348902099E+03 -0.17881175511E+03  0.21183572212E+03  0.00000000000E+00 0.  1.
         11    1    4    4    0    0  0.30417327323E+02  0.42497680028E+02 -0.22808713887E+03  0.23399788359E+03  0.00000000000E+00 0. -1.
</event>
<event>
 8    1  0.4798744E-006  0.1850038E+03  0.7561462E-02  0.1163046E+00
          4   -1    0    0  501    0  0.00000000000E+00  0.00000000000E+00  0.15893806851E+03  0.15893806851E+03  0.00000000000E+00 0. -1.
         -4   -1    0    0    0  501 -0.00000000000E+00 -0.00000000000E+00 -0.21798987577E+03  0.21798987577E+03  0.00000000000E+00 0.  1.
         23    2    1    2    0    0 -0.14677648382E+03  0.27701594005E+02 -0.47944809752E+02  0.20066132580E+03  0.12512213385E+03 0.  0.
         23    2    1    2    0    0  0.14677648382E+03 -0.27701594005E+02 -0.11106997506E+02  0.17626661848E+03  0.92929225146E+02 0.  0.
          5    1    3    3  502    0 -0.12110378820E+03 -0.35695074986E+02 -0.31231738556E+02  0.13012747515E+03  0.41800000000E+01 0. -1.
         -5    1    3    3    0  502 -0.25672695613E+02  0.63396668991E+02 -0.16713071196E+02  0.70533850654E+02  0.41800000000E+01 0. -1.
        -11    1    4    4    0    0  0.15667677396E+03 -0.12708014256E+02 -0.49347919156E+01  0.15726874227E+03  0.00000000000E+00 0.  1.
         11    1    4    4    0    0 -0.99002901450E+01 -0.14993579749E+02 -0.61722055900E+01  0.18997876210E+02  0.00000000000E+00 0. -1.
</event>
<event>
 8    1  0.4798744E-006  0.1359720E+03  0.7561462E-02  0.1218854E+00
          1   -1    0    0  501    0  0.00000000000E+00  0.00000000000E+00  0.31433507214E+03  0.31433507214E+03  0.00000000000E+00 0. -1.
         -1   -1    0    0    0  501 -0.00000000000E+00 -0.00000000000E+00 -0.17846647546E+03  0.17846647546E+03  0.00000000000E+00 0.  1.
         23    2    1    2    0    0 -0.19843811860E+02 -0.86908677959E+02 -0.12800613806E+03  0.19991823416E+03  0.12503932899E+03 0.  0.
         23    2    1    2    0    0  0.19843811860E+02  0.86908677959E+02  0.26387473474E+03  0.29288331344E+03  0.90575186908E+02 0.  0.
          5    1    3    3  502    0 -0.59798771260E+02 -0.98583861963E+01 -0.26442496376E+02  0.66255255167E+02  0.41800000000E+01 0. -1.
         -5    1    3    3    0  502  0.39954959399E+02 -0.77050291763E+02 -0.10156364169E+03  0.13366297900E+03  0.41800000000E+01 0.  1.
        -11    1    4    4    0    0 -0.34342577634E+02  0.28509471914E+02  0.12567798101E+03  0.13336850280E+03  0.00000000000E+00 0.  1.
         11    1    4    4    0    0  0.54186389494E+02  0.58399206045E+02  0.13819675373E+03  0.15951481064E+03  0.00000000000E+00 0. -1.
</event>
<event>
 8    1  0.4798744E-006  0.8196930E+02  0.7561462E-02  0.1323554E+00
          1   -1    0    0  501    0  0.00000000000E+00  0.00000000000E+00  0.18967356103E+03  0.18967356103E+03  0.00000000000E+00 0. -1.
         -1   -1    0    0    0  501 -0.00000000000E+00 -0.00000000000E+00 -0.66858589257E+02  0.66858589257E+02  0.00000000000E+00 0.  1.
         23    2    1    2    0    0 -0.53764645360E+01  0.10307119294E+00  0.33945299170E+02  0.12972584467E+03  0.12509034513E+03 0.  0.
         23    2    1    2    0    0  0.53764645360E+01 -0.10307119294E+00  0.88869672605E+02  0.12680630562E+03  0.90294537162E+02 0.  0.
          5    1    3    3  502    0  0.20924233106E+02 -0.29455467346E+02 -0.34773847126E+02  0.50320382864E+02  0.41800000000E+01 0.  1.
         -5    1    3    3    0  502 -0.26300697642E+02  0.29558538539E+02  0.68719146296E+02  0.79405461806E+02  0.41800000000E+01 0.  1.
        -11    1    4    4    0    0  0.31122329399E+02 -0.33425385133E+02  0.30843147777E+02  0.55110393968E+02  0.00000000000E+00 0.  1.
         11    1    4    4    0    0 -0.25745864863E+02  0.33322313940E+02  0.58026524828E+02  0.71695911651E+02  0.00000000000E+00 0. -1.
</event>
<event>
 8    1  0.4798744E-006  0.1408944E+03  0.7561462E-02  0.1212131E+00
         -4   -1    0    0    0  501 -0.00000000000E+00  0.00000000000E+00  0.30947003126E+02  0.30947003126E+02  0.00000000000E+00 0.  1.
          4   -1    0    0  501    0  0.00000000000E+00 -0.00000000000E+00 -0.71490323808E+03  0.71490323808E+03  0.00000000000E+00 0. -1.
         23    2    1    2    0    0 -0.91478666415E+02  0.30370053967E+02 -0.26621316019E+03  0.30952762498E+03  0.12508883795E+03 0.  0.
         23    2    1    2    0    0  0.91478666415E+02 -0.30370053967E+02 -0.41774307476E+03  0.43632261622E+03  0.81101555655E+02 0.  0.
          5    1    3    3  502    0 -0.37241234741E+01  0.62613268131E+02 -0.12812125359E+03  0.14271236268E+03  0.41800000000E+01 0.  1.
         -5    1    3    3    0  502 -0.87754542941E+02 -0.32243214164E+02 -0.13809190660E+03  0.16681526230E+03  0.41800000000E+01 0.  1.
        -11    1    4    4    0    0  0.10583038232E+03 -0.20171924154E+02 -0.34238434738E+03  0.35893455905E+03  0.00000000000E+00 0.  1.
         11    1    4    4    0    0 -0.14351715907E+02 -0.10198129813E+02 -0.75358727381E+02  0.77388057177E+02  0.00000000000E+00 0. -1.
</event>
<event>
 6    1  0.4798744E-006  0.8367629E+02  0.7561462E-02  0.1318931E+00
          1   -1    0    0  501    0  0.00000000000E+00  0.00000000000E+00  0.96094386058E+02  0.96094386058E+02  0.00000000000E+00 0. -1.
         -1   -1    0    0    0  501 -0.00000000000E+00 -0.00000000000E+00 -0.27605209383E+03  0.27605209383E+03  0.00000000000E+00 0.  1.
          5    1    1    2  502    0  0.55009257316E+02 -0.55569054045E+02 -0.48634367427E+02  0.92177612536E+02  0.41800000000E+01 0. -1.
         -5    1    1    2    0  502 -0.45074441613E+02  0.31475946586E+02 -0.19677445358E+03  0.20435287735E+03  0.41800000000E+01 0.  1.
        -11    1    1    2    0    0  0.62915593295E+01  0.12427437279E+02  0.44641788727E+02  0.46764454631E+02  0.00000000000E+00 0. -1.
         11    1    1    2    0    0 -0.16226375033E+02  0.11665670179E+02  0.20809324500E+02  0.28851535377E+02  0.00000000000E+00 0.  1.
</event>
<event>
 7    1  0.4798744E-006  0.8917779E+02  0.7561462E-02  0.1304855E+00
          2   -1    0    0  501    0  0.00000000000E+00  0.00000000000E+00  0.11990558086E+03  0.11990558086E+03  0.00000000000E+00 0. -1.
         -2   -1    0    0    0  501 -0.00000000000E+00 -0.00000000000E+00 -0.21699467524E+03  0.21699467524E+03  0.00000000000E+00 0.  1.
         23    2    1    2    0    0  0.51730551204E+01 -0.29084466601E+02  0.40713103883E+02  0.10383194133E+03  0.90834181429E+02 0.  0.
          5    1    1    2  502    0 -0.47998552424E+02 -0.27820207106E+02 -0.15063573124E+03  0.16058150854E+03  0.41800000000E+01 0. -1.
         -5    1    1    2    0  502  0.42825497304E+02  0.56904673708E+02  0.12833532978E+02  0.72486806233E+02  0.41800000000E+01 0.  1.
        -11    1    3    3    0    0 -0.54949415660E+01  0.97029017222E+01  0.58711799475E+02  0.59761325974E+02  0.00000000000E+00 0. -1.
         11    1    3    3    0    0  0.10667996686E+02 -0.38787368324E+02 -0.17998695592E+02  0.44070615355E+02  0.00000000000E+00 0.  1.
</event>
<event>
 8    1  0.4798744E-006  0.2631374E+03  0.7561462E-02  0.1105273E+00
         -2   -1    0    0    0  501 -0.00000000000E+00  0.00000000000E+00  0.20381327396E+03  0.20381327396E+03  0.00000000000E+00 0. -1.
          2   -1    0    0  501    0  0.00000000000E+00 -0.00000000000E+00 -0.57498115321E+03  0.57498115321E+03  0.00000000000E+00 0.  1.
         23    2    1    2    0    0 -0.15995562950E+01  0.26149118716E+03  0.30060078577E+02  0.29142946996E+03  0.12508928049E+03 0.  0.
         23    2    1    2    0    0  0.15995562950E+01 -0.26149118716E+03 -0.40122795783E+03  0.48736495720E+03  0.90335639809E+02 0.  0.
          5    1    3    3  502    0 -0.17046262948E+01  0.23275459072E+03  0.69041529327E+02  0.24282053130E+03  0.41800000000E+01 0. -1.
         -5    1    3    3    0  502  0.10506999980E+00  0.28736596444E+02 -0.38981450750E+02  0.48608938658E+02  0.41800000000E+01 0. -1.
        -11    1    4    4    0    0  0.20477861896E+02 -0.13378394511E+03 -0.13333105656E+03  0.18998594011E+03  0.00000000000E+00 0.  1.
         11    1    4    4    0    0 -0.18878305601E+02 -0.12770724205E+03 -0.26789690127E+03  0.29737901709E+03  0.00000000000E+00 0. -1.
</event>
<event>
 8    1  0.4798744E-006  0.1252068E+03  0.7561462E-02  0.1234746E+00
          1   -1    0    0  501    0  0.00000000000E+00  0.00000000000E+00  0.21674166432E+03  0.21674166432E+03  0.00000000000E+00 0. -1.
         -1   -1    0    0    0  501 -0.00000000000E+00 -0.00000000000E+00 -0.10116042038E+03  0.10116042038E+03  0.00000000000E+00 0.  1.
         23    2    1    2    0    0 -0.27219278444E+02 -0.95317575417E+02  0.69916322460E+02  0.17424680006E+03  0.12508927166E+03 0.  0.
         23    2    1    2    0    0  0.27219278444E+02  0.95317575417E+02  0.45664921482E+02  0.14365528463E+03  0.93408920596E+02 0.  0.
          5    1    3    3  502    0  0.33537590071E+02 -0.73462426604E+02  0.73730658843E+02  0.10943116797E+03  0.41800000000E+01 0. -1.
         -5    1    3    3    0  502 -0.60756868515E+02 -0.21855148813E+02 -0.38143363833E+01  0.64815632091E+02  0.41800000000E+01 0. -1.
        -11    1    4    4    0    0  0.12506301768E+02  0.87101485916E+02  0.71110126641E+02  0.11313587647E+03  0.00000000000E+00 0. -1.
         11    1    4    4    0    0  0.14712976676E+02  0.82160895005E+01 -0.25445205159E+02  0.30519408168E+02  0.00000000000E+00 0.  1.
</event>
<event>
 8    1  0.4798744E-006  0.2891391E+03  0.7561462E-02  0.1090799E+00
         -1   -1    0    0    0  501 -0.00000000000E+00  0.00000000000E+00  0.20839588123E+03  0.20839588123E+03  0.00000000000E+00 0.  1.
          1   -1    0    0  501    0  0.00000000000E+00 -0.00000000000E+00 -0.47832888622E+03  0.47832888622E+03  0.00000000000E+00 0. -1.
         23    2    1    2    0    0  0.25914735467E+03  0.10822639060E+03 -0.22486814839E+03  0.38090022578E+03  0.12509594232E+03 0.  0.
         23    2    1    2    0    0 -0.25914735467E+03 -0.10822639060E+03 -0.45064856596E+02  0.30582454167E+03  0.11237217598E+03 0.  0.
          5    1    3    3  502    0  0.18158872984E+02 -0.10615378059E+02  0.10308888457E+02  0.23794463655E+02  0.41800000000E+01 0.  1.
         -5    1    3    3    0  502  0.24098848168E+03  0.11884176866E+03 -0.23517703685E+03  0.35710576213E+03  0.41800000000E+01 0.  1.
        -11    1    4    4    0    0 -0.37345973909E+02 -0.42904718932E+02  0.27912483273E+02  0.63361213659E+02  0.00000000000E+00 0.  1.
         11    1    4    4    0    0 -0.22180138076E+03 -0.65321671669E+02 -0.72977339869E+02  0.24246332801E+03  0.00000000000E+00 0. -1.
</event>
<event>
 8    1  0.4798744E-006  0.2225945E+03  0.7561462E-02  0.1131963E+00
          1   -1    0    0  501    0  0.00000000000E+00  0.00000000000E+00  0.11173958905E+03  0.11173958905E+03  0.00000000000E+00 0. -1.
         -1   -1    0    0    0  501 -0.00000000000E+00 -0.00000000000E+00 -0.49085401150E+03  0.49085401150E+03  0.00000000000E+00 0.  1.
         23    2    1    2    0    0 -0.17608361495E+03 -0.96263288954E+02 -0.13049318714E+03  0.27008784753E+03  0.12508762224E+03 0.  0.
         23    2    1    2    0    0  0.17608361495E+03  0.96263288954E+02 -0.24862123530E+03  0.33250575303E+03  0.92062461934E+02 0.  0.
          5    1    3    3  502    0 -0.25079131118E+01 -0.42799703275E+02 -0.62928140790E+02  0.76259606162E+02  0.41800000000E+01 0. -1.
         -5    1    3    3    0  502 -0.17357570184E+03 -0.53463585679E+02 -0.67565046351E+02  0.19382824137E+03  0.41800000000E+01 0. -1.
        -11    1    4    4    0    0  0.99953339112E+02  0.29292364351E+01 -0.12209204043E+03  0.15781545159E+03  0.00000000000E+00 0.  1.
         11    1    4    4    0    0  0.76130275840E+02  0.93334052519E+02 -0.12652919487E+03  0.17469030143E+03  0.00000000000E+00 0. -1.
</event>
<event>
 8    1  0.4798744E-006  0.1266131E+03  0.7561462E-02  0.1232570E+00
         -3   -1    0    0    0  501 -0.00000000000E+00  0.00000000000E+00  0.14358712516E+03  0.14358712516E+03  0.00000000000E+00 0.  1.
          3   -1    0    0  501    0  0.00000000000E+00 -0.00000000000E+00 -0.16876400539E+03  0.16876400539E+03  0.00000000000E+00 0. -1.
         23    2    1    2    0    0  0.10512435617E+03 -0.33276239001E+02 -0.23273625672E+02  0.16837253438E+03  0.12509680388E+03 0.  0.
         23    2    1    2    0    0 -0.10512435617E+03  0.33276239001E+02 -0.19032545554E+01  0.14397859616E+03  0.92562278679E+02 0.  0.
          5    1    3    3  502    0  0.80213172609E+02 -0.61131604333E+02 -0.58652773563E+02  0.11674265011E+03  0.41800000000E+01 0.  1.
         -5    1    3    3    0  502  0.24911183557E+02  0.27855365332E+02  0.35379147891E+02  0.51629884268E+02  0.41800000000E+01 0.  1.
        -11    1    4    4    0    0 -0.57642990055E+02  0.17113449958E+01  0.42561819741E+02  0.71673924852E+02  0.00000000000E+00 0.  1.
         11    1    4    4    0    0 -0.47481366111E+02  0.31564894005E+02 -0.44465074296E+02  0.72304671312E+02  0.00000000000E+00 0. -1.
</event>
<event>
 8    1  0.4798744E-006  0.1168768E+03  0.7561462E-02  0.1248340E+00
         -3   -1    0    0    0  501 -0.00000000000E+00  0.00000000000E+00  0.24254875382E+03  0.24254875382E+03  0.00000000000E+00 0.  1.
          3   -1    0    0  501    0  0.00000000000E+00 -0.00000000000E+00 -0.84995529866E+02  0.84995529866E+02  0.00000000000E+00 0. -1.
         23    2    1    2    0    0  0.83430228496E+01 -0.69929055184E+02  0.15455727852E+03  0.21094004820E+03  0.12509225717E+03 0.  0.
         23    2    1    2    0    0 -0.83430228496E+01  0.69929055184E+02  0.29959454288E+01  0.11660423548E+03  0.92886453552E+02 0.  0.
          5    1    3    3  502    0  0.11430812990E+02  0.33280669936E+02  0.18168031772E+02  0.39822308515E+02  0.41800000000E+01 0.  1.
         -5    1    3    3    0  502 -0.30877901404E+01 -0.10320972512E+03  0.13638924675E+03  0.17111773969E+03  0.41800000000E+01 0.  1.
        -11    1    4    4    0    0  0.14952879637E+02 -0.55766241273E+01 -0.27590269772E+02  0.31873348305E+02  0.00000000000E+00 0. -1.
         11    1    4    4    0    0 -0.23295902487E+02  0.75505679311E+02  0.30586215201E+02  0.84730887174E+02  0.00000000000E+00 0.  1.
</event>
<event>
 8    1  0.4798744E-006  0.7941055E+02  0.7561462E-02  0.1330733E+00
         -1   -1    0    0    0  501 -0.00000000000E+00  0.00000000000E+00  0.94227285923E+02  0.94227285923E+02  0.00000000000E+00 0.  1.
          1   -1    0    0  501    0  0.00000000000E+00 -0.00000000000E+00 -0.16632763479E+03  0.16632763479E+03  0.00000000000E+00 0. -1.
         23    2    1    2    0    0 -0.43973246152E+01  0.43248546472E+02  0.57975291733E+01  0.13255822136E+03  0.12509315517E+03 0.  0.
         23    2    1    2    0    0  0.43973246152E+01 -0.43248546472E+02 -0.77897878037E+02  0.12799669935E+03  0.91789446050E+02 0.  0.
          5    1    3    3  502    0  0.17366297005E+02 -0.22444117069E+02  0.44660470586E+02  0.53078778204E+02  0.41800000000E+01 0.  1.
         -5    1    3    3    0  502 -0.21763621620E+02  0.65692663540E+02 -0.38862941413E+02  0.79479443155E+02  0.41800000000E+01 0.  1.
        -11    1    4    4    0    0 -0.11156827228E+02 -0.43843793896E+02  0.32611957919E+01  0.45358444142E+02  0.00000000000E+00 0.  1.
         11    1    4    4    0    0  0.15554151843E+02  0.59524742451E+00 -0.81159073829E+02  0.82638255208E+02  0.00000000000E+00 0. -1.
</event>
<event>
 8    1  0.4798744E-006  0.1075540E+03  0.7561462E-02  0.1265168E+00
          1   -1    0    0  501    0  0.00000000000E+00  0.00000000000E+00  0.14400594900E+03  0.14400594900E+03  0.00000000000E+00 0.  1.
         -1   -1    0    0    0  501 -0.00000000000E+00 -0.00000000000E+00 -0.15189747385E+03  0.15189747385E+03  0.00000000000E+00 0. -1.
         23    2    1    2    0    0 -0.72677410497E+02  0.47322502048E+02 -0.53493732886E+02  0.16133648887E+03  0.12508580250E+03 0.  0.
         23    2    1    2    0    0  0.72677410497E+02 -0.47322502048E+02  0.45602208028E+02  0.13456693398E+03  0.92234880316E+02 0.  0.
          5    1    3    3  502    0 -0.15514831608E+02 -0.22461200044E+02 -0.64692667879E+02  0.70340807392E+02  0.41800000000E+01 0. -1.
         -5    1    3    3    0  502 -0.57162578889E+02  0.69783702093E+02  0.11198934993E+02  0.90995681480E+02  0.41800000000E+01 0. -1.
        -11    1    4    4    0    0  0.26987032470E+01 -0.22916288919E+02 -0.23716196808E+02  0.33089232208E+02  0.00000000000E+00 0. -1.
         11    1    4    4    0    0  0.69978707250E+02 -0.24406213129E+02  0.69318404837E+02  0.10147770177E+03  0.00000000000E+00 0.  1.
</event>
<event>
 8    1  0.4798744E-006  0.7416525E+02  0.7561462E-02  0.1346476E+00
         -4   -1    0    0    0  501 -0.00000000000E+00  0.00000000000E+00  0.14763087580E+03  0.14763087580E+03  0.00000000000E+00 0.  1.
          4   -1    0    0  501    0  0.00000000000E+00 -0.00000000000E+00 -0.14689654148E+03  0.14689654148E+03  0.00000000000E+00 0. -1.
         23    2    1    2    0    0  0.22043267395E+02  0.33417320259E+02  0.86343051761E+02  0.15716668988E+03  0.12507446938E+03 0.  0.
         23    2    1    2    0    0 -0.22043267395E+02 -0.33417320259E+02 -0.85608717444E+02  0.13736072739E+03  0.99681964252E+02 0.  0.
          5    1    3    3  502    0 -0.21260539747E+02  0.22310962566E+02 -0.23185470310E+02  0.38792113044E+02  0.41800000000E+01 0. -1.
         -5    1    3    3    0  502  0.43303807141E+02  0.11106357693E+02  0.10952852207E+03  0.11837457684E+03  0.41800000000E+01 0. -1.
        -11    1    4    4    0    0 -0.19467436977E+02  0.14543032099E+02 -0.85961391052E+02  0.89329959346E+02  0.00000000000E+00 0. -1.
         11    1    4    4    0    0 -0.25758304172E+01 -0.47960352358E+02  0.35267360794E+00  0.48030768049E+02  0.00000000000E+00 0.  1.
</event>
<event>
 8    1  0.4798744E-006  0.1024113E+03  0.7561462E-02  0.1275305E+00
          1   -1    0    0  501    0  0.00000000000E+00  0.00000000000E+00  0.36367185108E+03  0.36367185108E+03  0.00000000000E+00 0. -1.
         -1   -1    0    0    0  501 -0.00000000000E+00 -0.00000000000E+00 -0.47554593831E+02  0.47554593831E+02  0.00000000000E+00 0.  1.
         23    2    1    2    0    0 -0.56243601252E+02  0.21060704136E+02  0.12669557621E+03  0.18790027127E+03  0.12509135451E+03 0.  0.
         23    2    1    2    0    0  0.56243601252E+02 -0.21060704136E+02  0.18942168104E+03  0.22332617364E+03  0.10191717541E+03 0.  0.
          5    1    3    3  502    0  0.28849990533E+02  0.16227525835E+02  0.88174230920E+02  0.94275245673E+02  0.41800000000E+01 0. -1.
         -5    1    3    3    0  502 -0.85093591785E+02  0.48331783005E+01  0.38521345287E+02  0.93625025597E+02  0.41800000000E+01 0. -1.
        -11    1    4    4    0    0  0.86304551140E+01  0.20931438115E+02 -0.93706501696E+00  0.22660272459E+02  0.00000000000E+00 0.  1.
         11    1    4    4    0    0  0.47613146138E+02 -0.41992142251E+02  0.19035874605E+03  0.20066590118E+03  0.00000000000E+00 0. -1.
</event>
<event>
 8    1  0.4798744E-006  0.7311326E+02  0.7561462E-02  0.1349815E+00
          1   -1    0    0  501    0  0.00000000000E+00  0.00000000000E+00  0.23367911796E+03  0.23367911796E+03  0.00000000000E+00 0. -1.
         -1   -1    0    0    0  501 -0.00000000000E+00 -0.00000000000E+00 -0.49851701973E+02  0.49851701973E+02  0.00000000000E+00 0.  1.
         23    2    1    2    0    0 -0.73281627798E+01 -0.24812183998E+01  0.94173304402E+02  0.15676638482E+03  0.12508888732E+03 0.  0.
         23    2    1    2    0    0  0.73281627798E+01  0.24812183998E+01  0.89654111586E+02  0.12676443512E+03  0.89283278791E+02 0.  0.
          5    1    3    3  502    0  0.23789835356E+02  0.14937680671E+02  0.11279753617E+03  0.11631787110E+03  0.41800000000E+01 0. -1.
         -5    1    3    3    0  502 -0.31117998136E+02 -0.17418899071E+02 -0.18624231772E+02  0.40448513717E+02  0.41800000000E+01 0. -1.
        -11    1    4    4    0    0 -0.28276049478E+02 -0.24368236133E+02  0.15890400420E+02  0.40569085914E+02  0.00000000000E+00 0.  1.
         11    1    4    4    0    0  0.35604212258E+02  0.26849454533E+02  0.73763711166E+02  0.86195349203E+02  0.00000000000E+00 0. -1.
</event>
<event>
 8    1  0.4798744E-006  0.1477511E+03  0.7561462E-02  0.1203264E+00
         -1   -1    0    0    0  501 -0.00000000000E+00  0.00000000000E+00  0.20440558809E+02  0.20440558809E+02  0.00000000000E+00 0.  1.
          1   -1    0    0  501    0  0.00000000000E+00 -0.00000000000E+00 -0.11288319333E+04  0.11288319333E+04  0.00000000000E+00 0. -1.
         23    2    1    2    0    0 -0.50292328444E+02 -0.92064603516E+02 -0.56445374702E+03  0.58758802771E+03  0.12508576362E+03 0.  0.
         23    2    1    2    0    0  0.50292328444E+02  0.92064603516E+02 -0.54393762743E+03  0.56168446436E+03  0.92822871360E+02 0.  0.
          5    1    3    3  502    0  0.17104014171E+02  0.18761625402E+02 -0.41978406358E+02  0.49236215217E+02  0.41800000000E+01 0. -1.
         -5    1    3    3    0  502 -0.67396342615E+02 -0.11082622892E+03 -0.52247534067E+03  0.53835181250E+03  0.41800000000E+01 0. -1.
        -11    1    4    4    0    0  0.51695111465E+02  0.39246799611E+01 -0.21074323395E+03  0.21702649220E+03  0.00000000000E+00 0.  1.
         11    1    4    4    0    0 -0.14027830206E+01  0.88139923555E+02 -0.33319439348E+03  0.34465797216E+03  0.00000000000E+00 0. -1.
</event>
<event>
 8    1  0.4798744E-006  0.1077235E+03  0.7561462E-02  0.1264845E+00
          2   -1    0    0  501    0  0.00000000000E+00  0.00000000000E+00  0.53587791944E+03  0.53587791944E+03  0.00000000000E+00 0. -1.
         -2   -1    0    0    0  501 -0.00000000000E+00 -0.00000000000E+00 -0.26504697837E+02  0.26504697837E+02  0.00000000000E+00 0.  1.
         23    2    1    2    0    0  0.91096294349E+01  0.26434485096E+01  0.17191400577E+03  0.21282085464E+03  0.12509323571E+03 0.  0.
         23    2    1    2    0    0 -0.91096294349E+01 -0.26434485096E+01  0.33745921582E+03  0.34956176263E+03  0.90690299275E+02 0.  0.
          5    1    3    3  502    0 -0.68427575812E+01  0.62073007785E+02  0.71965253087E+02  0.95374795825E+02  0.41800000000E+01 0.  1.
         -5    1    3    3    0  502  0.15952387016E+02 -0.59429559276E+02  0.99948752687E+02  0.11744605881E+03  0.41800000000E+01 0.  1.
        -11    1    4    4    0    0  0.18832243186E+02  0.37680387180E+02  0.15701091526E+03  0.16256350289E+03  0.00000000000E+00 0.  1.
         11    1    4    4    0    0 -0.27941872621E+02 -0.40323835690E+02  0.18044830057E+03  0.18699825975E+03  0.00000000000E+00 0. -1.
</event>
<event>
 8    1  0.4798744E-006  0.1856948E+03  0.7561462E-02  0.1162403E+00
          3   -1    0    0  501    0  0.00000000000E+00  0.00000000000E+00  0.40019148128E+03  0.40019148128E+03  0.00000000000E+00 0. -1.
         -3   -1    0    0    0  501 -0.00000000000E+00 -0.00000000000E+00 -0.13070744361E+03  0.13070744361E+03  0.00000000000E+00 0.  1.
         23    2    1    2    0    0  0.16054620011E+02 -0.17485495880E+03  0.26361276151E+02  0.21719444323E+03  0.12508597784E+03 0.  0.
         23    2    1    2    0    0 -0.16054620011E+02  0.17485495880E+03  0.24312276152E+03  0.31370448165E+03  0.92031609800E+02 0.  0.
          5    1    3    3  502    0  0.31977089863E+02 -0.54279391612E+02  0.63911798586E+02  0.89838616576E+02  0.41800000000E+01 0. -1.
         -5    1    3    3    0  502 -0.15922469853E+02 -0.12057556719E+03 -0.37550522435E+02  0.12735582666E+03  0.41800000000E+01 0. -1.
        -11    1    4    4    0    0 -0.23534713605E+01  0.17266790309E+03  0.24496034754E+03  0.29970871767E+03  0.00000000000E+00 0. -1.
         11    1    4    4    0    0 -0.13701148650E+02  0.21870557085E+01 -0.18375860194E+01  0.13995763980E+02  0.00000000000E+00 0.  1.
</event>
<event>
 8    1  0.4798744E-006  0.1276790E+03  0.7561462E-02  0.1230941E+00
          2   -1    0    0  501    0  0.00000000000E+00  0.00000000000E+00  0.84204201530E+03  0.84204201530E+03  0.00000000000E+00 0. -1.
         -2   -1    0    0    0  501 -0.00000000000E+00 -0.00000000000E+00 -0.24961093120E+02  0.24961093120E+02  0.00000000000E+00 0.  1.
         23    2    1    2    0    0  0.83558688227E+02  0.11862149831E+02  0.30901987095E+03  0.34389453080E+03  0.12508957869E+03 0.  0.
         23    2    1    2    0    0 -0.83558688227E+02 -0.11862149831E+02  0.50806105123E+03  0.52310857762E+03  0.91617614161E+02 0.  0.
          5    1    3    3  502    0  0.76404421893E+02  0.53032771759E+02  0.12928113261E+03  0.15931476458E+03  0.41800000000E+01 0.  1.
         -5    1    3    3    0  502  0.71542663341E+01 -0.41170621929E+02  0.17973873834E+03  0.18457976622E+03  0.41800000000E+01 0.  1.
        -11    1    4    4    0    0 -0.63110923220E+02  0.32811794418E+02  0.36442930824E+03  0.37130623909E+03  0.00000000000E+00 0. -1.
         11    1    4    4    0    0 -0.20447765007E+02 -0.44673944249E+02  0.14363174299E+03  0.15180233853E+03  0.00000000000E+00 0.  1.
</event>
<event>
 8    1  0.4798744E-006  0.1374418E+03  0.7561462E-02  0.1216813E+00
          2   -1    0    0  501    0  0.00000000000E+00  0.00000000000E+00  0.23341523829E+03  0.23341523829E+03  0.00000000000E+00 0. -1.
         -2   -1    0    0    0  501 -0.00000000000E+00 -0.00000000000E+00 -0.85125143619E+02  0.85125143619E+02  0.00000000000E+00 0.  1.
         23    2    1    2    0    0 -0.24728201723E+02 -0.85377342503E+02  0.74807468701E+02  0.17075617921E+03  0.12514288151E+03 0.  0.
         23    2    1    2    0    0  0.24728201723E+02  0.85377342503E+02  0.73482625971E+02  0.14778420270E+03  0.92410495474E+02 0.  0.
          5    1    3    3  502    0 -0.14205971063E+02 -0.11448389501E+03  0.78065061284E+02  0.13935565300E+03  0.41800000000E+01 0. -1.
         -5    1    3    3    0  502 -0.10522230660E+02  0.29106552507E+02 -0.32575925829E+01  0.31400526211E+02  0.41800000000E+01 0. -1.
        -11    1    4    4    0    0  0.30804068267E+02 -0.10196808909E+02  0.18006313029E+02  0.37109201590E+02  0.00000000000E+00 0. -1.
         11    1    4    4    0    0 -0.60758665438E+01  0.95574151412E+02  0.55476312943E+02  0.11067500111E+03  0.00000000000E+00 0.  1.
</event>
<event>
 8    1  0.4798744E-006  0.1201401E+03  0.7561462E-02  0.1242866E+00
          1   -1    0    0  501    0  0.00000000000E+00  0.00000000000E+00  0.69186145219E+03  0.69186145219E+03  0.00000000000E+00 0. -1.
         -1   -1    0    0    0  501 -0.00000000000E+00 -0.00000000000E+00 -0.39236822700E+02  0.39236822700E+02  0.00000000000E+00 0.  1.
         23    2    1    2    0    0 -0.10533665065E+03  0.38306366688E+02  0.21366931303E+03  0.27178099714E+03  0.12508855815E+03 0.  0.
         23    2    1    2    0    0  0.10533665065E+03 -0.38306366688E+02  0.43895531646E+03  0.45931727775E+03  0.75679614747E+02 0.  0.
          5    1    3    3  502    0 -0.11197495397E+03  0.41747317551E+02  0.22663201735E+03  0.25624358046E+03  0.41800000000E+01 0.  1.
         -5    1    3    3    0  502  0.66383033191E+01 -0.34409508623E+01 -0.12962704323E+02  0.15537416682E+02  0.41800000000E+01 0.  1.
        -11    1    4    4    0    0  0.32945739070E+02 -0.13660917791E+02  0.42169375821E+02  0.55229508914E+02  0.00000000000E+00 0.  1.
         11    1    4    4    0    0  0.72390911581E+02 -0.24645448898E+02  0.39678594064E+03  0.40408776883E+03  0.00000000000E+00 0. -1.
</event>
<event>
 8    1  0.4798744E-006  0.1071431E+03  0.7561462E-02  0.1265954E+00
          2   -1    0    0  501    0  0.00000000000E+00  0.00000000000E+00  0.41733696175E+03  0.41733696175E+03  0.00000000000E+00 0. -1.
         -2   -1    0    0    0  501 -0.00000000000E+00 -0.00000000000E+00 -0.39205680698E+02  0.39205680698E+02  0.00000000000E+00 0.  1.
         23    2    1    2    0    0  0.32839939056E+02 -0.57925664115E+02  0.18686759663E+03  0.23452277294E+03  0.12509032016E+03 0.  0.
         23    2    1    2    0    0 -0.32839939056E+02  0.57925664115E+02  0.19126368442E+03  0.22201986951E+03  0.90979015798E+02 0.  0.
          5    1    3    3  502    0  0.66598522388E+02  0.81956364145E+01  0.93553181959E+02  0.11520504284E+03  0.41800000000E+01 0.  1.
         -5    1    3    3    0  502 -0.33758583332E+02 -0.66121300529E+02  0.93314414667E+02  0.11931773010E+03  0.41800000000E+01 0.  1.
        -11    1    4    4    0    0  0.15899970265E+01  0.25023212317E+02  0.16265522139E+00  0.25074203914E+02  0.00000000000E+00 0.  1.
         11    1    4    4    0    0 -0.34429936083E+02  0.32902451798E+02  0.19110102920E+03  0.19694566559E+03  0.00000000000E+00 0. -1.
</event>
<event>
 8    1  0.4798744E-006  0.2364452E+03  0.7561462E-02  0.1122184E+00
         -2   -1    0    0    0  501 -0.00000000000E+00  0.00000000000E+00  0.36270450775E+03  0.36270450775E+03  0.00000000000E+00 0.  1.
          2   -1    0    0  501    0  0.00000000000E+00 -0.00000000000E+00 -0.18817917556E+03  0.18817917556E+03  0.00000000000E+00 0. -1.
         23    2    1    2    0    0 -0.19900490546E+03 -0.11682136283E+03  0.14583229798E+03  0.30051404995E+03  0.12566404368E+03 0.  0.
         23    2    1    2    0    0  0.19900490546E+03  0.11682136283E+03  0.28693034214E+02  0.25036963336E+03  0.92798059702E+02 0.  0.
          5    1    3    3  502    0 -0.15588417585E+02 -0.21098167778E+02 -0.21671431856E+02  0.34281989514E+02  0.41800000000E+01 0.  1.
         -5    1    3    3    0  502 -0.18341648788E+03 -0.95723195049E+02  0.16750372983E+03  0.26623206044E+03  0.41800000000E+01 0.  1.
        -11    1    4    4    0    0  0.18432704257E+03  0.82271569102E+02  0.48963825781E+02  0.20770778980E+03  0.00000000000E+00 0.  1.
         11    1    4    4    0    0  0.14677862889E+02  0.34549793725E+02 -0.20270791567E+02  0.42661843563E+02  0.00000000000E+00 0. -1.
</event>
<event>
 8    1  0.4798744E-006  0.1202214E+03  0.7561462E-02  0.1242732E+00
          1   -1    0    0  501    0  0.00000000000E+00  0.00000000000E+00  0.90906697608E+03  0.90906697608E+03  0.00000000000E+00 0. -1.
         -1   -1    0    0    0  501 -0.00000000000E+00 -0.00000000000E+00 -0.16097539905E+02  0.16097539905E+02  0.00000000000E+00 0.  1.
         23    2    1    2    0    0  0.45878952116E+02 -0.27926166919E+02  0.51032844981E+03  0.52817406149E+03  0.12509182028E+03 0.  0.
         23    2    1    2    0    0 -0.45878952116E+02  0.27926166919E+02  0.38264098637E+03  0.39699045450E+03  0.91118315763E+02 0.  0.
          5    1    3    3  502    0 -0.19363935724E+02 -0.59631638080E+02  0.26234532390E+03  0.26976551974E+03  0.41800000000E+01 0.  1.
         -5    1    3    3    0  502  0.65242887840E+02  0.31705471161E+02  0.24798312591E+03  0.25840854175E+03  0.41800000000E+01 0.  1.
        -11    1    4    4    0    0  0.79903169426E+01  0.47096056986E+02  0.14982546086E+03  0.15725632728E+03  0.00000000000E+00 0. -1.
         11    1    4    4    0    0 -0.53869269059E+02 -0.19169890067E+02  0.23281552551E+03  0.23973412721E+03  0.00000000000E+00 0.  1.
</event>
<event>
 8    1  0.4798744E-006  0.1122060E+03  0.7561462E-02  0.1256538E+00
         -3   -1    0    0    0  501 -0.00000000000E+00  0.00000000000E+00  0.53247886747E+02  0.53247886747E+02  0.00000000000E+00 0.  1.
          3   -1    0    0  501    0  0.00000000000E+00 -0.00000000000E+00 -0.38759054093E+03  0.38759054093E+03  0.00000000000E+00 0. -1.
         23    2    1    2    0    0  0.46794266391E+02  0.52332810716E+02 -0.85057359455E+02  0.16676560406E+03  0.12509031079E+03 0.  0.
         23    2    1    2    0    0 -0.46794266391E+02 -0.52332810716E+02 -0.24928529473E+03  0.27407282362E+03  0.89690178029E+02 0.  0.
          5    1    3    3  502    0  0.67225943750E+02  0.77645914153E+02 -0.85900239963E+02  0.13395722871E+03  0.41800000000E+01 0. -1.
         -5    1    3    3    0  502 -0.20431677360E+02 -0.25313103437E+02  0.84288050816E+00  0.32808375346E+02  0.41800000000E+01 0. -1.
        -11    1    4    4    0    0 -0.51908344727E+02 -0.19271268720E+02 -0.22752101256E+03  0.23416163052E+03  0.00000000000E+00 0. -1.
         11    1    4    4    0    0  0.51140783361E+01 -0.33061541996E+02 -0.21764282163E+02  0.39911193097E+02  0.00000000000E+00 0.  1.
</event>
<event>
 8    1  0.4798744E-006  0.1188410E+03  0.7561462E-02  0.1245021E+00
         -2   -1    0    0    0  501 -0.00000000000E+00  0.00000000000E+00  0.50955140088E+02  0.50955140088E+02  0.00000000000E+00 0.  1.
          2   -1    0    0  501    0  0.00000000000E+00 -0.00000000000E+00 -0.38077972938E+03  0.38077972938E+03  0.00000000000E+00 0. -1.
         23    2    1    2    0    0 -0.41306750608E+02 -0.74925023001E+02 -0.14634306799E+03  0.21067446432E+03  0.12508968642E+03 0.  0.
         23    2    1    2    0    0  0.41306750608E+02  0.74925023001E+02 -0.18348152130E+03  0.22106040515E+03  0.88781908908E+02 0.  0.
          5    1    3    3  502    0 -0.57583198367E+02  0.11551704702E+02 -0.84701465517E+02  0.10315559741E+03  0.41800000000E+01 0. -1.
         -5    1    3    3    0  502  0.16276447759E+02 -0.86476727704E+02 -0.61641602476E+02  0.10751886691E+03  0.41800000000E+01 0. -1.
        -11    1    4    4    0    0  0.12396512073E+02  0.52985163644E+02 -0.17571235107E+03  0.18394545767E+03  0.00000000000E+00 0. -1.
         11    1    4    4    0    0  0.28910238535E+02  0.21939859358E+02 -0.77691702327E+01  0.37114947486E+02  0.00000000000E+00 0.  1.
</event>
<event>
 8    1  0.4798744E-006  0.2506445E+03  0.7561462E-02  0.1112898E+00
         -2   -1    0    0    0  501 -0.00000000000E+00  0.00000000000E+00  0.44817861886E+02  0.44817861886E+02  0.00000000000E+00 0.  1.
          2   -1    0    0  501    0  0.00000000000E+00 -0.00000000000E+00 -0.16153478460E+04  0.16153478460E+04  0.00000000000E+00 0. -1.
         23    2    1    2    0    0 -0.20938486109E+03 -0.10247808499E+03 -0.57265165871E+03  0.63080944909E+03  0.12508741295E+03 0.  0.
         23    2    1    2    0    0  0.20938486109E+03  0.10247808499E+03 -0.99787832537E+03  0.10293562588E+04  0.97310725280E+02 0.  0.
          5    1    3    3  502    0  0.10151345522E+02  0.36941258179E+01 -0.82708890979E+02  0.83516042941E+02  0.41800000000E+01 0.  1.
         -5    1    3    3    0  502 -0.21953620661E+03 -0.10617221080E+03 -0.48994276773E+03  0.54729340615E+03  0.41800000000E+01 0.  1.
        -11    1    4    4    0    0  0.12166174407E+03  0.10092006516E+03 -0.74807735494E+03  0.76459542799E+03  0.00000000000E+00 0. -1.
         11    1    4    4    0    0  0.87723117027E+02  0.15580198265E+01 -0.24980097042E+03  0.26476083077E+03  0.00000000000E+00 0.  1.
</event>
<event>
 8    1  0.4798744E-006  0.1089838E+03  0.7561462E-02  0.1262463E+00
         -2   -1    0    0    0  501 -0.00000000000E+00  0.00000000000E+00  0.25329499846E+02  0.25329499846E+02  0.00000000000E+00 0.  1.
          2   -1    0    0  501    0  0.00000000000E+00 -0.00000000000E+00 -0.47583844755E+03  0.47583844755E+03  0.00000000000E+00 0. -1.
         23    2    1    2    0    0 -0.16250778333E+02  0.15817826381E+02 -0.26666056579E+03  0.29541431441E+03  0.12508984125E+03 0.  0.
         23    2    1    2    0    0  0.16250778333E+02 -0.15817826381E+02 -0.18384838192E+03  0.20575363299E+03  0.89554667810E+02 0.  0.
          5    1    3    3  502    0 -0.11223101003E+02 -0.54815303721E+02 -0.12316843832E+03  0.13534626746E+03  0.41800000000E+01 0.  1.
         -5    1    3    3    0  502 -0.50276773305E+01  0.70633130102E+02 -0.14349212747E+03  0.16006804694E+03  0.41800000000E+01 0.  1.
        -11    1    4    4    0    0 -0.21912745762E+02  0.26204150775E+02 -0.52136897782E+02  0.62330426399E+02  0.00000000000E+00 0.  1.
         11    1    4    4    0    0  0.38163524095E+02 -0.42021977156E+02 -0.13171148414E+03  0.14342320659E+03  0.00000000000E+00 0. -1.
</event>
<event>
 8    1  0.4798744E-006  0.1105782E+03  0.7561462E-02  0.1259503E+00
          1   -1    0    0  501    0  0.00000000000E+00  0.00000000000E+00  0.76611674662E+02  0.76611674662E+02  0.00000000000E+00 0. -1.
         -1   -1    0    0    0  501 -0.00000000000E+00 -0.00000000000E+00 -0.19149698843E+03  0.19149698843E+03  0.00000000000E+00 0.  1.
         23    2    1    2    0    0 -0.51814625231E+02 -0.41350539009E+00 -0.81128648032E+02  0.15784310329E+03  0.12509061256E+03 0.  0.
         23    2    1    2    0    0  0.51814625231E+02  0.41350539009E+00 -0.33756665740E+02  0.11026555980E+03  0.91291044588E+02 0.  0.
          5    1    3    3  502    0 -0.76135398724E+02 -0.41917101833E+02 -0.55062558253E+02  0.10297087009E+03  0.41800000000E+01 0.  1.
         -5    1    3    3    0  502  0.24320773492E+02  0.41503596443E+02 -0.26066089780E+02  0.54872233209E+02  0.41800000000E+01 0.  1.
        -11    1    4    4    0    0  0.54291479363E+02  0.25969326064E+02  0.85401328110E+01  0.60785726088E+02  0.00000000000E+00 0. -1.
         11    1    4    4    0    0 -0.24768541319E+01 -0.25555820674E+02 -0.42296798551E+02  0.49479833714E+02  0.00000000000E+00 0.  1.
</event>
<event>
 8    1  0.4798744E-006  0.1175243E+03  0.7561462E-02  0.1247238E+00
         -1   -1    0    0    0  501 -0.00000000000E+00  0.00000000000E+00  0.14565144438E+03  0.14565144438E+03  0.00000000000E+00 0.  1.
          1   -1    0    0  501    0  0.00000000000E+00 -0.00000000000E+00 -0.14238974019E+03  0.14238974019E+03  0.00000000000E+00 0. -1.
         23    2    1    2    0    0 -0.12499286801E+02 -0.74544991813E+02  0.26242446409E+02  0.14517148502E+03  0.12113177161E+03 0.  0.
         23    2    1    2    0    0  0.12499286801E+02  0.74544991813E+02 -0.22980742213E+02  0.14286969955E+03  0.11903969322E+03 0.  0.
          5    1    3    3  502    0  0.50002804696E+01 -0.87461689397E+02 -0.23434285334E+02  0.90780989452E+02  0.41800000000E+01 0. -1.
         -5    1    3    3    0  502 -0.17499567271E+02  0.12916697583E+02  0.49676731743E+02  0.54390495565E+02  0.41800000000E+01 0.  1.
        -11    1    4    4    0    0 -0.24283003475E+02  0.83816540839E+02 -0.45851013393E+02  0.98575819577E+02  0.00000000000E+00 0.  1.
         11    1    4    4    0    0  0.36782290276E+02 -0.92715490262E+01  0.22870271180E+02  0.44293879974E+02  0.00000000000E+00 0. -1.
</event>
<event>
 8    1  0.4798744E-006  0.9985643E+02  0.7561462E-02  0.1280598E+00
         -1   -1    0    0    0  501 -0.00000000000E+00  0.00000000000E+00  0.84147126517E+02  0.84147126517E+02  0.00000000000E+00 0.  1.
          1   -1    0    0  501    0  0.00000000000E+00 -0.00000000000E+00 -0.14862359689E+03  0.14862359689E+03  0.00000000000E+00 0. -1.
         23    2    1    2    0    0 -0.93490528899E+01  0.47949487447E+00 -0.21824013342E+02  0.12733187728E+03  0.12509790049E+03 0.  0.
         23    2    1    2    0    0  0.93490528899E+01 -0.47949487447E+00 -0.42652457028E+02  0.10543884612E+03  0.95971263804E+02 0.  0.
          5    1    3    3  502    0  0.54502571115E+02 -0.54465564254E+01  0.96526267329E+01  0.55774912262E+02  0.41800000000E+01 0.  1.
         -5    1    3    3    0  502 -0.63851624005E+02  0.59260512999E+01 -0.31476640075E+02  0.71556965017E+02  0.41800000000E+01 0.  1.
        -11    1    4    4    0    0 -0.66267750449E+01  0.38146581753E+02 -0.49750260058E+02  0.63040972572E+02  0.00000000000E+00 0. -1.
         11    1    4    4    0    0  0.15975827935E+02 -0.38626076628E+02  0.70978030306E+01  0.42397873552E+02  0.00000000000E+00 0.  1.
</event>
<event>
 8    1  0.4798744E-006  0.9519649E+02  0.7561462E-02  0.1290734E+00
          4   -1    0    0  501    0  0.00000000000E+00  0.00000000000E+00  0.31115940552E+03  0.31115940552E+03  0.00000000000E+00 0. -1.
         -4   -1    0    0    0  501 -0.00000000000E+00 -0.00000000000E+00 -0.39213876967E+02  0.39213876967E+02  0.00000000000E+00 0.  1.
         23    2    1    2    0    0 -0.14188583798E+02 -0.87898726179E+01  0.14741202522E+03  0.19409062283E+03  0.12514905880E+03 0.  0.
         23    2    1    2    0    0  0.14188583798E+02  0.87898726179E+01  0.12453350333E+03  0.15628265966E+03  0.92935991341E+02 0.  0.
          5    1    3    3  502    0  0.43219973178E+02 -0.52856284012E+01  0.12463539899E+03  0.13208845154E+03  0.41800000000E+01 0. -1.
         -5    1    3    3    0  502 -0.57408556976E+02 -0.35042442166E+01  0.22776626226E+02  0.62002171283E+02  0.41800000000E+01 0. -1.
        -11    1    4    4    0    0 -0.27661059346E+02 -0.23364196119E+02  0.26237895907E+02  0.44715176910E+02  0.00000000000E+00 0.  1.
         11    1    4    4    0    0  0.41849643144E+02  0.32154068737E+02  0.98295607427E+02  0.11156748275E+03  0.00000000000E+00 0. -1.
</event>
<event>
 8    1  0.4798744E-006  0.6830265E+02  0.7561462E-02  0.1365962E+00
         -1   -1    0    0    0  501 -0.00000000000E+00  0.00000000000E+00  0.10872957412E+03  0.10872957412E+03  0.00000000000E+00 0.  1.
          1   -1    0    0  501    0  0.00000000000E+00 -0.00000000000E+00 -0.16116184447E+03  0.16116184447E+03  0.00000000000E+00 0. -1.
         23    2    1    2    0    0  0.53619521942E+02  0.10511769861E+02  0.15163327769E+02  0.13734152790E+03  0.12508884178E+03 0.  0.
         23    2    1    2    0    0 -0.53619521942E+02 -0.10511769861E+02 -0.67595598115E+02  0.13254989069E+03  0.10007376379E+03 0.  0.
          5    1    3    3  502    0  0.38815321342E+02 -0.15729202411E+02 -0.50042903460E+02  0.65389613594E+02  0.41800000000E+01 0. -1.
         -5    1    3    3    0  502  0.14804200600E+02  0.26240972272E+02  0.65206231228E+02  0.71951914305E+02  0.41800000000E+01 0. -1.
        -11    1    4    4    0    0 -0.12598959372E+02 -0.18425893663E+02  0.23451098324E+02  0.32375937780E+02  0.00000000000E+00 0.  1.
         11    1    4    4    0    0 -0.41020562570E+02  0.79141238019E+01 -0.91046696440E+02  0.10017395291E+03  0.00000000000E+00 0. -1.
</event>
<event>
 8    1  0.4798744E-006  0.8459483E+02  0.7561462E-02  0.1316495E+00
          1   -1    0    0  501    0  0.00000000000E+00  0.00000000000E+00  0.18848016959E+02  0.18848016959E+02  0.00000000000E+00 0. -1.
         -1   -1    0    0    0  501 -0.00000000000E+00 -0.00000000000E+00 -0.72338446394E+03  0.72338446394E+03  0.00000000000E+00 0.  1.
         23    2    1    2    0    0  0.11144113767E+02  0.37720741720E+02 -0.41471313156E+03  0.43495034291E+03  0.12509106154E+03 0.  0.
         23    2    1    2    0    0 -0.11144113767E+02 -0.37720741720E+02 -0.28982331542E+03  0.30728213799E+03  0.94221613982E+02 0.  0.
          5    1    3    3  502    0  0.48113769579E+01 -0.15927308396E+02 -0.45220824694E+00  0.17161159438E+02  0.41800000000E+01 0.  1.
         -5    1    3    3    0  502  0.63327368089E+01  0.53648050116E+02 -0.41426092331E+03  0.41778918347E+03  0.41800000000E+01 0.  1.
        -11    1    4    4    0    0 -0.50476502628E+02 -0.16171306670E+02 -0.11228151554E+03  0.12416330863E+03  0.00000000000E+00 0.  1.
         11    1    4    4    0    0  0.39332388861E+02 -0.21549435051E+02 -0.17754179987E+03  0.18311882936E+03  0.00000000000E+00 0. -1.
</event>
<event>
 8    1  0.4798744E-006  0.1190985E+03  0.7561462E-02  0.1244592E+00
          1   -1    0    0  501    0  0.00000000000E+00  0.00000000000E+00  0.48307278719E+03  0.48307278719E+03  0.00000000000E+00 0. -1.
         -1   -1    0    0    0  501 -0.00000000000E+00 -0.00000000000E+00 -0.37543567898E+02  0.37543567898E+02  0.00000000000E+00 0.  1.
         23    2    1    2    0    0  0.41520406754E+02  0.46239006590E+02  0.14763900947E+03  0.20323866237E+03  0.12508671735E+03 0.  0.
         23    2    1    2    0    0 -0.41520406754E+02 -0.46239006590E+02  0.29789020982E+03  0.31737769271E+03  0.90155603368E+02 0.  0.
          5    1    3    3  502    0 -0.70509914809E+00  0.76518863394E+02  0.47000173603E+02  0.89900624795E+02  0.41800000000E+01 0. -1.
         -5    1    3    3    0  502  0.42225505902E+02 -0.30279856804E+02  0.10063883587E+03  0.11333803757E+03  0.41800000000E+01 0. -1.
        -11    1    4    4    0    0 -0.62327651676E+02 -0.58332415324E+02  0.22770418921E+03  0.24318018962E+03  0.00000000000E+00 0.  1.
         11    1    4    4    0    0  0.20807244922E+02  0.12093408734E+02  0.70186020610E+02  0.74197503092E+02  0.00000000000E+00 0. -1.
</event>
<event>
 8    1  0.4798744E-006  0.9817181E+02  0.7561462E-02  0.1284188E+00
         -1   -1    0    0    0  501 -0.00000000000E+00  0.00000000000E+00  0.18769657428E+02  0.18769657428E+02  0.00000000000E+00 0.  1.
          1   -1    0    0  501    0  0.00000000000E+00 -0.00000000000E+00 -0.74562567796E+03  0.74562567796E+03  0.00000000000E+00 0. -1.
         23    2    1    2    0    0 -0.44718158363E+01 -0.44721605176E+02 -0.47255338212E+03  0.49089146663E+03  0.12509082279E+03 0.  0.
         23    2    1    2    0    0  0.44718158363E+01  0.44721605176E+02 -0.25430263841E+03  0.27350386876E+03  0.90080604005E+02 0.  0.
          5    1    3    3  502    0  0.38404350780E+02 -0.33641792411E+02 -0.74806416644E+02  0.90664969677E+02  0.41800000000E+01 0.  1.
         -5    1    3    3    0  502 -0.42876166616E+02 -0.11079812765E+02 -0.39774696548E+03  0.40022649695E+03  0.41800000000E+01 0.  1.
        -11    1    4    4    0    0 -0.42433783494E+02  0.27997886053E+02 -0.12487989539E+03  0.13483136088E+03  0.00000000000E+00 0. -1.
         11    1    4    4    0    0  0.46905599331E+02  0.16723719123E+02 -0.12942274303E+03  0.13867250788E+03  0.00000000000E+00 0.  1.
</event>
<event>
 8    1  0.4798744E-006  0.1132903E+03  0.7561462E-02  0.1254595E+00
         -2   -1    0    0    0  501 -0.00000000000E+00  0.00000000000E+00  0.33237426483E+03  0.33237426483E+03  0.00000000000E+00 0.  1.
          2   -1    0    0  501    0  0.00000000000E+00 -0.00000000000E+00 -0.51529657222E+02  0.51529657222E+02  0.00000000000E+00 0. -1.
         23    2    1    2    0    0  0.27795392819E+02  0.50390396904E+02  0.21403872932E+03  0.25450313441E+03  0.12508993490E+03 0.  0.
         23    2    1    2    0    0 -0.27795392819E+02 -0.50390396904E+02  0.66805878292E+02  0.12940078765E+03  0.94708830146E+02 0.  0.
          5    1    3    3  502    0  0.70088279927E+00  0.87730714417E+02  0.16577322627E+03  0.18760438278E+03  0.41800000000E+01 0.  1.
         -5    1    3    3    0  502  0.27094510020E+02 -0.37340317514E+02  0.48265503048E+02  0.66898751631E+02  0.41800000000E+01 0.  1.
        -11    1    4    4    0    0 -0.51287522322E+02 -0.22632111842E+02  0.32209106680E+01  0.56151551162E+02  0.00000000000E+00 0. -1.
         11    1    4    4    0    0  0.23492129503E+02 -0.27758285062E+02  0.63584967624E+02  0.73249236487E+02  0.00000000000E+00 0.  1.
</event>
<event>
 8    1  0.4798744E-006  0.1065320E+03  0.7561462E-02  0.1267130E+00
         -1   -1    0    0    0  501 -0.00000000000E+00  0.00000000000E+00  0.54929603423E+02  0.54929603423E+02  0.00000000000E+00 0.  1.
          1   -1    0    0  501    0  0.00000000000E+00 -0.00000000000E+00 -0.22082713572E+03  0.22082713572E+03  0.00000000000E+00 0. -1.
         23    2    1    2    0    0 -0.11490213628E+02  0.10724016094E+02 -0.91401724829E+02  0.15573538837E+03  0.12510877811E+03 0.  0.
         23    2    1    2    0    0  0.11490213628E+02 -0.10724016094E+02 -0.74495807466E+02  0.12002135077E+03  0.92781839711E+02 0.  0.
          5    1    3    3  502    0 -0.66127127686E+02  0.37165428721E-01 -0.29960591663E+02  0.72718002242E+02  0.41800000000E+01 0.  1.
         -5    1    3    3    0  502  0.54636914058E+02  0.10686850665E+02 -0.61441133167E+02  0.83017386129E+02  0.41800000000E+01 0.  1.
        -11    1    4    4    0    0  0.38891338549E+02  0.24789722360E+02 -0.22390001579E+02  0.51267716153E+02  0.00000000000E+00 0.  1.
         11    1    4    4    0    0 -0.27401124921E+02 -0.35513738454E+02 -0.52105805887E+02  0.68753634617E+02  0.00000000000E+00 0. -1.
</event>
<event>
 8    1  0.4798744E-006  0.1169216E+03  0.7561462E-02  0.1248264E+00
         -3   -1    0    0    0  501 -0.00000000000E+00  0.00000000000E+00  0.26608458106E+02  0.26608458106E+02  0.00000000000E+00 0.  1.
          3   -1    0    0  501    0  0.00000000000E+00 -0.00000000000E+00 -0.72357085640E+03  0.72357085640E+03  0.00000000000E+00 0. -1.
         23    2    1    2    0    0 -0.33846963338E+02  0.58830939889E+02 -0.23832128197E+03  0.27757758190E+03  0.12508230936E+03 0.  0.
         23    2    1    2    0    0  0.33846963338E+02 -0.58830939889E+02 -0.45864111632E+03  0.47260173261E+03  0.91618926373E+02 0.  0.
          5    1    3    3  502    0 -0.50074164943E+02 -0.10302877996E+02 -0.34805052894E+02  0.61987380947E+02  0.41800000000E+01 0. -1.
         -5    1    3    3    0  502  0.16227201605E+02  0.69133817884E+02 -0.20351622908E+03  0.21559020095E+03  0.41800000000E+01 0. -1.
        -11    1    4    4    0    0  0.19544565571E+02 -0.81939002652E+02 -0.38495652605E+03  0.39406537167E+03  0.00000000000E+00 0. -1.
         11    1    4    4    0    0  0.14302397767E+02  0.23108062763E+02 -0.73684590265E+02  0.78536360936E+02  0.00000000000E+00 0.  1.
</event>
<event>
 8    1  0.4798744E-006  0.1223404E+03  0.7561462E-02  0.1239285E+00
          1   -1    0    0  501    0  0.00000000000E+00  0.00000000000E+00  0.53740766823E+02  0.53740766823E+02  0.00000000000E+00 0. -1.
         -1   -1    0    0    0  501 -0.00000000000E+00 -0.00000000000E+00 -0.37141545527E+03  0.37141545527E+03  0.00000000000E+00 0.  1.
         23    2    1    2    0    0  0.70418439102E+02  0.89656342262E+01 -0.25557897868E+03  0.29327486467E+03  0.12510152974E+03 0.  0.
         23    2    1    2    0    0 -0.70418439102E+02 -0.89656342262E+01 -0.62095709767E+02  0.13188135742E+03  0.92182840594E+02 0.  0.
          5    1    3    3  502    0  0.94094589568E+02 -0.28759022894E+02 -0.18798507989E+03  0.21221860391E+03  0.41800000000E+01 0. -1.
         -5    1    3    3    0  502 -0.23676150466E+02  0.37724657120E+02 -0.67593898784E+02  0.81056260760E+02  0.41800000000E+01 0. -1.
        -11    1    4    4    0    0  0.14053580863E+02 -0.95512466085E+01 -0.41628901950E+02  0.44963261942E+02  0.00000000000E+00 0.  1.
         11    1    4    4    0    0 -0.84472019965E+02  0.58561238227E+00 -0.20466807817E+02  0.86918095475E+02  0.00000000000E+00 0. -1.
</event>
<event>
 8    1  0.4798744E-006  0.1582099E+03  0.7561462E-02  0.1190733E+00
         -1   -1    0    0    0  501 -0.00000000000E+00  0.00000000000E+00  0.57143749426E+03  0.57143749426E+03  0.00000000000E+00 0.  1.
          1   -1    0    0  501    0  0.00000000000E+00 -0.00000000000E+00 -0.76006143742E+02  0.76006143742E+02  0.00000000000E+00 0. -1.
         23    2    1    2    0    0  0.45234660805E+02  0.12364350822E+03  0.44266184990E+03  0.47846468230E+03  0.12508016305E+03 0.  0.
         23    2    1    2    0    0 -0.45234660805E+02 -0.12364350822E+03  0.52769500624E+02  0.16897895571E+03  0.91844300922E+02 0.  0.
          5    1    3    3  502    0  0.36673161561E+02  0.14947478086E+03  0.36951997944E+03  0.40031252603E+03  0.41800000000E+01 0. -1.
         -5    1    3    3    0  502  0.85614992438E+01 -0.25831272634E+02  0.73141870451E+02  0.78152156261E+02  0.41800000000E+01 0. -1.
        -11    1    4    4    0    0 -0.31894994898E+02 -0.45005098662E+02 -0.22251107929E+02  0.59479924422E+02  0.00000000000E+00 0. -1.
         11    1    4    4    0    0 -0.13339665907E+02 -0.78638409562E+02  0.75020608553E+02  0.10949903129E+03  0.00000000000E+00 0.  1.
</event>
<event>
 7    1  0.4798744E-006  0.1877525E+03  0.7561462E-02  0.1160504E+00
          1   -1    0    0  501    0  0.00000000000E+00  0.00000000000E+00  0.15244114604E+03  0.15244114604E+03  0.00000000000E+00 0. -1.
         -1   -1    0    0    0  501 -0.00000000000E+00 -0.00000000000E+00 -0.27219723796E+03  0.27219723796E+03  0.00000000000E+00 0.  1.
         23    2    1    2    0    0  0.13040615038E+03  0.23981720317E+02  0.83672852432E+01  0.16146867987E+03  0.91767293477E+02 0.  0.
          5    1    1    2  502    0  0.18685117757E+02 -0.70835535598E+02 -0.45561107386E+02  0.86371833576E+02  0.41800000000E+01 0. -1.
         -5    1    1    2    0  502 -0.14909126813E+03  0.46853815282E+02 -0.82562269781E+02  0.17679787055E+03  0.41800000000E+01 0.  1.
        -11    1    3    3    0    0  0.89171436067E+02 -0.13353427398E+02  0.38688766066E+02  0.98115644284E+02  0.00000000000E+00 0. -1.
         11    1    3    3    0    0  0.41234714310E+02  0.37335147715E+02 -0.30321480823E+02  0.63353035589E+02  0.00000000000E+00 0.  1.
</event>
<event>
 8    1  0.4798744E-006  0.1056891E+03  0.7561462E-02  0.1268768E+00
          1   -1    0    0  501    0  0.00000000000E+00  0.00000000000E+00  0.66819603468E+03  0.66819603468E+03  0.00000000000E+00 0. -1.
         -1   -1    0    0    0  501 -0.00000000000E+00 -0.00000000000E+00 -0.25622280935E+02  0.25622280935E+02  0.00000000000E+00 0.  1.
         23    2    1    2    0    0 -0.22751767258E+02 -0.54696078698E+02  0.23658015283E+03  0.27409438832E+03  0.12509300963E+03 0.  0.
         23    2    1    2    0    0  0.22751767258E+02  0.54696078698E+02  0.40599360092E+03  0.41972392729E+03  0.88476365317E+02 0.  0.
          5    1    3    3  502    0 -0.45734928439E+02 -0.53212070581E+00  0.20839880779E+02  0.50435502007E+02  0.41800000000E+01 0.  1.
         -5    1    3    3    0  502  0.22983161181E+02 -0.54163957992E+02  0.21574027205E+03  0.22365888631E+03  0.41800000000E+01 0.  1.
        -11    1    4    4    0    0  0.56776103685E+02  0.39706766331E+02  0.26745966896E+03  0.27628758163E+03  0.00000000000E+00 0. -1.
         11    1    4    4    0    0 -0.34024336427E+02  0.14989312367E+02  0.13853393195E+03  0.14343634566E+03  0.00000000000E+00 0.  1.
</event>
<event>
 8    1  0.4798744E-006  0.2393570E+03  0.7561462E-02  0.1120222E+00
         -1   -1    0    0    0  501 -0.00000000000E+00  0.00000000000E+00  0.18436021745E+03  0.18436021745E+03  0.00000000000E+00 0.  1.
          1   -1    0    0  501    0  0.00000000000E+00 -0.00000000000E+00 -0.34358455413E+03  0.34358455413E+03  0.00000000000E+00 0. -1.
         23    2    1    2    0    0  0.18654827767E+03 -0.12409644178E+03 -0.44736457869E+02  0.26047892907E+03  0.12509090719E+03 0.  0.
         23    2    1    2    0    0 -0.18654827767E+03  0.12409644178E+03 -0.11448787880E+03  0.26746584251E+03  0.90721087706E+02 0.  0.
          5    1    3    3  502    0  0.91993431410E+01 -0.46111566829E+02  0.26358467961E+02  0.54066123801E+02  0.41800000000E+01 0.  1.
         -5    1    3    3    0  502  0.17734893453E+03 -0.77984874954E+02 -0.71094925830E+02  0.20641280527E+03  0.41800000000E+01 0.  1.
        -11    1    4    4    0    0 -0.91288337514E+02  0.10749895422E+03 -0.43756817702E+02  0.14766260468E+03  0.00000000000E+00 0.  1.
         11    1    4    4    0    0 -0.95259940153E+02  0.16597487561E+02 -0.70731061100E+02  0.11980323784E+03  0.00000000000E+00 0. -1.
</event>
<event>
 8    1  0.4798744E-006  0.1045124E+03  0.7561462E-02  0.1271083E+00
         -2   -1    0    0    0  501 -0.00000000000E+00  0.00000000000E+00  0.19984223270E+03  0.19984223270E+03  0.00000000000E+00 0.  1.
          2   -1    0    0  501    0  0.00000000000E+00 -0.00000000000E+00 -0.11884724089E+03  0.11884724089E+03  0.00000000000E+00 0. -1.
         23    2    1    2    0    0  0.10532181443E+02 -0.65155572474E+02  0.13294156731E+03  0.19410877659E+03  0.12509428988E+03 0.  0.
         23    2    1    2    0    0 -0.10532181443E+02  0.65155572474E+02 -0.51946575500E+02  0.12458069700E+03  0.92009390225E+02 0.  0.
          5    1    3    3  502    0  0.34746086003E+02  0.11886118383E+02  0.10031927316E+03  0.10691117468E+03  0.41800000000E+01 0.  1.
         -5    1    3    3    0  502 -0.24213904560E+02 -0.77041690857E+02  0.32622294147E+02  0.87197601915E+02  0.41800000000E+01 0.  1.
        -11    1    4    4    0    0 -0.37109604933E+02  0.35119793572E+02  0.87434823017E+01  0.51836002561E+02  0.00000000000E+00 0.  1.
         11    1    4    4    0    0  0.26577423490E+02  0.30035778902E+02 -0.60690057802E+02  0.72744694443E+02  0.00000000000E+00 0. -1.
</event>
<event>
 7    1  0.4798744E-006  0.2821738E+03  0.7561462E-02  0.1094508E+00
         -2   -1    0    0    0  501 -0.00000000000E+00  0.00000000000E+00  0.11411541151E+04  0.11411541151E+04  0.00000000000E+00 0.  1.
          2   -1    0    0  501    0  0.00000000000E+00 -0.00000000000E+00 -0.74939743299E+02  0.74939743299E+02  0.00000000000E+00 0. -1.
         23    2    1    2    0    0 -0.25070212961E+03  0.67914382495E+02  0.45016086280E+03  0.52772117128E+03  0.91547316067E+02 0.  0.
          5    1    1    2  502    0  0.26166455023E+03 -0.46761147459E+02  0.46696660669E+03  0.53733623173E+03  0.41800000000E+01 0. -1.
         -5    1    1    2    0  502 -0.10962420624E+02 -0.21153235037E+02  0.14908690229E+03  0.15103645537E+03  0.41800000000E+01 0.  1.
        -11    1    3    3    0    0 -0.68782677386E+02  0.61524830596E+02  0.12991184216E+03  0.15935321842E+03  0.00000000000E+00 0. -1.
         11    1    3    3    0    0 -0.18191945222E+03  0.63895518990E+01  0.32024902064E+03  0.36836795286E+03  0.00000000000E+00 0.  1.
</event>
<event>
 8    1  0.4798744E-006  0.1074350E+03  0.7561462E-02  0.1265395E+00
         -2   -1    0    0    0  501 -0.00000000000E+00  0.00000000000E+00  0.12039505154E+03  0.12039505154E+03  0.00000000000E+00 0.  1.
          2   -1    0    0  501    0  0.00000000000E+00 -0.00000000000E+00 -0.13660355363E+03  0.13660355363E+03  0.00000000000E+00 0. -1.
         23    2    1    2    0    0 -0.14769132958E+02  0.11139045375E+01  0.59945314328E+02  0.13755961591E+03  0.12292208569E+03 0.  0.
         23    2    1    2    0    0  0.14769132958E+02 -0.11139045375E+01 -0.76153816420E+02  0.11943898926E+03  0.90812445884E+02 0.  0.
          5    1    3    3  502    0  0.25615241134E+02 -0.51171568089E+02  0.32077488621E+02  0.65735132428E+02  0.41800000000E+01 0. -1.
         -5    1    3    3    0  502 -0.40384374092E+02  0.52285472627E+02  0.27867825706E+02  0.71824483487E+02  0.41800000000E+01 0.  1.
        -11    1    4    4    0    0 -0.91932719112E+00 -0.44835029766E+02 -0.29976666472E+02  0.53940945388E+02  0.00000000000E+00 0. -1.
         11    1    4    4    0    0  0.15688460149E+02  0.43721125229E+02 -0.46177149948E+02  0.65498043867E+02  0.00000000000E+00 0.  1.
</event>
<event>
 8    1  0.4798744E-006  0.8551263E+02  0.7561462E-02  0.1314097E+00
         -2   -1    0    0    0  501 -0.00000000000E+00  0.00000000000E+00  0.41008224820E+02  0.41008224820E+02  0.00000000000E+00 0.  1.
          2   -1    0    0  501    0  0.00000000000E+00 -0.00000000000E+00 -0.35313810946E+03  0.35313810946E+03  0.00000000000E+00 0. -1.
         23    2    1    2    0    0  0.55247294539E+02 -0.38785645638E+01 -0.14716587692E+03  0.20093302129E+03  0.12509587083E+03 0.  0.
         23    2    1    2    0    0 -0.55247294539E+02  0.38785645638E+01 -0.16496400773E+03  0.19321331299E+03  0.83969956870E+02 0.  0.
          5    1    3    3  502    0  0.70585474287E+02 -0.70782766776E+01 -0.16327883173E+03  0.17807262696E+03  0.41800000000E+01 0.  1.
         -5    1    3    3    0  502 -0.15338179747E+02  0.31997121137E+01  0.16112954820E+02  0.22860394323E+02  0.41800000000E+01 0.  1.
        -11    1    4    4    0    0 -0.56588776082E+00 -0.22867360911E+02 -0.69921545818E+01  0.23919169084E+02  0.00000000000E+00 0.  1.
         11    1    4    4    0    0 -0.54681406778E+02  0.26745925475E+02 -0.15797185314E+03  0.16929414391E+03  0.00000000000E+00 0. -1.
</event>
<event>
 8    1  0.4798744E-006  0.1559539E+03  0.7561462E-02  0.1193342E+00
         -2   -1    0    0    0  501 -0.00000000000E+00  0.00000000000E+00  0.21726488816E+03  0.21726488816E+03  0.00000000000E+00 0.  1.
          2   -1    0    0  501    0  0.00000000000E+00 -0.00000000000E+00 -0.13141866770E+03  0.13141866770E+03  0.00000000000E+00 0. -1.
         23    2    1    2    0    0 -0.26699839231E+02 -0.12309694585E+03  0.76328384912E+02  0.19323171853E+03  0.12508691062E+03 0.  0.
         23    2    1    2    0    0  0.26699839231E+02  0.12309694585E+03  0.95178355504E+01  0.15545183734E+03  0.90603228667E+02 0.  0.
          5    1    3    3  502    0  0.40192849936E+02 -0.69458680152E+02  0.31336337128E+01  0.80419310459E+02  0.41800000000E+01 0. -1.
         -5    1    3    3    0  502 -0.66892689167E+02 -0.53638265702E+02  0.73194751199E+02  0.11281240807E+03  0.41800000000E+01 0. -1.
        -11    1    4    4    0    0 -0.23470464350E+02  0.64094877485E+02  0.31164463820E+02  0.75034924014E+02  0.00000000000E+00 0.  1.
         11    1    4    4    0    0  0.50170303581E+02  0.59002068368E+02 -0.21646628269E+02  0.80416913324E+02  0.00000000000E+00 0. -1.
</event>
<event>
 8    1  0.4798744E-006  0.1637221E+03  0.7561462E-02  0.1184557E+00
         -2   -1    0    0    0  501 -0.00000000000E+00  0.00000000000E+00  0.52182782016E+02  0.52182782016E+02  0.00000000000E+00 0.  1.
          2   -1    0    0  501    0  0.00000000000E+00 -0.00000000000E+00 -0.69054625032E+03  0.69054625032E+03  0.00000000000E+00 0. -1.
         23    2    1    2    0    0  0.20823124697E+02 -0.14838953326E+03 -0.25499415109E+03  0.32112544935E+03  0.12508589459E+03 0.  0.
         23    2    1    2    0    0 -0.20823124697E+02  0.14838953326E+03 -0.38336931721E+03  0.42160358298E+03  0.91238652449E+02 0.  0.
          5    1    3    3  502    0 -0.69170883520E+01 -0.20331901167E+02 -0.15424490557E+03  0.15578894572E+03  0.41800000000E+01 0. -1.
         -5    1    3    3    0  502  0.27740213049E+02 -0.12805763210E+03 -0.10074924552E+03  0.16533650363E+03  0.41800000000E+01 0. -1.
        -11    1    4    4    0    0 -0.48346999257E+02  0.40327217119E+02 -0.11770960395E+03  0.13348882965E+03  0.00000000000E+00 0.  1.
         11    1    4    4    0    0  0.27523874560E+02  0.10806231614E+03 -0.26565971326E+03  0.28811475334E+03  0.00000000000E+00 0. -1.
</event>
<event>
 8    1  0.4798744E-006  0.9545071E+02  0.7561462E-02  0.1290164E+00
          3   -1    0    0  501    0  0.00000000000E+00  0.00000000000E+00  0.78421815397E+02  0.78421815397E+02  0.00000000000E+00 0. -1.
         -3   -1    0    0    0  501 -0.00000000000E+00 -0.00000000000E+00 -0.17769488861E+03  0.17769488861E+03  0.00000000000E+00 0.  1.
         23    2    1    2    0    0 -0.48806223680E+02 -0.20665527904E+02 -0.77864755451E+02  0.15658639767E+03  0.12508904141E+03 0.  0.
         23    2    1    2    0    0  0.48806223680E+02  0.20665527904E+02 -0.21408317763E+02  0.99530306337E+02  0.81479164800E+02 0.  0.
          5    1    3    3  502    0 -0.66997730387E+02 -0.59465074003E+02 -0.67655512203E+02  0.11233668873E+03  0.41800000000E+01 0. -1.
         -5    1    3    3    0  502  0.18191506707E+02  0.38799546099E+02 -0.10209243248E+02  0.44249708942E+02  0.41800000000E+01 0. -1.
        -11    1    4    4    0    0  0.37928759420E+02  0.38280583280E+01  0.27280062393E+02  0.46876930636E+02  0.00000000000E+00 0. -1.
         11    1    4    4    0    0  0.10877464261E+02  0.16837469576E+02 -0.48688380156E+02  0.52653375701E+02  0.00000000000E+00 0.  1.
</event>
<event>
 8    1  0.4798744E-006  0.1294013E+03  0.7561462E-02  0.1228347E+00
         -2   -1    0    0    0  501 -0.00000000000E+00  0.00000000000E+00  0.29714447695E+03  0.29714447695E+03  0.00000000000E+00 0.  1.
          2   -1    0    0  501    0  0.00000000000E+00 -0.00000000000E+00 -0.29350854150E+03  0.29350854150E+03  0.00000000000E+00 0. -1.
         23    2    1    2    0    0 -0.89695833131E+02 -0.31331965289E+02  0.25863479147E+03  0.30259845972E+03  0.12508732123E+03 0.  0.
         23    2    1    2    0    0  0.89695833131E+02  0.31331965289E+02 -0.25499885602E+03  0.28805455873E+03  0.94466807419E+02 0.  0.
          5    1    3    3  502    0  0.19395068544E+02 -0.34842634830E+01 -0.37250275738E+00  0.20147454781E+02  0.41800000000E+01 0. -1.
         -5    1    3    3    0  502 -0.10909090167E+03 -0.27847701806E+02  0.25900729423E+03  0.28245100493E+03  0.41800000000E+01 0. -1.
        -11    1    4    4    0    0  0.89720559694E+02 -0.48105529200E+01 -0.13067699390E+03  0.15858561406E+03  0.00000000000E+00 0.  1.
         11    1    4    4    0    0 -0.24726562880E-01  0.36142518209E+02 -0.12432186212E+03  0.12946894467E+03  0.00000000000E+00 0. -1.
</event>
<event>
 8    1  0.4798744E-006  0.1603989E+03  0.7561462E-02  0.1188247E+00
         -3   -1    0    0    0  501 -0.00000000000E+00  0.00000000000E+00  0.31722845305E+03  0.31722845305E+03  0.00000000000E+00 0.  1.
          3   -1    0    0  501    0  0.00000000000E+00 -0.00000000000E+00 -0.10890937191E+03  0.10890937191E+03  0.00000000000E+00 0. -1.
         23    2    1    2    0    0 -0.13780891457E+03  0.21457297576E+02  0.17865252395E+03  0.25891264753E+03  0.12516917426E+03 0.  0.
         23    2    1    2    0    0  0.13780891457E+03 -0.21457297576E+02  0.29666557186E+02  0.16722517743E+03  0.87363852919E+02 0.  0.
          5    1    3    3  502    0 -0.98011311094E+02  0.61523757122E+02  0.67158305302E+02  0.13386224323E+03  0.41800000000E+01 0. -1.
         -5    1    3    3    0  502 -0.39797603476E+02 -0.40066459546E+02  0.11149421865E+03  0.12505040430E+03  0.41800000000E+01 0. -1.
        -11    1    4    4    0    0  0.80072616365E+01 -0.16659148213E+02 -0.20844530212E+02  0.27859251567E+02  0.00000000000E+00 0. -1.
         11    1    4    4    0    0  0.12980165293E+03 -0.47981493638E+01  0.50511087398E+02  0.13936592586E+03  0.00000000000E+00 0.  1.
</event>
<event>
 8    1  0.4798744E-006  0.8743957E+02  0.7561462E-02  0.1309173E+00
         -2   -1    0    0    0  501 -0.00000000000E+00  0.00000000000E+00  0.17533554213E+03  0.17533554213E+03  0.00000000000E+00 0.  1.
          2   -1    0    0  501    0  0.00000000000E+00 -0.00000000000E+00 -0.82152923024E+02  0.82152923024E+02  0.00000000000E+00 0. -1.
         23    2    1    2    0    0 -0.10848767221E+02 -0.51683221043E+02  0.54935040198E+02  0.14646644779E+03  0.12508281497E+03 0.  0.
         23    2    1    2    0    0  0.10848767221E+02  0.51683221043E+02  0.38247578911E+02  0.11102201737E+03  0.89856329547E+02 0.  0.
          5    1    3    3  502    0  0.14675718695E+02  0.31529493680E+00 -0.35697343976E+02  0.38823303531E+02  0.41800000000E+01 0. -1.
         -5    1    3    3    0  502 -0.25524485916E+02 -0.51998515980E+02  0.90632384174E+02  0.10764314426E+03  0.41800000000E+01 0. -1.
        -11    1    4    4    0    0 -0.37692508845E+02  0.30890353157E+02  0.30905363900E+02  0.57706851058E+02  0.00000000000E+00 0. -1.
         11    1    4    4    0    0  0.48541276067E+02  0.20792867887E+02  0.73422150111E+01  0.53315166307E+02  0.00000000000E+00 0.  1.
</event>
<event>
 8    1  0.4798744E-006  0.1313231E+03  0.7561462E-02  0.1225506E+00
          1   -1    0    0  501    0  0.00000000000E+00  0.00000000000E+00  0.88225063281E+03  0.88225063281E+03  0.00000000000E+00 0. -1.
         -1   -1    0    0    0  501 -0.00000000000E+00 -0.00000000000E+00 -0.20091681243E+02  0.20091681243E+02  0.00000000000E+00 0.  1.
         23    2    1    2    0    0 -0.74931044789E+02 -0.18306005654E+02  0.47739374638E+03  0.49952386139E+03  0.12517798409E+03 0.  0.
         23    2    1    2    0    0  0.74931044789E+02  0.18306005654E+02  0.38476520519E+03  0.40281845266E+03  0.90932235024E+02 0.  0.
          5    1    3    3  502    0  0.20537108009E+02 -0.43065318484E+02  0.17425317988E+03  0.18071534954E+03  0.41800000000E+01 0. -1.
         -5    1    3    3    0  502 -0.95468152798E+02  0.24759312829E+02  0.30314056650E+03  0.31880851185E+03  0.41800000000E+01 0. -1.
        -11    1    4    4    0    0 -0.46860075684E+00  0.38083627525E+02  0.17350373249E+03  0.17763481489E+03  0.00000000000E+00 0.  1.
         11    1    4    4    0    0  0.75399645546E+02 -0.19777621871E+02  0.21126147269E+03  0.22518363777E+03  0.00000000000E+00 0. -1.
</event>
<event>
 8    1  0.4798744E-006  0.1394841E+03  0.7561462E-02  0.1214025E+00
          3   -1    0    0  501    0  0.00000000000E+00  0.00000000000E+00  0.57424630514E+03  0.57424630514E+03  0.00000000000E+00 0. -1.
         -3   -1    0    0    0  501 -0.00000000000E+00 -0.00000000000E+00 -0.41656104804E+02  0.41656104804E+02  0.00000000000E+00 0.  1.
         23    2    1    2    0    0 -0.10472979778E+03 -0.37872463230E+02  0.28144397717E+03  0.32750714170E+03  0.12509021370E+03 0.  0.
         23    2    1    2    0    0  0.10472979778E+03  0.37872463230E+02  0.25114622317E+03  0.28839526825E+03  0.87719731647E+02 0.  0.
          5    1    3    3  502    0  0.16970657885E+02 -0.41952295973E+02  0.83621084052E+02  0.95173297014E+02  0.41800000000E+01 0. -1.
         -5    1    3    3    0  502 -0.12170045567E+03  0.40798327434E+01  0.19782289312E+03  0.23233384469E+03  0.41800000000E+01 0. -1.
        -11    1    4    4    0    0  0.59475626935E+02  0.17091070957E+02  0.45510296265E+02  0.76815636246E+02  0.00000000000E+00 0.  1.
         11    1    4    4    0    0  0.45254170849E+02  0.20781392273E+02  0.20563592691E+03  0.21157963200E+03  0.00000000000E+00 0. -1.
</event>
<event>
 8    1  0.4798744E-006  0.1469232E+03  0.7561462E-02  0.1204306E+00
         -1   -1    0    0    0  501 -0.00000000000E+00  0.00000000000E+00  0.32885647091E+03  0.32885647091E+03  0.00000000000E+00 0.  1.
          1   -1    0    0  501    0  0.00000000000E+00 -0.00000000000E+00 -0.11862669479E+03  0.11862669479E+03  0.00000000000E+00 0. -1.
         23    2    1    2    0    0 -0.30758823754E+02 -0.13523086114E+03  0.23050741757E+03  0.29667231388E+03  0.12508917309E+03 0.  0.
         23    2    1    2    0    0  0.30758823754E+02  0.13523086114E+03 -0.20277641447E+02  0.15081085182E+03  0.55670811404E+02 0.  0.
          5    1    3    3  502    0 -0.52521765005E+02 -0.10642159746E+03  0.23164347081E+03  0.26030801404E+03  0.41800000000E+01 0.  1.
         -5    1    3    3    0  502  0.21762941251E+02 -0.28809263678E+02 -0.11360532418E+01  0.36364299836E+02  0.41800000000E+01 0.  1.
        -11    1    4    4    0    0  0.48806942072E+01  0.29304667016E+02  0.18594657451E+02  0.35047766984E+02  0.00000000000E+00 0.  1.
         11    1    4    4    0    0  0.25878129546E+02  0.10592619412E+03 -0.38872298898E+02  0.11576308484E+03  0.00000000000E+00 0. -1.
</event>
<event>
 8    1  0.4798744E-006  0.1541062E+03  0.7561462E-02  0.1195516E+00
         -1   -1    0    0    0  501 -0.00000000000E+00  0.00000000000E+00  0.48059641747E+02  0.48059641747E+02  0.00000000000E+00 0.  1.
          1   -1    0    0  501    0  0.00000000000E+00 -0.00000000000E+00 -0.57878650479E+03  0.57878650479E+03  0.00000000000E+00 0. -1.
         23    2    1    2    0    0 -0.81667756404E+02 -0.87362491362E+02 -0.35770310890E+03  0.39736534890E+03  0.12508348835E+03 0.  0.
         23    2    1    2    0    0  0.81667756404E+02  0.87362491362E+02 -0.17302375414E+03  0.22948079763E+03  0.91773578181E+02 0.  0.
          5    1    3    3  502    0 -0.11235273581E+03 -0.78133639820E+02 -0.25146833285E+03  0.28632463698E+03  0.41800000000E+01 0.  1.
         -5    1    3    3    0  502  0.30684979403E+02 -0.92288515417E+01 -0.10623477606E+03  0.11104071193E+03  0.41800000000E+01 0.  1.
        -11    1    4    4    0    0  0.82255489607E+02  0.98218209344E+02 -0.17647559590E+03  0.21807434092E+03  0.00000000000E+00 0. -1.
         11    1    4    4    0    0 -0.58773320279E+00 -0.10855717982E+02  0.34518417635E+01  0.11406456715E+02  0.00000000000E+00 0.  1.
</event>
<event>
 8    1  0.4798744E-006  0.1150280E+03  0.7561462E-02  0.1251532E+00
         -3   -1    0    0    0  501 -0.00000000000E+00  0.00000000000E+00  0.20014591664E+03  0.20014591664E+03  0.00000000000E+00 0.  1.
          3   -1    0    0  501    0  0.00000000000E+00 -0.00000000000E+00 -0.76620977195E+02  0.76620977195E+02  0.00000000000E+00 0. -1.
         23    2    1    2    0    0 -0.22970063794E+02 -0.40972477009E+02  0.10360217070E+03  0.16907568075E+03  0.12508720297E+03 0.  0.
         23    2    1    2    0    0  0.22970063794E+02  0.40972477009E+02  0.19922768743E+02  0.10769121308E+03  0.94837297288E+02 0.  0.
          5    1    3    3  502    0 -0.49953703990E+02 -0.72066609364E+02  0.89476914971E+02  0.12534974847E+03  0.41800000000E+01 0. -1.
         -5    1    3    3    0  502  0.26983640197E+02  0.31094132355E+02  0.14125255730E+02  0.43725932290E+02  0.41800000000E+01 0. -1.
        -11    1    4    4    0    0  0.29554409312E+02 -0.22456606654E+02  0.23311430081E+02  0.43831325152E+02  0.00000000000E+00 0. -1.
         11    1    4    4    0    0 -0.65843455188E+01  0.63429083663E+02 -0.33886613374E+01  0.63859887926E+02  0.00000000000E+00 0.  1.
</event>
<event>
 8    1  0.4798744E-006  0.1335630E+03  0.7561462E-02  0.1222263E+00
          2   -1    0    0  501    0  0.00000000000E+00  0.00000000000E+00  0.47469296537E+02  0.47469296537E+02  0.00000000000E+00 0. -1.
         -2   -1    0    0    0  501 -0.00000000000E+00 -0.00000000000E+00 -0.50890332568E+03  0.50890332568E+03  0.00000000000E+00 0.  1.
         23    2    1    2    0    0 -0.97076735828E+02  0.48914520908E+02 -0.28195661830E+03  0.32705305526E+03  0.12509054065E+03 0.  0.
         23    2    1    2    0    0  0.97076735828E+02 -0.48914520908E+02 -0.17947741084E+03  0.22931956696E+03  0.92513781624E+02 0.  0.
          5    1    3    3  502    0  0.15074395498E+02  0.42025246230E+02 -0.13344403299E+03  0.14077691949E+03  0.41800000000E+01 0.  1.
         -5    1    3    3    0  502 -0.11215113133E+03  0.68892746780E+01 -0.14851258531E+03  0.18627613577E+03  0.41800000000E+01 0.  1.
        -11    1    4    4    0    0  0.20578819396E+02 -0.34819022310E+01 -0.12114574999E+03  0.12293048520E+03  0.00000000000E+00 0.  1.
         11    1    4    4    0    0  0.76497916431E+02 -0.45432618677E+02 -0.58331660850E+02  0.10638908175E+03  0.00000000000E+00 0. -1.
</event>
<event>
 8    1  0.4798744E-006  0.1023334E+03  0.7561462E-02  0.1275464E+00
         -2   -1    0    0    0  501 -0.00000000000E+00  0.00000000000E+00  0.25880495445E+03  0.25880495445E+03  0.00000000000E+00 0.  1.
          2   -1    0    0  501    0  0.00000000000E+00 -0.00000000000E+00 -0.51098284484E+02  0.51098284484E+02  0.00000000000E+00 0. -1.
         23    2    1    2    0    0 -0.12039450362E+01  0.29999023920E+02  0.15838210629E+03  0.20404432921E+03  0.12509118981E+03 0.  0.
         23    2    1    2    0    0  0.12039450362E+01 -0.29999023920E+02  0.49324563672E+02  0.10585890972E+03  0.88723194635E+02 0.  0.
          5    1    3    3  502    0 -0.26539930815E+02 -0.39091872369E+02  0.30355861492E+02  0.56316011399E+02  0.41800000000E+01 0. -1.
         -5    1    3    3    0  502  0.25335985779E+02  0.69090896289E+02  0.12802624480E+03  0.14772831781E+03  0.41800000000E+01 0. -1.
        -11    1    4    4    0    0 -0.17296690907E+02 -0.51986665471E+02  0.53788365111E+02  0.76778754382E+02  0.00000000000E+00 0.  1.
         11    1    4    4    0    0  0.18500635943E+02  0.21987641551E+02 -0.44638014392E+01  0.29080155339E+02  0.00000000000E+00 0. -1.
</event>
<event>
 8    1  0.4798744E-006  0.1971566E+03  0.7561462E-02  0.1152160E+00
          2   -1    0    0  501    0  0.00000000000E+00  0.00000000000E+00  0.13955733301E+04  0.13955733301E+04  0.00000000000E+00 0.  1.
         -2   -1    0    0    0  501 -0.00000000000E+00 -0.00000000000E+00 -0.31470172826E+02  0.31470172826E+02  0.00000000000E+00 0. -1.
         23    2    1    2    0    0  0.16978091785E+03  0.43385622684E+02  0.83542416656E+03  0.86272174079E+03  0.12508953454E+03 0.  0.
         23    2    1    2    0    0 -0.16978091785E+03 -0.43385622684E+02  0.52867899075E+03  0.56432176216E+03  0.90827879363E+02 0.  0.
          5    1    3    3  502    0  0.15249269848E+03 -0.81220868037E+01  0.70518394807E+03  0.72154131164E+03  0.41800000000E+01 0. -1.
         -5    1    3    3    0  502  0.17288219373E+02  0.51507709487E+02  0.13024021848E+03  0.14118042915E+03  0.41800000000E+01 0. -1.
        -11    1    4    4    0    0 -0.86716942390E+02  0.11528693278E+02  0.33886908307E+03  0.34997856266E+03  0.00000000000E+00 0.  1.
         11    1    4    4    0    0 -0.83063975460E+02 -0.54914315962E+02  0.18980990768E+03  0.21434319949E+03  0.00000000000E+00 0. -1.
</event>
<event>
 7    1  0.4798744E-006  0.6018111E+02  0.7561462E-02  0.1397073E+00
          1   -1    0    0  501    0  0.00000000000E+00  0.00000000000E+00  0.33422043558E+03  0.33422043558E+03  0.00000000000E+00 0. -1.
         -1   -1    0    0    0  501 -0.00000000000E+00 -0.00000000000E+00 -0.43695779324E+02  0.43695779324E+02  0.00000000000E+00 0.  1.
         23    2    1    2    0    0 -0.30718073263E+02 -0.15960472916E+02  0.15451667623E+03  0.18288752127E+03  0.91510138683E+02 0.  0.
          5    1    1    2  502    0  0.63172596376E+01  0.12654340088E+02  0.15983272783E+03  0.16051172349E+03  0.41800000000E+01 0. -1.
         -5    1    1    2    0  502  0.24400813625E+02  0.33061328272E+01 -0.23824747805E+02  0.34516970143E+02  0.41800000000E+01 0.  1.
        -11    1    3    3    0    0 -0.97950907971E+01  0.29236059940E+02  0.14108529473E+02  0.33907839926E+02  0.00000000000E+00 0. -1.
         11    1    3    3    0    0 -0.20922982466E+02 -0.45196532855E+02  0.14040814675E+03  0.14897968134E+03  0.00000000000E+00 0.  1.
</event>
<event>
 8    1  0.4798744E-006  0.1047555E+03  0.7561462E-02  0.1270602E+00
          2   -1    0    0  501    0  0.00000000000E+00  0.00000000000E+00  0.31247172631E+03  0.31247172631E+03  0.00000000000E+00 0. -1.
         -2   -1    0    0    0  501 -0.00000000000E+00 -0.00000000000E+00 -0.41946847300E+02  0.41946847300E+02  0.00000000000E+00 0.  1.
         23    2    1    2    0    0 -0.14653388567E+02 -0.28901633942E+02  0.12735598091E+03  0.18143017375E+03  0.12508931142E+03 0.  0.
         23    2    1    2    0    0  0.14653388567E+02  0.28901633942E+02  0.14316889809E+03  0.17298839986E+03  0.91529377049E+02 0.  0.
          5    1    3    3  502    0  0.47317857223E+02 -0.31082522496E+02  0.25776263481E+02  0.62345737432E+02  0.41800000000E+01 0. -1.
         -5    1    3    3    0  502 -0.61971245790E+02  0.21808885532E+01  0.10157971743E+03  0.11908443632E+03  0.41800000000E+01 0. -1.
        -11    1    4    4    0    0 -0.28227377976E+02 -0.12605122248E+02  0.22072765121E+02  0.37985272598E+02  0.00000000000E+00 0.  1.
         11    1    4    4    0    0  0.42880766543E+02  0.41506756191E+02  0.12109613297E+03  0.13500312726E+03  0.00000000000E+00 0. -1.
</event>
<event>
 7    1  0.4798744E-006  0.1181907E+03  0.7561462E-02  0.1246112E+00
         -1   -1    0    0    0  501 -0.00000000000E+00  0.00000000000E+00  0.35720197571E+03  0.35720197571E+03  0.00000000000E+00 0.  1.
          1   -1    0    0  501    0  0.00000000000E+00 -0.00000000000E+00 -0.89668924991E+02  0.89668924991E+02  0.00000000000E+00 0. -1.
         23    2    1    2    0    0  0.18086458675E+02  0.29004285233E+02 -0.37841863448E+02  0.10436933122E+03  0.91063615796E+02 0.  0.
          5    1    1    2  502    0  0.52409252793E+02  0.32113084016E+02  0.11568446356E+03  0.13106619492E+03  0.41800000000E+01 0. -1.
         -5    1    1    2    0  502 -0.70495711468E+02 -0.61117369249E+02  0.18969045061E+03  0.21143537455E+03  0.41800000000E+01 0.  1.
        -11    1    3    3    0    0  0.97207669109E+01 -0.24952216784E+02 -0.41781061786E+02  0.49626238581E+02  0.00000000000E+00 0. -1.
         11    1    3    3    0    0  0.83656917637E+01  0.53956502017E+02  0.39391983378E+01  0.54743092643E+02  0.00000000000E+00 0.  1.
</event>
<event>
 8    1  0.4798744E-006  0.8519192E+02  0.7561462E-02  0.1314931E+00
         -1   -1    0    0    0  501 -0.00000000000E+00  0.00000000000E+00  0.61198999410E+02  0.61198999410E+02  0.00000000000E+00 0. -1.
          1   -1    0    0  501    0  0.00000000000E+00 -0.00000000000E+00 -0.22379859947E+03  0.22379859947E+03  0.00000000000E+00 0.  1.
         23    2    1    2    0    0  0.21169375131E+02 -0.34693089187E+02 -0.65793769647E+02  0.14707127914E+03  0.12509751453E+03 0.  0.
         23    2    1    2    0    0 -0.21169375131E+02  0.34693089187E+02 -0.96805830414E+02  0.13792631974E+03  0.89445782430E+02 0.  0.
          5    1    3    3  502    0 -0.45099222966E+02 -0.43148307714E+02 -0.44717714563E+02  0.76895141371E+02  0.41800000000E+01 0.  1.
         -5    1    3    3    0  502  0.66268598097E+02  0.84552185266E+01 -0.21076055084E+02  0.70176137768E+02  0.41800000000E+01 0.  1.
        -11    1    4    4    0    0 -0.16777427986E+02  0.23555390040E+02 -0.11364386982E+03  0.11726579910E+03  0.00000000000E+00 0.  1.
         11    1    4    4    0    0 -0.43919471446E+01  0.11137699148E+02  0.16838039410E+02  0.20660520642E+02  0.00000000000E+00 0. -1.
</event>
<event>
 7    1  0.4798744E-006  0.1209032E+03  0.7561462E-02  0.1241615E+00
         -1   -1    0    0    0  501 -0.00000000000E+00  0.00000000000E+00  0.75420107074E+02  0.75420107074E+02  0.00000000000E+00 0.  1.
          1   -1    0    0  501    0  0.00000000000E+00 -0.00000000000E+00 -0.42115454116E+03  0.42115454116E+03  0.00000000000E+00 0. -1.
         23    2    1    2    0    0 -0.24692964647E+02 -0.90418334539E+02 -0.26161889728E+03  0.29301295980E+03  0.92881265476E+02 0.  0.
          5    1    1    2  502    0  0.29743022729E+02 -0.55824770608E+01 -0.10130757468E+03  0.10581355555E+03  0.41800000000E+01 0. -1.
         -5    1    1    2    0  502 -0.50500580825E+01  0.96000811600E+02  0.17192037873E+02  0.97748132875E+02  0.41800000000E+01 0.  1.
        -11    1    3    3    0    0  0.17911954309E+02 -0.60175177524E+02 -0.21146616439E+03  0.22058972954E+03  0.00000000000E+00 0.  1.
         11    1    3    3    0    0 -0.42604918956E+02 -0.30243157015E+02 -0.50152732885E+02  0.72423230260E+02  0.00000000000E+00 0. -1.
</event>
<event>
 8    1  0.4798744E-006  0.2015033E+03  0.7561462E-02  0.1148477E+00
         -1   -1    0    0    0  501 -0.00000000000E+00  0.00000000000E+00  0.37481139602E+03  0.37481139602E+03  0.00000000000E+00 0.  1.
          1   -1    0    0  501    0  0.00000000000E+00 -0.00000000000E+00 -0.12261028409E+03  0.12261028409E+03  0.00000000000E+00 0. -1.
         23    2    1    2    0    0  0.17070886549E+03 -0.10600588773E+02  0.17506688197E+03  0.27486296791E+03  0.12508936294E+03 0.  0.
         23    2    1    2    0    0 -0.17070886549E+03  0.10600588773E+02  0.77134229950E+02  0.22255871220E+03  0.11970297284E+03 0.  0.
          5    1    3    3  502    0  0.37757803575E+02 -0.47560534161E+02  0.10169648898E+03  0.11852132471E+03  0.41800000000E+01 0.  1.
         -5    1    3    3    0  502  0.13295106192E+03  0.36959945388E+02  0.73370392995E+02  0.15634164320E+03  0.41800000000E+01 0.  1.
        -11    1    4    4    0    0 -0.12062209714E+03  0.59133736709E+02  0.27942540750E+02  0.13721251663E+03  0.00000000000E+00 0. -1.
         11    1    4    4    0    0 -0.50086768350E+02 -0.48533147936E+02  0.49191689199E+02  0.85346195572E+02  0.00000000000E+00 0.  1.
</event>
<event>
 8    1  0.4798744E-006  0.1199178E+03  0.7561462E-02  0.1243233E+00
         -1   -1    0    0    0  501 -0.00000000000E+00  0.00000000000E+00  0.49115783991E+02  0.49115783991E+02  0.00000000000E+00 0.  1.
          1   -1    0    0  501    0  0.00000000000E+00 -0.00000000000E+00 -0.32116139254E+03  0.32116139254E+03  0.00000000000E+00 0. -1.
         23    2    1    2    0    0 -0.45078858836E+02  0.40254704678E+02 -0.12137504028E+03  0.18447557963E+03  0.12508714688E+03 0.  0.
         23    2    1    2    0    0  0.45078858836E+02 -0.40254704678E+02 -0.15067056826E+03  0.18580159690E+03  0.90377367218E+02 0.  0.
          5    1    3    3  502    0  0.34111520352E+02 -0.15735613841E+02 -0.15553071576E+02  0.40872677905E+02  0.41800000000E+01 0.  1.
         -5    1    3    3    0  502 -0.79190379188E+02  0.55990318519E+02 -0.10582196870E+03  0.14360290173E+03  0.41800000000E+01 0.  1.
        -11    1    4    4    0    0  0.67425577152E+02 -0.11265141804E+02 -0.73416473867E+02  0.10031495656E+03  0.00000000000E+00 0.  1.
         11    1    4    4    0    0 -0.22346718316E+02 -0.28989562873E+02 -0.77254094397E+02  0.85486640337E+02  0.00000000000E+00 0. -1.
</event>
<event>
 8    1  0.4798744E-006  0.1567247E+03  0.7561462E-02  0.1192445E+00
          1   -1    0    0  501    0  0.00000000000E+00  0.00000000000E+00  0.71200584116E+03  0.71200584116E+03  0.00000000000E+00 0. -1.
         -1   -1    0    0    0  501 -0.00000000000E+00 -0.00000000000E+00 -0.42019106845E+02  0.42019106845E+02  0.00000000000E+00 0.  1.
         23    2    1    2    0    0  0.12996657932E+03  0.16138105571E+02  0.28632562713E+03  0.33878672033E+03  0.12506928850E+03 0.  0.
         23    2    1    2    0    0 -0.12996657932E+03 -0.16138105571E+02  0.38366110718E+03  0.41523822768E+03  0.89862063026E+02 0.  0.
          5    1    3    3  502    0  0.15222012605E+03 -0.81171360782E+00  0.25031970048E+03  0.29300008618E+03  0.41800000000E+01 0. -1.
         -5    1    3    3    0  502 -0.22253546730E+02  0.16949819179E+02  0.36005926654E+02  0.45786634147E+02  0.41800000000E+01 0. -1.
        -11    1    4    4    0    0 -0.28889222149E+02 -0.13209162357E+02  0.19443719857E+02  0.37244158850E+02  0.00000000000E+00 0.  1.
         11    1    4    4    0    0 -0.10107735717E+03 -0.29289432140E+01  0.36421738732E+03  0.37799406883E+03  0.00000000000E+00 0. -1.
</event>
<event>
 8    1  0.4798744E-006  0.1875675E+03  0.7561462E-02  0.1160674E+00
          2   -1    0    0  501    0  0.00000000000E+00  0.00000000000E+00  0.11933212052E+03  0.11933212052E+03  0.00000000000E+00 0. -1.
         -2   -1    0    0    0  501 -0.00000000000E+00 -0.00000000000E+00 -0.34779994902E+03  0.34779994902E+03  0.00000000000E+00 0.  1.
         23    2    1    2    0    0 -0.15508963612E+03 -0.27774446931E+02 -0.19804178204E+03  0.28229841542E+03  0.12509049836E+03 0.  0.
         23    2    1    2    0    0  0.15508963612E+03  0.27774446931E+02 -0.30426046463E+02  0.18483365412E+03  0.91725243287E+02 0.  0.
          5    1    3    3  502    0 -0.15051082668E+03  0.18687028091E+02 -0.13074175180E+03  0.20028377875E+03  0.41800000000E+01 0.  1.
         -5    1    3    3    0  502 -0.45788094373E+01 -0.46461475022E+02 -0.67300030239E+02  0.82014636665E+02  0.41800000000E+01 0.  1.
        -11    1    4    4    0    0  0.98949505343E+02 -0.22163256771E+02 -0.40169878791E+02  0.10906802336E+03  0.00000000000E+00 0.  1.
         11    1    4    4    0    0  0.56140130777E+02  0.49937703703E+02  0.97438323283E+01  0.75765630752E+02  0.00000000000E+00 0. -1.
</event>
<event>
 8    1  0.4798744E-006  0.9892192E+02  0.7561462E-02  0.1282579E+00
          1   -1    0    0  501    0  0.00000000000E+00  0.00000000000E+00  0.45968130712E+03  0.45968130712E+03  0.00000000000E+00 0. -1.
         -1   -1    0    0    0  501 -0.00000000000E+00 -0.00000000000E+00 -0.27296099992E+02  0.27296099992E+02  0.00000000000E+00 0.  1.
         23    2    1    2    0    0  0.11986185584E+02 -0.26574994091E+02  0.22333395580E+03  0.25763407907E+03  0.12508942372E+03 0.  0.
         23    2    1    2    0    0 -0.11986185584E+02  0.26574994091E+02  0.20905125133E+03  0.22934332805E+03  0.89699707257E+02 0.  0.
          5    1    3    3  502    0 -0.26908807701E+02  0.29438672003E+02  0.23584074472E+02  0.46523115866E+02  0.41800000000E+01 0. -1.
         -5    1    3    3    0  502  0.38894993285E+02 -0.56013666094E+02  0.19974988133E+03  0.21111096320E+03  0.41800000000E+01 0. -1.
        -11    1    4    4    0    0 -0.46761537526E+02  0.28200339872E+02  0.89660722991E+02  0.10498069255E+03  0.00000000000E+00 0. -1.
         11    1    4    4    0    0  0.34775351941E+02 -0.16253457806E+01  0.11939052834E+03  0.12436263550E+03  0.00000000000E+00 0.  1.
</event>
<event>
 8    1  0.4798744E-006  0.1371892E+03  0.7561462E-02  0.1217162E+00
          2   -1    0    0  501    0  0.00000000000E+00  0.00000000000E+00  0.82627711898E+02  0.82627711898E+02  0.00000000000E+00 0. -1.
         -2   -1    0    0    0  501 -0.00000000000E+00 -0.00000000000E+00 -0.24832134726E+03  0.24832134726E+03  0.00000000000E+00 0.  1.
         23    2    1    2    0    0 -0.87729188738E+02 -0.75263737845E+01 -0.12210620416E+03  0.19572868899E+03  0.12508692074E+03 0.  0.
         23    2    1    2    0    0  0.87729188738E+02  0.75263737845E+01 -0.43587431204E+02  0.13522037017E+03  0.92906552460E+02 0.  0.
          5    1    3    3  502    0 -0.13923613357E+02 -0.57466924125E+02 -0.72513606033E+02  0.93659008308E+02  0.41800000000E+01 0. -1.
         -5    1    3    3    0  502 -0.73805575382E+02  0.49940550340E+02 -0.49592598122E+02  0.10206968068E+03  0.41800000000E+01 0. -1.
        -11    1    4    4    0    0  0.65038926104E+02  0.47079056381E+02 -0.39380583936E+02  0.89427791260E+02  0.00000000000E+00 0.  1.
         11    1    4    4    0    0  0.22690262634E+02 -0.39552682597E+02 -0.42068472688E+01  0.45792578907E+02  0.00000000000E+00 0. -1.
</event>
<event>
 8    1  0.4798744E-006  0.9897447E+02  0.7561462E-02  0.1282467E+00
         -4   -1    0    0    0  501 -0.00000000000E+00  0.00000000000E+00  0.75575365996E+03  0.75575365996E+03  0.00000000000E+00 0.  1.
          4   -1    0    0  501    0  0.00000000000E+00 -0.00000000000E+00 -0.20853151004E+02  0.20853151004E+02  0.00000000000E+00 0. -1.
         23    2    1    2    0    0  0.23474233421E+02 -0.33254452410E+02  0.53091987804E+03  0.54697388047E+03  0.12509041041E+03 0.  0.
         23    2    1    2    0    0 -0.23474233421E+02  0.33254452410E+02  0.20398063091E+03  0.22963293049E+03  0.97294844360E+02 0.  0.
          5    1    3    3  502    0  0.47783876619E+02  0.23235339106E+02  0.11799791677E+03  0.12947648671E+03  0.41800000000E+01 0. -1.
         -5    1    3    3    0  502 -0.24309643198E+02 -0.56489791515E+02  0.41292196127E+03  0.41749739376E+03  0.41800000000E+01 0. -1.
        -11    1    4    4    0    0 -0.48783147087E+02  0.30546118481E+02  0.58962775645E+02  0.82398238486E+02  0.00000000000E+00 0. -1.
         11    1    4    4    0    0  0.25308913666E+02  0.27083339287E+01  0.14501785526E+03  0.14723469200E+03  0.00000000000E+00 0.  1.
</event>
<event>
 8    1  0.7364142E-006  0.3881431E+03  0.7561462E-02  0.1047964E+00
         -2   -1    0    0    0  501 -0.00000000000E+00  0.00000000000E+00  0.65009612971E+02  0.65009612971E+02  0.00000000000E+00 0.  1.
          2   -1    0    0  501    0  0.00000000000E+00 -0.00000000000E+00 -0.25139303408E+04  0.25139303408E+04  0.00000000000E+00 0. -1.
         23    2    1    2    0    0 -0.35200035781E+03 -0.14085500254E+03 -0.95935670542E+03  0.10391131198E+04  0.12508558585E+03 0.  0.
         23    2    1    2    0    0  0.35200035781E+03  0.14085500254E+03 -0.14895640225E+04  0.15398268341E+04  0.92310986619E+02 0.  0.
          5    1    3    3  502    0 -0.10915595752E+03 -0.84247961318E+02 -0.22888429531E+03  0.26724190369E+03  0.41800000000E+01 0. -1.
         -5    1    3    3    0  502 -0.24284440029E+03 -0.56607041220E+02 -0.73047241011E+03  0.77187121607E+03  0.41800000000E+01 0. -1.
        -11    1    4    4    0    0  0.28365345700E+03  0.14849829751E+03 -0.12704562876E+04  0.13101794559E+04  0.00000000000E+00 0. -1.
         11    1    4    4    0    0  0.68346900811E+02 -0.76432949735E+01 -0.21910773486E+03  0.22964737813E+03  0.00000000000E+00 0.  1.
</event>
<event>
 8    1  0.4798744E-006  0.1019905E+03  0.7561462E-02  0.1276165E+00
         -3   -1    0    0    0  501 -0.00000000000E+00  0.00000000000E+00  0.10055229558E+03  0.10055229558E+03  0.00000000000E+00 0.  1.
          3   -1    0    0  501    0  0.00000000000E+00 -0.00000000000E+00 -0.13110564813E+03  0.13110564813E+03  0.00000000000E+00 0. -1.
         23    2    1    2    0    0  0.57290829661E+01  0.27629604539E+01  0.19096730830E+02  0.12670045766E+03  0.12509142457E+03 0.  0.
         23    2    1    2    0    0 -0.57290829661E+01 -0.27629604539E+01 -0.49650083383E+02  0.10495748605E+03  0.92252299456E+02 0.  0.
          5    1    3    3  502    0 -0.31560074244E+02  0.51163641848E+02 -0.59119987001E+01  0.60548993898E+02  0.41800000000E+01 0.  1.
         -5    1    3    3    0  502  0.37289157210E+02 -0.48400681394E+02  0.25008729530E+02  0.66151463760E+02  0.41800000000E+01 0.  1.
        -11    1    4    4    0    0  0.45585020242E+01  0.39103051891E+02 -0.22012712835E+00  0.39368478049E+02  0.00000000000E+00 0.  1.
         11    1    4    4    0    0 -0.10287584990E+02 -0.41866012345E+02 -0.49429956255E+02  0.65589007996E+02  0.00000000000E+00 0. -1.
</event>
<event>
 8    1  0.4798744E-006  0.2712539E+03  0.7561462E-02  0.1100564E+00
          2   -1    0    0  501    0  0.00000000000E+00  0.00000000000E+00  0.11910575163E+04  0.11910575163E+04  0.00000000000E+00 0. -1.
         -2   -1    0    0    0  501 -0.00000000000E+00 -0.00000000000E+00 -0.79477781540E+02  0.79477781540E+02  0.00000000000E+00 0.  1.
         23    2    1    2    0    0 -0.25594387188E+03 -0.72078312595E+02  0.33966026870E+03  0.44913026170E+03  0.12508535140E+03 0.  0.
         23    2    1    2    0    0  0.25594387188E+03  0.72078312595E+02  0.77191946607E+03  0.82140503616E+03  0.90244238743E+02 0.  0.
          5    1    3    3  502    0 -0.68615593030E+02 -0.94671379771E+01  0.18071329168E+02  0.71706147897E+02  0.41800000000E+01 0.  1.
         -5    1    3    3    0  502 -0.18732827885E+03 -0.62611174618E+02  0.32158893954E+03  0.37742411380E+03  0.41800000000E+01 0.  1.
        -11    1    4    4    0    0  0.63967946042E+02 -0.13489904232E+02  0.25828705734E+03  0.26643212949E+03  0.00000000000E+00 0.  1.
         11    1    4    4    0    0  0.19197592584E+03  0.85568216827E+02  0.51363240873E+03  0.55497290666E+03  0.00000000000E+00 0. -1.
</event>
<event>
 8    1  0.4798744E-006  0.9114321E+02  0.7561462E-02  0.1300107E+00
         -3   -1    0    0    0  501 -0.00000000000E+00  0.00000000000E+00  0.36801055195E+03  0.36801055195E+03  0.00000000000E+00 0.  1.
          3   -1    0    0  501    0  0.00000000000E+00 -0.00000000000E+00 -0.50028607946E+02  0.50028607946E+02  0.00000000000E+00 0. -1.
         23    2    1    2    0    0  0.77015007139E+02 -0.60693622174E+01  0.21646298412E+03  0.26167188381E+03  0.12509117794E+03 0.  0.
         23    2    1    2    0    0 -0.77015007139E+02  0.60693622174E+01  0.10151895989E+03  0.15636727609E+03  0.90423875903E+02 0.  0.
          5    1    3    3  502    0  0.58456305572E+02  0.99334111870E+01  0.22701329989E+03  0.23466640801E+03  0.41800000000E+01 0.  1.
         -5    1    3    3    0  502  0.18558701567E+02 -0.16002773404E+02 -0.10550315770E+02  0.27005475803E+02  0.41800000000E+01 0.  1.
        -11    1    4    4    0    0 -0.46983699237E+01  0.23197318282E+02  0.73041714895E+02  0.76780742183E+02  0.00000000000E+00 0.  1.
         11    1    4    4    0    0 -0.72316637215E+02 -0.17127956065E+02  0.28477244991E+02  0.79586533907E+02  0.00000000000E+00 0. -1.
</event>
<event>
 8    1  0.4798744E-006  0.7985828E+02  0.7561462E-02  0.1329454E+00
         -2   -1    0    0    0  501 -0.00000000000E+00  0.00000000000E+00  0.57107999601E+02  0.57107999601E+02  0.00000000000E+00 0.  1.
          2   -1    0    0  501    0  0.00000000000E+00 -0.00000000000E+00 -0.19540386218E+03  0.19540386218E+03  0.00000000000E+00 0. -1.
         23    2    1    2    0    0 -0.14712677405E+02  0.25211590808E+02 -0.85854760848E+02  0.14579038370E+03  0.11415651024E+03 0.  0.
         23    2    1    2    0    0  0.14712677405E+02 -0.25211590808E+02 -0.52441101733E+02  0.10672147809E+03  0.88245779199E+02 0.  0.
          5    1    3    3  502    0 -0.73781632349E+01  0.49161509655E+02 -0.10348090202E+03  0.11487846102E+03  0.41800000000E+01 0. -1.
         -5    1    3    3    0  502 -0.73345141697E+01 -0.23949918847E+02  0.17626141171E+02  0.30911922675E+02  0.41800000000E+01 0.  1.
        -11    1    4    4    0    0  0.28638747096E+02 -0.49066311860E+02 -0.12520015025E+02  0.58175867600E+02  0.00000000000E+00 0.  1.
         11    1    4    4    0    0 -0.13926069691E+02  0.23854721052E+02 -0.39921086708E+02  0.48545610486E+02  0.00000000000E+00 0. -1.
</event>
<event>
 8    1  0.4798744E-006  0.1710841E+03  0.7561462E-02  0.1176722E+00
         -3   -1    0    0    0  501 -0.00000000000E+00  0.00000000000E+00  0.17130804751E+03  0.17130804751E+03  0.00000000000E+00 0.  1.
          3   -1    0    0  501    0  0.00000000000E+00 -0.00000000000E+00 -0.19088846016E+03  0.19088846016E+03  0.00000000000E+00 0. -1.
         23    2    1    2    0    0  0.20492913681E+02 -0.13701342988E+03  0.35163593164E+02  0.18993714971E+03  0.12508798134E+03 0.  0.
         23    2    1    2    0    0 -0.20492913681E+02  0.13701342988E+03 -0.54744005817E+02  0.17225935797E+03  0.86508616660E+02 0.  0.
          5    1    3    3  502    0 -0.27524078891E+02 -0.12656228518E+03  0.49273798421E+02  0.13863970051E+03  0.41800000000E+01 0.  1.
         -5    1    3    3    0  502  0.48016992572E+02 -0.10451144700E+02 -0.14110205257E+02  0.51297449192E+02  0.41800000000E+01 0.  1.
        -11    1    4    4    0    0 -0.50614974876E+02  0.49856601584E+02 -0.26283654636E+02  0.75752141252E+02  0.00000000000E+00 0.  1.
         11    1    4    4    0    0  0.30122061195E+02  0.87156828294E+02 -0.28460351181E+02  0.96507216715E+02  0.00000000000E+00 0. -1.
</event>
<event>
 8    1  0.4798744E-006  0.7947887E+02  0.7561462E-02  0.1330537E+00
         -2   -1    0    0    0  501 -0.00000000000E+00  0.00000000000E+00  0.31954352468E+02  0.31954352468E+02  0.00000000000E+00 0. -1.
          2   -1    0    0  501    0  0.00000000000E+00 -0.00000000000E+00 -0.39004088334E+03  0.39004088334E+03  0.00000000000E+00 0.  1.
         23    2    1    2    0    0  0.66440282918E+01 -0.14514709160E+02 -0.17055749818E+03  0.21210388140E+03  0.12507348410E+03 0.  0.
         23    2    1    2    0    0 -0.66440282918E+01  0.14514709160E+02 -0.18752903269E+03  0.20989135441E+03  0.92910831766E+02 0.  0.
          5    1    3    3  502    0  0.28396993045E+02 -0.26957345076E+02  0.28942944710E+00  0.39378215259E+02  0.41800000000E+01 0.  1.
         -5    1    3    3    0  502 -0.21752964753E+02  0.12442635915E+02 -0.17084692763E+03  0.17272566614E+03  0.41800000000E+01 0.  1.
        -11    1    4    4    0    0  0.43138067202E+02  0.92101289414E+01 -0.92622296540E+02  0.10258951766E+03  0.00000000000E+00 0.  1.
         11    1    4    4    0    0 -0.49782095494E+02  0.53045802190E+01 -0.94906736151E+02  0.10730183675E+03  0.00000000000E+00 0. -1.
</event>
<event>
 8    1  0.4798744E-006  0.1070619E+03  0.7561462E-02  0.1266110E+00
          1   -1    0    0  501    0  0.00000000000E+00  0.00000000000E+00  0.68702460379E+02  0.68702460379E+02  0.00000000000E+00 0. -1.
         -1   -1    0    0    0  501 -0.00000000000E+00 -0.00000000000E+00 -0.26607369106E+03  0.26607369106E+03  0.00000000000E+00 0.  1.
         23    2    1    2    0    0 -0.45664455189E+02  0.65474414196E+02 -0.11430140399E+03  0.18729881572E+03  0.12507555330E+03 0.  0.
         23    2    1    2    0    0  0.45664455189E+02 -0.65474414196E+02 -0.83069826697E+02  0.14747733572E+03  0.92069685904E+02 0.  0.
          5    1    3    3  502    0 -0.64786253401E+00  0.65656854143E+02 -0.12462376014E+03  0.14092478920E+03  0.41800000000E+01 0.  1.
         -5    1    3    3    0  502 -0.45016592655E+02 -0.18243994720E+00  0.10322356151E+02  0.46374026514E+02  0.41800000000E+01 0.  1.
        -11    1    4    4    0    0  0.53800797063E+02 -0.20752950965E+02 -0.84146466000E+02  0.10200901175E+03  0.00000000000E+00 0.  1.
         11    1    4    4    0    0 -0.81363418736E+01 -0.44721463230E+02  0.10766393029E+01  0.45468323971E+02  0.00000000000E+00 0. -1.
</event>
<event>
 8    1  0.4798744E-006  0.2066227E+03  0.7561462E-02  0.1144269E+00
         -1   -1    0    0    0  501 -0.00000000000E+00  0.00000000000E+00  0.10244548067E+04  0.10244548067E+04  0.00000000000E+00 0.  1.
          1   -1    0    0  501    0  0.00000000000E+00 -0.00000000000E+00 -0.46282649273E+02  0.46282649273E+02  0.00000000000E+00 0. -1.
         23    2    1    2    0    0 -0.11691283598E+03  0.13594420989E+03  0.65005090040E+03  0.68583045954E+03  0.12509119357E+03 0.  0.
         23    2    1    2    0    0  0.11691283598E+03 -0.13594420989E+03  0.32812125703E+03  0.38490699643E+03  0.91325774942E+02 0.  0.
          5    1    3    3  502    0 -0.28357169552E+02  0.12436015804E+03  0.42215847154E+03  0.44102701217E+03  0.41800000000E+01 0.  1.
         -5    1    3    3    0  502 -0.88555666429E+02  0.11584051849E+02  0.22789242886E+03  0.24480344738E+03  0.41800000000E+01 0.  1.
        -11    1    4    4    0    0  0.59072741392E+02 -0.13203102953E+02  0.64741641951E+02  0.88630643153E+02  0.00000000000E+00 0.  1.
         11    1    4    4    0    0  0.57840094589E+02 -0.12274110693E+03  0.26337961508E+03  0.29627635328E+03  0.00000000000E+00 0. -1.
</event>
<event>
 8    1  0.4798744E-006  0.1042886E+03  0.7561462E-02  0.1271528E+00
          2   -1    0    0  501    0  0.00000000000E+00  0.00000000000E+00  0.14148184535E+03  0.14148184535E+03  0.00000000000E+00 0. -1.
         -2   -1    0    0    0  501 -0.00000000000E+00 -0.00000000000E+00 -0.11791169643E+03  0.11791169643E+03  0.00000000000E+00 0.  1.
         23    2    1    2    0    0 -0.65388860918E+02  0.62560665276E+01 -0.17502230398E+02  0.13155892499E+03  0.11263472456E+03 0.  0.
         23    2    1    2    0    0  0.65388860918E+02 -0.62560665276E+01  0.41072379319E+02  0.12783461679E+03  0.10168533526E+03 0.  0.
          5    1    3    3  502    0  0.15864450908E+02 -0.49762465295E+01  0.31540289909E+02  0.35898553169E+02  0.41800000000E+01 0. -1.
         -5    1    3    3    0  502 -0.81253311826E+02  0.11232313057E+02 -0.49042520307E+02  0.95660371823E+02  0.41800000000E+01 0.  1.
        -11    1    4    4    0    0  0.71298444026E+02  0.26464025140E+02  0.52793657739E+02  0.92579603826E+02  0.00000000000E+00 0. -1.
         11    1    4    4    0    0 -0.59095831086E+01 -0.32720091667E+02 -0.11721278420E+02  0.35255012963E+02  0.00000000000E+00 0.  1.
</event>
<event>
 8    1  0.5767752E-006  0.2713037E+03  0.7561462E-02  0.1100536E+00
          2   -1    0    0  501    0  0.00000000000E+00  0.00000000000E+00  0.84164316264E+03  0.84164316264E+03  0.00000000000E+00 0. -1.
         -2   -1    0    0    0  501 -0.00000000000E+00 -0.00000000000E+00 -0.98171160438E+02  0.98171160438E+02  0.00000000000E+00 0.  1.
         23    2    1    2    0    0  0.30438696112E+02 -0.26427972235E+03  0.34474514654E+03  0.45306350316E+03  0.12508811278E+03 0.  0.
         23    2    1    2    0    0 -0.30438696112E+02  0.26427972235E+03  0.39872685565E+03  0.48675081992E+03  0.84693384669E+02 0.  0.
          5    1    3    3  502    0  0.43351189475E+02 -0.22763271080E+03  0.20995045040E+03  0.31271814894E+03  0.41800000000E+01 0. -1.
         -5    1    3    3    0  502 -0.12912493363E+02 -0.36647011551E+02  0.13479469615E+03  0.14034535422E+03  0.41800000000E+01 0. -1.
        -11    1    4    4    0    0  0.16339210786E+02  0.79063966788E+02  0.71500616366E+02  0.10784441939E+03  0.00000000000E+00 0.  1.
         11    1    4    4    0    0 -0.46777906898E+02  0.18521575556E+03  0.32722623929E+03  0.37890640053E+03  0.00000000000E+00 0. -1.
</event>
<event>
 8    1  0.4798744E-006  0.9776908E+02  0.7561462E-02  0.1285058E+00
          2   -1    0    0  501    0  0.00000000000E+00  0.00000000000E+00  0.29642100472E+03  0.29642100472E+03  0.00000000000E+00 0. -1.
         -2   -1    0    0    0  501 -0.00000000000E+00 -0.00000000000E+00 -0.40866895109E+02  0.40866895109E+02  0.00000000000E+00 0.  1.
         23    2    1    2    0    0  0.23743658950E+02  0.82319385536E+01  0.13464835788E+03  0.18549547255E+03  0.12508742504E+03 0.  0.
         23    2    1    2    0    0 -0.23743658950E+02 -0.82319385536E+01  0.12090575173E+03  0.15179242728E+03  0.88267853860E+02 0.  0.
          5    1    3    3  502    0  0.44952467505E+02 -0.33868464687E+02  0.12506409082E+03  0.13720895178E+03  0.41800000000E+01 0.  1.
         -5    1    3    3    0  502 -0.21208808555E+02  0.42100403241E+02  0.95842670592E+01  0.48286520774E+02  0.41800000000E+01 0.  1.
        -11    1    4    4    0    0 -0.54551193281E+02 -0.20962135699E+02  0.76601140170E+02  0.96348214808E+02  0.00000000000E+00 0. -1.
         11    1    4    4    0    0  0.30807534331E+02  0.12730197146E+02  0.44304611564E+02  0.55444212473E+02  0.00000000000E+00 0.  1.
</event>
<event>
 8    1  0.4798744E-006  0.1197229E+03  0.7561462E-02  0.1243555E+00
         -3   -1    0    0    0  501 -0.00000000000E+00  0.00000000000E+00  0.28582818708E+02  0.28582818708E+02  0.00000000000E+00 0.  1.
          3   -1    0    0  501    0  0.00000000000E+00 -0.00000000000E+00 -0.57904999141E+03  0.57904999141E+03  0.00000000000E+00 0. -1.
         23    2    1    2    0    0  0.49829304276E+02 -0.46036745081E+02 -0.29233120155E+03  0.32512685531E+03  0.12509036407E+03 0.  0.
         23    2    1    2    0    0 -0.49829304276E+02  0.46036745081E+02 -0.25813597115E+03  0.28250595481E+03  0.92591000833E+02 0.  0.
          5    1    3    3  502    0  0.13215656846E+02  0.34556756596E+02 -0.28732192250E+02  0.47030142289E+02  0.41800000000E+01 0. -1.
         -5    1    3    3    0  502  0.36613647430E+02 -0.80593501677E+02 -0.26359900930E+03  0.27809671302E+03  0.41800000000E+01 0. -1.
        -11    1    4    4    0    0 -0.43880265317E+02 -0.19335455295E+02 -0.89332731287E+02  0.10138872913E+03  0.00000000000E+00 0. -1.
         11    1    4    4    0    0 -0.59490389586E+01  0.65372200376E+02 -0.16880323987E+03  0.18111722568E+03  0.00000000000E+00 0.  1.
</event>
<event>
 8    1  0.4798744E-006  0.1064511E+03  0.7561462E-02  0.1267287E+00
         -2   -1    0    0    0  501 -0.00000000000E+00  0.00000000000E+00  0.20739830865E+02  0.20739830865E+02  0.00000000000E+00 0.  1.
          2   -1    0    0  501    0  0.00000000000E+00 -0.00000000000E+00 -0.60457278998E+03  0.60457278998E+03  0.00000000000E+00 0. -1.
         23    2    1    2    0    0 -0.34393682924E+02  0.18652283135E+02 -0.33987875168E+03  0.36427358570E+03  0.12508735469E+03 0.  0.
         23    2    1    2    0    0  0.34393682924E+02 -0.18652283135E+02 -0.24395420743E+03  0.26103903514E+03  0.84243038009E+02 0.  0.
          5    1    3    3  502    0 -0.22118967854E+02  0.67892285002E+02 -0.13075529620E+03  0.14904036697E+03  0.41800000000E+01 0.  1.
         -5    1    3    3    0  502 -0.12274715069E+02 -0.49240001866E+02 -0.20912345548E+03  0.21523321873E+03  0.41800000000E+01 0.  1.
        -11    1    4    4    0    0 -0.60441500210E+01  0.28042160940E+02 -0.51958834763E+02  0.59351622131E+02  0.00000000000E+00 0.  1.
         11    1    4    4    0    0  0.40437832945E+02 -0.46694444075E+02 -0.19199537267E+03  0.20168741301E+03  0.00000000000E+00 0. -1.
</event>
<event>
 8    1  0.4798744E-006  0.1084038E+03  0.7561462E-02  0.1263555E+00
         -2   -1    0    0    0  501 -0.00000000000E+00  0.00000000000E+00  0.10537664746E+03  0.10537664746E+03  0.00000000000E+00 0.  1.
          2   -1    0    0  501    0  0.00000000000E+00 -0.00000000000E+00 -0.16451205165E+03  0.16451205165E+03  0.00000000000E+00 0. -1.
         23    2    1    2    0    0  0.50141880802E+02 -0.43951996487E+02  0.13341711689E+01  0.14174449600E+03  0.12507492126E+03 0.  0.
         23    2    1    2    0    0 -0.50141880802E+02  0.43951996487E+02 -0.60469575355E+02  0.12814420311E+03  0.91205159069E+02 0.  0.
          5    1    3    3  502    0  0.82679639156E+02 -0.13126398587E+02  0.29249158665E+02  0.88776183481E+02  0.41800000000E+01 0.  1.
         -5    1    3    3    0  502 -0.32537758354E+02 -0.30825597900E+02 -0.27914987496E+02  0.52968312523E+02  0.41800000000E+01 0.  1.
        -11    1    4    4    0    0 -0.53337228183E+02  0.10490801115E+02  0.49604875595E+01  0.54585009436E+02  0.00000000000E+00 0.  1.
         11    1    4    4    0    0  0.31953473813E+01  0.33461195372E+02 -0.65430062915E+02  0.73559193672E+02  0.00000000000E+00 0. -1.
</event>
<event>
 8    1  0.4798744E-006  0.1098196E+03  0.7561462E-02  0.1260904E+00
          1   -1    0    0  501    0  0.00000000000E+00  0.00000000000E+00  0.66372549377E+02  0.66372549377E+02  0.00000000000E+00 0. -1.
         -1   -1    0    0    0  501 -0.00000000000E+00 -0.00000000000E+00 -0.23181018816E+03  0.23181018816E+03  0.00000000000E+00 0.  1.
         23    2    1    2    0    0 -0.53686750288E+02 -0.57385518142E+01 -0.13048151468E+03  0.18865177005E+03  0.12509542973E+03 0.  0.
         23    2    1    2    0    0  0.53686750288E+02  0.57385518142E+01 -0.34956124104E+02  0.10953096748E+03  0.88656100137E+02 0.  0.
          5    1    3    3  502    0 -0.30402359044E+02 -0.55825602438E+02 -0.11445140222E+03  0.13098624811E+03  0.41800000000E+01 0.  1.
         -5    1    3    3    0  502 -0.23284391244E+02  0.50087050624E+02 -0.16030112452E+02  0.57665521944E+02  0.41800000000E+01 0.  1.
        -11    1    4    4    0    0  0.52608882335E+02 -0.32794792883E+02 -0.80337331070E+01  0.62511869341E+02  0.00000000000E+00 0. -1.
         11    1    4    4    0    0  0.10778679524E+01  0.38533344698E+02 -0.26922390997E+02  0.47019098140E+02  0.00000000000E+00 0.  1.
</event>
<event>
 7    1  0.4798744E-006  0.8411010E+02  0.7561462E-02  0.1317776E+00
         -4   -1    0    0    0  501 -0.00000000000E+00  0.00000000000E+00  0.21502832023E+03  0.21502832023E+03  0.00000000000E+00 0.  1.
          4   -1    0    0  501    0  0.00000000000E+00 -0.00000000000E+00 -0.61474686859E+02  0.61474686859E+02  0.00000000000E+00 0. -1.
         23    2    1    2    0    0  0.44105345803E+02 -0.32276970167E+02  0.15664183577E+03  0.20242163262E+03  0.11597744741E+03 0.  0.
          5    1    3    3  502    0 -0.28317430745E+02 -0.22048040050E+02  0.10949207771E+03  0.11529952487E+03  0.41800000000E+01 0. -1.
         -5    1    3    3    0  502  0.72422776548E+02 -0.10228930116E+02  0.47149758064E+02  0.87122107755E+02  0.41800000000E+01 0.  1.
        -11    1    1    2    0    0 -0.27226287215E+02  0.31907825029E+02  0.19191897081E+02  0.46127095369E+02  0.00000000000E+00 0.  1.
         11    1    1    2    0    0 -0.16879058588E+02  0.36914513719E+00 -0.22280099482E+02  0.27954279097E+02  0.00000000000E+00 0. -1.
</event>
<event>
 8    1  0.4798744E-006  0.1030717E+03  0.7561462E-02  0.1273966E+00
         -2   -1    0    0    0  501 -0.00000000000E+00  0.00000000000E+00  0.27955881453E+02  0.27955881453E+02  0.00000000000E+00 0.  1.
          2   -1    0    0  501    0  0.00000000000E+00 -0.00000000000E+00 -0.65071575083E+03  0.65071575083E+03  0.00000000000E+00 0. -1.
         23    2    1    2    0    0  0.73082332212E+02 -0.28343639094E+02 -0.28873384022E+03  0.32428268161E+03  0.12509051900E+03 0.  0.
         23    2    1    2    0    0 -0.73082332212E+02  0.28343639094E+02 -0.33402602916E+03  0.35438895068E+03  0.88734159427E+02 0.  0.
          5    1    3    3  502    0  0.35554518933E+02  0.86489000942E+01 -0.26286331504E+03  0.26543082354E+03  0.41800000000E+01 0.  1.
         -5    1    3    3    0  502  0.37527813280E+02 -0.36992539189E+02 -0.25870525181E+02  0.58851858070E+02  0.41800000000E+01 0.  1.
        -11    1    4    4    0    0  0.12673665057E+02 -0.15595570543E+02 -0.85672505003E+02  0.87997850656E+02  0.00000000000E+00 0. -1.
         11    1    4    4    0    0 -0.85755997269E+02  0.43939209637E+02 -0.24835352415E+03  0.26639110002E+03  0.00000000000E+00 0.  1.
</event>
<event>
 8    1  0.6358611E-006  0.1114917E+03  0.7561462E-02  0.1257832E+00
          2   -1    0    0  501    0  0.00000000000E+00  0.00000000000E+00  0.82262610598E+02  0.82262610598E+02  0.00000000000E+00 0. -1.
         -2   -1    0    0    0  501 -0.00000000000E+00 -0.00000000000E+00 -0.23955540330E+03  0.23955540330E+03  0.00000000000E+00 0.  1.
         23    2    1    2    0    0  0.50313223618E+02 -0.69981165591E+02 -0.94060601431E+02  0.17867211359E+03  0.12509014120E+03 0.  0.
         23    2    1    2    0    0 -0.50313223618E+02  0.69981165591E+02 -0.63232191273E+02  0.14314590031E+03  0.95203228689E+02 0.  0.
          5    1    3    3  502    0 -0.63400844093E+01  0.11680287123E+02  0.21858576938E+02  0.25920948349E+02  0.41800000000E+01 0. -1.
         -5    1    3    3    0  502  0.56653308028E+02 -0.81661452714E+02 -0.11591917837E+03  0.15275116524E+03  0.41800000000E+01 0. -1.
        -11    1    4    4    0    0 -0.21277411510E+02  0.76846754253E+02 -0.77038436636E+01  0.80109307118E+02  0.00000000000E+00 0.  1.
         11    1    4    4    0    0 -0.29035812108E+02 -0.68655886616E+01 -0.55528347609E+02  0.63036593187E+02  0.00000000000E+00 0. -1.
</event>
<event>
 8    1  0.4798744E-006  0.6509740E+02  0.7561462E-02  0.1377606E+00
          1   -1    0    0  501    0  0.00000000000E+00  0.00000000000E+00  0.14725516847E+03  0.14725516847E+03  0.00000000000E+00 0.  1.
         -1   -1    0    0    0  501 -0.00000000000E+00 -0.00000000000E+00 -0.94652770323E+02  0.94652770323E+02  0.00000000000E+00 0. -1.
         23    2    1    2    0    0  0.34945827861E-01 -0.10285062988E+02 -0.14100714585E+02  0.12630787281E+03  0.12509622232E+03 0.  0.
         23    2    1    2    0    0 -0.34945827861E-01  0.10285062988E+02  0.66703112734E+02  0.11560006599E+03  0.93852470754E+02 0.  0.
          5    1    3    3  502    0 -0.25533006002E+02  0.33482823575E+02 -0.48911583599E+02  0.64674950949E+02  0.41800000000E+01 0. -1.
         -5    1    3    3    0  502  0.25567951830E+02 -0.43767886563E+02  0.34810869015E+02  0.61632921856E+02  0.41800000000E+01 0. -1.
        -11    1    4    4    0    0  0.76447749030E+01  0.21843409757E+02  0.87549848638E+02  0.90556905478E+02  0.00000000000E+00 0.  1.
         11    1    4    4    0    0 -0.76797207309E+01 -0.11558346769E+02 -0.20846735905E+02  0.25043160512E+02  0.00000000000E+00 0. -1.
</event>
<event>
 8    1  0.4798744E-006  0.1168959E+03  0.7561462E-02  0.1248308E+00
         -1   -1    0    0    0  501 -0.00000000000E+00  0.00000000000E+00  0.27481234480E+03  0.27481234480E+03  0.00000000000E+00 0.  1.
          1   -1    0    0  501    0  0.00000000000E+00 -0.00000000000E+00 -0.75871445737E+02  0.75871445737E+02  0.00000000000E+00 0. -1.
         23    2    1    2    0    0  0.65665928134E+01 -0.57487423793E+02  0.20075097685E+03  0.24350668707E+03  0.12508648171E+03 0.  0.
         23    2    1    2    0    0 -0.65665928134E+01  0.57487423793E+02 -0.18100777832E+01  0.10717710347E+03  0.90198287627E+02 0.  0.
          5    1    3    3  502    0  0.16722410306E+02 -0.90460753290E+02  0.18210884528E+03  0.20406834841E+03  0.41800000000E+01 0. -1.
         -5    1    3    3    0  502 -0.10155817493E+02  0.32973329497E+02  0.18642131566E+02  0.39438338662E+02  0.41800000000E+01 0. -1.
        -11    1    4    4    0    0  0.39954200192E+02  0.11597317241E+02  0.25851860007E+01  0.41683558711E+02  0.00000000000E+00 0. -1.
         11    1    4    4    0    0 -0.46520793005E+02  0.45890106551E+02 -0.43952637839E+01  0.65493544757E+02  0.00000000000E+00 0.  1.
</event>
<event>
 8    1  0.4798744E-006  0.1463295E+03  0.7561462E-02  0.1205057E+00
          2   -1    0    0  501    0  0.00000000000E+00  0.00000000000E+00  0.69352817849E+03  0.69352817849E+03  0.00000000000E+00 0. -1.
         -2   -1    0    0    0  501 -0.00000000000E+00 -0.00000000000E+00 -0.44222004425E+02  0.44222004425E+02  0.00000000000E+00 0.  1.
         23    2    1    2    0    0 -0.10433708996E+03  0.18062775483E+02  0.16129733226E+03  0.22995073784E+03  0.12509204705E+03 0.  0.
         23    2    1    2    0    0  0.10433708996E+03 -0.18062775483E+02  0.48800884180E+03  0.50779944508E+03  0.92169162669E+02 0.  0.
          5    1    3    3  502    0 -0.31089648856E+01  0.48868237051E+02  0.89201600631E+02  0.10184384228E+03  0.41800000000E+01 0. -1.
         -5    1    3    3    0  502 -0.10122812508E+03 -0.30805461567E+02  0.72095731633E+02  0.12810689556E+03  0.41800000000E+01 0. -1.
        -11    1    4    4    0    0  0.11283945748E+03  0.50909154349E+01  0.43341996620E+03  0.44789678241E+03  0.00000000000E+00 0. -1.
         11    1    4    4    0    0 -0.85023675184E+01 -0.23153690918E+02  0.54588875601E+02  0.59902662678E+02  0.00000000000E+00 0.  1.
</event>
<event>
 7    1  0.4798744E-006  0.1366159E+03  0.7561462E-02  0.1217956E+00
         -1   -1    0    0    0  501 -0.00000000000E+00  0.00000000000E+00  0.48789231578E+03  0.48789231578E+03  0.00000000000E+00 0.  1.
          1   -1    0    0  501    0  0.00000000000E+00 -0.00000000000E+00 -0.42360888872E+02  0.42360888872E+02  0.00000000000E+00 0. -1.
         23    2    1    2    0    0 -0.25253632714E+02  0.43188172288E+02  0.16379593230E+03  0.21208392044E+03  0.12509003829E+03 0.  0.
          5    1    3    3  502    0 -0.74122133571E+02  0.34339665499E+02  0.12280907256E+03  0.14755624018E+03  0.41800000000E+01 0.  1.
         -5    1    3    3    0  502  0.48868500856E+02  0.88485067885E+01  0.40986859738E+02  0.64527680258E+02  0.41800000000E+01 0.  1.
        -11    1    1    2    0    0  0.63983329332E+02 -0.69735731599E+02  0.22768729668E+03  0.24657340441E+03  0.00000000000E+00 0.  1.
         11    1    1    2    0    0 -0.38729696618E+02  0.26547559311E+02  0.54048197924E+02  0.71595879800E+02  0.00000000000E+00 0. -1.
</event>
<event>
 8    1  0.4798744E-006  0.1202636E+03  0.7561462E-02  0.1242663E+00
         -3   -1    0    0    0  501 -0.00000000000E+00  0.00000000000E+00  0.40769881428E+02  0.40769881428E+02  0.00000000000E+00 0.  1.
          3   -1    0    0  501    0  0.00000000000E+00 -0.00000000000E+00 -0.39842882071E+03  0.39842882071E+03  0.00000000000E+00 0. -1.
         23    2    1    2    0    0  0.39737929506E+02 -0.43256306823E+02 -0.14679162586E+03  0.20160391754E+03  0.12508455949E+03 0.  0.
         23    2    1    2    0    0 -0.39737929506E+02  0.43256306823E+02 -0.21086731342E+03  0.23759478460E+03  0.92390728303E+02 0.  0.
          5    1    3    3  502    0  0.14897091993E+02  0.43295480675E+02 -0.66757965171E+02  0.81058746046E+02  0.41800000000E+01 0.  1.
         -5    1    3    3    0  502  0.24840837513E+02 -0.86551787498E+02 -0.80033660690E+02  0.12054517150E+03  0.41800000000E+01 0.  1.
        -11    1    4    4    0    0 -0.59266558794E+02  0.26228343842E+01 -0.15395797924E+03  0.16499231383E+03  0.00000000000E+00 0. -1.
         11    1    4    4    0    0  0.19528629288E+02  0.40633472439E+02 -0.56909334181E+02  0.72602470766E+02  0.00000000000E+00 0.  1.
</event>
<event>
 8    1  0.4798744E-006  0.8712332E+02  0.7561462E-02  0.1309971E+00
          2   -1    0    0  501    0  0.00000000000E+00  0.00000000000E+00  0.41528369403E+03  0.41528369403E+03  0.00000000000E+00 0. -1.
         -2   -1    0    0    0  501 -0.00000000000E+00 -0.00000000000E+00 -0.29572620710E+02  0.29572620710E+02  0.00000000000E+00 0.  1.
         23    2    1    2    0    0 -0.20205865773E+01 -0.12591707213E+02  0.25594037493E+03  0.28515769399E+03  0.12508717385E+03 0.  0.
         23    2    1    2    0    0  0.20205865773E+01  0.12591707213E+02  0.12977069839E+03  0.15969862075E+03  0.92198597861E+02 0.  0.
          5    1    3    3  502    0 -0.42446613340E+02 -0.52340895224E+02  0.15961612603E+03  0.17330915840E+03  0.41800000000E+01 0.  1.
         -5    1    3    3    0  502  0.40426026763E+02  0.39749188011E+02  0.96324248900E+02  0.11184853559E+03  0.41800000000E+01 0.  1.
        -11    1    4    4    0    0  0.24635792759E+02  0.11632896360E+02  0.13393964511E+03  0.13668238766E+03  0.00000000000E+00 0. -1.
         11    1    4    4    0    0 -0.22615206181E+02  0.95881085335E+00 -0.41689467242E+01  0.23016233090E+02  0.00000000000E+00 0.  1.
</event>
<event>
 8    1  0.4798744E-006  0.1122834E+03  0.7561462E-02  0.1256399E+00
          2   -1    0    0  501    0  0.00000000000E+00  0.00000000000E+00  0.44994819804E+03  0.44994819804E+03  0.00000000000E+00 0. -1.
         -2   -1    0    0    0  501 -0.00000000000E+00 -0.00000000000E+00 -0.52293296132E+02  0.52293296132E+02  0.00000000000E+00 0.  1.
         23    2    1    2    0    0 -0.83459652842E+02  0.30086957766E+02  0.11195385760E+03  0.18987258663E+03  0.12508874546E+03 0.  0.
         23    2    1    2    0    0  0.83459652842E+02 -0.30086957766E+02  0.28570104431E+03  0.31236890754E+03  0.89880526258E+02 0.  0.
          5    1    3    3  502    0 -0.40949495142E+02  0.65664861133E+02  0.16235396849E+02  0.79182041214E+02  0.41800000000E+01 0. -1.
         -5    1    3    3    0  502 -0.42510157700E+02 -0.35577903368E+02  0.95718460750E+02  0.11069054541E+03  0.41800000000E+01 0. -1.
        -11    1    4    4    0    0  0.47903126205E+02 -0.54370838987E+01  0.39303164278E+02  0.62201367379E+02  0.00000000000E+00 0.  1.
         11    1    4    4    0    0  0.35556526637E+02 -0.24649873867E+02  0.24639788003E+03  0.25016754016E+03  0.00000000000E+00 0. -1.
</event>
<event>
 8    1  0.4798744E-006  0.8923769E+02  0.7561462E-02  0.1304708E+00
         -2   -1    0    0    0  501 -0.00000000000E+00  0.00000000000E+00  0.13376862082E+03  0.13376862082E+03  0.00000000000E+00 0.  1.
          2   -1    0    0  501    0  0.00000000000E+00 -0.00000000000E+00 -0.12168523781E+03  0.12168523781E+03  0.00000000000E+00 0. -1.
         23    2    1    2    0    0 -0.35832790900E+02 -0.40848930834E+02  0.43102880266E+02  0.14303836958E+03  0.12509793296E+03 0.  0.
         23    2    1    2    0    0  0.35832790900E+02  0.40848930834E+02 -0.31019497258E+02  0.11241548905E+03  0.93393837665E+02 0.  0.
          5    1    3    3  502    0  0.91924592964E+01  0.17680084226E+02  0.63196453509E+02  0.66395412659E+02  0.41800000000E+01 0. -1.
         -5    1    3    3    0  502 -0.45025250197E+02 -0.58529015060E+02 -0.20093573243E+02  0.76642956916E+02  0.41800000000E+01 0. -1.
        -11    1    4    4    0    0 -0.14516747634E+02  0.28995641150E+02 -0.48041294088E+02  0.57960754871E+02  0.00000000000E+00 0. -1.
         11    1    4    4    0    0  0.50349538535E+02  0.11853289684E+02  0.17021796829E+02  0.54454734177E+02  0.00000000000E+00 0.  1.
</event>
<event>
 8    1  0.4798744E-006  0.1149110E+03  0.7561462E-02  0.1251737E+00
          3   -1    0    0  501    0  0.00000000000E+00  0.00000000000E+00  0.10189560098E+03  0.10189560098E+03  0.00000000000E+00 0. -1.
         -3   -1    0    0    0  501 -0.00000000000E+00 -0.00000000000E+00 -0.13968008957E+03  0.13968008957E+03  0.00000000000E+00 0.  1.
         23    2    1    2    0    0 -0.29271194688E+02  0.34862449586E+02 -0.42758099546E+02  0.13980920946E+03  0.12508463832E+03 0.  0.
         23    2    1    2    0    0  0.29271194688E+02 -0.34862449586E+02  0.49736109537E+01  0.10176648108E+03  0.90881717834E+02 0.  0.
          5    1    3    3  502    0 -0.33043549452E+01  0.80371406846E+02 -0.25845275921E+02  0.84592744887E+02  0.41800000000E+01 0.  1.
         -5    1    3    3    0  502 -0.25966839743E+02 -0.45508957261E+02 -0.16912823625E+02  0.55216464575E+02  0.41800000000E+01 0.  1.
        -11    1    4    4    0    0  0.44886879203E+02 -0.55151359154E+02  0.17548601798E+02  0.73242458767E+02  0.00000000000E+00 0.  1.
         11    1    4    4    0    0 -0.15615684515E+02  0.20288909568E+02 -0.12574990844E+02  0.28524022316E+02  0.00000000000E+00 0. -1.
</event>
<event>
 8    1  0.4798744E-006  0.1228256E+03  0.7561462E-02  0.1238507E+00
          2   -1    0    0  501    0  0.00000000000E+00  0.00000000000E+00  0.55447561319E+03  0.55447561319E+03  0.00000000000E+00 0. -1.
         -2   -1    0    0    0  501 -0.00000000000E+00 -0.00000000000E+00 -0.30040330576E+02  0.30040330576E+02  0.00000000000E+00 0.  1.
         23    2    1    2    0    0 -0.30186824845E+02  0.63112448316E+02  0.27642495671E+03  0.31137280074E+03  0.12509132193E+03 0.  0.
         23    2    1    2    0    0  0.30186824845E+02 -0.63112448316E+02  0.24801032591E+03  0.27314314303E+03  0.90573888627E+02 0.  0.
          5    1    3    3  502    0  0.24655636163E+02 -0.19689179703E+02  0.13374206252E+03  0.13747718312E+03  0.41800000000E+01 0. -1.
         -5    1    3    3    0  502 -0.54842461008E+02  0.82801628019E+02  0.14268289419E+03  0.17389561762E+03  0.41800000000E+01 0. -1.
        -11    1    4    4    0    0 -0.31258563398E+02 -0.34757752774E+02  0.10432992416E+03  0.11432380434E+03  0.00000000000E+00 0. -1.
         11    1    4    4    0    0  0.61445388243E+02 -0.28354695542E+02  0.14368040175E+03  0.15881933869E+03  0.00000000000E+00 0.  1.
</event>
<event>
 8    1  0.4798744E-006  0.8468871E+02  0.7561462E-02  0.1316249E+00
          2   -1    0    0  501    0  0.00000000000E+00  0.00000000000E+00  0.12271647939E+03  0.12271647939E+03  0.00000000000E+00 0.  1.
         -2   -1    0    0    0  501 -0.00000000000E+00 -0.00000000000E+00 -0.11937494823E+03  0.11937494823E+03  0.00000000000E+00 0. -1.
         23    2    1    2    0    0  0.34753945423E+02  0.26903502950E+02 -0.29810348089E+02  0.13589443481E+03  0.12508799049E+03 0.  0.
         23    2    1    2    0    0 -0.34753945423E+02 -0.26903502950E+02  0.33151879245E+02  0.10619699281E+03  0.90813649809E+02 0.  0.
          5    1    3    3  502    0  0.36361663334E+02  0.40388510665E+02 -0.72613592633E+02  0.90794320248E+02  0.41800000000E+01 0.  1.
         -5    1    3    3    0  502 -0.16077179110E+01 -0.13485007715E+02  0.42803244544E+02  0.45100114561E+02  0.41800000000E+01 0.  1.
        -11    1    4    4    0    0 -0.53681768240E+02 -0.48217511612E+02  0.20519634444E+02  0.75018104916E+02  0.00000000000E+00 0.  1.
         11    1    4    4    0    0  0.18927822817E+02  0.21314008662E+02  0.12632244801E+02  0.31178887898E+02  0.00000000000E+00 0. -1.
</event>
<event>
 8    1  0.4798744E-006  0.1950352E+03  0.7561462E-02  0.1153997E+00
          1   -1    0    0  501    0  0.00000000000E+00  0.00000000000E+00  0.96027293088E+03  0.96027293088E+03  0.00000000000E+00 0. -1.
         -1   -1    0    0    0  501 -0.00000000000E+00 -0.00000000000E+00 -0.64937023014E+02  0.64937023014E+02  0.00000000000E+00 0.  1.
         23    2    1    2    0    0  0.16281576446E+03  0.12090268617E+02  0.14433579617E+03  0.25126815534E+03  0.12509083133E+03 0.  0.
         23    2    1    2    0    0 -0.16281576446E+03 -0.12090268617E+02  0.75100011169E+03  0.77394179855E+03  0.91266598638E+02 0.  0.
          5    1    3    3  502    0  0.48617940812E+02 -0.52869187394E+02  0.69390030425E+02  0.99956509877E+02  0.41800000000E+01 0.  1.
         -5    1    3    3    0  502  0.11419782364E+03  0.64959456011E+02  0.74945765748E+02  0.15131164547E+03  0.41800000000E+01 0.  1.
        -11    1    4    4    0    0 -0.82435444133E+02  0.39246702367E+02  0.34316487881E+03  0.35510285854E+03  0.00000000000E+00 0.  1.
         11    1    4    4    0    0 -0.80380320324E+02 -0.51336970983E+02  0.40783523288E+03  0.41883894001E+03  0.00000000000E+00 0. -1.
</event>
<event>
 8    1  0.4798744E-006  0.1022081E+03  0.7561462E-02  0.1275720E+00
          1   -1    0    0  501    0  0.00000000000E+00  0.00000000000E+00  0.58187167047E+02  0.58187167047E+02  0.00000000000E+00 0. -1.
         -1   -1    0    0    0  501 -0.00000000000E+00 -0.00000000000E+00 -0.23367059265E+03  0.23367059265E+03  0.00000000000E+00 0.  1.
         23    2    1    2    0    0  0.11333619124E+02 -0.42189400733E-01 -0.15209411132E+03  0.19725603755E+03  0.12509545535E+03 0.  0.
         23    2    1    2    0    0 -0.11333619124E+02  0.42189400733E-01 -0.23389314277E+02  0.94601722144E+02  0.90961382508E+02 0.  0.
          5    1    3    3  502    0  0.35469385678E+02 -0.49518250531E+02 -0.42031244071E+02  0.74123089076E+02  0.41800000000E+01 0.  1.
         -5    1    3    3    0  502 -0.24135766554E+02  0.49476061130E+02 -0.11006286725E+03  0.12313294847E+03  0.41800000000E+01 0.  1.
        -11    1    4    4    0    0  0.18841642476E+02  0.36350749095E+02 -0.23859893037E+02  0.47388595112E+02  0.00000000000E+00 0. -1.
         11    1    4    4    0    0 -0.30175261600E+02 -0.36308559694E+02  0.47057875977E+00  0.47213127031E+02  0.00000000000E+00 0.  1.
</event>
<event>
 8    1  0.4798744E-006  0.1176517E+03  0.7561462E-02  0.1247022E+00
          3   -1    0    0  501    0  0.00000000000E+00  0.00000000000E+00  0.74409121052E+02  0.74409121052E+02  0.00000000000E+00 0. -1.
         -3   -1    0    0    0  501 -0.00000000000E+00 -0.00000000000E+00 -0.24653128588E+03  0.24653128588E+03  0.00000000000E+00 0.  1.
         23    2    1    2    0    0  0.44253201763E+02  0.66275754340E+02 -0.11351762672E+03  0.18677292549E+03  0.12508817946E+03 0.  0.
         23    2    1    2    0    0 -0.44253201763E+02 -0.66275754340E+02 -0.58604538106E+02  0.13416748144E+03  0.90639945442E+02 0.  0.
          5    1    3    3  502    0  0.72758768982E+02  0.35288193959E+02 -0.11917929064E+03  0.14408424902E+03  0.41800000000E+01 0.  1.
         -5    1    3    3    0  502 -0.28505567219E+02  0.30987560381E+02  0.56616639207E+01  0.42688676475E+02  0.41800000000E+01 0.  1.
        -11    1    4    4    0    0 -0.58041117239E+02 -0.75647046072E+02 -0.65966448441E+02  0.11594317224E+03  0.00000000000E+00 0.  1.
         11    1    4    4    0    0  0.13787915476E+02  0.93712917325E+01  0.73619103354E+01  0.18224309197E+02  0.00000000000E+00 0. -1.
</event>
<event>
 8    1  0.4798744E-006  0.1935002E+03  0.7561462E-02  0.1155342E+00
          2   -1    0    0  501    0  0.00000000000E+00  0.00000000000E+00  0.91374988118E+02  0.91374988118E+02  0.00000000000E+00 0. -1.
         -2   -1    0    0    0  501 -0.00000000000E+00 -0.00000000000E+00 -0.48629808021E+03  0.48629808021E+03  0.00000000000E+00 0.  1.
         23    2    1    2    0    0 -0.17936106385E+02 -0.17893884467E+03 -0.22198356283E+03  0.31187222803E+03  0.12508705130E+03 0.  0.
         23    2    1    2    0    0  0.17936106385E+02  0.17893884467E+03 -0.17293952926E+03  0.26580084030E+03  0.91658015888E+02 0.  0.
          5    1    3    3  502    0 -0.33771699995E+02 -0.15010092223E+03 -0.95541353296E+02  0.18115307661E+03  0.41800000000E+01 0.  1.
         -5    1    3    3    0  502  0.15835593609E+02 -0.28837922444E+02 -0.12644220953E+03  0.13071915142E+03  0.41800000000E+01 0.  1.
        -11    1    4    4    0    0 -0.30541167122E+02  0.11889792496E+03 -0.87998161863E+02  0.15104024609E+03  0.00000000000E+00 0.  1.
         11    1    4    4    0    0  0.48477273507E+02  0.60040919719E+02 -0.84941367397E+02  0.11476059421E+03  0.00000000000E+00 0. -1.
</event>
<event>
 7    1  0.4798744E-006  0.1384301E+03  0.7561462E-02  0.1215457E+00
         -1   -1    0    0    0  501 -0.00000000000E+00  0.00000000000E+00  0.66962209518E+02  0.66962209518E+02  0.00000000000E+00 0.  1.
          1   -1    0    0  501    0  0.00000000000E+00 -0.00000000000E+00 -0.48434124753E+03  0.48434124753E+03  0.00000000000E+00 0. -1.
         23    2    1    2    0    0 -0.62115243553E+01 -0.16722262907E+01 -0.15559050933E+03  0.18021930979E+03  0.90715013377E+02 0.  0.
          5    1    1    2  502    0  0.23516409548E+02  0.95342518137E+02 -0.25752217063E+03  0.27564172044E+03  0.41800000000E+01 0. -1.
         -5    1    1    2    0  502 -0.17304885192E+02 -0.93670291846E+02 -0.42663580571E+01  0.95442426819E+02  0.41800000000E+01 0.  1.
        -11    1    3    3    0    0  0.59033698680E+01  0.39688895022E+02 -0.11177689931E+03  0.11876082428E+03  0.00000000000E+00 0. -1.
         11    1    3    3    0    0 -0.12114894223E+02 -0.41361121313E+02 -0.43813610014E+02  0.61458485507E+02  0.00000000000E+00 0.  1.
</event>
<event>
 8    1  0.4798744E-006  0.1050349E+03  0.7561462E-02  0.1270051E+00
         -2   -1    0    0    0  501 -0.00000000000E+00  0.00000000000E+00  0.10426046318E+04  0.10426046318E+04  0.00000000000E+00 0.  1.
          2   -1    0    0  501    0  0.00000000000E+00 -0.00000000000E+00 -0.14034159612E+02  0.14034159612E+02  0.00000000000E+00 0. -1.
         23    2    1    2    0    0  0.15057710656E+02  0.74204099832E+00  0.80771530232E+03  0.81748267320E+03  0.12508647457E+03 0.  0.
         23    2    1    2    0    0 -0.15057710656E+02 -0.74204099832E+00  0.22085516988E+03  0.23915611822E+03  0.90506118808E+02 0.  0.
          5    1    3    3  502    0  0.38930256824E+02 -0.52606498929E+02  0.35683492459E+03  0.36281075568E+03  0.41800000000E+01 0.  1.
         -5    1    3    3    0  502 -0.23872546168E+02  0.53348539928E+02  0.45088037772E+03  0.45467191753E+03  0.41800000000E+01 0.  1.
        -11    1    4    4    0    0 -0.24563952876E+02  0.38417545050E+02  0.74433463760E+02  0.87290526839E+02  0.00000000000E+00 0.  1.
         11    1    4    4    0    0  0.95062422201E+01 -0.39159586049E+02  0.14642170612E+03  0.15186559138E+03  0.00000000000E+00 0. -1.
</event>
<event>
 8    1  0.4798744E-006  0.1147053E+03  0.7561462E-02  0.1252096E+00
          1   -1    0    0  501    0  0.00000000000E+00  0.00000000000E+00  0.32722874161E+03  0.32722874161E+03  0.00000000000E+00 0. -1.
         -1   -1    0    0    0  501 -0.00000000000E+00 -0.00000000000E+00 -0.10947298571E+03  0.10947298571E+03  0.00000000000E+00 0.  1.
         23    2    1    2    0    0  0.10121323374E+03 -0.32257249891E+02 -0.15514233524E+02  0.16483465655E+03  0.12508046891E+03 0.  0.
         23    2    1    2    0    0 -0.10121323374E+03  0.32257249891E+02  0.23326998943E+03  0.27186707077E+03  0.90621009406E+02 0.  0.
          5    1    3    3  502    0  0.86030340331E+02 -0.47554015599E+02 -0.59991045149E+02  0.11523455105E+03  0.41800000000E+01 0.  1.
         -5    1    3    3    0  502  0.15182893410E+02  0.15296765707E+02  0.44476811625E+02  0.49600105501E+02  0.41800000000E+01 0.  1.
        -11    1    4    4    0    0 -0.63314843981E+02  0.73991060523E+01  0.44523513627E+02  0.77755125261E+02  0.00000000000E+00 0.  1.
         11    1    4    4    0    0 -0.37898389760E+02  0.24858143839E+02  0.18874647580E+03  0.19411194551E+03  0.00000000000E+00 0. -1.
</event>
<event>
 8    1  0.4798744E-006  0.9087013E+02  0.7561462E-02  0.1300758E+00
         -3   -1    0    0    0  501 -0.00000000000E+00  0.00000000000E+00  0.24169064961E+03  0.24169064961E+03  0.00000000000E+00 0.  1.
          3   -1    0    0  501    0  0.00000000000E+00 -0.00000000000E+00 -0.66523810482E+02  0.66523810482E+02  0.00000000000E+00 0. -1.
         23    2    1    2    0    0  0.24214397374E+02 -0.58437272142E+02  0.11749957329E+03  0.18290012620E+03  0.12508019278E+03 0.  0.
         23    2    1    2    0    0 -0.24214397374E+02  0.58437272142E+02  0.57667265846E+02  0.12531433390E+03  0.91525498715E+02 0.  0.
          5    1    3    3  502    0  0.19025310317E+02  0.11240793767E+02 -0.19038295746E+02  0.29466030986E+02  0.41800000000E+01 0.  1.
         -5    1    3    3    0  502  0.51890870567E+01 -0.69678065909E+02  0.13653786903E+03  0.15343409521E+03  0.41800000000E+01 0.  1.
        -11    1    4    4    0    0 -0.24814864952E+02 -0.54155187182E+01  0.55939215841E+02  0.61435341901E+02  0.00000000000E+00 0.  1.
         11    1    4    4    0    0  0.60046757814E+00  0.63852790860E+02  0.17280500046E+01  0.63878991998E+02  0.00000000000E+00 0. -1.
</event>
<event>
 8    1  0.8348349E-006  0.3202080E+03  0.7561462E-02  0.1075554E+00
          2   -1    0    0  501    0  0.00000000000E+00  0.00000000000E+00  0.52192204251E+03  0.52192204251E+03  0.00000000000E+00 0.  1.
         -2   -1    0    0    0  501 -0.00000000000E+00 -0.00000000000E+00 -0.21862749222E+03  0.21862749222E+03  0.00000000000E+00 0. -1.
         23    2    1    2    0    0  0.31289438819E+03  0.19426677113E+02  0.82094890155E+02  0.34737232653E+03  0.12509064038E+03 0.  0.
         23    2    1    2    0    0 -0.31289438819E+03 -0.19426677113E+02  0.22119966014E+03  0.39317720819E+03  0.85899554459E+02 0.  0.
          5    1    3    3  502    0  0.17146098748E+03  0.47027976103E+02  0.96768971944E+02  0.20246532319E+03  0.41800000000E+01 0.  1.
         -5    1    3    3    0  502  0.14143340070E+03 -0.27601298990E+02 -0.14674081789E+02  0.14490700334E+03  0.41800000000E+01 0.  1.
        -11    1    4    4    0    0 -0.19302637619E+03 -0.39080166879E+02  0.17421041432E+03  0.26293670304E+03  0.00000000000E+00 0.  1.
         11    1    4    4    0    0 -0.11986801200E+03  0.19653489767E+02  0.46989245818E+02  0.13024050516E+03  0.00000000000E+00 0. -1.
</event>
<event>
 8    1  0.4798744E-006  0.1300068E+03  0.7561462E-02  0.1227446E+00
          1   -1    0    0  501    0  0.00000000000E+00  0.00000000000E+00  0.64377287045E+03  0.64377287045E+03  0.00000000000E+00 0. -1.
         -1   -1    0    0    0  501 -0.00000000000E+00 -0.00000000000E+00 -0.36995217095E+02  0.36995217095E+02  0.00000000000E+00 0.  1.
         23    2    1    2    0    0  0.60853566485E+02 -0.69212659992E+02  0.22971686714E+03  0.27732886955E+03  0.12509162235E+03 0.  0.
         23    2    1    2    0    0 -0.60853566485E+02  0.69212659992E+02  0.37706078621E+03  0.40343921799E+03  0.10997643955E+03 0.  0.
          5    1    3    3  502    0  0.37286746368E+02 -0.81594652784E+02  0.23344539989E+03  0.25012440094E+03  0.41800000000E+01 0. -1.
         -5    1    3    3    0  502  0.23566820117E+02  0.12381992792E+02 -0.37285327491E+01  0.27204468611E+02  0.41800000000E+01 0. -1.
        -11    1    4    4    0    0 -0.87769812661E+02  0.24595924201E+02  0.25070013946E+03  0.26675655461E+03  0.00000000000E+00 0. -1.
         11    1    4    4    0    0  0.26916246176E+02  0.44616735790E+02  0.12636064676E+03  0.13668266338E+03  0.00000000000E+00 0.  1.
</event>
<event>
 8    1  0.4798744E-006  0.9399617E+02  0.7561462E-02  0.1293453E+00
          1   -1    0    0  501    0  0.00000000000E+00  0.00000000000E+00  0.37817227148E+02  0.37817227148E+02  0.00000000000E+00 0. -1.
         -1   -1    0    0    0  501 -0.00000000000E+00 -0.00000000000E+00 -0.31613446400E+03  0.31613446400E+03  0.00000000000E+00 0.  1.
         23    2    1    2    0    0  0.15615192726E+02  0.57984524596E+01 -0.17302623080E+03  0.21415775262E+03  0.12509200681E+03 0.  0.
         23    2    1    2    0    0 -0.15615192726E+02 -0.57984524596E+01 -0.10529100605E+03  0.13979393853E+03  0.90436126621E+02 0.  0.
          5    1    3    3  502    0  0.44038129731E+02  0.34109566817E+02 -0.25843073793E+02  0.61547999819E+02  0.41800000000E+01 0.  1.
         -5    1    3    3    0  502 -0.28422937005E+02 -0.28311114358E+02 -0.14718315701E+03  0.15260975280E+03  0.41800000000E+01 0.  1.
        -11    1    4    4    0    0 -0.32527020102E+02  0.34911173450E+02 -0.50618578374E+02  0.69563191020E+02  0.00000000000E+00 0.  1.
         11    1    4    4    0    0  0.16911827377E+02 -0.40709625909E+02 -0.54672427678E+02  0.70230747505E+02  0.00000000000E+00 0. -1.
</event>
<event>
 8    1  0.4798744E-006  0.1309845E+03  0.7561462E-02  0.1226002E+00
          3   -1    0    0  501    0  0.00000000000E+00  0.00000000000E+00  0.22456720737E+03  0.22456720737E+03  0.00000000000E+00 0. -1.
         -3   -1    0    0    0  501 -0.00000000000E+00 -0.00000000000E+00 -0.10752206983E+03  0.10752206983E+03  0.00000000000E+00 0.  1.
         23    2    1    2    0    0 -0.85270630092E+02  0.29170498349E+02 -0.76587945751E+01  0.15435290119E+03  0.12507662708E+03 0.  0.
         23    2    1    2    0    0  0.85270630092E+02 -0.29170498349E+02  0.12470393212E+03  0.17773637601E+03  0.88978370076E+02 0.  0.
          5    1    3    3  502    0 -0.13408295447E+02 -0.43469747505E+02  0.17697561676E+02  0.48990585057E+02  0.41800000000E+01 0.  1.
         -5    1    3    3    0  502 -0.71862334645E+02  0.72640245854E+02 -0.25356356251E+02  0.10536231613E+03  0.41800000000E+01 0.  1.
        -11    1    4    4    0    0  0.53077419483E+02 -0.52195049772E+02  0.11498951196E+03  0.13698220154E+03  0.00000000000E+00 0. -1.
         11    1    4    4    0    0  0.32193210609E+02  0.23024551423E+02  0.97144201649E+01  0.40754174469E+02  0.00000000000E+00 0.  1.
</event>
<event>
 8    1  0.4798744E-006  0.6418321E+02  0.7561462E-02  0.1381071E+00
         -2   -1    0    0    0  501 -0.00000000000E+00  0.00000000000E+00  0.23716340120E+03  0.23716340120E+03  0.00000000000E+00 0.  1.
          2   -1    0    0  501    0  0.00000000000E+00 -0.00000000000E+00 -0.67546859789E+02  0.67546859789E+02  0.00000000000E+00 0. -1.
         23    2    1    2    0    0 -0.33592100360E+02  0.28474371911E+02  0.15202239688E+03  0.20173597321E+03  0.12508946668E+03 0.  0.
         23    2    1    2    0    0  0.33592100360E+02 -0.28474371911E+02  0.17594144533E+02  0.10297428777E+03  0.91405311434E+02 0.  0.
          5    1    3    3  502    0 -0.33482673639E+02  0.35502928428E+02  0.17269390714E+03  0.17950544651E+03  0.41800000000E+01 0.  1.
         -5    1    3    3    0  502 -0.10942672090E+00 -0.70285565167E+01 -0.20671510268E+02  0.22230526707E+02  0.41800000000E+01 0.  1.
        -11    1    4    4    0    0  0.40049139315E+02  0.19594453404E+01 -0.27188295511E+02  0.48445602470E+02  0.00000000000E+00 0. -1.
         11    1    4    4    0    0 -0.64570389552E+01 -0.30433817251E+02  0.44782440044E+02  0.54528685303E+02  0.00000000000E+00 0.  1.
</event>
<event>
 8    1  0.4798744E-006  0.9110375E+02  0.7561462E-02  0.1300201E+00
          1   -1    0    0  501    0  0.00000000000E+00  0.00000000000E+00  0.88942222549E+02  0.88942222549E+02  0.00000000000E+00 0. -1.
         -1   -1    0    0    0  501 -0.00000000000E+00 -0.00000000000E+00 -0.16959756864E+03  0.16959756864E+03  0.00000000000E+00 0.  1.
         23    2    1    2    0    0 -0.40210147914E+02 -0.38800631292E+02 -0.53665859219E+02  0.14714167062E+03  0.12509317248E+03 0.  0.
         23    2    1    2    0    0  0.40210147914E+02  0.38800631292E+02 -0.26989486869E+02  0.11139812057E+03  0.92513587548E+02 0.  0.
          5    1    3    3  502    0 -0.41736473293E+02 -0.53861688011E+02  0.20541077590E+02  0.71291113801E+02  0.41800000000E+01 0. -1.
         -5    1    3    3    0  502  0.15263253799E+01  0.15061056719E+02 -0.74206936809E+02  0.75850556816E+02  0.41800000000E+01 0. -1.
        -11    1    4    4    0    0  0.65098072598E+02  0.24673173181E+02 -0.39636846993E+02  0.80109950507E+02  0.00000000000E+00 0.  1.
         11    1    4    4    0    0 -0.24887924684E+02  0.14127458111E+02  0.12647360123E+02  0.31288170062E+02  0.00000000000E+00 0. -1.
</event>
<event>
 8    1  0.4798744E-006  0.1657512E+03  0.7561462E-02  0.1182353E+00
         -2   -1    0    0    0  501 -0.00000000000E+00  0.00000000000E+00  0.38266910164E+02  0.38266910164E+02  0.00000000000E+00 0.  1.
          2   -1    0    0  501    0  0.00000000000E+00 -0.00000000000E+00 -0.88508589430E+03  0.88508589430E+03  0.00000000000E+00 0. -1.
         23    2    1    2    0    0 -0.11538507938E+03  0.93144627654E+02 -0.43424546693E+03  0.47559793243E+03  0.12503851237E+03 0.  0.
         23    2    1    2    0    0  0.11538507938E+03 -0.93144627654E+02 -0.41257351721E+03  0.44775487204E+03  0.90982856216E+02 0.  0.
          5    1    3    3  502    0 -0.60162708773E+02  0.10857382552E+03 -0.36525919196E+03  0.38579732610E+03  0.41800000000E+01 0. -1.
         -5    1    3    3    0  502 -0.55222370610E+02 -0.15429197870E+02 -0.68986274971E+02  0.89800606329E+02  0.41800000000E+01 0. -1.
        -11    1    4    4    0    0  0.81765098003E+02 -0.77776541898E+02 -0.38618836354E+03  0.40233838228E+03  0.00000000000E+00 0. -1.
         11    1    4    4    0    0  0.33619981380E+02 -0.15368085756E+02 -0.26385153670E+02  0.45416489759E+02  0.00000000000E+00 0.  1.
</event>
<event>
 8    1  0.4963010E-006  0.2136317E+03  0.7561462E-02  0.1138722E+00
          2   -1    0    0  501    0  0.00000000000E+00  0.00000000000E+00  0.16576248158E+03  0.16576248158E+03  0.00000000000E+00 0.  1.
         -2   -1    0    0    0  501 -0.00000000000E+00 -0.00000000000E+00 -0.30135246417E+03  0.30135246417E+03  0.00000000000E+00 0. -1.
         23    2    1    2    0    0  0.13919848872E+03  0.13505543919E+03 -0.91738406851E+02  0.24835325504E+03  0.12508882077E+03 0.  0.
         23    2    1    2    0    0 -0.13919848872E+03 -0.13505543919E+03 -0.43851575739E+02  0.21876169070E+03  0.91200469890E+02 0.  0.
          5    1    3    3  502    0  0.87220404750E+02  0.14566638146E+03 -0.40751022294E+02  0.17465455021E+03  0.41800000000E+01 0.  1.
         -5    1    3    3    0  502  0.51978083972E+02 -0.10610942270E+02 -0.50987384557E+02  0.73698704827E+02  0.41800000000E+01 0.  1.
        -11    1    4    4    0    0 -0.67683070847E+01 -0.41557504362E+02  0.17273763405E+02  0.45510647675E+02  0.00000000000E+00 0.  1.
         11    1    4    4    0    0 -0.13243018164E+03 -0.93497934826E+02 -0.61125339145E+02  0.17325104303E+03  0.00000000000E+00 0. -1.
</event>
<event>
 8    1  0.4798744E-006  0.1125154E+03  0.7561462E-02  0.1255981E+00
          1   -1    0    0  501    0  0.00000000000E+00  0.00000000000E+00  0.43075135128E+03  0.43075135128E+03  0.00000000000E+00 0. -1.
         -1   -1    0    0    0  501 -0.00000000000E+00 -0.00000000000E+00 -0.35721671169E+02  0.35721671169E+02  0.00000000000E+00 0.  1.
         23    2    1    2    0    0  0.41686087987E+02  0.48942537819E+02  0.18767393022E+03  0.23452813054E+03  0.12509531562E+03 0.  0.
         23    2    1    2    0    0 -0.41686087987E+02 -0.48942537819E+02  0.20735574989E+03  0.23194489191E+03  0.81663479784E+02 0.  0.
          5    1    3    3  502    0 -0.33009855868E+02  0.56365744054E+02  0.85689508515E+02  0.10782815939E+03  0.41800000000E+01 0.  1.
         -5    1    3    3    0  502  0.74695943855E+02 -0.74232062348E+01  0.10198442170E+03  0.12669997115E+03  0.41800000000E+01 0.  1.
        -11    1    4    4    0    0 -0.46042336885E+02 -0.12519531191E+02  0.45313053660E+02  0.65802038563E+02  0.00000000000E+00 0.  1.
         11    1    4    4    0    0  0.43562488983E+01 -0.36423006629E+02  0.16204269623E+03  0.16614285335E+03  0.00000000000E+00 0. -1.
</event>
<event>
 8    1  0.4798744E-006  0.3319950E+03  0.7561462E-02  0.1070258E+00
         -1   -1    0    0    0  501 -0.00000000000E+00  0.00000000000E+00  0.16669136136E+03  0.16669136136E+03  0.00000000000E+00 0.  1.
          1   -1    0    0  501    0  0.00000000000E+00 -0.00000000000E+00 -0.73147553408E+03  0.73147553408E+03  0.00000000000E+00 0. -1.
         23    2    1    2    0    0  0.31105112053E+03 -0.11432726532E+03 -0.26383222606E+03  0.44167814992E+03  0.12509445004E+03 0.  0.
         23    2    1    2    0    0 -0.31105112053E+03  0.11432726532E+03 -0.30095194666E+03  0.45648874551E+03  0.89366533997E+02 0.  0.
          5    1    3    3  502    0  0.28882060896E+03 -0.99334792100E+02 -0.18223135311E+03  0.35568312237E+03  0.41800000000E+01 0.  1.
         -5    1    3    3    0  502  0.22230511575E+02 -0.14992473219E+02 -0.81600872949E+02  0.85995027555E+02  0.41800000000E+01 0.  1.
        -11    1    4    4    0    0 -0.88246454920E+02  0.33006782585E+02 -0.35939120061E+02  0.10083900462E+03  0.00000000000E+00 0.  1.
         11    1    4    4    0    0 -0.22280466561E+03  0.81320482734E+02 -0.26501282660E+03  0.35564974089E+03  0.00000000000E+00 0. -1.
</event>
<event>
 8    1  0.4798744E-006  0.1319380E+03  0.7561462E-02  0.1224608E+00
         -1   -1    0    0    0  501 -0.00000000000E+00  0.00000000000E+00  0.15222506721E+02  0.15222506721E+02  0.00000000000E+00 0.  1.
          1   -1    0    0  501    0  0.00000000000E+00 -0.00000000000E+00 -0.14038015802E+04  0.14038015802E+04  0.00000000000E+00 0. -1.
         23    2    1    2    0    0 -0.86984479204E+02 -0.46383109321E+02 -0.72014077858E+03  0.73754194352E+03  0.12509070719E+03 0.  0.
         23    2    1    2    0    0  0.86984479204E+02  0.46383109321E+02 -0.66843829494E+03  0.68148214344E+03  0.88828290726E+02 0.  0.
          5    1    3    3  502    0 -0.95569564249E+02 -0.67790841897E+02 -0.40772206082E+03  0.42424508381E+03  0.41800000000E+01 0.  1.
         -5    1    3    3    0  502  0.85850850443E+01  0.21407732577E+02 -0.31241871776E+03  0.31329685971E+03  0.41800000000E+01 0.  1.
        -11    1    4    4    0    0 -0.13569443077E+02  0.54153469169E+01 -0.25075477024E+02  0.29021290730E+02  0.00000000000E+00 0.  1.
         11    1    4    4    0    0  0.10055392228E+03  0.40967762404E+02 -0.64336281792E+03  0.65246085271E+03  0.00000000000E+00 0. -1.
</event>
<event>
 8    1  0.4798744E-006  0.7378033E+02  0.7561462E-02  0.1347690E+00
          2   -1    0    0  501    0  0.00000000000E+00  0.00000000000E+00  0.16219256497E+03  0.16219256497E+03  0.00000000000E+00 0. -1.
         -2   -1    0    0    0  501 -0.00000000000E+00 -0.00000000000E+00 -0.98063471172E+02  0.98063471172E+02  0.00000000000E+00 0.  1.
         23    2    1    2    0    0 -0.26984356532E+02 -0.60546390734E+02  0.48802520193E+02  0.14975450103E+03  0.12510277245E+03 0.  0.
         23    2    1    2    0    0  0.26984356532E+02  0.60546390734E+02  0.15326573609E+02  0.11050153512E+03  0.87072753924E+02 0.  0.
          5    1    3    3  502    0 -0.12522862448E+02 -0.37557543999E+02 -0.40218011876E+02  0.56589328273E+02  0.41800000000E+01 0.  1.
         -5    1    3    3    0  502 -0.14461494084E+02 -0.22988846734E+02  0.89020532069E+02  0.93165172758E+02  0.41800000000E+01 0.  1.
        -11    1    4    4    0    0  0.15093870943E+02  0.65627369068E+02  0.43039907409E+02  0.79920023402E+02  0.00000000000E+00 0. -1.
         11    1    4    4    0    0  0.11890485590E+02 -0.50809783339E+01 -0.27713333800E+02  0.30581511713E+02  0.00000000000E+00 0.  1.
</event>
<event>
 8    1  0.4798744E-006  0.1064142E+03  0.7561462E-02  0.1267358E+00
         -1   -1    0    0    0  501 -0.00000000000E+00  0.00000000000E+00  0.63601518859E+03  0.63601518859E+03  0.00000000000E+00 0.  1.
          1   -1    0    0  501    0  0.00000000000E+00 -0.00000000000E+00 -0.34389475598E+02  0.34389475598E+02  0.00000000000E+00 0. -1.
         23    2    1    2    0    0 -0.69014375151E+02 -0.29064885554E+02  0.47811236793E+03  0.49975810464E+03  0.12473562135E+03 0.  0.
         23    2    1    2    0    0  0.69014375151E+02  0.29064885554E+02  0.12351334507E+03  0.17064655955E+03  0.90867762865E+02 0.  0.
          5    1    3    3  502    0  0.12382874478E+02  0.32800382343E+02  0.20677682634E+03  0.20976970461E+03  0.41800000000E+01 0.  1.
         -5    1    3    3    0  502 -0.81397249629E+02 -0.61865267898E+02  0.27133554159E+03  0.28998840002E+03  0.41800000000E+01 0.  1.
        -11    1    4    4    0    0  0.48366305373E+02  0.16919212495E+02  0.13476706757E+03  0.14417947755E+03  0.00000000000E+00 0.  1.
         11    1    4    4    0    0  0.20648069778E+02  0.12145673060E+02 -0.11253722499E+02  0.26467082002E+02  0.00000000000E+00 0. -1.
</event>
<event>
 8    1  0.4798744E-006  0.6839915E+02  0.7561462E-02  0.1365623E+00
         -1   -1    0    0    0  501 -0.00000000000E+00  0.00000000000E+00  0.26771185716E+02  0.26771185716E+02  0.00000000000E+00 0.  1.
          1   -1    0    0  501    0  0.00000000000E+00 -0.00000000000E+00 -0.49352933726E+03  0.49352933726E+03  0.00000000000E+00 0. -1.
         23    2    1    2    0    0  0.17763588687E+02  0.28446895866E+02 -0.22258777255E+03  0.25752338533E+03  0.12509279171E+03 0.  0.
         23    2    1    2    0    0 -0.17763588687E+02 -0.28446895866E+02 -0.24417037900E+03  0.26277713765E+03  0.91147567832E+02 0.  0.
          5    1    3    3  502    0  0.29782186018E+02 -0.26243420550E+01 -0.22189625942E+03  0.22394036733E+03  0.41800000000E+01 0. -1.
         -5    1    3    3    0  502 -0.12018597331E+02  0.31071237921E+02 -0.69151312672E+00  0.33583018003E+02  0.41800000000E+01 0. -1.
        -11    1    4    4    0    0  0.12644578979E+02 -0.38881068269E+02 -0.21660173432E+03  0.22042670927E+03  0.00000000000E+00 0. -1.
         11    1    4    4    0    0 -0.30408167666E+02  0.10434172403E+02 -0.27568644678E+02  0.42350428380E+02  0.00000000000E+00 0.  1.
</event>
<event>
 8    1  0.4798744E-006  0.1041474E+03  0.7561462E-02  0.1271809E+00
          4   -1    0    0  501    0  0.00000000000E+00  0.00000000000E+00  0.84862590066E+02  0.84862590066E+02  0.00000000000E+00 0. -1.
         -4   -1    0    0    0  501 -0.00000000000E+00 -0.00000000000E+00 -0.20592171043E+03  0.20592171043E+03  0.00000000000E+00 0.  1.
         23    2    1    2    0    0  0.76843097926E+01  0.36322986109E+02 -0.90099069953E+02  0.15856255204E+03  0.12508330251E+03 0.  0.
         23    2    1    2    0    0 -0.76843097926E+01 -0.36322986109E+02 -0.30960050410E+02  0.13222174845E+03  0.12306769725E+03 0.  0.
          5    1    3    3  502    0  0.56596090645E+02  0.27847376103E+02 -0.88451941491E+02  0.10871895964E+03  0.41800000000E+01 0.  1.
         -5    1    3    3    0  502 -0.48911780852E+02  0.84756100063E+01 -0.16471284613E+01  0.49843592399E+02  0.41800000000E+01 0.  1.
        -11    1    4    4    0    0  0.38543490707E+02 -0.37761737334E+01 -0.57850127962E+02  0.69616790138E+02  0.00000000000E+00 0.  1.
         11    1    4    4    0    0 -0.46227800500E+02 -0.32546812375E+02  0.26890077551E+02  0.62604958315E+02  0.00000000000E+00 0. -1.
</event>
<event>
 8    1  0.4798744E-006  0.1556475E+03  0.7561462E-02  0.1193700E+00
          1   -1    0    0  501    0  0.00000000000E+00  0.00000000000E+00  0.11234031355E+03  0.11234031355E+03  0.00000000000E+00 0. -1.
         -1   -1    0    0    0  501 -0.00000000000E+00 -0.00000000000E+00 -0.27226142981E+03  0.27226142981E+03  0.00000000000E+00 0.  1.
         23    2    1    2    0    0  0.11277543731E+03  0.84508035786E+02 -0.76971672739E+02  0.20354943530E+03  0.12509127402E+03 0.  0.
         23    2    1    2    0    0 -0.11277543731E+03 -0.84508035786E+02 -0.82949443525E+02  0.18105230806E+03  0.77713709860E+02 0.  0.
          5    1    3    3  502    0  0.91160514318E+02  0.97216913703E+02 -0.12112147168E+02  0.13388631069E+03  0.41800000000E+01 0. -1.
         -5    1    3    3    0  502  0.21614922989E+02 -0.12708877917E+02 -0.64859525571E+02  0.69663124614E+02  0.41800000000E+01 0. -1.
        -11    1    4    4    0    0 -0.88069016256E+02 -0.30593614087E+02 -0.77970109862E+02  0.12153789071E+03  0.00000000000E+00 0.  1.
         11    1    4    4    0    0 -0.24706421051E+02 -0.53914421698E+02 -0.49793336630E+01  0.59514417345E+02  0.00000000000E+00 0. -1.
</event>
<event>
 8    1  0.4798744E-006  0.1710071E+03  0.7561462E-02  0.1176802E+00
          2   -1    0    0  501    0  0.00000000000E+00  0.00000000000E+00  0.41498418295E+03  0.41498418295E+03  0.00000000000E+00 0.  1.
         -2   -1    0    0    0  501 -0.00000000000E+00 -0.00000000000E+00 -0.79258954379E+02  0.79258954379E+02  0.00000000000E+00 0. -1.
         23    2    1    2    0    0 -0.87876473570E+02  0.99582401163E+02  0.98208044073E+02  0.20719504589E+03  0.12508412327E+03 0.  0.
         23    2    1    2    0    0  0.87876473570E+02 -0.99582401163E+02  0.23751718450E+03  0.28704809143E+03  0.91341472711E+02 0.  0.
          5    1    3    3  502    0 -0.12004377843E+03  0.74951436524E+02  0.79479565138E+02  0.16236594548E+03  0.41800000000E+01 0. -1.
         -5    1    3    3    0  502  0.32167304858E+02  0.24630964639E+02  0.18728478936E+02  0.44829100416E+02  0.41800000000E+01 0. -1.
        -11    1    4    4    0    0  0.42652175917E+02 -0.10577955992E+03  0.18631177548E+03  0.21845045454E+03  0.00000000000E+00 0.  1.
         11    1    4    4    0    0  0.45224297652E+02  0.61971587553E+01  0.51205409014E+02  0.68597636891E+02  0.00000000000E+00 0. -1.
</event>
<event>
 8    1  0.4798744E-006  0.1076741E+03  0.7561462E-02  0.1264939E+00
         -1   -1    0    0    0  501 -0.00000000000E+00  0.00000000000E+00  0.10599922680E+03  0.10599922680E+03  0.00000000000E+00 0.  1.
          1   -1    0    0  501    0  0.00000000000E+00 -0.00000000000E+00 -0.18835551789E+03  0.18835551789E+03  0.00000000000E+00 0. -1.
         23    2    1    2    0    0 -0.38091705294E+02 -0.62565533289E+02  0.10034990218E+02  0.14530531453E+03  0.12509000534E+03 0.  0.
         23    2    1    2    0    0  0.38091705294E+02  0.62565533289E+02 -0.92391281312E+02  0.14904943016E+03  0.91182014676E+02 0.  0.
          5    1    3    3  502    0 -0.14032594014E+02 -0.71045520802E+02  0.56625924017E+02  0.92023624095E+02  0.41800000000E+01 0. -1.
         -5    1    3    3    0  502 -0.24059111280E+02  0.84799875137E+01 -0.46590933799E+02  0.53281690439E+02  0.41800000000E+01 0. -1.
        -11    1    4    4    0    0 -0.25471901205E+02  0.43827111157E+02 -0.40142375058E+02  0.64660990548E+02  0.00000000000E+00 0.  1.
         11    1    4    4    0    0  0.63563606499E+02  0.18738422132E+02 -0.52248906254E+02  0.84388439611E+02  0.00000000000E+00 0. -1.
</event>
<event>
 8    1  0.4798744E-006  0.1060082E+03  0.7561462E-02  0.1268146E+00
         -1   -1    0    0    0  501 -0.00000000000E+00  0.00000000000E+00  0.26234424806E+02  0.26234424806E+02  0.00000000000E+00 0.  1.
          1   -1    0    0  501    0  0.00000000000E+00 -0.00000000000E+00 -0.51362247621E+03  0.51362247621E+03  0.00000000000E+00 0. -1.
         23    2    1    2    0    0 -0.63881824813E+01 -0.57781047594E+02 -0.26528398626E+03  0.29900196655E+03  0.12508846589E+03 0.  0.
         23    2    1    2    0    0  0.63881824813E+01  0.57781047594E+02 -0.22210406514E+03  0.24085493446E+03  0.72810887693E+02 0.  0.
          5    1    3    3  502    0  0.40239789973E+02 -0.60373441454E+02 -0.80898275368E+02  0.10874831717E+03  0.41800000000E+01 0.  1.
         -5    1    3    3    0  502 -0.46627972454E+02  0.25923938599E+01 -0.18438571090E+03  0.19025364938E+03  0.41800000000E+01 0.  1.
        -11    1    4    4    0    0  0.38571909146E+02  0.22310624223E+02 -0.12200426729E+03  0.12988686371E+03  0.00000000000E+00 0.  1.
         11    1    4    4    0    0 -0.32183726664E+02  0.35470423371E+02 -0.10009979785E+03  0.11096807075E+03  0.00000000000E+00 0. -1.
</event>
<event>
 8    1  0.5752744E-006  0.1662223E+03  0.7561462E-02  0.1181846E+00
          2   -1    0    0  501    0  0.00000000000E+00  0.00000000000E+00  0.14890217976E+03  0.14890217976E+03  0.00000000000E+00 0. -1.
         -2   -1    0    0    0  501 -0.00000000000E+00 -0.00000000000E+00 -0.21355332699E+03  0.21355332699E+03  0.00000000000E+00 0.  1.
         23    2    1    2    0    0  0.38940428335E+02  0.13306549232E+03 -0.61399405101E+02  0.19657200888E+03  0.12509150860E+03 0.  0.
         23    2    1    2    0    0 -0.38940428335E+02 -0.13306549232E+03 -0.32517421353E+01  0.16588349786E+03  0.91016365736E+02 0.  0.
          5    1    3    3  502    0  0.24443161202E+02  0.15670323912E+03 -0.53641015275E+02  0.16747598096E+03  0.41800000000E+01 0. -1.
         -5    1    3    3    0  502  0.14497267133E+02 -0.23637746799E+02 -0.77583898253E+01  0.29096027921E+02  0.41800000000E+01 0. -1.
        -11    1    4    4    0    0 -0.40985176115E+02 -0.60043032424E+02  0.37957608640E+02  0.82010550892E+02  0.00000000000E+00 0. -1.
         11    1    4    4    0    0  0.20447477805E+01 -0.73022459895E+02 -0.41209350775E+02  0.83872946972E+02  0.00000000000E+00 0.  1.
</event>
<event>
 8    1  0.4798744E-006  0.1944167E+03  0.7561462E-02  0.1154537E+00
          1   -1    0    0  501    0  0.00000000000E+00  0.00000000000E+00  0.36194337824E+03  0.36194337824E+03  0.00000000000E+00 0. -1.
         -1   -1    0    0    0  501 -0.00000000000E+00 -0.00000000000E+00 -0.11166152736E+03  0.11166152736E+03  0.00000000000E+00 0.  1.
         23    2    1    2    0    0  0.12196020293E+03 -0.11612411235E+03  0.78072353572E+02  0.21974665791E+03  0.11761887902E+03 0.  0.
         23    2    1    2    0    0 -0.12196020293E+03  0.11612411235E+03  0.17220949731E+03  0.25385824770E+03  0.80179787926E+02 0.  0.
          5    1    3    3  502    0 -0.21067176050E+02 -0.30294136597E+02  0.24547816190E+02  0.44515483806E+02  0.41800000000E+01 0. -1.
         -5    1    3    3    0  502  0.14302737898E+03 -0.85829975755E+02  0.53524537382E+02  0.17523117410E+03  0.41800000000E+01 0.  1.
        -11    1    4    4    0    0  0.57543347799E+01  0.30599430193E+02  0.42815644546E+02  0.52939747967E+02  0.00000000000E+00 0.  1.
         11    1    4    4    0    0 -0.12771453771E+03  0.85524682158E+02  0.12939385276E+03  0.20091849973E+03  0.00000000000E+00 0. -1.
</event>
<event>
 8    1  0.4798744E-006  0.1170042E+03  0.7561462E-02  0.1248123E+00
         -2   -1    0    0    0  501 -0.00000000000E+00  0.00000000000E+00  0.41779887549E+02  0.41779887549E+02  0.00000000000E+00 0.  1.
          2   -1    0    0  501    0  0.00000000000E+00 -0.00000000000E+00 -0.39982642610E+03  0.39982642610E+03  0.00000000000E+00 0. -1.
         23    2    1    2    0    0  0.16135145629E+01  0.68893936048E+02 -0.18857802455E+03  0.23655406115E+03  0.12508866714E+03 0.  0.
         23    2    1    2    0    0 -0.16135145629E+01 -0.68893936048E+02 -0.16946851399E+03  0.20505225250E+03  0.92616797432E+02 0.  0.
          5    1    3    3  502    0 -0.55391046953E+02  0.34250117566E+02 -0.48370188689E+02  0.81230451123E+02  0.41800000000E+01 0. -1.
         -5    1    3    3    0  502  0.57004561516E+02  0.34643818482E+02 -0.14020783586E+03  0.15532361002E+03  0.41800000000E+01 0. -1.
        -11    1    4    4    0    0  0.13546697342E+02 -0.81239648430E+02 -0.16584226439E+03  0.18516762715E+03  0.00000000000E+00 0. -1.
         11    1    4    4    0    0 -0.15160211905E+02  0.12345712383E+02 -0.36262496068E+01  0.19884625353E+02  0.00000000000E+00 0.  1.
</event>
<event>
 7    1  0.4798744E-006  0.1426319E+03  0.7561462E-02  0.1209831E+00
         -2   -1    0    0    0  501 -0.00000000000E+00  0.00000000000E+00  0.11837389461E+03  0.11837389461E+03  0.00000000000E+00 0. -1.
          2   -1    0    0  501    0  0.00000000000E+00 -0.00000000000E+00 -0.54739623624E+03  0.54739623624E+03  0.00000000000E+00 0.  1.
         23    2    1    2    0    0  0.17981604350E+02 -0.12340075242E+03 -0.41423722971E+03  0.43733533418E+03  0.64176539740E+02 0.  0.
          5    1    1    2  502    0 -0.31823207037E+02  0.13013933373E+03  0.63657188825E+02  0.14838690232E+03  0.41800000000E+01 0. -1.
         -5    1    1    2    0  502  0.13841602687E+02 -0.67385813136E+01 -0.78442300753E+02  0.80047894354E+02  0.41800000000E+01 0.  1.
        -11    1    3    3    0    0  0.31658060658E+02 -0.11487292770E+03 -0.39305067197E+03  0.41071505093E+03  0.00000000000E+00 0.  1.
         11    1    3    3    0    0 -0.13676456309E+02 -0.85278247176E+01 -0.21186557741E+02  0.26620283253E+02  0.00000000000E+00 0. -1.
</event>
<event>
 7    1  0.4798744E-006  0.1296179E+03  0.7561462E-02  0.1228024E+00
         -2   -1    0    0    0  501 -0.00000000000E+00  0.00000000000E+00  0.31600762435E+02  0.31600762435E+02  0.00000000000E+00 0.  1.
          2   -1    0    0  501    0  0.00000000000E+00 -0.00000000000E+00 -0.57206772695E+03  0.57206772695E+03  0.00000000000E+00 0. -1.
         23    2    1    2    0    0 -0.23014468583E+02  0.48880890130E+02 -0.28416050677E+03  0.30380526200E+03  0.92905524207E+02 0.  0.
          5    1    1    2  502    0  0.77683334511E+02 -0.57855014205E+02 -0.19041208918E+03  0.21367297263E+03  0.41800000000E+01 0. -1.
         -5    1    1    2    0  502 -0.54668865928E+02  0.89741240746E+01 -0.65894368564E+02  0.86190254746E+02  0.41800000000E+01 0.  1.
        -11    1    3    3    0    0 -0.55502449508E+02  0.10576782178E+02 -0.16814892848E+03  0.17738785858E+03  0.00000000000E+00 0.  1.
         11    1    3    3    0    0  0.32487980925E+02  0.38304107952E+02 -0.11601157830E+03  0.12641740343E+03  0.00000000000E+00 0. -1.
</event>
<event>
 8    1  0.4798744E-006  0.1129589E+03  0.7561462E-02  0.1255187E+00
          2   -1    0    0  501    0  0.00000000000E+00  0.00000000000E+00  0.57561532109E+02  0.57561532109E+02  0.00000000000E+00 0. -1.
         -2   -1    0    0    0  501 -0.00000000000E+00 -0.00000000000E+00 -0.23790086475E+03  0.23790086475E+03  0.00000000000E+00 0.  1.
         23    2    1    2    0    0  0.35267012651E+02  0.26926104283E+02 -0.94926603960E+02  0.16317915159E+03  0.12509035975E+03 0.  0.
         23    2    1    2    0    0 -0.35267012651E+02 -0.26926104283E+02 -0.85412728677E+02  0.13228324526E+03  0.90745498425E+02 0.  0.
          5    1    3    3  502    0  0.75235723897E+02 -0.37277033338E+01 -0.81128328128E+02  0.11078622634E+03  0.41800000000E+01 0. -1.
         -5    1    3    3    0  502 -0.39968711246E+02  0.30653807617E+02 -0.13798275832E+02  0.52392925248E+02  0.41800000000E+01 0. -1.
        -11    1    4    4    0    0  0.34118594630E+01 -0.53111900387E+02 -0.55064500556E+02  0.76580767620E+02  0.00000000000E+00 0.  1.
         11    1    4    4    0    0 -0.38678872114E+02  0.26185796104E+02 -0.30348228121E+02  0.55702477644E+02  0.00000000000E+00 0. -1.
</event>
<event>
 8    1  0.4798744E-006  0.1010009E+03  0.7561462E-02  0.1278205E+00
         -2   -1    0    0    0  501 -0.00000000000E+00  0.00000000000E+00  0.13024585013E+03  0.13024585013E+03  0.00000000000E+00 0.  1.
          2   -1    0    0  501    0  0.00000000000E+00 -0.00000000000E+00 -0.18203061468E+03  0.18203061468E+03  0.00000000000E+00 0. -1.
         23    2    1    2    0    0  0.79395042114E+02  0.17116545895E+02  0.45816327635E+02  0.15602287295E+03  0.12508977636E+03 0.  0.
         23    2    1    2    0    0 -0.79395042114E+02 -0.17116545895E+02 -0.97601092183E+02  0.15625359185E+03  0.91064059412E+02 0.  0.
          5    1    3    3  502    0  0.39796420088E+02 -0.65279923038E+01 -0.40978654329E+02  0.57646268274E+02  0.41800000000E+01 0.  1.
         -5    1    3    3    0  502  0.39598622026E+02  0.23644538199E+02  0.86794981963E+02  0.98376604673E+02  0.41800000000E+01 0.  1.
        -11    1    4    4    0    0  0.11910926079E+02 -0.20577549965E+02 -0.17671744342E+01  0.23841741298E+02  0.00000000000E+00 0.  1.
         11    1    4    4    0    0 -0.91305968193E+02  0.34610040704E+01 -0.95833917749E+02  0.13241185056E+03  0.00000000000E+00 0. -1.
</event>
<event>
 8    1  0.4798744E-006  0.2114620E+03  0.7561462E-02  0.1140413E+00
          1   -1    0    0  501    0  0.00000000000E+00  0.00000000000E+00  0.11721940980E+04  0.11721940980E+04  0.00000000000E+00 0. -1.
         -1   -1    0    0    0  501 -0.00000000000E+00 -0.00000000000E+00 -0.51108805525E+02  0.51108805525E+02  0.00000000000E+00 0.  1.
         23    2    1    2    0    0  0.20177974955E+03  0.56568523468E+02  0.41922318537E+03  0.48508886223E+03  0.12509220572E+03 0.  0.
         23    2    1    2    0    0 -0.20177974955E+03 -0.56568523468E+02  0.70186210713E+03  0.73821404133E+03  0.91839469745E+02 0.  0.
          5    1    3    3  502    0  0.14924871574E+03  0.54314876657E+02  0.17986413008E+03  0.23998721354E+03  0.41800000000E+01 0. -1.
         -5    1    3    3    0  502  0.52531033811E+02  0.22536468108E+01  0.23935905529E+03  0.24510164869E+03  0.41800000000E+01 0. -1.
        -11    1    4    4    0    0 -0.75510842089E+02 -0.34894231346E+02  0.42611001432E+03  0.43415347397E+03  0.00000000000E+00 0. -1.
         11    1    4    4    0    0 -0.12626890746E+03 -0.21674292122E+02  0.27575209281E+03  0.30406056736E+03  0.00000000000E+00 0.  1.
</event>
<event>
 8    1  0.4798744E-006  0.1227197E+03  0.7561462E-02  0.1238677E+00
          1   -1    0    0  501    0  0.00000000000E+00  0.00000000000E+00  0.15974022052E+02  0.15974022052E+02  0.00000000000E+00 0. -1.
         -1   -1    0    0    0  501 -0.00000000000E+00 -0.00000000000E+00 -0.14329374564E+04  0.14329374564E+04  0.00000000000E+00 0.  1.
         23    2    1    2    0    0 -0.36394378793E+02 -0.90674796394E+02 -0.91830878268E+03  0.93192577342E+03  0.12509259500E+03 0.  0.
         23    2    1    2    0    0  0.36394378793E+02  0.90674796394E+02 -0.49865465166E+03  0.51698570502E+03  0.95243309791E+02 0.  0.
          5    1    3    3  502    0 -0.40772707379E+02 -0.27511114133E+02 -0.75666988799E+03  0.75827835710E+03  0.41800000000E+01 0.  1.
         -5    1    3    3    0  502  0.43783285856E+01 -0.63163682261E+02 -0.16163889469E+03  0.17364741632E+03  0.41800000000E+01 0.  1.
        -11    1    4    4    0    0  0.64939062509E+02  0.77710863055E+02 -0.42569638654E+03  0.43757682022E+03  0.00000000000E+00 0.  1.
         11    1    4    4    0    0 -0.28544683715E+02  0.12963933339E+02 -0.72958265121E+02  0.79408884802E+02  0.00000000000E+00 0. -1.
</event>
<event>
 8    1  0.4798744E-006  0.1142942E+03  0.7561462E-02  0.1252818E+00
         -1   -1    0    0    0  501 -0.00000000000E+00  0.00000000000E+00  0.35842050374E+03  0.35842050374E+03  0.00000000000E+00 0.  1.
          1   -1    0    0  501    0  0.00000000000E+00 -0.00000000000E+00 -0.51726708300E+02  0.51726708300E+02  0.00000000000E+00 0. -1.
         23    2    1    2    0    0 -0.14088163245E+02  0.74182066188E+02  0.21705658669E+03  0.26165487993E+03  0.12509300170E+03 0.  0.
         23    2    1    2    0    0  0.14088163245E+02 -0.74182066188E+02  0.89637208748E+02  0.14849233211E+03  0.91179428695E+02 0.  0.
          5    1    3    3  502    0  0.52090853171E+02  0.48232589705E+02  0.13807724746E+03  0.15531464310E+03  0.41800000000E+01 0.  1.
         -5    1    3    3    0  502 -0.66179016416E+02  0.25949476482E+02  0.78979339233E+02  0.10634023683E+03  0.41800000000E+01 0.  1.
        -11    1    4    4    0    0 -0.10902944138E+02 -0.51087418616E+02  0.10008416755E+03  0.11289658598E+03  0.00000000000E+00 0.  1.
         11    1    4    4    0    0  0.24991107383E+02 -0.23094647572E+02 -0.10446958802E+02  0.35595746135E+02  0.00000000000E+00 0. -1.
</event>
<event>
 7    1  0.4798744E-006  0.1541720E+03  0.7561462E-02  0.1195438E+00
          1   -1    0    0  501    0  0.00000000000E+00  0.00000000000E+00  0.11527677535E+03  0.11527677535E+03  0.00000000000E+00 0. -1.
         -1   -1    0    0    0  501 -0.00000000000E+00 -0.00000000000E+00 -0.35609132188E+03  0.35609132188E+03  0.00000000000E+00 0.  1.
         23    2    1    2    0    0 -0.66560020267E+02  0.10298415533E+02  0.42160648440E+02  0.12057991314E+03  0.90695653234E+02 0.  0.
          5    1    1    2  502    0 -0.57141216031E+02  0.41714895120E+02 -0.12284813753E+03  0.14182520347E+03  0.41800000000E+01 0. -1.
         -5    1    1    2    0  502  0.12370123630E+03 -0.52013310653E+02 -0.16012705744E+03  0.20896298063E+03  0.41800000000E+01 0.  1.
        -11    1    3    3    0    0  0.13167888037E+02  0.18890103172E+02 -0.98022642291E+01  0.25026259353E+02  0.00000000000E+00 0.  1.
         11    1    3    3    0    0 -0.79727908304E+02 -0.85916876387E+01  0.51962912669E+02  0.95553653787E+02  0.00000000000E+00 0. -1.
</event>
<event>
 8    1  0.4798744E-006  0.9794388E+02  0.7561462E-02  0.1284680E+00
          2   -1    0    0  501    0  0.00000000000E+00  0.00000000000E+00  0.13669430605E+03  0.13669430605E+03  0.00000000000E+00 0. -1.
         -2   -1    0    0    0  501 -0.00000000000E+00 -0.00000000000E+00 -0.12123562867E+03  0.12123562867E+03  0.00000000000E+00 0.  1.
         23    2    1    2    0    0  0.53978959143E+02 -0.23099710250E+02 -0.22480499532E+02  0.13998398135E+03  0.12507124982E+03 0.  0.
         23    2    1    2    0    0 -0.53978959143E+02  0.23099710250E+02  0.37939176919E+02  0.11794595337E+03  0.94997590117E+02 0.  0.
          5    1    3    3  502    0 -0.16616196710E+02  0.39260112823E+02  0.88702504365E+00  0.42845229202E+02  0.41800000000E+01 0.  1.
         -5    1    3    3    0  502  0.70595155853E+02 -0.62359823072E+02 -0.23367524576E+02  0.97138752145E+02  0.41800000000E+01 0.  1.
        -11    1    4    4    0    0 -0.13927564290E+02  0.71430180912E+01  0.65123508217E+02  0.66978138799E+02  0.00000000000E+00 0. -1.
         11    1    4    4    0    0 -0.40051394853E+02  0.15956692158E+02 -0.27184331298E+02  0.50967814574E+02  0.00000000000E+00 0.  1.
</event>
<event>
 8    1  0.4798744E-006  0.1428624E+03  0.7561462E-02  0.1209528E+00
         -4   -1    0    0    0  501 -0.00000000000E+00  0.00000000000E+00  0.28097122874E+03  0.28097122874E+03  0.00000000000E+00 0.  1.
          4   -1    0    0  501    0  0.00000000000E+00 -0.00000000000E+00 -0.92035346661E+02  0.92035346661E+02  0.00000000000E+00 0. -1.
         23    2    1    2    0    0 -0.91852116014E+02 -0.67039110993E+02  0.12691505216E+03  0.21137332519E+03  0.12506077930E+03 0.  0.
         23    2    1    2    0    0  0.91852116014E+02  0.67039110993E+02  0.62020829919E+02  0.16163325021E+03  0.96683352296E+02 0.  0.
          5    1    3    3  502    0 -0.14081420397E+02 -0.63102777707E+02  0.28713540218E+01  0.64853404141E+02  0.41800000000E+01 0.  1.
         -5    1    3    3    0  502 -0.77770695617E+02 -0.39363332857E+01  0.12404369814E+03  0.14651992105E+03  0.41800000000E+01 0.  1.
        -11    1    4    4    0    0  0.55981872128E+02 -0.11011071200E+02  0.48078869734E+02  0.74610933587E+02  0.00000000000E+00 0.  1.
         11    1    4    4    0    0  0.35870243886E+02  0.78050182193E+02  0.13941960185E+02  0.87022316624E+02  0.00000000000E+00 0. -1.
</event>
<event>
 8    1  0.4798744E-006  0.9227563E+02  0.7561462E-02  0.1297433E+00
         -2   -1    0    0    0  501 -0.00000000000E+00  0.00000000000E+00  0.97417423053E+03  0.97417423053E+03  0.00000000000E+00 0.  1.
          2   -1    0    0  501    0  0.00000000000E+00 -0.00000000000E+00 -0.14117904417E+02  0.14117904417E+02  0.00000000000E+00 0. -1.
         23    2    1    2    0    0 -0.39257891724E+02 -0.98946295260E+01  0.62641672609E+03  0.64006646961E+03  0.12509230605E+03 0.  0.
         23    2    1    2    0    0  0.39257891724E+02  0.98946295260E+01  0.33363960002E+03  0.34822566534E+03  0.91140800643E+02 0.  0.
          5    1    3    3  502    0 -0.40834905073E+02  0.26103618628E+02  0.57548595244E+03  0.57753826040E+03  0.41800000000E+01 0.  1.
         -5    1    3    3    0  502  0.15770133487E+01 -0.35998248154E+02  0.50930773655E+02  0.62528209205E+02  0.41800000000E+01 0.  1.
        -11    1    4    4    0    0  0.19691188365E+01 -0.38492819104E+02  0.13661075349E+03  0.14194390625E+03  0.00000000000E+00 0.  1.
         11    1    4    4    0    0  0.37288772887E+02  0.48387448630E+02  0.19702884653E+03  0.20628175909E+03  0.00000000000E+00 0. -1.
</event>
<event>
 8    1  0.4798744E-006  0.1460791E+03  0.7561462E-02  0.1205375E+00
          1   -1    0    0  501    0  0.00000000000E+00  0.00000000000E+00  0.11379364419E+04  0.11379364419E+04  0.00000000000E+00 0. -1.
         -1   -1    0    0    0  501 -0.00000000000E+00 -0.00000000000E+00 -0.25257614068E+02  0.25257614068E+02  0.00000000000E+00 0.  1.
         23    2    1    2    0    0  0.12100461177E+03 -0.47254268790E+02  0.53150027413E+03  0.56126145946E+03  0.12508717956E+03 0.  0.
         23    2    1    2    0    0 -0.12100461177E+03  0.47254268790E+02  0.58117855369E+03  0.60193259649E+03  0.87631372603E+02 0.  0.
          5    1    3    3  502    0  0.40389507746E+02  0.24415504045E+01  0.38253977127E+03  0.38469653301E+03  0.41800000000E+01 0. -1.
         -5    1    3    3    0  502  0.80615104021E+02 -0.49695819194E+02  0.14896050286E+03  0.17656492645E+03  0.41800000000E+01 0. -1.
        -11    1    4    4    0    0 -0.10628115403E+03 -0.94730626878E+00  0.39063081801E+03  0.40483208504E+03  0.00000000000E+00 0.  1.
         11    1    4    4    0    0 -0.14723457734E+02  0.48201575059E+02  0.19054773567E+03  0.19710051145E+03  0.00000000000E+00 0. -1.
</event>
<event>
 8    1  0.4798744E-006  0.1330489E+03  0.7561462E-02  0.1223001E+00
          2   -1    0    0  501    0  0.00000000000E+00  0.00000000000E+00  0.15783173681E+03  0.15783173681E+03  0.00000000000E+00 0. -1.
         -2   -1    0    0    0  501 -0.00000000000E+00 -0.00000000000E+00 -0.15971881822E+03  0.15971881822E+03  0.00000000000E+00 0.  1.
         23    2    1    2    0    0 -0.97432773117E+02 -0.48595712572E+02 -0.39204511402E+02  0.17040816847E+03  0.12508901475E+03 0.  0.
         23    2    1    2    0    0  0.97432773117E+02  0.48595712572E+02  0.37317429999E+02  0.14714238656E+03  0.91671166586E+02 0.  0.
          5    1    3    3  502    0 -0.10362327539E+03 -0.64471149360E+02  0.56499121021E+01  0.12224445267E+03  0.41800000000E+01 0. -1.
         -5    1    3    3    0  502  0.61905022741E+01  0.15875436789E+02 -0.44854423504E+02  0.48163715798E+02  0.41800000000E+01 0. -1.
        -11    1    4    4    0    0  0.17383677895E+02  0.42782232739E+02 -0.18110144159E+02  0.49603316590E+02  0.00000000000E+00 0.  1.
         11    1    4    4    0    0  0.80049095222E+02  0.58134798329E+01  0.55427574158E+02  0.97539069970E+02  0.00000000000E+00 0. -1.
</event>
<event>
 8    1  0.4798744E-006  0.8833180E+02  0.7561462E-02  0.1306943E+00
         -2   -1    0    0    0  501 -0.00000000000E+00  0.00000000000E+00  0.28126252824E+03  0.28126252824E+03  0.00000000000E+00 0.  1.
          2   -1    0    0  501    0  0.00000000000E+00 -0.00000000000E+00 -0.51540698483E+02  0.51540698483E+02  0.00000000000E+00 0. -1.
         23    2    1    2    0    0 -0.42477523351E+02 -0.19969376323E+02  0.15841490965E+03  0.20723311596E+03  0.12508862765E+03 0.  0.
         23    2    1    2    0    0  0.42477523351E+02  0.19969376323E+02  0.71306920106E+02  0.12557011077E+03  0.92087240609E+02 0.  0.
          5    1    3    3  502    0 -0.61982490086E+02  0.20319577538E+02  0.31432160370E+02  0.72527011617E+02  0.41800000000E+01 0.  1.
         -5    1    3    3    0  502  0.19504966735E+02 -0.40288953861E+02  0.12698274928E+03  0.13470610434E+03  0.41800000000E+01 0.  1.
        -11    1    4    4    0    0  0.16842577868E+02  0.33398781735E+02 -0.10454032525E+02  0.38838612831E+02  0.00000000000E+00 0. -1.
         11    1    4    4    0    0  0.25634945483E+02 -0.13429405412E+02  0.81760952631E+02  0.86731497939E+02  0.00000000000E+00 0.  1.
</event>
<event>
 8    1  0.4798744E-006  0.2007700E+03  0.7561462E-02  0.1149091E+00
          1   -1    0    0  501    0  0.00000000000E+00  0.00000000000E+00  0.14410329444E+04  0.14410329444E+04  0.00000000000E+00 0. -1.
         -1   -1    0    0    0  501 -0.00000000000E+00 -0.00000000000E+00 -0.28052782504E+02  0.28052782504E+02  0.00000000000E+00 0.  1.
         23    2    1    2    0    0 -0.16791438562E+03 -0.43901908365E+00  0.75631912999E+03  0.78476802726E+03  0.12508715592E+03 0.  0.
         23    2    1    2    0    0  0.16791438562E+03  0.43901908365E+00  0.65666103193E+03  0.68431769968E+03  0.94295119687E+02 0.  0.
          5    1    3    3  502    0 -0.95290865176E+01 -0.43873688084E+02  0.16000020549E+03  0.16623249428E+03  0.41800000000E+01 0.  1.
         -5    1    3    3    0  502 -0.15838529910E+03  0.43434669000E+02  0.59631892450E+03  0.61853553298E+03  0.41800000000E+01 0.  1.
        -11    1    4    4    0    0  0.17498140307E+03 -0.14556481211E+02  0.58614703221E+03  0.61188130052E+03  0.00000000000E+00 0.  1.
         11    1    4    4    0    0 -0.70670174555E+01  0.14995500294E+02  0.70513999728E+02  0.72436399154E+02  0.00000000000E+00 0. -1.
</event>
<event>
 8    1  0.4798744E-006  0.1280634E+03  0.7561462E-02  0.1230358E+00
         -1   -1    0    0    0  501 -0.00000000000E+00  0.00000000000E+00  0.14925539421E+03  0.14925539421E+03  0.00000000000E+00 0.  1.
          1   -1    0    0  501    0  0.00000000000E+00 -0.00000000000E+00 -0.15106794696E+03  0.15106794696E+03  0.00000000000E+00 0. -1.
         23    2    1    2    0    0  0.84534386624E+02  0.54946221318E+02  0.16837559238E+02  0.16154000778E+03  0.12508605419E+03 0.  0.
         23    2    1    2    0    0 -0.84534386624E+02 -0.54946221318E+02 -0.18650111989E+02  0.13878333340E+03  0.93529873266E+02 0.  0.
          5    1    3    3  502    0  0.86869971797E+02 -0.12211502920E+02 -0.11341130770E+02  0.88552845525E+02  0.41800000000E+01 0.  1.
         -5    1    3    3    0  502 -0.23355851729E+01  0.67157724237E+02  0.28178690008E+02  0.72987162251E+02  0.41800000000E+01 0.  1.
        -11    1    4    4    0    0 -0.43109482286E+02 -0.31323907009E+02 -0.56674729727E+02  0.77792284983E+02  0.00000000000E+00 0. -1.
         11    1    4    4    0    0 -0.41424904338E+02 -0.23622314309E+02  0.38024617738E+02  0.60991048415E+02  0.00000000000E+00 0.  1.
</event>
<event>
 8    1  0.4798744E-006  0.9212300E+02  0.7561462E-02  0.1297790E+00
          1   -1    0    0  501    0  0.00000000000E+00  0.00000000000E+00  0.29003447876E+02  0.29003447876E+02  0.00000000000E+00 0. -1.
         -1   -1    0    0    0  501 -0.00000000000E+00 -0.00000000000E+00 -0.60201734766E+03  0.60201734766E+03  0.00000000000E+00 0.  1.
         23    2    1    2    0    0 -0.61924915057E+01 -0.11190126197E+02 -0.48993053318E+03  0.50581068196E+03  0.12509577440E+03 0.  0.
         23    2    1    2    0    0  0.61924915057E+01  0.11190126197E+02 -0.83083366608E+02  0.12521011357E+03  0.92796340762E+02 0.  0.
          5    1    3    3  502    0  0.20786325091E+02  0.51649733568E+02 -0.18307351171E+03  0.19139788238E+03  0.41800000000E+01 0. -1.
         -5    1    3    3    0  502 -0.26978816597E+02 -0.62839859764E+02 -0.30685702147E+03  0.31441279959E+03  0.41800000000E+01 0. -1.
        -11    1    4    4    0    0 -0.18798656535E+02 -0.14738778386E+02 -0.85831308092E+02  0.89093403373E+02  0.00000000000E+00 0.  1.
         11    1    4    4    0    0  0.24991148041E+02  0.25928904583E+02  0.27479414841E+01  0.36116710200E+02  0.00000000000E+00 0. -1.
</event>
<event>
 8    1  0.4798744E-006  0.1224402E+03  0.7561462E-02  0.1239125E+00
         -1   -1    0    0    0  501 -0.00000000000E+00  0.00000000000E+00  0.12756623045E+03  0.12756623045E+03  0.00000000000E+00 0.  1.
          1   -1    0    0  501    0  0.00000000000E+00 -0.00000000000E+00 -0.14646508018E+03  0.14646508018E+03  0.00000000000E+00 0. -1.
         23    2    1    2    0    0 -0.64136975594E+02 -0.21764786065E+02  0.45932794234E+02  0.14255177357E+03  0.11672158760E+03 0.  0.
         23    2    1    2    0    0  0.64136975594E+02  0.21764786065E+02 -0.64831643972E+02  0.13147953706E+03  0.92176293345E+02 0.  0.
          5    1    3    3  502    0  0.31830724884E+02 -0.13200062210E+02 -0.21731383238E+01  0.34779758757E+02  0.41800000000E+01 0. -1.
         -5    1    3    3    0  502 -0.95967700478E+02 -0.85647238547E+01  0.48105932558E+02  0.10777201481E+03  0.41800000000E+01 0.  1.
        -11    1    4    4    0    0 -0.14197551599E+02  0.31731491084E+02 -0.13480194949E+02  0.37285032569E+02  0.00000000000E+00 0.  1.
         11    1    4    4    0    0  0.78334527193E+02 -0.99667050196E+01 -0.51351449023E+02  0.94194504491E+02  0.00000000000E+00 0. -1.
</event>
<event>
 8    1  0.4798744E-006  0.1027464E+03  0.7561462E-02  0.1274624E+00
         -1   -1    0    0    0  501 -0.00000000000E+00  0.00000000000E+00  0.12006778516E+03  0.12006778516E+03  0.00000000000E+00 0.  1.
          1   -1    0    0  501    0  0.00000000000E+00 -0.00000000000E+00 -0.10663201193E+03  0.10663201193E+03  0.00000000000E+00 0. -1.
         23    2    1    2    0    0  0.95289325060E+01  0.63550386835E+01  0.37756520194E+02  0.13116360498E+03  0.12508856616E+03 0.  0.
         23    2    1    2    0    0 -0.95289325060E+01 -0.63550386835E+01 -0.24320746971E+02  0.95536192105E+02  0.91675941213E+02 0.  0.
          5    1    3    3  502    0 -0.39418475405E+01  0.63279877884E+02  0.34793430783E+02  0.72442641674E+02  0.41800000000E+01 0.  1.
         -5    1    3    3    0  502  0.13470780047E+02 -0.56924839200E+02  0.29630894108E+01  0.58720963309E+02  0.41800000000E+01 0.  1.
        -11    1    4    4    0    0  0.21130181068E+02  0.29400613782E+02  0.96420231114E+01  0.37467976358E+02  0.00000000000E+00 0.  1.
         11    1    4    4    0    0 -0.30659113574E+02 -0.35755652466E+02 -0.33962770082E+02  0.58068215747E+02  0.00000000000E+00 0. -1.
</event>
<event>
 8    1  0.4798744E-006  0.1266119E+03  0.7561462E-02  0.1232571E+00
          2   -1    0    0  501    0  0.00000000000E+00  0.00000000000E+00  0.19260345043E+03  0.19260345043E+03  0.00000000000E+00 0. -1.
         -2   -1    0    0    0  501 -0.00000000000E+00 -0.00000000000E+00 -0.20733476014E+03  0.20733476014E+03  0.00000000000E+00 0.  1.
         23    2    1    2    0    0 -0.48358329738E+02  0.74376390386E+02 -0.14612069400E+03  0.21182385194E+03  0.12509081314E+03 0.  0.
         23    2    1    2    0    0  0.48358329738E+02 -0.74376390386E+02  0.13138938429E+03  0.18811435864E+03  0.10125940016E+03 0.  0.
          5    1    3    3  502    0 -0.90462224762E+02  0.45309981243E+02 -0.86759920396E+02  0.13334603367E+03  0.41800000000E+01 0. -1.
         -5    1    3    3    0  502  0.42103895025E+02  0.29066409143E+02 -0.59360773603E+02  0.78477818264E+02  0.41800000000E+01 0. -1.
        -11    1    4    4    0    0  0.28155302111E+01 -0.47833506296E+02  0.15040164689E+01  0.47939895708E+02  0.00000000000E+00 0.  1.
         11    1    4    4    0    0  0.45542799527E+02 -0.26542884090E+02  0.12988536782E+03  0.14017446293E+03  0.00000000000E+00 0. -1.
</event>
<event>
 8    1  0.4798744E-006  0.1390680E+03  0.7561462E-02  0.1214589E+00
         -2   -1    0    0    0  501 -0.00000000000E+00  0.00000000000E+00  0.95120254740E+02  0.95120254740E+02  0.00000000000E+00 0.  1.
          2   -1    0    0  501    0  0.00000000000E+00 -0.00000000000E+00 -0.27862815375E+03  0.27862815375E+03  0.00000000000E+00 0. -1.
         23    2    1    2    0    0  0.98403761037E+02  0.22907692918E+02 -0.25149984757E+02  0.16275214897E+03  0.12509067782E+03 0.  0.
         23    2    1    2    0    0 -0.98403761037E+02 -0.22907692918E+02 -0.15835791425E+03  0.21099625952E+03  0.96094380404E+02 0.  0.
          5    1    3    3  502    0 -0.14795760443E+02  0.28440897900E+02  0.22860978639E+02  0.39596665829E+02  0.41800000000E+01 0.  1.
         -5    1    3    3    0  502  0.11319952148E+03 -0.55332049818E+01 -0.48010963395E+02  0.12315548314E+03  0.41800000000E+01 0.  1.
        -11    1    4    4    0    0 -0.25373240129E+02  0.32134071121E+02 -0.21092926517E+02  0.46057696322E+02  0.00000000000E+00 0.  1.
         11    1    4    4    0    0 -0.73030520908E+02 -0.55041764040E+02 -0.13726498773E+03  0.16493856320E+03  0.00000000000E+00 0. -1.
</event>
<event>
 8    1  0.4798744E-006  0.1090091E+03  0.7561462E-02  0.1262416E+00
          1   -1    0    0  501    0  0.00000000000E+00  0.00000000000E+00  0.42284971676E+02  0.42284971676E+02  0.00000000000E+00 0. -1.
         -1   -1    0    0    0  501 -0.00000000000E+00 -0.00000000000E+00 -0.51467093805E+03  0.51467093805E+03  0.00000000000E+00 0.  1.
         23    2    1    2    0    0  0.25291072114E+02 -0.51139121351E+01 -0.44099233694E+03  0.45838820285E+03  0.12239163719E+03 0.  0.
         23    2    1    2    0    0 -0.25291072114E+02  0.51139121351E+01 -0.31393629437E+02  0.98567706872E+02  0.89801127180E+02 0.  0.
          5    1    3    3  502    0 -0.48671456124E+02  0.82699215035E+01 -0.18958008265E+03  0.19594739697E+03  0.41800000000E+01 0. -1.
         -5    1    3    3    0  502  0.73962528238E+02 -0.13383833639E+02 -0.25141225429E+03  0.26244080588E+03  0.41800000000E+01 0.  1.
        -11    1    4    4    0    0 -0.57458061942E+02 -0.88316266260E+01 -0.16128272393E+02  0.60328663845E+02  0.00000000000E+00 0. -1.
         11    1    4    4    0    0  0.32166989828E+02  0.13945538761E+02 -0.15265357044E+02  0.38239043027E+02  0.00000000000E+00 0.  1.
</event>
<event>
 8    1  0.4798744E-006  0.1027657E+03  0.7561462E-02  0.1274585E+00
          1   -1    0    0  501    0  0.00000000000E+00  0.00000000000E+00  0.79175445889E+02  0.79175445889E+02  0.00000000000E+00 0. -1.
         -1   -1    0    0    0  501 -0.00000000000E+00 -0.00000000000E+00 -0.16370154811E+03  0.16370154811E+03  0.00000000000E+00 0.  1.
         23    2    1    2    0    0 -0.35133633111E+02 -0.17429922109E+02 -0.56307389249E+02  0.14267541993E+03  0.12509028343E+03 0.  0.
         23    2    1    2    0    0  0.35133633111E+02  0.17429922109E+02 -0.28218712968E+02  0.10020157406E+03  0.87783172208E+02 0.  0.
          5    1    3    3  502    0  0.36618150617E+02 -0.11594717648E+02 -0.58988649426E+02  0.70515669132E+02  0.41800000000E+01 0. -1.
         -5    1    3    3    0  502 -0.71751783728E+02 -0.58352044612E+01  0.26812601773E+01  0.72159750799E+02  0.41800000000E+01 0. -1.
        -11    1    4    4    0    0  0.69218642893E+01  0.50696138161E+02 -0.23576582032E+02  0.56337073495E+02  0.00000000000E+00 0. -1.
         11    1    4    4    0    0  0.28211768822E+02 -0.33266216052E+02 -0.46421309361E+01  0.43864500568E+02  0.00000000000E+00 0.  1.
</event>
<event>
 7    1  0.4798744E-006  0.2226539E+03  0.7561462E-02  0.1131920E+00
          1   -1    0    0  501    0  0.00000000000E+00  0.00000000000E+00  0.71945652131E+03  0.71945652131E+03  0.00000000000E+00 0. -1.
         -1   -1    0    0    0  501 -0.00000000000E+00 -0.00000000000E+00 -0.12819885421E+03  0.12819885421E+03  0.00000000000E+00 0.  1.
         23    2    1    2    0    0 -0.62229391679E+02 -0.17549465935E+03  0.54551711956E+03  0.58378226886E+03  0.92422600285E+02 0.  0.
          5    1    1    2  502    0 -0.17093273150E+02 -0.32211978852E+02 -0.64010547602E+00  0.36710675607E+02  0.41800000000E+01 0. -1.
         -5    1    1    2    0  502  0.79322664829E+02  0.20770663820E+03  0.46380653016E+02  0.22716243106E+03  0.41800000000E+01 0.  1.
        -11    1    3    3    0    0 -0.11229764283E+02 -0.28337519567E+02  0.22004978628E+02  0.37594437161E+02  0.00000000000E+00 0.  1.
         11    1    3    3    0    0 -0.50999627396E+02 -0.14715713978E+03  0.52351214094E+03  0.54618783169E+03  0.00000000000E+00 0. -1.
</event>
<event>
 7    1  0.4798744E-006  0.1500971E+03  0.7561462E-02  0.1200354E+00
          1   -1    0    0  501    0  0.00000000000E+00  0.00000000000E+00  0.10764163481E+03  0.10764163481E+03  0.00000000000E+00 0. -1.
         -1   -1    0    0    0  501 -0.00000000000E+00 -0.00000000000E+00 -0.35433263088E+03  0.35433263088E+03  0.00000000000E+00 0.  1.
         23    2    1    2    0    0 -0.58987322916E+02  0.37082876730E+02  0.25648742851E+02  0.11759774124E+03  0.91196089406E+02 0.  0.
          5    1    1    2  502    0 -0.29317656461E+02  0.67363369806E+02 -0.10488141917E+03  0.12812077528E+03  0.41800000000E+01 0. -1.
         -5    1    1    2    0  502  0.88304979377E+02 -0.10444624654E+03 -0.16745831975E+03  0.21625574918E+03  0.41800000000E+01 0.  1.
        -11    1    3    3    0    0 -0.16556397003E+02  0.43788997593E+02 -0.23450102963E+02  0.52359315512E+02  0.00000000000E+00 0.  1.
         11    1    3    3    0    0 -0.42430925913E+02 -0.67061208630E+01  0.49098845814E+02  0.65238425725E+02  0.00000000000E+00 0. -1.
</event>
<event>
 7    1  0.4798744E-006  0.2927390E+03  0.7561462E-02  0.1088928E+00
          2   -1    0    0  501    0  0.00000000000E+00  0.00000000000E+00  0.22479373119E+04  0.22479373119E+04  0.00000000000E+00 0. -1.
         -2   -1    0    0    0  501 -0.00000000000E+00 -0.00000000000E+00 -0.40103896277E+02  0.40103896277E+02  0.00000000000E+00 0.  1.
         23    2    1    2    0    0 -0.24116185491E+03 -0.26819053113E+02  0.11886320500E+04  0.12166984514E+04  0.92901396814E+02 0.  0.
          5    1    1    2  502    0  0.34455952030E+02  0.10084075242E+03  0.26007737339E+03  0.28109390340E+03  0.41800000000E+01 0. -1.
         -5    1    1    2    0  502  0.20670590288E+03 -0.74021699304E+02  0.75912399223E+03  0.79024885335E+03  0.41800000000E+01 0.  1.
        -11    1    3    3    0    0 -0.19553894526E+03 -0.58013731371E+02  0.96735858173E+03  0.98862717835E+03  0.00000000000E+00 0. -1.
         11    1    3    3    0    0 -0.45622909647E+02  0.31194678258E+02  0.22127346828E+03  0.22807127307E+03  0.00000000000E+00 0.  1.
</event>
<event>
 8    1  0.4798744E-006  0.6513922E+02  0.7561462E-02  0.1377449E+00
          1   -1    0    0  501    0  0.00000000000E+00  0.00000000000E+00  0.21680166836E+02  0.21680166836E+02  0.00000000000E+00 0. -1.
         -1   -1    0    0    0  501 -0.00000000000E+00 -0.00000000000E+00 -0.57179077765E+03  0.57179077765E+03  0.00000000000E+00 0.  1.
         23    2    1    2    0    0 -0.22665470302E+02 -0.10669687543E+02 -0.32177980928E+03  0.34614727514E+03  0.12509246440E+03 0.  0.
         23    2    1    2    0    0  0.22665470302E+02  0.10669687543E+02 -0.22833080153E+03  0.24732366935E+03  0.91686840463E+02 0.  0.
          5    1    3    3  502    0 -0.32268691477E+02 -0.28075859361E+02 -0.27185042190E+02  0.50852937451E+02  0.41800000000E+01 0. -1.
         -5    1    3    3    0  502  0.96032211756E+01  0.17406171818E+02 -0.29459476709E+03  0.29529433769E+03  0.41800000000E+01 0. -1.
        -11    1    4    4    0    0  0.36245597394E+02 -0.13977013924E+02 -0.21039979453E+03  0.21395600900E+03  0.00000000000E+00 0.  1.
         11    1    4    4    0    0 -0.13580127092E+02  0.24646701467E+02 -0.17931007008E+02  0.33367660352E+02  0.00000000000E+00 0. -1.
</event>
<event>
 8    1  0.4798744E-006  0.9053908E+02  0.7561462E-02  0.1301551E+00
         -2   -1    0    0    0  501 -0.00000000000E+00  0.00000000000E+00  0.66222088621E+03  0.66222088621E+03  0.00000000000E+00 0.  1.
          2   -1    0    0  501    0  0.00000000000E+00 -0.00000000000E+00 -0.28880987074E+02  0.28880987074E+02  0.00000000000E+00 0. -1.
         23    2    1    2    0    0  0.60575112685E+02  0.18092644330E+02  0.48363514526E+03  0.50353400167E+03  0.12508736568E+03 0.  0.
         23    2    1    2    0    0 -0.60575112685E+02 -0.18092644330E+02  0.14970475388E+03  0.18756787162E+03  0.93666990306E+02 0.  0.
          5    1    3    3  502    0  0.51546454813E+02 -0.11419898526E+02  0.46334766404E+03  0.46636464409E+03  0.41800000000E+01 0. -1.
         -5    1    3    3    0  502  0.90286578718E+01  0.29512542856E+02  0.20287481219E+02  0.37169357581E+02  0.41800000000E+01 0. -1.
        -11    1    4    4    0    0  0.17156528566E+02 -0.66617771013E+01 -0.10602356465E+00  0.18404808817E+02  0.00000000000E+00 0. -1.
         11    1    4    4    0    0 -0.77731641251E+02 -0.11430867228E+02  0.14981077745E+03  0.16916306280E+03  0.00000000000E+00 0.  1.
</event>
<event>
 8    1  0.4798744E-006  0.8502413E+02  0.7561462E-02  0.1315369E+00
          2   -1    0    0  501    0  0.00000000000E+00  0.00000000000E+00  0.13075571696E+03  0.13075571696E+03  0.00000000000E+00 0. -1.
         -2   -1    0    0    0  501 -0.00000000000E+00 -0.00000000000E+00 -0.14185421635E+03  0.14185421635E+03  0.00000000000E+00 0.  1.
         23    2    1    2    0    0 -0.49705388772E+02  0.20175125487E+00 -0.23295992652E+02  0.13613758893E+03  0.12457958689E+03 0.  0.
         23    2    1    2    0    0  0.49705388772E+02 -0.20175125487E+00  0.12197493263E+02  0.13647234438E+03  0.12651187913E+03 0.  0.
          5    1    3    3  502    0 -0.18968948205E+02  0.12192434641E+02  0.50352206432E+02  0.55328957618E+02  0.41800000000E+01 0. -1.
         -5    1    3    3    0  502 -0.30736440567E+02 -0.11990683387E+02 -0.73648199083E+02  0.80808631315E+02  0.41800000000E+01 0.  1.
        -11    1    4    4    0    0  0.81780020326E+02  0.26281101627E+00 -0.26723384977E+02  0.86035923304E+02  0.00000000000E+00 0.  1.
         11    1    4    4    0    0 -0.32074631554E+02 -0.46456227113E+00  0.38920878240E+02  0.50436421071E+02  0.00000000000E+00 0. -1.
</event>
<event>
 8    1  0.4798744E-006  0.1137320E+03  0.7561462E-02  0.1253811E+00
         -2   -1    0    0    0  501 -0.00000000000E+00  0.00000000000E+00  0.82570764925E+02  0.82570764925E+02  0.00000000000E+00 0.  1.
          2   -1    0    0  501    0  0.00000000000E+00 -0.00000000000E+00 -0.17068596686E+03  0.17068596686E+03  0.00000000000E+00 0. -1.
         23    2    1    2    0    0 -0.33100281133E+01 -0.47470412586E+02 -0.30962450655E+02  0.13736572180E+03  0.12508505833E+03 0.  0.
         23    2    1    2    0    0  0.33100281133E+01  0.47470412586E+02 -0.57152751276E+02  0.11589100999E+03  0.88881341460E+02 0.  0.
          5    1    3    3  502    0  0.58145074271E+02 -0.36494175537E+02 -0.29352040641E+02  0.74777598249E+02  0.41800000000E+01 0.  1.
         -5    1    3    3    0  502 -0.61455102384E+02 -0.10976237049E+02 -0.16104100138E+01  0.62588123548E+02  0.41800000000E+01 0.  1.
        -11    1    4    4    0    0  0.20223397819E+02 -0.18868947450E+02 -0.15639796770E+01  0.27703231394E+02  0.00000000000E+00 0.  1.
         11    1    4    4    0    0 -0.16913369706E+02  0.66339360037E+02 -0.55588771599E+02  0.88187778591E+02  0.00000000000E+00 0. -1.
</event>
<event>
 8    1  0.4798744E-006  0.1272092E+03  0.7561462E-02  0.1231656E+00
         -1   -1    0    0    0  501 -0.00000000000E+00  0.00000000000E+00  0.21272495664E+02  0.21272495664E+02  0.00000000000E+00 0.  1.
          1   -1    0    0  501    0  0.00000000000E+00 -0.00000000000E+00 -0.79243507859E+03  0.79243507859E+03  0.00000000000E+00 0. -1.
         23    2    1    2    0    0 -0.46634147104E+02  0.56262990577E+02 -0.41048075301E+03  0.43529557858E+03  0.12509006499E+03 0.  0.
         23    2    1    2    0    0  0.46634147104E+02 -0.56262990577E+02 -0.36068182992E+03  0.37841199567E+03  0.88113496416E+02 0.  0.
          5    1    3    3  502    0 -0.56081119798E+02 -0.22500207451E+02 -0.12396628871E+03  0.13797269465E+03  0.41800000000E+01 0. -1.
         -5    1    3    3    0  502  0.94469726935E+01  0.78763198028E+02 -0.28651446430E+03  0.29732288393E+03  0.41800000000E+01 0. -1.
        -11    1    4    4    0    0 -0.70117702151E+00 -0.66066354700E+02 -0.20201165495E+03  0.21254167500E+03  0.00000000000E+00 0.  1.
         11    1    4    4    0    0  0.47335324126E+02  0.98033641233E+01 -0.15867017496E+03  0.16587032068E+03  0.00000000000E+00 0. -1.
</event>
<event>
 8    1  0.4798744E-006  0.3100706E+03  0.7561462E-02  0.1080312E+00
         -2   -1    0    0    0  501 -0.00000000000E+00  0.00000000000E+00  0.32457193849E+03  0.32457193849E+03  0.00000000000E+00 0.  1.
          2   -1    0    0  501    0  0.00000000000E+00 -0.00000000000E+00 -0.38502738640E+03  0.38502738640E+03  0.00000000000E+00 0. -1.
         23    2    1    2    0    0 -0.29350292745E+03 -0.81499037924E+02  0.11176547889E+03  0.34774211431E+03  0.12508794581E+03 0.  0.
         23    2    1    2    0    0  0.29350292745E+03  0.81499037924E+02 -0.17222092679E+03  0.36185721058E+03  0.92165783343E+02 0.  0.
          5    1    3    3  502    0 -0.95121053951E+02 -0.34501362889E+02  0.10178425107E+03  0.14358225905E+03  0.41800000000E+01 0.  1.
         -5    1    3    3    0  502 -0.19838187350E+03 -0.46997675035E+02  0.99812278129E+01  0.20415985526E+03  0.41800000000E+01 0.  1.
        -11    1    4    4    0    0  0.23196213818E+03  0.28441146924E+02 -0.14971549104E+03  0.27754289875E+03  0.00000000000E+00 0.  1.
         11    1    4    4    0    0  0.61540789271E+02  0.53057891000E+02 -0.22505435748E+02  0.84314311832E+02  0.00000000000E+00 0. -1.
</event>
<event>
 8    1  0.4798744E-006  0.1078347E+03  0.7561462E-02  0.1264633E+00
          1   -1    0    0  501    0  0.00000000000E+00  0.00000000000E+00  0.49729405957E+03  0.49729405957E+03  0.00000000000E+00 0. -1.
         -1   -1    0    0    0  501 -0.00000000000E+00 -0.00000000000E+00 -0.41978838019E+02  0.41978838019E+02  0.00000000000E+00 0.  1.
         23    2    1    2    0    0  0.16079166844E+02  0.13939785625E+02  0.67593593726E+02  0.13998745194E+03  0.12072586947E+03 0.  0.
         23    2    1    2    0    0 -0.16079166844E+02 -0.13939785625E+02  0.38772162783E+03  0.39928544565E+03  0.92994350314E+02 0.  0.
          5    1    3    3  502    0 -0.14494184374E+02  0.61750819111E+02  0.22671781084E+02  0.67488718309E+02  0.41800000000E+01 0. -1.
         -5    1    3    3    0  502  0.30573351218E+02 -0.47811033486E+02  0.44921812643E+02  0.72498733636E+02  0.41800000000E+01 0.  1.
        -11    1    4    4    0    0 -0.54355884046E+02 -0.16586920195E+02  0.21863413278E+03  0.22589947336E+03  0.00000000000E+00 0. -1.
         11    1    4    4    0    0  0.38276717202E+02  0.26471345702E+01  0.16908749505E+03  0.17338597228E+03  0.00000000000E+00 0.  1.
</event>
<event>
 8    1  0.4798744E-006  0.1455164E+03  0.7561462E-02  0.1206093E+00
         -1   -1    0    0    0  501 -0.00000000000E+00  0.00000000000E+00  0.10544910295E+04  0.10544910295E+04  0.00000000000E+00 0.  1.
          1   -1    0    0  501    0  0.00000000000E+00 -0.00000000000E+00 -0.22628769033E+02  0.22628769033E+02  0.00000000000E+00 0. -1.
         23    2    1    2    0    0 -0.20171868521E+02  0.10174739131E+03  0.64166750635E+03  0.66192458357E+03  0.12509008640E+03 0.  0.
         23    2    1    2    0    0  0.20171868521E+02 -0.10174739131E+03  0.39019475410E+03  0.41519521494E+03  0.96828118159E+02 0.  0.
          5    1    3    3  502    0 -0.65025829735E+02  0.55732535355E+02  0.23424935646E+03  0.24944880724E+03  0.41800000000E+01 0. -1.
         -5    1    3    3    0  502  0.44853961214E+02  0.46014855952E+02  0.40741814989E+03  0.41247577633E+03  0.41800000000E+01 0. -1.
        -11    1    4    4    0    0 -0.23068405819E+02  0.68013033663E+01  0.49766343181E+02  0.55272940831E+02  0.00000000000E+00 0.  1.
         11    1    4    4    0    0  0.43240274340E+02 -0.10854869467E+03  0.34042841092E+03  0.35992227411E+03  0.00000000000E+00 0. -1.
</event>
<event>
 8    1  0.4798744E-006  0.2365373E+03  0.7561462E-02  0.1122121E+00
         -2   -1    0    0    0  501 -0.00000000000E+00  0.00000000000E+00  0.20764742731E+03  0.20764742731E+03  0.00000000000E+00 0.  1.
          2   -1    0    0  501    0  0.00000000000E+00 -0.00000000000E+00 -0.35795312028E+03  0.35795312028E+03  0.00000000000E+00 0. -1.
         23    2    1    2    0    0 -0.21846469887E+03  0.26449399996E+02  0.48235188619E+02  0.25768186245E+03  0.12508762289E+03 0.  0.
         23    2    1    2    0    0  0.21846469887E+03 -0.26449399996E+02 -0.19854088159E+03  0.30791868514E+03  0.83480773709E+02 0.  0.
          5    1    3    3  502    0  0.23471381085E+01  0.24185723690E+02  0.25792259810E+02  0.35681526787E+02  0.41800000000E+01 0. -1.
         -5    1    3    3    0  502 -0.22081183698E+03  0.22636763061E+01  0.22442928809E+02  0.22200033566E+03  0.41800000000E+01 0. -1.
        -11    1    4    4    0    0  0.62588565363E+02 -0.34507911778E+02 -0.28071106800E+02  0.76786141500E+02  0.00000000000E+00 0. -1.
         11    1    4    4    0    0  0.15587613351E+03  0.80585117823E+01 -0.17046977479E+03  0.23113254364E+03  0.00000000000E+00 0.  1.
</event>
<event>
 8    1  0.4798744E-006  0.2977618E+03  0.7561462E-02  0.1086365E+00
         -1   -1    0    0    0  501 -0.00000000000E+00  0.00000000000E+00  0.54618278173E+02  0.54618278173E+02  0.00000000000E+00 0.  1.
          1   -1    0    0  501    0  0.00000000000E+00 -0.00000000000E+00 -0.17439901782E+04  0.17439901782E+04  0.00000000000E+00 0. -1.
         23    2    1    2    0    0  0.27859403190E+03  0.25516730915E+02 -0.65211662067E+03  0.72053360437E+03  0.12508736914E+03 0.  0.
         23    2    1    2    0    0 -0.27859403190E+03 -0.25516730915E+02 -0.10372552794E+04  0.10780748520E+04  0.89895126594E+02 0.  0.
          5    1    3    3  502    0  0.24917620544E+03 -0.22218670383E+02 -0.53592839716E+03  0.59145512928E+03  0.41800000000E+01 0.  1.
         -5    1    3    3    0  502  0.29417826456E+02  0.47735401298E+02 -0.11618822351E+03  0.12907847509E+03  0.41800000000E+01 0.  1.
        -11    1    4    4    0    0 -0.57186953781E+02 -0.35768790769E+02 -0.16869626631E+03  0.18168154651E+03  0.00000000000E+00 0.  1.
         11    1    4    4    0    0 -0.22140707812E+03  0.10252059854E+02 -0.86855901305E+03  0.89639330548E+03  0.00000000000E+00 0. -1.
</event>
<event>
 7    1  0.4798744E-006  0.1661953E+03  0.7561462E-02  0.1181875E+00
         -2   -1    0    0    0  501 -0.00000000000E+00  0.00000000000E+00  0.26352215720E+02  0.26352215720E+02  0.00000000000E+00 0.  1.
          2   -1    0    0  501    0  0.00000000000E+00 -0.00000000000E+00 -0.10791215321E+04  0.10791215321E+04  0.00000000000E+00 0. -1.
         23    2    1    2    0    0  0.28984274951E+02  0.66028664525E+02 -0.32085498984E+03  0.34248827472E+03  0.95657833354E+02 0.  0.
          5    1    1    2  502    0  0.73895875173E+02  0.22289437098E+02 -0.32456562932E+03  0.33364313197E+03  0.41800000000E+01 0. -1.
         -5    1    1    2    0  502 -0.10288015012E+03 -0.88318101622E+02 -0.40734869725E+03  0.42934234116E+03  0.41800000000E+01 0.  1.
        -11    1    3    3    0    0 -0.32963066836E+02  0.66445208146E+01 -0.10257105992E+03  0.10794227978E+03  0.00000000000E+00 0.  1.
         11    1    3    3    0    0  0.61947341787E+02  0.59384143710E+02 -0.21828392992E+03  0.23454599494E+03  0.00000000000E+00 0. -1.
</event>
<event>
 7    1  0.4798744E-006  0.1079500E+03  0.7561462E-02  0.1264414E+00
         -2   -1    0    0    0  501 -0.00000000000E+00  0.00000000000E+00  0.30243950225E+03  0.30243950225E+03  0.00000000000E+00 0.  1.
          2   -1    0    0  501    0  0.00000000000E+00 -0.00000000000E+00 -0.89402651554E+02  0.89402651554E+02  0.00000000000E+00 0. -1.
         23    2    1    2    0    0 -0.64240653751E+02  0.39038136708E+02 -0.19365732291E+02  0.11407196862E+03  0.83585553328E+02 0.  0.
          5    1    1    2  502    0  0.46542305637E+02  0.15534542457E+02  0.12970356356E+02  0.50923577715E+02  0.41800000000E+01 0. -1.
         -5    1    1    2    0  502  0.17698348114E+02 -0.54572679165E+02  0.21943222664E+03  0.22684660748E+03  0.41800000000E+01 0.  1.
        -11    1    3    3    0    0  0.10633551232E+02 -0.13851658439E+02  0.68007900946E+01  0.18740106702E+02  0.00000000000E+00 0. -1.
         11    1    3    3    0    0 -0.74874204983E+02  0.52889795146E+02 -0.26166522386E+02  0.95331861915E+02  0.00000000000E+00 0.  1.
</event>
<event>
 8    1  0.4798744E-006  0.1199939E+03  0.7561462E-02  0.1243107E+00
         -2   -1    0    0    0  501 -0.00000000000E+00  0.00000000000E+00  0.30203707285E+02  0.30203707285E+02  0.00000000000E+00 0.  1.
          2   -1    0    0  501    0  0.00000000000E+00 -0.00000000000E+00 -0.60377920689E+03  0.60377920689E+03  0.00000000000E+00 0. -1.
         23    2    1    2    0    0  0.61603742032E+02 -0.44615948945E+02 -0.25960859520E+03  0.29804478885E+03  0.12509384287E+03 0.  0.
         23    2    1    2    0    0 -0.61603742032E+02  0.44615948945E+02 -0.31396690440E+03  0.33593812533E+03  0.92160745734E+02 0.  0.
          5    1    3    3  502    0  0.71520411983E+02  0.12905737448E+02 -0.20673390630E+03  0.21917597451E+03  0.41800000000E+01 0. -1.
         -5    1    3    3    0  502 -0.99166699516E+01 -0.57521686393E+02 -0.52874688903E+02  0.78868814337E+02  0.41800000000E+01 0. -1.
        -11    1    4    4    0    0 -0.67379950237E+02  0.38398807212E+01 -0.25655107508E+03  0.26527958176E+03  0.00000000000E+00 0. -1.
         11    1    4    4    0    0  0.57762082051E+01  0.40776068224E+02 -0.57415829327E+02  0.70658543562E+02  0.00000000000E+00 0.  1.
</event>
<event>
 8    1  0.4798744E-006  0.1005224E+03  0.7561462E-02  0.1279201E+00
          2   -1    0    0  501    0  0.00000000000E+00  0.00000000000E+00  0.68572251460E+02  0.68572251460E+02  0.00000000000E+00 0. -1.
         -2   -1    0    0    0  501 -0.00000000000E+00 -0.00000000000E+00 -0.22325450304E+03  0.22325450304E+03  0.00000000000E+00 0.  1.
         23    2    1    2    0    0 -0.47778959514E+02 -0.29243280147E+02 -0.11139291776E+03  0.17664434639E+03  0.12512731348E+03 0.  0.
         23    2    1    2    0    0  0.47778959514E+02  0.29243280147E+02 -0.43289333821E+02  0.11518240811E+03  0.90857153320E+02 0.  0.
          5    1    3    3  502    0  0.23101098512E+02 -0.40976616391E+02 -0.89880209448E+02  0.10153161229E+03  0.41800000000E+01 0.  1.
         -5    1    3    3    0  502 -0.70880058026E+02  0.11733336244E+02 -0.21512708311E+02  0.75112734101E+02  0.41800000000E+01 0.  1.
        -11    1    4    4    0    0  0.22798443593E+02 -0.17576008435E+02  0.18124642103E+02  0.34017462488E+02  0.00000000000E+00 0. -1.
         11    1    4    4    0    0  0.24980515921E+02  0.46819288582E+02 -0.61413975924E+02  0.81164945622E+02  0.00000000000E+00 0.  1.
</event>
<event>
 8    1  0.4798744E-006  0.3894040E+03  0.7561462E-02  0.1047512E+00
         -1   -1    0    0    0  501 -0.00000000000E+00  0.00000000000E+00  0.53824179388E+03  0.53824179388E+03  0.00000000000E+00 0.  1.
          1   -1    0    0  501    0  0.00000000000E+00 -0.00000000000E+00 -0.42470912737E+03  0.42470912737E+03  0.00000000000E+00 0. -1.
         23    2    1    2    0    0  0.38524647193E+03  0.26460175359E+02  0.31868468180E+03  0.51606659216E+03  0.12509922506E+03 0.  0.
         23    2    1    2    0    0 -0.38524647193E+03 -0.26460175359E+02 -0.20515201530E+03  0.44688432909E+03  0.92213172540E+02 0.  0.
          5    1    3    3  502    0  0.16653389499E+03  0.10453348026E+02  0.61091672882E+02  0.17774272295E+03  0.41800000000E+01 0.  1.
         -5    1    3    3    0  502  0.21871257695E+03  0.16006827333E+02  0.25759300892E+03  0.33832386922E+03  0.41800000000E+01 0.  1.
        -11    1    4    4    0    0 -0.16971919405E+03 -0.46850461030E+02 -0.59042906872E+02  0.18570308392E+03  0.00000000000E+00 0. -1.
         11    1    4    4    0    0 -0.21552727789E+03  0.20390285671E+02 -0.14610910843E+03  0.26118124517E+03  0.00000000000E+00 0.  1.
</event>
<event>
 8    1  0.4798744E-006  0.2211727E+03  0.7561462E-02  0.1133012E+00
         -1   -1    0    0    0  501 -0.00000000000E+00  0.00000000000E+00  0.10723398807E+03  0.10723398807E+03  0.00000000000E+00 0.  1.
          1   -1    0    0  501    0  0.00000000000E+00 -0.00000000000E+00 -0.46228702778E+03  0.46228702778E+03  0.00000000000E+00 0. -1.
         23    2    1    2    0    0  0.18943513310E+03 -0.37713040985E+02 -0.16189138647E+03  0.28136070239E+03  0.12508829171E+03 0.  0.
         23    2    1    2    0    0 -0.18943513310E+03  0.37713040985E+02 -0.19316165323E+03  0.28816031346E+03  0.91744203414E+02 0.  0.
          5    1    3    3  502    0  0.19604993770E+03 -0.49031637464E+01 -0.14251234092E+03  0.24246001485E+03  0.41800000000E+01 0. -1.
         -5    1    3    3    0  502 -0.66148046017E+01 -0.32809877238E+02 -0.19379045554E+02  0.38900687538E+02  0.41800000000E+01 0. -1.
        -11    1    4    4    0    0 -0.18812403520E+03  0.54313395308E+02 -0.18588229126E+03  0.26998671029E+03  0.00000000000E+00 0.  1.
         11    1    4    4    0    0 -0.13110979018E+01 -0.16600354323E+02 -0.72793619697E+01  0.18173603167E+02  0.00000000000E+00 0. -1.
</event>
<event>
 8    1  0.4798744E-006  0.1121971E+03  0.7561462E-02  0.1256554E+00
          4   -1    0    0  501    0  0.00000000000E+00  0.00000000000E+00  0.17234627458E+02  0.17234627458E+02  0.00000000000E+00 0.  1.
         -4   -1    0    0    0  501 -0.00000000000E+00 -0.00000000000E+00 -0.89325661990E+03  0.89325661990E+03  0.00000000000E+00 0. -1.
         23    2    1    2    0    0 -0.37076114733E+02  0.50511235282E+02 -0.55580436430E+03  0.57314049201E+03  0.12508200923E+03 0.  0.
         23    2    1    2    0    0  0.37076114733E+02 -0.50511235282E+02 -0.32021762815E+03  0.33735075536E+03  0.85674848047E+02 0.  0.
          5    1    3    3  502    0  0.78977932373E+01 -0.37029683672E+02 -0.10492062508E+03  0.11162160445E+03  0.41800000000E+01 0.  1.
         -5    1    3    3    0  502 -0.44973907970E+02  0.87540918953E+02 -0.45088373921E+03  0.46151888756E+03  0.41800000000E+01 0.  1.
        -11    1    4    4    0    0  0.65723991755E+01 -0.56354768693E+02 -0.28412536859E+03  0.28973484682E+03  0.00000000000E+00 0. -1.
         11    1    4    4    0    0  0.30503715557E+02  0.58435334110E+01 -0.36092259557E+02  0.47615908533E+02  0.00000000000E+00 0.  1.
</event>
<event>
 8    1  0.4798744E-006  0.1254965E+03  0.7561462E-02  0.1234295E+00
          1   -1    0    0  501    0  0.00000000000E+00  0.00000000000E+00  0.38540258131E+02  0.38540258131E+02  0.00000000000E+00 0. -1.
         -1   -1    0    0    0  501 -0.00000000000E+00 -0.00000000000E+00 -0.61586051464E+03  0.61586051464E+03  0.00000000000E+00 0.  1.
         23    2    1    2    0    0  0.83248871828E+02 -0.10757718493E+02 -0.45868000681E+03  0.48278441123E+03  0.12508931177E+03 0.  0.
         23    2    1    2    0    0 -0.83248871828E+02  0.10757718493E+02 -0.11864024970E+03  0.17161636154E+03  0.91271920823E+02 0.  0.
          5    1    3    3  502    0 -0.18231394148E+02 -0.37660497954E+02 -0.88491369833E+02  0.97973934155E+02  0.41800000000E+01 0.  1.
         -5    1    3    3    0  502  0.10148026598E+03  0.26902779461E+02 -0.37018863697E+03  0.38481047708E+03  0.41800000000E+01 0.  1.
        -11    1    4    4    0    0 -0.81674604792E+02  0.28166269984E+02 -0.12589751078E+03  0.15269008827E+03  0.00000000000E+00 0.  1.
         11    1    4    4    0    0 -0.15742670355E+01 -0.17408551491E+02  0.72572610796E+01  0.18926273275E+02  0.00000000000E+00 0. -1.
</event>
<event>
 8    1  0.4798744E-006  0.9344126E+02  0.7561462E-02  0.1294726E+00
         -2   -1    0    0    0  501 -0.00000000000E+00  0.00000000000E+00  0.29194038907E+02  0.29194038907E+02  0.00000000000E+00 0.  1.
          2   -1    0    0  501    0  0.00000000000E+00 -0.00000000000E+00 -0.44916504043E+03  0.44916504043E+03  0.00000000000E+00 0. -1.
         23    2    1    2    0    0  0.24641057079E+02  0.28376559617E+01 -0.17730482467E+03  0.21839961584E+03  0.12508460081E+03 0.  0.
         23    2    1    2    0    0 -0.24641057079E+02 -0.28376559617E+01 -0.24266617685E+03  0.25995946350E+03  0.89871103759E+02 0.  0.
          5    1    3    3  502    0 -0.13783276158E+02  0.50459977084E+02 -0.34016010094E+02  0.62535984295E+02  0.41800000000E+01 0. -1.
         -5    1    3    3    0  502  0.38424333237E+02 -0.47622321123E+02 -0.14328881458E+03  0.15586363154E+03  0.41800000000E+01 0. -1.
        -11    1    4    4    0    0 -0.15581346495E+02 -0.35717731177E+02 -0.45682856883E+02  0.60045466873E+02  0.00000000000E+00 0. -1.
         11    1    4    4    0    0 -0.90597105835E+01  0.32880075215E+02 -0.19698331997E+03  0.19991399662E+03  0.00000000000E+00 0.  1.
</event>
<event>
 8    1  0.4798744E-006  0.1553677E+03  0.7561462E-02  0.1194028E+00
         -2   -1    0    0    0  501 -0.00000000000E+00  0.00000000000E+00  0.21131525613E+03  0.21131525613E+03  0.00000000000E+00 0.  1.
          2   -1    0    0  501    0  0.00000000000E+00 -0.00000000000E+00 -0.17567829026E+03  0.17567829026E+03  0.00000000000E+00 0. -1.
         23    2    1    2    0    0  0.10716802006E+03 -0.72577756177E+02  0.11041778067E+03  0.21116703388E+03  0.12508762806E+03 0.  0.
         23    2    1    2    0    0 -0.10716802006E+03  0.72577756177E+02 -0.74780814793E+02  0.17582651250E+03  0.92575790693E+02 0.  0.
          5    1    3    3  502    0  0.60197834259E+02 -0.10405362645E+03  0.92397858158E+02  0.15167654077E+03  0.41800000000E+01 0.  1.
         -5    1    3    3    0  502  0.46970185805E+02  0.31475870272E+02  0.18019922509E+02  0.59490493116E+02  0.41800000000E+01 0.  1.
        -11    1    4    4    0    0 -0.16517362460E+02 -0.16388059354E+01  0.19382860224E+02  0.25518703298E+02  0.00000000000E+00 0.  1.
         11    1    4    4    0    0 -0.90650657604E+02  0.74216562112E+02 -0.94163675017E+02  0.15030780921E+03  0.00000000000E+00 0. -1.
</event>
<event>
 8    1  0.4798744E-006  0.3452332E+02  0.7561462E-02  0.1552875E+00
          2   -1    0    0  501    0  0.00000000000E+00  0.00000000000E+00  0.12602641831E+03  0.12602641831E+03  0.00000000000E+00 0. -1.
         -2   -1    0    0    0  501 -0.00000000000E+00 -0.00000000000E+00 -0.20179160478E+03  0.20179160478E+03  0.00000000000E+00 0.  1.
         23    2    1    2    0    0  0.25037030955E+02 -0.13306620506E+02 -0.16130471981E+03  0.20608927570E+03  0.12509859254E+03 0.  0.
         23    2    1    2    0    0 -0.25037030955E+02  0.13306620506E+02  0.85539533340E+02  0.12172874740E+03  0.81834938205E+02 0.  0.
          5    1    3    3  502    0  0.16650327535E+02 -0.18801280428E+02 -0.18143633318E+03  0.18321391037E+03  0.41800000000E+01 0.  1.
         -5    1    3    3    0  502  0.83867034192E+01  0.54946599221E+01  0.20131613375E+02  0.22875365330E+02  0.41800000000E+01 0.  1.
        -11    1    4    4    0    0 -0.19166094370E+02  0.11219926029E+01  0.10005982174E+03  0.10188506254E+03  0.00000000000E+00 0. -1.
         11    1    4    4    0    0 -0.58709365844E+01  0.12184627903E+02 -0.14520288404E+02  0.19843684861E+02  0.00000000000E+00 0.  1.
</event>
<event>
 7    1  0.4798744E-006  0.1565007E+03  0.7561462E-02  0.1192705E+00
         -1   -1    0    0    0  501 -0.00000000000E+00  0.00000000000E+00  0.53673888978E+02  0.53673888978E+02  0.00000000000E+00 0.  1.
          1   -1    0    0  501    0  0.00000000000E+00 -0.00000000000E+00 -0.79273251156E+03  0.79273251156E+03  0.00000000000E+00 0. -1.
         23    2    1    2    0    0  0.11260074391E+02 -0.14118558218E+03 -0.55775683857E+03  0.58244511230E+03  0.89941425285E+02 0.  0.
          5    1    1    2  502    0  0.15550856810E+02  0.20657523920E+02 -0.12584284028E+03  0.12853970318E+03  0.41800000000E+01 0. -1.
         -5    1    1    2    0  502 -0.26810931201E+02  0.12052805826E+03 -0.55458943731E+02  0.13542158506E+03  0.41800000000E+01 0.  1.
        -11    1    3    3    0    0  0.41134610589E+02 -0.11940857928E+03 -0.36656104467E+03  0.38770796286E+03  0.00000000000E+00 0. -1.
         11    1    3    3    0    0 -0.29874536198E+02 -0.21777002898E+02 -0.19119579390E+03  0.19473714944E+03  0.00000000000E+00 0.  1.
</event>
<event>
 8    1  0.4798744E-006  0.1423789E+03  0.7561462E-02  0.1210163E+00
         -2   -1    0    0    0  501 -0.00000000000E+00  0.00000000000E+00  0.40133516883E+03  0.40133516883E+03  0.00000000000E+00 0.  1.
          2   -1    0    0  501    0  0.00000000000E+00 -0.00000000000E+00 -0.24076485881E+03  0.24076485881E+03  0.00000000000E+00 0. -1.
         23    2    1    2    0    0 -0.10859069714E+03  0.56783967594E+02  0.35362130776E+03  0.39460300591E+03  0.12508854659E+03 0.  0.
         23    2    1    2    0    0  0.10859069714E+03 -0.56783967594E+02 -0.19305099774E+03  0.24749702172E+03  0.94708656169E+02 0.  0.
          5    1    3    3  502    0 -0.65201628135E+02 -0.10942996108E+01  0.49519567543E+02  0.81988473414E+02  0.41800000000E+01 0. -1.
         -5    1    3    3    0  502 -0.43389069005E+02  0.57878267205E+02  0.30410174022E+03  0.31261453250E+03  0.41800000000E+01 0. -1.
        -11    1    4    4    0    0  0.85445605952E+02  0.20605896375E+00 -0.72088334561E+02  0.11179321096E+03  0.00000000000E+00 0.  1.
         11    1    4    4    0    0  0.23145091188E+02 -0.56990026558E+02 -0.12096266318E+03  0.13570381076E+03  0.00000000000E+00 0. -1.
</event>
<event>
 7    1  0.4798744E-006  0.1312666E+03  0.7561462E-02  0.1225588E+00
         -2   -1    0    0    0  501 -0.00000000000E+00  0.00000000000E+00  0.66319228445E+02  0.66319228445E+02  0.00000000000E+00 0.  1.
          2   -1    0    0  501    0  0.00000000000E+00 -0.00000000000E+00 -0.38211118271E+03  0.38211118271E+03  0.00000000000E+00 0. -1.
         23    2    1    2    0    0 -0.55897395534E+02 -0.58566078831E+02 -0.23597924161E+03  0.26574510711E+03  0.91541002096E+02 0.  0.
          5    1    1    2  502    0  0.53465225755E+02 -0.23273242506E+02 -0.81962293282E+02  0.10067504210E+03  0.41800000000E+01 0. -1.
         -5    1    1    2    0  502  0.24321697790E+01  0.81839321337E+02  0.21495806311E+01  0.82010261941E+02  0.41800000000E+01 0.  1.
        -11    1    3    3    0    0 -0.46482759922E+02  0.14289103311E+02 -0.88385472590E+02  0.10088021217E+03  0.00000000000E+00 0.  1.
         11    1    3    3    0    0 -0.94146356124E+01 -0.72855182141E+02 -0.14759376902E+03  0.16486489494E+03  0.00000000000E+00 0. -1.
</event>
<event>
 8    1  0.4798744E-006  0.1467071E+03  0.7561462E-02  0.1204579E+00
          1   -1    0    0  501    0  0.00000000000E+00  0.00000000000E+00  0.31795857356E+03  0.31795857356E+03  0.00000000000E+00 0. -1.
         -1   -1    0    0    0  501 -0.00000000000E+00 -0.00000000000E+00 -0.85834004118E+02  0.85834004118E+02  0.00000000000E+00 0.  1.
         23    2    1    2    0    0 -0.18690480663E+02 -0.10681332322E+03  0.51307433997E+02  0.17331666006E+03  0.12509113393E+03 0.  0.
         23    2    1    2    0    0  0.18690480663E+02  0.10681332322E+03  0.18081713544E+03  0.23047591761E+03  0.93090773145E+02 0.  0.
          5    1    3    3  502    0 -0.61182462367E+02 -0.79333463763E+02  0.66496481900E+02  0.12031769063E+03  0.41800000000E+01 0.  1.
         -5    1    3    3    0  502  0.42491981704E+02 -0.27479859453E+02 -0.15189047903E+02  0.52998969432E+02  0.41800000000E+01 0.  1.
        -11    1    4    4    0    0  0.41955341023E+02  0.11105645835E+03  0.14279331373E+03  0.18569792144E+03  0.00000000000E+00 0.  1.
         11    1    4    4    0    0 -0.23264860360E+02 -0.42431351332E+01  0.38023821708E+02  0.44777996166E+02  0.00000000000E+00 0. -1.
</event>
<event>
 8    1  0.4798744E-006  0.1169568E+03  0.7561462E-02  0.1248203E+00
          2   -1    0    0  501    0  0.00000000000E+00  0.00000000000E+00  0.82349880600E+03  0.82349880600E+03  0.00000000000E+00 0. -1.
         -2   -1    0    0    0  501 -0.00000000000E+00 -0.00000000000E+00 -0.20236418502E+02  0.20236418502E+02  0.00000000000E+00 0.  1.
         23    2    1    2    0    0  0.29787026586E+02  0.58122303301E+02  0.37047070006E+03  0.39644812142E+03  0.12512835121E+03 0.  0.
         23    2    1    2    0    0 -0.29787026586E+02 -0.58122303301E+02  0.43279168744E+03  0.44728710309E+03  0.92150088328E+02 0.  0.
          5    1    3    3  502    0 -0.31356194620E+01  0.80723284271E+02  0.32870556577E+03  0.33851277982E+03  0.41800000000E+01 0. -1.
         -5    1    3    3    0  502  0.32922646048E+02 -0.22600980971E+02  0.41765134293E+02  0.57935341599E+02  0.41800000000E+01 0. -1.
        -11    1    4    4    0    0 -0.59700955241E+02 -0.57590313807E+02  0.32525937337E+03  0.33567023738E+03  0.00000000000E+00 0. -1.
         11    1    4    4    0    0  0.29913928655E+02 -0.53198949363E+00  0.10753231407E+03  0.11161686571E+03  0.00000000000E+00 0.  1.
</event>
<event>
 8    1  0.4798744E-006  0.1215209E+03  0.7561462E-02  0.1240609E+00
          1   -1    0    0  501    0  0.00000000000E+00  0.00000000000E+00  0.67919830653E+03  0.67919830653E+03  0.00000000000E+00 0. -1.
         -1   -1    0    0    0  501 -0.00000000000E+00 -0.00000000000E+00 -0.25024888191E+02  0.25024888191E+02  0.00000000000E+00 0.  1.
         23    2    1    2    0    0  0.30976784012E+02  0.59711927932E+02  0.30629055004E+03  0.33762020062E+03  0.12509365828E+03 0.  0.
         23    2    1    2    0    0 -0.30976784012E+02 -0.59711927932E+02  0.34788286830E+03  0.36660299409E+03  0.94075447047E+02 0.  0.
          5    1    3    3  502    0 -0.88783134292E+01 -0.30596828258E+02  0.14464824960E+03  0.14817415045E+03  0.41800000000E+01 0. -1.
         -5    1    3    3    0  502  0.39855097441E+02  0.90308756190E+02  0.16164230043E+03  0.18944605017E+03  0.41800000000E+01 0. -1.
        -11    1    4    4    0    0 -0.61928039323E+02 -0.28563435151E+02  0.16533514329E+03  0.17884815204E+03  0.00000000000E+00 0. -1.
         11    1    4    4    0    0  0.30951255311E+02 -0.31148492781E+02  0.18254772501E+03  0.18775484205E+03  0.00000000000E+00 0.  1.
</event>
<event>
 8    1  0.4798744E-006  0.2293815E+03  0.7561462E-02  0.1127076E+00
         -2   -1    0    0    0  501 -0.00000000000E+00  0.00000000000E+00  0.11316897197E+03  0.11316897197E+03  0.00000000000E+00 0.  1.
          2   -1    0    0  501    0  0.00000000000E+00 -0.00000000000E+00 -0.49568794073E+03  0.49568794073E+03  0.00000000000E+00 0. -1.
         23    2    1    2    0    0  0.59910909921E+02  0.19869160559E+03 -0.15464446181E+03  0.28745233309E+03  0.12508502296E+03 0.  0.
         23    2    1    2    0    0 -0.59910909921E+02 -0.19869160559E+03 -0.22787450694E+03  0.32140457962E+03  0.91139681927E+02 0.  0.
          5    1    3    3  502    0  0.81860040490E+02  0.19272421813E+03 -0.16018970478E+03  0.26367006731E+03  0.41800000000E+01 0.  1.
         -5    1    3    3    0  502 -0.21949130569E+02  0.59673874684E+01  0.55452429624E+01  0.23782265776E+02  0.41800000000E+01 0.  1.
        -11    1    4    4    0    0  0.39549356771E+01 -0.13814471897E+03 -0.12921838127E+03  0.18920093804E+03  0.00000000000E+00 0. -1.
         11    1    4    4    0    0 -0.63865845598E+02 -0.60546886623E+02 -0.98656125678E+02  0.13220364158E+03  0.00000000000E+00 0.  1.
</event>
<event>
 8    1  0.4798744E-006  0.7713689E+02  0.7561462E-02  0.1337379E+00
         -1   -1    0    0    0  501 -0.00000000000E+00  0.00000000000E+00  0.42418648584E+02  0.42418648584E+02  0.00000000000E+00 0.  1.
          1   -1    0    0  501    0  0.00000000000E+00 -0.00000000000E+00 -0.38586591497E+03  0.38586591497E+03  0.00000000000E+00 0. -1.
         23    2    1    2    0    0  0.21546144146E+01  0.10131567832E+02 -0.72176288707E+02  0.14478996192E+03  0.12508966940E+03 0.  0.
         23    2    1    2    0    0 -0.21546144146E+01 -0.10131567832E+02 -0.27127097768E+03  0.28349460164E+03  0.81694276392E+02 0.  0.
          5    1    3    3  502    0 -0.15570173823E+02 -0.28658546962E+02 -0.91908100407E+02  0.97613082870E+02  0.41800000000E+01 0.  1.
         -5    1    3    3    0  502  0.17724788237E+02  0.38790114794E+02  0.19731811700E+02  0.47176879049E+02  0.41800000000E+01 0.  1.
        -11    1    4    4    0    0  0.16342634423E+01 -0.44215569856E+02 -0.19356604957E+03  0.19855856310E+03  0.00000000000E+00 0.  1.
         11    1    4    4    0    0 -0.37888778569E+01  0.34084002024E+02 -0.77704928116E+02  0.84936038541E+02  0.00000000000E+00 0. -1.
</event>
<event>
 8    1  0.4798744E-006  0.1184055E+03  0.7561462E-02  0.1245751E+00
          2   -1    0    0  501    0  0.00000000000E+00  0.00000000000E+00  0.20252178318E+03  0.20252178318E+03  0.00000000000E+00 0. -1.
         -2   -1    0    0    0  501 -0.00000000000E+00 -0.00000000000E+00 -0.88897629533E+02  0.88897629533E+02  0.00000000000E+00 0.  1.
         23    2    1    2    0    0 -0.74372737050E+02  0.53491405684E+02  0.58787083034E+02  0.16581852657E+03  0.12508888090E+03 0.  0.
         23    2    1    2    0    0  0.74372737050E+02 -0.53491405684E+02  0.54837070611E+02  0.12560088614E+03  0.66150160899E+02 0.  0.
          5    1    3    3  502    0 -0.98206874023E+02  0.65252589084E+02  0.69417802448E+02  0.13688971541E+03  0.41800000000E+01 0.  1.
         -5    1    3    3    0  502  0.23834136974E+02 -0.11761183401E+02 -0.10630719414E+02  0.28928811167E+02  0.41800000000E+01 0.  1.
        -11    1    4    4    0    0  0.16599000554E+02 -0.82064071304E+01 -0.15340493810E+02  0.24045845540E+02  0.00000000000E+00 0.  1.
         11    1    4    4    0    0  0.57773736495E+02 -0.45284998553E+02  0.70177564421E+02  0.10155504060E+03  0.00000000000E+00 0. -1.
</event>
<event>
 7    1  0.4798744E-006  0.1594851E+03  0.7561462E-02  0.1189279E+00
          2   -1    0    0  501    0  0.00000000000E+00  0.00000000000E+00  0.11948638004E+04  0.11948638004E+04  0.00000000000E+00 0.  1.
         -2   -1    0    0    0  501 -0.00000000000E+00 -0.00000000000E+00 -0.34705767529E+02  0.34705767529E+02  0.00000000000E+00 0. -1.
         23    2    1    2    0    0 -0.30645596424E+02  0.12152579629E+03  0.47874285444E+03  0.51044050598E+03  0.12508843963E+03 0.  0.
          5    1    3    3  502    0  0.23618546740E+01  0.91321449341E+02  0.13073829064E+03  0.15954672828E+03  0.41800000000E+01 0.  1.
         -5    1    3    3    0  502 -0.33007451098E+02  0.30204346945E+02  0.34800456380E+03  0.35089377770E+03  0.41800000000E+01 0.  1.
        -11    1    1    2    0    0  0.82906101013E+02 -0.63024213343E+02  0.58797423611E+03  0.59712576178E+03  0.00000000000E+00 0.  1.
         11    1    1    2    0    0 -0.52260504589E+02 -0.58501582944E+02  0.93440942289E+02  0.12200330013E+03  0.00000000000E+00 0. -1.
</event>
<event>
 8    1  0.4798744E-006  0.9781178E+02  0.7561462E-02  0.1284966E+00
          2   -1    0    0  501    0  0.00000000000E+00  0.00000000000E+00  0.31316003031E+03  0.31316003031E+03  0.00000000000E+00 0. -1.
         -2   -1    0    0    0  501 -0.00000000000E+00 -0.00000000000E+00 -0.40846854478E+02  0.40846854478E+02  0.00000000000E+00 0.  1.
         23    2    1    2    0    0  0.17197179205E+00  0.16251054809E+02  0.10955768819E+03  0.16707684857E+03  0.12509060688E+03 0.  0.
         23    2    1    2    0    0 -0.17197179205E+00 -0.16251054809E+02  0.16275548764E+03  0.18693003622E+03  0.90495101121E+02 0.  0.
          5    1    3    3  502    0  0.52187894120E+02  0.88072193789E+01  0.10040371118E+03  0.11357605833E+03  0.41800000000E+01 0.  1.
         -5    1    3    3    0  502 -0.52015922328E+02  0.74438354302E+01  0.91539770089E+01  0.53500790243E+02  0.41800000000E+01 0.  1.
        -11    1    4    4    0    0  0.35085376096E+02  0.19054420920E+02  0.92602902532E+02  0.10084320567E+03  0.00000000000E+00 0. -1.
         11    1    4    4    0    0 -0.35257347888E+02 -0.35305475729E+02  0.70152585110E+02  0.86086830550E+02  0.00000000000E+00 0.  1.
</event>
<event>
 8    1  0.4798744E-006  0.1108466E+03  0.7561462E-02  0.1259010E+00
          1   -1    0    0  501    0  0.00000000000E+00  0.00000000000E+00  0.11027198222E+03  0.11027198222E+03  0.00000000000E+00 0. -1.
         -1   -1    0    0    0  501 -0.00000000000E+00 -0.00000000000E+00 -0.12922281605E+03  0.12922281605E+03  0.00000000000E+00 0.  1.
         23    2    1    2    0    0  0.88836462034E+01 -0.20294100421E+02 -0.52301035520E+02  0.13738715406E+03  0.12509621138E+03 0.  0.
         23    2    1    2    0    0 -0.88836462034E+01  0.20294100421E+02  0.33350201685E+02  0.10210764421E+03  0.93930641280E+02 0.  0.
          5    1    3    3  502    0  0.64289618457E+02  0.55813215415E+01 -0.17891918032E+02  0.67096194545E+02  0.41800000000E+01 0.  1.
         -5    1    3    3    0  502 -0.55405972254E+02 -0.25875421962E+02 -0.34409117488E+02  0.70290959514E+02  0.41800000000E+01 0.  1.
        -11    1    4    4    0    0 -0.48508143752E+02 -0.49356540865E+01  0.23433520008E+02  0.54097417235E+02  0.00000000000E+00 0. -1.
         11    1    4    4    0    0  0.39624497548E+02  0.25229754507E+02  0.99166816771E+01  0.48010226972E+02  0.00000000000E+00 0.  1.
</event>
<event>
 8    1  0.4798744E-006  0.1852821E+03  0.7561462E-02  0.1162787E+00
         -1   -1    0    0    0  501 -0.00000000000E+00  0.00000000000E+00  0.41856869765E+02  0.41856869765E+02  0.00000000000E+00 0.  1.
          1   -1    0    0  501    0  0.00000000000E+00 -0.00000000000E+00 -0.92423335472E+03  0.92423335472E+03  0.00000000000E+00 0. -1.
         23    2    1    2    0    0  0.11379298050E+03 -0.10573739948E+03 -0.33714075437E+03  0.39171590316E+03  0.12509284742E+03 0.  0.
         23    2    1    2    0    0 -0.11379298050E+03  0.10573739948E+03 -0.54523573059E+03  0.57437432132E+03  0.92166257509E+02 0.  0.
          5    1    3    3  502    0  0.13910643946E+03 -0.78312779737E+02 -0.24773821766E+03  0.29474597514E+03  0.41800000000E+01 0.  1.
         -5    1    3    3    0  502 -0.25313458955E+02 -0.27424619742E+02 -0.89402536703E+02  0.96969928025E+02  0.41800000000E+01 0.  1.
        -11    1    4    4    0    0 -0.10476589133E+03  0.48628979789E+02 -0.27956740491E+03  0.30248736097E+03  0.00000000000E+00 0.  1.
         11    1    4    4    0    0 -0.90270891779E+01  0.57108419690E+02 -0.26566832569E+03  0.27188696036E+03  0.00000000000E+00 0. -1.
</event>
<event>
 8    1  0.4798744E-006  0.1182085E+03  0.7561462E-02  0.1246082E+00
         -1   -1    0    0    0  501 -0.00000000000E+00  0.00000000000E+00  0.29367612875E+02  0.29367612875E+02  0.00000000000E+00 0.  1.
          1   -1    0    0  501    0  0.00000000000E+00 -0.00000000000E+00 -0.75077943783E+03  0.75077943783E+03  0.00000000000E+00 0. -1.
         23    2    1    2    0    0 -0.47052802301E+02 -0.88069186607E+02 -0.39707574107E+03  0.42812127301E+03  0.12509409425E+03 0.  0.
         23    2    1    2    0    0  0.47052802301E+02  0.88069186607E+02 -0.32433608388E+03  0.35202577770E+03  0.93584747811E+02 0.  0.
          5    1    3    3  502    0 -0.10915754183E+02  0.13795929860E+01  0.62990610689E+01  0.13349439559E+02  0.41800000000E+01 0.  1.
         -5    1    3    3    0  502 -0.36137048119E+02 -0.89448779593E+02 -0.40337480214E+03  0.41477183345E+03  0.41800000000E+01 0.  1.
        -11    1    4    4    0    0  0.67501497204E+02  0.83061341256E+02 -0.30575025242E+03  0.32394267300E+03  0.00000000000E+00 0. -1.
         11    1    4    4    0    0 -0.20448694903E+02  0.50078453513E+01 -0.18585831457E+02  0.28083104693E+02  0.00000000000E+00 0.  1.
</event>
<event>
 8    1  0.4798744E-006  0.9080532E+02  0.7561462E-02  0.1300913E+00
          1   -1    0    0  501    0  0.00000000000E+00  0.00000000000E+00  0.10242326835E+03  0.10242326835E+03  0.00000000000E+00 0. -1.
         -1   -1    0    0    0  501 -0.00000000000E+00 -0.00000000000E+00 -0.16887736575E+03  0.16887736575E+03  0.00000000000E+00 0.  1.
         23    2    1    2    0    0  0.56646991692E+02  0.37920144329E+02 -0.66932121373E+02  0.15739651381E+03  0.12508770793E+03 0.  0.
         23    2    1    2    0    0 -0.56646991692E+02 -0.37920144329E+02  0.47802396731E+00  0.11390412029E+03  0.91252951176E+02 0.  0.
          5    1    3    3  502    0  0.35752112897E+02  0.20527186504E+02  0.33487922138E+02  0.53277502677E+02  0.41800000000E+01 0. -1.
         -5    1    3    3    0  502  0.20894878794E+02  0.17392957825E+02 -0.10042004351E+03  0.10411901114E+03  0.41800000000E+01 0. -1.
        -11    1    4    4    0    0 -0.14616236652E+02 -0.62358235466E+02 -0.80186209936E+01  0.64548293447E+02  0.00000000000E+00 0. -1.
         11    1    4    4    0    0 -0.42030755040E+02  0.24438091137E+02  0.84966449609E+01  0.49355826842E+02  0.00000000000E+00 0.  1.
</event>
<event>
 8    1  0.4798744E-006  0.1910997E+03  0.7561462E-02  0.1157473E+00
         -3   -1    0    0    0  501 -0.00000000000E+00  0.00000000000E+00  0.10614956421E+04  0.10614956421E+04  0.00000000000E+00 0.  1.
          3   -1    0    0  501    0  0.00000000000E+00 -0.00000000000E+00 -0.45833269180E+02  0.45833269180E+02  0.00000000000E+00 0. -1.
         23    2    1    2    0    0 -0.56679476321E+02  0.14758456164E+03  0.79655499733E+03  0.82166964502E+03  0.12508947159E+03 0.  0.
         23    2    1    2    0    0  0.56679476321E+02 -0.14758456164E+03  0.21910737559E+03  0.28565926626E+03  0.92732995715E+02 0.  0.
          5    1    3    3  502    0 -0.31694660040E+02 -0.14331590994E+02  0.95783709682E+02  0.10198988879E+03  0.41800000000E+01 0.  1.
         -5    1    3    3    0  502 -0.24984816280E+02  0.16191615263E+03  0.70077128765E+03  0.71967975622E+03  0.41800000000E+01 0.  1.
        -11    1    4    4    0    0  0.67296965803E+01 -0.13022487890E+03  0.15489933051E+03  0.20247866676E+03  0.00000000000E+00 0. -1.
         11    1    4    4    0    0  0.49949779740E+02 -0.17359682740E+02  0.64208045081E+02  0.83180599505E+02  0.00000000000E+00 0.  1.
</event>
<event>
 8    1  0.4798744E-006  0.9315686E+02  0.7561462E-02  0.1295382E+00
          2   -1    0    0  501    0  0.00000000000E+00  0.00000000000E+00  0.60372881217E+03  0.60372881217E+03  0.00000000000E+00 0. -1.
         -2   -1    0    0    0  501 -0.00000000000E+00 -0.00000000000E+00 -0.25624159473E+02  0.25624159473E+02  0.00000000000E+00 0.  1.
         23    2    1    2    0    0 -0.10147781713E+02  0.25136390237E+02  0.18556658050E+03  0.22542699717E+03  0.12509020611E+03 0.  0.
         23    2    1    2    0    0  0.10147781713E+02 -0.25136390237E+02  0.39253807220E+03  0.40392597448E+03  0.91297530880E+02 0.  0.
          5    1    3    3  502    0  0.39243550615E+02  0.13351498633E+02  0.16550771296E+03  0.17067101168E+03  0.41800000000E+01 0. -1.
         -5    1    3    3    0  502 -0.49391332327E+02  0.11784891603E+02  0.20058867541E+02  0.54755985483E+02  0.41800000000E+01 0. -1.
        -11    1    4    4    0    0 -0.33229023477E+02  0.13254924711E+02  0.11622505628E+03  0.12160643379E+03  0.00000000000E+00 0.  1.
         11    1    4    4    0    0  0.43376805189E+02 -0.38391314947E+02  0.27631301592E+03  0.28231954069E+03  0.00000000000E+00 0. -1.
</event>
<event>
 8    1  0.4798744E-006  0.1216169E+03  0.7561462E-02  0.1240453E+00
         -2   -1    0    0    0  501 -0.00000000000E+00  0.00000000000E+00  0.59508689915E+02  0.59508689915E+02  0.00000000000E+00 0.  1.
          2   -1    0    0  501    0  0.00000000000E+00 -0.00000000000E+00 -0.25540163921E+03  0.25540163921E+03  0.00000000000E+00 0. -1.
         23    2    1    2    0    0 -0.17797658795E+02  0.44390212523E+02 -0.11070634328E+03  0.17375410481E+03  0.12508935554E+03 0.  0.
         23    2    1    2    0    0  0.17797658795E+02 -0.44390212523E+02 -0.85186606014E+02  0.14115622432E+03  0.10188755661E+03 0.  0.
          5    1    3    3  502    0 -0.45813504723E+02 -0.29338074983E+02 -0.38898744304E+02  0.67008839470E+02  0.41800000000E+01 0. -1.
         -5    1    3    3    0  502  0.28015845928E+02  0.73728287506E+02 -0.71807598976E+02  0.10674526534E+03  0.41800000000E+01 0. -1.
        -11    1    4    4    0    0 -0.41147173059E+02 -0.21783278040E+02 -0.52130812630E+02  0.69894368002E+02  0.00000000000E+00 0. -1.
         11    1    4    4    0    0  0.58944831854E+02 -0.22606934483E+02 -0.33055793384E+02  0.71261856314E+02  0.00000000000E+00 0.  1.
</event>
<event>
 8    1  0.4798744E-006  0.2314876E+03  0.7561462E-02  0.1125597E+00
         -1   -1    0    0    0  501 -0.00000000000E+00  0.00000000000E+00  0.88231216227E+02  0.88231216227E+02  0.00000000000E+00 0.  1.
          1   -1    0    0  501    0  0.00000000000E+00 -0.00000000000E+00 -0.79254670025E+03  0.79254670025E+03  0.00000000000E+00 0. -1.
         23    2    1    2    0    0 -0.15900795551E+03  0.14988228685E+03 -0.19375022426E+03  0.31770237919E+03  0.12508965791E+03 0.  0.
         23    2    1    2    0    0  0.15900795551E+03 -0.14988228685E+03 -0.51056525977E+03  0.56307553729E+03  0.92892122294E+02 0.  0.
          5    1    3    3  502    0 -0.75552012811E+02  0.11497483956E+03 -0.17923656044E+03  0.22598791421E+03  0.41800000000E+01 0. -1.
         -5    1    3    3    0  502 -0.83455942701E+02  0.34907447294E+02 -0.14513663815E+02  0.91714464977E+02  0.41800000000E+01 0. -1.
        -11    1    4    4    0    0  0.13275451394E+03 -0.68746078261E+02 -0.28307939822E+03  0.32013080130E+03  0.00000000000E+00 0. -1.
         11    1    4    4    0    0  0.26253441575E+02 -0.81136208588E+02 -0.22748586155E+03  0.24294473599E+03  0.00000000000E+00 0.  1.
</event>
<event>
 8    1  0.4798744E-006  0.8240117E+02  0.7561462E-02  0.1322372E+00
          1   -1    0    0  501    0  0.00000000000E+00  0.00000000000E+00  0.16900218253E+02  0.16900218253E+02  0.00000000000E+00 0. -1.
         -1   -1    0    0    0  501 -0.00000000000E+00 -0.00000000000E+00 -0.77079170680E+03  0.77079170680E+03  0.00000000000E+00 0.  1.
         23    2    1    2    0    0 -0.27255352197E+01  0.16329948823E+02 -0.54003270785E+03  0.55456463832E+03  0.12503006340E+03 0.  0.
         23    2    1    2    0    0  0.27255352197E+01 -0.16329948823E+02 -0.21385878069E+03  0.23312728673E+03  0.91316252488E+02 0.  0.
          5    1    3    3  502    0 -0.77192990042E+01  0.61228113166E+02 -0.44477043227E+03  0.44905086487E+03  0.41800000000E+01 0.  1.
         -5    1    3    3    0  502  0.49937637845E+01 -0.44898164344E+02 -0.95262275576E+02  0.10551377344E+03  0.41800000000E+01 0.  1.
        -11    1    4    4    0    0  0.10454097301E+02  0.18853475932E+02 -0.62911088492E+01  0.22457064716E+02  0.00000000000E+00 0. -1.
         11    1    4    4    0    0 -0.77285620811E+01 -0.35183424755E+02 -0.20756767184E+03  0.21067022202E+03  0.00000000000E+00 0.  1.
</event>
<event>
 8    1  0.4798744E-006  0.9458011E+02  0.7561462E-02  0.1292125E+00
          2   -1    0    0  501    0  0.00000000000E+00  0.00000000000E+00  0.46585081800E+03  0.46585081800E+03  0.00000000000E+00 0. -1.
         -2   -1    0    0    0  501 -0.00000000000E+00 -0.00000000000E+00 -0.34543507654E+02  0.34543507654E+02  0.00000000000E+00 0.  1.
         23    2    1    2    0    0  0.30748495209E+02 -0.47242403893E+02  0.12582163191E+03  0.17698300018E+03  0.11097109809E+03 0.  0.
         23    2    1    2    0    0 -0.30748495209E+02  0.47242403893E+02  0.30548567844E+03  0.32341132548E+03  0.89978169772E+02 0.  0.
          5    1    3    3  502    0 -0.16989834854E+02 -0.33066221078E+02  0.12114636051E+03  0.12679094025E+03  0.41800000000E+01 0. -1.
         -5    1    3    3    0  502  0.47738330063E+02 -0.14176182815E+02  0.46752713952E+01  0.50192059920E+02  0.41800000000E+01 0.  1.
        -11    1    4    4    0    0 -0.31498794785E+02  0.71174273781E+02  0.26674708615E+03  0.27787040017E+03  0.00000000000E+00 0. -1.
         11    1    4    4    0    0  0.75029957633E+00 -0.23931869887E+02  0.38738592291E+02  0.45540925314E+02  0.00000000000E+00 0.  1.
</event>
<event>
 8    1  0.5241138E-006  0.2780550E+03  0.7561462E-02  0.1096756E+00
          1   -1    0    0  501    0  0.00000000000E+00  0.00000000000E+00  0.19626198511E+03  0.19626198511E+03  0.00000000000E+00 0. -1.
         -1   -1    0    0    0  501 -0.00000000000E+00 -0.00000000000E+00 -0.41508751118E+03  0.41508751118E+03  0.00000000000E+00 0.  1.
         23    2    1    2    0    0 -0.12430622709E+03  0.23248191453E+03 -0.11342876128E+03  0.31307111932E+03  0.12509022019E+03 0.  0.
         23    2    1    2    0    0  0.12430622709E+03 -0.23248191453E+03 -0.10539676479E+03  0.29827837697E+03  0.91441967727E+02 0.  0.
          5    1    3    3  502    0 -0.99852088176E+02  0.78435390624E+02 -0.13443136633E+02  0.12775265296E+03  0.41800000000E+01 0.  1.
         -5    1    3    3    0  502 -0.24454138917E+02  0.15404652391E+03 -0.99985624651E+02  0.18531846636E+03  0.41800000000E+01 0.  1.
        -11    1    4    4    0    0 -0.47585569207E+01 -0.46003975828E+02  0.41224490433E+01  0.46432792744E+02  0.00000000000E+00 0. -1.
         11    1    4    4    0    0  0.12906478401E+03 -0.18647793870E+03 -0.10951921383E+03  0.25184558423E+03  0.00000000000E+00 0.  1.
</event>
<event>
 8    1  0.4798744E-006  0.1375583E+03  0.7561462E-02  0.1216653E+00
         -2   -1    0    0    0  501 -0.00000000000E+00  0.00000000000E+00  0.33851988983E+02  0.33851988983E+02  0.00000000000E+00 0.  1.
          2   -1    0    0  501    0  0.00000000000E+00 -0.00000000000E+00 -0.57488649947E+03  0.57488649947E+03  0.00000000000E+00 0. -1.
         23    2    1    2    0    0 -0.53641228975E+02 -0.65783434641E+02 -0.24886355493E+03  0.29116442445E+03  0.12505523328E+03 0.  0.
         23    2    1    2    0    0  0.53641228975E+02  0.65783434641E+02 -0.29217095555E+03  0.31757406400E+03  0.91019652492E+02 0.  0.
          5    1    3    3  502    0  0.38582177350E+02 -0.26389457160E+01 -0.55305626813E+02  0.67614593105E+02  0.41800000000E+01 0. -1.
         -5    1    3    3    0  502 -0.92223406325E+02 -0.63144488925E+02 -0.19355792812E+03  0.22354983134E+03  0.41800000000E+01 0. -1.
        -11    1    4    4    0    0 -0.13076691016E+02  0.55312158253E+02 -0.12769361389E+03  0.13977157696E+03  0.00000000000E+00 0.  1.
         11    1    4    4    0    0  0.66717919991E+02  0.10471276388E+02 -0.16447734166E+03  0.17780248704E+03  0.00000000000E+00 0. -1.
</event>
<event>
 7    1  0.4798744E-006  0.1894738E+03  0.7561462E-02  0.1158937E+00
         -1   -1    0    0    0  501 -0.00000000000E+00  0.00000000000E+00  0.65991220291E+02  0.65991220291E+02  0.00000000000E+00 0.  1.
          1   -1    0    0  501    0  0.00000000000E+00 -0.00000000000E+00 -0.79207895341E+03  0.79207895341E+03  0.00000000000E+00 0. -1.
         23    2    1    2    0    0  0.15208132277E+03  0.36258563267E+02 -0.47672123766E+03  0.50997406497E+03  0.91471287084E+02 0.  0.
          5    1    1    2  502    0 -0.95975534394E+02 -0.86656018797E+02 -0.23911400599E+03  0.27187046374E+03  0.41800000000E+01 0. -1.
         -5    1    1    2    0  502 -0.56105788376E+02  0.50397455530E+02 -0.10252489469E+02  0.76225644986E+02  0.41800000000E+01 0.  1.
        -11    1    3    3    0    0 -0.98025478130E+00  0.20103419433E+02 -0.21561168767E+02  0.29495633083E+02  0.00000000000E+00 0.  1.
         11    1    3    3    0    0  0.15306157755E+03  0.16155143834E+02 -0.45516006889E+03  0.48047843189E+03  0.00000000000E+00 0. -1.
</event>
<event>
 8    1  0.5347937E-006  0.1476674E+03  0.7561462E-02  0.1203369E+00
         -2   -1    0    0    0  501 -0.00000000000E+00  0.00000000000E+00  0.71160472942E+03  0.71160472942E+03  0.00000000000E+00 0.  1.
          2   -1    0    0  501    0  0.00000000000E+00 -0.00000000000E+00 -0.41558159258E+02  0.41558159258E+02  0.00000000000E+00 0. -1.
         23    2    1    2    0    0  0.12691629627E+03  0.40642948185E+02  0.39831790816E+03  0.43825143525E+03  0.12509024361E+03 0.  0.
         23    2    1    2    0    0 -0.12691629627E+03 -0.40642948185E+02  0.27172866200E+03  0.31491145342E+03  0.87023917662E+02 0.  0.
          5    1    3    3  502    0  0.13122537282E+03  0.24280979316E+02  0.39906309894E+03  0.42080695546E+03  0.41800000000E+01 0. -1.
         -5    1    3    3    0  502 -0.43090765458E+01  0.16361968868E+02 -0.74519078425E+00  0.17444479792E+02  0.41800000000E+01 0. -1.
        -11    1    4    4    0    0 -0.81594387718E+02  0.27521081558E+01  0.84712590305E+02  0.11764965432E+03  0.00000000000E+00 0.  1.
         11    1    4    4    0    0 -0.45321908555E+02 -0.43395056340E+02  0.18701607170E+03  0.19726179910E+03  0.00000000000E+00 0. -1.
</event>
<event>
 8    1  0.4798744E-006  0.9600964E+02  0.7561462E-02  0.1288918E+00
         -1   -1    0    0    0  501 -0.00000000000E+00  0.00000000000E+00  0.74752520252E+02  0.74752520252E+02  0.00000000000E+00 0.  1.
          1   -1    0    0  501    0  0.00000000000E+00 -0.00000000000E+00 -0.25864201718E+03  0.25864201718E+03  0.00000000000E+00 0. -1.
         23    2    1    2    0    0 -0.10079507641E+02 -0.10602348111E+02  0.88935389103E+01  0.12624967926E+03  0.12508349299E+03 0.  0.
         23    2    1    2    0    0  0.10079507641E+02  0.10602348111E+02 -0.19278303584E+03  0.20714485818E+03  0.74361865914E+02 0.  0.
          5    1    3    3  502    0  0.23306677509E+02 -0.56451056983E+02  0.26515609877E+02  0.66711865647E+02  0.41800000000E+01 0.  1.
         -5    1    3    3    0  502 -0.33386185150E+02  0.45848708872E+02 -0.17622070967E+02  0.59537813608E+02  0.41800000000E+01 0.  1.
        -11    1    4    4    0    0  0.20946423725E+02  0.38590852734E+02 -0.13600295544E+03  0.14291539620E+03  0.00000000000E+00 0. -1.
         11    1    4    4    0    0 -0.10866916084E+02 -0.27988504622E+02 -0.56780080393E+02  0.64229461975E+02  0.00000000000E+00 0.  1.
</event>
<event>
 8    1  0.4798744E-006  0.9807171E+02  0.7561462E-02  0.1284404E+00
          1   -1    0    0  501    0  0.00000000000E+00  0.00000000000E+00  0.30751519556E+03  0.30751519556E+03  0.00000000000E+00 0. -1.
         -1   -1    0    0    0  501 -0.00000000000E+00 -0.00000000000E+00 -0.39705693490E+02  0.39705693490E+02  0.00000000000E+00 0.  1.
         23    2    1    2    0    0 -0.16886136640E+02 -0.86941758713E+00  0.16622171958E+03  0.20982911342E+03  0.12693580773E+03 0.  0.
         23    2    1    2    0    0  0.16886136640E+02  0.86941758713E+00  0.10158778250E+03  0.13739177563E+03  0.90942426628E+02 0.  0.
          5    1    3    3  502    0 -0.68611964600E+02 -0.71605208934E+01  0.12660047934E+03  0.14423601671E+03  0.41800000000E+01 0. -1.
         -5    1    3    3    0  502  0.51725827960E+02  0.62911033063E+01  0.39621240235E+02  0.65593096716E+02  0.41800000000E+01 0.  1.
        -11    1    4    4    0    0  0.42132603095E+02 -0.15246249136E+02  0.17454378474E+02  0.48085961404E+02  0.00000000000E+00 0.  1.
         11    1    4    4    0    0 -0.25246466455E+02  0.16115666723E+02  0.84133404024E+02  0.89305814229E+02  0.00000000000E+00 0. -1.
</event>
<event>
 8    1  0.4798744E-006  0.1153033E+03  0.7561462E-02  0.1251053E+00
         -2   -1    0    0    0  501 -0.00000000000E+00  0.00000000000E+00  0.17341882656E+02  0.17341882656E+02  0.00000000000E+00 0.  1.
          2   -1    0    0  501    0  0.00000000000E+00 -0.00000000000E+00 -0.96738429663E+03  0.96738429663E+03  0.00000000000E+00 0. -1.
         23    2    1    2    0    0  0.38498637019E+02  0.51883910377E+02 -0.42214632609E+03  0.44500320721E+03  0.12508496547E+03 0.  0.
         23    2    1    2    0    0 -0.38498637019E+02 -0.51883910377E+02 -0.52789608788E+03  0.53972297208E+03  0.91937597188E+02 0.  0.
          5    1    3    3  502    0  0.17037329695E+02 -0.30405424600E+02 -0.25515164247E+03  0.25755503005E+03  0.41800000000E+01 0.  1.
         -5    1    3    3    0  502  0.21461307323E+02  0.82289334977E+02 -0.16699468362E+03  0.18744817716E+03  0.41800000000E+01 0.  1.
        -11    1    4    4    0    0 -0.47008284665E+02 -0.73432902434E+02 -0.45339718072E+03  0.46170463878E+03  0.00000000000E+00 0. -1.
         11    1    4    4    0    0  0.85096476459E+01  0.21548992057E+02 -0.74498907167E+02  0.78018333299E+02  0.00000000000E+00 0.  1.
</event>
<event>
 8    1  0.4798744E-006  0.1386984E+03  0.7561462E-02  0.1215091E+00
          2   -1    0    0  501    0  0.00000000000E+00  0.00000000000E+00  0.81278203376E+03  0.81278203376E+03  0.00000000000E+00 0. -1.
         -2   -1    0    0    0  501 -0.00000000000E+00 -0.00000000000E+00 -0.28573560916E+02  0.28573560916E+02  0.00000000000E+00 0.  1.
         23    2    1    2    0    0  0.10588087531E+03  0.32283380814E+02  0.46479900938E+03  0.49390362386E+03  0.12509873743E+03 0.  0.
         23    2    1    2    0    0 -0.10588087531E+03 -0.32283380814E+02  0.31940946346E+03  0.34745197081E+03  0.80296265419E+02 0.  0.
          5    1    3    3  502    0 -0.28609497284E+02  0.59506060923E+01  0.69795370149E+02  0.75781126555E+02  0.41800000000E+01 0.  1.
         -5    1    3    3    0  502  0.13449037260E+03  0.26332774722E+02  0.39500363923E+03  0.41812249731E+03  0.41800000000E+01 0.  1.
        -11    1    4    4    0    0 -0.52615153063E+02 -0.18194605451E+02  0.58375615187E+02  0.80666662555E+02  0.00000000000E+00 0.  1.
         11    1    4    4    0    0 -0.53265722251E+02 -0.14088775363E+02  0.26103384827E+03  0.26678530826E+03  0.00000000000E+00 0. -1.
</event>
<event>
 8    1  0.4798744E-006  0.1202084E+03  0.7561462E-02  0.1242754E+00
          2   -1    0    0  501    0  0.00000000000E+00  0.00000000000E+00  0.40369389038E+03  0.40369389038E+03  0.00000000000E+00 0. -1.
         -2   -1    0    0    0  501 -0.00000000000E+00 -0.00000000000E+00 -0.56837819180E+02  0.56837819180E+02  0.00000000000E+00 0.  1.
         23    2    1    2    0    0  0.99600316363E+02  0.14499127179E+02  0.21639462006E+03  0.26945124740E+03  0.12508755104E+03 0.  0.
         23    2    1    2    0    0 -0.99600316363E+02 -0.14499127179E+02  0.13046145113E+03  0.19108046215E+03  0.96752803973E+02 0.  0.
          5    1    3    3  502    0  0.22849104670E+02  0.49518218260E+02  0.15683255217E+03  0.16609653020E+03  0.41800000000E+01 0.  1.
         -5    1    3    3    0  502  0.76751211692E+02 -0.35019091081E+02  0.59562067890E+02  0.10335471720E+03  0.41800000000E+01 0.  1.
        -11    1    4    4    0    0 -0.57197937778E+02 -0.27916681960E+01  0.13520887625E+03  0.14683609132E+03  0.00000000000E+00 0. -1.
         11    1    4    4    0    0 -0.42402378585E+02 -0.11707458983E+02 -0.47474251138E+01  0.44244370836E+02  0.00000000000E+00 0.  1.
</event>
<event>
 8    1  0.4798744E-006  0.1016362E+03  0.7561462E-02  0.1276892E+00
          2   -1    0    0  501    0  0.00000000000E+00  0.00000000000E+00  0.38285267411E+03  0.38285267411E+03  0.00000000000E+00 0. -1.
         -2   -1    0    0    0  501 -0.00000000000E+00 -0.00000000000E+00 -0.34272592399E+02  0.34272592399E+02  0.00000000000E+00 0.  1.
         23    2    1    2    0    0  0.31510511772E+02 -0.69686163282E+01  0.15213783170E+03  0.19958699687E+03  0.12509026949E+03 0.  0.
         23    2    1    2    0    0 -0.31510511772E+02  0.69686163282E+01  0.19644225001E+03  0.21753826963E+03  0.87703290707E+02 0.  0.
          5    1    3    3  502    0  0.17345895646E+02 -0.56109920593E+02  0.13186880078E+03  0.14441626052E+03  0.41800000000E+01 0.  1.
         -5    1    3    3    0  502  0.14164616126E+02  0.49141304264E+02  0.20269030918E+02  0.55170736348E+02  0.41800000000E+01 0.  1.
        -11    1    4    4    0    0  0.30075975890E+02 -0.45764320997E+01  0.73560500793E+02  0.79603111330E+02  0.00000000000E+00 0.  1.
         11    1    4    4    0    0 -0.61586487662E+02  0.11545048428E+02  0.12288174921E+03  0.13793515830E+03  0.00000000000E+00 0. -1.
</event>
<event>
 8    1  0.4798744E-006  0.1648055E+03  0.7561462E-02  0.1183376E+00
         -1   -1    0    0    0  501 -0.00000000000E+00  0.00000000000E+00  0.97795067135E+02  0.97795067135E+02  0.00000000000E+00 0.  1.
          1   -1    0    0  501    0  0.00000000000E+00 -0.00000000000E+00 -0.35089721841E+03  0.35089721841E+03  0.00000000000E+00 0. -1.
         23    2    1    2    0    0 -0.14321311287E+03 -0.37389619515E+02 -0.10550822644E+03  0.22065243532E+03  0.12509009560E+03 0.  0.
         23    2    1    2    0    0  0.14321311287E+03  0.37389619515E+02 -0.14759392483E+03  0.22803985023E+03  0.91160448104E+02 0.  0.
          5    1    3    3  502    0 -0.53044490778E+02 -0.42131688942E+02  0.15494784799E+02  0.69615788231E+02  0.41800000000E+01 0. -1.
         -5    1    3    3    0  502 -0.90168622096E+02  0.47420694277E+01 -0.12100301124E+03  0.15103664709E+03  0.41800000000E+01 0. -1.
        -11    1    4    4    0    0  0.19109241265E+02 -0.25784537836E+02 -0.13835076616E+02  0.34948745874E+02  0.00000000000E+00 0. -1.
         11    1    4    4    0    0  0.12410387161E+03  0.63174157351E+02 -0.13375884821E+03  0.19309110435E+03  0.00000000000E+00 0.  1.
</event>
<event>
 8    1  0.4798744E-006  0.1124370E+03  0.7561462E-02  0.1256122E+00
         -1   -1    0    0    0  501 -0.00000000000E+00  0.00000000000E+00  0.36864757221E+03  0.36864757221E+03  0.00000000000E+00 0. -1.
          1   -1    0    0  501    0  0.00000000000E+00 -0.00000000000E+00 -0.38945750582E+02  0.38945750582E+02  0.00000000000E+00 0.  1.
         23    2    1    2    0    0  0.17746661545E+01 -0.45348347468E+02  0.24478747585E+03  0.27861700342E+03  0.12508758613E+03 0.  0.
         23    2    1    2    0    0 -0.17746661545E+01  0.45348347468E+02  0.84914345776E+02  0.12897631937E+03  0.85818545673E+02 0.  0.
          5    1    3    3  502    0  0.62326080250E+02 -0.22058987106E+02  0.14640692796E+03  0.16069723129E+03  0.41800000000E+01 0. -1.
         -5    1    3    3    0  502 -0.60551414095E+02 -0.23289360362E+02  0.98380547892E+02  0.11791977213E+03  0.41800000000E+01 0. -1.
        -11    1    4    4    0    0  0.22234868926E+02 -0.16226992640E+02  0.10528159543E+02  0.29471118568E+02  0.00000000000E+00 0.  1.
         11    1    4    4    0    0 -0.24009535081E+02  0.61575340108E+02  0.74386186233E+02  0.99505200801E+02  0.00000000000E+00 0. -1.
</event>
<event>
 8    1  0.4798744E-006  0.1857462E+03  0.7561462E-02  0.1162355E+00
          1   -1    0    0  501    0  0.00000000000E+00  0.00000000000E+00  0.95332619028E+02  0.95332619028E+02  0.00000000000E+00 0. -1.
         -1   -1    0    0    0  501 -0.00000000000E+00 -0.00000000000E+00 -0.60260581623E+03  0.60260581623E+03  0.00000000000E+00 0.  1.
         23    2    1    2    0    0 -0.50808034662E+00  0.16071671707E+03 -0.46521018451E+03  0.50783703917E+03  0.12509125185E+03 0.  0.
         23    2    1    2    0    0  0.50808034662E+00 -0.16071671707E+03 -0.42063012690E+02  0.19010139609E+03  0.92407372352E+02 0.  0.
          5    1    3    3  502    0 -0.97372271928E+01  0.17366724876E+03 -0.34380936844E+03  0.38532775803E+03  0.41800000000E+01 0.  1.
         -5    1    3    3    0  502  0.92291468462E+01 -0.12950531683E+02 -0.12140081607E+03  0.12250928114E+03  0.41800000000E+01 0.  1.
        -11    1    4    4    0    0  0.26142667078E+02 -0.97027763014E+01 -0.22203384859E+02  0.35645100773E+02  0.00000000000E+00 0.  1.
         11    1    4    4    0    0 -0.25634586731E+02 -0.15101394077E+03 -0.19859627830E+02  0.15445629531E+03  0.00000000000E+00 0. -1.
</event>
<event>
 8    1  0.4798744E-006  0.1045865E+03  0.7561462E-02  0.1270937E+00
         -2   -1    0    0    0  501 -0.00000000000E+00  0.00000000000E+00  0.80267011551E+02  0.80267011551E+02  0.00000000000E+00 0.  1.
          2   -1    0    0  501    0  0.00000000000E+00 -0.00000000000E+00 -0.19939688896E+03  0.19939688896E+03  0.00000000000E+00 0. -1.
         23    2    1    2    0    0 -0.26346351158E+02  0.58225552547E+02 -0.52600651493E+02  0.15000195258E+03  0.12509761010E+03 0.  0.
         23    2    1    2    0    0  0.26346351158E+02 -0.58225552547E+02 -0.66529225915E+02  0.12966194793E+03  0.91113871887E+02 0.  0.
          5    1    3    3  502    0 -0.21255883192E+02 -0.36954698338E+02 -0.28965525847E+02  0.51710118808E+02  0.41800000000E+01 0. -1.
         -5    1    3    3    0  502 -0.50904679658E+01  0.95180250885E+02 -0.23635125645E+02  0.98291833776E+02  0.41800000000E+01 0. -1.
        -11    1    4    4    0    0  0.30324540089E+02 -0.30823613165E+02  0.13241880352E+02  0.45221900174E+02  0.00000000000E+00 0.  1.
         11    1    4    4    0    0 -0.39781889311E+01 -0.27401939383E+02 -0.79771106267E+02  0.84440047751E+02  0.00000000000E+00 0. -1.
</event>
<event>
 8    1  0.4798744E-006  0.8744822E+02  0.7561462E-02  0.1309152E+00
         -1   -1    0    0    0  501 -0.00000000000E+00  0.00000000000E+00  0.43779865282E+02  0.43779865282E+02  0.00000000000E+00 0.  1.
          1   -1    0    0  501    0  0.00000000000E+00 -0.00000000000E+00 -0.38220312635E+03  0.38220312635E+03  0.00000000000E+00 0. -1.
         23    2    1    2    0    0 -0.11599291873E+02 -0.60543536114E+02 -0.13142081878E+03  0.19162271597E+03  0.12509104817E+03 0.  0.
         23    2    1    2    0    0  0.11599291873E+02  0.60543536114E+02 -0.20700244229E+03  0.23436027566E+03  0.90965182107E+02 0.  0.
          5    1    3    3  502    0  0.50071541329E+01 -0.20872736685E+02  0.22723493234E+02  0.31536839950E+02  0.41800000000E+01 0.  1.
         -5    1    3    3    0  502 -0.16606446006E+02 -0.39670799429E+02 -0.15414431201E+03  0.16008587602E+03  0.41800000000E+01 0.  1.
        -11    1    4    4    0    0  0.26458170055E+02  0.80615277498E+02 -0.15646272970E+03  0.17798720042E+03  0.00000000000E+00 0. -1.
         11    1    4    4    0    0 -0.14858878181E+02 -0.20071741384E+02 -0.50539712594E+02  0.56373075241E+02  0.00000000000E+00 0.  1.
</event>
<event>
 8    1  0.4798744E-006  0.8929029E+02  0.7561462E-02  0.1304580E+00
         -1   -1    0    0    0  501 -0.00000000000E+00  0.00000000000E+00  0.26411935786E+03  0.26411935786E+03  0.00000000000E+00 0.  1.
          1   -1    0    0  501    0  0.00000000000E+00 -0.00000000000E+00 -0.51039328983E+02  0.51039328983E+02  0.00000000000E+00 0. -1.
         23    2    1    2    0    0  0.28301271239E+02  0.28490234473E+02  0.10765759404E+03  0.16984821785E+03  0.12508238941E+03 0.  0.
         23    2    1    2    0    0 -0.28301271239E+02 -0.28490234473E+02  0.10542243484E+03  0.14531046899E+03  0.91589230896E+02 0.  0.
          5    1    3    3  502    0  0.61123561844E+02  0.26031177724E+02  0.11766807746E+03  0.13519231073E+03  0.41800000000E+01 0.  1.
         -5    1    3    3    0  502 -0.32822290604E+02  0.24590567487E+01 -0.10010483423E+02  0.34655907129E+02  0.41800000000E+01 0.  1.
        -11    1    4    4    0    0 -0.11574807678E+02  0.22428520241E+02 -0.19402669608E+01  0.25313619435E+02  0.00000000000E+00 0. -1.
         11    1    4    4    0    0 -0.16726463561E+02 -0.50918754714E+02  0.10736270180E+03  0.11999684955E+03  0.00000000000E+00 0.  1.
</event>
<event>
 8    1  0.4798744E-006  0.1925275E+03  0.7561462E-02  0.1156201E+00
         -2   -1    0    0    0  501 -0.00000000000E+00  0.00000000000E+00  0.64076391195E+02  0.64076391195E+02  0.00000000000E+00 0.  1.
          2   -1    0    0  501    0  0.00000000000E+00 -0.00000000000E+00 -0.80185550567E+03  0.80185550567E+03  0.00000000000E+00 0. -1.
         23    2    1    2    0    0  0.60471104467E+01  0.18665159582E+03 -0.25417078223E+03  0.33930180445E+03  0.12509013631E+03 0.  0.
         23    2    1    2    0    0 -0.60471104467E+01 -0.18665159582E+03 -0.48360833225E+03  0.52663009241E+03  0.92665254804E+02 0.  0.
          5    1    3    3  502    0 -0.34401485968E+01  0.36363729762E+01 -0.98774027414E+02  0.98989083854E+02  0.41800000000E+01 0.  1.
         -5    1    3    3    0  502  0.94872590435E+01  0.18301522284E+03 -0.15539675481E+03  0.24031272060E+03  0.41800000000E+01 0.  1.
        -11    1    4    4    0    0  0.24608840028E+02 -0.58654412643E+02 -0.80610240702E+02  0.10268371846E+03  0.00000000000E+00 0.  1.
         11    1    4    4    0    0 -0.30655950475E+02 -0.12799718317E+03 -0.40299809155E+03  0.42394637396E+03  0.00000000000E+00 0. -1.
</event>
<event>
 8    1  0.4798744E-006  0.1071793E+03  0.7561462E-02  0.1265884E+00
         -1   -1    0    0    0  501 -0.00000000000E+00  0.00000000000E+00  0.39782855633E+03  0.39782855633E+03  0.00000000000E+00 0.  1.
          1   -1    0    0  501    0  0.00000000000E+00 -0.00000000000E+00 -0.50898312785E+02  0.50898312785E+02  0.00000000000E+00 0. -1.
         23    2    1    2    0    0  0.16215330897E+02 -0.67100161330E+02  0.27926972869E+03  0.31369480721E+03  0.12508989608E+03 0.  0.
         23    2    1    2    0    0 -0.16215330897E+02  0.67100161330E+02  0.67660514846E+02  0.13503206190E+03  0.94288620018E+02 0.  0.
          5    1    3    3  502    0 -0.13811942037E+02  0.32360823893E+02  0.10437774448E+03  0.11022784861E+03  0.41800000000E+01 0.  1.
         -5    1    3    3    0  502  0.30027272934E+02 -0.99460985223E+02  0.17489198421E+03  0.20346695860E+03  0.41800000000E+01 0.  1.
        -11    1    4    4    0    0  0.15054730404E-01  0.54238655271E+02 -0.95672646376E+01  0.55075988460E+02  0.00000000000E+00 0. -1.
         11    1    4    4    0    0 -0.16230385627E+02  0.12861506059E+02  0.77227779484E+02  0.79956073438E+02  0.00000000000E+00 0.  1.
</event>
<event>
 7    1  0.4798744E-006  0.1215764E+03  0.7561462E-02  0.1240519E+00
          2   -1    0    0  501    0  0.00000000000E+00  0.00000000000E+00  0.39907497423E+03  0.39907497423E+03  0.00000000000E+00 0. -1.
         -2   -1    0    0    0  501 -0.00000000000E+00 -0.00000000000E+00 -0.62716023736E+02  0.62716023736E+02  0.00000000000E+00 0.  1.
         23    2    1    2    0    0 -0.65316954896E+02 -0.11609311420E+02  0.84656305881E+02  0.12412988528E+03  0.61971425553E+02 0.  0.
          5    1    1    2  502    0  0.28975929103E+02 -0.64107311422E+02  0.24312627232E+03  0.25313476359E+03  0.41800000000E+01 0. -1.
         -5    1    1    2    0  502  0.36341025794E+02  0.75716622842E+02  0.85763722934E+01  0.84526349099E+02  0.41800000000E+01 0.  1.
        -11    1    3    3    0    0 -0.23668542162E+02 -0.33902821657E+02  0.53186792742E+02  0.67367916151E+02  0.00000000000E+00 0. -1.
         11    1    3    3    0    0 -0.41648412734E+02  0.22293510237E+02  0.31469513139E+02  0.56761969127E+02  0.00000000000E+00 0.  1.
</event>
<event>
 8    1  0.4798744E-006  0.1933987E+03  0.7561462E-02  0.1155431E+00
          1   -1    0    0  501    0  0.00000000000E+00  0.00000000000E+00  0.12181047624E+04  0.12181047624E+04  0.00000000000E+00 0. -1.
         -1   -1    0    0    0  501 -0.00000000000E+00 -0.00000000000E+00 -0.40551317266E+02  0.40551317266E+02  0.00000000000E+00 0.  1.
         23    2    1    2    0    0 -0.29631449439E+02  0.16662260258E+03  0.34298946532E+03  0.40240545038E+03  0.12508900306E+03 0.  0.
         23    2    1    2    0    0  0.29631449439E+02 -0.16662260258E+03  0.83456397986E+03  0.85625062933E+03  0.89593466653E+02 0.  0.
          5    1    3    3  502    0 -0.78520812274E+02  0.11218135737E+03  0.23090231657E+03  0.26848375574E+03  0.41800000000E+01 0.  1.
         -5    1    3    3    0  502  0.48889362835E+02  0.54441245214E+02  0.11208714875E+03  0.13392169463E+03  0.41800000000E+01 0.  1.
        -11    1    4    4    0    0 -0.97644521388E+01 -0.67838535180E+01  0.10369333556E+02  0.15776193220E+02  0.00000000000E+00 0. -1.
         11    1    4    4    0    0  0.39395901578E+02 -0.15983874906E+03  0.82419464630E+03  0.84047443611E+03  0.00000000000E+00 0.  1.
</event>
<event>
 8    1  0.4798744E-006  0.1095110E+03  0.7561462E-02  0.1261478E+00
         -2   -1    0    0    0  501 -0.00000000000E+00  0.00000000000E+00  0.15261552268E+02  0.15261552268E+02  0.00000000000E+00 0. -1.
          2   -1    0    0  501    0  0.00000000000E+00 -0.00000000000E+00 -0.82532525953E+03  0.82532525953E+03  0.00000000000E+00 0.  1.
         23    2    1    2    0    0 -0.15456708628E+02 -0.26705551478E+02 -0.44165624127E+03  0.46006609423E+03  0.12509388188E+03 0.  0.
         23    2    1    2    0    0  0.15456708628E+02  0.26705551478E+02 -0.36840746599E+03  0.38052071757E+03  0.90110261245E+02 0.  0.
          5    1    3    3  502    0 -0.68321377376E+02  0.12251305747E+01 -0.25450337149E+03  0.26355027993E+03  0.41800000000E+01 0. -1.
         -5    1    3    3    0  502  0.52864668748E+02 -0.27930682053E+02 -0.18715286979E+03  0.19651581430E+03  0.41800000000E+01 0. -1.
        -11    1    4    4    0    0  0.46468908865E+02  0.35401818486E+02 -0.28871284017E+03  0.29456366429E+03  0.00000000000E+00 0.  1.
         11    1    4    4    0    0 -0.31012200236E+02 -0.86962670079E+01 -0.79694625816E+02  0.85957053273E+02  0.00000000000E+00 0. -1.
</event>
<event>
 8    1  0.4798744E-006  0.9931289E+02  0.7561462E-02  0.1281748E+00
          1   -1    0    0  501    0  0.00000000000E+00  0.00000000000E+00  0.42447680246E+02  0.42447680246E+02  0.00000000000E+00 0. -1.
         -1   -1    0    0    0  501 -0.00000000000E+00 -0.00000000000E+00 -0.86918213440E+03  0.86918213440E+03  0.00000000000E+00 0.  1.
         23    2    1    2    0    0  0.87854419045E+01 -0.66819003194E+02 -0.77167577155E+03  0.78464891527E+03  0.12509380744E+03 0.  0.
         23    2    1    2    0    0 -0.87854419045E+01  0.66819003194E+02 -0.55058682605E+02  0.12698089938E+03  0.92470141661E+02 0.  0.
          5    1    3    3  502    0  0.51010684475E+02 -0.20567419161E+02 -0.58725023582E+03  0.58983507910E+03  0.41800000000E+01 0.  1.
         -5    1    3    3    0  502 -0.42225242570E+02 -0.46251584033E+02 -0.18442553573E+03  0.19481383617E+03  0.41800000000E+01 0.  1.
        -11    1    4    4    0    0 -0.26659134816E+02  0.46816145289E+02  0.11615780863E+02  0.55112496712E+02  0.00000000000E+00 0. -1.
         11    1    4    4    0    0  0.17873692911E+02  0.20002857906E+02 -0.66674463468E+02  0.71868402664E+02  0.00000000000E+00 0.  1.
</event>
<event>
 8    1  0.4798744E-006  0.2473623E+03  0.7561462E-02  0.1114983E+00
          1   -1    0    0  501    0  0.00000000000E+00  0.00000000000E+00  0.69524115904E+02  0.69524115904E+02  0.00000000000E+00 0. -1.
         -1   -1    0    0    0  501 -0.00000000000E+00 -0.00000000000E+00 -0.10466769871E+04  0.10466769871E+04  0.00000000000E+00 0.  1.
         23    2    1    2    0    0 -0.24533811452E+03  0.18757833065E+02 -0.46565364041E+03  0.54125008766E+03  0.12480263547E+03 0.  0.
         23    2    1    2    0    0  0.24533811452E+03 -0.18757833065E+02 -0.51149923078E+03  0.57495101535E+03  0.91621832649E+02 0.  0.
          5    1    3    3  502    0 -0.11826603253E+02  0.76414472875E+01 -0.13770394738E+03  0.13848505257E+03  0.41800000000E+01 0. -1.
         -5    1    3    3    0  502 -0.23351151127E+03  0.11116385777E+02 -0.32794969303E+03  0.40276503509E+03  0.41800000000E+01 0. -1.
        -11    1    4    4    0    0  0.15124250406E+03 -0.16011908861E+02 -0.21133082026E+03  0.26036780111E+03  0.00000000000E+00 0. -1.
         11    1    4    4    0    0  0.94095610462E+02 -0.27459242044E+01 -0.30016841052E+03  0.31458321424E+03  0.00000000000E+00 0.  1.
</event>
<event>
 8    1  0.4798744E-006  0.1631766E+03  0.7561462E-02  0.1185156E+00
          2   -1    0    0  501    0  0.00000000000E+00  0.00000000000E+00  0.13246870546E+04  0.13246870546E+04  0.00000000000E+00 0. -1.
         -2   -1    0    0    0  501 -0.00000000000E+00 -0.00000000000E+00 -0.20938331978E+02  0.20938331978E+02  0.00000000000E+00 0.  1.
         23    2    1    2    0    0 -0.11318968286E+03  0.46206722149E+02  0.59224916618E+03  0.61753885010E+03  0.12509272989E+03 0.  0.
         23    2    1    2    0    0  0.11318968286E+03 -0.46206722149E+02  0.71149955640E+03  0.72808653643E+03  0.94506191846E+02 0.  0.
          5    1    3    3  502    0 -0.13887276948E+03  0.46689685560E+02  0.46119355297E+03  0.48392410412E+03  0.41800000000E+01 0. -1.
         -5    1    3    3    0  502  0.25683086629E+02 -0.48296341059E+00  0.13105561321E+03  0.13361474599E+03  0.41800000000E+01 0. -1.
        -11    1    4    4    0    0  0.85219747197E+02  0.14937324489E+02  0.36391269085E+03  0.37405611281E+03  0.00000000000E+00 0.  1.
         11    1    4    4    0    0  0.27969935659E+02 -0.61144046638E+02  0.34758686555E+03  0.35403042361E+03  0.00000000000E+00 0. -1.
</event>
<event>
 8    1  0.4798744E-006  0.1025808E+03  0.7561462E-02  0.1274961E+00
          1   -1    0    0  501    0  0.00000000000E+00  0.00000000000E+00  0.52803996120E+03  0.52803996120E+03  0.00000000000E+00 0. -1.
         -1   -1    0    0    0  501 -0.00000000000E+00 -0.00000000000E+00 -0.52966148624E+02  0.52966148624E+02  0.00000000000E+00 0.  1.
         23    2    1    2    0    0 -0.73520593864E+02  0.49775019385E+01  0.73490593317E+02  0.16271786057E+03  0.12508469768E+03 0.  0.
         23    2    1    2    0    0  0.73520593864E+02 -0.49775019385E+01  0.40158321926E+03  0.41828824926E+03  0.90917128354E+02 0.  0.
          5    1    3    3  502    0  0.55659527883E+01 -0.22174171683E+02 -0.24541992680E+02  0.33800229658E+02  0.41800000000E+01 0.  1.
         -5    1    3    3    0  502 -0.79086546652E+02  0.27151673622E+02  0.98032585996E+02  0.12891763091E+03  0.41800000000E+01 0.  1.
        -11    1    4    4    0    0  0.85678516753E+02 -0.20975272629E+01  0.39495062789E+03  0.40414255693E+03  0.00000000000E+00 0. -1.
         11    1    4    4    0    0 -0.12157922889E+02 -0.28799746757E+01  0.66325913731E+01  0.14145692328E+02  0.00000000000E+00 0.  1.
</event>
<event>
 8    1  0.4798744E-006  0.1422468E+03  0.7561462E-02  0.1210337E+00
         -1   -1    0    0    0  501 -0.00000000000E+00  0.00000000000E+00  0.38969189219E+03  0.38969189219E+03  0.00000000000E+00 0.  1.
          1   -1    0    0  501    0  0.00000000000E+00 -0.00000000000E+00 -0.57629015610E+02  0.57629015610E+02  0.00000000000E+00 0. -1.
         23    2    1    2    0    0  0.95206989527E+02  0.21948073787E+02  0.23558629831E+03  0.28256067123E+03  0.12162869801E+03 0.  0.
         23    2    1    2    0    0 -0.95206989527E+02 -0.21948073787E+02  0.96476578271E+02  0.16476023657E+03  0.91061059738E+02 0.  0.
          5    1    3    3  502    0  0.86630505435E+02  0.64095037945E+02  0.19718730822E+03  0.22475169696E+03  0.41800000000E+01 0. -1.
         -5    1    3    3    0  502  0.85764840920E+01 -0.42146964159E+02  0.38398990084E+02  0.57808974274E+02  0.41800000000E+01 0.  1.
        -11    1    4    4    0    0 -0.85951010582E+02 -0.53037209324E+02  0.69927052668E+02  0.12284264116E+03  0.00000000000E+00 0.  1.
         11    1    4    4    0    0 -0.92559789450E+01  0.31089135537E+02  0.26549525603E+02  0.41917595404E+02  0.00000000000E+00 0. -1.
</event>
<event>
 8    1  0.4798744E-006  0.1345306E+03  0.7561462E-02  0.1220884E+00
          1   -1    0    0  501    0  0.00000000000E+00  0.00000000000E+00  0.79915662496E+02  0.79915662496E+02  0.00000000000E+00 0. -1.
         -1   -1    0    0    0  501 -0.00000000000E+00 -0.00000000000E+00 -0.27721213397E+03  0.27721213397E+03  0.00000000000E+00 0.  1.
         23    2    1    2    0    0 -0.81738850708E+02  0.47047755564E+02 -0.15824504691E+03  0.22267430890E+03  0.12509045509E+03 0.  0.
         23    2    1    2    0    0  0.81738850708E+02 -0.47047755564E+02 -0.39051424567E+02  0.13445348757E+03  0.87509973946E+02 0.  0.
          5    1    3    3  502    0  0.14871082219E+02  0.43802336619E+02 -0.98654186527E+02  0.10904088545E+03  0.41800000000E+01 0.  1.
         -5    1    3    3    0  502 -0.96609932927E+02  0.32454189449E+01 -0.59590860380E+02  0.11363342345E+03  0.41800000000E+01 0.  1.
        -11    1    4    4    0    0  0.39982814318E+02 -0.68196949761E+02 -0.10815790086E+02  0.79789916109E+02  0.00000000000E+00 0.  1.
         11    1    4    4    0    0  0.41756036390E+02  0.21149194197E+02 -0.28235634480E+02  0.54663571459E+02  0.00000000000E+00 0. -1.
</event>
<event>
 8    1  0.4798744E-006  0.1116009E+03  0.7561462E-02  0.1257634E+00
          2   -1    0    0  501    0  0.00000000000E+00  0.00000000000E+00  0.84120298069E+02  0.84120298069E+02  0.00000000000E+00 0. -1.
         -2   -1    0    0    0  501 -0.00000000000E+00 -0.00000000000E+00 -0.16634662272E+03  0.16634662272E+03  0.00000000000E+00 0.  1.
         23    2    1    2    0    0  0.35205124824E+02 -0.19049309190E+02 -0.71431960464E+02  0.14950039424E+03  0.12508223658E+03 0.  0.
         23    2    1    2    0    0 -0.35205124824E+02  0.19049309190E+02 -0.10794364184E+02  0.10096652654E+03  0.92062175673E+02 0.  0.
          5    1    3    3  502    0  0.70467556154E+02 -0.44611852421E+02 -0.63792866346E+02  0.10508518470E+03  0.41800000000E+01 0. -1.
         -5    1    3    3    0  502 -0.35262431330E+02  0.25562543231E+02 -0.76390941186E+01  0.44415209542E+02  0.41800000000E+01 0. -1.
        -11    1    4    4    0    0  0.68773532522E+01 -0.30308698264E+02  0.10329760894E+02  0.32750864696E+02  0.00000000000E+00 0.  1.
         11    1    4    4    0    0 -0.42082478076E+02  0.49358007454E+02 -0.21124125078E+02  0.68215661847E+02  0.00000000000E+00 0. -1.
</event>
<event>
 8    1  0.9925306E-006  0.5946957E+02  0.7561462E-02  0.1400071E+00
         -2   -1    0    0    0  501 -0.00000000000E+00  0.00000000000E+00  0.96694351182E+01  0.96694351182E+01  0.00000000000E+00 0.  1.
          2   -1    0    0  501    0  0.00000000000E+00 -0.00000000000E+00 -0.11108355999E+04  0.11108355999E+04  0.00000000000E+00 0. -1.
         23    2    1    2    0    0  0.17982045421E+02  0.12679640674E+02 -0.66722059448E+03  0.67920184664E+03  0.12509076515E+03 0.  0.
         23    2    1    2    0    0 -0.17982045421E+02 -0.12679640674E+02 -0.43394557031E+03  0.44130318839E+03  0.77172656100E+02 0.  0.
          5    1    3    3  502    0 -0.79536809789E+01  0.79973345693E+01 -0.59612287364E+00  0.12043511274E+02  0.41800000000E+01 0.  1.
         -5    1    3    3    0  502  0.25935726400E+02  0.46823061044E+01 -0.66662447161E+03  0.66715833536E+03  0.41800000000E+01 0.  1.
        -11    1    4    4    0    0  0.30340262930E+02 -0.95272500243E+01 -0.17709845960E+03  0.17993099910E+03  0.00000000000E+00 0.  1.
         11    1    4    4    0    0 -0.48322308352E+02 -0.31523906494E+01 -0.25684711071E+03  0.26137218929E+03  0.00000000000E+00 0. -1.
</event>
<event>
 8    1  0.4798744E-006  0.1598893E+03  0.7561462E-02  0.1188822E+00
          1   -1    0    0  501    0  0.00000000000E+00  0.00000000000E+00  0.94176543343E+03  0.94176543343E+03  0.00000000000E+00 0. -1.
         -1   -1    0    0    0  501 -0.00000000000E+00 -0.00000000000E+00 -0.29834578531E+02  0.29834578531E+02  0.00000000000E+00 0.  1.
         23    2    1    2    0    0 -0.10854036452E+03  0.66641252783E+02  0.50863431712E+03  0.53905405295E+03  0.12509330978E+03 0.  0.
         23    2    1    2    0    0  0.10854036452E+03 -0.66641252783E+02  0.40329653778E+03  0.43254595901E+03  0.90696427516E+02 0.  0.
          5    1    3    3  502    0 -0.56364311375E+02 -0.30872897904E+02  0.13876349310E+03  0.15297990339E+03  0.41800000000E+01 0.  1.
         -5    1    3    3    0  502 -0.52176053148E+02  0.97514150687E+02  0.36987082402E+03  0.38607414957E+03  0.41800000000E+01 0.  1.
        -11    1    4    4    0    0  0.57137665890E+01 -0.37351503315E+02  0.45646900727E+02  0.59257248287E+02  0.00000000000E+00 0.  1.
         11    1    4    4    0    0  0.10282659793E+03 -0.29289749468E+02  0.35764963706E+03  0.37328871072E+03  0.00000000000E+00 0. -1.
</event>
<event>
 8    1  0.4798744E-006  0.1454818E+03  0.7561462E-02  0.1206137E+00
         -1   -1    0    0    0  501 -0.00000000000E+00  0.00000000000E+00  0.84774967904E+02  0.84774967904E+02  0.00000000000E+00 0. -1.
          1   -1    0    0  501    0  0.00000000000E+00 -0.00000000000E+00 -0.35972263560E+03  0.35972263560E+03  0.00000000000E+00 0.  1.
         23    2    1    2    0    0  0.11190316061E+03 -0.59886577332E+02 -0.82545900276E+02  0.19639108074E+03  0.12508761507E+03 0.  0.
         23    2    1    2    0    0 -0.11190316061E+03  0.59886577332E+02 -0.19240176742E+03  0.24810652276E+03  0.91813327089E+02 0.  0.
          5    1    3    3  502    0  0.48002759388E+02 -0.62432142874E+02 -0.10244570058E+03  0.12928507779E+03  0.41800000000E+01 0.  1.
         -5    1    3    3    0  502  0.63900401222E+02  0.25455655413E+01  0.19899800303E+02  0.67106002953E+02  0.41800000000E+01 0.  1.
        -11    1    4    4    0    0 -0.66968043929E+02  0.75053051230E+02 -0.16525689761E+03  0.19346193841E+03  0.00000000000E+00 0.  1.
         11    1    4    4    0    0 -0.44935116681E+02 -0.15166473898E+02 -0.27144869811E+02  0.54644584349E+02  0.00000000000E+00 0. -1.
</event>
<event>
 8    1  0.4798744E-006  0.1750108E+03  0.7561462E-02  0.1172721E+00
          2   -1    0    0  501    0  0.00000000000E+00  0.00000000000E+00  0.72935754969E+02  0.72935754969E+02  0.00000000000E+00 0. -1.
         -2   -1    0    0    0  501 -0.00000000000E+00 -0.00000000000E+00 -0.83603679299E+03  0.83603679299E+03  0.00000000000E+00 0.  1.
         23    2    1    2    0    0 -0.27214143785E+02  0.16154585594E+03 -0.66072782706E+03  0.69213207189E+03  0.12509144773E+03 0.  0.
         23    2    1    2    0    0  0.27214143785E+02 -0.16154585594E+03 -0.10237321096E+03  0.21684047607E+03  0.98497941828E+02 0.  0.
          5    1    3    3  502    0 -0.54402582410E+02  0.69547706751E+02 -0.47388658250E+03  0.48206067041E+03  0.41800000000E+01 0. -1.
         -5    1    3    3    0  502  0.27188438626E+02  0.91998149192E+02 -0.18684124456E+03  0.21007140148E+03  0.41800000000E+01 0. -1.
        -11    1    4    4    0    0  0.89694065265E+01 -0.12180473623E+02  0.18451848754E+02  0.23859692236E+02  0.00000000000E+00 0. -1.
         11    1    4    4    0    0  0.18244737258E+02 -0.14936538232E+03 -0.12082505971E+03  0.19298078383E+03  0.00000000000E+00 0.  1.
</event>
<event>
 8    1  0.4798744E-006  0.9575510E+02  0.7561462E-02  0.1289484E+00
         -2   -1    0    0    0  501 -0.00000000000E+00  0.00000000000E+00  0.93306752661E+02  0.93306752661E+02  0.00000000000E+00 0.  1.
          2   -1    0    0  501    0  0.00000000000E+00 -0.00000000000E+00 -0.19634864506E+03  0.19634864506E+03  0.00000000000E+00 0. -1.
         23    2    1    2    0    0 -0.65651107145E+02  0.19670992340E+02 -0.27216428407E+02  0.14521162857E+03  0.12509463333E+03 0.  0.
         23    2    1    2    0    0  0.65651107145E+02 -0.19670992340E+02 -0.75825463994E+02  0.14444376916E+03  0.10206608472E+03 0.  0.
          5    1    3    3  502    0 -0.20241345846E+02  0.48290664252E+02 -0.61888198992E+02  0.81174638342E+02  0.41800000000E+01 0.  1.
         -5    1    3    3    0  502 -0.45409761299E+02 -0.28619671912E+02  0.34671770585E+02  0.64036990225E+02  0.41800000000E+01 0.  1.
        -11    1    4    4    0    0  0.44880387250E+02 -0.36943333388E+02 -0.94960133215E+02  0.11133950755E+03  0.00000000000E+00 0. -1.
         11    1    4    4    0    0  0.20770719895E+02  0.17272341048E+02  0.19134669221E+02  0.33104261605E+02  0.00000000000E+00 0.  1.
</event>
<event>
 8    1  0.4798744E-006  0.1094847E+03  0.7561462E-02  0.1261527E+00
         -3   -1    0    0    0  501 -0.00000000000E+00  0.00000000000E+00  0.19128815262E+03  0.19128815262E+03  0.00000000000E+00 0.  1.
          3   -1    0    0  501    0  0.00000000000E+00 -0.00000000000E+00 -0.82248507423E+02  0.82248507423E+02  0.00000000000E+00 0. -1.
         23    2    1    2    0    0  0.28291798451E+02 -0.11160716788E+02  0.11902654494E+03  0.17534380472E+03  0.12511252533E+03 0.  0.
         23    2    1    2    0    0 -0.28291798451E+02  0.11160716788E+02 -0.99868997353E+01  0.98192855330E+02  0.92828396586E+02 0.  0.
          5    1    3    3  502    0  0.20832028289E+02 -0.66675125611E+02  0.48310977798E+02  0.85035103067E+02  0.41800000000E+01 0.  1.
         -5    1    3    3    0  502  0.74597701622E+01  0.55514408823E+02  0.70715567138E+02  0.90308701649E+02  0.41800000000E+01 0.  1.
        -11    1    4    4    0    0 -0.53186815916E+02  0.30487504857E+02 -0.21008259016E+02  0.64804878571E+02  0.00000000000E+00 0. -1.
         11    1    4    4    0    0  0.24895017465E+02 -0.19326788069E+02  0.11021359281E+02  0.33387976759E+02  0.00000000000E+00 0.  1.
</event>
<event>
 8    1  0.4798744E-006  0.8353300E+02  0.7561462E-02  0.1319314E+00
         -2   -1    0    0    0  501 -0.00000000000E+00  0.00000000000E+00  0.33053556215E+02  0.33053556215E+02  0.00000000000E+00 0.  1.
          2   -1    0    0  501    0  0.00000000000E+00 -0.00000000000E+00 -0.51199639587E+03  0.51199639587E+03  0.00000000000E+00 0. -1.
         23    2    1    2    0    0 -0.45898102370E+02 -0.19958676080E+02 -0.15324474318E+03  0.20405131130E+03  0.12509197329E+03 0.  0.
         23    2    1    2    0    0  0.45898102370E+02  0.19958676080E+02 -0.32569809648E+03  0.34099864079E+03  0.87725927828E+02 0.  0.
          5    1    3    3  502    0 -0.50406365807E+02 -0.26566273863E+02 -0.17307660919E+03  0.18226232103E+03  0.41800000000E+01 0. -1.
         -5    1    3    3    0  502  0.45082634368E+01  0.66075977831E+01  0.19831866009E+02  0.21788990272E+02  0.41800000000E+01 0. -1.
        -11    1    4    4    0    0 -0.25442193203E+02 -0.37825909277E+01 -0.89447379858E+02  0.93072267365E+02  0.00000000000E+00 0.  1.
         11    1    4    4    0    0  0.71340295573E+02  0.23741267008E+02 -0.23625071662E+03  0.24792637342E+03  0.00000000000E+00 0. -1.
</event>
<event>
 8    1  0.4798744E-006  0.8231050E+02  0.7561462E-02  0.1322620E+00
          1   -1    0    0  501    0  0.00000000000E+00  0.00000000000E+00  0.13344727067E+03  0.13344727067E+03  0.00000000000E+00 0. -1.
         -1   -1    0    0    0  501 -0.00000000000E+00 -0.00000000000E+00 -0.10383600947E+03  0.10383600947E+03  0.00000000000E+00 0.  1.
         23    2    1    2    0    0 -0.47004381304E+01  0.37223856957E+02 -0.10801779603E+02  0.13103764988E+03  0.12508588089E+03 0.  0.
         23    2    1    2    0    0  0.47004381304E+01 -0.37223856957E+02  0.40413040805E+02  0.10624563026E+03  0.90814153285E+02 0.  0.
          5    1    3    3  502    0  0.76639466911E+00 -0.36336218019E+02 -0.37586318949E+02  0.52451042629E+02  0.41800000000E+01 0. -1.
         -5    1    3    3    0  502 -0.54668327995E+01  0.73560074975E+02  0.26784539347E+02  0.78586607251E+02  0.41800000000E+01 0. -1.
        -11    1    4    4    0    0  0.15883473333E+02 -0.39649625583E+02 -0.18270866617E+02  0.46456453813E+02  0.00000000000E+00 0.  1.
         11    1    4    4    0    0 -0.11183035203E+02  0.24257686262E+01  0.58683907422E+02  0.59789176446E+02  0.00000000000E+00 0. -1.
</event>
<event>
 8    1  0.4798744E-006  0.1227989E+03  0.7561462E-02  0.1238550E+00
         -2   -1    0    0    0  501 -0.00000000000E+00  0.00000000000E+00  0.22426092224E+02  0.22426092224E+02  0.00000000000E+00 0.  1.
          2   -1    0    0  501    0  0.00000000000E+00 -0.00000000000E+00 -0.11554584250E+04  0.11554584250E+04  0.00000000000E+00 0. -1.
         23    2    1    2    0    0  0.84433162110E+02 -0.78372787762E+02 -0.61286896563E+03  0.63603454959E+03  0.12514122632E+03 0.  0.
         23    2    1    2    0    0 -0.84433162110E+02  0.78372787762E+02 -0.52016336713E+03  0.54184996761E+03  0.98793755719E+02 0.  0.
          5    1    3    3  502    0  0.34288274774E+02 -0.37159541022E+02 -0.56738124227E+02  0.76113102792E+02  0.41800000000E+01 0. -1.
         -5    1    3    3    0  502  0.50144887336E+02 -0.41213246740E+02 -0.55613084140E+03  0.55992144680E+03  0.41800000000E+01 0. -1.
        -11    1    4    4    0    0 -0.34606821005E+02 -0.26448303643E+01 -0.42804081911E+02  0.55107319078E+02  0.00000000000E+00 0.  1.
         11    1    4    4    0    0 -0.49826341105E+02  0.81017618126E+02 -0.47735928522E+03  0.48674264853E+03  0.00000000000E+00 0. -1.
</event>
<event>
 8    1  0.4798744E-006  0.7492418E+02  0.7561462E-02  0.1344106E+00
         -2   -1    0    0    0  501 -0.00000000000E+00  0.00000000000E+00  0.70279222793E+02  0.70279222793E+02  0.00000000000E+00 0.  1.
          2   -1    0    0  501    0  0.00000000000E+00 -0.00000000000E+00 -0.25630454462E+03  0.25630454462E+03  0.00000000000E+00 0. -1.
         23    2    1    2    0    0  0.57289699570E+02  0.25174080156E+02 -0.43957757664E+02  0.14661058759E+03  0.12508611413E+03 0.  0.
         23    2    1    2    0    0 -0.57289699570E+02 -0.25174080156E+02 -0.14206756417E+03  0.17997317982E+03  0.91056623478E+02 0.  0.
          5    1    3    3  502    0  0.10429133305E+02  0.33531436969E+02  0.37894159388E+02  0.51832073105E+02  0.41800000000E+01 0.  1.
         -5    1    3    3    0  502  0.46860566265E+02 -0.83573568131E+01 -0.81851917052E+02  0.94778514488E+02  0.41800000000E+01 0.  1.
        -11    1    4    4    0    0 -0.30610207509E+02 -0.88719424326E+00 -0.14056659031E+03  0.14386360981E+03  0.00000000000E+00 0. -1.
         11    1    4    4    0    0 -0.26679492061E+02 -0.24286885912E+02 -0.15009738592E+01  0.36109570012E+02  0.00000000000E+00 0.  1.
</event>
<event>
 8    1  0.4798744E-006  0.9363368E+02  0.7561462E-02  0.1294283E+00
         -3   -1    0    0    0  501 -0.00000000000E+00  0.00000000000E+00  0.23094277493E+03  0.23094277493E+03  0.00000000000E+00 0.  1.
          3   -1    0    0  501    0  0.00000000000E+00 -0.00000000000E+00 -0.66047918706E+02  0.66047918706E+02  0.00000000000E+00 0. -1.
         23    2    1    2    0    0  0.48348868680E+02  0.37463432318E+01  0.13134490251E+03  0.18774970124E+03  0.12508724439E+03 0.  0.
         23    2    1    2    0    0 -0.48348868680E+02 -0.37463432318E+01  0.33549953708E+02  0.10924099239E+03  0.91958397305E+02 0.  0.
          5    1    3    3  502    0 -0.31631175133E+02 -0.19703195207E+01 -0.20731875646E+01  0.32034105357E+02  0.41800000000E+01 0.  1.
         -5    1    3    3    0  502  0.79980043813E+02  0.57166627525E+01  0.13341809008E+03  0.15571559588E+03  0.41800000000E+01 0.  1.
        -11    1    4    4    0    0 -0.34139362254E+02 -0.29809673468E+02 -0.18794736675E+02  0.49064802191E+02  0.00000000000E+00 0. -1.
         11    1    4    4    0    0 -0.14209506426E+02  0.26063330236E+02  0.52344690383E+02  0.60176190201E+02  0.00000000000E+00 0.  1.
</event>
<event>
 8    1  0.4798744E-006  0.1205031E+03  0.7561462E-02  0.1242269E+00
          2   -1    0    0  501    0  0.00000000000E+00  0.00000000000E+00  0.99291874898E+03  0.99291874898E+03  0.00000000000E+00 0.  1.
         -2   -1    0    0    0  501 -0.00000000000E+00 -0.00000000000E+00 -0.16955269257E+02  0.16955269257E+02  0.00000000000E+00 0. -1.
         23    2    1    2    0    0  0.52448030996E+02  0.27758875716E+02  0.69450947028E+03  0.70817520302E+03  0.12508941894E+03 0.  0.
         23    2    1    2    0    0 -0.52448030996E+02 -0.27758875716E+02  0.28145400945E+03  0.30169881522E+03  0.91019033913E+02 0.  0.
          5    1    3    3  502    0  0.93486474915E+02  0.19041515438E+02  0.51515959063E+03  0.52393623326E+03  0.41800000000E+01 0.  1.
         -5    1    3    3    0  502 -0.41038443919E+02  0.87173602773E+01  0.17934987965E+03  0.18423896976E+03  0.41800000000E+01 0.  1.
        -11    1    4    4    0    0  0.41699537937E+01  0.25366665994E+02  0.35843233079E+02  0.44108883639E+02  0.00000000000E+00 0.  1.
         11    1    4    4    0    0 -0.56617984790E+02 -0.53125541710E+02  0.24561077637E+03  0.25758993158E+03  0.00000000000E+00 0. -1.
</event>
<event>
 7    1  0.4798744E-006  0.6744535E+02  0.7561462E-02  0.1369002E+00
          2   -1    0    0  501    0  0.00000000000E+00  0.00000000000E+00  0.30810991506E+03  0.30810991506E+03  0.00000000000E+00 0. -1.
         -2   -1    0    0    0  501 -0.00000000000E+00 -0.00000000000E+00 -0.23568604813E+02  0.23568604813E+02  0.00000000000E+00 0.  1.
         23    2    1    2    0    0 -0.19574942693E+02 -0.28368460722E+02  0.21366104391E+03  0.24771312047E+03  0.12051058220E+03 0.  0.
          5    1    3    3  502    0 -0.56663812806E+02 -0.14311967318E+02  0.19512678520E+03  0.20373402954E+03  0.41800000000E+01 0. -1.
         -5    1    3    3    0  502  0.37088870113E+02 -0.14056493404E+02  0.18534258716E+02  0.43979090932E+02  0.41800000000E+01 0.  1.
        -11    1    1    2    0    0  0.10325364186E+02  0.24119007995E+02  0.22613053002E+02  0.34636539353E+02  0.00000000000E+00 0.  1.
         11    1    1    2    0    0  0.92495785072E+01  0.42494527271E+01  0.48267213336E+02  0.49328860054E+02  0.00000000000E+00 0. -1.
</event>
<event>
 8    1  0.4798744E-006  0.1041107E+03  0.7561462E-02  0.1271882E+00
          1   -1    0    0  501    0  0.00000000000E+00  0.00000000000E+00  0.32154074469E+03  0.32154074469E+03  0.00000000000E+00 0. -1.
         -1   -1    0    0    0  501 -0.00000000000E+00 -0.00000000000E+00 -0.39109381835E+02  0.39109381835E+02  0.00000000000E+00 0.  1.
         23    2    1    2    0    0  0.26428171622E+02  0.10542622733E+02  0.15850447367E+03  0.20391398906E+03  0.12509057363E+03 0.  0.
         23    2    1    2    0    0 -0.26428171622E+02 -0.10542622733E+02  0.12392688918E+03  0.15673613747E+03  0.91644682205E+02 0.  0.
          5    1    3    3  502    0 -0.13382998469E+02  0.60647134257E+02  0.95619931862E+02  0.11409567613E+03  0.41800000000E+01 0. -1.
         -5    1    3    3    0  502  0.39811170091E+02 -0.50104511524E+02  0.62884541812E+02  0.89818312932E+02  0.41800000000E+01 0. -1.
        -11    1    4    4    0    0 -0.33114847971E+02  0.27606262634E+02  0.23503839338E+02  0.49103251994E+02  0.00000000000E+00 0.  1.
         11    1    4    4    0    0  0.66866763482E+01 -0.38148885367E+02  0.10042304984E+03  0.10763288547E+03  0.00000000000E+00 0. -1.
</event>
<event>
 8    1  0.4798744E-006  0.1832928E+03  0.7561462E-02  0.1164654E+00
         -2   -1    0    0    0  501 -0.00000000000E+00  0.00000000000E+00  0.47542885308E+03  0.47542885308E+03  0.00000000000E+00 0. -1.
          2   -1    0    0  501    0  0.00000000000E+00 -0.00000000000E+00 -0.90739266286E+02  0.90739266286E+02  0.00000000000E+00 0.  1.
         23    2    1    2    0    0  0.89675518817E+02  0.14832784515E+03  0.24196854009E+03  0.32285955587E+03  0.12508665037E+03 0.  0.
         23    2    1    2    0    0 -0.89675518817E+02 -0.14832784515E+03  0.14272104670E+03  0.24330856349E+03  0.93738527699E+02 0.  0.
          5    1    3    3  502    0  0.15762850258E+02 -0.35765737074E+01  0.10222528019E+03  0.10357962946E+03  0.41800000000E+01 0.  1.
         -5    1    3    3    0  502  0.73912668559E+02  0.15190441886E+03  0.13974325990E+03  0.21927992642E+03  0.41800000000E+01 0.  1.
        -11    1    4    4    0    0 -0.84779536446E+02 -0.94896484161E+02  0.51090506644E+02  0.13712458706E+03  0.00000000000E+00 0. -1.
         11    1    4    4    0    0 -0.48959823703E+01 -0.53431360990E+02  0.91630540059E+02  0.10618397644E+03  0.00000000000E+00 0.  1.
</event>
<event>
 8    1  0.4798744E-006  0.1572985E+03  0.7561462E-02  0.1191781E+00
          1   -1    0    0  501    0  0.00000000000E+00  0.00000000000E+00  0.85711618631E+03  0.85711618631E+03  0.00000000000E+00 0. -1.
         -1   -1    0    0    0  501 -0.00000000000E+00 -0.00000000000E+00 -0.43480103777E+02  0.43480103777E+02  0.00000000000E+00 0.  1.
         23    2    1    2    0    0  0.12215820936E+03  0.76512971344E+02  0.26730703467E+03  0.32844295679E+03  0.12507942352E+03 0.  0.
         23    2    1    2    0    0 -0.12215820936E+03 -0.76512971344E+02  0.54632904787E+03  0.57215333329E+03  0.90039687686E+02 0.  0.
          5    1    3    3  502    0  0.22715550871E+02  0.30780747391E+02  0.19127176393E+03  0.19510461486E+03  0.41800000000E+01 0. -1.
         -5    1    3    3    0  502  0.99442658485E+02  0.45732223953E+02  0.76035270735E+02  0.13333834194E+03  0.41800000000E+01 0. -1.
        -11    1    4    4    0    0 -0.35440139708E+02  0.16776738464E+02  0.85794019622E+02  0.94329614962E+02  0.00000000000E+00 0.  1.
         11    1    4    4    0    0 -0.86718069649E+02 -0.93289709808E+02  0.46053502825E+03  0.47782371833E+03  0.00000000000E+00 0. -1.
</event>
<event>
 8    1  0.5113214E-006  0.1393508E+03  0.7561462E-02  0.1214205E+00
          2   -1    0    0  501    0  0.00000000000E+00  0.00000000000E+00  0.11348068158E+04  0.11348068158E+04  0.00000000000E+00 0.  1.
         -2   -1    0    0    0  501 -0.00000000000E+00 -0.00000000000E+00 -0.19546965552E+02  0.19546965552E+02  0.00000000000E+00 0. -1.
         23    2    1    2    0    0  0.77444483982E+02  0.58592839324E+02  0.51907345376E+03  0.54269312418E+03  0.12509119756E+03 0.  0.
         23    2    1    2    0    0 -0.77444483982E+02 -0.58592839324E+02  0.59618639649E+03  0.61166065718E+03  0.96227705282E+02 0.  0.
          5    1    3    3  502    0  0.17545267790E+02  0.78163895876E+02  0.39942133621E+03  0.40739698975E+03  0.41800000000E+01 0. -1.
         -5    1    3    3    0  502  0.59899216192E+02 -0.19571056552E+02  0.11965211755E+03  0.13529613442E+03  0.41800000000E+01 0. -1.
        -11    1    4    4    0    0 -0.84473749387E+02 -0.86732567842E+01  0.33057603615E+03  0.34130859262E+03  0.00000000000E+00 0. -1.
         11    1    4    4    0    0  0.70292654043E+01 -0.49919582540E+02  0.26561036035E+03  0.27035206457E+03  0.00000000000E+00 0.  1.
</event>
<event>
 8    1  0.4798744E-006  0.1136268E+03  0.7561462E-02  0.1253997E+00
         -4   -1    0    0    0  501 -0.00000000000E+00  0.00000000000E+00  0.64305885961E+03  0.64305885961E+03  0.00000000000E+00 0.  1.
          4   -1    0    0  501    0  0.00000000000E+00 -0.00000000000E+00 -0.24746615467E+02  0.24746615467E+02  0.00000000000E+00 0. -1.
         23    2    1    2    0    0 -0.40681283395E+02  0.42537338321E+02  0.40762359273E+03  0.43042956057E+03  0.12509285070E+03 0.  0.
         23    2    1    2    0    0  0.40681283395E+02 -0.42537338321E+02  0.21068865142E+03  0.23737591451E+03  0.92158694556E+02 0.  0.
          5    1    3    3  502    0 -0.78890855841E+02  0.39409598093E+02  0.35091570180E+03  0.36185105462E+03  0.41800000000E+01 0. -1.
         -5    1    3    3    0  502  0.38209572446E+02  0.31277402279E+01  0.56707890924E+02  0.68578505951E+02  0.41800000000E+01 0. -1.
        -11    1    4    4    0    0 -0.13787471663E+02  0.15543919571E+02  0.13659870471E+02  0.24865636364E+02  0.00000000000E+00 0. -1.
         11    1    4    4    0    0  0.54468755058E+02 -0.58081257892E+02  0.19702878094E+03  0.21251027814E+03  0.00000000000E+00 0.  1.
</event>
<event>
 8    1  0.4798744E-006  0.2490188E+03  0.7561462E-02  0.1113926E+00
         -1   -1    0    0    0  501 -0.00000000000E+00  0.00000000000E+00  0.11781863175E+03  0.11781863175E+03  0.00000000000E+00 0.  1.
          1   -1    0    0  501    0  0.00000000000E+00 -0.00000000000E+00 -0.94682997697E+03  0.94682997697E+03  0.00000000000E+00 0. -1.
         23    2    1    2    0    0  0.22683545774E+03  0.76746363563E+02 -0.93803389066E+02  0.28599129244E+03  0.12509042466E+03 0.  0.
         23    2    1    2    0    0 -0.22683545774E+03 -0.76746363563E+02 -0.73520795615E+03  0.77865731628E+03  0.91826729168E+02 0.  0.
          5    1    3    3  502    0  0.21670939629E+03  0.85957735907E+02 -0.48076493244E+02  0.23807670277E+03  0.41800000000E+01 0.  1.
         -5    1    3    3    0  502  0.10126061454E+02 -0.92113723438E+01 -0.45726895822E+02  0.47914589662E+02  0.41800000000E+01 0.  1.
        -11    1    4    4    0    0 -0.15230659407E+03 -0.86871157679E+02 -0.43126145643E+03  0.46554305970E+03  0.00000000000E+00 0.  1.
         11    1    4    4    0    0 -0.74528863666E+02  0.10124794116E+02 -0.30394649972E+03  0.31311425657E+03  0.00000000000E+00 0. -1.
</event>
<event>
 8    1  0.4798744E-006  0.9962742E+02  0.7561462E-02  0.1281081E+00
         -4   -1    0    0    0  501 -0.00000000000E+00  0.00000000000E+00  0.24486756836E+03  0.24486756836E+03  0.00000000000E+00 0.  1.
          4   -1    0    0  501    0  0.00000000000E+00 -0.00000000000E+00 -0.65044768126E+02  0.65044768126E+02  0.00000000000E+00 0. -1.
         23    2    1    2    0    0 -0.44563660136E+02  0.39814455800E+02  0.12596972502E+03  0.18731283334E+03  0.12508643099E+03 0.  0.
         23    2    1    2    0    0  0.44563660136E+02 -0.39814455800E+02  0.53853075211E+02  0.12259950314E+03  0.92516883681E+02 0.  0.
          5    1    3    3  502    0 -0.50975828192E+02 -0.33637055835E+02  0.78400070905E+02  0.99468739326E+02  0.41800000000E+01 0.  1.
         -5    1    3    3    0  502  0.64121680567E+01  0.73451511634E+02  0.47569654113E+02  0.87844094013E+02  0.41800000000E+01 0.  1.
        -11    1    4    4    0    0  0.77771359170E+00 -0.12623183371E+02  0.67988141108E+02  0.69154442577E+02  0.00000000000E+00 0.  1.
         11    1    4    4    0    0  0.43785946544E+02 -0.27191272429E+02 -0.14135065896E+02  0.53445060566E+02  0.00000000000E+00 0. -1.
</event>
<event>
 8    1  0.4798744E-006  0.1551111E+03  0.7561462E-02  0.1194330E+00
         -2   -1    0    0    0  501 -0.00000000000E+00  0.00000000000E+00  0.69309348023E+03  0.69309348023E+03  0.00000000000E+00 0.  1.
          2   -1    0    0  501    0  0.00000000000E+00 -0.00000000000E+00 -0.47993957918E+02  0.47993957918E+02  0.00000000000E+00 0. -1.
         23    2    1    2    0    0 -0.11619567017E+03  0.58447654037E+02  0.47756388203E+03  0.51052199633E+03  0.12509150768E+03 0.  0.
         23    2    1    2    0    0  0.11619567017E+03 -0.58447654037E+02  0.16753564029E+03  0.23056544182E+03  0.90413882600E+02 0.  0.
          5    1    3    3  502    0 -0.87685519226E+02  0.12541973785E+01  0.40197608007E+03  0.41145177681E+03  0.41800000000E+01 0. -1.
         -5    1    3    3    0  502 -0.28510150940E+02  0.57193456659E+02  0.75587801959E+02  0.99070219522E+02  0.41800000000E+01 0. -1.
        -11    1    4    4    0    0  0.69582701745E+02  0.15202997522E+02  0.73552381102E+02  0.10238572304E+03  0.00000000000E+00 0.  1.
         11    1    4    4    0    0  0.46612968421E+02 -0.73650651560E+02  0.93983259185E+02  0.12817971878E+03  0.00000000000E+00 0. -1.
</event>
<event>
 8    1  0.4798744E-006  0.9983204E+02  0.7561462E-02  0.1280650E+00
          2   -1    0    0  501    0  0.00000000000E+00  0.00000000000E+00  0.51486259083E+03  0.51486259083E+03  0.00000000000E+00 0. -1.
         -2   -1    0    0    0  501 -0.00000000000E+00 -0.00000000000E+00 -0.36980542688E+02  0.36980542688E+02  0.00000000000E+00 0.  1.
         23    2    1    2    0    0 -0.36730305111E+02 -0.22475138209E+02  0.11444777553E+03  0.17492573157E+03  0.12508585488E+03 0.  0.
         23    2    1    2    0    0  0.36730305111E+02  0.22475138209E+02  0.36343427261E+03  0.37691740195E+03  0.90155478101E+02 0.  0.
          5    1    3    3  502    0 -0.66376664104E+02  0.15568138949E+01  0.14820433605E+02  0.68157192278E+02  0.41800000000E+01 0. -1.
         -5    1    3    3    0  502  0.29646358992E+02 -0.24031952104E+02  0.99627341926E+02  0.10676853929E+03  0.41800000000E+01 0. -1.
        -11    1    4    4    0    0  0.26858950050E+02 -0.30626045555E+02  0.21809984508E+03  0.22187135978E+03  0.00000000000E+00 0.  1.
         11    1    4    4    0    0  0.98713550614E+01  0.53101183764E+02  0.14533442753E+03  0.15504604217E+03  0.00000000000E+00 0. -1.
</event>
<event>
 8    1  0.4798744E-006  0.3132432E+03  0.7561462E-02  0.1078802E+00
         -1   -1    0    0    0  501 -0.00000000000E+00  0.00000000000E+00  0.66696108512E+02  0.66696108512E+02  0.00000000000E+00 0.  1.
          1   -1    0    0  501    0  0.00000000000E+00 -0.00000000000E+00 -0.15609420112E+04  0.15609420112E+04  0.00000000000E+00 0. -1.
         23    2    1    2    0    0 -0.23154108928E+03 -0.19066642743E+03 -0.64083306265E+03  0.71852580513E+03  0.12508939154E+03 0.  0.
         23    2    1    2    0    0  0.23154108928E+03  0.19066642743E+03 -0.85341283999E+03  0.90911231454E+03  0.90591182825E+02 0.  0.
          5    1    3    3  502    0  0.87360207515E+01 -0.12780438084E+02 -0.65790823836E+01  0.17332466103E+02  0.41800000000E+01 0. -1.
         -5    1    3    3    0  502 -0.24027711003E+03 -0.17788598934E+03 -0.63425398027E+03  0.70119333903E+03  0.41800000000E+01 0. -1.
        -11    1    4    4    0    0  0.10013884914E+03  0.31314591533E+02 -0.24234020422E+03  0.26407795692E+03  0.00000000000E+00 0. -1.
         11    1    4    4    0    0  0.13140224015E+03  0.15935183589E+03 -0.61107263577E+03  0.64503435761E+03  0.00000000000E+00 0.  1.
</event>
<event>
 8    1  0.4798744E-006  0.1030429E+03  0.7561462E-02  0.1274024E+00
         -2   -1    0    0    0  501 -0.00000000000E+00  0.00000000000E+00  0.59146299099E+02  0.59146299099E+02  0.00000000000E+00 0.  1.
          2   -1    0    0  501    0  0.00000000000E+00 -0.00000000000E+00 -0.26048899001E+03  0.26048899001E+03  0.00000000000E+00 0. -1.
         23    2    1    2    0    0 -0.52514770445E+02 -0.18806944166E+02 -0.74855848457E+02  0.15608671679E+03  0.12509261708E+03 0.  0.
         23    2    1    2    0    0  0.52514770445E+02  0.18806944166E+02 -0.12648684245E+03  0.16354857231E+03  0.87394003962E+02 0.  0.
          5    1    3    3  502    0 -0.73913924467E+02  0.11613717812E+02 -0.88756911050E+02  0.11616113089E+03  0.41800000000E+01 0. -1.
         -5    1    3    3    0  502  0.21399154023E+02 -0.30420661978E+02  0.13901062594E+02  0.39925585898E+02  0.41800000000E+01 0. -1.
        -11    1    4    4    0    0 -0.68456927978E+01  0.32157120326E+02 -0.81495377494E+02  0.87877417182E+02  0.00000000000E+00 0. -1.
         11    1    4    4    0    0  0.59360463243E+02 -0.13350176161E+02 -0.44991464955E+02  0.75671155130E+02  0.00000000000E+00 0.  1.
</event>
<event>
 8    1  0.4798744E-006  0.2377610E+03  0.7561462E-02  0.1121293E+00
         -2   -1    0    0    0  501 -0.00000000000E+00  0.00000000000E+00  0.41296907523E+02  0.41296907523E+02  0.00000000000E+00 0.  1.
          2   -1    0    0  501    0  0.00000000000E+00 -0.00000000000E+00 -0.15087681531E+04  0.15087681531E+04  0.00000000000E+00 0. -1.
         23    2    1    2    0    0  0.11922435874E+02  0.21952443041E+03 -0.59507161033E+03  0.64666188896E+03  0.12541234860E+03 0.  0.
         23    2    1    2    0    0 -0.11922435874E+02 -0.21952443041E+03 -0.87239963529E+03  0.90340317171E+03  0.81994188712E+02 0.  0.
          5    1    3    3  502    0  0.54862557661E+02  0.10293271091E+03 -0.19041281732E+03  0.22333731576E+03  0.41800000000E+01 0. -1.
         -5    1    3    3    0  502 -0.42940121788E+02  0.11659171950E+03 -0.40465879301E+03  0.42332457320E+03  0.41800000000E+01 0. -1.
        -11    1    4    4    0    0 -0.46871465238E+02 -0.13954430541E+03 -0.56324733050E+03  0.58216587219E+03  0.00000000000E+00 0. -1.
         11    1    4    4    0    0  0.34949029364E+02 -0.79980124998E+02 -0.30915230479E+03  0.32123729952E+03  0.00000000000E+00 0.  1.
</event>
<event>
 8    1  0.4798744E-006  0.1238583E+03  0.7561462E-02  0.1236864E+00
         -2   -1    0    0    0  501 -0.00000000000E+00  0.00000000000E+00  0.10768228371E+03  0.10768228371E+03  0.00000000000E+00 0.  1.
          2   -1    0    0  501    0  0.00000000000E+00 -0.00000000000E+00 -0.23615050669E+03  0.23615050669E+03  0.00000000000E+00 0. -1.
         23    2    1    2    0    0 -0.10158860908E+03 -0.22155992286E+02 -0.12403049893E+03  0.20455887592E+03  0.12509850344E+03 0.  0.
         23    2    1    2    0    0  0.10158860908E+03  0.22155992286E+02 -0.44377240494E+01  0.13927391447E+03  0.92554828993E+02 0.  0.
          5    1    3    3  502    0 -0.64654143773E+02  0.11295072197E+02 -0.13780201153E+03  0.15269120389E+03  0.41800000000E+01 0. -1.
         -5    1    3    3    0  502 -0.36934465304E+02 -0.33451064483E+02  0.13771512599E+02  0.51867672028E+02  0.41800000000E+01 0. -1.
        -11    1    4    4    0    0 -0.13822715334E+02 -0.21843016443E+01  0.14111785687E+02  0.19874132136E+02  0.00000000000E+00 0.  1.
         11    1    4    4    0    0  0.11541132441E+03  0.24340293931E+02 -0.18549509737E+02  0.11939978234E+03  0.00000000000E+00 0. -1.
</event>
<event>
 8    1  0.4798744E-006  0.1080373E+03  0.7561462E-02  0.1264248E+00
         -4   -1    0    0    0  501 -0.00000000000E+00  0.00000000000E+00  0.11157587527E+03  0.11157587527E+03  0.00000000000E+00 0.  1.
          4   -1    0    0  501    0  0.00000000000E+00 -0.00000000000E+00 -0.14886037986E+03  0.14886037986E+03  0.00000000000E+00 0. -1.
         23    2    1    2    0    0 -0.50633579711E+02 -0.43710258258E+02 -0.38590655874E+01  0.14190491004E+03  0.12509102700E+03 0.  0.
         23    2    1    2    0    0  0.50633579711E+02  0.43710258258E+02 -0.33425439000E+02  0.11853134508E+03  0.91967786334E+02 0.  0.
          5    1    3    3  502    0 -0.70459992986E+02  0.11592199683E+01 -0.39716144535E+02  0.80998758875E+02  0.41800000000E+01 0.  1.
         -5    1    3    3    0  502  0.19826413275E+02 -0.44869478226E+02  0.35857078948E+02  0.60906151170E+02  0.41800000000E+01 0.  1.
        -11    1    4    4    0    0  0.52510497850E+02  0.12266013805E-01 -0.49275310718E+02  0.72009782539E+02  0.00000000000E+00 0. -1.
         11    1    4    4    0    0 -0.18769181392E+01  0.43697992244E+02  0.15849871719E+02  0.46521562542E+02  0.00000000000E+00 0.  1.
</event>
<event>
 8    1  0.4798744E-006  0.1413834E+03  0.7561462E-02  0.1211480E+00
          1   -1    0    0  501    0  0.00000000000E+00  0.00000000000E+00  0.11833409331E+03  0.11833409331E+03  0.00000000000E+00 0. -1.
         -1   -1    0    0    0  501 -0.00000000000E+00 -0.00000000000E+00 -0.25426274198E+03  0.25426274198E+03  0.00000000000E+00 0.  1.
         23    2    1    2    0    0  0.12681500555E+03 -0.10963162615E+02 -0.11886132315E+03  0.21442488521E+03  0.12509108957E+03 0.  0.
         23    2    1    2    0    0 -0.12681500555E+03  0.10963162615E+02 -0.17067325514E+02  0.15817195008E+03  0.92330036418E+02 0.  0.
          5    1    3    3  502    0  0.11540630776E+03 -0.25753032007E+02 -0.28023092787E+02  0.12159194322E+03  0.41800000000E+01 0.  1.
         -5    1    3    3    0  502  0.11408697790E+02  0.14789869392E+02 -0.90838230364E+02  0.92832941985E+02  0.41800000000E+01 0.  1.
        -11    1    4    4    0    0 -0.91677414494E+02  0.39710638168E+02 -0.39622784099E+02  0.10747859383E+03  0.00000000000E+00 0.  1.
         11    1    4    4    0    0 -0.35137591052E+02 -0.28747475553E+02  0.22555458585E+02  0.50693356247E+02  0.00000000000E+00 0. -1.
</event>
<event>
 8    1  0.4798744E-006  0.1065163E+03  0.7561462E-02  0.1267161E+00
         -2   -1    0    0    0  501 -0.00000000000E+00  0.00000000000E+00  0.16766590777E+03  0.16766590777E+03  0.00000000000E+00 0.  1.
          2   -1    0    0  501    0  0.00000000000E+00 -0.00000000000E+00 -0.11475277143E+03  0.11475277143E+03  0.00000000000E+00 0. -1.
         23    2    1    2    0    0 -0.14407214498E+02  0.64068933387E+02  0.84389236271E+02  0.16456370794E+03  0.12508906714E+03 0.  0.
         23    2    1    2    0    0  0.14407214498E+02 -0.64068933387E+02 -0.31476099931E+02  0.11785497126E+03  0.92664196582E+02 0.  0.
          5    1    3    3  502    0  0.39197118833E+02  0.39583757670E+01 -0.95519714718E+01  0.40752857845E+02  0.41800000000E+01 0. -1.
         -5    1    3    3    0  502 -0.53604333331E+02  0.60110557620E+02  0.93941207743E+02  0.12381085010E+03  0.41800000000E+01 0. -1.
        -11    1    4    4    0    0 -0.25963086586E+02 -0.32008299675E+02  0.19287891635E+02  0.45504240208E+02  0.00000000000E+00 0.  1.
         11    1    4    4    0    0  0.40370301084E+02 -0.32060633712E+02 -0.50763991566E+02  0.72350731049E+02  0.00000000000E+00 0. -1.
</event>
<event>
 8    1  0.4798744E-006  0.7756452E+02  0.7561462E-02  0.1336109E+00
          1   -1    0    0  501    0  0.00000000000E+00  0.00000000000E+00  0.42354530508E+02  0.42354530508E+02  0.00000000000E+00 0. -1.
         -1   -1    0    0    0  501 -0.00000000000E+00 -0.00000000000E+00 -0.28157536756E+03  0.28157536756E+03  0.00000000000E+00 0.  1.
         23    2    1    2    0    0 -0.13209477495E+01  0.13367200561E+02 -0.14342649190E+03  0.19078369456E+03  0.12508729983E+03 0.  0.
         23    2    1    2    0    0  0.13209477495E+01 -0.13367200561E+02 -0.95794345160E+02  0.13314620351E+03  0.91492775621E+02 0.  0.
          5    1    3    3  502    0 -0.31148779218E+02  0.61476136831E+02 -0.79394310114E+02  0.10521639951E+03  0.41800000000E+01 0.  1.
         -5    1    3    3    0  502  0.29827831469E+02 -0.48108936271E+02 -0.64032181783E+02  0.85567295055E+02  0.41800000000E+01 0.  1.
        -11    1    4    4    0    0 -0.79867260682E+01 -0.17427989719E+02 -0.11221412148E+03  0.11383993886E+03  0.00000000000E+00 0.  1.
         11    1    4    4    0    0  0.93076738178E+01  0.40607891587E+01  0.16419776321E+02  0.19306264655E+02  0.00000000000E+00 0. -1.
</event>
<event>
 8    1  0.4798744E-006  0.1169317E+03  0.7561462E-02  0.1248246E+00
          1   -1    0    0  501    0  0.00000000000E+00  0.00000000000E+00  0.49980862557E+02  0.49980862557E+02  0.00000000000E+00 0. -1.
         -1   -1    0    0    0  501 -0.00000000000E+00 -0.00000000000E+00 -0.44766438129E+03  0.44766438129E+03  0.00000000000E+00 0.  1.
         23    2    1    2    0    0 -0.39230147520E+02  0.43441532187E+02 -0.35533008391E+03  0.38116004049E+03  0.12488929794E+03 0.  0.
         23    2    1    2    0    0  0.39230147520E+02 -0.43441532187E+02 -0.42353434824E+02  0.11648520336E+03  0.91371866389E+02 0.  0.
          5    1    3    3  502    0 -0.76820551648E+02  0.13296399534E+02 -0.13839558130E+03  0.15889934147E+03  0.41800000000E+01 0. -1.
         -5    1    3    3    0  502  0.37590404128E+02  0.30145132654E+02 -0.21693450261E+03  0.22226069901E+03  0.41800000000E+01 0. -1.
        -11    1    4    4    0    0  0.68730469165E+02 -0.29489100949E+02 -0.21734745361E+02  0.77883782794E+02  0.00000000000E+00 0. -1.
         11    1    4    4    0    0 -0.29500321645E+02 -0.13952431239E+02 -0.20618689463E+02  0.38601420567E+02  0.00000000000E+00 0.  1.
</event>
<event>
 8    1  0.4798744E-006  0.9493842E+02  0.7561462E-02  0.1291315E+00
          3   -1    0    0  501    0  0.00000000000E+00  0.00000000000E+00  0.33156369070E+02  0.33156369070E+02  0.00000000000E+00 0. -1.
         -3   -1    0    0    0  501 -0.00000000000E+00 -0.00000000000E+00 -0.41291029400E+03  0.41291029400E+03  0.00000000000E+00 0.  1.
         23    2    1    2    0    0 -0.15154581592E+00 -0.20944045680E+02 -0.27276272699E+03  0.30080736921E+03  0.12508753785E+03 0.  0.
         23    2    1    2    0    0  0.15154581592E+00  0.20944045680E+02 -0.10699119795E+03  0.14525929386E+03  0.95992030913E+02 0.  0.
          5    1    3    3  502    0 -0.47449624446E+02  0.93931861940E+01 -0.45067581512E+02  0.66243928856E+02  0.41800000000E+01 0. -1.
         -5    1    3    3    0  502  0.47298078630E+02 -0.30337231874E+02 -0.22769514548E+03  0.23456344036E+03  0.41800000000E+01 0. -1.
        -11    1    4    4    0    0  0.37099099734E+02 -0.81120121735E+01 -0.12945596615E+02  0.40121520589E+02  0.00000000000E+00 0.  1.
         11    1    4    4    0    0 -0.36947553918E+02  0.29056057853E+02 -0.94045601332E+02  0.10513777327E+03  0.00000000000E+00 0. -1.
</event>
<event>
 8    1  0.4798744E-006  0.9782112E+02  0.7561462E-02  0.1284946E+00
         -1   -1    0    0    0  501 -0.00000000000E+00  0.00000000000E+00  0.39672876985E+02  0.39672876985E+02  0.00000000000E+00 0.  1.
          1   -1    0    0  501    0  0.00000000000E+00 -0.00000000000E+00 -0.50546351289E+03  0.50546351289E+03  0.00000000000E+00 0. -1.
         23    2    1    2    0    0 -0.16869719441E+02 -0.64137255876E+02 -0.11751962049E+03  0.17710865112E+03  0.11471023528E+03 0.  0.
         23    2    1    2    0    0  0.16869719441E+02  0.64137255876E+02 -0.34827101542E+03  0.36802773875E+03  0.98760018659E+02 0.  0.
          5    1    3    3  502    0  0.11433911697E+02 -0.30182449072E+02 -0.12750936155E+03  0.13159720457E+03  0.41800000000E+01 0. -1.
         -5    1    3    3    0  502 -0.28303631138E+02 -0.33954806804E+02  0.99897410619E+01  0.45511446551E+02  0.41800000000E+01 0.  1.
        -11    1    4    4    0    0  0.14110138757E+02  0.90800286337E+02 -0.25890997781E+03  0.27473289688E+03  0.00000000000E+00 0. -1.
         11    1    4    4    0    0  0.27595806837E+01 -0.26663030461E+02 -0.89361037607E+02  0.93294841878E+02  0.00000000000E+00 0.  1.
</event>
<event>
 8    1  0.4798744E-006  0.1594592E+03  0.7561462E-02  0.1189309E+00
          2   -1    0    0  501    0  0.00000000000E+00  0.00000000000E+00  0.67800402023E+03  0.67800402023E+03  0.00000000000E+00 0. -1.
         -2   -1    0    0    0  501 -0.00000000000E+00 -0.00000000000E+00 -0.71803726735E+02  0.71803726735E+02  0.00000000000E+00 0.  1.
         23    2    1    2    0    0 -0.18833418649E+02  0.13184715219E+03  0.80205578552E+02  0.19954695024E+03  0.12509069237E+03 0.  0.
         23    2    1    2    0    0  0.18833418649E+02 -0.13184715219E+03  0.52599471494E+03  0.55026079673E+03  0.91532153209E+02 0.  0.
          5    1    3    3  502    0  0.31014380059E+02  0.87845415659E+02  0.93007685832E+02  0.13170653304E+03  0.41800000000E+01 0.  1.
         -5    1    3    3    0  502 -0.49847798708E+02  0.44001736532E+02 -0.12802107280E+02  0.67840417191E+02  0.41800000000E+01 0.  1.
        -11    1    4    4    0    0 -0.31801422899E+02 -0.23803263513E+02  0.17798535576E+03  0.18236423092E+03  0.00000000000E+00 0. -1.
         11    1    4    4    0    0  0.50634841548E+02 -0.10804388868E+03  0.34800935918E+03  0.36789656581E+03  0.00000000000E+00 0.  1.
</event>
<event>
 8    1  0.4798744E-006  0.1104280E+03  0.7561462E-02  0.1259779E+00
         -1   -1    0    0    0  501 -0.00000000000E+00  0.00000000000E+00  0.14720943021E+02  0.14720943021E+02  0.00000000000E+00 0.  1.
          1   -1    0    0  501    0  0.00000000000E+00 -0.00000000000E+00 -0.98518870405E+03  0.98518870405E+03  0.00000000000E+00 0. -1.
         23    2    1    2    0    0 -0.43689009525E+02  0.24775420416E+02 -0.47551801856E+03  0.49425244712E+03  0.12508215102E+03 0.  0.
         23    2    1    2    0    0  0.43689009525E+02 -0.24775420416E+02 -0.49494974247E+03  0.50565719995E+03  0.90506382520E+02 0.  0.
          5    1    3    3  502    0 -0.56081182269E+02  0.59654407902E+02 -0.19883895582E+03  0.21507707952E+03  0.41800000000E+01 0. -1.
         -5    1    3    3    0  502  0.12392172744E+02 -0.34878987486E+02 -0.27667906275E+03  0.27917536760E+03  0.41800000000E+01 0. -1.
        -11    1    4    4    0    0  0.42903653227E+02 -0.55912053167E+02 -0.38422972920E+03  0.39063968814E+03  0.00000000000E+00 0. -1.
         11    1    4    4    0    0  0.78535629859E+00  0.31136632751E+02 -0.11072001327E+03  0.11501751181E+03  0.00000000000E+00 0.  1.
</event>
<event>
 8    1  0.4798744E-006  0.1010848E+03  0.7561462E-02  0.1278031E+00
         -1   -1    0    0    0  501 -0.00000000000E+00  0.00000000000E+00  0.12530947462E+03  0.12530947462E+03  0.00000000000E+00 0.  1.
          1   -1    0    0  501    0  0.00000000000E+00 -0.00000000000E+00 -0.12655765022E+03  0.12655765022E+03  0.00000000000E+00 0. -1.
         23    2    1    2    0    0  0.49540415799E+02  0.33876179625E+02  0.12933262907E+02  0.13934251932E+03  0.12508884865E+03 0.  0.
         23    2    1    2    0    0 -0.49540415799E+02 -0.33876179625E+02 -0.14181438504E+02  0.11252460552E+03  0.94121332897E+02 0.  0.
          5    1    3    3  502    0 -0.28303250888E+02  0.23671697872E+02  0.41504352296E+02  0.55691174799E+02  0.41800000000E+01 0. -1.
         -5    1    3    3    0  502  0.77843666687E+02  0.10204481753E+02 -0.28571089389E+02  0.83651344520E+02  0.41800000000E+01 0. -1.
        -11    1    4    4    0    0 -0.64381831913E+02 -0.30266178099E+02 -0.40671451914E+02  0.81946499731E+02  0.00000000000E+00 0. -1.
         11    1    4    4    0    0  0.14841416115E+02 -0.36100015257E+01  0.26490013410E+02  0.30578105791E+02  0.00000000000E+00 0.  1.
</event>
<event>
 7    1  0.4798744E-006  0.7068537E+02  0.7561462E-02  0.1357778E+00
          1   -1    0    0  501    0  0.00000000000E+00  0.00000000000E+00  0.28081833680E+02  0.28081833680E+02  0.00000000000E+00 0. -1.
         -1   -1    0    0    0  501 -0.00000000000E+00 -0.00000000000E+00 -0.63423242085E+03  0.63423242085E+03  0.00000000000E+00 0.  1.
         23    2    1    2    0    0 -0.42027188689E+02 -0.27700621514E+01 -0.15384747726E+03  0.18562536292E+03  0.94940883009E+02 0.  0.
          5    1    1    2  502    0  0.70087600568E+01 -0.48555429181E+01  0.95271161130E+01  0.13451295699E+02  0.41800000000E+01 0. -1.
         -5    1    1    2    0  502  0.35018428633E+02  0.76256050696E+01 -0.46183022602E+03  0.46323759591E+03  0.41800000000E+01 0.  1.
        -11    1    3    3    0    0 -0.33153681721E+01  0.38827559036E+02 -0.29389793794E+02  0.48809128102E+02  0.00000000000E+00 0.  1.
         11    1    3    3    0    0 -0.38711820517E+02 -0.41597621187E+02 -0.12445768346E+03  0.13681623482E+03  0.00000000000E+00 0. -1.
</event>
<event>
 8    1  0.4798744E-006  0.1628188E+03  0.7561462E-02  0.1185551E+00
         -2   -1    0    0    0  501 -0.00000000000E+00  0.00000000000E+00  0.21615306418E+02  0.21615306418E+02  0.00000000000E+00 0.  1.
          2   -1    0    0  501    0  0.00000000000E+00 -0.00000000000E+00 -0.13267763759E+04  0.13267763759E+04  0.00000000000E+00 0. -1.
         23    2    1    2    0    0 -0.57805214968E+02 -0.11379134004E+03 -0.61862383122E+03  0.64391960028E+03  0.12508834927E+03 0.  0.
         23    2    1    2    0    0  0.57805214968E+02  0.11379134004E+03 -0.68653723825E+03  0.70447208203E+03  0.93046348158E+02 0.  0.
          5    1    3    3  502    0 -0.86366301609E+02 -0.11380045945E+03 -0.43077384454E+03  0.45386480384E+03  0.41800000000E+01 0. -1.
         -5    1    3    3    0  502  0.28561086641E+02  0.91194114412E-02 -0.18784998668E+03  0.19005479644E+03  0.41800000000E+01 0. -1.
        -11    1    4    4    0    0 -0.15075104813E+02  0.63587962336E+02 -0.37313403482E+03  0.37881353682E+03  0.00000000000E+00 0. -1.
         11    1    4    4    0    0  0.72880319780E+02  0.50203377705E+02 -0.31340320344E+03  0.32565854521E+03  0.00000000000E+00 0.  1.
</event>
<event>
 8    1  0.4798744E-006  0.8438239E+02  0.7561462E-02  0.1317056E+00
         -1   -1    0    0    0  501 -0.00000000000E+00  0.00000000000E+00  0.53914820592E+02  0.53914820592E+02  0.00000000000E+00 0.  1.
          1   -1    0    0  501    0  0.00000000000E+00 -0.00000000000E+00 -0.30267760035E+03  0.30267760035E+03  0.00000000000E+00 0. -1.
         23    2    1    2    0    0  0.43855437681E+02 -0.45362302962E+02 -0.14010909972E+03  0.19812116956E+03  0.12506158507E+03 0.  0.
         23    2    1    2    0    0 -0.43855437681E+02  0.45362302962E+02 -0.10865368004E+03  0.15847125138E+03  0.96573688878E+02 0.  0.
          5    1    3    3  502    0  0.16064070565E+02 -0.55197389877E+02 -0.28930735239E+01  0.57711770782E+02  0.41800000000E+01 0.  1.
         -5    1    3    3    0  502  0.27791367116E+02  0.98350869151E+01 -0.13721602620E+03  0.14040939878E+03  0.41800000000E+01 0.  1.
        -11    1    4    4    0    0 -0.40131870777E+02  0.45731158048E+01 -0.11031666861E+03  0.11747871217E+03  0.00000000000E+00 0. -1.
         11    1    4    4    0    0 -0.37235669037E+01  0.40789187157E+02  0.16629885756E+01  0.40992539204E+02  0.00000000000E+00 0.  1.
</event>
<event>
 7    1  0.4798744E-006  0.1031846E+03  0.7561462E-02  0.1273738E+00
          2   -1    0    0  501    0  0.00000000000E+00  0.00000000000E+00  0.25853536248E+03  0.25853536248E+03  0.00000000000E+00 0. -1.
         -2   -1    0    0    0  501 -0.00000000000E+00 -0.00000000000E+00 -0.19851425633E+03  0.19851425633E+03  0.00000000000E+00 0.  1.
         23    2    1    2    0    0 -0.25195345289E+02  0.80735480238E+02  0.20568295762E+03  0.23576150958E+03  0.78262297111E+02 0.  0.
          5    1    1    2  502    0  0.33954256286E+02 -0.49313115152E+02  0.11167193591E+02  0.61047960315E+02  0.41800000000E+01 0. -1.
         -5    1    1    2    0  502 -0.87589109970E+01 -0.31422365085E+02 -0.15682904507E+03  0.16024014892E+03  0.41800000000E+01 0.  1.
        -11    1    3    3    0    0 -0.51799022703E+02  0.62673226299E+02  0.16463127106E+03  0.18361516130E+03  0.00000000000E+00 0. -1.
         11    1    3    3    0    0  0.26603677415E+02  0.18062253939E+02  0.41051686561E+02  0.52146348279E+02  0.00000000000E+00 0.  1.
</event>
<event>
 8    1  0.4798744E-006  0.1061946E+03  0.7561462E-02  0.1267784E+00
          2   -1    0    0  501    0  0.00000000000E+00  0.00000000000E+00  0.39374159062E+03  0.39374159062E+03  0.00000000000E+00 0. -1.
         -2   -1    0    0    0  501 -0.00000000000E+00 -0.00000000000E+00 -0.38854305196E+02  0.38854305196E+02  0.00000000000E+00 0.  1.
         23    2    1    2    0    0 -0.45807900869E+02 -0.48940012991E+02  0.19682138557E+03  0.23783436008E+03  0.11546876792E+03 0.  0.
         23    2    1    2    0    0  0.45807900869E+02  0.48940012991E+02  0.15806589986E+03  0.19476153574E+03  0.91944213798E+02 0.  0.
          5    1    3    3  502    0 -0.59437268320E+02 -0.10667676092E+02  0.18597415665E+03  0.19557721626E+03  0.41800000000E+01 0. -1.
         -5    1    3    3    0  502  0.13629367450E+02 -0.38272336898E+02  0.10847228918E+02  0.42257143821E+02  0.41800000000E+01 0.  1.
        -11    1    4    4    0    0  0.40466858823E+02 -0.17695899400E+02  0.84586869541E+02  0.95423529684E+02  0.00000000000E+00 0.  1.
         11    1    4    4    0    0  0.53410420465E+01  0.66635912391E+02  0.73479030321E+02  0.99338006056E+02  0.00000000000E+00 0. -1.
</event>
<event>
 8    1  0.4798744E-006  0.1961736E+03  0.7561462E-02  0.1153008E+00
         -2   -1    0    0    0  501 -0.00000000000E+00  0.00000000000E+00  0.41960556218E+02  0.41960556218E+02  0.00000000000E+00 0.  1.
          2   -1    0    0  501    0  0.00000000000E+00 -0.00000000000E+00 -0.10414351749E+04  0.10414351749E+04  0.00000000000E+00 0. -1.
         23    2    1    2    0    0  0.16186417514E+03  0.36651616193E+02 -0.35426972415E+03  0.41072243834E+03  0.12507010732E+03 0.  0.
         23    2    1    2    0    0 -0.16186417514E+03 -0.36651616193E+02 -0.64520489455E+03  0.67267329280E+03  0.93041123835E+02 0.  0.
          5    1    3    3  502    0  0.86506381291E+02 -0.40852705822E+02 -0.12735660797E+03  0.15934075302E+03  0.41800000000E+01 0. -1.
         -5    1    3    3    0  502  0.75357793847E+02  0.77504322015E+02 -0.22691311617E+03  0.25138168532E+03  0.41800000000E+01 0. -1.
        -11    1    4    4    0    0 -0.27970724817E+02 -0.46379096990E+02 -0.14562747461E+03  0.15537291735E+03  0.00000000000E+00 0. -1.
         11    1    4    4    0    0 -0.13389345032E+03  0.97274807967E+01 -0.49957741994E+03  0.51730037544E+03  0.00000000000E+00 0.  1.
</event>
<event>
 8    1  0.4798744E-006  0.1787167E+03  0.7561462E-02  0.1169051E+00
         -2   -1    0    0    0  501 -0.00000000000E+00  0.00000000000E+00  0.52337349125E+02  0.52337349125E+02  0.00000000000E+00 0.  1.
          2   -1    0    0  501    0  0.00000000000E+00 -0.00000000000E+00 -0.64355519948E+03  0.64355519948E+03  0.00000000000E+00 0. -1.
         23    2    1    2    0    0  0.13238613674E+03 -0.57805686468E+02 -0.24825104765E+03  0.31327828852E+03  0.12508843595E+03 0.  0.
         23    2    1    2    0    0 -0.13238613674E+03  0.57805686468E+02 -0.34296680270E+03  0.38261426009E+03  0.88881143542E+02 0.  0.
          5    1    3    3  502    0  0.48033301614E+02 -0.88862312824E+02 -0.13048827766E+03  0.16507080817E+03  0.41800000000E+01 0. -1.
         -5    1    3    3    0  502  0.84352835123E+02  0.31056626355E+02 -0.11776276999E+03  0.14820748035E+03  0.41800000000E+01 0. -1.
        -11    1    4    4    0    0  0.11026701687E+02  0.10783756299E+02 -0.14662803684E+02  0.21280868448E+02  0.00000000000E+00 0.  1.
         11    1    4    4    0    0 -0.14341283842E+03  0.47021930169E+02 -0.32830399902E+03  0.36133339164E+03  0.00000000000E+00 0. -1.
</event>
<event>
 8    1  0.4798744E-006  0.1044144E+03  0.7561462E-02  0.1271278E+00
          4   -1    0    0  501    0  0.00000000000E+00  0.00000000000E+00  0.35470111965E+02  0.35470111965E+02  0.00000000000E+00 0. -1.
         -4   -1    0    0    0  501 -0.00000000000E+00 -0.00000000000E+00 -0.32845928448E+03  0.32845928448E+03  0.00000000000E+00 0.  1.
         23    2    1    2    0    0 -0.26326619979E+02  0.12519124822E+02 -0.21566638114E+03  0.25101707777E+03  0.12509103075E+03 0.  0.
         23    2    1    2    0    0  0.26326619979E+02 -0.12519124822E+02 -0.77322791375E+02  0.11291231867E+03  0.76945163825E+02 0.  0.
          5    1    3    3  502    0  0.63071981004E+01 -0.52898798687E+02 -0.11202689400E+03  0.12411914047E+03  0.41800000000E+01 0.  1.
         -5    1    3    3    0  502 -0.32633818079E+02  0.65417923509E+02 -0.10363948714E+03  0.12689793731E+03  0.41800000000E+01 0.  1.
        -11    1    4    4    0    0 -0.15400255601E+02  0.22789575905E+02 -0.23090250977E+02  0.35912286654E+02  0.00000000000E+00 0.  1.
         11    1    4    4    0    0  0.41726875580E+02 -0.35308700728E+02 -0.54232540399E+02  0.77000032018E+02  0.00000000000E+00 0. -1.
</event>
<event>
 8    1  0.4798744E-006  0.1471217E+03  0.7561462E-02  0.1204055E+00
         -1   -1    0    0    0  501 -0.00000000000E+00  0.00000000000E+00  0.34440318116E+02  0.34440318116E+02  0.00000000000E+00 0.  1.
          1   -1    0    0  501    0  0.00000000000E+00 -0.00000000000E+00 -0.80276222443E+03  0.80276222443E+03  0.00000000000E+00 0. -1.
         23    2    1    2    0    0 -0.12057624165E+03  0.23476696961E+02 -0.34098869403E+03  0.38341994155E+03  0.12509107391E+03 0.  0.
         23    2    1    2    0    0  0.12057624165E+03 -0.23476696961E+02 -0.42733321228E+03  0.45378260100E+03  0.90637681439E+02 0.  0.
          5    1    3    3  502    0 -0.90178322845E+02 -0.16066415162E+02 -0.93639673977E+02  0.13105769932E+03  0.41800000000E+01 0. -1.
         -5    1    3    3    0  502 -0.30397918803E+02  0.39543112123E+02 -0.24734902005E+03  0.25236224223E+03  0.41800000000E+01 0. -1.
        -11    1    4    4    0    0  0.10093893263E+03  0.21693634997E+02 -0.29891446560E+03  0.31624221677E+03  0.00000000000E+00 0.  1.
         11    1    4    4    0    0  0.19637309019E+02 -0.45170331958E+02 -0.12841874668E+03  0.13754038423E+03  0.00000000000E+00 0. -1.
</event>
<event>
 8    1  0.4798744E-006  0.1718150E+03  0.7561462E-02  0.1175968E+00
         -2   -1    0    0    0  501 -0.00000000000E+00  0.00000000000E+00  0.59316813446E+02  0.59316813446E+02  0.00000000000E+00 0.  1.
          2   -1    0    0  501    0  0.00000000000E+00 -0.00000000000E+00 -0.71063828868E+03  0.71063828868E+03  0.00000000000E+00 0. -1.
         23    2    1    2    0    0  0.97786482478E+01 -0.13620450189E+03 -0.13832467283E+03  0.23114596222E+03  0.12508977751E+03 0.  0.
         23    2    1    2    0    0 -0.97786482478E+01  0.13620450189E+03 -0.51299680240E+03  0.53880913991E+03  0.92207817877E+02 0.  0.
          5    1    3    3  502    0 -0.57497216505E+02 -0.66811030972E+02 -0.60601521277E+02  0.10704980405E+03  0.41800000000E+01 0. -1.
         -5    1    3    3    0  502  0.67275864753E+02 -0.69393470922E+02 -0.77723151555E+02  0.12409615817E+03  0.41800000000E+01 0. -1.
        -11    1    4    4    0    0 -0.45545680938E+02  0.78316764782E+02 -0.21819760302E+03  0.23625858431E+03  0.00000000000E+00 0.  1.
         11    1    4    4    0    0  0.35767032690E+02  0.57887737112E+02 -0.29479919938E+03  0.30255055560E+03  0.00000000000E+00 0. -1.
</event>
<event>
 8    1  0.4798744E-006  0.1822208E+03  0.7561462E-02  0.1165671E+00
         -3   -1    0    0    0  501 -0.00000000000E+00  0.00000000000E+00  0.54681812489E+03  0.54681812489E+03  0.00000000000E+00 0.  1.
          3   -1    0    0  501    0  0.00000000000E+00 -0.00000000000E+00 -0.71260039284E+02  0.71260039284E+02  0.00000000000E+00 0. -1.
         23    2    1    2    0    0 -0.44676818926E+02 -0.15449283206E+03  0.30255031723E+03  0.36475497650E+03  0.12508175376E+03 0.  0.
         23    2    1    2    0    0  0.44676818926E+02  0.15449283206E+03  0.17300776838E+03  0.25332318767E+03  0.91525385455E+02 0.  0.
          5    1    3    3  502    0 -0.88053755859E+02 -0.93953938890E+02  0.18175749787E+03  0.22278704402E+03  0.41800000000E+01 0.  1.
         -5    1    3    3    0  502  0.43376936933E+02 -0.60538893173E+02  0.12079281936E+03  0.14196793248E+03  0.41800000000E+01 0.  1.
        -11    1    4    4    0    0  0.23178439966E+02  0.94006640456E+02  0.38337164223E+02  0.10413561682E+03  0.00000000000E+00 0. -1.
         11    1    4    4    0    0  0.21498378960E+02  0.60486191606E+02  0.13467060415E+03  0.14918757085E+03  0.00000000000E+00 0.  1.
</event>
<event>
 8    1  0.4798744E-006  0.1317904E+03  0.7561462E-02  0.1224823E+00
         -2   -1    0    0    0  501 -0.00000000000E+00  0.00000000000E+00  0.19356361175E+02  0.19356361175E+02  0.00000000000E+00 0.  1.
          2   -1    0    0  501    0  0.00000000000E+00 -0.00000000000E+00 -0.99706937067E+03  0.99706937067E+03  0.00000000000E+00 0. -1.
         23    2    1    2    0    0  0.14204930574E+01 -0.77521311341E+02 -0.39462202355E+03  0.42117237635E+03  0.12509219648E+03 0.  0.
         23    2    1    2    0    0 -0.14204930574E+01  0.77521311341E+02 -0.58309098595E+03  0.59525335550E+03  0.91213419083E+02 0.  0.
          5    1    3    3  502    0 -0.61150630297E+02 -0.30663972140E+02 -0.19882615040E+03  0.21030689303E+03  0.41800000000E+01 0.  1.
         -5    1    3    3    0  502  0.62571123354E+02 -0.46857339201E+02 -0.19579587315E+03  0.21086548332E+03  0.41800000000E+01 0.  1.
        -11    1    4    4    0    0 -0.23673377505E+02 -0.10553684738E+02 -0.82144179380E+02  0.86136375998E+02  0.00000000000E+00 0.  1.
         11    1    4    4    0    0  0.22252884448E+02  0.88074996080E+02 -0.50094680657E+03  0.50911697950E+03  0.00000000000E+00 0. -1.
</event>
<event>
 8    1  0.4798744E-006  0.2368251E+03  0.7561462E-02  0.1121926E+00
         -1   -1    0    0    0  501 -0.00000000000E+00  0.00000000000E+00  0.65130851798E+02  0.65130851798E+02  0.00000000000E+00 0.  1.
          1   -1    0    0  501    0  0.00000000000E+00 -0.00000000000E+00 -0.10559981272E+04  0.10559981272E+04  0.00000000000E+00 0. -1.
         23    2    1    2    0    0  0.19408882418E+03  0.11585032561E+03 -0.34430075510E+03  0.43044391186E+03  0.12508869525E+03 0.  0.
         23    2    1    2    0    0 -0.19408882418E+03 -0.11585032561E+03 -0.64656652031E+03  0.69068506715E+03  0.88914718536E+02 0.  0.
          5    1    3    3  502    0  0.15731447462E+03  0.40224447468E+02 -0.16085751516E+03  0.22860109948E+03  0.41800000000E+01 0. -1.
         -5    1    3    3    0  502  0.36774349561E+02  0.75625878145E+02 -0.18344323994E+03  0.20184281238E+03  0.41800000000E+01 0. -1.
        -11    1    4    4    0    0 -0.73663677966E+02 -0.32184221573E+02 -0.12274258520E+03  0.14672390327E+03  0.00000000000E+00 0.  1.
         11    1    4    4    0    0 -0.12042514622E+03 -0.83666104040E+02 -0.52382393511E+03  0.54396116388E+03  0.00000000000E+00 0. -1.
</event>
<event>
 8    1  0.4798744E-006  0.3254756E+03  0.7561462E-02  0.1073157E+00
         -4   -1    0    0    0  501 -0.00000000000E+00  0.00000000000E+00  0.40750750348E+03  0.40750750348E+03  0.00000000000E+00 0. -1.
          4   -1    0    0  501    0  0.00000000000E+00 -0.00000000000E+00 -0.33246538771E+03  0.33246538771E+03  0.00000000000E+00 0.  1.
         23    2    1    2    0    0 -0.27769537021E+03  0.16119667127E+03  0.18721111713E+03  0.39216820503E+03  0.12509521651E+03 0.  0.
         23    2    1    2    0    0  0.27769537021E+03 -0.16119667127E+03 -0.11216900136E+03  0.34780468616E+03  0.72712649429E+02 0.  0.
          5    1    3    3  502    0 -0.17079483994E+03  0.12512484270E+03  0.18186715372E+03  0.27914196678E+03  0.41800000000E+01 0.  1.
         -5    1    3    3    0  502 -0.10690053027E+03  0.36071828567E+02  0.53439634020E+01  0.11302623825E+03  0.41800000000E+01 0.  1.
        -11    1    4    4    0    0  0.38801451633E+02 -0.13081994193E+01  0.10805308565E+01  0.38838532175E+02  0.00000000000E+00 0. -1.
         11    1    4    4    0    0  0.23889391858E+03 -0.15988847185E+03 -0.11324953221E+03  0.30896615399E+03  0.00000000000E+00 0.  1.
</event>
<event>
 8    1  0.4798744E-006  0.1482130E+03  0.7561462E-02  0.1202686E+00
         -2   -1    0    0    0  501 -0.00000000000E+00  0.00000000000E+00  0.14048036843E+04  0.14048036843E+04  0.00000000000E+00 0.  1.
          2   -1    0    0  501    0  0.00000000000E+00 -0.00000000000E+00 -0.16314450249E+02  0.16314450249E+02  0.00000000000E+00 0. -1.
         23    2    1    2    0    0 -0.76127749483E+01  0.10586936667E+03  0.80612179343E+03  0.82264627369E+03  0.12509303990E+03 0.  0.
         23    2    1    2    0    0  0.76127749483E+01 -0.10586936667E+03  0.58236744067E+03  0.59847186090E+03  0.88036669663E+02 0.  0.
          5    1    3    3  502    0  0.22337795816E+02 -0.19649330587E+02  0.24650479842E+03  0.24832873647E+03  0.41800000000E+01 0. -1.
         -5    1    3    3    0  502 -0.29950570764E+02  0.12551869725E+03  0.55961699501E+03  0.57431753722E+03  0.41800000000E+01 0. -1.
        -11    1    4    4    0    0 -0.19034075759E+02 -0.10881222621E+03  0.44434725596E+03  0.45787212242E+03  0.00000000000E+00 0.  1.
         11    1    4    4    0    0  0.26646850707E+02  0.29428595412E+01  0.13802018471E+03  0.14059973848E+03  0.00000000000E+00 0. -1.
</event>
<event>
 8    1  0.4798744E-006  0.1442430E+03  0.7561462E-02  0.1207731E+00
          1   -1    0    0  501    0  0.00000000000E+00  0.00000000000E+00  0.58919867759E+03  0.58919867759E+03  0.00000000000E+00 0. -1.
         -1   -1    0    0    0  501 -0.00000000000E+00 -0.00000000000E+00 -0.48476860109E+02  0.48476860109E+02  0.00000000000E+00 0.  1.
         23    2    1    2    0    0 -0.40931928754E+02  0.12251519524E+03  0.28526361690E+03  0.33720658293E+03  0.12509017784E+03 0.  0.
         23    2    1    2    0    0  0.40931928754E+02 -0.12251519524E+03  0.25545820059E+03  0.30046895477E+03  0.91308842258E+02 0.  0.
          5    1    3    3  502    0 -0.26708840504E+02  0.11528729430E+03  0.11145353637E+03  0.16261576048E+03  0.41800000000E+01 0. -1.
         -5    1    3    3    0  502 -0.14223088250E+02  0.72279009468E+01  0.17381008053E+03  0.17459082245E+03  0.41800000000E+01 0. -1.
        -11    1    4    4    0    0 -0.21807972717E+02 -0.84314662655E+01  0.17442598506E+02  0.29170559474E+02  0.00000000000E+00 0.  1.
         11    1    4    4    0    0  0.62739901471E+02 -0.11408372898E+03  0.23801560208E+03  0.27129839529E+03  0.00000000000E+00 0. -1.
</event>
<event>
 7    1  0.4798744E-006  0.1250995E+03  0.7561462E-02  0.1234914E+00
         -3   -1    0    0    0  501 -0.00000000000E+00  0.00000000000E+00  0.10112020574E+04  0.10112020574E+04  0.00000000000E+00 0.  1.
          3   -1    0    0  501    0  0.00000000000E+00 -0.00000000000E+00 -0.26283755986E+02  0.26283755986E+02  0.00000000000E+00 0. -1.
         23    2    1    2    0    0 -0.84984554092E+02  0.24840809972E+02  0.22043516151E+03  0.25446792900E+03  0.91229524737E+02 0.  0.
          5    1    1    2  502    0  0.11784069254E+03  0.30534197648E+01  0.43527188404E+03  0.45097099422E+03  0.41800000000E+01 0. -1.
         -5    1    1    2    0  502 -0.32856138445E+02 -0.27894229737E+02  0.32921125587E+03  0.33204689018E+03  0.41800000000E+01 0.  1.
        -11    1    3    3    0    0 -0.43742016749E+02  0.83866010096E+01  0.19388075536E+02  0.48575678881E+02  0.00000000000E+00 0. -1.
         11    1    3    3    0    0 -0.41242537343E+02  0.16454208962E+02  0.20104708598E+03  0.20589225012E+03  0.00000000000E+00 0.  1.
</event>
<event>
 8    1  0.4798744E-006  0.1047741E+03  0.7561462E-02  0.1270565E+00
         -2   -1    0    0    0  501 -0.00000000000E+00  0.00000000000E+00  0.25028007597E+02  0.25028007597E+02  0.00000000000E+00 0.  1.
          2   -1    0    0  501    0  0.00000000000E+00 -0.00000000000E+00 -0.60033669840E+03  0.60033669840E+03  0.00000000000E+00 0. -1.
         23    2    1    2    0    0 -0.47502392369E+02  0.31906248664E+02 -0.31109091608E+03  0.34016676947E+03  0.12514546336E+03 0.  0.
         23    2    1    2    0    0  0.47502392369E+02 -0.31906248664E+02 -0.26421777472E+03  0.28519793652E+03  0.90842415947E+02 0.  0.
          5    1    3    3  502    0  0.36100388968E+02  0.35786036226E+02 -0.86038682986E+02  0.10002002721E+03  0.41800000000E+01 0.  1.
         -5    1    3    3    0  502 -0.83602781338E+02 -0.38797875623E+01 -0.22505223310E+03  0.24014674227E+03  0.41800000000E+01 0.  1.
        -11    1    4    4    0    0  0.29254687053E+02 -0.44013206655E+02 -0.25664020482E+03  0.26202517780E+03  0.00000000000E+00 0. -1.
         11    1    4    4    0    0  0.18247705316E+02  0.12106957992E+02 -0.75775699045E+01  0.23172758722E+02  0.00000000000E+00 0.  1.
</event>
<event>
 8    1  0.4798744E-006  0.9110276E+02  0.7561462E-02  0.1300203E+00
         -1   -1    0    0    0  501 -0.00000000000E+00  0.00000000000E+00  0.65088254508E+03  0.65088254508E+03  0.00000000000E+00 0.  1.
          1   -1    0    0  501    0  0.00000000000E+00 -0.00000000000E+00 -0.25760807754E+02  0.25760807754E+02  0.00000000000E+00 0. -1.
         23    2    1    2    0    0 -0.30697285805E+02 -0.63235403741E+01  0.51019105226E+03  0.52623623182E+03  0.12508937346E+03 0.  0.
         23    2    1    2    0    0  0.30697285805E+02  0.63235403741E+01  0.11493068506E+03  0.15040712101E+03  0.91820091285E+02 0.  0.
          5    1    3    3  502    0 -0.24959801708E+02  0.38061101546E+02  0.69024870044E+02  0.82786135535E+02  0.41800000000E+01 0.  1.
         -5    1    3    3    0  502 -0.57374840970E+01 -0.44384641921E+02  0.44116618222E+03  0.44345009628E+03  0.41800000000E+01 0.  1.
        -11    1    4    4    0    0 -0.12858452150E+02 -0.31398919908E+02  0.20080141786E+02  0.39426438557E+02  0.00000000000E+00 0.  1.
         11    1    4    4    0    0  0.43555737955E+02  0.37722460282E+02  0.94850543276E+02  0.11098068246E+03  0.00000000000E+00 0. -1.
</event>
<event>
 8    1  0.4798744E-006  0.7297587E+02  0.7561462E-02  0.1350256E+00
          2   -1    0    0  501    0  0.00000000000E+00  0.00000000000E+00  0.65832564161E+03  0.65832564161E+03  0.00000000000E+00 0. -1.
         -2   -1    0    0    0  501 -0.00000000000E+00 -0.00000000000E+00 -0.22459523302E+02  0.22459523302E+02  0.00000000000E+00 0.  1.
         23    2    1    2    0    0 -0.31845348321E+02 -0.10478827356E+02  0.23563131242E+03  0.26887570375E+03  0.12509235245E+03 0.  0.
         23    2    1    2    0    0  0.31845348321E+02  0.10478827356E+02  0.40023480589E+03  0.41190946116E+03  0.91419758903E+02 0.  0.
          5    1    3    3  502    0 -0.36428880834E+02 -0.17001260609E+02  0.24927492196E+03  0.25253032558E+03  0.41800000000E+01 0.  1.
         -5    1    3    3    0  502  0.45835325135E+01  0.65224332521E+01 -0.13643609545E+02  0.16345378162E+02  0.41800000000E+01 0.  1.
        -11    1    4    4    0    0 -0.16102757478E+02  0.37983644340E+02  0.14483586851E+03  0.15059709440E+03  0.00000000000E+00 0.  1.
         11    1    4    4    0    0  0.47948105799E+02 -0.27504816983E+02  0.25539893738E+03  0.26131236676E+03  0.00000000000E+00 0. -1.
</event>
<event>
 8    1  0.4798744E-006  0.1461036E+03  0.7561462E-02  0.1205344E+00
         -2   -1    0    0    0  501 -0.00000000000E+00  0.00000000000E+00  0.36896044908E+02  0.36896044908E+02  0.00000000000E+00 0.  1.
          2   -1    0    0  501    0  0.00000000000E+00 -0.00000000000E+00 -0.69493688321E+03  0.69493688321E+03  0.00000000000E+00 0. -1.
         23    2    1    2    0    0 -0.84610406387E+02  0.61201884028E+02 -0.23076721246E+03  0.28249875455E+03  0.12508976176E+03 0.  0.
         23    2    1    2    0    0  0.84610406387E+02 -0.61201884028E+02 -0.42727362584E+03  0.44933417356E+03  0.91836031704E+02 0.  0.
          5    1    3    3  502    0  0.16997898258E+02 -0.17756617410E+02 -0.82241824672E+02  0.85938443856E+02  0.41800000000E+01 0.  1.
         -5    1    3    3    0  502 -0.10160830465E+03  0.78958501438E+02 -0.14852538779E+03  0.19656031070E+03  0.41800000000E+01 0.  1.
        -11    1    4    4    0    0  0.10014606247E+02  0.23567662445E+02 -0.95388786255E+02  0.98766125745E+02  0.00000000000E+00 0.  1.
         11    1    4    4    0    0  0.74595800140E+02 -0.84769546472E+02 -0.33188483958E+03  0.35056804782E+03  0.00000000000E+00 0. -1.
</event>
<event>
 8    1  0.4798744E-006  0.2405594E+03  0.7561462E-02  0.1119421E+00
         -2   -1    0    0    0  501 -0.00000000000E+00  0.00000000000E+00  0.91241705005E+03  0.91241705005E+03  0.00000000000E+00 0.  1.
          2   -1    0    0  501    0  0.00000000000E+00 -0.00000000000E+00 -0.83757470336E+02  0.83757470336E+02  0.00000000000E+00 0. -1.
         23    2    1    2    0    0 -0.83576867477E+02 -0.21042614177E+03  0.62779104210E+03  0.67899783007E+03  0.12510877975E+03 0.  0.
         23    2    1    2    0    0  0.83576867477E+02  0.21042614177E+03  0.20086853761E+03  0.31717669032E+03  0.94808383391E+02 0.  0.
          5    1    3    3  502    0 -0.19749444876E+02 -0.27976817866E+01  0.74273682541E+01  0.21691145555E+02  0.41800000000E+01 0. -1.
         -5    1    3    3    0  502 -0.63827422601E+02 -0.20762845999E+03  0.62036367385E+03  0.65730668451E+03  0.41800000000E+01 0. -1.
        -11    1    4    4    0    0  0.46407908727E+02  0.21881987047E+02  0.26785872528E+02  0.57879169972E+02  0.00000000000E+00 0. -1.
         11    1    4    4    0    0  0.37168958750E+02  0.18854415473E+03  0.17408266508E+03  0.25929752035E+03  0.00000000000E+00 0.  1.
</event>
<event>
 8    1  0.4798744E-006  0.1598145E+03  0.7561462E-02  0.1188906E+00
         -1   -1    0    0    0  501 -0.00000000000E+00  0.00000000000E+00  0.36389941194E+03  0.36389941194E+03  0.00000000000E+00 0.  1.
          1   -1    0    0  501    0  0.00000000000E+00 -0.00000000000E+00 -0.98679974792E+02  0.98679974792E+02  0.00000000000E+00 0. -1.
         23    2    1    2    0    0 -0.20235111334E+02 -0.12812296200E+03  0.24189195822E+03  0.30164318060E+03  0.12510769691E+03 0.  0.
         23    2    1    2    0    0  0.20235111334E+02  0.12812296200E+03  0.23327478923E+02  0.16093620613E+03  0.92365242651E+02 0.  0.
          5    1    3    3  502    0 -0.61927142834E+02 -0.65145045679E+02  0.18904940493E+03  0.20937048002E+03  0.41800000000E+01 0. -1.
         -5    1    3    3    0  502  0.41692031500E+02 -0.62977916319E+02  0.52842553287E+02  0.92272700580E+02  0.41800000000E+01 0. -1.
        -11    1    4    4    0    0  0.50513948666E+02  0.54032274494E+02 -0.92060563941E+01  0.74537890842E+02  0.00000000000E+00 0.  1.
         11    1    4    4    0    0 -0.30278837332E+02  0.74090687503E+02  0.32533535317E+02  0.86398315291E+02  0.00000000000E+00 0. -1.
</event>
<event>
 8    1  0.4798744E-006  0.1197839E+03  0.7561462E-02  0.1243454E+00
          1   -1    0    0  501    0  0.00000000000E+00  0.00000000000E+00  0.40786122676E+03  0.40786122676E+03  0.00000000000E+00 0. -1.
         -1   -1    0    0    0  501 -0.00000000000E+00 -0.00000000000E+00 -0.46713074629E+02  0.46713074629E+02  0.00000000000E+00 0.  1.
         23    2    1    2    0    0 -0.28751332715E+02  0.44232281308E+02  0.87804506492E+02  0.16167949406E+03  0.12508994202E+03 0.  0.
         23    2    1    2    0    0  0.28751332715E+02 -0.44232281308E+02  0.27334364564E+03  0.29289480734E+03  0.91035628788E+02 0.  0.
          5    1    3    3  502    0 -0.43868834641E+02  0.82267280347E+02  0.70883914849E+02  0.11719377907E+03  0.41800000000E+01 0.  1.
         -5    1    3    3    0  502  0.15117501925E+02 -0.38034999039E+02  0.16920591644E+02  0.44485714987E+02  0.41800000000E+01 0.  1.
        -11    1    4    4    0    0 -0.22775075982E+02  0.14475950880E+02  0.76391636542E+02  0.81018142249E+02  0.00000000000E+00 0.  1.
         11    1    4    4    0    0  0.51526408698E+02 -0.58708232188E+02  0.19695200910E+03  0.21187666509E+03  0.00000000000E+00 0. -1.
</event>
<event>
 8    1  0.4798744E-006  0.1710995E+03  0.7561462E-02  0.1176706E+00
         -2   -1    0    0    0  501 -0.00000000000E+00  0.00000000000E+00  0.18896578101E+03  0.18896578101E+03  0.00000000000E+00 0. -1.
          2   -1    0    0  501    0  0.00000000000E+00 -0.00000000000E+00 -0.19636125297E+03  0.19636125297E+03  0.00000000000E+00 0.  1.
         23    2    1    2    0    0  0.14671522462E+03 -0.13208172802E+00  0.60399559061E+02  0.20204235469E+03  0.12509049434E+03 0.  0.
         23    2    1    2    0    0 -0.14671522462E+03  0.13208172802E+00 -0.67795031019E+02  0.18328467928E+03  0.86439185839E+02 0.  0.
          5    1    3    3  502    0  0.74223842271E+02 -0.45005860355E+02  0.75787078482E+02  0.11530767491E+03  0.41800000000E+01 0.  1.
         -5    1    3    3    0  502  0.72491382349E+02  0.44873778627E+02 -0.15387519422E+02  0.86734679783E+02  0.41800000000E+01 0.  1.
        -11    1    4    4    0    0 -0.99360016785E+02  0.40901878023E+02 -0.37177988925E+02  0.11369951373E+03  0.00000000000E+00 0.  1.
         11    1    4    4    0    0 -0.47355207834E+02 -0.40769796295E+02 -0.30617042094E+02  0.69585165556E+02  0.00000000000E+00 0. -1.
</event>
<event>
 8    1  0.4798744E-006  0.1026233E+03  0.7561462E-02  0.1274874E+00
         -1   -1    0    0    0  501 -0.00000000000E+00  0.00000000000E+00  0.20147563848E+03  0.20147563848E+03  0.00000000000E+00 0.  1.
          1   -1    0    0  501    0  0.00000000000E+00 -0.00000000000E+00 -0.69294153361E+02  0.69294153361E+02  0.00000000000E+00 0. -1.
         23    2    1    2    0    0 -0.41099160383E+01 -0.47345495741E+02  0.71139865362E+02  0.15154847621E+03  0.12509025869E+03 0.  0.
         23    2    1    2    0    0  0.41099160383E+01  0.47345495741E+02  0.61041619756E+02  0.11922131564E+03  0.90714692209E+02 0.  0.
          5    1    3    3  502    0 -0.83464535151E+01  0.28405870346E+02  0.69373908971E+02  0.75543155893E+02  0.41800000000E+01 0. -1.
         -5    1    3    3    0  502  0.42365374769E+01 -0.75751366087E+02  0.17659563914E+01  0.76005320312E+02  0.41800000000E+01 0. -1.
        -11    1    4    4    0    0 -0.22763110065E+02 -0.17796440583E+02  0.31691378060E+02  0.42886080733E+02  0.00000000000E+00 0.  1.
         11    1    4    4    0    0  0.26873026103E+02  0.65141936324E+02  0.29350241696E+02  0.76335234903E+02  0.00000000000E+00 0. -1.
</event>
<event>
 8    1  0.4798744E-006  0.1105648E+03  0.7561462E-02  0.1259528E+00
          1   -1    0    0  501    0  0.00000000000E+00  0.00000000000E+00  0.24911706221E+03  0.24911706221E+03  0.00000000000E+00 0. -1.
         -1   -1    0    0    0  501 -0.00000000000E+00 -0.00000000000E+00 -0.59037891643E+02  0.59037891643E+02  0.00000000000E+00 0.  1.
         23    2    1    2    0    0  0.43886087395E+02  0.75659028067E+00  0.67452447346E+02  0.14874272797E+03  0.12509198765E+03 0.  0.
         23    2    1    2    0    0 -0.43886087395E+02 -0.75659028067E+00  0.12262672322E+03  0.15941222588E+03  0.91915088082E+02 0.  0.
          5    1    3    3  502    0 -0.31094457474E+02 -0.26783434433E+02 -0.40569988967E+01  0.41450564359E+02  0.41800000000E+01 0.  1.
         -5    1    3    3    0  502  0.74980544869E+02  0.27540024714E+02  0.71509446242E+02  0.10729216361E+03  0.41800000000E+01 0.  1.
        -11    1    4    4    0    0 -0.11846919794E+02 -0.44284905502E+02  0.72006849505E+02  0.85360932162E+02  0.00000000000E+00 0. -1.
         11    1    4    4    0    0 -0.32039167602E+02  0.43528315221E+02  0.50619873713E+02  0.74051293718E+02  0.00000000000E+00 0.  1.
</event>
<event>
 8    1  0.4798744E-006  0.1083993E+03  0.7561462E-02  0.1263563E+00
         -2   -1    0    0    0  501 -0.00000000000E+00  0.00000000000E+00  0.16116706087E+02  0.16116706087E+02  0.00000000000E+00 0.  1.
          2   -1    0    0  501    0  0.00000000000E+00 -0.00000000000E+00 -0.94587170774E+03  0.94587170774E+03  0.00000000000E+00 0. -1.
         23    2    1    2    0    0 -0.14566996150E+02 -0.56473275979E+02 -0.55189555383E+03  0.56889206567E+03  0.12509217311E+03 0.  0.
         23    2    1    2    0    0  0.14566996150E+02  0.56473275979E+02 -0.37785944782E+03  0.39309634815E+03  0.91353972790E+02 0.  0.
          5    1    3    3  502    0  0.37960518670E+02 -0.10212173265E+02 -0.58909217991E+02  0.70944047142E+02  0.41800000000E+01 0.  1.
         -5    1    3    3    0  502 -0.52527514821E+02 -0.46261102714E+02 -0.49298633584E+03  0.49794801853E+03  0.41800000000E+01 0.  1.
        -11    1    4    4    0    0 -0.32635912956E+02  0.49705416025E+02 -0.17980247749E+03  0.18937967712E+03  0.00000000000E+00 0.  1.
         11    1    4    4    0    0  0.47202909106E+02  0.67678599536E+01 -0.19805697034E+03  0.20371667103E+03  0.00000000000E+00 0. -1.
</event>
<event>
 8    1  0.4798744E-006  0.1610497E+03  0.7561462E-02  0.1187517E+00
         -2   -1    0    0    0  501 -0.00000000000E+00  0.00000000000E+00  0.52828255937E+02  0.52828255937E+02  0.00000000000E+00 0.  1.
          2   -1    0    0  501    0  0.00000000000E+00 -0.00000000000E+00 -0.50824827917E+03  0.50824827917E+03  0.00000000000E+00 0. -1.
         23    2    1    2    0    0  0.11872745612E+03  0.15239214334E+02 -0.28725646454E+03  0.33540153365E+03  0.12509784115E+03 0.  0.
         23    2    1    2    0    0 -0.11872745612E+03 -0.15239214334E+02 -0.16816355868E+03  0.22567500146E+03  0.91223798000E+02 0.  0.
          5    1    3    3  502    0  0.86133150180E+01  0.54484993055E+02 -0.10822421560E+03  0.12154323061E+03  0.41800000000E+01 0.  1.
         -5    1    3    3    0  502  0.11011414110E+03 -0.39245778721E+02 -0.17903224894E+03  0.21385830304E+03  0.41800000000E+01 0.  1.
        -11    1    4    4    0    0 -0.64578335512E+02 -0.53205498042E+02 -0.83086908934E+02  0.11791785648E+03  0.00000000000E+00 0.  1.
         11    1    4    4    0    0 -0.54149120610E+02  0.37966283709E+02 -0.85076649751E+02  0.10775714498E+03  0.00000000000E+00 0. -1.
</event>
<event>
 8    1  0.4798744E-006  0.9679492E+02  0.7561462E-02  0.1287184E+00
          1   -1    0    0  501    0  0.00000000000E+00  0.00000000000E+00  0.10632894032E+03  0.10632894032E+03  0.00000000000E+00 0. -1.
         -1   -1    0    0    0  501 -0.00000000000E+00 -0.00000000000E+00 -0.16882396332E+03  0.16882396332E+03  0.00000000000E+00 0.  1.
         23    2    1    2    0    0 -0.60159088538E+02  0.43375980024E+02 -0.62232714950E+02  0.15817605595E+03  0.12508462052E+03 0.  0.
         23    2    1    2    0    0  0.60159088538E+02 -0.43375980024E+02 -0.26230804328E+00  0.11697684769E+03  0.90459507587E+02 0.  0.
          5    1    3    3  502    0 -0.44447846361E+02  0.59098776127E+02 -0.93691303489E+02  0.11943118996E+03  0.41800000000E+01 0.  1.
         -5    1    3    3    0  502 -0.15711242177E+02 -0.15722796103E+02  0.31458588539E+02  0.38744865994E+02  0.41800000000E+01 0.  1.
        -11    1    4    4    0    0  0.61097182766E+02 -0.81150652708E+01  0.31760496785E+02  0.69335771304E+02  0.00000000000E+00 0. -1.
         11    1    4    4    0    0 -0.93809422781E+00 -0.35260914753E+02 -0.32022804828E+02  0.47641076384E+02  0.00000000000E+00 0.  1.
</event>
<event>
 8    1  0.4798744E-006  0.1109134E+03  0.7561462E-02  0.1258888E+00
         -4   -1    0    0    0  501 -0.00000000000E+00  0.00000000000E+00  0.68733372497E+02  0.68733372497E+02  0.00000000000E+00 0.  1.
          4   -1    0    0  501    0  0.00000000000E+00 -0.00000000000E+00 -0.19154328824E+03  0.19154328824E+03  0.00000000000E+00 0. -1.
         23    2    1    2    0    0 -0.30724593770E+02  0.20112482789E+02 -0.85042863622E+02  0.15565494264E+03  0.12509060671E+03 0.  0.
         23    2    1    2    0    0  0.30724593770E+02 -0.20112482789E+02 -0.37767052121E+02  0.10462171810E+03  0.90392704606E+02 0.  0.
          5    1    3    3  502    0 -0.72257006129E+02 -0.17171740559E+02 -0.49634853823E+02  0.89426141159E+02  0.41800000000E+01 0. -1.
         -5    1    3    3    0  502  0.41532412359E+02  0.37284223348E+02 -0.35408009799E+02  0.66228801476E+02  0.41800000000E+01 0. -1.
        -11    1    4    4    0    0 -0.10368345360E+02 -0.43138144796E+02 -0.36580569840E+02  0.57502523525E+02  0.00000000000E+00 0. -1.
         11    1    4    4    0    0  0.41092939130E+02  0.23025662007E+02 -0.11864822810E+01  0.47119194575E+02  0.00000000000E+00 0.  1.
</event>
<event>
 8    1  0.4798744E-006  0.1816678E+03  0.7561462E-02  0.1166199E+00
          2   -1    0    0  501    0  0.00000000000E+00  0.00000000000E+00  0.79080057502E+03  0.79080057502E+03  0.00000000000E+00 0.  1.
         -2   -1    0    0    0  501 -0.00000000000E+00 -0.00000000000E+00 -0.48222156698E+02  0.48222156698E+02  0.00000000000E+00 0. -1.
         23    2    1    2    0    0 -0.15322387790E+03 -0.11988374666E+02  0.27194271122E+03  0.33648408391E+03  0.12508965845E+03 0.  0.
         23    2    1    2    0    0  0.15322387790E+03  0.11988374666E+02  0.47063570710E+03  0.50253864781E+03  0.86173347719E+02 0.  0.
          5    1    3    3  502    0 -0.17417005075E+03 -0.58203761565E+01  0.25321375017E+03  0.30741463698E+03  0.41800000000E+01 0.  1.
         -5    1    3    3    0  502  0.20946172845E+02 -0.61679985099E+01  0.18728961048E+02  0.29069446924E+02  0.41800000000E+01 0.  1.
        -11    1    4    4    0    0  0.32770310968E+02  0.30680591171E+02  0.21086475607E+03  0.21559020689E+03  0.00000000000E+00 0.  1.
         11    1    4    4    0    0  0.12045356693E+03 -0.18692216505E+02  0.25977095103E+03  0.28694844092E+03  0.00000000000E+00 0. -1.
</event>
<event>
 7    1  0.4798744E-006  0.1672935E+03  0.7561462E-02  0.1180700E+00
         -1   -1    0    0    0  501 -0.00000000000E+00  0.00000000000E+00  0.57573317527E+03  0.57573317527E+03  0.00000000000E+00 0.  1.
          1   -1    0    0  501    0  0.00000000000E+00 -0.00000000000E+00 -0.24002357815E+03  0.24002357815E+03  0.00000000000E+00 0. -1.
         23    2    1    2    0    0 -0.38718603008E+02  0.65259091547E+02 -0.19828993672E+03  0.22813400930E+03  0.83476631129E+02 0.  0.
          5    1    1    2  502    0 -0.87528470138E+02 -0.62955097088E+02  0.33462243790E+03  0.35158814781E+03  0.41800000000E+01 0. -1.
         -5    1    1    2    0  502  0.12624707315E+03 -0.23039944587E+01  0.19937709594E+03  0.23603459631E+03  0.41800000000E+01 0.  1.
        -11    1    3    3    0    0 -0.53289359054E+02  0.27686691186E+02 -0.63284728042E+02  0.87242566793E+02  0.00000000000E+00 0. -1.
         11    1    3    3    0    0  0.14570756046E+02  0.37572400361E+02 -0.13500520868E+03  0.14089144250E+03  0.00000000000E+00 0.  1.
</event>
<event>
 8    1  0.4798744E-006  0.1143760E+03  0.7561462E-02  0.1252674E+00
          3   -1    0    0  501    0  0.00000000000E+00  0.00000000000E+00  0.50574678176E+03  0.50574678176E+03  0.00000000000E+00 0. -1.
         -3   -1    0    0    0  501 -0.00000000000E+00 -0.00000000000E+00 -0.30671678535E+02  0.30671678535E+02  0.00000000000E+00 0.  1.
         23    2    1    2    0    0 -0.30374480120E+02 -0.55757114883E+02  0.27554396386E+03  0.30919821375E+03  0.12509034519E+03 0.  0.
         23    2    1    2    0    0  0.30374480120E+02  0.55757114883E+02  0.19953113936E+03  0.22722024655E+03  0.88232080127E+02 0.  0.
          5    1    3    3  502    0  0.48518145534E+02 -0.15028214319E+02  0.88945528590E+02  0.10251164386E+03  0.41800000000E+01 0.  1.
         -5    1    3    3    0  502 -0.78892625653E+02 -0.40728900564E+02  0.18659843527E+03  0.20668656988E+03  0.41800000000E+01 0.  1.
        -11    1    4    4    0    0  0.18579270945E+02  0.68831691974E+02  0.19690729526E+03  0.20941698607E+03  0.00000000000E+00 0. -1.
         11    1    4    4    0    0  0.11795209175E+02 -0.13074577091E+02  0.26238440985E+01  0.17803260472E+02  0.00000000000E+00 0.  1.
</event>
<event>
 8    1  0.4798744E-006  0.1069256E+03  0.7561462E-02  0.1266372E+00
          1   -1    0    0  501    0  0.00000000000E+00  0.00000000000E+00  0.27614212448E+03  0.27614212448E+03  0.00000000000E+00 0. -1.
         -1   -1    0    0    0  501 -0.00000000000E+00 -0.00000000000E+00 -0.53490141080E+02  0.53490141080E+02  0.00000000000E+00 0.  1.
         23    2    1    2    0    0 -0.51167635095E+01  0.38960102227E+02  0.66128841730E+02  0.14684340322E+03  0.12508353419E+03 0.  0.
         23    2    1    2    0    0  0.51167635095E+01 -0.38960102227E+02  0.15652314167E+03  0.18278886234E+03  0.85838240213E+02 0.  0.
          5    1    3    3  502    0 -0.39696969699E+01  0.83195170573E+02  0.58199082358E+02  0.10169464336E+03  0.41800000000E+01 0.  1.
         -5    1    3    3    0  502 -0.11470665396E+01 -0.44235068346E+02  0.79297593719E+01  0.45148759860E+02  0.41800000000E+01 0.  1.
        -11    1    4    4    0    0 -0.35633671474E+02 -0.21948235064E+02  0.11418428414E+03  0.12161222928E+03  0.00000000000E+00 0.  1.
         11    1    4    4    0    0  0.40750434984E+02 -0.17011867164E+02  0.42338857524E+02  0.61176633057E+02  0.00000000000E+00 0. -1.
</event>
<event>
 7    1  0.4798744E-006  0.1228979E+03  0.7561462E-02  0.1238392E+00
         -2   -1    0    0    0  501 -0.00000000000E+00  0.00000000000E+00  0.33029640286E+02  0.33029640286E+02  0.00000000000E+00 0.  1.
          2   -1    0    0  501    0  0.00000000000E+00 -0.00000000000E+00 -0.63940535752E+03  0.63940535752E+03  0.00000000000E+00 0. -1.
         23    2    1    2    0    0 -0.57251613382E+02 -0.36060587775E+02 -0.32678260842E+03  0.34743877664E+03  0.96688764177E+02 0.  0.
          5    1    1    2  502    0 -0.16692704124E+02 -0.31015742112E+02 -0.18163816940E+03  0.18506895908E+03  0.41800000000E+01 0. -1.
         -5    1    1    2    0  502  0.73944317506E+02  0.67076329887E+02 -0.97954939414E+02  0.13992726210E+03  0.41800000000E+01 0.  1.
        -11    1    3    3    0    0  0.37320858812E+01  0.24308469965E+02 -0.13656232614E+03  0.13875914059E+03  0.00000000000E+00 0.  1.
         11    1    3    3    0    0 -0.60983699264E+02 -0.60369057740E+02 -0.19022028228E+03  0.20867963605E+03  0.00000000000E+00 0. -1.
</event>
<event>
 8    1  0.4798744E-006  0.1012615E+03  0.7561462E-02  0.1277665E+00
          2   -1    0    0  501    0  0.00000000000E+00  0.00000000000E+00  0.33747777125E+03  0.33747777125E+03  0.00000000000E+00 0. -1.
         -2   -1    0    0    0  501 -0.00000000000E+00 -0.00000000000E+00 -0.39606327193E+02  0.39606327193E+02  0.00000000000E+00 0.  1.
         23    2    1    2    0    0  0.28805399234E+02 -0.25886858866E+02  0.20842700323E+03  0.24614748828E+03  0.12508752866E+03 0.  0.
         23    2    1    2    0    0 -0.28805399234E+02  0.25886858866E+02  0.89444440834E+02  0.13093661016E+03  0.87431158053E+02 0.  0.
          5    1    3    3  502    0 -0.43942784015E+02 -0.43274471212E+01  0.33997106062E+02  0.55883545755E+02  0.41800000000E+01 0.  1.
         -5    1    3    3    0  502  0.72748183249E+02 -0.21559411744E+02  0.17442989716E+03  0.19026394253E+03  0.41800000000E+01 0.  1.
        -11    1    4    4    0    0 -0.16947523723E+02 -0.24848081348E+02  0.32952735606E+01  0.30257305479E+02  0.00000000000E+00 0.  1.
         11    1    4    4    0    0 -0.11857875511E+02  0.50734940214E+02  0.86149167273E+02  0.10067930469E+03  0.00000000000E+00 0. -1.
</event>
<event>
 8    1  0.4798744E-006  0.1013399E+03  0.7561462E-02  0.1277503E+00
          2   -1    0    0  501    0  0.00000000000E+00  0.00000000000E+00  0.28160420347E+03  0.28160420347E+03  0.00000000000E+00 0. -1.
         -2   -1    0    0    0  501 -0.00000000000E+00 -0.00000000000E+00 -0.60032623875E+02  0.60032623875E+02  0.00000000000E+00 0.  1.
         23    2    1    2    0    0  0.94026927317E+01 -0.35744201431E+02  0.42455790080E+02  0.13717149603E+03  0.12508983430E+03 0.  0.
         23    2    1    2    0    0 -0.94026927317E+01  0.35744201431E+02  0.17911578951E+03  0.20446533131E+03  0.91419620914E+02 0.  0.
          5    1    3    3  502    0 -0.50178891059E+02  0.14253059584E+02  0.13234423305E+02  0.53978636289E+02  0.41800000000E+01 0. -1.
         -5    1    3    3    0  502  0.59581583791E+02 -0.49997261016E+02  0.29221366775E+02  0.83192859743E+02  0.41800000000E+01 0. -1.
        -11    1    4    4    0    0 -0.35760951185E+02  0.14443580309E+02  0.23414721223E+02  0.45118863148E+02  0.00000000000E+00 0.  1.
         11    1    4    4    0    0  0.26358258453E+02  0.21300621122E+02  0.15570106829E+03  0.15934646816E+03  0.00000000000E+00 0. -1.
</event>
<event>
 8    1  0.4798744E-006  0.1128250E+03  0.7561462E-02  0.1255426E+00
         -2   -1    0    0    0  501 -0.00000000000E+00  0.00000000000E+00  0.68237628443E+02  0.68237628443E+02  0.00000000000E+00 0.  1.
          2   -1    0    0  501    0  0.00000000000E+00 -0.00000000000E+00 -0.33216201490E+03  0.33216201490E+03  0.00000000000E+00 0. -1.
         23    2    1    2    0    0 -0.53342996073E+02 -0.18212831838E+02 -0.14230854855E+02  0.12828064466E+03  0.11435131871E+03 0.  0.
         23    2    1    2    0    0  0.53342996073E+02  0.18212831838E+02 -0.24969353160E+03  0.27211899869E+03  0.92329341213E+02 0.  0.
          5    1    3    3  502    0 -0.78838500712E+02 -0.38445062783E+02 -0.28747152223E+02  0.92398069286E+02  0.41800000000E+01 0. -1.
         -5    1    3    3    0  502  0.25495504640E+02  0.20232230945E+02  0.14516297368E+02  0.35882575369E+02  0.41800000000E+01 0.  1.
        -11    1    4    4    0    0  0.60333844716E+02 -0.21990096062E+02 -0.18291341052E+03  0.19385833201E+03  0.00000000000E+00 0. -1.
         11    1    4    4    0    0 -0.69908486436E+01  0.40202927900E+02 -0.66780121085E+02  0.78260666676E+02  0.00000000000E+00 0.  1.
</event>
<event>
 8    1  0.4798744E-006  0.1318245E+03  0.7561462E-02  0.1224773E+00
          1   -1    0    0  501    0  0.00000000000E+00  0.00000000000E+00  0.42211555459E+03  0.42211555459E+03  0.00000000000E+00 0. -1.
         -1   -1    0    0    0  501 -0.00000000000E+00 -0.00000000000E+00 -0.53573228483E+02  0.53573228483E+02  0.00000000000E+00 0.  1.
         23    2    1    2    0    0  0.82513088420E+02 -0.61232389259E+02  0.17772290054E+03  0.24039635067E+03  0.12508861172E+03 0.  0.
         23    2    1    2    0    0 -0.82513088420E+02  0.61232389259E+02  0.19081942557E+03  0.23529243241E+03  0.91611463913E+02 0.  0.
          5    1    3    3  502    0  0.69383566366E+02  0.24271241515E+02  0.64756758157E+02  0.98051428207E+02  0.41800000000E+01 0.  1.
         -5    1    3    3    0  502  0.13129522054E+02 -0.85503630774E+02  0.11296614238E+03  0.14234492246E+03  0.41800000000E+01 0.  1.
        -11    1    4    4    0    0 -0.20408021239E+02  0.21745381401E+02 -0.10006909758E+01  0.29838738673E+02  0.00000000000E+00 0. -1.
         11    1    4    4    0    0 -0.62105067181E+02  0.39487007857E+02  0.19182011655E+03  0.20545369374E+03  0.00000000000E+00 0.  1.
</event>
<event>
 8    1  0.4798744E-006  0.7803773E+02  0.7561462E-02  0.1334714E+00
         -2   -1    0    0    0  501 -0.00000000000E+00  0.00000000000E+00  0.30050247481E+02  0.30050247481E+02  0.00000000000E+00 0.  1.
          2   -1    0    0  501    0  0.00000000000E+00 -0.00000000000E+00 -0.48400665158E+03  0.48400665158E+03  0.00000000000E+00 0. -1.
         23    2    1    2    0    0 -0.35529854559E+02 -0.46722333749E+01 -0.16971358233E+03  0.21385327285E+03  0.12508525872E+03 0.  0.
         23    2    1    2    0    0  0.35529854559E+02  0.46722333749E+01 -0.28424282177E+03  0.30020362622E+03  0.89688545187E+02 0.  0.
          5    1    3    3  502    0 -0.35713223732E+02  0.30953421330E+02 -0.78835265920E+01  0.48095436715E+02  0.41800000000E+01 0. -1.
         -5    1    3    3    0  502  0.18336917226E+00 -0.35625654705E+02 -0.16183005574E+03  0.16575783613E+03  0.41800000000E+01 0. -1.
        -11    1    4    4    0    0 -0.72843975877E+00  0.29056082753E+02 -0.28331802325E+02  0.40589131457E+02  0.00000000000E+00 0.  1.
         11    1    4    4    0    0  0.36258294318E+02 -0.24383849378E+02 -0.25591101944E+03  0.25961449476E+03  0.00000000000E+00 0. -1.
</event>
<event>
 8    1  0.4798744E-006  0.9963458E+02  0.7561462E-02  0.1281066E+00
         -4   -1    0    0    0  501 -0.00000000000E+00  0.00000000000E+00  0.36227633608E+03  0.36227633608E+03  0.00000000000E+00 0. -1.
          4   -1    0    0  501    0  0.00000000000E+00 -0.00000000000E+00 -0.53546738044E+02  0.53546738044E+02  0.00000000000E+00 0.  1.
         23    2    1    2    0    0  0.55975420869E+02 -0.27075113403E+02  0.26400658201E+03  0.29868760759E+03  0.12509397297E+03 0.  0.
         23    2    1    2    0    0 -0.55975420869E+02  0.27075113403E+02  0.44723016023E+02  0.11713546653E+03  0.88624262201E+02 0.  0.
          5    1    3    3  502    0 -0.24688134298E+02 -0.21626695160E+02  0.14045741986E+02  0.35944028525E+02  0.41800000000E+01 0.  1.
         -5    1    3    3    0  502  0.80663555167E+02 -0.54484182428E+01  0.24996084002E+03  0.26274357906E+03  0.41800000000E+01 0.  1.
        -11    1    4    4    0    0  0.29506979312E+01  0.26127900795E+02  0.51489335399E+02  0.57814578421E+02  0.00000000000E+00 0. -1.
         11    1    4    4    0    0 -0.58926118800E+02  0.94721260805E+00 -0.67663193758E+01  0.59320888113E+02  0.00000000000E+00 0.  1.
</event>
<event>
 8    1  0.4798744E-006  0.9581324E+02  0.7561462E-02  0.1289355E+00
          1   -1    0    0  501    0  0.00000000000E+00  0.00000000000E+00  0.26330661370E+02  0.26330661370E+02  0.00000000000E+00 0. -1.
         -1   -1    0    0    0  501 -0.00000000000E+00 -0.00000000000E+00 -0.49622739493E+03  0.49622739493E+03  0.00000000000E+00 0.  1.
         23    2    1    2    0    0 -0.26702401893E+02  0.18730145501E+02 -0.31931830342E+03  0.34448812169E+03  0.12507617867E+03 0.  0.
         23    2    1    2    0    0  0.26702401893E+02 -0.18730145501E+02 -0.15057843015E+03  0.17806993461E+03  0.89281584723E+02 0.  0.
          5    1    3    3  502    0  0.21210385986E+02 -0.30481117157E+02 -0.22303560559E+03  0.22614449526E+03  0.41800000000E+01 0. -1.
         -5    1    3    3    0  502 -0.47912787879E+02  0.49211262658E+02 -0.96282697826E+02  0.11834362643E+03  0.41800000000E+01 0. -1.
        -11    1    4    4    0    0  0.31554891939E+02 -0.47084579223E+02 -0.13244815295E+03  0.14406658886E+03  0.00000000000E+00 0.  1.
         11    1    4    4    0    0 -0.48524900467E+01  0.28354433722E+02 -0.18130277201E+02  0.34003345758E+02  0.00000000000E+00 0. -1.
</event>
<event>
 8    1  0.4798744E-006  0.1067841E+03  0.7561462E-02  0.1266644E+00
          2   -1    0    0  501    0  0.00000000000E+00  0.00000000000E+00  0.82885806382E+02  0.82885806382E+02  0.00000000000E+00 0. -1.
         -2   -1    0    0    0  501 -0.00000000000E+00 -0.00000000000E+00 -0.24375814924E+03  0.24375814924E+03  0.00000000000E+00 0.  1.
         23    2    1    2    0    0 -0.60796470984E+02  0.69880778568E+02 -0.11897290446E+03  0.18824223884E+03  0.11269895470E+03 0.  0.
         23    2    1    2    0    0  0.60796470984E+02 -0.69880778568E+02 -0.41899438405E+02  0.13840171679E+03  0.93914525890E+02 0.  0.
          5    1    3    3  502    0 -0.32284983732E+02  0.34084424378E+02  0.12672171446E+02  0.48807012702E+02  0.41800000000E+01 0. -1.
         -5    1    3    3    0  502 -0.28511487252E+02  0.35796354190E+02 -0.13164507590E+03  0.13943522614E+03  0.41800000000E+01 0.  1.
        -11    1    4    4    0    0  0.44706129783E+02 -0.86487046116E+02 -0.84313730415E+01  0.97722746776E+02  0.00000000000E+00 0. -1.
         11    1    4    4    0    0  0.16090341201E+02  0.16606267549E+02 -0.33468065363E+02  0.40678970009E+02  0.00000000000E+00 0.  1.
</event>
<event>
 8    1  0.4798744E-006  0.9422892E+02  0.7561462E-02  0.1292922E+00
          2   -1    0    0  501    0  0.00000000000E+00  0.00000000000E+00  0.23082366387E+03  0.23082366387E+03  0.00000000000E+00 0.  1.
         -2   -1    0    0    0  501 -0.00000000000E+00 -0.00000000000E+00 -0.51785741501E+02  0.51785741501E+02  0.00000000000E+00 0. -1.
         23    2    1    2    0    0 -0.12564802033E+02  0.11716929306E+02  0.10152744288E+03  0.16202434071E+03  0.12509558203E+03 0.  0.
         23    2    1    2    0    0  0.12564802033E+02 -0.11716929306E+02  0.77510479490E+02  0.12058506466E+03  0.90761901180E+02 0.  0.
          5    1    3    3  502    0  0.48093074962E+02  0.35581309078E+02  0.38555697595E+02  0.71295074389E+02  0.41800000000E+01 0.  1.
         -5    1    3    3    0  502 -0.60657876996E+02 -0.23864379772E+02  0.62971745286E+02  0.90729266326E+02  0.41800000000E+01 0.  1.
        -11    1    4    4    0    0 -0.21409325194E+02  0.91682972829E+01  0.77270527239E+02  0.80704096923E+02  0.00000000000E+00 0.  1.
         11    1    4    4    0    0  0.33974127228E+02 -0.20885226589E+02  0.23995225059E+00  0.39880967737E+02  0.00000000000E+00 0. -1.
</event>
